<?xml version="1.0"?> 
<VTKFile type="StructuredGrid" version="0.1"> 
<StructuredGrid WholeExtent="0 31 0 31 0 0"> 
<Piece Extent="0 31 0 31 0 0"> 
<PointData>
<DataArray type="Float32" Name="u" format="ascii" NumberOfComponents="3"> 
0 0 0 3.68476e-05 4.43588e-05 0 6.55329e-05 6.09462e-05 0 9.52403e-05 6.873e-05 0 0.000126028 7.24048e-05 0 0.000158036 7.40414e-05 0 0.000190792 7.47244e-05 0 0.000224178 7.49402e-05 0 0.000257953 7.49563e-05 0 0.000292021 7.48808e-05 0 0.00032628 7.47751e-05 0 0.000360677 7.46597e-05 0 0.000395167 7.45458e-05 0 0.000429723 7.44353e-05 0 0.000464325 7.43285e-05 0 0.000498962 7.4224e-05 0 0.000533624 7.41206e-05 0 0.000568307 7.40171e-05 0 0.000603009 7.39126e-05 0 0.000637727 7.38068e-05 0 0.000672462 7.36996e-05 0 0.000707215 7.35919e-05 0 0.000741987 7.34842e-05 0 0.000776777 7.33782e-05 0 0.000811584 7.32725e-05 0 0.000846407 7.31679e-05 0 0.000881232 7.30483e-05 0 0.000916058 7.28996e-05 0 0.000950842 7.26349e-05 0 0.000985606 7.21496e-05 0 0.00102029 7.10312e-05 0 0.00105515 6.79217e-05 0 0 0 0 3.33905e-05 3.99791e-05 0 6.45099e-05 5.66049e-05 0 9.54079e-05 6.43623e-05 0 0.000126796 6.78454e-05 0 0.000158984 6.93669e-05 0 0.000191805 6.9952e-05 0 0.000225132 7.00965e-05 0 0.000258832 7.00646e-05 0 0.000292799 6.99528e-05 0 0.00032696 6.98231e-05 0 0.000361258 6.96898e-05 0 0.000395655 6.95637e-05 0 0.000430121 6.94442e-05 0 0.000464639 6.93309e-05 0 0.000499193 6.92216e-05 0 0.000533775 6.91145e-05 0 0.000568379 6.9008e-05 0 0.000603 6.8901e-05 0 0.000637637 6.8793e-05 0 0.000672286 6.86838e-05 0 0.000706948 6.85741e-05 0 0.00074162 6.84646e-05 0 0.000776301 6.8357e-05 0 0.000810986 6.82507e-05 0 0.000845669 6.8146e-05 0 0.000880335 6.80292e-05 0 0.000914971 6.78845e-05 0 0.000949538 6.76312e-05 0 0.000984011 6.71555e-05 0 0.00101829 6.60613e-05 0 0.00105211 6.31215e-05 0 0 0 0 3.11983e-05 3.56294e-05 0 6.34311e-05 5.21996e-05 0 9.52019e-05 5.98462e-05 0 0.000127203 6.3245e-05 0 0.000159655 6.46644e-05 0 0.00019259 6.5173e-05 0 0.000225929 6.52583e-05 0 0.000259589 6.51808e-05 0 0.000293492 6.50373e-05 0 0.000327576 6.48831e-05 0 0.000361793 6.47329e-05 0 0.000396108 6.4594e-05 0 0.000430494 6.44654e-05 0 0.000464933 6.43453e-05 0 0.00049941 6.42311e-05 0 0.000533916 6.41202e-05 0 0.000568443 6.40109e-05 0 0.000602987 6.39016e-05 0 0.000637544 6.37918e-05 0 0.00067211 6.36813e-05 0 0.000706682 6.35706e-05 0 0.000741258 6.34606e-05 0 0.000775832 6.33531e-05 0 0.000810399 6.32481e-05 0 0.000844947 6.31459e-05 0 0.000879461 6.30354e-05 0 0.00091392 6.2898e-05 0 0.00094828 6.26639e-05 0 0.000982498 6.22061e-05 0 0.00101645 6.11643e-05 0 0.00104999 5.84738e-05 0 0 0 0 2.99997e-05 3.16928e-05 0 6.24423e-05 4.77625e-05 0 9.48377e-05 5.52636e-05 0 0.000127343 5.85833e-05 0 0.000160096 5.99301e-05 0 0.000193184 6.03768e-05 0 0.000226578 6.04152e-05 0 0.000260234 6.02994e-05 0 0.0002941 6.01279e-05 0 0.000328128 5.99521e-05 0 0.000362279 5.97859e-05 0 0.000396524 5.9635e-05 0 0.000430839 5.94975e-05 0 0.000465206 5.93708e-05 0 0.000499611 5.92516e-05 0 0.000534045 5.91371e-05 0 0.0005685 5.90251e-05 0 0.00060297 5.8914e-05 0 0.000637449 5.88029e-05 0 0.000671935 5.86917e-05 0 0.000706421 5.8581e-05 0 0.000740903 5.84717e-05 0 0.000775375 5.83658e-05 0 0.000809829 5.82638e-05 0 0.000844251 5.81663e-05 0 0.000878623 5.80639e-05 0 0.00091292 5.79383e-05 0 0.0009471 5.77249e-05 0 0.00098111 5.72949e-05 0 0.00101486 5.63012e-05 0 0.00104825 5.3861e-05 0 0 0 0 2.93305e-05 2.81483e-05 0 6.16551e-05 4.33881e-05 0 9.44188e-05 5.06501e-05 0 0.000127316 5.38729e-05 0 0.000160358 5.51602e-05 0 0.000193616 5.5558e-05 0 0.000227094 5.55611e-05 0 0.000260774 5.54147e-05 0 0.000294625 5.52205e-05 0 0.000328616 5.50263e-05 0 0.000362717 5.48463e-05 0 0.000396903 5.46846e-05 0 0.000431155 5.4539e-05 0 0.000465457 5.44061e-05 0 0.000499797 5.42823e-05 0 0.000534163 5.41645e-05 0 0.00056855 5.40502e-05 0 0.000602949 5.39376e-05 0 0.000637356 5.38259e-05 0 0.000671764 5.37147e-05 0 0.000706168 5.36048e-05 0 0.000740561 5.34972e-05 0 0.000774936 5.3394e-05 0 0.000809283 5.32964e-05 0 0.000843588 5.32052e-05 0 0.000877831 5.31125e-05 0 0.000911986 5.30005e-05 0 0.000946016 5.28087e-05 0 0.000979872 5.2408e-05 0 0.0010135 5.14622e-05 0 0.0010468 4.92573e-05 0 0 0 0 2.89343e-05 2.49217e-05 0 6.10628e-05 3.91221e-05 0 9.40088e-05 4.60357e-05 0 0.000127194 4.91301e-05 0 0.000160488 5.03558e-05 0 0.000193919 5.07151e-05 0 0.000227495 5.06914e-05 0 0.000261218 5.0523e-05 0 0.000295074 5.03115e-05 0 0.000329043 5.01031e-05 0 0.000363106 4.99118e-05 0 0.000397244 4.97411e-05 0 0.000431443 4.95884e-05 0 0.000465687 4.94502e-05 0 0.000499966 4.93224e-05 0 0.000534271 4.92016e-05 0 0.000568593 4.90854e-05 0 0.000602927 4.89719e-05 0 0.000637264 4.886e-05 0 0.000671599 4.87495e-05 0 0.000705925 4.86412e-05 0 0.000740235 4.85362e-05 0 0.00077452 4.84367e-05 0 0.000808768 4.83445e-05 0 0.000842966 4.82605e-05 0 0.000877095 4.81782e-05 0 0.000911129 4.80802e-05 0 0.000945038 4.79093e-05 0 0.000978784 4.75369e-05 0 0.00101233 4.66438e-05 0 0.00104556 4.46626e-05 0 0 0 0 2.86887e-05 2.19505e-05 0 6.06184e-05 3.49741e-05 0 9.36419e-05 4.1444e-05 0 0.000127026 4.43677e-05 0 0.000160528 4.55231e-05 0 0.000194119 4.58477e-05 0 0.0002278 4.58047e-05 0 0.000261578 4.56213e-05 0 0.000295452 4.53984e-05 0 0.000329412 4.51799e-05 0 0.000363449 4.49804e-05 0 0.000397549 4.48028e-05 0 0.000431701 4.46445e-05 0 0.000465894 4.45019e-05 0 0.000500119 4.43708e-05 0 0.000534368 4.42478e-05 0 0.000568631 4.41302e-05 0 0.000602903 4.40162e-05 0 0.000637176 4.39047e-05 0 0.000671443 4.37955e-05 0 0.000705697 4.36894e-05 0 0.000739929 4.35877e-05 0 0.00077413 4.34927e-05 0 0.000808289 4.34063e-05 0 0.000842392 4.33299e-05 0 0.000876421 4.32579e-05 0 0.000910355 4.31733e-05 0 0.000944169 4.30215e-05 0 0.000977836 4.26769e-05 0 0.00101132 4.18444e-05 0 0.0010445 4.00756e-05 0 0 0 0 2.85298e-05 1.91839e-05 0 6.02831e-05 3.09408e-05 0 9.33262e-05 3.68865e-05 0 0.000126844 3.95975e-05 0 0.000160511 4.06682e-05 0 0.000194244 4.09583e-05 0 0.000228027 4.09005e-05 0 0.000261866 4.07084e-05 0 0.000295766 4.04792e-05 0 0.000329727 4.02551e-05 0 0.000363746 4.00504e-05 0 0.000397816 3.98682e-05 0 0.00043193 3.97061e-05 0 0.000466079 3.95602e-05 0 0.000500256 3.94266e-05 0 0.000534454 3.9302e-05 0 0.000568664 3.91836e-05 0 0.000602879 3.90696e-05 0 0.000637093 3.89591e-05 0 0.000671297 3.88518e-05 0 0.000705485 3.87485e-05 0 0.000739646 3.86506e-05 0 0.000773771 3.85604e-05 0 0.00080785 3.84802e-05 0 0.000841869 3.84112e-05 0 0.000875814 3.83488e-05 0 0.000909666 3.82763e-05 0 0.000943407 3.81421e-05 0 0.000977016 3.78259e-05 0 0.00101045 3.7062e-05 0 0.00104359 3.54976e-05 0 0 0 0 2.84238e-05 1.65822e-05 0 6.00268e-05 2.7012e-05 0 9.30608e-05 3.23682e-05 0 0.000126666 3.48272e-05 0 0.000160461 3.5797e-05 0 0.000194315 3.60495e-05 0 0.000228191 3.59797e-05 0 0.000262091 3.57838e-05 0 0.000296023 3.5553e-05 0 0.000329992 3.53273e-05 0 0.000364002 3.51207e-05 0 0.000398049 3.49363e-05 0 0.000432131 3.47719e-05 0 0.000466243 3.46241e-05 0 0.000500378 3.4489e-05 0 0.00053453 3.43634e-05 0 0.000568692 3.42448e-05 0 0.000602856 3.41315e-05 0 0.000637017 3.40224e-05 0 0.000671164 3.39175e-05 0 0.000705292 3.38174e-05 0 0.000739389 3.37237e-05 0 0.000773447 3.36386e-05 0 0.000807456 3.35644e-05 0 0.000841403 3.35025e-05 0 0.000875277 3.34486e-05 0 0.000909063 3.33866e-05 0 0.000942749 3.32685e-05 0 0.000976313 3.29825e-05 0 0.00100971 3.22945e-05 0 0.00104282 3.09279e-05 0 0 0 0 2.83512e-05 1.41135e-05 0 5.98295e-05 2.3176e-05 0 9.28409e-05 2.7889e-05 0 0.000126503 3.00621e-05 0 0.000160395 3.09146e-05 0 0.000194348 3.11249e-05 0 0.000228307 3.1044e-05 0 0.000262265 3.08478e-05 0 0.000296231 3.06194e-05 0 0.000330213 3.03957e-05 0 0.000364217 3.01903e-05 0 0.000398248 3.0006e-05 0 0.000432305 2.98411e-05 0 0.000466385 2.96926e-05 0 0.000500483 2.9557e-05 0 0.000534596 2.94312e-05 0 0.000568715 2.93131e-05 0 0.000602835 2.92008e-05 0 0.000636948 2.90937e-05 0 0.000671046 2.89915e-05 0 0.00070512 2.88951e-05 0 0.000739161 2.88058e-05 0 0.00077316 2.87258e-05 0 0.000807108 2.86574e-05 0 0.000840995 2.86017e-05 0 0.00087481 2.8555e-05 0 0.000908545 2.85022e-05 0 0.000942187 2.83994e-05 0 0.000975718 2.81457e-05 0 0.00100909 2.75399e-05 0 0.00104217 2.63663e-05 0 0 0 0 2.83007e-05 1.17516e-05 0 5.96773e-05 1.94199e-05 0 9.26613e-05 2.34465e-05 0 0.000126361 2.53045e-05 0 0.000160325 2.60248e-05 0 0.000194358 2.61874e-05 0 0.000228388 2.60953e-05 0 0.000262398 2.59013e-05 0 0.000296396 2.56786e-05 0 0.000330392 2.54602e-05 0 0.000364397 2.52585e-05 0 0.000398416 2.50765e-05 0 0.000432452 2.49129e-05 0 0.000466506 2.4765e-05 0 0.000500574 2.46297e-05 0 0.000534653 2.45045e-05 0 0.000568736 2.43873e-05 0 0.000602817 2.42767e-05 0 0.000636889 2.41719e-05 0 0.000670943 2.40729e-05 0 0.000704971 2.39803e-05 0 0.000738964 2.38955e-05 0 0.000772913 2.38206e-05 0 0.00080681 2.37574e-05 0 0.000840646 2.37072e-05 0 0.000874415 2.36664e-05 0 0.000908109 2.36216e-05 0 0.000941719 2.35336e-05 0 0.000975224 2.33147e-05 0 0.00100857 2.27962e-05 0 0.00104163 2.18117e-05 0 0 0 0 2.82654e-05 9.4745e-06 0 5.95608e-05 1.57312e-05 0 9.25178e-05 1.90365e-05 0 0.000126241 2.05554e-05 0 0.000160259 2.11304e-05 0 0.000194355 2.124e-05 0 0.000228442 2.11359e-05 0 0.000262497 2.09455e-05 0 0.000296524 2.07311e-05 0 0.000330535 2.05206e-05 0 0.000364542 2.03251e-05 0 0.000398553 2.01473e-05 0 0.000432574 1.99865e-05 0 0.000466607 1.98403e-05 0 0.00050065 1.97063e-05 0 0.0005347 1.95824e-05 0 0.000568753 1.94667e-05 0 0.000602802 1.93581e-05 0 0.000636839 1.9256e-05 0 0.000670857 1.91604e-05 0 0.000704846 1.90719e-05 0 0.000738799 1.89917e-05 0 0.000772707 1.89216e-05 0 0.000806562 1.88632e-05 0 0.000840358 1.88175e-05 0 0.00087409 1.87816e-05 0 0.000907753 1.87436e-05 0 0.000941338 1.86704e-05 0 0.000974823 1.84885e-05 0 0.00100815 1.80615e-05 0 0.0010412 1.72631e-05 0 0 0 0 2.82409e-05 7.26329e-06 0 5.94737e-05 1.2097e-05 0 9.24068e-05 1.46539e-05 0 0.000126145 1.58145e-05 0 0.000160202 1.62333e-05 0 0.000194345 1.62851e-05 0 0.000228477 1.61678e-05 0 0.000262569 1.59821e-05 0 0.000296621 1.57778e-05 0 0.000330646 1.55773e-05 0 0.000364655 1.539e-05 0 0.000398661 1.52182e-05 0 0.000432671 1.50614e-05 0 0.000466688 1.4918e-05 0 0.000500711 1.47861e-05 0 0.00053474 1.46639e-05 0 0.000568768 1.45502e-05 0 0.000602791 1.44441e-05 0 0.000636801 1.4345e-05 0 0.000670789 1.42531e-05 0 0.000704747 1.41687e-05 0 0.000738668 1.40931e-05 0 0.000772543 1.40275e-05 0 0.000806366 1.39735e-05 0 0.000840131 1.39316e-05 0 0.000873835 1.38995e-05 0 0.000907474 1.38675e-05 0 0.000941041 1.38092e-05 0 0.000974512 1.36664e-05 0 0.00100783 1.33341e-05 0 0.00104086 1.27195e-05 0 0 0 0 2.82245e-05 5.10128e-06 0 5.94117e-05 8.50495e-06 0 9.23259e-05 1.0293e-05 0 0.000126073 1.10806e-05 0 0.000160157 1.13348e-05 0 0.000194334 1.13247e-05 0 0.0002285 1.1193e-05 0 0.00026262 1.10127e-05 0 0.000296691 1.08197e-05 0 0.000330727 1.0631e-05 0 0.00036474 1.04533e-05 0 0.000398743 1.02888e-05 0 0.000432745 1.01372e-05 0 0.00046675 9.99741e-06 0 0.000500759 9.86818e-06 0 0.000534771 9.74835e-06 0 0.000568782 9.63702e-06 0 0.000602785 9.53357e-06 0 0.000636774 9.43774e-06 0 0.00067074 9.3496e-06 0 0.000704675 9.26956e-06 0 0.000738572 9.1984e-06 0 0.000772423 9.1372e-06 0 0.000806222 9.08702e-06 0 0.000839965 9.04831e-06 0 0.000873649 9.01929e-06 0 0.000907271 8.99275e-06 0 0.000940826 8.94947e-06 0 0.000974286 8.84744e-06 0 0.00100759 8.61212e-06 0 0.00104062 8.17987e-06 0 0 0 0 2.82145e-05 2.97337e-06 0 5.93721e-05 4.94286e-06 0 9.22733e-05 5.94775e-06 0 0.000126026 6.35191e-06 0 0.000160127 6.43547e-06 0 0.000194326 6.36066e-06 0 0.000228514 6.2137e-06 0 0.000262652 6.03886e-06 0 0.000296737 5.85826e-06 0 0.000330781 5.68231e-06 0 0.000364797 5.51547e-06 0 0.000398798 5.35917e-06 0 0.000432795 5.2135e-06 0 0.000466793 5.07795e-06 0 0.000500793 4.95189e-06 0 0.000534794 4.83474e-06 0 0.000568793 4.72605e-06 0 0.000602784 4.62555e-06 0 0.000636759 4.53313e-06 0 0.000670711 4.44891e-06 0 0.000704631 4.3732e-06 0 0.000738512 4.30649e-06 0 0.000772347 4.24947e-06 0 0.000806131 4.20281e-06 0 0.000839859 4.16677e-06 0 0.00087353 4.14023e-06 0 0.000907143 4.11878e-06 0 0.000940689 4.09074e-06 0 0.000974143 4.03069e-06 0 0.00100744 3.89402e-06 0 0.00104046 3.64296e-06 0 0 0 0 2.82099e-05 8.6549e-07 0 5.9353e-05 1.39863e-06 0 9.22478e-05 1.61201e-06 0 0.000126003 1.62651e-06 0 0.000160112 1.53582e-06 0 0.000194323 1.39446e-06 0 0.000228522 1.23159e-06 0 0.000262669 1.06239e-06 0 0.000296762 8.94624e-07 0 0.000330809 7.32138e-07 0 0.000364827 5.76759e-07 0 0.000398828 4.29289e-07 0 0.000432823 2.90038e-07 0 0.000466818 1.59104e-07 0 0.000500814 3.65076e-08 0 0.00053481 -7.77398e-08 0 0.000568803 -1.83609e-07 0 0.000602788 -2.81039e-07 0 0.000636756 -3.69934e-07 0 0.000670702 -4.5016e-07 0 0.000704615 -5.21532e-07 0 0.000738489 -5.83825e-07 0 0.000772316 -6.36775e-07 0 0.000806092 -6.80139e-07 0 0.000839814 -7.13825e-07 0 0.000873479 -7.38212e-07 0 0.000907087 -7.54784e-07 0 0.00094063 -7.67467e-07 0 0.000974082 -7.84782e-07 0 0.00100738 -8.21836e-07 0 0.0010404 -8.9228e-07 0 0 0 0 2.82103e-05 -1.23583e-06 0 5.93538e-05 -2.13972e-06 0 9.22489e-05 -2.72061e-06 0 0.000126004 -3.09782e-06 0 0.000160114 -3.36397e-06 0 0.000194325 -3.5725e-06 0 0.000228524 -3.75149e-06 0 0.000262672 -3.91502e-06 0 0.000296765 -4.06979e-06 0 0.000330813 -4.2186e-06 0 0.000364832 -4.3623e-06 0 0.000398834 -4.50075e-06 0 0.000432829 -4.63342e-06 0 0.000466824 -4.75962e-06 0 0.000500821 -4.87866e-06 0 0.000534818 -4.98993e-06 0 0.000568812 -5.09292e-06 0 0.000602797 -5.18724e-06 0 0.000636767 -5.27258e-06 0 0.000670713 -5.34879e-06 0 0.000704627 -5.41581e-06 0 0.000738502 -5.4737e-06 0 0.00077233 -5.52263e-06 0 0.000806107 -5.56277e-06 0 0.000839829 -5.5942e-06 0 0.000873495 -5.61654e-06 0 0.000907104 -5.62831e-06 0 0.000940648 -5.62559e-06 0 0.0009741 -5.59992e-06 0 0.0010074 -5.53703e-06 0 0.00104042 -5.42699e-06 0 0 0 0 2.82156e-05 -3.34386e-06 0 5.93744e-05 -5.68412e-06 0 9.22767e-05 -7.05651e-06 0 0.00012603 -7.82336e-06 0 0.000160132 -8.26376e-06 0 0.000194333 -8.53884e-06 0 0.000228522 -8.73375e-06 0 0.000262661 -8.89165e-06 0 0.000296748 -9.0336e-06 0 0.000330793 -9.16897e-06 0 0.00036481 -9.30121e-06 0 0.000398814 -9.43085e-06 0 0.000432813 -9.55711e-06 0 0.000466812 -9.6787e-06 0 0.000500815 -9.79429e-06 0 0.000534818 -9.90267e-06 0 0.000568819 -1.00028e-05 0 0.000602812 -1.00941e-05 0 0.00063679 -1.01759e-05 0 0.000670744 -1.02481e-05 0 0.000704667 -1.03108e-05 0 0.000738551 -1.03643e-05 0 0.000772388 -1.04092e-05 0 0.000806174 -1.0446e-05 0 0.000839905 -1.04751e-05 0 0.000873579 -1.04953e-05 0 0.000907194 -1.05022e-05 0 0.000940742 -1.04841e-05 0 0.000974199 -1.04157e-05 0 0.0010075 -1.02531e-05 0 0.00104052 -9.96228e-06 0 0 0 0 2.82263e-05 -5.47206e-06 0 5.94155e-05 -9.24654e-06 0 9.23315e-05 -1.1402e-05 0 0.00012608 -1.25523e-05 0 0.000160166 -1.31633e-05 0 0.000194345 -1.35032e-05 0 0.000228513 -1.37134e-05 0 0.000262635 -1.38658e-05 0 0.000296709 -1.39954e-05 0 0.000330747 -1.4118e-05 0 0.000364763 -1.42395e-05 0 0.000398769 -1.43609e-05 0 0.000432774 -1.44813e-05 0 0.000466782 -1.45986e-05 0 0.000500795 -1.47111e-05 0 0.000534811 -1.48168e-05 0 0.000568825 -1.49143e-05 0 0.000602833 -1.50027e-05 0 0.000636825 -1.50811e-05 0 0.000670796 -1.51494e-05 0 0.000704736 -1.52077e-05 0 0.000738637 -1.52568e-05 0 0.000772492 -1.52974e-05 0 0.000806295 -1.53308e-05 0 0.000840041 -1.53572e-05 0 0.000873729 -1.53749e-05 0 0.000907356 -1.53767e-05 0 0.000940914 -1.53434e-05 0 0.000974379 -1.5233e-05 0 0.00100769 -1.49717e-05 0 0.00104072 -1.44993e-05 0 0 0 0 2.82434e-05 -7.63449e-06 0 5.94788e-05 -1.2839e-05 0 9.24144e-05 -1.57634e-05 0 0.000126155 -1.72867e-05 0 0.000160214 -1.80623e-05 0 0.00019436 -1.8464e-05 0 0.000228495 -1.86885e-05 0 0.00026259 -1.88357e-05 0 0.000296645 -1.8954e-05 0 0.000330673 -1.90649e-05 0 0.000364687 -1.91767e-05 0 0.000398697 -1.92909e-05 0 0.000432712 -1.94062e-05 0 0.000466733 -1.952e-05 0 0.000500762 -1.96297e-05 0 0.000534796 -1.97332e-05 0 0.00056883 -1.98284e-05 0 0.000602858 -1.9914e-05 0 0.000636873 -1.99892e-05 0 0.000670867 -2.00537e-05 0 0.000704831 -2.01078e-05 0 0.000738758 -2.01523e-05 0 0.000772639 -2.01886e-05 0 0.000806468 -2.0218e-05 0 0.000840239 -2.02413e-05 0 0.000873948 -2.02559e-05 0 0.000907593 -2.02523e-05 0 0.000941165 -2.02039e-05 0 0.000974642 -2.00528e-05 0 0.00100796 -1.96943e-05 0 0.001041 -1.90391e-05 0 0 0 0 2.82685e-05 -9.84627e-06 0 5.95672e-05 -1.64738e-05 0 9.25272e-05 -2.01466e-05 0 0.000126253 -2.20281e-05 0 0.000160274 -2.29599e-05 0 0.000194373 -2.34194e-05 0 0.000228464 -2.36573e-05 0 0.000262523 -2.37998e-05 0 0.000296555 -2.3908e-05 0 0.00033057 -2.40089e-05 0 0.000364582 -2.41126e-05 0 0.000398599 -2.4221e-05 0 0.000432626 -2.43322e-05 0 0.000466665 -2.44432e-05 0 0.000500714 -2.4551e-05 0 0.000534772 -2.46526e-05 0 0.000568832 -2.47459e-05 0 0.000602888 -2.48291e-05 0 0.000636932 -2.49013e-05 0 0.000670957 -2.49622e-05 0 0.000704954 -2.50121e-05 0 0.000738915 -2.50521e-05 0 0.00077283 -2.50838e-05 0 0.000806693 -2.51089e-05 0 0.000840497 -2.51283e-05 0 0.000874236 -2.51391e-05 0 0.000907906 -2.51295e-05 0 0.000941498 -2.50663e-05 0 0.00097499 -2.48761e-05 0 0.00100833 -2.44228e-05 0 0.00104138 -2.35829e-05 0 0 0 0 2.83044e-05 -1.21241e-05 0 5.96847e-05 -2.01634e-05 0 9.26723e-05 -2.45573e-05 0 0.000126375 -2.67778e-05 0 0.000160343 -2.78549e-05 0 0.00019438 -2.83675e-05 0 0.000228414 -2.86175e-05 0 0.000262429 -2.87563e-05 0 0.000296432 -2.88564e-05 0 0.000330434 -2.89495e-05 0 0.000364445 -2.90471e-05 0 0.000398471 -2.91512e-05 0 0.000432515 -2.92597e-05 0 0.000466576 -2.93691e-05 0 0.000500653 -2.94756e-05 0 0.000534739 -2.95761e-05 0 0.000568831 -2.96679e-05 0 0.000602921 -2.97491e-05 0 0.000637002 -2.98186e-05 0 0.000671065 -2.98761e-05 0 0.000705102 -2.99219e-05 0 0.000739105 -2.99573e-05 0 0.000773064 -2.99842e-05 0 0.00080697 -3.00045e-05 0 0.000840816 -3.00193e-05 0 0.000874593 -3.00253e-05 0 0.000908296 -3.00088e-05 0 0.000941914 -2.99309e-05 0 0.000975428 -2.97036e-05 0 0.00100878 -2.91586e-05 0 0.00104185 -2.81318e-05 0 0 0 0 2.83553e-05 -1.44868e-05 0 5.98378e-05 -2.39202e-05 0 9.28531e-05 -2.90006e-05 0 0.000126519 -3.15361e-05 0 0.000160416 -3.27455e-05 0 0.000194373 -3.33058e-05 0 0.000228337 -3.3567e-05 0 0.000262301 -3.37038e-05 0 0.000296273 -3.37983e-05 0 0.000330262 -3.38862e-05 0 0.000364274 -3.39801e-05 0 0.000398313 -3.4082e-05 0 0.000432378 -3.41894e-05 0 0.000466467 -3.42982e-05 0 0.000500576 -3.44044e-05 0 0.000534698 -3.45044e-05 0 0.000568828 -3.45952e-05 0 0.000602958 -3.46749e-05 0 0.000637082 -3.47421e-05 0 0.00067119 -3.47965e-05 0 0.000705275 -3.48384e-05 0 0.000739328 -3.48693e-05 0 0.000773339 -3.48912e-05 0 0.000807298 -3.49062e-05 0 0.000841195 -3.49155e-05 0 0.000875022 -3.49155e-05 0 0.000908767 -3.48911e-05 0 0.000942419 -3.47984e-05 0 0.00097596 -3.45364e-05 0 0.00100934 -3.39038e-05 0 0.00104243 -3.26868e-05 0 0 0 0 2.84281e-05 -1.69564e-05 0 6.00356e-05 -2.77572e-05 0 9.30738e-05 -3.34806e-05 0 0.000126683 -3.63021e-05 0 0.000160483 -3.76288e-05 0 0.000194342 -3.82314e-05 0 0.000228224 -3.85037e-05 0 0.000262131 -3.86409e-05 0 0.00029607 -3.87331e-05 0 0.000330048 -3.88191e-05 0 0.000364066 -3.8912e-05 0 0.000398123 -3.90139e-05 0 0.000432215 -3.91218e-05 0 0.000466337 -3.92314e-05 0 0.000500483 -3.93382e-05 0 0.000534647 -3.94384e-05 0 0.000568821 -3.95289e-05 0 0.000602998 -3.96075e-05 0 0.000637171 -3.96728e-05 0 0.000671331 -3.97244e-05 0 0.000705471 -3.97628e-05 0 0.000739582 -3.97893e-05 0 0.000773653 -3.9806e-05 0 0.000807674 -3.98153e-05 0 0.000841635 -3.98183e-05 0 0.000875521 -3.98111e-05 0 0.00090932 -3.97775e-05 0 0.000943017 -3.96695e-05 0 0.000976593 -3.93752e-05 0 0.00101001 -3.86602e-05 0 0.00104312 -3.72489e-05 0 0 0 0 2.85342e-05 -1.9559e-05 0 6.0292e-05 -3.16869e-05 0 9.33395e-05 -3.79999e-05 0 0.000126862 -4.10733e-05 0 0.000160534 -4.25009e-05 0 0.000194273 -4.31412e-05 0 0.000228062 -4.34257e-05 0 0.000261909 -4.35669e-05 0 0.000295818 -4.36608e-05 0 0.000329788 -4.37484e-05 0 0.000363818 -4.38434e-05 0 0.000397899 -4.39476e-05 0 0.000432024 -4.40578e-05 0 0.000466185 -4.41695e-05 0 0.000500375 -4.42779e-05 0 0.000534586 -4.43791e-05 0 0.000568809 -4.44699e-05 0 0.000603039 -4.45479e-05 0 0.000637267 -4.46118e-05 0 0.000671486 -4.46611e-05 0 0.000705688 -4.46962e-05 0 0.000739864 -4.47185e-05 0 0.000774005 -4.47302e-05 0 0.000808098 -4.47334e-05 0 0.000842132 -4.47294e-05 0 0.000876091 -4.47137e-05 0 0.000909958 -4.46695e-05 0 0.000943713 -4.45453e-05 0 0.000977335 -4.42209e-05 0 0.00101079 -4.34298e-05 0 0.00104394 -4.18191e-05 0 0 0 0 2.86929e-05 -2.23267e-05 0 6.06269e-05 -3.57212e-05 0 9.36548e-05 -4.25583e-05 0 0.000127044 -4.58445e-05 0 0.000160552 -4.73569e-05 0 0.000194149 -4.80318e-05 0 0.000227838 -4.83312e-05 0 0.000261625 -4.84813e-05 0 0.000295508 -4.85815e-05 0 0.000329479 -4.8675e-05 0 0.000363527 -4.87752e-05 0 0.000397639 -4.88841e-05 0 0.000431804 -4.89984e-05 0 0.000466011 -4.91134e-05 0 0.000500251 -4.92244e-05 0 0.000534514 -4.93273e-05 0 0.000568793 -4.94189e-05 0 0.000603081 -4.9497e-05 0 0.00063737 -4.956e-05 0 0.000671653 -4.96074e-05 0 0.000705924 -4.96398e-05 0 0.000740173 -4.96583e-05 0 0.000774391 -4.96651e-05 0 0.000808566 -4.96622e-05 0 0.000842686 -4.96507e-05 0 0.000876732 -4.96254e-05 0 0.000910682 -4.9569e-05 0 0.000944512 -4.94274e-05 0 0.000978194 -4.90744e-05 0 0.00101169 -4.82146e-05 0 0.00104489 -4.63979e-05 0 0 0 0 2.89379e-05 -2.52988e-05 0 6.10703e-05 -3.98701e-05 0 9.40204e-05 -4.7151e-05 0 0.000127211 -5.06078e-05 0 0.000160511 -5.21908e-05 0 0.000193949 -5.29005e-05 0 0.000227534 -5.32194e-05 0 0.000261267 -5.33846e-05 0 0.000295133 -5.34965e-05 0 0.000329114 -5.36002e-05 0 0.00036319 -5.37087e-05 0 0.000397342 -5.38247e-05 0 0.000431555 -5.39447e-05 0 0.000465814 -5.40642e-05 0 0.00050011 -5.41786e-05 0 0.000534431 -5.42839e-05 0 0.000568771 -5.4377e-05 0 0.000603122 -5.44556e-05 0 0.000637477 -5.45182e-05 0 0.000671831 -5.45644e-05 0 0.000706176 -5.45945e-05 0 0.000740504 -5.46098e-05 0 0.000774808 -5.46122e-05 0 0.000809075 -5.46033e-05 0 0.000843292 -5.45843e-05 0 0.000877439 -5.45486e-05 0 0.000911492 -5.44788e-05 0 0.000945419 -5.4318e-05 0 0.000979182 -5.39372e-05 0 0.00101275 -5.30168e-05 0 0.00104599 -5.09857e-05 0 0 0 0 2.93331e-05 -2.85264e-05 0 6.16607e-05 -4.41368e-05 0 9.44283e-05 -5.17663e-05 0 0.00012733 -5.53516e-05 0 0.00016038 -5.69964e-05 0 0.000193646 -5.77448e-05 0 0.000227133 -5.80908e-05 0 0.000260823 -5.82781e-05 0 0.000294687 -5.84075e-05 0 0.000328691 -5.85256e-05 0 0.000362806 -5.86457e-05 0 0.000397008 -5.87708e-05 0 0.000431276 -5.88979e-05 0 0.000465595 -5.9023e-05 0 0.000499952 -5.91415e-05 0 0.000534338 -5.92498e-05 0 0.000568743 -5.93448e-05 0 0.000603162 -5.94245e-05 0 0.000637588 -5.94873e-05 0 0.000672017 -5.95328e-05 0 0.000706441 -5.95614e-05 0 0.000740856 -5.95741e-05 0 0.000775252 -5.95728e-05 0 0.000809619 -5.95586e-05 0 0.000843945 -5.95324e-05 0 0.000878209 -5.94863e-05 0 0.000912385 -5.94024e-05 0 0.000946435 -5.92208e-05 0 0.000980311 -5.88116e-05 0 0.00101396 -5.78384e-05 0 0.00104728 -5.55816e-05 0 0 0 0 3.00004e-05 -3.20717e-05 0 6.24451e-05 -4.85119e-05 0 9.48439e-05 -5.63808e-05 0 0.000127355 -6.0063e-05 0 0.000160115 -6.17677e-05 0 0.000193212 -6.25652e-05 0 0.000226616 -6.29468e-05 0 0.000260284 -6.31648e-05 0 0.000294163 -6.33171e-05 0 0.000328205 -6.34538e-05 0 0.000362373 -6.35879e-05 0 0.000396635 -6.3724e-05 0 0.000430967 -6.38594e-05 0 0.000465353 -6.39908e-05 0 0.000499778 -6.4114e-05 0 0.000534232 -6.42257e-05 0 0.000568708 -6.43232e-05 0 0.0006032 -6.44044e-05 0 0.000637701 -6.4468e-05 0 0.000672209 -6.45135e-05 0 0.000706718 -6.45414e-05 0 0.000741223 -6.45523e-05 0 0.000775718 -6.45483e-05 0 0.000810194 -6.45297e-05 0 0.00084464 -6.44972e-05 0 0.000879035 -6.44413e-05 0 0.000913355 -6.43438e-05 0 0.000947558 -6.41406e-05 0 0.00098159 -6.3702e-05 0 0.00101537 -6.2681e-05 0 0.00104877 -6.01867e-05 0 0 0 0 3.11961e-05 -3.60088e-05 0 6.34296e-05 -5.29492e-05 0 9.52034e-05 -6.09644e-05 0 0.00012721 -6.47258e-05 0 0.00015967 -6.65035e-05 0 0.000192615 -6.7363e-05 0 0.000225965 -6.77918e-05 0 0.000259638 -6.80484e-05 0 0.000293556 -6.8229e-05 0 0.000327656 -6.83876e-05 0 0.00036189 -6.85378e-05 0 0.000396224 -6.86861e-05 0 0.00043063 -6.88306e-05 0 0.000465089 -6.89687e-05 0 0.000499588 -6.9097e-05 0 0.000534116 -6.92125e-05 0 0.000568666 -6.93127e-05 0 0.000603234 -6.93959e-05 0 0.000637815 -6.94608e-05 0 0.000672405 -6.9507e-05 0 0.000707002 -6.9535e-05 0 0.000741603 -6.95453e-05 0 0.000776202 -6.95397e-05 0 0.000810794 -6.95181e-05 0 0.000845368 -6.94808e-05 0 0.000879907 -6.94169e-05 0 0.000914391 -6.93075e-05 0 0.000948777 -6.90837e-05 0 0.00098302 -6.86171e-05 0 0.001017 -6.7548e-05 0 0.00105055 -6.48017e-05 0 0 0 0 3.33837e-05 -4.03588e-05 0 6.45026e-05 -5.73546e-05 0 9.54031e-05 -6.54815e-05 0 0.000126797 -6.93273e-05 0 0.000158994 -7.12077e-05 0 0.000191825 -7.21439e-05 0 0.000225164 -7.26322e-05 0 0.000258879 -7.29347e-05 0 0.000292862 -7.31472e-05 0 0.000327041 -7.33305e-05 0 0.000361358 -7.34979e-05 0 0.000395775 -7.36592e-05 0 0.000430263 -7.38129e-05 0 0.000464803 -7.3958e-05 0 0.000499381 -7.40914e-05 0 0.000533988 -7.42108e-05 0 0.000568617 -7.4314e-05 0 0.000603264 -7.43995e-05 0 0.000637926 -7.44662e-05 0 0.000672602 -7.45139e-05 0 0.000707291 -7.45428e-05 0 0.00074199 -7.45537e-05 0 0.000776699 -7.4548e-05 0 0.000811411 -7.45251e-05 0 0.000846121 -7.44853e-05 0 0.000880815 -7.44153e-05 0 0.000915478 -7.42984e-05 0 0.000950074 -7.40556e-05 0 0.000984575 -7.35709e-05 0 0.00101888 -7.24497e-05 0 0.00105273 -6.94529e-05 0 0 0 0 3.68323e-05 -4.47385e-05 0 6.55186e-05 -6.16958e-05 0 9.52269e-05 -6.98502e-05 0 0.000126022 -7.38879e-05 0 0.000158038 -7.58839e-05 0 0.000190807 -7.69182e-05 0 0.000224206 -7.74782e-05 0 0.000257997 -7.7829e-05 0 0.000292082 -7.80782e-05 0 0.000326361 -7.82857e-05 0 0.000360779 -7.84712e-05 0 0.000395291 -7.8645e-05 0 0.00042987 -7.8808e-05 0 0.000464497 -7.89597e-05 0 0.00049916 -7.90981e-05 0 0.000533849 -7.92213e-05 0 0.000568559 -7.93275e-05 0 0.000603288 -7.94155e-05 0 0.000638035 -7.94846e-05 0 0.000672799 -7.95343e-05 0 0.000707581 -7.95653e-05 0 0.000742382 -7.9578e-05 0 0.000777201 -7.95738e-05 0 0.000812038 -7.95517e-05 0 0.000846891 -7.9512e-05 0 0.000881746 -7.94392e-05 0 0.000916601 -7.93184e-05 0 0.000951417 -7.90644e-05 0 0.000986212 -7.85699e-05 0 0.00102093 -7.74251e-05 0 0.00105582 -7.42587e-05 0 </DataArray> 
</PointData> 
<Points> 
<DataArray type="Float32" NumberOfComponents="3"> 