<?xml version="1.0"?> 
<VTKFile type="StructuredGrid" version="0.1"> 
<StructuredGrid WholeExtent="0 31 0 31 0 0"> 
<Piece Extent="0 31 0 31 0 0"> 
<PointData>
<DataArray type="Float32" Name="u" format="ascii" NumberOfComponents="3"> 
0 0 0 0 0 0 0 0 0 0 0 0 0 0 0 0 0 0 0 0 0 0 0 0 0 0 0 0 0 0 0 0 0 0 0 0 0 0 0 0 0 0 0 0 0 0 0 0 0 0 0 0 0 0 0 0 0 0 0 0 0 0 0 0 0 0 0 0 0 0 0 0 0 0 0 0 0 0 0 0 0 0 0 0 0 0 0 0 0 0 0 0 0 0 0 0 0 0 0 0 0 0 0 0 0 0 0 0 0 0 0 0 0 0 0 0 0 0 0 0 0 0 0 0 0 0 0 0 0 0 0 0 0 0 0 0 0 0 0 0 0 0 0 0 0 0 0 0 0 0 0 0 0 0 0 0 0 0 0 0 0 0 0 0 0 0 0 0 0 0 0 0 0 0 0 0 0 0 0 0 0 0 0 0 0 0 0 0 0 0 0 0 0 0 0 0 0 0 0 0 0 0 0 0 0 0 0 0 0 0 0 0 0 0 0 0 0 0 0 0 0 0 0 0 0 0 0 0 0 0 0 0 0 0 0 0 0 0 0 0 0 0 0 0 0 0 0 0 0 0 0 0 0 0 0 0 0 0 0 0 0 0 0 0 0 0 0 0 0 0 0 0 0 0 0 0 0 0 0 0 0 0 0 0 0 0 0 0 0 0 0 0 0 0 0 0 0 0 0 0 0 0 0 0 0 0 0 0 0 0 0 0 0 0 0 0 0 0 0 0 0 0 0 0 0 0 0 0 0 0 0 0 0 0 0 0 0 0 0 0 0 0 0 0 0 0 0 0 0 0 0 0 0 0 0 0 0 0 0 0 0 0 0 0 0 0 0 0 0 0 0 0 0 0 0 0 0 0 0 0 0 0 0 0 0 0 0 0 0 0 0 0 0 0 0 0 0 0 0 0 0 0 0 0 0 0 0 0 0 0 0 0 0 0 0 0 0 0 0 0 0 0 0 0 0 0 0 0 0 0 0 0 0 0 0 0 0 0 0 0 0 0 0 0 0 0 0 0 0 0 0 0 0 0 0 0 0 0 0 0 0 0 0 0 0 0 0 0 0 0 0 0 0 0 0 0 0 0 0 0 0 0 0 0 0 0 0 0 0 0 0 0 0 0 0 0 0 0 0 0 0 0 0 0 0 0 0 0 0 0 0 0 0 0 0 0 0 0 0 0 0 0 0 0 0 0 0 0 0 0 0 0 0 0 0 0 0 0 0 0 0 0 0 0 0 0 0 0 0 0 0 0 0 0 0 0 0 0 0 0 0 0 0 0 0 0 0 0 0 0 0 0 0 0 0 0 0 0 0 0 0 0 0 0 0 0 0 0 0 0 0 0 0 0 0 0 0 0 0 0 0 0 0 0 0 0 0 0 0 0 0 0 0 0 0 0 0 0 0 0 0 0 0 0 0 0 0 0 0 0 0 0 0 0 0 0 0 0 0 0 0 0 0 0 0 0 0 0 0 0 0 0 0 0 0 0 0 0 0 0 0 0 0 0 0 0 0 0 0 0 0 0 0 0 0 0 0 0 0 0 0 0 0 0 0 0 0 0 0 0 0 0 0 0 0 0 0 0 0 0 0 0 0 0 0 0 0 0 0 0 0 0 0 0 0 0 0 0 0 0 0 0 0 0 0 0 0 0 0 0 0 0 0 0 0 0 0 0 0 0 0 0 0 0 0 0 0 0 0 0 0 0 0 0 0 0 0 0 0 0 0 0 0 0 0 0 0 0 0 0 0 0 0 0 0 0 0 0 0 0 0 0 0 0 0 0 0 0 0 0 0 0 0 0 0 0 0 0 0 0 0 0 0 0 0 0 0 0 0 0 0 0 0 0 0 0 0 0 0 0 0 0 0 0 0 0 0 0 0 0 0 0 0 0 0 0 0 0 0 0 0 0 0 0 0 0 0 0 0 0 0 0 0 0 0 0 0 0 0 0 0 0 0 0 0 0 0 0 0 0 0 0 0 0 0 0 0 0 0 0 0 0 0 0 0 0 0 0 0 0 0 0 0 0 0 0 0 0 0 0 0 0 0 0 0 0 0 0 0 0 0 0 0 0 0 0 0 0 0 0 0 0 0 0 0 0 0 0 0 0 0 0 0 0 0 0 0 0 0 0 0 0 0 0 0 0 0 0 0 0 0 0 0 0 0 0 0 0 0 0 0 0 0 0 0 0 0 0 0 0 0 0 0 0 0 0 0 0 0 0 0 0 0 0 0 0 0 0 0 0 0 0 0 0 0 0 0 0 0 0 0 0 0 0 0 0 0 0 0 0 0 0 0 0 0 0 0 0 0 0 0 0 0 0 0 0 0 0 0 0 0 0 0 0 0 0 0 0 0 0 0 0 0 0 0 0 0 0 0 0 0 0 0 0 0 0 0 0 0 0 0 0 0 0 0 0 0 0 0 0 0 0 0 0 0 0 0 0 0 0 0 0 0 0 0 0 0 0 0 0 0 0 0 0 0 0 0 0 0 0 0 0 0 0 0 0 0 0 0 0 0 0 0 0 0 0 0 0 0 0 0 0 0 0 0 0 0 0 0 0 0 0 0 0 0 0 0 0 0 0 0 0 0 0 0 0 0 0 0 0 0 0 0 0 0 0 0 0 0 0 0 0 0 0 0 0 0 0 0 0 0 0 0 0 0 0 0 0 0 0 0 0 0 0 0 0 0 0 0 0 0 0 0 0 0 0 0 0 0 0 0 0 0 0 0 0 0 0 0 0 0 0 0 0 0 0 0 0 0 0 0 0 0 0 0 0 0 0 0 0 0 0 0 0 0 0 0 0 0 0 0 0 0 0 0 0 0 0 0 0 0 0 0 0 0 0 0 0 0 0 0 0 0 0 0 0 0 0 0 0 0 0 0 0 0 0 0 0 0 0 0 0 0 0 0 0 0 0 0 0 0 0 0 0 0 0 0 0 0 0 0 0 0 0 0 0 0 0 0 0 0 0 0 0 0 0 0 0 0 0 0 0 0 0 0 0 0 0 0 0 0 0 0 0 0 0 0 0 0 0 0 0 0 0 0 0 0 0 0 0 0 0 0 0 0 0 0 0 0 0 0 0 0 0 0 0 0 0 0 0 0 0 0 0 0 0 0 0 0 0 0 0 0 0 0 0 0 0 0 0 0 0 0 0 0 0 0 0 0 0 0 0 0 0 0 0 0 0 0 0 0 0 0 0 0 0 0 0 0 0 0 0 0 0 0 0 0 0 0 0 0 0 0 0 0 0 0 0 0 0 0 0 0 0 0 0 0 0 0 0 0 0 0 0 0 0 0 0 0 0 0 0 0 0 0 0 0 0 0 0 0 0 0 0 0 0 0 0 0 0 0 0 0 0 0 0 0 0 0 0 0 0 0 0 0 0 0 0 0 0 0 0 0 0 0 0 0 0 0 0 0 0 0 0 0 0 0 0 0 0 0 0 0 0 0 0 0 0 0 0 0 0 0 0 0 0 0 0 0 0 0 0 0 0 0 0 0 0 0 0 0 0 0 0 0 0 0 0 0 0 0 0 0 0 0 0 0 0 0 0 0 0 0 0 0 0 0 0 0 0 0 0 0 0 0 0 0 0 0 0 0 0 0 0 0 0 0 0 0 0 0 0 0 0 0 0 0 0 0 0 0 0 0 0 0 0 0 0 0 0 0 0 0 0 0 0 0 0 0 0 0 0 0 0 0 0 0 0 0 0 0 0 0 0 0 0 0 0 0 0 0 0 0 0 0 0 0 0 0 0 0 0 0 0 0 0 0 0 0 0 0 0 0 0 0 0 0 0 0 0 0 0 0 0 0 0 0 0 0 0 0 0 0 0 0 0 0 0 0 0 0 0 0 0 0 0 0 0 0 0 0 0 0 0 0 0 0 0 0 0 0 0 0 0 0 0 0 0 0 0 0 0 0 0 0 0 0 0 0 0 0 0 0 0 0 0 0 0 0 0 0 0 0 0 0 0 0 0 0 0 0 0 0 0 0 0 0 0 0 0 0 0 0 0 0 0 0 0 0 0 0 0 0 0 0 0 0 0 0 0 0 0 0 0 0 0 0 0 0 0 0 0 0 0 0 0 0 0 0 0 0 0 0 0 0 0 0 0 0 0 0 0 0 0 0 0 0 0 0 0 0 0 0 0 0 0 0 0 0 0 0 0 0 0 0 0 0 0 0 0 0 0 0 0 0 0 0 0 0 0 0 0 0 0 0 0 0 0 0 0 0 0 0 0 0 0 0 0 0 0 0 0 0 0 0 0 0 0 0 0 0 0 0 0 0 0 0 0 0 0 0 0 0 0 0 0 0 0 0 0 0 0 0 0 0 0 0 0 0 0 0 0 0 0 0 0 0 0 0 0 0 0 0 0 0 0 0 0 0 0 0 0 0 0 0 0 0 0 0 0 0 0 0 0 0 0 0 0 0 0 0 0 0 0 0 0 0 0 0 0 0 0 0 0 0 0 0 0 0 0 0 0 0 0 0 0 0 0 0 0 0 0 0 0 0 0 0 0 0 0 0 0 0 0 0 0 0 0 0 0 0 0 0 0 0 0 0 0 0 0 0 0 0 0 0 0 0 0 0 0 0 0 0 0 0 0 0 0 0 0 0 0 0 0 0 0 0 0 0 0 0 0 0 0 0 0 0 0 0 0 0 0 0 0 0 0 0 0 0 0 0 0 0 0 0 0 0 0 0 0 0 0 0 0 0 0 0 0 0 0 0 0 0 0 0 0 0 0 0 0 0 0 0 0 0 0 0 0 0 0 0 0 0 0 0 0 0 0 0 0 0 0 0 0 0 0 0 0 0 0 0 0 0 0 0 0 0 0 0 0 0 0 0 0 0 0 0 0 0 0 0 0 0 0 0 0 0 0 0 0 0 0 0 0 0 0 0 0 0 0 0 0 0 0 0 0 0 0 0 0 0 0 0 0 0 0 0 0 0 0 0 0 0 0 0 0 0 0 0 0 0 0 0 0 0 0 0 0 0 0 0 0 0 0 0 0 0 0 0 0 0 0 0 0 0 0 0 0 0 0 0 0 0 0 0 0 0 0 0 0 0 0 0 0 0 0 0 0 0 0 0 0 0 0 0 0 0 0 0 0 0 0 0 0 0 0 0 0 0 0 0 0 0 0 0 0 0 0 0 0 0 0 0 0 0 0 0 0 0 0 0 0 0 0 0 0 0 0 0 0 0 0 0 0 0 0 0 0 0 0 0 0 0 0 0 0 0 0 0 0 0 0 0 0 0 0 0 0 0 0 0 0 0 0 0 0 0 0 0 0 0 0 0 0 0 0 0 0 0 0 0 0 0 0 0 0 0 0 0 0 0 0 0 0 0 0 0 0 0 0 0 0 0 0 0 0 0 0 0 0 0 0 0 0 0 0 0 0 0 0 0 0 0 0 0 0 0 0 0 0 0 0 0 0 0 0 0 0 0 0 0 0 0 0 0 0 0 0 0 0 0 0 0 0 0 0 0 0 0 0 0 0 0 0 0 0 0 0 0 0 0 0 0 0 0 0 0 0 0 0 0 0 0 0 0 0 0 0 0 0 0 0 0 0 0 0 0 0 0 0 0 0 0 0 0 0 0 0 0 0 0 0 0 0 0 0 0 0 0 0 0 0 0 0 0 0 0 0 0 0 0 0 0 0 0 0 0 0 0 0 0 0 0 0 0 0 0 0 0 0 0 0 0 0 0 0 0 0 0 0 0 0 0 0 0 0 0 0 0 0 0 0 0 0 0 0 0 0 0 0 0 0 0 0 0 0 0 0 0 0 0 0 0 0 0 0 0 0 0 0 0 0 0 0 0 0 0 0 0 0 0 0 0 0 0 0 0 0 0 0 0 0 0 0 0 0 0 0 0 0 0 0 0 0 0 0 0 0 0 0 0 0 0 0 0 0 0 0 0 0 0 0 0 0 0 0 0 0 0 0 0 0 0 0 0 0 0 0 0 0 0 0 0 0 0 0 0 0 0 0 0 0 0 0 0 0 0 0 0 0 0 0 0 0 0 0 0 0 0 0 0 0 0 0 0 0 0 0 0 0 0 0 0 0 0 0 0 0 0 0 0 0 0 0 0 0 0 0 0 0 0 0 0 0 0 0 0 0 0 0 0 0 0 0 0 0 0 0 0 0 0 0 0 0 0 0 0 0 0 0 0 0 0 0 0 0 0 0 0 0 0 0 0 0 0 0 0 0 0 0 0 0 0 0 0 0 0 0 0 0 0 0 0 0 0 0 0 0 0 0 0 0 0 0 0 0 0 0 0 0 0 0 0 0 0 0 0 0 0 0 0 0 0 0 0 0 0 0 0 0 0 0 0 0 0 0 0 0 0 0 0 0 0 0 0 0 0 0 0 0 0 0 0 0 0 0 0 0 0 0 0 0 0 0 0 0 0 0 0 0 0 0 0 0 0 0 0 0 0 0 0 0 0 0 0 0 0 0 0 0 0 0 0 0 0 0 0 0 0 0 0 0 0 0 0 0 0 0 0 0 0 0 0 0 0 0 0 0 0 0 0 0 0 0 0 0 0 0 0 0 0 0 0 0 0 0 0 0 0 0 0 0 0 0 0 0 0 0 0 0 0 0 0 0 0 0 0 0 0 0 0 0 0 0 0 0 0 0 0 0 0 0 0 0 0 0 0 0 0 0 0 0 0 0 0 0 0 0 0 0 0 0 0 0 0 0 0 0 0 0 0 0 0 0 0 0 0 0 0 4.15769e-05 4.80734e-05 0 7.50796e-05 6.41618e-05 0 0.000110316 7.08208e-05 0 0.000147 7.35213e-05 0 0.000185075 7.4483e-05 0 0.000223921 7.47466e-05 0 0.000263379 7.47162e-05 0 0.00030318 7.45929e-05 0 0.000343232 7.44381e-05 0 0.000383435 7.42862e-05 0 0.000423742 7.41415e-05 0 0.000464116 7.40067e-05 0 0.000504536 7.38793e-05 0 0.000544986 7.37575e-05 0 0.000585457 7.36392e-05 0 0.000625945 7.3523e-05 0 0.000666446 7.34076e-05 0 0.000706959 7.32923e-05 0 0.000747485 7.31768e-05 0 0.000788024 7.3061e-05 0 0.00082858 7.29456e-05 0 0.000869153 7.28313e-05 0 0.000909748 7.27206e-05 0 0.000950365 7.26135e-05 0 0.000991005 7.25146e-05 0 0.00103166 7.24133e-05 0 0.00107233 7.23057e-05 0 0.00111296 7.21124e-05 0 0.00115357 7.17322e-05 0 0.00119407 7.07008e-05 0 0.00123474 6.74113e-05 0 </DataArray> 
</PointData> 
<Points> 
<DataArray type="Float32" NumberOfComponents="3"> 
0 0 0 0.112903 0 0 0.225806 0 0 0.33871 0 0 0.451613 0 0 0.564516 0 0 0.677419 0 0 0.790323 0 0 0.903226 0 0 1.01613 0 0 1.12903 0 0 1.24194 0 0 1.35484 0 0 1.46774 0 0 1.58065 0 0 1.69355 0 0 1.80645 0 0 1.91935 0 0 2.03226 0 0 2.14516 0 0 2.25806 0 0 2.37097 0 0 2.48387 0 0 2.59677 0 0 2.70968 0 0 2.82258 0 0 2.93548 0 0 3.04839 0 0 3.16129 0 0 3.27419 0 0 3.3871 0 0 3.5 0 0 0 0.0645161 0 0.112903 0.0645161 0 0.225806 0.0645161 0 0.33871 0.0645161 0 0.451613 0.0645161 0 0.564516 0.0645161 0 0.677419 0.0645161 0 0.790323 0.0645161 0 0.903226 0.0645161 0 1.01613 0.0645161 0 1.12903 0.0645161 0 1.24194 0.0645161 0 1.35484 0.0645161 0 1.46774 0.0645161 0 1.58065 0.0645161 0 1.69355 0.0645161 0 1.80645 0.0645161 0 1.91935 0.0645161 0 2.03226 0.0645161 0 2.14516 0.0645161 0 2.25806 0.0645161 0 2.37097 0.0645161 0 2.48387 0.0645161 0 2.59677 0.0645161 0 2.70968 0.0645161 0 2.82258 0.0645161 0 2.93548 0.0645161 0 3.04839 0.0645161 0 3.16129 0.0645161 0 3.27419 0.0645161 0 3.3871 0.0645161 0 3.5 0.0645161 0 0 0.129032 0 0.112903 0.129032 0 0.225806 0.129032 0 0.33871 0.129032 0 0.451613 0.129032 0 0.564516 0.129032 0 0.677419 0.129032 0 0.790323 0.129032 0 0.903226 0.129032 0 1.01613 0.129032 0 1.12903 0.129032 0 1.24194 0.129032 0 1.35484 0.129032 0 1.46774 0.129032 0 1.58065 0.129032 0 1.69355 0.129032 0 1.80645 0.129032 0 1.91935 0.129032 0 2.03226 0.129032 0 2.14516 0.129032 0 2.25806 0.129032 0 2.37097 0.129032 0 2.48387 0.129032 0 2.59677 0.129032 0 2.70968 0.129032 0 2.82258 0.129032 0 2.93548 0.129032 0 3.04839 0.129032 0 3.16129 0.129032 0 3.27419 0.129032 0 3.3871 0.129032 0 3.5 0.129032 0 0 0.193548 0 0.112903 0.193548 0 0.225806 0.193548 0 0.33871 0.193548 0 0.451613 0.193548 0 0.564516 0.193548 0 0.677419 0.193548 0 0.790323 0.193548 0 0.903226 0.193548 0 1.01613 0.193548 0 1.12903 0.193548 0 1.24194 0.193548 0 1.35484 0.193548 0 1.46774 0.193548 0 1.58065 0.193548 0 1.69355 0.193548 0 1.80645 0.193548 0 1.91935 0.193548 0 2.03226 0.193548 0 2.14516 0.193548 0 2.25806 0.193548 0 2.37097 0.193548 0 2.48387 0.193548 0 2.59677 0.193548 0 2.70968 0.193548 0 2.82258 0.193548 0 2.93548 0.193548 0 3.04839 0.193548 0 3.16129 0.193548 0 3.27419 0.193548 0 3.3871 0.193548 0 3.5 0.193548 0 0 0.258065 0 0.112903 0.258065 0 0.225806 0.258065 0 0.33871 0.258065 0 0.451613 0.258065 0 0.564516 0.258065 0 0.677419 0.258065 0 0.790323 0.258065 0 0.903226 0.258065 0 1.01613 0.258065 0 1.12903 0.258065 0 1.24194 0.258065 0 1.35484 0.258065 0 1.46774 0.258065 0 1.58065 0.258065 0 1.69355 0.258065 0 1.80645 0.258065 0 1.91935 0.258065 0 2.03226 0.258065 0 2.14516 0.258065 0 2.25806 0.258065 0 2.37097 0.258065 0 2.48387 0.258065 0 2.59677 0.258065 0 2.70968 0.258065 0 2.82258 0.258065 0 2.93548 0.258065 0 3.04839 0.258065 0 3.16129 0.258065 0 3.27419 0.258065 0 3.3871 0.258065 0 3.5 0.258065 0 0 0.322581 0 0.112903 0.322581 0 0.225806 0.322581 0 0.33871 0.322581 0 0.451613 0.322581 0 0.564516 0.322581 0 0.677419 0.322581 0 0.790323 0.322581 0 0.903226 0.322581 0 1.01613 0.322581 0 1.12903 0.322581 0 1.24194 0.322581 0 1.35484 0.322581 0 1.46774 0.322581 0 1.58065 0.322581 0 1.69355 0.322581 0 1.80645 0.322581 0 1.91935 0.322581 0 2.03226 0.322581 0 2.14516 0.322581 0 2.25806 0.322581 0 2.37097 0.322581 0 2.48387 0.322581 0 2.59677 0.322581 0 2.70968 0.322581 0 2.82258 0.322581 0 2.93548 0.322581 0 3.04839 0.322581 0 3.16129 0.322581 0 3.27419 0.322581 0 3.3871 0.322581 0 3.5 0.322581 0 0 0.387097 0 0.112903 0.387097 0 0.225806 0.387097 0 0.33871 0.387097 0 0.451613 0.387097 0 0.564516 0.387097 0 0.677419 0.387097 0 0.790323 0.387097 0 0.903226 0.387097 0 1.01613 0.387097 0 1.12903 0.387097 0 1.24194 0.387097 0 1.35484 0.387097 0 1.46774 0.387097 0 1.58065 0.387097 0 1.69355 0.387097 0 1.80645 0.387097 0 1.91935 0.387097 0 2.03226 0.387097 0 2.14516 0.387097 0 2.25806 0.387097 0 2.37097 0.387097 0 2.48387 0.387097 0 2.59677 0.387097 0 2.70968 0.387097 0 2.82258 0.387097 0 2.93548 0.387097 0 3.04839 0.387097 0 3.16129 0.387097 0 3.27419 0.387097 0 3.3871 0.387097 0 3.5 0.387097 0 0 0.451613 0 0.112903 0.451613 0 0.225806 0.451613 0 0.33871 0.451613 0 0.451613 0.451613 0 0.564516 0.451613 0 0.677419 0.451613 0 0.790323 0.451613 0 0.903226 0.451613 0 1.01613 0.451613 0 1.12903 0.451613 0 1.24194 0.451613 0 1.35484 0.451613 0 1.46774 0.451613 0 1.58065 0.451613 0 1.69355 0.451613 0 1.80645 0.451613 0 1.91935 0.451613 0 2.03226 0.451613 0 2.14516 0.451613 0 2.25806 0.451613 0 2.37097 0.451613 0 2.48387 0.451613 0 2.59677 0.451613 0 2.70968 0.451613 0 2.82258 0.451613 0 2.93548 0.451613 0 3.04839 0.451613 0 3.16129 0.451613 0 3.27419 0.451613 0 3.3871 0.451613 0 3.5 0.451613 0 0 0.516129 0 0.112903 0.516129 0 0.225806 0.516129 0 0.33871 0.516129 0 0.451613 0.516129 0 0.564516 0.516129 0 0.677419 0.516129 0 0.790323 0.516129 0 0.903226 0.516129 0 1.01613 0.516129 0 1.12903 0.516129 0 1.24194 0.516129 0 1.35484 0.516129 0 1.46774 0.516129 0 1.58065 0.516129 0 1.69355 0.516129 0 1.80645 0.516129 0 1.91935 0.516129 0 2.03226 0.516129 0 2.14516 0.516129 0 2.25806 0.516129 0 2.37097 0.516129 0 2.48387 0.516129 0 2.59677 0.516129 0 2.70968 0.516129 0 2.82258 0.516129 0 2.93548 0.516129 0 3.04839 0.516129 0 3.16129 0.516129 0 3.27419 0.516129 0 3.3871 0.516129 0 3.5 0.516129 0 0 0.580645 0 0.112903 0.580645 0 0.225806 0.580645 0 0.33871 0.580645 0 0.451613 0.580645 0 0.564516 0.580645 0 0.677419 0.580645 0 0.790323 0.580645 0 0.903226 0.580645 0 1.01613 0.580645 0 1.12903 0.580645 0 1.24194 0.580645 0 1.35484 0.580645 0 1.46774 0.580645 0 1.58065 0.580645 0 1.69355 0.580645 0 1.80645 0.580645 0 1.91935 0.580645 0 2.03226 0.580645 0 2.14516 0.580645 0 2.25806 0.580645 0 2.37097 0.580645 0 2.48387 0.580645 0 2.59677 0.580645 0 2.70968 0.580645 0 2.82258 0.580645 0 2.93548 0.580645 0 3.04839 0.580645 0 3.16129 0.580645 0 3.27419 0.580645 0 3.3871 0.580645 0 3.5 0.580645 0 0 0.645161 0 0.112903 0.645161 0 0.225806 0.645161 0 0.33871 0.645161 0 0.451613 0.645161 0 0.564516 0.645161 0 0.677419 0.645161 0 0.790323 0.645161 0 0.903226 0.645161 0 1.01613 0.645161 0 1.12903 0.645161 0 1.24194 0.645161 0 1.35484 0.645161 0 1.46774 0.645161 0 1.58065 0.645161 0 1.69355 0.645161 0 1.80645 0.645161 0 1.91935 0.645161 0 2.03226 0.645161 0 2.14516 0.645161 0 2.25806 0.645161 0 2.37097 0.645161 0 2.48387 0.645161 0 2.59677 0.645161 0 2.70968 0.645161 0 2.82258 0.645161 0 2.93548 0.645161 0 3.04839 0.645161 0 3.16129 0.645161 0 3.27419 0.645161 0 3.3871 0.645161 0 3.5 0.645161 0 0 0.709677 0 0.112903 0.709677 0 0.225806 0.709677 0 0.33871 0.709677 0 0.451613 0.709677 0 0.564516 0.709677 0 0.677419 0.709677 0 0.790323 0.709677 0 0.903226 0.709677 0 1.01613 0.709677 0 1.12903 0.709677 0 1.24194 0.709677 0 1.35484 0.709677 0 1.46774 0.709677 0 1.58065 0.709677 0 1.69355 0.709677 0 1.80645 0.709677 0 1.91935 0.709677 0 2.03226 0.709677 0 2.14516 0.709677 0 2.25806 0.709677 0 2.37097 0.709677 0 2.48387 0.709677 0 2.59677 0.709677 0 2.70968 0.709677 0 2.82258 0.709677 0 2.93548 0.709677 0 3.04839 0.709677 0 3.16129 0.709677 0 3.27419 0.709677 0 3.3871 0.709677 0 3.5 0.709677 0 0 0.774194 0 0.112903 0.774194 0 0.225806 0.774194 0 0.33871 0.774194 0 0.451613 0.774194 0 0.564516 0.774194 0 0.677419 0.774194 0 0.790323 0.774194 0 0.903226 0.774194 0 1.01613 0.774194 0 1.12903 0.774194 0 1.24194 0.774194 0 1.35484 0.774194 0 1.46774 0.774194 0 1.58065 0.774194 0 1.69355 0.774194 0 1.80645 0.774194 0 1.91935 0.774194 0 2.03226 0.774194 0 2.14516 0.774194 0 2.25806 0.774194 0 2.37097 0.774194 0 2.48387 0.774194 0 2.59677 0.774194 0 2.70968 0.774194 0 2.82258 0.774194 0 2.93548 0.774194 0 3.04839 0.774194 0 3.16129 0.774194 0 3.27419 0.774194 0 3.3871 0.774194 0 3.5 0.774194 0 0 0.83871 0 0.112903 0.83871 0 0.225806 0.83871 0 0.33871 0.83871 0 0.451613 0.83871 0 0.564516 0.83871 0 0.677419 0.83871 0 0.790323 0.83871 0 0.903226 0.83871 0 1.01613 0.83871 0 1.12903 0.83871 0 1.24194 0.83871 0 1.35484 0.83871 0 1.46774 0.83871 0 1.58065 0.83871 0 1.69355 0.83871 0 1.80645 0.83871 0 1.91935 0.83871 0 2.03226 0.83871 0 2.14516 0.83871 0 2.25806 0.83871 0 2.37097 0.83871 0 2.48387 0.83871 0 2.59677 0.83871 0 2.70968 0.83871 0 2.82258 0.83871 0 2.93548 0.83871 0 3.04839 0.83871 0 3.16129 0.83871 0 3.27419 0.83871 0 3.3871 0.83871 0 3.5 0.83871 0 0 0.903226 0 0.112903 0.903226 0 0.225806 0.903226 0 0.33871 0.903226 0 0.451613 0.903226 0 0.564516 0.903226 0 0.677419 0.903226 0 0.790323 0.903226 0 0.903226 0.903226 0 1.01613 0.903226 0 1.12903 0.903226 0 1.24194 0.903226 0 1.35484 0.903226 0 1.46774 0.903226 0 1.58065 0.903226 0 1.69355 0.903226 0 1.80645 0.903226 0 1.91935 0.903226 0 2.03226 0.903226 0 2.14516 0.903226 0 2.25806 0.903226 0 2.37097 0.903226 0 2.48387 0.903226 0 2.59677 0.903226 0 2.70968 0.903226 0 2.82258 0.903226 0 2.93548 0.903226 0 3.04839 0.903226 0 3.16129 0.903226 0 3.27419 0.903226 0 3.3871 0.903226 0 3.5 0.903226 0 0 0.967742 0 0.112903 0.967742 0 0.225806 0.967742 0 0.33871 0.967742 0 0.451613 0.967742 0 0.564516 0.967742 0 0.677419 0.967742 0 0.790323 0.967742 0 0.903226 0.967742 0 1.01613 0.967742 0 1.12903 0.967742 0 1.24194 0.967742 0 1.35484 0.967742 0 1.46774 0.967742 0 1.58065 0.967742 0 1.69355 0.967742 0 1.80645 0.967742 0 1.91935 0.967742 0 2.03226 0.967742 0 2.14516 0.967742 0 2.25806 0.967742 0 2.37097 0.967742 0 2.48387 0.967742 0 2.59677 0.967742 0 2.70968 0.967742 0 2.82258 0.967742 0 2.93548 0.967742 0 3.04839 0.967742 0 3.16129 0.967742 0 3.27419 0.967742 0 3.3871 0.967742 0 3.5 0.967742 0 0 1.03226 0 0.112903 1.03226 0 0.225806 1.03226 0 0.33871 1.03226 0 0.451613 1.03226 0 0.564516 1.03226 0 0.677419 1.03226 0 0.790323 1.03226 0 0.903226 1.03226 0 1.01613 1.03226 0 1.12903 1.03226 0 1.24194 1.03226 0 1.35484 1.03226 0 1.46774 1.03226 0 1.58065 1.03226 0 1.69355 1.03226 0 1.80645 1.03226 0 1.91935 1.03226 0 2.03226 1.03226 0 2.14516 1.03226 0 2.25806 1.03226 0 2.37097 1.03226 0 2.48387 1.03226 0 2.59677 1.03226 0 2.70968 1.03226 0 2.82258 1.03226 0 2.93548 1.03226 0 3.04839 1.03226 0 3.16129 1.03226 0 3.27419 1.03226 0 3.3871 1.03226 0 3.5 1.03226 0 0 1.09677 0 0.112903 1.09677 0 0.225806 1.09677 0 0.33871 1.09677 0 0.451613 1.09677 0 0.564516 1.09677 0 0.677419 1.09677 0 0.790323 1.09677 0 0.903226 1.09677 0 1.01613 1.09677 0 1.12903 1.09677 0 1.24194 1.09677 0 1.35484 1.09677 0 1.46774 1.09677 0 1.58065 1.09677 0 1.69355 1.09677 0 1.80645 1.09677 0 1.91935 1.09677 0 2.03226 1.09677 0 2.14516 1.09677 0 2.25806 1.09677 0 2.37097 1.09677 0 2.48387 1.09677 0 2.59677 1.09677 0 2.70968 1.09677 0 2.82258 1.09677 0 2.93548 1.09677 0 3.04839 1.09677 0 3.16129 1.09677 0 3.27419 1.09677 0 3.3871 1.09677 0 3.5 1.09677 0 0 1.16129 0 0.112903 1.16129 0 0.225806 1.16129 0 0.33871 1.16129 0 0.451613 1.16129 0 0.564516 1.16129 0 0.677419 1.16129 0 0.790323 1.16129 0 0.903226 1.16129 0 1.01613 1.16129 0 1.12903 1.16129 0 1.24194 1.16129 0 1.35484 1.16129 0 1.46774 1.16129 0 1.58065 1.16129 0 1.69355 1.16129 0 1.80645 1.16129 0 1.91935 1.16129 0 2.03226 1.16129 0 2.14516 1.16129 0 2.25806 1.16129 0 2.37097 1.16129 0 2.48387 1.16129 0 2.59677 1.16129 0 2.70968 1.16129 0 2.82258 1.16129 0 2.93548 1.16129 0 3.04839 1.16129 0 3.16129 1.16129 0 3.27419 1.16129 0 3.3871 1.16129 0 3.5 1.16129 0 0 1.22581 0 0.112903 1.22581 0 0.225806 1.22581 0 0.33871 1.22581 0 0.451613 1.22581 0 0.564516 1.22581 0 0.677419 1.22581 0 0.790323 1.22581 0 0.903226 1.22581 0 1.01613 1.22581 0 1.12903 1.22581 0 1.24194 1.22581 0 1.35484 1.22581 0 1.46774 1.22581 0 1.58065 1.22581 0 1.69355 1.22581 0 1.80645 1.22581 0 1.91935 1.22581 0 2.03226 1.22581 0 2.14516 1.22581 0 2.25806 1.22581 0 2.37097 1.22581 0 2.48387 1.22581 0 2.59677 1.22581 0 2.70968 1.22581 0 2.82258 1.22581 0 2.93548 1.22581 0 3.04839 1.22581 0 3.16129 1.22581 0 3.27419 1.22581 0 3.3871 1.22581 0 3.5 1.22581 0 0 1.29032 0 0.112903 1.29032 0 0.225806 1.29032 0 0.33871 1.29032 0 0.451613 1.29032 0 0.564516 1.29032 0 0.677419 1.29032 0 0.790323 1.29032 0 0.903226 1.29032 0 1.01613 1.29032 0 1.12903 1.29032 0 1.24194 1.29032 0 1.35484 1.29032 0 1.46774 1.29032 0 1.58065 1.29032 0 1.69355 1.29032 0 1.80645 1.29032 0 1.91935 1.29032 0 2.03226 1.29032 0 2.14516 1.29032 0 2.25806 1.29032 0 2.37097 1.29032 0 2.48387 1.29032 0 2.59677 1.29032 0 2.70968 1.29032 0 2.82258 1.29032 0 2.93548 1.29032 0 3.04839 1.29032 0 3.16129 1.29032 0 3.27419 1.29032 0 3.3871 1.29032 0 3.5 1.29032 0 0 1.35484 0 0.112903 1.35484 0 0.225806 1.35484 0 0.33871 1.35484 0 0.451613 1.35484 0 0.564516 1.35484 0 0.677419 1.35484 0 0.790323 1.35484 0 0.903226 1.35484 0 1.01613 1.35484 0 1.12903 1.35484 0 1.24194 1.35484 0 1.35484 1.35484 0 1.46774 1.35484 0 1.58065 1.35484 0 1.69355 1.35484 0 1.80645 1.35484 0 1.91935 1.35484 0 2.03226 1.35484 0 2.14516 1.35484 0 2.25806 1.35484 0 2.37097 1.35484 0 2.48387 1.35484 0 2.59677 1.35484 0 2.70968 1.35484 0 2.82258 1.35484 0 2.93548 1.35484 0 3.04839 1.35484 0 3.16129 1.35484 0 3.27419 1.35484 0 3.3871 1.35484 0 3.5 1.35484 0 0 1.41935 0 0.112903 1.41935 0 0.225806 1.41935 0 0.33871 1.41935 0 0.451613 1.41935 0 0.564516 1.41935 0 0.677419 1.41935 0 0.790323 1.41935 0 0.903226 1.41935 0 1.01613 1.41935 0 1.12903 1.41935 0 1.24194 1.41935 0 1.35484 1.41935 0 1.46774 1.41935 0 1.58065 1.41935 0 1.69355 1.41935 0 1.80645 1.41935 0 1.91935 1.41935 0 2.03226 1.41935 0 2.14516 1.41935 0 2.25806 1.41935 0 2.37097 1.41935 0 2.48387 1.41935 0 2.59677 1.41935 0 2.70968 1.41935 0 2.82258 1.41935 0 2.93548 1.41935 0 3.04839 1.41935 0 3.16129 1.41935 0 3.27419 1.41935 0 3.3871 1.41935 0 3.5 1.41935 0 0 1.48387 0 0.112903 1.48387 0 0.225806 1.48387 0 0.33871 1.48387 0 0.451613 1.48387 0 0.564516 1.48387 0 0.677419 1.48387 0 0.790323 1.48387 0 0.903226 1.48387 0 1.01613 1.48387 0 1.12903 1.48387 0 1.24194 1.48387 0 1.35484 1.48387 0 1.46774 1.48387 0 1.58065 1.48387 0 1.69355 1.48387 0 1.80645 1.48387 0 1.91935 1.48387 0 2.03226 1.48387 0 2.14516 1.48387 0 2.25806 1.48387 0 2.37097 1.48387 0 2.48387 1.48387 0 2.59677 1.48387 0 2.70968 1.48387 0 2.82258 1.48387 0 2.93548 1.48387 0 3.04839 1.48387 0 3.16129 1.48387 0 3.27419 1.48387 0 3.3871 1.48387 0 3.5 1.48387 0 0 1.54839 0 0.112903 1.54839 0 0.225806 1.54839 0 0.33871 1.54839 0 0.451613 1.54839 0 0.564516 1.54839 0 0.677419 1.54839 0 0.790323 1.54839 0 0.903226 1.54839 0 1.01613 1.54839 0 1.12903 1.54839 0 1.24194 1.54839 0 1.35484 1.54839 0 1.46774 1.54839 0 1.58065 1.54839 0 1.69355 1.54839 0 1.80645 1.54839 0 1.91935 1.54839 0 2.03226 1.54839 0 2.14516 1.54839 0 2.25806 1.54839 0 2.37097 1.54839 0 2.48387 1.54839 0 2.59677 1.54839 0 2.70968 1.54839 0 2.82258 1.54839 0 2.93548 1.54839 0 3.04839 1.54839 0 3.16129 1.54839 0 3.27419 1.54839 0 3.3871 1.54839 0 3.5 1.54839 0 0 1.6129 0 0.112903 1.6129 0 0.225806 1.6129 0 0.33871 1.6129 0 0.451613 1.6129 0 0.564516 1.6129 0 0.677419 1.6129 0 0.790323 1.6129 0 0.903226 1.6129 0 1.01613 1.6129 0 1.12903 1.6129 0 1.24194 1.6129 0 1.35484 1.6129 0 1.46774 1.6129 0 1.58065 1.6129 0 1.69355 1.6129 0 1.80645 1.6129 0 1.91935 1.6129 0 2.03226 1.6129 0 2.14516 1.6129 0 2.25806 1.6129 0 2.37097 1.6129 0 2.48387 1.6129 0 2.59677 1.6129 0 2.70968 1.6129 0 2.82258 1.6129 0 2.93548 1.6129 0 3.04839 1.6129 0 3.16129 1.6129 0 3.27419 1.6129 0 3.3871 1.6129 0 3.5 1.6129 0 0 1.67742 0 0.112903 1.67742 0 0.225806 1.67742 0 0.33871 1.67742 0 0.451613 1.67742 0 0.564516 1.67742 0 0.677419 1.67742 0 0.790323 1.67742 0 0.903226 1.67742 0 1.01613 1.67742 0 1.12903 1.67742 0 1.24194 1.67742 0 1.35484 1.67742 0 1.46774 1.67742 0 1.58065 1.67742 0 1.69355 1.67742 0 1.80645 1.67742 0 1.91935 1.67742 0 2.03226 1.67742 0 2.14516 1.67742 0 2.25806 1.67742 0 2.37097 1.67742 0 2.48387 1.67742 0 2.59677 1.67742 0 2.70968 1.67742 0 2.82258 1.67742 0 2.93548 1.67742 0 3.04839 1.67742 0 3.16129 1.67742 0 3.27419 1.67742 0 3.3871 1.67742 0 3.5 1.67742 0 0 1.74194 0 0.112903 1.74194 0 0.225806 1.74194 0 0.33871 1.74194 0 0.451613 1.74194 0 0.564516 1.74194 0 0.677419 1.74194 0 0.790323 1.74194 0 0.903226 1.74194 0 1.01613 1.74194 0 1.12903 1.74194 0 1.24194 1.74194 0 1.35484 1.74194 0 1.46774 1.74194 0 1.58065 1.74194 0 1.69355 1.74194 0 1.80645 1.74194 0 1.91935 1.74194 0 2.03226 1.74194 0 2.14516 1.74194 0 2.25806 1.74194 0 2.37097 1.74194 0 2.48387 1.74194 0 2.59677 1.74194 0 2.70968 1.74194 0 2.82258 1.74194 0 2.93548 1.74194 0 3.04839 1.74194 0 3.16129 1.74194 0 3.27419 1.74194 0 3.3871 1.74194 0 3.5 1.74194 0 0 1.80645 0 0.112903 1.80645 0 0.225806 1.80645 0 0.33871 1.80645 0 0.451613 1.80645 0 0.564516 1.80645 0 0.677419 1.80645 0 0.790323 1.80645 0 0.903226 1.80645 0 1.01613 1.80645 0 1.12903 1.80645 0 1.24194 1.80645 0 1.35484 1.80645 0 1.46774 1.80645 0 1.58065 1.80645 0 1.69355 1.80645 0 1.80645 1.80645 0 1.91935 1.80645 0 2.03226 1.80645 0 2.14516 1.80645 0 2.25806 1.80645 0 2.37097 1.80645 0 2.48387 1.80645 0 2.59677 1.80645 0 2.70968 1.80645 0 2.82258 1.80645 0 2.93548 1.80645 0 3.04839 1.80645 0 3.16129 1.80645 0 3.27419 1.80645 0 3.3871 1.80645 0 3.5 1.80645 0 0 1.87097 0 0.112903 1.87097 0 0.225806 1.87097 0 0.33871 1.87097 0 0.451613 1.87097 0 0.564516 1.87097 0 0.677419 1.87097 0 0.790323 1.87097 0 0.903226 1.87097 0 1.01613 1.87097 0 1.12903 1.87097 0 1.24194 1.87097 0 1.35484 1.87097 0 1.46774 1.87097 0 1.58065 1.87097 0 1.69355 1.87097 0 1.80645 1.87097 0 1.91935 1.87097 0 2.03226 1.87097 0 2.14516 1.87097 0 2.25806 1.87097 0 2.37097 1.87097 0 2.48387 1.87097 0 2.59677 1.87097 0 2.70968 1.87097 0 2.82258 1.87097 0 2.93548 1.87097 0 3.04839 1.87097 0 3.16129 1.87097 0 3.27419 1.87097 0 3.3871 1.87097 0 3.5 1.87097 0 0 1.93548 0 0.112903 1.93548 0 0.225806 1.93548 0 0.33871 1.93548 0 0.451613 1.93548 0 0.564516 1.93548 0 0.677419 1.93548 0 0.790323 1.93548 0 0.903226 1.93548 0 1.01613 1.93548 0 1.12903 1.93548 0 1.24194 1.93548 0 1.35484 1.93548 0 1.46774 1.93548 0 1.58065 1.93548 0 1.69355 1.93548 0 1.80645 1.93548 0 1.91935 1.93548 0 2.03226 1.93548 0 2.14516 1.93548 0 2.25806 1.93548 0 2.37097 1.93548 0 2.48387 1.93548 0 2.59677 1.93548 0 2.70968 1.93548 0 2.82258 1.93548 0 2.93548 1.93548 0 3.04839 1.93548 0 3.16129 1.93548 0 3.27419 1.93548 0 3.3871 1.93548 0 3.5 1.93548 0 0 2 0 0.112903 2 0 0.225806 2 0 0.33871 2 0 0.451613 2 0 0.564516 2 0 0.677419 2 0 0.790323 2 0 0.903226 2 0 1.01613 2 0 1.12903 2 0 1.24194 2 0 1.35484 2 0 1.46774 2 0 1.58065 2 0 1.69355 2 0 1.80645 2 0 1.91935 2 0 2.03226 2 0 2.14516 2 0 2.25806 2 0 2.37097 2 0 2.48387 2 0 2.59677 2 0 2.70968 2 0 2.82258 2 0 2.93548 2 0 3.04839 2 0 3.16129 2 0 3.27419 2 0 3.3871 2 0 3.5 2 0 
</DataArray>
</Points> 
</Piece> 
</StructuredGrid> 
</VTKFile> 
