<?xml version="1.0"?> 
<VTKFile type="StructuredGrid" version="0.1"> 
<StructuredGrid WholeExtent="0 31 0 31 0 0"> 
<Piece Extent="0 31 0 31 0 0"> 
<PointData>
<DataArray type="Float32" Name="B" format="ascii" NumberOfComponents="3"> 
0 5.50095e-05 0 1.2168e-05 5.5197e-05 0 2.46334e-05 5.57397e-05 0 3.76948e-05 5.6577e-05 0 5.16459e-05 5.75966e-05 0 6.67517e-05 5.862e-05 0 8.31942e-05 5.93878e-05 0 0.000100974 5.95589e-05 0 0.000119785 5.87516e-05 0 0.000138941 5.66477e-05 0 0.000157486 5.31235e-05 0 0.000174493 4.83014e-05 0 0.000189326 4.24701e-05 0 0.000201706 3.59539e-05 0 0.000211606 2.9024e-05 0 0.000219128 2.18724e-05 0 0.000224408 1.46193e-05 0 0.000227565 7.33325e-06 0 0.000228673 5.07024e-08 0 0.000227759 -7.20463e-06 0 0.000224782 -1.4407e-05 0 0.000219677 -2.1508e-05 0 0.0002123 -2.84238e-05 0 0.000202603 -3.50061e-05 0 0.000190434 -4.10416e-05 0 0.000176173 -4.62415e-05 0 0.000159863 -5.03207e-05 0 0.000143141 -5.31281e-05 0 0.000125518 -5.47305e-05 0 0.000110586 -5.58758e-05 0 9.47167e-05 -5.71663e-05 0 5.77773e-05 -7.30153e-05 0 0 5.14938e-05 0 1.25199e-05 5.16418e-05 0 2.52959e-05 5.2066e-05 0 3.85791e-05 5.27071e-05 0 5.26049e-05 5.34585e-05 0 6.75671e-05 5.41575e-05 0 8.35706e-05 5.45803e-05 0 0.000100559 5.44496e-05 0 0.000118236 5.34734e-05 0 0.00013604 5.14189e-05 0 0.000153231 4.81945e-05 0 0.000169084 4.38796e-05 0 0.000183061 3.86784e-05 0 0.000194876 3.28366e-05 0 0.000204439 2.6576e-05 0 0.000211782 2.00665e-05 0 0.000216982 1.34248e-05 0 0.000220116 6.72619e-06 0 0.000221239 1.89108e-08 0 0.000220368 -6.66051e-06 0 0.000217483 -1.32727e-05 0 0.000212529 -1.97612e-05 0 0.000205445 -2.60372e-05 0 0.000196177 -3.19674e-05 0 0.000184767 -3.73676e-05 0 0.000171381 -4.20193e-05 0 0.00015647 -4.57201e-05 0 0.000140595 -4.83724e-05 0 0.000124574 -5.0104e-05 0 0.00010859 -5.12973e-05 0 9.20484e-05 -5.29476e-05 0 6.706e-05 -5.43717e-05 0 0 4.78871e-05 0 1.27941e-05 4.80012e-05 0 2.5804e-05 4.83248e-05 0 3.92368e-05 4.88019e-05 0 5.3277e-05 4.93341e-05 0 6.80616e-05 4.97772e-05 0 8.36407e-05 4.99405e-05 0 9.99258e-05 4.95994e-05 0 0.000116643 4.8528e-05 0 0.000133327 4.65522e-05 0 0.00014939 4.36014e-05 0 0.000164253 3.97285e-05 0 0.00017746 3.50806e-05 0 0.000188733 2.98449e-05 0 0.000197948 2.42019e-05 0 0.000205087 1.82993e-05 0 0.000210182 1.22468e-05 0 0.000213278 6.12142e-06 0 0.000214409 -2.13513e-08 0 0.00021359 -6.13611e-06 0 0.000210808 -1.21753e-05 0 0.000206036 -1.80771e-05 0 0.000199244 -2.37546e-05 0 0.000190429 -2.90876e-05 0 0.000179664 -3.39227e-05 0 0.000167142 -3.80896e-05 0 0.000153219 -4.14422e-05 0 0.000138371 -4.39199e-05 0 0.000123077 -4.56098e-05 0 0.000107458 -4.67572e-05 0 9.06886e-05 -4.76073e-05 0 7.07568e-05 -4.68441e-05 0 0 4.42099e-05 0 1.30023e-05 4.42957e-05 0 2.61827e-05 4.45356e-05 0 3.97082e-05 4.48783e-05 0 5.37199e-05 4.52353e-05 0 6.83098e-05 4.54807e-05 0 8.34898e-05 4.54538e-05 0 9.91548e-05 4.49729e-05 0 0.000115055 4.38614e-05 0 0.000130802 4.19862e-05 0 0.000145919 3.92921e-05 0 0.000159932 3.58145e-05 0 0.000172452 3.1661e-05 0 0.000183219 2.69759e-05 0 0.00019209 2.19055e-05 0 0.000199015 1.65767e-05 0 0.00020399 1.10901e-05 0 0.000207036 5.5216e-06 0 0.000208172 -7.00556e-08 0 0.000207407 -5.63424e-06 0 0.000204739 -1.11187e-05 0 0.000200157 -1.646e-05 0 0.00019366 -2.15755e-05 0 0.000185278 -2.63586e-05 0 0.000175104 -3.06815e-05 0 0.00016333 -3.44103e-05 0 0.000150257 -3.74355e-05 0 0.00013626 -3.97121e-05 0 0.000121671 -4.12859e-05 0 0.000106568 -4.22705e-05 0 9.05448e-05 -4.26028e-05 0 7.34421e-05 -4.15419e-05 0 0 4.04796e-05 0 1.3156e-05 4.05421e-05 0 2.64557e-05 4.0714e-05 0 4.00304e-05 4.09491e-05 0 5.39844e-05 4.11693e-05 0 6.83748e-05 4.12661e-05 0 8.31866e-05 4.11054e-05 0 9.83073e-05 4.05397e-05 0 0.000113511 3.94298e-05 0 0.000128469 3.76724e-05 0 0.000142786 3.52236e-05 0 0.000156069 3.21071e-05 0 0.000167982 2.84031e-05 0 0.000178284 2.42233e-05 0 0.000186827 1.96866e-05 0 0.000193535 1.49013e-05 0 0.000198385 9.95773e-06 0 0.000201375 4.92854e-06 0 0.000202512 -1.27053e-07 0 0.000201804 -5.15625e-06 0 0.000199252 -1.0105e-05 0 0.000194862 -1.49108e-05 0 0.000188652 -1.94968e-05 0 0.000180674 -2.37693e-05 0 0.000171034 -2.76217e-05 0 0.000159915 -3.09471e-05 0 0.000147575 -3.36598e-05 0 0.000134319 -3.572e-05 0 0.000120406 -3.71408e-05 0 0.000105943 -3.79487e-05 0 9.0861e-05 -3.8027e-05 0 7.55045e-05 -3.69772e-05 0 0 3.67103e-05 0 1.32657e-05 3.67543e-05 0 2.66441e-05 3.68722e-05 0 4.02356e-05 3.70234e-05 0 5.41138e-05 3.71399e-05 0 6.83083e-05 3.71295e-05 0 8.27855e-05 3.68804e-05 0 9.74308e-05 3.62731e-05 0 0.00011204 3.51971e-05 0 0.00012633 3.35713e-05 0 0.00013997 3.136e-05 0 0.000152625 2.85796e-05 0 0.000164006 2.52901e-05 0 0.000173887 2.15789e-05 0 0.000182122 1.75427e-05 0 0.000188622 1.32733e-05 0 0.000193346 8.85095e-06 0 0.000196277 4.3433e-06 0 0.000197414 -1.92042e-07 0 0.000196761 -4.70242e-06 0 0.000194324 -9.13433e-06 0 0.000190121 -1.34279e-05 0 0.000184184 -1.75129e-05 0 0.000176579 -2.13076e-05 0 0.000167417 -2.47228e-05 0 0.000156872 -2.76717e-05 0 0.000145172 -3.00846e-05 0 0.000132573 -3.19231e-05 0 0.000119302 -3.31784e-05 0 0.00010551 -3.38366e-05 0 9.13231e-05 -3.37955e-05 0 7.71712e-05 -3.28705e-05 0 0 3.29135e-05 0 1.33407e-05 3.2943e-05 0 2.67669e-05 3.30194e-05 0 4.03523e-05 3.31073e-05 0 5.41449e-05 3.31485e-05 0 6.81532e-05 3.3065e-05 0 8.23304e-05 3.27645e-05 0 9.65626e-05 3.215e-05 0 0.000110665 3.11333e-05 0 0.00012439 2.96499e-05 0 0.000137455 2.76711e-05 0 0.000149572 2.52077e-05 0 0.000160487 2.23055e-05 0 0.000169993 1.90332e-05 0 0.000177946 1.54693e-05 0 0.00018425 1.16913e-05 0 0.000188851 7.76976e-06 0 0.000191725 3.76631e-06 0 0.00019286 -2.64594e-07 0 0.00019226 -4.27224e-06 0 0.000189935 -8.20535e-06 0 0.000185909 -1.2008e-05 0 0.000180225 -1.5617e-05 0 0.000172958 -1.89614e-05 0 0.000164223 -2.19664e-05 0 0.000154182 -2.45604e-05 0 0.000143042 -2.66852e-05 0 0.000131027 -2.83037e-05 0 0.000118353 -2.93951e-05 0 0.000105206 -2.99314e-05 0 9.17981e-05 -2.98422e-05 0 7.85339e-05 -2.90394e-05 0 0 2.9098e-05 0 1.33892e-05 2.91167e-05 0 2.68405e-05 2.91624e-05 0 4.04046e-05 2.92048e-05 0 5.41087e-05 2.91946e-05 0 6.79445e-05 2.90665e-05 0 8.18561e-05 2.87445e-05 0 9.57318e-05 2.815e-05 0 0.000109402 2.72126e-05 0 0.00012265 2.58806e-05 0 0.000135228 2.41307e-05 0 0.000146887 2.19701e-05 0 0.000157398 1.94339e-05 0 0.000166574 1.65761e-05 0 0.000174272 1.34607e-05 0 0.000180396 1.01527e-05 0 0.000184884 6.71324e-06 0 0.000187701 3.19754e-06 0 0.000188835 -3.44201e-07 0 0.000188284 -3.86457e-06 0 0.000186063 -7.31578e-06 0 0.000182201 -1.06467e-05 0 0.000176749 -1.38014e-05 0 0.000169785 -1.67186e-05 0 0.000161427 -1.93355e-05 0 0.000151828 -2.15925e-05 0 0.000141176 -2.34405e-05 0 0.000129681 -2.48443e-05 0 0.000117549 -2.57789e-05 0 0.000104987 -2.62155e-05 0 9.22396e-05 -2.61088e-05 0 7.96612e-05 -2.54262e-05 0 0 2.52705e-05 0 1.34185e-05 2.52815e-05 0 2.68791e-05 2.53058e-05 0 4.04131e-05 2.53178e-05 0 5.40308e-05 2.52761e-05 0 6.77109e-05 2.51267e-05 0 8.13909e-05 2.48075e-05 0 9.49617e-05 2.42551e-05 0 0.000108268 2.34127e-05 0 0.000121114 2.22395e-05 0 0.000133282 2.07161e-05 0 0.000144552 1.88474e-05 0 0.000154717 1.66603e-05 0 0.000163605 1.41974e-05 0 0.000171079 1.15106e-05 0 0.000177041 8.6539e-06 0 0.000181424 5.6797e-06 0 0.000184191 2.6366e-06 0 0.000185322 -4.30296e-07 0 0.000184817 -3.47782e-06 0 0.000182691 -6.46259e-06 0 0.000178978 -9.33895e-06 0 0.000173733 -1.20578e-05 0 0.000167039 -1.45672e-05 0 0.00015901 -1.68142e-05 0 0.000149794 -1.87495e-05 0 0.000139568 -2.03313e-05 0 0.000128528 -2.15276e-05 0 0.000116877 -2.23136e-05 0 0.00010483 -2.26646e-05 0 9.26337e-05 -2.2554e-05 0 8.05993e-05 -2.19735e-05 0 0 2.14357e-05 0 1.34347e-05 2.14418e-05 0 2.68946e-05 2.14525e-05 0 4.03951e-05 2.14466e-05 0 5.39327e-05 2.139e-05 0 6.74757e-05 2.12386e-05 0 8.09572e-05 2.09418e-05 0 9.42709e-05 2.04487e-05 0 0.000107272 1.97143e-05 0 0.000119784 1.87057e-05 0 0.00013161 1.74073e-05 0 0.000142553 1.58221e-05 0 0.000152426 1.39708e-05 0 0.000161068 1.18869e-05 0 0.000168347 9.61199e-06 0 0.000174166 7.19067e-06 0 0.000178457 4.66699e-06 0 0.000181178 2.08282e-06 0 0.000182307 -5.22273e-07 0 0.000181843 -3.11008e-06 0 0.000179803 -5.64226e-06 0 0.000176222 -8.07893e-06 0 0.000171159 -1.0378e-05 0 0.000164699 -1.24957e-05 0 0.000156954 -1.43881e-05 0 0.000148067 -1.60144e-05 0 0.000138207 -1.73395e-05 0 0.00012756 -1.83356e-05 0 0.000116327 -1.89804e-05 0 0.00010472 -1.92546e-05 0 9.29802e-05 -1.91436e-05 0 8.13815e-05 -1.8652e-05 0 0 1.75969e-05 0 1.34429e-05 1.76001e-05 0 2.68971e-05 1.76038e-05 0 4.03649e-05 1.75905e-05 0 5.38317e-05 1.75327e-05 0 6.72579e-05 1.73946e-05 0 8.05733e-05 1.71359e-05 0 9.36741e-05 1.67162e-05 0 0.000106424 1.60998e-05 0 0.000118661 1.52608e-05 0 0.000130207 1.41863e-05 0 0.000140881 1.28783e-05 0 0.000150511 1.13523e-05 0 0.000158945 9.63452e-06 0 0.00016606 7.75792e-06 0 0.000171757 5.7585e-06 0 0.000175969 3.67259e-06 0 0.000178649 1.53536e-06 0 0.000179777 -6.19502e-07 0 0.000179349 -2.75921e-06 0 0.000177383 -4.85088e-06 0 0.000173917 -6.86069e-06 0 0.000169011 -8.75337e-06 0 0.00016275 -1.04928e-05 0 0.000155247 -1.20431e-05 0 0.000146638 -1.33711e-05 0 0.000137086 -1.44481e-05 0 0.000126772 -1.52505e-05 0 0.00011589 -1.576e-05 0 0.000104651 -1.59623e-05 0 9.32842e-05 -1.58504e-05 0 8.20343e-05 -1.54335e-05 0 0 1.37557e-05 0 1.34474e-05 1.37579e-05 0 2.68948e-05 1.37599e-05 0 4.03342e-05 1.37477e-05 0 5.3742e-05 1.36995e-05 0 6.70726e-05 1.35872e-05 0 8.02535e-05 1.33792e-05 0 9.3183e-05 1.30439e-05 0 0.000105732 1.25535e-05 0 0.000117749 1.18879e-05 0 0.00012907 1.10367e-05 0 0.000139527 1.0001e-05 0 0.00014896 8.79234e-06 0 0.000157225 7.43057e-06 0 0.000164204 5.9412e-06 0 0.000169801 4.35258e-06 0 0.000173946 2.69375e-06 0 0.000176594 9.93229e-07 0 0.000177721 -7.21341e-07 0 0.000177324 -2.4229e-06 0 0.000175421 -4.08436e-06 0 0.000172052 -5.67802e-06 0 0.000167276 -7.17536e-06 0 0.000161181 -8.54742e-06 0 0.000153876 -9.76587e-06 0 0.000145496 -1.08044e-05 0 0.000136197 -1.16402e-05 0 0.000126156 -1.22546e-05 0 0.000115563 -1.26332e-05 0 0.000104623 -1.2766e-05 0 9.35525e-05 -1.26507e-05 0 8.2577e-05 -1.22975e-05 0 0 9.9128e-06 0 1.34517e-05 9.91554e-06 0 2.68945e-05 9.92e-06 0 4.03124e-05 9.91566e-06 0 5.36749e-05 9.88576e-06 0 6.6932e-05 9.80895e-06 0 8.00092e-05 9.6613e-06 0 9.28069e-05 9.41893e-06 0 0.000105201 9.06089e-06 0 0.000117049 8.57176e-06 0 0.000128196 7.94359e-06 0 0.000138485 7.17667e-06 0 0.000147764 6.27914e-06 0 0.000155898 5.26551e-06 0 0.00016277 4.15469e-06 0 0.000168287 2.968e-06 0 0.00017238 1.72755e-06 0 0.000175002 4.55347e-07 0 0.000176128 -8.27135e-07 0 0.000175757 -2.09877e-06 0 0.000173906 -3.33843e-06 0 0.000170614 -4.52463e-06 0 0.000165944 -5.63545e-06 0 0.00015998 -6.64887e-06 0 0.000152833 -7.54346e-06 0 0.000144633 -8.2995e-06 0 0.000135535 -8.89985e-06 0 0.000125709 -9.33059e-06 0 0.000115343 -9.58131e-06 0 0.000104634 -9.6457e-06 0 9.37916e-05 -9.52379e-06 0 8.30249e-05 -9.22519e-06 0 0 6.06807e-06 0 1.34584e-05 6.07238e-06 0 2.69013e-05 6.08262e-06 0 4.03067e-05 6.09122e-06 0 5.36391e-05 6.08618e-06 0 6.68451e-05 6.05223e-06 0 7.98491e-05 5.9723e-06 0 9.25527e-05 5.82934e-06 0 0.000104836 5.60837e-06 0 0.000116562 5.29823e-06 0 0.000127583 4.89294e-06 0 0.00013775 4.39226e-06 0 0.000146917 3.80139e-06 0 0.000154955 3.13009e-06 0 0.000161749 2.39128e-06 0 0.000167207 1.59974e-06 0 0.000171262 7.70996e-07 0 0.000173865 -7.94246e-08 0 0.000174992 -9.36229e-07 0 0.000174641 -1.78435e-06 0 0.000172829 -2.60873e-06 0 0.000169596 -3.39415e-06 0 0.000165005 -4.1252e-06 0 0.000159141 -4.7865e-06 0 0.00015211 -5.36328e-06 0 0.000144045 -5.84203e-06 0 0.000135094 -6.21117e-06 0 0.000125427 -6.46145e-06 0 0.000115226 -6.5863e-06 0 0.000104686 -6.58237e-06 0 9.40073e-05 -6.45099e-06 0 8.33892e-05 -6.20002e-06 0 0 2.22057e-06 0 1.34695e-05 2.22725e-06 0 2.69191e-05 2.24559e-06 0 4.03226e-05 2.27081e-06 0 5.36411e-05 2.29533e-06 0 6.68188e-05 2.3095e-06 0 7.97796e-05 2.30253e-06 0 9.24258e-05 2.26361e-06 0 0.00010464 2.18314e-06 0 0.000116289 2.05383e-06 0 0.000127231 1.8715e-06 0 0.000137319 1.63543e-06 0 0.000146415 1.34822e-06 0 0.00015439 1.01525e-06 0 0.000161134 6.43922e-07 0 0.000166555 2.4281e-07 0 0.000170585 -1.78981e-07 0 0.000173177 -6.12263e-07 0 0.000174307 -1.04797e-06 0 0.00017397 -1.47714e-06 0 0.000172185 -1.89088e-06 0 0.000168993 -2.28022e-06 0 0.000164455 -2.63617e-06 0 0.000158656 -2.94987e-06 0 0.000151703 -3.21297e-06 0 0.000143726 -3.41799e-06 0 0.000134872 -3.55872e-06 0 0.000125308 -3.63055e-06 0 0.000115213 -3.63059e-06 0 0.00010478 -3.55801e-06 0 9.4204e-05 -3.41478e-06 0 8.3678e-05 -3.20643e-06 0 0 -1.6311e-06 0 1.34865e-05 -1.62154e-06 0 2.69506e-05 -1.59361e-06 0 4.03637e-05 -1.54945e-06 0 5.36852e-05 -1.49241e-06 0 6.68579e-05 -1.4268e-06 0 7.98051e-05 -1.35748e-06 0 9.24297e-05 -1.28941e-06 0 0.000104616 -1.22713e-06 0 0.000116232 -1.17433e-06 0 0.000127138 -1.13349e-06 0 0.000137191 -1.10576e-06 0 0.000146254 -1.09098e-06 0 0.000154201 -1.08788e-06 0 0.000160922 -1.09436e-06 0 0.000166327 -1.10784e-06 0 0.000170347 -1.12547e-06 0 0.000172936 -1.14437e-06 0 0.000174068 -1.16169e-06 0 0.00017374 -1.17463e-06 0 0.00017197 -1.18044e-06 0 0.000168799 -1.17644e-06 0 0.000164288 -1.16e-06 0 0.000158523 -1.12867e-06 0 0.000151609 -1.08037e-06 0 0.000143674 -1.01353e-06 0 0.000134866 -9.27289e-07 0 0.00012535 -8.21558e-07 0 0.000115304 -6.97059e-07 0 0.000104917 -5.55271e-07 0 9.4385e-05 -3.98468e-07 0 8.38966e-05 -2.29716e-07 0 0 -5.48862e-06 0 1.35101e-05 -5.47596e-06 0 2.69972e-05 -5.4378e-06 0 4.04321e-05 -5.37366e-06 0 5.37738e-05 -5.28277e-06 0 6.69648e-05 -5.16423e-06 0 7.99281e-05 -5.0171e-06 0 9.25665e-05 -4.84065e-06 0 0.000104764 -4.63449e-06 0 0.00011639 -4.3988e-06 0 0.000127304 -4.13444e-06 0 0.000137364 -3.84297e-06 0 0.000146433 -3.5266e-06 0 0.000154386 -3.18807e-06 0 0.000161112 -2.83051e-06 0 0.000166521 -2.45722e-06 0 0.000170545 -2.07157e-06 0 0.000173138 -1.67696e-06 0 0.000174273 -1.27674e-06 0 0.000173948 -8.74277e-07 0 0.000172182 -4.72997e-07 0 0.000169013 -7.64519e-08 0 0.000164504 3.11637e-07 0 0.00015874 6.87347e-07 0 0.000151825 1.04656e-06 0 0.000143889 1.38499e-06 0 0.000135077 1.69819e-06 0 0.000125553 1.98171e-06 0 0.000115498 2.23119e-06 0 0.000105099 2.44287e-06 0 9.45521e-05 2.61419e-06 0 8.40476e-05 2.74457e-06 0 0 -9.35383e-06 0 1.35404e-05 -9.33812e-06 0 2.70592e-05 -9.28988e-06 0 4.05283e-05 -9.206e-06 0 5.39076e-05 -9.08155e-06 0 6.71402e-05 -8.91035e-06 0 8.01492e-05 -8.68565e-06 0 9.28369e-05 -8.40093e-06 0 0.000105086 -8.05084e-06 0 0.000116764 -7.63202e-06 0 0.00012773 -7.14367e-06 0 0.000137839 -6.58777e-06 0 0.000146953 -5.96896e-06 0 0.000154944 -5.29406e-06 0 0.000161702 -4.57144e-06 0 0.000167137 -3.81035e-06 0 0.000171179 -3.0204e-06 0 0.000173783 -2.21126e-06 0 0.000174923 -1.39248e-06 0 0.000174597 -5.73573e-07 0 0.000172821 2.35883e-07 0 0.000169636 1.0261e-06 0 0.000165103 1.78703e-06 0 0.000159307 2.50838e-06 0 0.000152353 3.17982e-06 0 0.00014437 3.79118e-06 0 0.000135504 4.33271e-06 0 0.000125919 4.79534e-06 0 0.000115796 5.17098e-06 0 0.000105326 5.45336e-06 0 9.47058e-05 5.63938e-06 0 8.41312e-05 5.73076e-06 0 0 -1.32285e-05 0 1.35772e-05 -1.32101e-05 0 2.71359e-05 -1.31527e-05 0 4.06512e-05 -1.30506e-05 0 5.40854e-05 -1.28945e-05 0 6.7383e-05 -1.26728e-05 0 8.04674e-05 -1.23725e-05 0 9.324e-05 -1.19812e-05 0 0.000105581 -1.14882e-05 0 0.000117356 -1.08865e-05 0 0.000128417 -1.01735e-05 0 0.000138617 -9.35177e-06 0 0.000147814 -8.42843e-06 0 0.000155877 -7.4146e-06 0 0.000162695 -6.32409e-06 0 0.000168176 -5.17226e-06 0 0.000172252 -3.97507e-06 0 0.000174875 -2.74849e-06 0 0.000176021 -1.50826e-06 0 0.000175686 -2.70002e-07 0 0.000173889 9.50603e-07 0 0.000170669 2.13756e-06 0 0.000166087 3.27445e-06 0 0.000160227 4.3446e-06 0 0.000153195 5.33136e-06 0 0.00014512 6.21862e-06 0 0.000136149 6.99126e-06 0 0.000126449 7.63547e-06 0 0.0001162 8.13923e-06 0 0.000105598 8.49332e-06 0 9.48452e-05 8.69352e-06 0 8.41451e-05 8.7435e-06 0 0 -1.71143e-05 0 1.36193e-05 -1.70938e-05 0 2.72254e-05 -1.70291e-05 0 4.07982e-05 -1.69116e-05 0 5.4304e-05 -1.67274e-05 0 6.76898e-05 -1.64591e-05 0 8.08798e-05 -1.60871e-05 0 9.37738e-05 -1.55924e-05 0 0.000106249 -1.49587e-05 0 0.000118164 -1.41749e-05 0 0.000129366 -1.32366e-05 0 0.000139701 -1.21468e-05 0 0.00014902 -1.09155e-05 0 0.00015719 -9.55851e-06 0 0.000164096 -8.0954e-06 0 0.000169644 -6.54796e-06 0 0.000173767 -4.93866e-06 0 0.000176416 -3.28985e-06 0 0.000177569 -1.62345e-06 0 0.000177221 3.8928e-08 0 0.000175391 1.67554e-06 0 0.000172117 3.26422e-06 0 0.00016746 4.78217e-06 0 0.000161504 6.20619e-06 0 0.000154355 7.51319e-06 0 0.000146143 8.68097e-06 0 0.000137018 9.68892e-06 0 0.000127146 1.05184e-05 0 0.000116713 1.11532e-05 0 0.000105916 1.15803e-05 0 9.49682e-05 1.17936e-05 0 8.40842e-05 1.17978e-05 0 0 -2.10124e-05 0 1.36651e-05 -2.09907e-05 0 2.73246e-05 -2.09214e-05 0 4.0965e-05 -2.07927e-05 0 5.45583e-05 -2.05858e-05 0 6.80553e-05 -2.02769e-05 0 8.13814e-05 -1.98391e-05 0 9.44344e-05 -1.92461e-05 0 0.000107086 -1.84752e-05 0 0.000119188 -1.75107e-05 0 0.000130579 -1.6346e-05 0 0.000141094 -1.4985e-05 0 0.000150577 -1.3441e-05 0 0.000158889 -1.17347e-05 0 0.00016591 -9.89238e-06 0 0.000171547 -7.94246e-06 0 0.00017573 -5.91426e-06 0 0.000178414 -3.83656e-06 0 0.000179574 -1.73741e-06 0 0.000179208 3.55675e-07 0 0.000177333 2.41504e-06 0 0.000173986 4.41238e-06 0 0.000169229 6.31847e-06 0 0.000163144 8.1034e-06 0 0.000155839 9.73741e-06 0 0.000147445 1.1192e-05 0 0.000138113 1.24409e-05 0 0.000128014 1.34607e-05 0 0.000117335 1.42304e-05 0 0.000106281 1.47328e-05 0 9.50713e-05 1.49578e-05 0 8.39408e-05 1.49101e-05 0 0 -2.49235e-05 0 1.37125e-05 -2.49018e-05 0 2.7429e-05 -2.48315e-05 0 4.11454e-05 -2.46974e-05 0 5.48411e-05 -2.44752e-05 0 6.84719e-05 -2.41339e-05 0 8.19651e-05 -2.36384e-05 0 9.52162e-05 -2.29541e-05 0 0.000108091 -2.20509e-05 0 0.000120429 -2.09076e-05 0 0.000132058 -1.95155e-05 0 0.000142801 -1.78792e-05 0 0.000152491 -1.60159e-05 0 0.00016098 -1.39525e-05 0 0.000168146 -1.17221e-05 0 0.000173892 -9.36075e-06 0 0.00017815 -6.90487e-06 0 0.000180875 -4.38978e-06 0 0.000182044 -1.84952e-06 0 0.000181654 6.82652e-07 0 0.000179722 3.17337e-06 0 0.000176286 5.58827e-06 0 0.000171403 7.89161e-06 0 0.000165157 1.00465e-05 0 0.000157656 1.20163e-05 0 0.000149032 1.37657e-05 0 0.000139443 1.52627e-05 0 0.00012906 1.64791e-05 0 0.000118073 1.73892e-05 0 0.000106692 1.797e-05 0 9.51502e-05 1.82055e-05 0 8.3704e-05 1.80974e-05 0 0 -2.88474e-05 0 1.37583e-05 -2.88274e-05 0 2.7533e-05 -2.87608e-05 0 4.13313e-05 -2.86286e-05 0 5.51425e-05 -2.84007e-05 0 6.89293e-05 -2.80377e-05 0 8.26215e-05 -2.74954e-05 0 9.61117e-05 -2.67291e-05 0 0.000109257 -2.56999e-05 0 0.000121886 -2.43806e-05 0 0.000133807 -2.27596e-05 0 0.000144829 -2.08428e-05 0 0.000154771 -1.86519e-05 0 0.000163475 -1.62211e-05 0 0.000170814 -1.35916e-05 0 0.000176691 -1.08078e-05 0 0.000181037 -7.91344e-06 0 0.00018381 -4.95062e-06 0 0.000184988 -1.95918e-06 0 0.00018457 1.0222e-06 0 0.00018257 3.9547e-06 0 0.000179025 6.79805e-06 0 0.000173992 9.50989e-06 0 0.000167551 1.20461e-05 0 0.000159814 1.43623e-05 0 0.000150914 1.64162e-05 0 0.000141014 1.817e-05 0 0.000130289 1.95906e-05 0 0.000118932 2.06482e-05 0 0.000107154 2.13129e-05 0 9.51999e-05 2.15586e-05 0 8.33586e-05 2.13803e-05 0 0 -3.27831e-05 0 1.37988e-05 -3.27667e-05 0 2.76291e-05 -3.27096e-05 0 4.15125e-05 -3.25887e-05 0 5.54503e-05 -3.2367e-05 0 6.94143e-05 -3.19961e-05 0 8.3338e-05 -3.14206e-05 0 9.71112e-05 -3.05843e-05 0 0.000110581 -2.94377e-05 0 0.000123557 -2.7946e-05 0 0.00013583 -2.60942e-05 0 0.000147186 -2.38901e-05 0 0.000157428 -2.13612e-05 0 0.000166387 -1.85502e-05 0 0.000173928 -1.55081e-05 0 0.000179956 -1.22883e-05 0 0.000184403 -8.94277e-06 0 0.000187231 -5.52012e-06 0 0.000188419 -2.06579e-06 0 0.000187967 1.37657e-06 0 0.000185889 4.76307e-06 0 0.000182219 8.04776e-06 0 0.000177009 1.11816e-05 0 0.000170342 1.41126e-05 0 0.000162326 1.67882e-05 0 0.000153101 1.91582e-05 0 0.000142835 2.11786e-05 0 0.000131711 2.28126e-05 0 0.000119921 2.40268e-05 0 0.000107671 2.47839e-05 0 9.5216e-05 2.50423e-05 0 8.28854e-05 2.47806e-05 0 0 -3.67283e-05 0 1.38294e-05 -3.67179e-05 0 2.77085e-05 -3.66774e-05 0 4.1676e-05 -3.65791e-05 0 5.57488e-05 -3.63785e-05 0 6.99101e-05 -3.60167e-05 0 8.40988e-05 -3.54254e-05 0 9.82017e-05 -3.45344e-05 0 0.000112053 -3.32812e-05 0 0.000125442 -3.16216e-05 0 0.000138132 -2.95368e-05 0 0.000149884 -2.70366e-05 0 0.000160477 -2.41564e-05 0 0.00016973 -2.09496e-05 0 0.000177504 -1.74785e-05 0 0.000183702 -1.38069e-05 0 0.000188263 -9.99544e-06 0 0.00019115 -6.0992e-06 0 0.000192349 -2.16875e-06 0 0.000191859 1.74785e-06 0 0.000189693 5.60228e-06 0 0.000185881 9.34325e-06 0 0.000180472 1.29149e-05 0 0.000173543 1.62569e-05 0 0.000165206 1.93072e-05 0 0.000155606 2.20067e-05 0 0.000144919 2.43049e-05 0 0.000133336 2.61622e-05 0 0.00012105 2.75442e-05 0 0.000108254 2.84071e-05 0 9.51962e-05 2.86858e-05 0 8.2258e-05 2.83296e-05 0 0 -4.06792e-05 0 1.38446e-05 -4.06777e-05 0 2.77602e-05 -4.06621e-05 0 4.18065e-05 -4.06001e-05 0 5.6019e-05 -4.04387e-05 0 7.03958e-05 -4.0107e-05 0 8.48838e-05 -3.95216e-05 0 9.93673e-05 -3.85952e-05 0 0.000113665 -3.72492e-05 0 0.00012754 -3.54275e-05 0 0.000140721 -3.31065e-05 0 0.000152934 -3.02993e-05 0 0.000163935 -2.70514e-05 0 0.000173525 -2.34294e-05 0 0.00018156 -1.95097e-05 0 0.000187948 -1.5368e-05 0 0.000192632 -1.10737e-05 0 0.000195584 -6.68858e-06 0 0.000196793 -2.26753e-06 0 0.000196261 2.13794e-06 0 0.000193998 6.47585e-06 0 0.000190029 1.06901e-05 0 0.000184397 1.47179e-05 0 0.000177174 1.849e-05 0 0.000168471 2.19332e-05 0 0.000158442 2.49777e-05 0 0.000147274 2.75656e-05 0 0.000135175 2.96559e-05 0 0.000122335 3.12185e-05 0 0.000108921 3.22077e-05 0 9.51448e-05 3.25266e-05 0 8.14426e-05 3.2059e-05 0 0 -4.46304e-05 0 1.38378e-05 -4.46411e-05 0 2.77715e-05 -4.46603e-05 0 4.18851e-05 -4.46507e-05 0 5.62375e-05 -4.45502e-05 0 7.08457e-05 -4.42743e-05 0 8.5668e-05 -4.37217e-05 0 0.000100587 -4.27843e-05 0 0.000115405 -4.13631e-05 0 0.000129849 -3.93865e-05 0 0.000143605 -3.68251e-05 0 0.000156356 -3.36968e-05 0 0.000167823 -3.00604e-05 0 0.000177793 -2.59998e-05 0 0.000186119 -2.16082e-05 0 0.000192712 -1.69751e-05 0 0.000197528 -1.21794e-05 0 0.000200548 -7.28877e-06 0 0.000201767 -2.36157e-06 0 0.00020119 2.54844e-06 0 0.000198823 7.38679e-06 0 0.000194684 1.20933e-05 0 0.000188807 1.65987e-05 0 0.000181257 2.08232e-05 0 0.000172142 2.46808e-05 0 0.000161624 2.80883e-05 0 0.000149912 3.0978e-05 0 0.000137238 3.33097e-05 0 0.000123796 3.50653e-05 0 0.000109707 3.62111e-05 0 9.50824e-05 3.66097e-05 0 8.03925e-05 3.60347e-05 0 0 -4.85743e-05 0 1.38014e-05 -4.8601e-05 0 2.77272e-05 -4.86665e-05 0 4.18899e-05 -4.87282e-05 0 5.63761e-05 -4.87144e-05 0 7.1228e-05 -4.85256e-05 0 8.64199e-05 -4.80392e-05 0 0.000101836 -4.71215e-05 0 0.000117257 -4.56473e-05 0 0.000132367 -4.3525e-05 0 0.000146795 -4.07175e-05 0 0.000160169 -3.72498e-05 0 0.00017217 -3.31986e-05 0 0.000182564 -2.86707e-05 0 0.000191205 -2.37799e-05 0 0.000198017 -1.86312e-05 0 0.00020297 -1.33137e-05 0 0.000206059 -7.89992e-06 0 0.000207288 -2.4504e-06 0 0.000206663 2.98052e-06 0 0.000204188 8.33749e-06 0 0.000199869 1.35575e-05 0 0.000193728 1.85645e-05 0 0.000185817 2.3268e-05 0 0.00017624 2.75659e-05 0 0.000165169 3.13572e-05 0 0.000152843 3.45611e-05 0 0.000139531 3.71383e-05 0 0.000125451 3.90947e-05 0 0.000110666 4.04355e-05 0 9.50662e-05 4.09999e-05 0 7.90354e-05 4.03171e-05 0 0 -5.25012e-05 0 1.37269e-05 -5.25482e-05 0 2.761e-05 -5.26729e-05 0 4.17948e-05 -5.28278e-05 0 5.64015e-05 -5.29311e-05 0 7.15038e-05 -5.28669e-05 0 8.71001e-05 -5.2488e-05 0 0.00010308 -5.1629e-05 0 0.000119201 -5.01305e-05 0 0.000135093 -4.7874e-05 0 0.000150309 -4.48124e-05 0 0.000164403 -4.09811e-05 0 0.000177008 -3.6482e-05 0 0.00018787 -3.14516e-05 0 0.00019685 -2.60293e-05 0 0.000203889 -2.03381e-05 0 0.00020898 -1.44767e-05 0 0.000212136 -8.52175e-06 0 0.000213373 -2.53361e-06 0 0.000212699 3.43484e-06 0 0.000210113 9.32941e-06 0 0.000205608 1.50858e-05 0 0.000199188 2.06224e-05 0 0.000190886 2.58361e-05 0 0.000180796 3.06057e-05 0 0.000169098 3.48061e-05 0 0.000156071 3.83365e-05 0 0.000142051 4.11562e-05 0 0.000127316 4.33066e-05 0 0.000111877 4.48829e-05 0 9.52503e-05 4.57701e-05 0 7.72803e-05 4.51165e-05 0 0 -5.63987e-05 0 1.36046e-05 -5.64706e-05 0 2.74004e-05 -5.6669e-05 0 4.157e-05 -5.69418e-05 0 5.62736e-05 -5.71977e-05 0 7.1626e-05 -5.73032e-05 0 8.76593e-05 -5.7083e-05 0 0.000104277 -5.63323e-05 0 0.000121211 -5.48467e-05 0 0.000138024 -5.24708e-05 0 0.000154166 -4.91438e-05 0 0.000169094 -4.49167e-05 0 0.000182379 -3.99271e-05 0 0.000193752 -3.4351e-05 0 0.000203086 -2.83597e-05 0 0.000210354 -2.20959e-05 0 0.000215578 -1.56677e-05 0 0.000218796 -9.1534e-06 0 0.000220039 -2.61088e-06 0 0.000219317 3.91129e-06 0 0.000216622 1.03627e-05 0 0.000211932 1.66802e-05 0 0.000205223 2.27777e-05 0 0.000196502 2.8539e-05 0 0.000185843 3.38194e-05 0 0.000173433 3.84608e-05 0 0.000159601 4.23311e-05 0 0.000144779 4.53791e-05 0 0.000129379 4.76923e-05 0 0.000113436 4.95029e-05 0 9.59881e-05 5.10173e-05 0 7.48718e-05 5.07239e-05 0 0 -6.02513e-05 0 1.34238e-05 -6.03534e-05 0 2.70763e-05 -6.06413e-05 0 4.11812e-05 -6.10596e-05 0 5.59458e-05 -6.15086e-05 0 7.15366e-05 -6.18375e-05 0 8.8035e-05 -6.18394e-05 0 0.000105371 -6.12606e-05 0 0.000123255 -5.98371e-05 0 0.000141159 -5.73607e-05 0 0.000158396 -5.37519e-05 0 0.00017429 -4.90853e-05 0 0.000188338 -4.35502e-05 0 0.000200257 -3.73756e-05 0 0.000209952 -3.07718e-05 0 0.000217441 -2.39027e-05 0 0.000222786 -1.68842e-05 0 0.000226057 -9.79331e-06 0 0.000227301 -2.68203e-06 0 0.000226533 4.40883e-06 0 0.000223738 1.1436e-05 0 0.000218869 1.83406e-05 0 0.000211873 2.50341e-05 0 0.00020271 3.13878e-05 0 0.000191432 3.7228e-05 0 0.000178199 4.23528e-05 0 0.000163441 4.65805e-05 0 0.000147657 4.98302e-05 0 0.000131603 5.22357e-05 0 0.000115334 5.4172e-05 0 9.81261e-05 5.66462e-05 0 7.14377e-05 5.87807e-05 0 0 -6.40409e-05 0 1.31735e-05 -6.41785e-05 0 2.66145e-05 -6.45726e-05 0 4.05911e-05 -6.51663e-05 0 5.53647e-05 -6.58542e-05 0 7.11674e-05 -6.64696e-05 0 8.81497e-05 -6.67717e-05 0 0.000106291 -6.64478e-05 0 0.000125288 -6.51521e-05 0 0.000144498 -6.26005e-05 0 0.000163039 -5.86856e-05 0 0.000180055 -5.35194e-05 0 0.000194948 -4.7367e-05 0 0.000207441 -4.05291e-05 0 0.00021749 -3.32628e-05 0 0.000225179 -2.57537e-05 0 0.000230624 -1.81219e-05 0 0.000233933 -1.04391e-05 0 0.000235172 -2.74695e-06 0 0.000234367 4.92504e-06 0 0.000231481 1.25459e-05 0 0.00022646 2.00633e-05 0 0.000219171 2.7393e-05 0 0.00020959 3.43907e-05 0 0.000197572 4.08556e-05 0 0.000183527 4.65206e-05 0 0.000167422 5.11306e-05 0 0.00015093 5.45621e-05 0 0.000133283 5.68859e-05 0 0.000118306 5.88716e-05 0 0.000101783 6.10655e-05 0 6.10781e-05 7.92282e-05 0 </DataArray> 
</PointData> 
<Points> 
<DataArray type="Float32" NumberOfComponents="3"> 