<?xml version="1.0"?> 
<VTKFile type="StructuredGrid" version="0.1"> 
<StructuredGrid WholeExtent="0 31 0 31 0 0"> 
<Piece Extent="0 31 0 31 0 0"> 
<PointData>
<DataArray type="Float32" Name="B" format="ascii" NumberOfComponents="3"> 
-6.97879e-05 -0.000101802 0 -6.15574e-05 -4.15191e-05 0 -4.16897e-05 -4.07949e-05 0 -3.29059e-05 -3.42184e-05 0 -2.64397e-05 -3.20971e-05 0 -2.20204e-05 -2.94232e-05 0 -1.85591e-05 -2.75732e-05 0 -1.58323e-05 -2.58314e-05 0 -1.36074e-05 -2.43512e-05 0 -1.17653e-05 -2.30119e-05 0 -1.02196e-05 -2.18165e-05 0 -8.90882e-06 -2.07356e-05 0 -7.78843e-06 -1.97589e-05 0 -6.82382e-06 -1.88739e-05 0 -5.98834e-06 -1.80722e-05 0 -5.26063e-06 -1.73459e-05 0 -4.62349e-06 -1.66887e-05 0 -4.06281e-06 -1.6095e-05 0 -3.56692e-06 -1.55599e-05 0 -3.12605e-06 -1.50791e-05 0 -2.73196e-06 -1.46489e-05 0 -2.37762e-06 -1.42659e-05 0 -2.05703e-06 -1.39274e-05 0 -1.76496e-06 -1.36307e-05 0 -1.49687e-06 -1.33738e-05 0 -1.24876e-06 -1.31546e-05 0 -1.01704e-06 -1.29717e-05 0 -7.985e-07 -1.28237e-05 0 -5.90188e-07 -1.27095e-05 0 -3.89371e-07 -1.26285e-05 0 -1.93469e-07 -1.25798e-05 0 0 -1.25634e-05 0 -2.2461e-05 -7.82271e-05 0 -2.99766e-05 -6.33033e-05 0 -2.87919e-05 -5.05337e-05 0 -2.46698e-05 -4.35107e-05 0 -2.09395e-05 -3.83326e-05 0 -1.77313e-05 -3.46142e-05 0 -1.5092e-05 -3.16226e-05 0 -1.2901e-05 -2.91827e-05 0 -1.10768e-05 -2.71121e-05 0 -9.54666e-06 -2.53309e-05 0 -8.25482e-06 -2.37748e-05 0 -7.15778e-06 -2.24043e-05 0 -6.22099e-06 -2.1189e-05 0 -5.41709e-06 -2.0107e-05 0 -4.72397e-06 -1.91407e-05 0 -4.1237e-06 -1.82765e-05 0 -3.60155e-06 -1.7503e-05 0 -3.14536e-06 -1.6811e-05 0 -2.74498e-06 -1.61925e-05 0 -2.39192e-06 -1.56409e-05 0 -2.07898e-06 -1.51505e-05 0 -1.80005e-06 -1.47166e-05 0 -1.54991e-06 -1.43349e-05 0 -1.32403e-06 -1.40018e-05 0 -1.11849e-06 -1.37145e-05 0 -9.29839e-07 -1.34702e-05 0 -7.5503e-07 -1.32668e-05 0 -5.91315e-07 -1.31027e-05 0 -4.36198e-07 -1.29763e-05 0 -2.87372e-07 -1.28867e-05 0 -1.42667e-07 -1.2833e-05 0 0 -1.28148e-05 0 -1.44973e-05 -6.78408e-05 0 -1.59126e-05 -6.08399e-05 0 -1.62806e-05 -5.37934e-05 0 -1.54691e-05 -4.73754e-05 0 -1.39188e-05 -4.2232e-05 0 -1.22306e-05 -3.80248e-05 0 -1.06159e-05 -3.45805e-05 0 -9.16678e-06 -3.16961e-05 0 -7.89829e-06 -2.92503e-05 0 -6.80203e-06 -2.71475e-05 0 -5.85992e-06 -2.53226e-05 0 -5.05194e-06 -2.37264e-05 0 -4.35916e-06 -2.2322e-05 0 -3.76457e-06 -2.1081e-05 0 -3.25345e-06 -1.9981e-05 0 -2.81316e-06 -1.90038e-05 0 -2.43295e-06 -1.81349e-05 0 -2.10373e-06 -1.7362e-05 0 -1.81774e-06 -1.6675e-05 0 -1.56844e-06 -1.60653e-05 0 -1.35024e-06 -1.55257e-05 0 -1.15836e-06 -1.505e-05 0 -9.88706e-07 -1.46331e-05 0 -8.37753e-07 -1.42705e-05 0 -7.02432e-07 -1.39585e-05 0 -5.80063e-07 -1.36939e-05 0 -4.68275e-07 -1.3474e-05 0 -3.64952e-07 -1.32969e-05 0 -2.68176e-07 -1.31607e-05 0 -1.76183e-07 -1.30641e-05 0 -8.73179e-08 -1.30063e-05 0 0 -1.29867e-05 0 -5.12721e-06 -6.46421e-05 0 -6.77297e-06 -5.92792e-05 0 -7.47516e-06 -5.37052e-05 0 -7.49742e-06 -4.85391e-05 0 -7.11286e-06 -4.38673e-05 0 -6.47878e-06 -3.97993e-05 0 -5.75197e-06 -3.62805e-05 0 -5.02107e-06 -3.32478e-05 0 -4.3352e-06 -3.06251e-05 0 -3.71549e-06 -2.83478e-05 0 -3.16816e-06 -2.63611e-05 0 -2.69159e-06 -2.46206e-05 0 -2.28038e-06 -2.309e-05 0 -1.9277e-06 -2.17399e-05 0 -1.62646e-06 -2.05461e-05 0 -1.36987e-06 -1.94889e-05 0 -1.15173e-06 -1.85516e-05 0 -9.66531e-07 -1.77206e-05 0 -8.09437e-07 -1.69842e-05 0 -6.76243e-07 -1.63325e-05 0 -5.63319e-07 -1.57574e-05 0 -4.6753e-07 -1.52517e-05 0 -3.86177e-07 -1.48095e-05 0 -3.16925e-07 -1.44258e-05 0 -2.57754e-07 -1.40961e-05 0 -2.06899e-07 -1.3817e-05 0 -1.62812e-07 -1.35855e-05 0 -1.24119e-07 -1.33991e-05 0 -8.95848e-08 -1.3256e-05 0 -5.80794e-08 -1.31546e-05 0 -2.85514e-08 -1.30939e-05 0 0 -1.30733e-05 0 1.72064e-06 -6.2597e-05 0 8.4787e-07 -5.77581e-05 0 3.4998e-08 -5.2969e-05 0 -5.23656e-07 -4.83693e-05 0 -8.1406e-07 -4.41305e-05 0 -9.09654e-07 -4.02986e-05 0 -8.7401e-07 -3.6889e-05 0 -7.63908e-07 -3.38772e-05 0 -6.19059e-07 -3.12273e-05 0 -4.65432e-07 -2.8898e-05 0 -3.18357e-07 -2.68494e-05 0 -1.85988e-07 -2.50453e-05 0 -7.19551e-08 -2.34542e-05 0 2.28591e-08 -2.20488e-05 0 9.91114e-08 -2.08057e-05 0 1.58266e-07 -1.97052e-05 0 2.02134e-07 -1.87305e-05 0 2.32616e-07 -1.78673e-05 0 2.51545e-07 -1.71033e-05 0 2.60617e-07 -1.64283e-05 0 2.61352e-07 -1.58334e-05 0 2.55092e-07 -1.53111e-05 0 2.43004e-07 -1.4855e-05 0 2.26097e-07 -1.44596e-05 0 2.05236e-07 -1.41204e-05 0 1.81165e-07 -1.38335e-05 0 1.54524e-07 -1.35957e-05 0 1.25865e-07 -1.34044e-05 0 9.56726e-08 -1.32575e-05 0 6.43753e-08 -1.31536e-05 0 3.23632e-08 -1.30914e-05 0 0 -1.30703e-05 0 9.13501e-06 -6.10424e-05 0 7.9461e-06 -5.62343e-05 0 6.84126e-06 -5.16622e-05 0 5.86326e-06 -4.73855e-05 0 5.03983e-06 -4.34329e-05 0 4.37406e-06 -3.98335e-05 0 3.84347e-06 -3.65895e-05 0 3.42106e-06 -3.36886e-05 0 3.08071e-06 -3.11073e-05 0 2.80081e-06 -2.88173e-05 0 2.56473e-06 -2.67887e-05 0 2.36027e-06 -2.49926e-05 0 2.17873e-06 -2.34023e-05 0 2.01403e-06 -2.19938e-05 0 1.86197e-06 -2.07458e-05 0 1.71966e-06 -1.96397e-05 0 1.58507e-06 -1.86596e-05 0 1.45681e-06 -1.77914e-05 0 1.33387e-06 -1.70232e-05 0 1.2155e-06 -1.63446e-05 0 1.10113e-06 -1.57468e-05 0 9.90279e-07 -1.52222e-05 0 8.82563e-07 -1.47643e-05 0 7.7762e-07 -1.43676e-05 0 6.75118e-07 -1.40274e-05 0 5.74741e-07 -1.37398e-05 0 4.76181e-07 -1.35015e-05 0 3.79131e-07 -1.33099e-05 0 2.83291e-07 -1.31629e-05 0 1.88357e-07 -1.30588e-05 0 9.40271e-08 -1.29965e-05 0 0 -1.29755e-05 0 1.65596e-05 -5.90013e-05 0 1.49472e-05 -5.4165e-05 0 1.33542e-05 -4.97243e-05 0 1.18698e-05 -4.56495e-05 0 1.05319e-05 -4.19311e-05 0 9.34964e-06 -3.85561e-05 0 8.31805e-06 -3.55107e-05 0 7.42267e-06 -3.27759e-05 0 6.64573e-06 -3.03296e-05 0 5.96928e-06 -2.81477e-05 0 5.37702e-06 -2.6205e-05 0 4.85488e-06 -2.44776e-05 0 4.39116e-06 -2.29424e-05 0 3.97625e-06 -2.15786e-05 0 3.60233e-06 -2.03674e-05 0 3.26303e-06 -1.92921e-05 0 2.95317e-06 -1.83377e-05 0 2.66848e-06 -1.74915e-05 0 2.40539e-06 -1.67421e-05 0 2.16092e-06 -1.60798e-05 0 1.93254e-06 -1.54961e-05 0 1.71806e-06 -1.49837e-05 0 1.51557e-06 -1.45364e-05 0 1.32338e-06 -1.41488e-05 0 1.13999e-06 -1.38165e-05 0 9.64042e-07 -1.35355e-05 0 7.94284e-07 -1.33027e-05 0 6.29559e-07 -1.31155e-05 0 4.68782e-07 -1.29718e-05 0 3.1092e-07 -1.28701e-05 0 1.54982e-07 -1.28093e-05 0 0 -1.27887e-05 0 2.41945e-05 -5.59985e-05 0 2.18262e-05 -5.1228e-05 0 1.95966e-05 -4.69573e-05 0 1.75359e-05 -4.31147e-05 0 1.56625e-05 -3.96523e-05 0 1.39807e-05 -3.65337e-05 0 1.24832e-05 -3.37288e-05 0 1.11567e-05 -3.12112e-05 0 9.9844e-06 -2.89557e-05 0 8.94846e-06 -2.69387e-05 0 8.03167e-06 -2.51373e-05 0 7.21816e-06 -2.35301e-05 0 6.49377e-06 -2.20974e-05 0 5.84614e-06 -2.0821e-05 0 5.26459e-06 -1.96844e-05 0 4.73996e-06 -1.86728e-05 0 4.26442e-06 -1.77734e-05 0 3.83127e-06 -1.69744e-05 0 3.43476e-06 -1.62658e-05 0 3.06993e-06 -1.56387e-05 0 2.73248e-06 -1.50854e-05 0 2.41867e-06 -1.45993e-05 0 2.12521e-06 -1.41746e-05 0 1.84919e-06 -1.38064e-05 0 1.588e-06 -1.34904e-05 0 1.33931e-06 -1.32231e-05 0 1.10098e-06 -1.30016e-05 0 8.71037e-07 -1.28234e-05 0 6.47663e-07 -1.26866e-05 0 4.29125e-07 -1.25898e-05 0 2.13772e-07 -1.25318e-05 0 0 -1.25122e-05 0 3.16184e-05 -5.16703e-05 0 2.83952e-05 -4.71851e-05 0 2.54454e-05 -4.32355e-05 0 2.27683e-05 -3.97287e-05 0 2.03551e-05 -3.66017e-05 0 1.81917e-05 -3.38049e-05 0 1.62609e-05 -3.13001e-05 0 1.45425e-05 -2.90557e-05 0 1.30156e-05 -2.7045e-05 0 1.16595e-05 -2.52442e-05 0 1.04541e-05 -2.36324e-05 0 9.38117e-06 -2.21905e-05 0 8.42395e-06 -2.09013e-05 0 7.56758e-06 -1.97493e-05 0 6.79895e-06 -1.87204e-05 0 6.10656e-06 -1.78022e-05 0 5.48038e-06 -1.69836e-05 0 4.91169e-06 -1.62546e-05 0 4.39288e-06 -1.56067e-05 0 3.91733e-06 -1.50321e-05 0 3.47923e-06 -1.45243e-05 0 3.07349e-06 -1.40773e-05 0 2.69561e-06 -1.36862e-05 0 2.3416e-06 -1.33467e-05 0 2.00789e-06 -1.3055e-05 0 1.69125e-06 -1.28081e-05 0 1.38876e-06 -1.26032e-05 0 1.09773e-06 -1.24384e-05 0 8.1565e-07 -1.23117e-05 0 5.40159e-07 -1.2222e-05 0 2.69004e-07 -1.21684e-05 0 0 -1.21502e-05 0 3.84264e-05 -4.58941e-05 0 3.43343e-05 -4.19596e-05 0 3.06744e-05 -3.85232e-05 0 2.74024e-05 -3.5495e-05 0 2.44813e-05 -3.28112e-05 0 2.18773e-05 -3.04214e-05 0 1.95589e-05 -2.82866e-05 0 1.74966e-05 -2.63753e-05 0 1.56627e-05 -2.46619e-05 0 1.40314e-05 -2.31249e-05 0 1.25791e-05 -2.17456e-05 0 1.12844e-05 -2.05077e-05 0 1.01278e-05 -1.93971e-05 0 9.09217e-06 -1.84009e-05 0 8.16226e-06 -1.7508e-05 0 7.3246e-06 -1.67081e-05 0 6.56736e-06 -1.59925e-05 0 5.88017e-06 -1.53531e-05 0 5.25394e-06 -1.4783e-05 0 4.68068e-06 -1.42759e-05 0 4.15335e-06 -1.38265e-05 0 3.66576e-06 -1.343e-05 0 3.21242e-06 -1.30822e-05 0 2.78844e-06 -1.27797e-05 0 2.38942e-06 -1.25194e-05 0 2.01142e-06 -1.22987e-05 0 1.65083e-06 -1.21153e-05 0 1.30433e-06 -1.19675e-05 0 9.68836e-07 -1.18539e-05 0 6.41453e-07 -1.17734e-05 0 3.19403e-07 -1.17253e-05 0 0 -1.17089e-05 0 4.41471e-05 -3.87644e-05 0 3.93067e-05 -3.56313e-05 0 3.50313e-05 -3.2898e-05 0 3.12474e-05 -3.04927e-05 0 2.78943e-05 -2.83631e-05 0 2.49204e-05 -2.64671e-05 0 2.22812e-05 -2.47717e-05 0 1.99376e-05 -2.32507e-05 0 1.78547e-05 -2.18831e-05 0 1.60016e-05 -2.06513e-05 0 1.43508e-05 -1.95408e-05 0 1.28776e-05 -1.85392e-05 0 1.15604e-05 -1.76357e-05 0 1.03798e-05 -1.68208e-05 0 9.3188e-06 -1.60864e-05 0 8.36237e-06 -1.5425e-05 0 7.49733e-06 -1.48302e-05 0 6.71204e-06 -1.42962e-05 0 5.99628e-06 -1.38177e-05 0 5.34104e-06 -1.33903e-05 0 4.73838e-06 -1.301e-05 0 4.18126e-06 -1.26732e-05 0 3.66342e-06 -1.23768e-05 0 3.17928e-06 -1.21182e-05 0 2.72384e-06 -1.1895e-05 0 2.29255e-06 -1.17053e-05 0 1.88128e-06 -1.15474e-05 0 1.48623e-06 -1.142e-05 0 1.10384e-06 -1.13219e-05 0 7.30787e-07 -1.12523e-05 0 3.6387e-07 -1.12106e-05 0 0 -1.11965e-05 0 4.84027e-05 -3.05538e-05 0 4.3016e-05 -2.84163e-05 0 3.82885e-05 -2.65379e-05 0 3.41277e-05 -2.48747e-05 0 3.04573e-05 -2.33926e-05 0 2.72132e-05 -2.20636e-05 0 2.4341e-05 -2.08661e-05 0 2.17939e-05 -1.97826e-05 0 1.95315e-05 -1.87995e-05 0 1.75185e-05 -1.79055e-05 0 1.57242e-05 -1.70917e-05 0 1.41216e-05 -1.63503e-05 0 1.26869e-05 -1.5675e-05 0 1.13995e-05 -1.50601e-05 0 1.02411e-05 -1.45008e-05 0 9.19549e-06 -1.39925e-05 0 8.24867e-06 -1.35316e-05 0 7.38817e-06 -1.31144e-05 0 6.60305e-06 -1.27378e-05 0 5.88364e-06 -1.23991e-05 0 5.2214e-06 -1.20958e-05 0 4.60874e-06 -1.18256e-05 0 4.03891e-06 -1.15866e-05 0 3.50585e-06 -1.13771e-05 0 3.00413e-06 -1.11955e-05 0 2.52882e-06 -1.10406e-05 0 2.0754e-06 -1.09113e-05 0 1.63974e-06 -1.08066e-05 0 1.21794e-06 -1.07258e-05 0 8.06365e-07 -1.06685e-05 0 4.01514e-07 -1.06341e-05 0 0 -1.06224e-05 0 5.09367e-05 -2.16512e-05 0 4.52549e-05 -2.06227e-05 0 4.02798e-05 -1.96954e-05 0 3.59118e-05 -1.88521e-05 0 3.20669e-05 -1.80793e-05 0 2.86741e-05 -1.73663e-05 0 2.56732e-05 -1.67052e-05 0 2.30131e-05 -1.60898e-05 0 2.06499e-05 -1.55158e-05 0 1.85459e-05 -1.498e-05 0 1.66685e-05 -1.44797e-05 0 1.49894e-05 -1.40131e-05 0 1.34839e-05 -1.35786e-05 0 1.21306e-05 -1.31747e-05 0 1.09106e-05 -1.28002e-05 0 9.80752e-06 -1.24538e-05 0 8.80674e-06 -1.21345e-05 0 7.89554e-06 -1.18412e-05 0 7.06269e-06 -1.15729e-05 0 6.29825e-06 -1.13285e-05 0 5.59341e-06 -1.11072e-05 0 4.94034e-06 -1.0908e-05 0 4.33204e-06 -1.07303e-05 0 3.76224e-06 -1.05732e-05 0 3.22529e-06 -1.04361e-05 0 2.71604e-06 -1.03184e-05 0 2.22978e-06 -1.02197e-05 0 1.76218e-06 -1.01394e-05 0 1.30915e-06 -1.00773e-05 0 8.66881e-07 -1.0033e-05 0 4.31684e-07 -1.00065e-05 0 0 -9.99744e-06 0 5.16296e-05 -1.24787e-05 0 4.59152e-05 -1.26028e-05 0 4.0915e-05 -1.26646e-05 0 3.65274e-05 -1.26719e-05 0 3.26663e-05 -1.26324e-05 0 2.92589e-05 -1.25533e-05 0 2.62436e-05 -1.24418e-05 0 2.35683e-05 -1.23043e-05 0 2.11886e-05 -1.21468e-05 0 1.90664e-05 -1.19745e-05 0 1.71691e-05 -1.17922e-05 0 1.54686e-05 -1.16039e-05 0 1.39404e-05 -1.14133e-05 0 1.25633e-05 -1.12232e-05 0 1.13188e-05 -1.10361e-05 0 1.01905e-05 -1.08542e-05 0 9.16429e-06 -1.0679e-05 0 8.22756e-06 -1.05119e-05 0 7.36921e-06 -1.0354e-05 0 6.57945e-06 -1.0206e-05 0 5.84953e-06 -1.00686e-05 0 5.17169e-06 -9.94235e-06 0 4.53897e-06 -9.82748e-06 0 3.9451e-06 -9.72431e-06 0 3.38442e-06 -9.63301e-06 0 2.85177e-06 -9.55372e-06 0 2.34241e-06 -9.48651e-06 0 1.85196e-06 -9.43144e-06 0 1.3763e-06 -9.38855e-06 0 9.11552e-07 -9.35785e-06 0 4.53992e-07 -9.33935e-06 0 0 -9.33306e-06 0 5.04615e-05 -3.46411e-06 0 4.49803e-05 -4.72371e-06 0 4.0182e-05 -5.7569e-06 0 3.59672e-05 -6.5975e-06 0 3.22524e-05 -7.27446e-06 0 2.89677e-05 -7.81354e-06 0 2.60545e-05 -8.23698e-06 0 2.34631e-05 -8.56391e-06 0 2.11515e-05 -8.81071e-06 0 1.9084e-05 -8.99133e-06 0 1.72297e-05 -9.11767e-06 0 1.55623e-05 -9.19984e-06 0 1.40589e-05 -9.24638e-06 0 1.26995e-05 -9.26453e-06 0 1.14666e-05 -9.26042e-06 0 1.03451e-05 -9.23918e-06 0 9.3216e-06 -9.20514e-06 0 8.38413e-06 -9.16192e-06 0 7.52226e-06 -9.11255e-06 0 6.72667e-06 -9.05957e-06 0 5.98908e-06 -9.00509e-06 0 5.30205e-06 -8.95084e-06 0 4.65892e-06 -8.8983e-06 0 4.05366e-06 -8.84864e-06 0 3.48081e-06 -8.80286e-06 0 2.93536e-06 -8.76176e-06 0 2.41272e-06 -8.72598e-06 0 1.90861e-06 -8.69604e-06 0 1.41901e-06 -8.67234e-06 0 9.40133e-07 -8.65518e-06 0 4.68314e-07 -8.64475e-06 0 0 -8.6412e-06 0 4.75055e-05 4.96222e-06 0 4.25214e-05 2.64719e-06 0 3.81471e-05 7.16867e-07 0 3.4291e-05 -8.90679e-07 0 3.08782e-05 -2.22611e-06 0 2.78471e-05 -3.33314e-06 0 2.51463e-05 -4.24847e-06 0 2.27325e-05 -5.00302e-06 0 2.0569e-05 -5.62278e-06 0 1.86246e-05 -6.12962e-06 0 1.68725e-05 -6.54196e-06 0 1.52894e-05 -6.87532e-06 0 1.38552e-05 -7.14282e-06 0 1.25523e-05 -7.35552e-06 0 1.13653e-05 -7.52279e-06 0 1.02806e-05 -7.65257e-06 0 9.28623e-06 -7.75155e-06 0 8.37148e-06 -7.82541e-06 0 7.52691e-06 -7.87896e-06 0 6.74408e-06 -7.91627e-06 0 6.01543e-06 -7.94076e-06 0 5.33414e-06 -7.95533e-06 0 4.69408e-06 -7.96244e-06 0 4.08966e-06 -7.96411e-06 0 3.51582e-06 -7.96206e-06 0 2.96788e-06 -7.95771e-06 0 2.44153e-06 -7.95222e-06 0 1.93275e-06 -7.94652e-06 0 1.43774e-06 -7.94135e-06 0 9.52908e-07 -7.93726e-06 0 4.74787e-07 -7.93464e-06 0 0 -7.93372e-06 0 4.29411e-05 1.23741e-05 0 3.87049e-05 9.15702e-06 0 3.49571e-05 6.46477e-06 0 3.16255e-05 4.20599e-06 0 2.8652e-05 2.31009e-06 0 2.5989e-05 7.1767e-07 0 2.3597e-05 -6.2015e-07 0 2.14423e-05 -1.744e-06 0 1.94966e-05 -2.68768e-06 0 1.77353e-05 -3.47944e-06 0 1.61371e-05 -4.14297e-06 0 1.46833e-05 -4.69815e-06 0 1.33577e-05 -5.16177e-06 0 1.21458e-05 -5.54803e-06 0 1.1035e-05 -5.86893e-06 0 1.0014e-05 -6.13469e-06 0 9.07252e-06 -6.35398e-06 0 8.20167e-06 -6.53417e-06 0 7.39332e-06 -6.68154e-06 0 6.64019e-06 -6.80144e-06 0 5.9357e-06 -6.89843e-06 0 5.27391e-06 -6.97637e-06 0 4.64939e-06 -7.03854e-06 0 4.0572e-06 -7.08772e-06 0 3.49282e-06 -7.12625e-06 0 2.95205e-06 -7.15606e-06 0 2.431e-06 -7.17876e-06 0 1.92603e-06 -7.19566e-06 0 1.43367e-06 -7.20778e-06 0 9.50655e-07 -7.21591e-06 0 4.73797e-07 -7.22058e-06 0 0 -7.22214e-06 0 3.70878e-05 1.83794e-05 0 3.38014e-05 1.44989e-05 0 3.08394e-05 1.12397e-05 0 2.81608e-05 8.4903e-06 0 2.57321e-05 6.16648e-06 0 2.35254e-05 4.19831e-06 0 2.15165e-05 2.52899e-06 0 1.96847e-05 1.1116e-06 0 1.80117e-05 -9.27274e-08 0 1.6481e-05 -1.11637e-06 0 1.50781e-05 -1.98648e-06 0 1.37901e-05 -2.72588e-06 0 1.26053e-05 -3.35384e-06 0 1.1513e-05 -3.88672e-06 0 1.05038e-05 -4.3384e-06 0 9.56892e-06 -4.72072e-06 0 8.70064e-06 -5.04378e-06 0 7.89183e-06 -5.31623e-06 0 7.13601e-06 -5.54544e-06 0 6.42731e-06 -5.73775e-06 0 5.76032e-06 -5.89857e-06 0 5.13014e-06 -6.03253e-06 0 4.53224e-06 -6.14356e-06 0 3.96245e-06 -6.23504e-06 0 3.41692e-06 -6.30978e-06 0 2.89204e-06 -6.37016e-06 0 2.38446e-06 -6.41815e-06 0 1.89102e-06 -6.45535e-06 0 1.40869e-06 -6.48304e-06 0 9.34601e-07 -6.50217e-06 0 4.65948e-07 -6.51342e-06 0 0 -6.51719e-06 0 3.03962e-05 2.27075e-05 0 2.81738e-05 1.84604e-05 0 2.6088e-05 1.48715e-05 0 2.41365e-05 1.18228e-05 0 2.2315e-05 9.22652e-06 0 2.06181e-05 7.0099e-06 0 1.90392e-05 5.11398e-06 0 1.75713e-05 3.49004e-06 0 1.62073e-05 2.09761e-06 0 1.49398e-05 9.02851e-07 0 1.37616e-05 -1.22698e-07 0 1.26657e-05 -1.0031e-06 0 1.16453e-05 -1.75879e-06 0 1.0694e-05 -2.40716e-06 0 9.80562e-06 -2.9631e-06 0 8.97456e-06 -3.43934e-06 0 8.1954e-06 -3.84682e-06 0 7.46313e-06 -4.19495e-06 0 6.77307e-06 -4.49183e-06 0 6.12085e-06 -4.74442e-06 0 5.50242e-06 -4.95871e-06 0 4.914e-06 -5.13985e-06 0 4.35207e-06 -5.29225e-06 0 3.81332e-06 -5.41967e-06 0 3.29468e-06 -5.52532e-06 0 2.79323e-06 -5.61187e-06 0 2.30624e-06 -5.68157e-06 0 1.83108e-06 -5.73624e-06 0 1.36525e-06 -5.77734e-06 0 9.06356e-07 -5.80596e-06 0 4.52038e-07 -5.82289e-06 0 0 -5.8286e-06 0 2.33929e-05 2.52576e-05 0 2.22354e-05 2.09617e-05 0 2.10321e-05 1.72921e-05 0 1.98179e-05 1.41437e-05 0 1.86166e-05 1.14363e-05 0 1.74442e-05 9.10331e-06 0 1.63112e-05 7.08974e-06 0 1.52239e-05 5.34982e-06 0 1.41856e-05 3.84507e-06 0 1.31977e-05 2.54297e-06 0 1.226e-05 1.4159e-06 0 1.13714e-05 4.4027e-07 0 1.05299e-05 -4.04123e-07 0 9.73328e-06 -1.13464e-06 0 8.97877e-06 -1.76626e-06 0 8.26359e-06 -2.31188e-06 0 7.58484e-06 -2.7827e-06 0 6.93963e-06 -3.18838e-06 0 6.32512e-06 -3.53732e-06 0 5.73851e-06 -3.83675e-06 0 5.17713e-06 -4.09298e-06 0 4.6384e-06 -4.31142e-06 0 4.11983e-06 -4.49674e-06 0 3.61907e-06 -4.65295e-06 0 3.13385e-06 -4.78348e-06 0 2.662e-06 -4.8912e-06 0 2.20145e-06 -4.97852e-06 0 1.75018e-06 -5.04742e-06 0 1.30627e-06 -5.09947e-06 0 8.67832e-07 -5.13586e-06 0 4.33013e-07 -5.15745e-06 0 0 -5.16473e-06 0 1.65899e-05 2.61344e-05 0 1.63888e-05 2.207e-05 0 1.59926e-05 1.85439e-05 0 1.54641e-05 1.54771e-05 0 1.48485e-05 1.28072e-05 0 1.41786e-05 1.04807e-05 0 1.34781e-05 8.45205e-06 0 1.27642e-05 6.68235e-06 0 1.2049e-05 5.13817e-06 0 1.13414e-05 3.79069e-06 0 1.06472e-05 2.61498e-06 0 9.97037e-06 1.58945e-06 0 9.31335e-06 6.95308e-07 0 8.67747e-06 -8.37866e-08 0 8.06322e-06 -7.62086e-07 0 7.47048e-06 -1.35203e-06 0 6.89871e-06 -1.86447e-06 0 6.34702e-06 -2.3089e-06 0 5.81434e-06 -2.6936e-06 0 5.29941e-06 -3.0258e-06 0 4.8009e-06 -3.31179e-06 0 4.31742e-06 -3.55705e-06 0 3.84756e-06 -3.76632e-06 0 3.38987e-06 -3.94367e-06 0 2.94295e-06 -4.09261e-06 0 2.50538e-06 -4.21611e-06 0 2.07577e-06 -4.31664e-06 0 1.65276e-06 -4.39626e-06 0 1.235e-06 -4.45659e-06 0 8.21166e-07 -4.49887e-06 0 4.09933e-07 -4.52398e-06 0 0 -4.53246e-06 0 1.03988e-05 2.56066e-05 0 1.0964e-05 2.19775e-05 0 1.12385e-05 1.87633e-05 0 1.12973e-05 1.59197e-05 0 1.1196e-05 1.34073e-05 0 1.09767e-05 1.11895e-05 0 1.06713e-05 9.2331e-06 0 1.03041e-05 7.50869e-06 0 9.89339e-06 5.9898e-06 0 9.45313e-06 4.65291e-06 0 8.99391e-06 3.47712e-06 0 8.52367e-06 2.44386e-06 0 8.04835e-06 1.53668e-06 0 7.5723e-06 7.41023e-07 0 7.09871e-06 4.39682e-08 0 6.62978e-06 -5.65896e-07 0 6.16703e-06 -1.09866e-06 0 5.7114e-06 -1.56324e-06 0 5.26339e-06 -1.96749e-06 0 4.82319e-06 -2.31832e-06 0 4.39072e-06 -2.6218e-06 0 3.96573e-06 -2.88325e-06 0 3.5478e-06 -3.1073e-06 0 3.13641e-06 -3.29795e-06 0 2.73096e-06 -3.45865e-06 0 2.3308e-06 -3.59236e-06 0 1.93523e-06 -3.70154e-06 0 1.54351e-06 -3.78823e-06 0 1.1549e-06 -3.85406e-06 0 7.68631e-07 -3.90027e-06 0 3.83924e-07 -3.92775e-06 0 0 -3.93703e-06 0 5.06384e-06 2.40442e-05 0 6.17561e-06 2.09512e-05 0 6.95758e-06 1.81466e-05 0 7.48099e-06 1.5617e-05 0 7.80146e-06 1.33447e-05 0 7.96276e-06 1.13099e-05 0 7.99933e-06 9.4926e-06 0 7.93836e-06 7.87304e-06 0 7.80135e-06 6.43245e-06 0 7.60527e-06 5.15323e-06 0 7.36359e-06 4.0191e-06 0 7.08695e-06 3.01514e-06 0 6.78376e-06 2.12773e-06 0 6.46066e-06 1.34453e-06 0 6.12289e-06 6.5439e-07 0 5.77454e-06 4.72915e-08 0 5.41881e-06 -4.8577e-07 0 5.05817e-06 -9.52842e-07 0 4.69451e-06 -1.3611e-06 0 4.32927e-06 -1.71693e-06 0 3.9635e-06 -2.02598e-06 0 3.59795e-06 -2.29322e-06 0 3.23315e-06 -2.52304e-06 0 2.86943e-06 -2.71924e-06 0 2.50697e-06 -2.88512e-06 0 2.14582e-06 -3.0235e-06 0 1.78594e-06 -3.13676e-06 0 1.42723e-06 -3.22688e-06 0 1.0695e-06 -3.29542e-06 0 7.12553e-07 -3.34359e-06 0 3.56141e-07 -3.37227e-06 0 0 -3.38196e-06 0 6.59247e-07 2.18125e-05 0 2.11634e-06 1.92699e-05 0 3.24839e-06 1.69071e-05 0 4.11315e-06 1.47327e-05 0 4.75853e-06 1.27456e-05 0 5.22411e-06 1.094e-05 0 5.54242e-06 9.30653e-06 0 5.74018e-06 7.83442e-06 0 5.83926e-06 6.51193e-06 0 5.85761e-06 5.32716e-06 0 5.80994e-06 4.26842e-06 0 5.7083e-06 3.32445e-06 0 5.56258e-06 2.48462e-06 0 5.3809e-06 1.73899e-06 0 5.16992e-06 1.07836e-06 0 4.93512e-06 4.94289e-07 0 4.68097e-06 -2.09536e-08 0 4.41117e-06 -4.74373e-07 0 4.12874e-06 -8.72298e-07 0 3.83615e-06 -1.22042e-06 0 3.53542e-06 -1.52383e-06 0 3.2282e-06 -1.78705e-06 0 2.91584e-06 -2.01408e-06 0 2.59944e-06 -2.20843e-06 0 2.27986e-06 -2.37315e-06 0 1.95784e-06 -2.51087e-06 0 1.63394e-06 -2.62381e-06 0 1.30863e-06 -2.71381e-06 0 9.82291e-07 -2.78236e-06 0 6.55235e-07 -2.83059e-06 0 3.27727e-07 -2.85932e-06 0 0 -2.86903e-06 0 -2.86629e-06 1.921e-05 0 -1.21831e-06 1.71742e-05 0 1.34424e-07 1.52387e-05 0 1.23329e-06 1.34229e-05 0 2.11521e-06 1.17358e-05 0 2.81252e-06 1.01807e-05 0 3.35311e-06 8.75616e-06 0 3.76086e-06 7.45826e-06 0 4.05615e-06 6.28098e-06 0 4.25624e-06 5.21723e-06 0 4.37579e-06 4.25935e-06 0 4.42718e-06 3.39944e-06 0 4.42091e-06 2.62965e-06 0 4.36586e-06 1.94237e-06 0 4.26954e-06 1.33032e-06 0 4.13832e-06 7.86677e-07 0 3.9776e-06 3.05046e-07 0 3.79195e-06 -1.2046e-07 0 3.58527e-06 -4.9524e-07 0 3.36086e-06 -8.24206e-07 0 3.12153e-06 -1.1118e-06 0 2.86968e-06 -1.362e-06 0 2.60736e-06 -1.57835e-06 0 2.33632e-06 -1.76399e-06 0 2.05807e-06 -1.92167e-06 0 1.77391e-06 -2.05374e-06 0 1.48497e-06 -2.16222e-06 0 1.19225e-06 -2.24879e-06 0 8.96617e-07 -2.31479e-06 0 5.98883e-07 -2.36127e-06 0 2.99779e-07 -2.38897e-06 0 0 -2.39834e-06 0 -5.62626e-06 1.64398e-05 0 -3.89019e-06 1.48442e-05 0 -2.41087e-06 1.32966e-05 0 -1.16143e-06 1.18195e-05 0 -1.15725e-07 1.04264e-05 0 7.50647e-07 9.1251e-06 0 1.45995e-06 7.91934e-06 0 2.03216e-06 6.8095e-06 0 2.48502e-06 5.79372e-06 0 2.83414e-06 4.86854e-06 0 3.09324e-06 4.02949e-06 0 3.27427e-06 3.27144e-06 0 3.38766e-06 2.58895e-06 0 3.44249e-06 1.97647e-06 0 3.44666e-06 1.42848e-06 0 3.40701e-06 9.39671e-07 0 3.32952e-06 5.04949e-07 0 3.21938e-06 1.19532e-07 0 3.0811e-06 -2.21029e-07 0 2.91862e-06 -5.20838e-07 0 2.73537e-06 -7.83643e-07 0 2.53434e-06 -1.01284e-06 0 2.31817e-06 -1.21147e-06 0 2.08916e-06 -1.38225e-06 0 1.84934e-06 -1.52755e-06 0 1.60054e-06 -1.64946e-06 0 1.34437e-06 -1.74972e-06 0 1.08227e-06 -1.82982e-06 0 8.15591e-07 -1.89095e-06 0 5.45555e-07 -1.93403e-06 0 2.73321e-07 -1.95972e-06 0 0 -1.96841e-06 0 -7.74623e-06 1.36231e-05 0 -5.9829e-06 1.23992e-05 0 -4.439e-06 1.11926e-05 0 -3.09861e-06 1.0024e-05 0 -1.94455e-06 8.90748e-06 0 -9.59453e-07 7.85255e-06 0 -1.26483e-07 6.86504e-06 0 5.70282e-07 5.94785e-06 0 1.14562e-06 5.10162e-06 0 1.61306e-06 4.32536e-06 0 1.98491e-06 3.61686e-06 0 2.27223e-06 2.9731e-06 0 2.48499e-06 2.39055e-06 0 2.63206e-06 1.86534e-06 0 2.72138e-06 1.39349e-06 0 2.75999e-06 9.71013e-07 0 2.75415e-06 5.9401e-07 0 2.70944e-06 2.58736e-07 0 2.6308e-06 -3.83476e-08 0 2.52259e-06 -3.00548e-07 0 2.38873e-06 -5.30916e-07 0 2.23267e-06 -7.32244e-07 0 2.05751e-06 -9.07055e-07 0 1.86599e-06 -1.05761e-06 0 1.66059e-06 -1.1859e-06 0 1.44356e-06 -1.29367e-06 0 1.2169e-06 -1.38241e-06 0 9.82483e-07 -1.45337e-06 0 7.42015e-07 -1.50757e-06 0 4.97104e-07 -1.54578e-06 0 2.49275e-07 -1.56858e-06 0 0 -1.57629e-06 0 -9.33832e-06 1.08221e-05 0 -7.57911e-06 9.91081e-06 0 -6.00784e-06 9.00074e-06 0 -4.61612e-06 8.10901e-06 0 -3.3934e-06 7.2479e-06 0 -2.32791e-06 6.42653e-06 0 -1.40735e-06 5.65108e-06 0 -6.19434e-07 4.92534e-06 0 4.78462e-08 4.25117e-06 0 6.05937e-07 3.62898e-06 0 1.06562e-06 3.058e-06 0 1.43692e-06 2.53667e-06 0 1.7291e-06 2.06284e-06 0 1.95065e-06 1.63398e-06 0 2.10932e-06 1.24732e-06 0 2.21216e-06 9.00023e-07 0 2.26554e-06 5.89214e-07 0 2.27522e-06 3.12088e-07 0 2.2464e-06 6.59505e-08 0 2.18378e-06 -1.51749e-07 0 2.09157e-06 -3.43388e-07 0 1.97359e-06 -5.1116e-07 0 1.83328e-06 -6.57062e-07 0 1.67373e-06 -7.82893e-07 0 1.49778e-06 -8.90249e-07 0 1.30799e-06 -9.80531e-07 0 1.10673e-06 -1.05494e-06 0 8.96163e-07 -1.11449e-06 0 6.78332e-07 -1.16e-06 0 4.5515e-07 -1.1921e-06 0 2.28448e-07 -1.21126e-06 0 0 -1.21774e-06 0 -1.04919e-05 8.06183e-06 0 -8.74942e-06 7.4168e-06 0 -7.17073e-06 6.76639e-06 0 -5.75225e-06 6.12339e-06 0 -4.48798e-06 5.49739e-06 0 -3.3702e-06 4.89584e-06 0 -2.3901e-06 4.3241e-06 0 -1.53824e-06 3.78577e-06 0 -8.04935e-07 3.28299e-06 0 -1.80538e-07 2.8167e-06 0 3.44357e-07 2.38693e-06 0 7.78781e-07 1.99299e-06 0 1.13129e-06 1.63368e-06 0 1.40992e-06 1.30745e-06 0 1.62215e-06 1.01249e-06 0 1.77492e-06 7.46877e-07 0 1.87458e-06 5.08623e-07 0 1.927e-06 2.95749e-07 0 1.93752e-06 1.06323e-07 0 1.91103e-06 -6.15e-08 0 1.85196e-06 -2.09459e-07 0 1.76438e-06 -3.39169e-07 0 1.65197e-06 -4.5211e-07 0 1.51809e-06 -5.4962e-07 0 1.36584e-06 -6.32895e-07 0 1.19804e-06 -7.02984e-07 0 1.0173e-06 -7.60793e-07 0 8.26052e-07 -8.07083e-07 0 6.26582e-07 -8.42476e-07 0 4.21046e-07 -8.67454e-07 0 2.11514e-07 -8.82361e-07 0 0 -8.87405e-07 0 -1.12728e-05 5.34539e-06 0 -9.5485e-06 4.93314e-06 0 -7.97111e-06 4.5147e-06 0 -6.54e-06 4.09845e-06 0 -5.25208e-06 3.69086e-06 0 -4.1023e-06 3.29712e-06 0 -3.08423e-06 2.92109e-06 0 -2.19047e-06 2.56549e-06 0 -1.41303e-06 2.23206e-06 0 -7.43629e-07 1.92174e-06 0 -1.73919e-07 1.63481e-06 0 3.04321e-07 1.37106e-06 0 6.99063e-07 1.12987e-06 0 1.01793e-06 9.10376e-07 0 1.26816e-06 7.11514e-07 0 1.45652e-06 5.32103e-07 0 1.58935e-06 3.70902e-07 0 1.67251e-06 2.26654e-07 0 1.71143e-06 9.81207e-08 0 1.7111e-06 -1.58948e-08 0 1.67611e-06 -1.16526e-07 0 1.61066e-06 -2.04834e-07 0 1.51861e-06 -2.81793e-07 0 1.40352e-06 -3.4829e-07 0 1.26863e-06 -4.05119e-07 0 1.11697e-06 -4.52978e-07 0 9.51326e-07 -4.92473e-07 0 7.74309e-07 -5.24111e-07 0 5.88376e-07 -5.4831e-07 0 3.95861e-07 -5.65393e-07 0 1.99008e-07 -5.75589e-07 0 0 -5.79039e-07 0 -1.17258e-05 2.66338e-06 0 -1.00146e-05 2.46249e-06 0 -8.44045e-06 2.25777e-06 0 -7.00421e-06 2.05338e-06 0 -5.70438e-06 1.85256e-06 0 -4.53746e-06 1.65795e-06 0 -3.49837e-06 1.47155e-06 0 -2.58094e-06 1.29482e-06 0 -1.77821e-06 1.12872e-06 0 -1.08271e-06 9.73792e-07 0 -4.86792e-07 8.30267e-07 0 1.72588e-08 6.98103e-07 0 4.37027e-07 5.7706e-07 0 7.79866e-07 4.66749e-07 0 1.05282e-06 3.66681e-07 0 1.26255e-06 2.76298e-07 0 1.41536e-06 1.95005e-07 0 1.51709e-06 1.22195e-07 0 1.57321e-06 5.72633e-08 0 1.58876e-06 -3.7751e-10 0 1.5684e-06 -5.12862e-08 0 1.51643e-06 -9.59871e-08 0 1.43682e-06 -1.34964e-07 0 1.3332e-06 -1.68659e-07 0 1.20894e-06 -1.97467e-07 0 1.06717e-06 -2.21737e-07 0 9.10782e-07 -2.41771e-07 0 7.42499e-07 -2.57824e-07 0 5.64882e-07 -2.70105e-07 0 3.80371e-07 -2.78776e-07 0 1.91315e-07 -2.83952e-07 0 0 -2.85704e-07 0 -1.18769e-05 -0 0 -1.01705e-05 -0 0 -8.59781e-06 -0 0 -7.16023e-06 -0 0 -5.85675e-06 -0 0 -4.68436e-06 -0 0 -3.63845e-06 -0 0 -2.71325e-06 -0 0 -1.90213e-06 -0 0 -1.19795e-06 -0 0 -5.93259e-07 -0 0 -8.05372e-08 -0 0 3.47664e-07 -0 0 6.98601e-07 -0 0 9.79248e-07 -0 0 1.19624e-06 -0 0 1.35583e-06 -0 0 1.46388e-06 -0 0 1.52586e-06 -0 0 1.54683e-06 -0 0 1.53147e-06 -0 0 1.48412e-06 -0 0 1.40875e-06 -0 0 1.30906e-06 -0 0 1.18845e-06 -0 0 1.05007e-06 -0 0 8.96857e-07 -0 0 7.31572e-07 -0 0 5.56811e-07 -0 0 3.75049e-07 -0 0 1.88671e-07 -0 0 0 -0 0 </DataArray> 
</PointData> 
<Points> 
<DataArray type="Float32" NumberOfComponents="3"> 