<?xml version="1.0"?> 
<VTKFile type="StructuredGrid" version="0.1"> 
<StructuredGrid WholeExtent="0 31 0 31 0 0"> 
<Piece Extent="0 31 0 31 0 0"> 
<PointData>
<DataArray type="Float32" Name="B" format="ascii" NumberOfComponents="3"> 
-2.58498e-06 -0 0 -2.61343e-06 -0 0 -2.63495e-06 -0 0 -2.64911e-06 -0 0 -2.65554e-06 -0 0 -2.6539e-06 -0 0 -2.6439e-06 -0 0 -2.62534e-06 -0 0 -2.59806e-06 -0 0 -2.56197e-06 -0 0 -2.51704e-06 -0 0 -2.46332e-06 -0 0 -2.4009e-06 -0 0 -2.32993e-06 -0 0 -2.25062e-06 -0 0 -2.16323e-06 -0 0 -2.06805e-06 -0 0 -1.96544e-06 -0 0 -1.85577e-06 -0 0 -1.73945e-06 -0 0 -1.61691e-06 -0 0 -1.48862e-06 -0 0 -1.35504e-06 -0 0 -1.21668e-06 -0 0 -1.07404e-06 -0 0 -9.27643e-07 -0 0 -7.78006e-07 -0 0 -6.25662e-07 -0 0 -4.71149e-07 -0 0 -3.15006e-07 -0 0 -1.57775e-07 -0 0 0 -0 0 -2.58831e-06 3.19029e-08 0 -2.61699e-06 2.51954e-08 0 -2.63873e-06 1.80327e-08 0 -2.6531e-06 1.04595e-08 0 -2.6597e-06 2.52539e-09 0 -2.6582e-06 -5.71432e-09 0 -2.64832e-06 -1.42004e-08 0 -2.62983e-06 -2.28707e-08 0 -2.6026e-06 -3.16614e-08 0 -2.56652e-06 -4.05085e-08 0 -2.52158e-06 -4.93486e-08 0 -2.4678e-06 -5.81203e-08 0 -2.4053e-06 -6.67648e-08 0 -2.33422e-06 -7.52267e-08 0 -2.25478e-06 -8.34547e-08 0 -2.16723e-06 -9.14017e-08 0 -2.07189e-06 -9.90253e-08 0 -1.96908e-06 -1.06288e-07 0 -1.8592e-06 -1.13155e-07 0 -1.74265e-06 -1.19599e-07 0 -1.61988e-06 -1.25596e-07 0 -1.49134e-06 -1.31123e-07 0 -1.35751e-06 -1.36163e-07 0 -1.21889e-06 -1.40704e-07 0 -1.07598e-06 -1.44732e-07 0 -9.2931e-07 -1.48239e-07 0 -7.79398e-07 -1.51217e-07 0 -6.26779e-07 -1.53662e-07 0 -4.71988e-07 -1.55569e-07 0 -3.15566e-07 -1.56935e-07 0 -1.58055e-07 -1.57759e-07 0 0 -1.5804e-07 0 -2.59809e-06 6.42994e-08 0 -2.6275e-06 5.0848e-08 0 -2.6499e-06 3.64789e-08 0 -2.66486e-06 2.12824e-08 0 -2.67197e-06 5.35882e-09 0 -2.67089e-06 -1.11802e-08 0 -2.66133e-06 -2.82149e-08 0 -2.64308e-06 -4.56196e-08 0 -2.61598e-06 -6.32656e-08 0 -2.57994e-06 -8.10235e-08 0 -2.53494e-06 -9.87656e-08 0 -2.48102e-06 -1.16368e-07 0 -2.41828e-06 -1.33713e-07 0 -2.34689e-06 -1.50688e-07 0 -2.26705e-06 -1.67191e-07 0 -2.17904e-06 -1.83128e-07 0 -2.08317e-06 -1.98413e-07 0 -1.97979e-06 -2.12971e-07 0 -1.86929e-06 -2.26735e-07 0 -1.75208e-06 -2.39649e-07 0 -1.62861e-06 -2.51662e-07 0 -1.49934e-06 -2.62733e-07 0 -1.36476e-06 -2.72829e-07 0 -1.22537e-06 -2.8192e-07 0 -1.08168e-06 -2.89986e-07 0 -9.34214e-07 -2.97006e-07 0 -7.83497e-07 -3.02969e-07 0 -6.30065e-07 -3.07863e-07 0 -4.74457e-07 -3.1168e-07 0 -3.17214e-07 -3.14414e-07 0 -1.5888e-07 -3.16063e-07 0 0 -3.16624e-07 0 -2.61439e-06 9.7691e-08 0 -2.64501e-06 7.74223e-08 0 -2.66852e-06 5.57587e-08 0 -2.68447e-06 3.28377e-08 0 -2.69243e-06 8.81239e-09 0 -2.69206e-06 -1.61465e-08 0 -2.68305e-06 -4.18562e-08 0 -2.66519e-06 -6.81248e-08 0 -2.63831e-06 -9.47562e-08 0 -2.60234e-06 -1.21553e-07 0 -2.55724e-06 -1.48322e-07 0 -2.50306e-06 -1.74874e-07 0 -2.43992e-06 -2.01031e-07 0 -2.36799e-06 -2.26623e-07 0 -2.2875e-06 -2.51497e-07 0 -2.19872e-06 -2.75508e-07 0 -2.10197e-06 -2.98531e-07 0 -1.99763e-06 -3.20451e-07 0 -1.88608e-06 -3.41169e-07 0 -1.76777e-06 -3.606e-07 0 -1.64313e-06 -3.78672e-07 0 -1.51265e-06 -3.95322e-07 0 -1.37682e-06 -4.105e-07 0 -1.23615e-06 -4.24166e-07 0 -1.09116e-06 -4.36286e-07 0 -9.42366e-07 -4.46835e-07 0 -7.90309e-07 -4.55792e-07 0 -6.35526e-07 -4.63142e-07 0 -4.78559e-07 -4.68874e-07 0 -3.19951e-07 -4.72981e-07 0 -1.60249e-07 -4.75457e-07 0 0 -4.76299e-07 0 -2.63729e-06 1.32595e-07 0 -2.66963e-06 1.05398e-07 0 -2.69471e-06 7.6305e-08 0 -2.71206e-06 4.55049e-08 0 -2.72124e-06 1.32067e-08 0 -2.72186e-06 -2.03561e-08 0 -2.71363e-06 -5.49335e-08 0 -2.69632e-06 -9.02635e-08 0 -2.66976e-06 -1.26079e-07 0 -2.63386e-06 -1.6211e-07 0 -2.58861e-06 -1.98095e-07 0 -2.53407e-06 -2.33777e-07 0 -2.47036e-06 -2.68914e-07 0 -2.39767e-06 -3.03281e-07 0 -2.31623e-06 -3.36666e-07 0 -2.22636e-06 -3.68881e-07 0 -2.12837e-06 -3.99754e-07 0 -2.02267e-06 -4.29136e-07 0 -1.90965e-06 -4.56894e-07 0 -1.78977e-06 -4.82916e-07 0 -1.6635e-06 -5.07107e-07 0 -1.53131e-06 -5.29386e-07 0 -1.39373e-06 -5.49688e-07 0 -1.25126e-06 -5.67961e-07 0 -1.10443e-06 -5.84162e-07 0 -9.5378e-07 -5.98257e-07 0 -7.99845e-07 -6.10224e-07 0 -6.4317e-07 -6.20041e-07 0 -4.843e-07 -6.27697e-07 0 -3.23782e-07 -6.3318e-07 0 -1.62166e-07 -6.36486e-07 0 0 -6.3761e-07 0 -2.66691e-06 1.69555e-07 0 -2.7015e-06 1.35277e-07 0 -2.72865e-06 9.85712e-08 0 -2.74784e-06 5.96806e-08 0 -2.7586e-06 1.88754e-08 0 -2.76053e-06 -2.35429e-08 0 -2.75332e-06 -6.72515e-08 0 -2.73671e-06 -1.11912e-07 0 -2.71054e-06 -1.57181e-07 0 -2.67474e-06 -2.02712e-07 0 -2.62928e-06 -2.48169e-07 0 -2.57425e-06 -2.93225e-07 0 -2.50978e-06 -3.37572e-07 0 -2.43608e-06 -3.80922e-07 0 -2.35342e-06 -4.23011e-07 0 -2.2621e-06 -4.63599e-07 0 -2.1625e-06 -5.02475e-07 0 -2.05501e-06 -5.39449e-07 0 -1.94008e-06 -5.7436e-07 0 -1.81817e-06 -6.07068e-07 0 -1.68977e-06 -6.37458e-07 0 -1.55537e-06 -6.65431e-07 0 -1.41552e-06 -6.9091e-07 0 -1.27072e-06 -7.13832e-07 0 -1.12152e-06 -7.34145e-07 0 -9.68476e-07 -7.51814e-07 0 -8.1212e-07 -7.66808e-07 0 -6.53006e-07 -7.79106e-07 0 -4.91686e-07 -7.88694e-07 0 -3.2871e-07 -7.9556e-07 0 -1.64631e-07 -7.997e-07 0 0 -8.01107e-07 0 -2.70339e-06 2.09149e-07 0 -2.74081e-06 1.67594e-07 0 -2.77056e-06 1.23039e-07 0 -2.79205e-06 7.57845e-08 0 -2.80479e-06 2.61697e-08 0 -2.80836e-06 -2.54292e-08 0 -2.8024e-06 -7.86086e-08 0 -2.78666e-06 -1.32947e-07 0 -2.76098e-06 -1.88016e-07 0 -2.72527e-06 -2.43388e-07 0 -2.67954e-06 -2.98644e-07 0 -2.62388e-06 -3.53384e-07 0 -2.55845e-06 -4.07229e-07 0 -2.48348e-06 -4.59828e-07 0 -2.39926e-06 -5.1086e-07 0 -2.30614e-06 -5.60037e-07 0 -2.20451e-06 -6.07102e-07 0 -2.09481e-06 -6.51832e-07 0 -1.97749e-06 -6.94035e-07 0 -1.85306e-06 -7.33546e-07 0 -1.72202e-06 -7.70231e-07 0 -1.5849e-06 -8.03978e-07 0 -1.44224e-06 -8.34696e-07 0 -1.29458e-06 -8.62315e-07 0 -1.14247e-06 -8.8678e-07 0 -9.86477e-07 -9.08049e-07 0 -8.2715e-07 -9.26091e-07 0 -6.65048e-07 -9.40885e-07 0 -5.00726e-07 -9.52416e-07 0 -3.34741e-07 -9.60672e-07 0 -1.67648e-07 -9.65648e-07 0 0 -9.6734e-07 0 -2.74693e-06 2.51999e-07 0 -2.78782e-06 2.02926e-07 0 -2.82072e-06 1.50225e-07 0 -2.84503e-06 9.42662e-08 0 -2.86018e-06 3.54634e-08 0 -2.86572e-06 -2.57221e-08 0 -2.86127e-06 -8.87963e-08 0 -2.84658e-06 -1.53245e-07 0 -2.82146e-06 -2.18544e-07 0 -2.78584e-06 -2.84176e-07 0 -2.73975e-06 -3.49636e-07 0 -2.68329e-06 -4.1444e-07 0 -2.61666e-06 -4.78136e-07 0 -2.54012e-06 -5.40306e-07 0 -2.454e-06 -6.00572e-07 0 -2.35868e-06 -6.58593e-07 0 -2.2546e-06 -7.14073e-07 0 -2.14221e-06 -7.66751e-07 0 -2.02203e-06 -8.16408e-07 0 -1.89456e-06 -8.62859e-07 0 -1.76036e-06 -9.0595e-07 0 -1.61997e-06 -9.45559e-07 0 -1.47395e-06 -9.81587e-07 0 -1.32287e-06 -1.01396e-06 0 -1.1673e-06 -1.04262e-06 0 -1.00781e-06 -1.06752e-06 0 -8.44953e-07 -1.08863e-06 0 -6.79306e-07 -1.10593e-06 0 -5.11428e-07 -1.11942e-06 0 -3.41879e-07 -1.12907e-06 0 -1.71218e-07 -1.13488e-06 0 0 -1.13686e-06 0 -2.79777e-06 2.98789e-07 0 -2.84281e-06 2.41901e-07 0 -2.8795e-06 1.80694e-07 0 -2.90717e-06 1.15613e-07 0 -2.92519e-06 4.71585e-08 0 -2.93308e-06 -2.41107e-08 0 -2.93042e-06 -9.75976e-08 0 -2.91693e-06 -1.72682e-07 0 -2.89244e-06 -2.48735e-07 0 -2.85689e-06 -3.25136e-07 0 -2.81033e-06 -4.01284e-07 0 -2.75288e-06 -4.76607e-07 0 -2.68479e-06 -5.50574e-07 0 -2.60635e-06 -6.22697e-07 0 -2.51794e-06 -6.92536e-07 0 -2.41999e-06 -7.59701e-07 0 -2.31298e-06 -8.23853e-07 0 -2.19742e-06 -8.84701e-07 0 -2.07383e-06 -9.41997e-07 0 -1.9428e-06 -9.95539e-07 0 -1.80488e-06 -1.04516e-06 0 -1.66066e-06 -1.09073e-06 0 -1.51072e-06 -1.13214e-06 0 -1.35566e-06 -1.16932e-06 0 -1.19605e-06 -1.20222e-06 0 -1.03249e-06 -1.23078e-06 0 -8.65547e-07 -1.25498e-06 0 -6.95793e-07 -1.27481e-06 0 -5.23799e-07 -1.29025e-06 0 -3.50129e-07 -1.3013e-06 0 -1.75343e-07 -1.30796e-06 0 0 -1.31023e-06 0 -2.8562e-06 3.50273e-07 0 -2.90615e-06 2.85217e-07 0 -2.94733e-06 2.15067e-07 0 -2.97896e-06 1.40358e-07 0 -3.00037e-06 6.16908e-08 0 -3.01099e-06 -2.02633e-08 0 -3.01041e-06 -1.04788e-07 0 -2.9983e-06 -1.9114e-07 0 -2.97451e-06 -2.78571e-07 0 -2.93898e-06 -3.66346e-07 0 -2.8918e-06 -4.53757e-07 0 -2.83313e-06 -5.40135e-07 0 -2.76326e-06 -6.24863e-07 0 -2.68255e-06 -7.07379e-07 0 -2.59143e-06 -7.87182e-07 0 -2.49038e-06 -8.63833e-07 0 -2.37992e-06 -9.3695e-07 0 -2.26063e-06 -1.00621e-06 0 -2.13309e-06 -1.07135e-06 0 -1.99791e-06 -1.13215e-06 0 -1.85569e-06 -1.18843e-06 0 -1.70705e-06 -1.24006e-06 0 -1.55261e-06 -1.28694e-06 0 -1.39298e-06 -1.32899e-06 0 -1.22876e-06 -1.36615e-06 0 -1.06055e-06 -1.3984e-06 0 -8.88945e-07 -1.42571e-06 0 -7.14517e-07 -1.44807e-06 0 -5.37843e-07 -1.46548e-06 0 -3.59492e-07 -1.47794e-06 0 -1.80024e-07 -1.48544e-06 0 0 -1.48799e-06 0 -2.92254e-06 4.07297e-07 0 -2.97827e-06 3.33651e-07 0 -3.02471e-06 2.54037e-07 0 -3.06099e-06 1.69092e-07 0 -3.08634e-06 7.95366e-08 0 -3.10015e-06 -1.38241e-08 0 -3.10193e-06 -1.10133e-07 0 -3.09138e-06 -2.08507e-07 0 -3.06832e-06 -3.08058e-07 0 -3.03275e-06 -4.0792e-07 0 -2.98476e-06 -5.07265e-07 0 -2.92459e-06 -6.05319e-07 0 -2.85259e-06 -7.01372e-07 0 -2.76918e-06 -7.94785e-07 0 -2.67485e-06 -8.84994e-07 0 -2.57016e-06 -9.7151e-07 0 -2.4557e-06 -1.05391e-06 0 -2.3321e-06 -1.13186e-06 0 -2.2e-06 -1.20506e-06 0 -2.06005e-06 -1.27329e-06 0 -1.91292e-06 -1.33637e-06 0 -1.75925e-06 -1.39416e-06 0 -1.59969e-06 -1.44658e-06 0 -1.43489e-06 -1.49354e-06 0 -1.26546e-06 -1.53501e-06 0 -1.09201e-06 -1.57097e-06 0 -9.15159e-07 -1.6014e-06 0 -7.35483e-07 -1.6263e-06 0 -5.53563e-07 -1.64567e-06 0 -3.69968e-07 -1.65953e-06 0 -1.85262e-07 -1.66787e-06 0 0 -1.67071e-06 0 -2.99719e-06 4.70821e-07 0 -3.05968e-06 3.88085e-07 0 -3.11228e-06 2.98381e-07 0 -3.15396e-06 2.02472e-07 0 -3.18388e-06 1.01219e-07 0 -3.20134e-06 -4.41122e-09 0 -3.20582e-06 -1.13397e-07 0 -3.19698e-06 -2.24685e-07 0 -3.17468e-06 -3.37228e-07 0 -3.13893e-06 -4.50011e-07 0 -3.08991e-06 -5.62069e-07 0 -3.0279e-06 -6.72513e-07 0 -2.95334e-06 -7.80533e-07 0 -2.86672e-06 -8.85409e-07 0 -2.76863e-06 -9.86514e-07 0 -2.65971e-06 -1.08331e-06 0 -2.54062e-06 -1.17535e-06 0 -2.41206e-06 -1.26227e-06 0 -2.27474e-06 -1.34376e-06 0 -2.12938e-06 -1.41959e-06 0 -1.97668e-06 -1.4896e-06 0 -1.81733e-06 -1.55366e-06 0 -1.65202e-06 -1.61167e-06 0 -1.48141e-06 -1.66359e-06 0 -1.30615e-06 -1.7094e-06 0 -1.12688e-06 -1.74907e-06 0 -9.44189e-07 -1.78262e-06 0 -7.58688e-07 -1.81005e-06 0 -5.70954e-07 -1.83139e-06 0 -3.81556e-07 -1.84664e-06 0 -1.91053e-07 -1.85582e-06 0 0 -1.85894e-06 0 -3.08063e-06 5.41943e-07 0 -3.15101e-06 4.49524e-07 0 -3.21077e-06 3.48985e-07 0 -3.25873e-06 2.41237e-07 0 -3.29392e-06 1.27318e-07 0 -3.31554e-06 8.38526e-09 0 -3.32304e-06 -1.14336e-07 0 -3.31607e-06 -2.39595e-07 0 -3.29451e-06 -3.66154e-07 0 -3.25842e-06 -4.92826e-07 0 -3.20805e-06 -6.18495e-07 0 -3.14378e-06 -7.42141e-07 0 -3.06614e-06 -8.6285e-07 0 -2.97574e-06 -9.79819e-07 0 -2.87325e-06 -1.09236e-06 0 -2.75941e-06 -1.19989e-06 0 -2.63499e-06 -1.30194e-06 0 -2.50077e-06 -1.39811e-06 0 -2.35753e-06 -1.48812e-06 0 -2.20604e-06 -1.57174e-06 0 -2.04707e-06 -1.6488e-06 0 -1.88136e-06 -1.7192e-06 0 -1.70963e-06 -1.78287e-06 0 -1.53258e-06 -1.83978e-06 0 -1.35087e-06 -1.88992e-06 0 -1.16514e-06 -1.93331e-06 0 -9.76029e-07 -1.96996e-06 0 -7.84122e-07 -1.99991e-06 0 -5.90006e-07 -2.02319e-06 0 -3.94244e-07 -2.03982e-06 0 -1.97394e-07 -2.04983e-06 0 0 -2.05324e-06 0 -3.17339e-06 6.21935e-07 0 -3.25299e-06 5.19131e-07 0 -3.32108e-06 4.06861e-07 0 -3.37631e-06 2.86224e-07 0 -3.41754e-06 1.58473e-07 0 -3.44389e-06 2.50034e-08 0 -3.45475e-06 -1.12715e-07 0 -3.44978e-06 -2.53191e-07 0 -3.42888e-06 -3.94965e-07 0 -3.3922e-06 -5.36648e-07 0 -3.34009e-06 -6.76954e-07 0 -3.27305e-06 -8.14721e-07 0 -3.19172e-06 -9.48924e-07 0 -3.09684e-06 -1.07868e-06 0 -2.98922e-06 -1.20323e-06 0 -2.8697e-06 -1.32198e-06 0 -2.73917e-06 -1.43441e-06 0 -2.59849e-06 -1.54015e-06 0 -2.44854e-06 -1.6389e-06 0 -2.29017e-06 -1.73045e-06 0 -2.12419e-06 -1.81468e-06 0 -1.9514e-06 -1.89148e-06 0 -1.77256e-06 -1.96084e-06 0 -1.58839e-06 -2.02274e-06 0 -1.39958e-06 -2.07721e-06 0 -1.2068e-06 -2.12428e-06 0 -1.01065e-06 -2.16401e-06 0 -8.11762e-07 -2.19645e-06 0 -6.10698e-07 -2.22164e-06 0 -4.0802e-07 -2.23963e-06 0 -2.04276e-07 -2.25046e-06 0 0 -2.25414e-06 0 -3.27614e-06 7.1229e-07 0 -3.36648e-06 5.9826e-07 0 -3.44427e-06 4.73183e-07 0 -3.50791e-06 3.38387e-07 0 -3.55608e-06 1.95397e-07 0 -3.58778e-06 4.59073e-08 0 -3.60234e-06 -1.08311e-07 0 -3.59944e-06 -2.65477e-07 0 -3.57906e-06 -4.23864e-07 0 -3.54144e-06 -5.81853e-07 0 -3.48707e-06 -7.37965e-07 0 -3.41661e-06 -8.90884e-07 0 -3.33084e-06 -1.03947e-06 0 -3.23068e-06 -1.18276e-06 0 -3.11707e-06 -1.31995e-06 0 -2.991e-06 -1.45039e-06 0 -2.85348e-06 -1.5736e-06 0 -2.70548e-06 -1.68919e-06 0 -2.54798e-06 -1.79689e-06 0 -2.38189e-06 -1.89652e-06 0 -2.20811e-06 -1.98798e-06 0 -2.02749e-06 -2.07123e-06 0 -1.84081e-06 -2.14627e-06 0 -1.64883e-06 -2.21314e-06 0 -1.45227e-06 -2.27189e-06 0 -1.25179e-06 -2.32261e-06 0 -1.04802e-06 -2.36536e-06 0 -8.41569e-07 -2.40023e-06 0 -6.32998e-07 -2.4273e-06 0 -4.2286e-07 -2.44662e-06 0 -2.11687e-07 -2.45824e-06 0 0 -2.46218e-06 0 -3.38962e-06 8.14771e-07 0 -3.49255e-06 6.8851e-07 0 -3.58166e-06 5.49316e-07 0 -3.65503e-06 3.98816e-07 0 -3.71113e-06 2.38881e-07 0 -3.74883e-06 7.15814e-08 0 -3.76742e-06 -1.00935e-07 0 -3.76662e-06 -2.76531e-07 0 -3.7465e-06 -4.53165e-07 0 -3.70746e-06 -6.28948e-07 0 -3.65016e-06 -8.02188e-07 0 -3.57547e-06 -9.71405e-07 0 -3.48437e-06 -1.13534e-06 0 -3.37796e-06 -1.29296e-06 0 -3.25737e-06 -1.44343e-06 0 -3.12375e-06 -1.58608e-06 0 -2.97824e-06 -1.72043e-06 0 -2.82196e-06 -1.84614e-06 0 -2.65597e-06 -1.96296e-06 0 -2.48129e-06 -2.07077e-06 0 -2.29887e-06 -2.16952e-06 0 -2.1096e-06 -2.25921e-06 0 -1.91434e-06 -2.33989e-06 0 -1.71385e-06 -2.41166e-06 0 -1.50887e-06 -2.47463e-06 0 -1.30007e-06 -2.5289e-06 0 -1.08807e-06 -2.5746e-06 0 -8.73485e-07 -2.61183e-06 0 -6.56861e-07 -2.64071e-06 0 -4.38732e-07 -2.66131e-06 0 -2.19612e-07 -2.67369e-06 0 0 -2.67789e-06 0 -3.51476e-06 9.31496e-07 0 -3.63248e-06 7.91784e-07 0 -3.73482e-06 6.3687e-07 0 -3.81948e-06 4.68768e-07 0 -3.88464e-06 2.89799e-07 0 -3.92905e-06 1.02517e-07 0 -3.95195e-06 -9.04536e-08 0 -3.95315e-06 -2.86541e-07 0 -3.93287e-06 -4.83323e-07 0 -3.89174e-06 -6.78607e-07 0 -3.83066e-06 -8.7046e-07 0 -3.75073e-06 -1.05724e-06 0 -3.65321e-06 -1.23757e-06 0 -3.53941e-06 -1.41036e-06 0 -3.41068e-06 -1.57475e-06 0 -3.26837e-06 -1.7301e-06 0 -3.11377e-06 -1.87595e-06 0 -2.94814e-06 -2.012e-06 0 -2.77265e-06 -2.13807e-06 0 -2.58841e-06 -2.25411e-06 0 -2.39645e-06 -2.36013e-06 0 -2.19771e-06 -2.4562e-06 0 -1.99308e-06 -2.54244e-06 0 -1.78335e-06 -2.61901e-06 0 -1.56927e-06 -2.68606e-06 0 -1.35152e-06 -2.74377e-06 0 -1.13071e-06 -2.79229e-06 0 -9.07432e-07 -2.83179e-06 0 -6.82222e-07 -2.8624e-06 0 -4.55592e-07 -2.88421e-06 0 -2.28028e-07 -2.89732e-06 0 0 -2.90177e-06 0 -3.65264e-06 1.06503e-06 0 -3.78784e-06 9.10376e-07 0 -3.90571e-06 7.37753e-07 0 -4.00348e-06 5.49692e-07 0 -4.07899e-06 3.4911e-07 0 -4.13081e-06 1.39191e-07 0 -4.15823e-06 -7.68345e-08 0 -4.16118e-06 -2.95854e-07 0 -4.14013e-06 -5.14999e-07 0 -4.096e-06 -7.31724e-07 0 -4.03e-06 -9.43845e-07 0 -3.94359e-06 -1.14955e-06 0 -3.83831e-06 -1.34738e-06 0 -3.71576e-06 -1.5362e-06 0 -3.57756e-06 -1.71515e-06 0 -3.42524e-06 -1.88365e-06 0 -3.26031e-06 -2.04129e-06 0 -3.08414e-06 -2.18785e-06 0 -2.89805e-06 -2.32325e-06 0 -2.70323e-06 -2.44749e-06 0 -2.50078e-06 -2.5607e-06 0 -2.2917e-06 -2.66303e-06 0 -2.0769e-06 -2.75468e-06 0 -1.8572e-06 -2.83587e-06 0 -1.63334e-06 -2.90684e-06 0 -1.40601e-06 -2.96782e-06 0 -1.17581e-06 -3.01903e-06 0 -9.43302e-07 -3.06065e-06 0 -7.08999e-07 -3.09288e-06 0 -4.73383e-07 -3.11583e-06 0 -2.36905e-07 -3.12961e-06 0 0 -3.13429e-06 0 -3.80458e-06 1.21854e-06 0 -3.96057e-06 1.04709e-06 0 -4.09679e-06 8.54251e-07 0 -4.20982e-06 6.43263e-07 0 -4.2971e-06 4.17846e-07 0 -4.35706e-06 1.82021e-07 0 -4.38905e-06 -6.02061e-08 0 -4.39325e-06 -3.05055e-07 0 -4.37049e-06 -5.49126e-07 0 -4.32211e-06 -7.89487e-07 0 -4.24976e-06 -1.0237e-06 0 -4.15529e-06 -1.24979e-06 0 -4.04064e-06 -1.46625e-06 0 -3.90776e-06 -1.67194e-06 0 -3.75852e-06 -1.86606e-06 0 -3.59472e-06 -2.0481e-06 0 -3.41805e-06 -2.21775e-06 0 -3.23005e-06 -2.3749e-06 0 -3.03216e-06 -2.51959e-06 0 -2.82566e-06 -2.65194e-06 0 -2.61172e-06 -2.77217e-06 0 -2.39139e-06 -2.88055e-06 0 -2.16559e-06 -2.97738e-06 0 -1.93518e-06 -3.06296e-06 0 -1.70088e-06 -3.13762e-06 0 -1.46336e-06 -3.20165e-06 0 -1.22321e-06 -3.25533e-06 0 -9.80958e-07 -3.29892e-06 0 -7.37085e-07 -3.33262e-06 0 -4.92031e-07 -3.35661e-06 0 -2.46206e-07 -3.37101e-06 0 0 -3.3759e-06 0 -3.97223e-06 1.39598e-06 0 -4.15316e-06 1.20538e-06 0 -4.31118e-06 9.89124e-07 0 -4.44201e-06 7.51413e-07 0 -4.54263e-06 4.97091e-07 0 -4.61136e-06 2.31297e-07 0 -4.64772e-06 -4.09542e-08 0 -4.65231e-06 -3.15061e-07 0 -4.6265e-06 -5.87013e-07 0 -4.57219e-06 -8.53461e-07 0 -4.49162e-06 -1.11172e-06 0 -4.38715e-06 -1.35973e-06 0 -4.26119e-06 -1.59595e-06 0 -4.11607e-06 -1.8193e-06 0 -3.954e-06 -2.02911e-06 0 -3.77703e-06 -2.22497e-06 0 -3.58707e-06 -2.40674e-06 0 -3.38583e-06 -2.57445e-06 0 -3.17484e-06 -2.72828e-06 0 -2.9555e-06 -2.86852e-06 0 -2.72903e-06 -2.99551e-06 0 -2.49651e-06 -3.10964e-06 0 -2.2589e-06 -3.21132e-06 0 -2.01703e-06 -3.30098e-06 0 -1.77162e-06 -3.37902e-06 0 -1.52333e-06 -3.44583e-06 0 -1.2727e-06 -3.50174e-06 0 -1.02023e-06 -3.54707e-06 0 -7.66347e-07 -3.58208e-06 0 -5.11447e-07 -3.60698e-06 0 -2.55886e-07 -3.62192e-06 0 0 -3.62699e-06 0 -4.15759e-06 1.60237e-06 0 -4.36878e-06 1.38962e-06 0 -4.55289e-06 1.14573e-06 0 -4.70456e-06 8.76356e-07 0 -4.82021e-06 5.8791e-07 0 -4.89812e-06 2.87062e-07 0 -4.93823e-06 -1.98687e-08 0 -4.94181e-06 -3.2728e-07 0 -4.91101e-06 -6.30476e-07 0 -4.84853e-06 -9.25704e-07 0 -4.75734e-06 -1.21009e-06 0 -4.64047e-06 -1.48153e-06 0 -4.50086e-06 -1.73857e-06 0 -4.34129e-06 -1.98028e-06 0 -4.16432e-06 -2.20615e-06 0 -3.97231e-06 -2.41598e-06 0 -3.76734e-06 -2.60982e-06 0 -3.55131e-06 -2.7879e-06 0 -3.32585e-06 -2.9506e-06 0 -3.09245e-06 -3.09837e-06 0 -2.85236e-06 -3.23171e-06 0 -2.60671e-06 -3.35117e-06 0 -2.35644e-06 -3.4573e-06 0 -2.10239e-06 -3.55063e-06 0 -1.84525e-06 -3.63166e-06 0 -1.58562e-06 -3.70089e-06 0 -1.32403e-06 -3.75872e-06 0 -1.0609e-06 -3.80554e-06 0 -7.96623e-07 -3.84165e-06 0 -5.31521e-07 -3.86731e-06 0 -2.6589e-07 -3.88269e-06 0 0 -3.88791e-06 0 -4.36333e-06 1.84428e-06 0 -4.61162e-06 1.60534e-06 0 -4.82726e-06 1.32819e-06 0 -5.00335e-06 1.02058e-06 0 -5.13569e-06 6.91226e-07 0 -5.22279e-06 3.48908e-07 0 -5.26536e-06 1.63506e-09 0 -5.26571e-06 -3.4381e-07 0 -5.22717e-06 -6.82019e-07 0 -5.15352e-06 -1.0089e-06 0 -5.04868e-06 -1.3215e-06 0 -4.91646e-06 -1.61782e-06 0 -4.76042e-06 -1.89661e-06 0 -4.58384e-06 -2.15718e-06 0 -4.38965e-06 -2.39929e-06 0 -4.18048e-06 -2.62302e-06 0 -3.95865e-06 -2.82869e-06 0 -3.72616e-06 -3.01678e-06 0 -3.48478e-06 -3.18788e-06 0 -3.23604e-06 -3.34265e-06 0 -2.98124e-06 -3.48181e-06 0 -2.7215e-06 -3.60605e-06 0 -2.45776e-06 -3.71608e-06 0 -2.19082e-06 -3.81256e-06 0 -1.92134e-06 -3.89612e-06 0 -1.64987e-06 -3.96733e-06 0 -1.37688e-06 -4.02671e-06 0 -1.10272e-06 -4.0747e-06 0 -8.27717e-07 -4.11167e-06 0 -5.5212e-07 -4.13791e-06 0 -2.7615e-07 -4.15363e-06 0 0 -4.15896e-06 0 -4.5927e-06 2.1304e-06 0 -4.88741e-06 1.8598e-06 0 -5.14151e-06 1.54157e-06 0 -5.34617e-06 1.18679e-06 0 -5.49666e-06 8.07565e-07 0 -5.59213e-06 4.15647e-07 0 -5.63474e-06 2.11827e-08 0 -5.6285e-06 -3.6773e-07 0 -5.57839e-06 -7.45045e-07 0 -5.48964e-06 -1.10651e-06 0 -5.36733e-06 -1.44931e-06 0 -5.21618e-06 -1.77175e-06 0 -5.04045e-06 -2.07294e-06 0 -4.84392e-06 -2.3526e-06 0 -4.6299e-06 -2.61086e-06 0 -4.40128e-06 -2.84817e-06 0 -4.16055e-06 -3.06517e-06 0 -3.90986e-06 -3.26266e-06 0 -3.65104e-06 -3.44149e-06 0 -3.38566e-06 -3.60257e-06 0 -3.11504e-06 -3.74682e-06 0 -2.84027e-06 -3.87514e-06 0 -2.56226e-06 -3.9884e-06 0 -2.28177e-06 -4.0874e-06 0 -1.99941e-06 -4.17291e-06 0 -1.71565e-06 -4.2456e-06 0 -1.43087e-06 -4.30609e-06 0 -1.14538e-06 -4.35488e-06 0 -8.59398e-07 -4.39241e-06 0 -5.73091e-07 -4.41902e-06 0 -2.8659e-07 -4.43495e-06 0 0 -4.44035e-06 0 -4.85073e-06 2.47272e-06 0 -5.20409e-06 2.16261e-06 0 -5.50572e-06 1.79211e-06 0 -5.74362e-06 1.37764e-06 0 -5.91292e-06 9.36577e-07 0 -6.01447e-06 4.84759e-07 0 -6.05297e-06 3.49479e-08 0 -6.0351e-06 -4.03478e-07 0 -5.96814e-06 -8.24128e-07 0 -5.85919e-06 -1.22295e-06 0 -5.71469e-06 -1.59763e-06 0 -5.54037e-06 -1.94704e-06 0 -5.34119e-06 -2.2709e-06 0 -5.1214e-06 -2.56948e-06 0 -4.88468e-06 -2.84344e-06 0 -4.63411e-06 -3.09366e-06 0 -4.37236e-06 -3.32121e-06 0 -4.10164e-06 -3.52722e-06 0 -3.82383e-06 -3.71287e-06 0 -3.5405e-06 -3.87933e-06 0 -3.25296e-06 -4.02777e-06 0 -2.96225e-06 -4.1593e-06 0 -2.66923e-06 -4.27496e-06 0 -2.37459e-06 -4.37573e-06 0 -2.07886e-06 -4.4625e-06 0 -1.78243e-06 -4.53607e-06 0 -1.48558e-06 -4.59714e-06 0 -1.18853e-06 -4.64631e-06 0 -8.91399e-07 -4.68406e-06 0 -5.94252e-07 -4.7108e-06 0 -2.97119e-07 -4.72679e-06 0 0 -4.7322e-06 0 -5.14271e-06 2.88836e-06 0 -5.57372e-06 2.52695e-06 0 -5.93442e-06 2.08735e-06 0 -6.2103e-06 1.59523e-06 0 -6.3973e-06 1.07611e-06 0 -6.49996e-06 5.51494e-07 0 -6.52749e-06 3.69491e-08 0 -6.4906e-06 -4.5733e-07 0 -6.39971e-06 -9.25295e-07 0 -6.26409e-06 -1.36375e-06 0 -6.09172e-06 -1.77137e-06 0 -5.88929e-06 -2.148e-06 0 -5.6624e-06 -2.49422e-06 0 -5.41574e-06 -2.81106e-06 0 -5.15321e-06 -3.09979e-06 0 -4.87808e-06 -3.36187e-06 0 -4.59308e-06 -3.59881e-06 0 -4.30046e-06 -3.81216e-06 0 -4.0021e-06 -4.00343e-06 0 -3.69954e-06 -4.17412e-06 0 -3.39401e-06 -4.32563e-06 0 -3.08651e-06 -4.45931e-06 0 -2.77781e-06 -4.5764e-06 0 -2.4685e-06 -4.67805e-06 0 -2.159e-06 -4.76529e-06 0 -1.84961e-06 -4.83903e-06 0 -1.5405e-06 -4.90008e-06 0 -1.23176e-06 -4.94912e-06 0 -9.23412e-07 -4.98672e-06 0 -6.15398e-07 -5.0133e-06 0 -3.07634e-07 -5.02919e-06 0 0 -5.03457e-06 0 -5.48191e-06 3.40228e-06 0 -6.01381e-06 2.9712e-06 0 -6.44949e-06 2.43606e-06 0 -6.76682e-06 1.83953e-06 0 -6.96634e-06 1.22053e-06 0 -7.06051e-06 6.0746e-07 0 -7.06616e-06 1.81186e-08 0 -6.9998e-06 -5.37923e-07 0 -6.87569e-06 -1.05627e-06 0 -6.7055e-06 -1.53559e-06 0 -6.49859e-06 -1.97625e-06 0 -6.2625e-06 -2.37948e-06 0 -6.00327e-06 -2.74701e-06 0 -5.72585e-06 -3.08079e-06 0 -5.43427e-06 -3.38284e-06 0 -5.13187e-06 -3.65525e-06 0 -4.82136e-06 -3.90003e-06 0 -4.50499e-06 -4.11918e-06 0 -4.18455e-06 -4.31459e-06 0 -3.86152e-06 -4.48807e-06 0 -3.53703e-06 -4.64132e-06 0 -3.21197e-06 -4.7759e-06 0 -2.887e-06 -4.89328e-06 0 -2.56258e-06 -4.99476e-06 0 -2.23903e-06 -5.08154e-06 0 -1.9165e-06 -5.15465e-06 0 -1.59504e-06 -5.21501e-06 0 -1.27461e-06 -5.26337e-06 0 -9.55086e-07 -5.30037e-06 0 -6.36296e-07 -5.32649e-06 0 -3.18017e-07 -5.34208e-06 0 0 -5.34736e-06 0 -5.87294e-06 4.05719e-06 0 -6.55662e-06 3.52214e-06 0 -7.08514e-06 2.84633e-06 0 -7.44232e-06 2.10538e-06 0 -7.64088e-06 1.3575e-06 0 -7.70913e-06 6.38608e-07 0 -7.67625e-06 -3.48009e-08 0 -7.56621e-06 -6.56686e-07 0 -7.39732e-06 -1.22657e-06 0 -7.18329e-06 -1.74629e-06 0 -6.93443e-06 -2.21866e-06 0 -6.65866e-06 -2.64674e-06 0 -6.3622e-06 -3.03362e-06 0 -6.05001e-06 -3.38228e-06 0 -5.72609e-06 -3.69558e-06 0 -5.3937e-06 -3.97626e-06 0 -5.05548e-06 -4.2269e-06 0 -4.71354e-06 -4.44994e-06 0 -4.36958e-06 -4.64768e-06 0 -4.02493e-06 -4.82225e-06 0 -3.6806e-06 -4.97564e-06 0 -3.33732e-06 -5.10968e-06 0 -2.99562e-06 -5.22602e-06 0 -2.65581e-06 -5.32616e-06 0 -2.31803e-06 -5.41143e-06 0 -1.98232e-06 -5.48301e-06 0 -1.64855e-06 -5.5419e-06 0 -1.31654e-06 -5.58896e-06 0 -9.8603e-07 -5.62487e-06 0 -6.56684e-07 -5.65018e-06 0 -3.28138e-07 -5.66527e-06 0 0 -5.67037e-06 0 -6.37436e-06 4.91539e-06 0 -7.25127e-06 4.21788e-06 0 -7.89691e-06 3.32203e-06 0 -8.27791e-06 2.37395e-06 0 -8.44479e-06 1.46321e-06 0 -8.45767e-06 6.22499e-07 0 -8.36238e-06 -1.40017e-07 0 -8.19065e-06 -8.27911e-07 0 -7.96356e-06 -1.44723e-06 0 -7.69555e-06 -2.00448e-06 0 -7.39692e-06 -2.50544e-06 0 -7.07534e-06 -2.95526e-06 0 -6.73674e-06 -3.35847e-06 0 -6.38581e-06 -3.71914e-06 0 -6.02633e-06 -4.04096e-06 0 -5.66133e-06 -4.32732e-06 0 -5.29328e-06 -4.58137e-06 0 -4.92409e-06 -4.806e-06 0 -4.55529e-06 -5.00391e-06 0 -4.18802e-06 -5.17759e-06 0 -3.8231e-06 -5.32931e-06 0 -3.46111e-06 -5.46113e-06 0 -3.10236e-06 -5.57493e-06 0 -2.747e-06 -5.67239e-06 0 -2.39499e-06 -5.75499e-06 0 -2.04619e-06 -5.82402e-06 0 -1.70031e-06 -5.8806e-06 0 -1.35699e-06 -5.92566e-06 0 -1.01581e-06 -5.95995e-06 0 -6.76273e-07 -5.98407e-06 0 -3.37854e-07 -5.99843e-06 0 0 -6.00328e-06 0 -6.94441e-06 6.14243e-06 0 -8.2213e-06 5.11748e-06 0 -8.98198e-06 3.83519e-06 0 -9.32522e-06 2.60009e-06 0 -9.40011e-06 1.49365e-06 0 -9.31162e-06 5.27127e-07 0 -9.12335e-06 -3.20667e-07 0 -8.86946e-06 -1.06777e-06 0 -8.57014e-06 -1.73006e-06 0 -8.2381e-06 -2.31892e-06 0 -7.88216e-06 -2.84336e-06 0 -7.50892e-06 -3.31039e-06 0 -7.12352e-06 -3.72588e-06 0 -6.73011e-06 -4.09487e-06 0 -6.33204e-06 -4.4218e-06 0 -5.93201e-06 -4.7107e-06 0 -5.53219e-06 -4.96523e-06 0 -5.13425e-06 -5.18876e-06 0 -4.73947e-06 -5.38437e-06 0 -4.34875e-06 -5.55487e-06 0 -3.9627e-06 -5.70283e-06 0 -3.58165e-06 -5.83056e-06 0 -3.20572e-06 -5.94015e-06 0 -2.83483e-06 -6.03344e-06 0 -2.46876e-06 -6.11207e-06 0 -2.10714e-06 -6.17745e-06 0 -1.74951e-06 -6.23078e-06 0 -1.39532e-06 -6.27309e-06 0 -1.04395e-06 -6.30518e-06 0 -6.94749e-07 -6.32769e-06 0 -3.47007e-07 -6.34106e-06 0 0 -6.34558e-06 0 -7.99436e-06 7.98979e-06 0 -9.68703e-06 6.24194e-06 0 -1.04799e-05 4.28906e-06 0 -1.06354e-05 2.67549e-06 0 -1.05092e-05 1.38507e-06 0 -1.02618e-05 3.10873e-07 0 -9.94782e-06 -6.00878e-07 0 -9.59283e-06 -1.39245e-06 0 -9.20902e-06 -2.08593e-06 0 -8.80432e-06 -2.69772e-06 0 -8.3846e-06 -3.23859e-06 0 -7.95458e-06 -3.71703e-06 0 -7.51828e-06 -4.13979e-06 0 -7.07905e-06 -4.51264e-06 0 -6.63968e-06 -4.84066e-06 0 -6.20247e-06 -5.12842e-06 0 -5.76921e-06 -5.38008e-06 0 -5.34126e-06 -5.59942e-06 0 -4.9196e-06 -5.7899e-06 0 -4.50484e-06 -5.95466e-06 0 -4.09731e-06 -6.09654e-06 0 -3.6971e-06 -6.2181e-06 0 -3.30406e-06 -6.32162e-06 0 -2.91788e-06 -6.40912e-06 0 -2.53809e-06 -6.48237e-06 0 -2.16412e-06 -6.54288e-06 0 -1.79528e-06 -6.59196e-06 0 -1.43082e-06 -6.6307e-06 0 -1.06994e-06 -6.65995e-06 0 -7.1177e-07 -6.68041e-06 0 -3.55426e-07 -6.69254e-06 0 0 -6.69663e-06 0 -9.16602e-06 1.17661e-05 0 -1.24011e-05 7.36757e-06 0 -1.26056e-05 4.25948e-06 0 -1.21785e-05 2.46157e-06 0 -1.17344e-05 1.04719e-06 0 -1.12732e-05 -5.76942e-08 0 -1.0813e-05 -1.00267e-06 0 -1.03448e-05 -1.81314e-06 0 -9.86883e-06 -2.52352e-06 0 -9.3857e-06 -3.14703e-06 0 -8.89741e-06 -3.6962e-06 0 -8.40665e-06 -4.17928e-06 0 -7.91605e-06 -4.60358e-06 0 -7.42818e-06 -4.97522e-06 0 -6.94524e-06 -5.29977e-06 0 -6.46905e-06 -5.58224e-06 0 -6.00099e-06 -5.82723e-06 0 -5.54205e-06 -6.03891e-06 0 -5.09287e-06 -6.22111e-06 0 -4.65373e-06 -6.37728e-06 0 -4.22466e-06 -6.51053e-06 0 -3.80542e-06 -6.62364e-06 0 -3.39558e-06 -6.71907e-06 0 -2.99456e-06 -6.79901e-06 0 -2.60164e-06 -6.86534e-06 0 -2.21599e-06 -6.91969e-06 0 -1.8367e-06 -6.96345e-06 0 -1.46278e-06 -6.99774e-06 0 -1.09323e-06 -7.0235e-06 0 -7.26976e-07 -7.04142e-06 0 -3.62933e-07 -7.05202e-06 0 0 -7.05559e-06 0 -1.70973e-05 1.87038e-05 0 -1.78228e-05 4.88243e-06 0 -1.4751e-05 3.80413e-06 0 -1.38124e-05 1.61955e-06 0 -1.29366e-05 5.24952e-07 0 -1.22955e-05 -6.22698e-07 0 -1.16839e-05 -1.52042e-06 0 -1.11056e-05 -2.33889e-06 0 -1.05361e-05 -3.04518e-06 0 -9.97224e-06 -3.6713e-06 0 -9.41281e-06 -4.2195e-06 0 -8.85845e-06 -4.7004e-06 0 -8.31104e-06 -5.11996e-06 0 -7.7723e-06 -5.4849e-06 0 -7.24399e-06 -5.80093e-06 0 -6.72741e-06 -6.07352e-06 0 -6.22357e-06 -6.30763e-06 0 -5.73304e-06 -6.50785e-06 0 -5.25605e-06 -6.67831e-06 0 -4.79254e-06 -6.82277e-06 0 -4.34214e-06 -6.9446e-06 0 -3.9043e-06 -7.04678e-06 0 -3.47827e-06 -7.13196e-06 0 -3.06314e-06 -7.20245e-06 0 -2.65792e-06 -7.26024e-06 0 -2.2615e-06 -7.30706e-06 0 -1.87273e-06 -7.34434e-06 0 -1.49038e-06 -7.37328e-06 0 -1.11322e-06 -7.39483e-06 0 -7.3997e-07 -7.40973e-06 0 -3.6933e-07 -7.4185e-06 0 0 -7.42144e-06 0 </DataArray> 
</PointData> 
<Points> 
<DataArray type="Float32" NumberOfComponents="3"> 