<?xml version="1.0"?> 
<VTKFile type="StructuredGrid" version="0.1"> 
<StructuredGrid WholeExtent="0 31 0 31 0 0"> 
<Piece Extent="0 31 0 31 0 0"> 
<PointData>
<DataArray type="Float32" Name="B" format="ascii" NumberOfComponents="3"> 
0 0.000116815 0 -3.19023e-09 0.000116555 0 -7.64578e-09 0.000115706 0 -5.30646e-09 0.00011405 0 -1.39458e-08 0.000111281 0 2.30306e-09 0.000107133 0 1.46447e-08 0.000101473 0 1.2917e-08 9.43904e-05 0 1.30547e-08 8.61418e-05 0 1.14273e-08 7.70635e-05 0 9.59591e-09 6.74733e-05 0 7.76681e-09 5.7622e-05 0 6.34357e-09 4.76827e-05 0 5.27696e-09 3.776e-05 0 4.58977e-09 2.79066e-05 0 4.2249e-09 1.814e-05 0 4.15803e-09 8.45787e-06 0 4.40451e-09 -1.14847e-06 0 4.92659e-09 -1.06813e-05 0 5.87172e-09 -2.01233e-05 0 6.99405e-09 -2.94228e-05 0 8.70428e-09 -3.84801e-05 0 9.96489e-09 -4.71269e-05 0 1.08529e-08 -5.51398e-05 0 1.20056e-08 -6.22048e-05 0 1.38846e-09 -6.81256e-05 0 2.76566e-08 -7.25344e-05 0 -1.43146e-07 -7.61759e-05 0 3.31246e-07 -7.78999e-05 0 -1.3342e-06 -8.38766e-05 0 3.05959e-06 -8.42829e-05 0 -6.97879e-05 -0.000160244 0 0 0.000117054 0 -5.11572e-07 0.000116836 0 -1.17788e-06 0.000116102 0 -2.12941e-06 0.000114605 0 -3.3839e-06 0.00011198 0 -4.90346e-06 0.000107917 0 -6.4478e-06 0.000102204 0 -7.77976e-06 9.49815e-05 0 -8.78839e-06 8.6559e-05 0 -9.44841e-06 7.73166e-05 0 -9.81508e-06 6.75997e-05 0 -9.96908e-06 5.7662e-05 0 -9.98765e-06 4.76712e-05 0 -9.93207e-06 3.77231e-05 0 -9.84591e-06 2.78619e-05 0 -9.75632e-06 1.80973e-05 0 -9.67618e-06 8.42044e-06 0 -9.60544e-06 -1.18387e-06 0 -9.53117e-06 -1.07245e-05 0 -9.4268e-06 -2.01912e-05 0 -9.25025e-06 -2.95407e-05 0 -8.94366e-06 -3.86796e-05 0 -8.43581e-06 -4.74474e-05 0 -7.65733e-06 -5.5602e-05 0 -6.57338e-06 -6.28311e-05 0 -5.24091e-06 -6.87856e-05 0 -3.85718e-06 -7.32953e-05 0 -2.73379e-06 -7.62365e-05 0 -2.66229e-06 -7.85098e-05 0 -3.93099e-06 -7.98369e-05 0 -1.22268e-05 -8.44528e-05 0 -2.2461e-05 -7.60497e-05 0 0 0.000117686 0 -8.55592e-07 0.000117598 0 -2.06037e-06 0.000117238 0 -3.89244e-06 0.000116263 0 -6.53995e-06 0.000114185 0 -9.70957e-06 0.000110311 0 -1.297e-05 0.000104496 0 -1.57909e-05 9.68003e-05 0 -1.78178e-05 8.77885e-05 0 -1.90717e-05 7.80345e-05 0 -1.97166e-05 6.79334e-05 0 -1.9944e-05 5.77443e-05 0 -1.99182e-05 4.76087e-05 0 -1.97629e-05 3.75938e-05 0 -1.95632e-05 2.77171e-05 0 -1.9371e-05 1.79659e-05 0 -1.92108e-05 8.31142e-06 0 -1.90822e-05 -1.27991e-06 0 -1.89605e-05 -1.08361e-05 0 -1.87942e-05 -2.03687e-05 0 -1.85009e-05 -2.9859e-05 0 -1.79621e-05 -3.92394e-05 0 -1.70241e-05 -4.83695e-05 0 -1.55142e-05 -5.69963e-05 0 -1.33012e-05 -6.47347e-05 0 -1.04227e-05 -7.10379e-05 0 -7.33032e-06 -7.53633e-05 0 -4.76373e-06 -7.77356e-05 0 -3.44953e-06 -7.82281e-05 0 -4.54812e-06 -7.76504e-05 0 -7.94207e-06 -7.47964e-05 0 -1.44973e-05 -6.91661e-05 0 0 0.000118444 0 -8.45236e-07 0.000118601 0 -2.25619e-06 0.000118918 0 -4.83313e-06 0.000119043 0 -8.90629e-06 0.000118076 0 -1.46004e-05 0.000115101 0 -2.04663e-05 0.000108729 0 -2.50327e-05 9.99047e-05 0 -2.80264e-05 8.97558e-05 0 -2.9684e-05 7.90731e-05 0 -3.04044e-05 6.83414e-05 0 -3.05361e-05 5.77611e-05 0 -3.03409e-05 4.7418e-05 0 -3.00009e-05 3.73215e-05 0 -2.96358e-05 2.74443e-05 0 -2.9317e-05 1.77369e-05 0 -2.9077e-05 8.14006e-06 0 -2.89152e-05 -1.40849e-06 0 -2.87974e-05 -1.09667e-05 0 -2.86522e-05 -2.05813e-05 0 -2.83617e-05 -3.02758e-05 0 -2.77498e-05 -4.00359e-05 0 -2.65662e-05 -4.97706e-05 0 -2.44834e-05 -5.92732e-05 0 -2.11389e-05 -6.80529e-05 0 -1.63561e-05 -7.5308e-05 0 -1.0509e-05 -7.98972e-05 0 -5.22015e-06 -8.08195e-05 0 -2.19638e-06 -7.93703e-05 0 -1.51031e-06 -7.60848e-05 0 -3.14304e-06 -7.14155e-05 0 -5.12721e-06 -6.44061e-05 0 0 0.000118878 0 -2.49954e-07 0.000119361 0 -1.31234e-06 0.000120772 0 -4.02574e-06 0.000122653 0 -9.79135e-06 0.000124382 0 -1.87923e-05 0.000122408 0 -2.82706e-05 0.000115534 0 -3.49696e-05 0.000104393 0 -3.85763e-05 9.21466e-05 0 -4.0206e-05 8.01444e-05 0 -4.06449e-05 6.85726e-05 0 -4.04205e-05 5.75322e-05 0 -3.98756e-05 4.69736e-05 0 -3.92334e-05 3.68266e-05 0 -3.86331e-05 2.69995e-05 0 -3.81555e-05 1.73969e-05 0 -3.78368e-05 7.92098e-06 0 -3.76753e-05 -1.5253e-06 0 -3.76316e-05 -1.10375e-05 0 -3.76231e-05 -2.07069e-05 0 -3.75106e-05 -3.06184e-05 0 -3.70749e-05 -4.08329e-05 0 -3.59825e-05 -5.13873e-05 0 -3.37241e-05 -6.21636e-05 0 -2.95438e-05 -7.29514e-05 0 -2.23761e-05 -8.23679e-05 0 -1.26078e-05 -8.71913e-05 0 -3.60296e-06 -8.67006e-05 0 1.76413e-06 -8.19212e-05 0 3.54871e-06 -7.6164e-05 0 3.27061e-06 -6.96286e-05 0 1.72064e-06 -6.27279e-05 0 0 0.000118299 0 1.09474e-06 0.000119231 0 1.38509e-06 0.000121886 0 -5.82316e-07 0.000126549 0 -5.62069e-06 0.000132554 0 -2.22734e-05 0.000140001 0 -3.95196e-05 0.000126888 0 -4.73065e-05 0.000109105 0 -5.03062e-05 9.43944e-05 0 -5.11356e-05 8.06912e-05 0 -5.07795e-05 6.82771e-05 0 -4.98637e-05 5.6809e-05 0 -4.87532e-05 4.61161e-05 0 -4.76728e-05 3.60095e-05 0 -4.67589e-05 2.63298e-05 0 -4.60877e-05 1.693e-05 0 -4.5692e-05 7.67267e-06 0 -4.55691e-05 -1.57546e-06 0 -4.56801e-05 -1.09488e-05 0 -4.59442e-05 -2.05888e-05 0 -4.62222e-05 -3.06454e-05 0 -4.62892e-05 -4.12943e-05 0 -4.57845e-05 -5.26874e-05 0 -4.40929e-05 -6.5142e-05 0 -4.02494e-05 -7.83394e-05 0 -3.16678e-05 -9.42933e-05 0 -1.3721e-05 -0.000105184 0 3.48319e-06 -9.50085e-05 0 8.86346e-06 -8.56091e-05 0 1.09386e-05 -7.66665e-05 0 1.05038e-05 -6.86278e-05 0 9.13501e-06 -6.09875e-05 0 0 0.000115958 0 3.29695e-06 0.000117309 0 5.87847e-06 0.000121177 0 6.79288e-06 0.00012857 0 4.7576e-06 0.000139047 0 -3.00668e-06 0.000155965 0 -1.13985e-05 0.000136709 0 -1.52387e-05 0.000112263 0 -1.58408e-05 9.52233e-05 0 -1.48604e-05 8.00463e-05 0 -1.31351e-05 6.70095e-05 0 -1.11771e-05 5.53186e-05 0 -9.28429e-06 4.4672e-05 0 -7.63539e-06 3.47671e-05 0 -6.33446e-06 2.53811e-05 0 -5.4379e-06 1.63209e-05 0 -4.96839e-06 7.41508e-06 0 -4.92142e-06 -1.5008e-06 0 -5.26544e-06 -1.05948e-05 0 -5.9358e-06 -2.00532e-05 0 -6.82134e-06 -3.00876e-05 0 -7.73795e-06 -4.09844e-05 0 -8.38508e-06 -5.30224e-05 0 -8.25125e-06 -6.6964e-05 0 -6.50443e-06 -8.24883e-05 0 -1.4998e-06 -0.000105076 0 8.06102e-06 -0.000122047 0 1.69811e-05 -0.000102301 0 2.01471e-05 -8.82994e-05 0 2.03331e-05 -7.64956e-05 0 1.88388e-05 -6.71151e-05 0 1.65596e-05 -5.8944e-05 0 0 0.00011114 0 6.16885e-06 0.000112753 0 1.19619e-05 0.000117495 0 1.69613e-05 0.000126535 0 2.05554e-05 0.000139725 0 2.30701e-05 0.000159309 0 2.51325e-05 0.000138744 0 2.75928e-05 0.000111782 0 3.08289e-05 9.33417e-05 0 3.44334e-05 7.75321e-05 0 3.80051e-05 6.435e-05 0 4.12895e-05 5.28104e-05 0 4.41339e-05 4.24888e-05 0 4.64506e-05 3.30111e-05 0 4.81921e-05 2.41086e-05 0 4.93354e-05 1.55584e-05 0 4.98742e-05 7.16697e-06 0 4.98147e-05 -1.24964e-06 0 4.91759e-05 -9.88136e-06 0 4.79927e-05 -1.89436e-05 0 4.63248e-05 -2.86932e-05 0 4.42712e-05 -3.94865e-05 0 4.19956e-05 -5.17233e-05 0 3.97624e-05 -6.63544e-05 0 3.79822e-05 -8.33362e-05 0 3.70716e-05 -0.000108497 0 3.66639e-05 -0.000126831 0 3.5924e-05 -0.000104474 0 3.42473e-05 -8.78228e-05 0 3.13403e-05 -7.44541e-05 0 2.78436e-05 -6.43011e-05 0 2.41945e-05 -5.59153e-05 0 0 0.000103331 0 9.38736e-06 0.000105019 0 1.8839e-05 0.000110006 0 2.84188e-05 0.000119484 0 3.82309e-05 0.000133356 0 4.80405e-05 0.000153368 0 5.74948e-05 0.000133142 0 6.61637e-05 0.000106281 0 7.37894e-05 8.80407e-05 0 8.04028e-05 7.26529e-05 0 8.60653e-05 6.00213e-05 0 9.08192e-05 4.91147e-05 0 9.46971e-05 3.94687e-05 0 9.77258e-05 3.06871e-05 0 9.99286e-05 2.24872e-05 0 0.000101324 1.46385e-05 0 0.000101926 6.94313e-06 0 0.000101742 -7.86253e-07 0 0.000100775 -8.74399e-06 0 9.90229e-05 -1.71532e-05 0 9.64791e-05 -2.62846e-05 0 9.31347e-05 -3.65172e-05 0 8.8976e-05 -4.82909e-05 0 8.39814e-05 -6.26035e-05 0 7.81133e-05 -7.95062e-05 0 7.13687e-05 -0.000104706 0 6.40398e-05 -0.000122869 0 5.66007e-05 -0.000100284 0 4.9461e-05 -8.31986e-05 0 4.29251e-05 -6.96917e-05 0 3.69718e-05 -5.96502e-05 0 3.16184e-05 -5.15822e-05 0 0 9.23932e-05 0 1.25407e-05 9.39487e-05 0 2.5565e-05 9.84908e-05 0 3.96482e-05 0.000107193 0 5.55961e-05 0.000119879 0 7.39245e-05 0.000139667 0 9.20256e-05 0.000120334 0 0.000107073 9.54533e-05 0 0.000118997 7.91308e-05 0 0.000128555 6.52704e-05 0 0.000136262 5.39466e-05 0 0.000142451 4.41898e-05 0 0.000147334 3.55932e-05 0 0.000151051 2.77895e-05 0 0.000153695 2.05185e-05 0 0.000155329 1.35669e-05 0 0.000155986 6.75223e-06 0 0.000155675 -9.79013e-08 0 0.000154383 -7.1627e-06 0 0.000152069 -1.46488e-05 0 0.00014866 -2.28057e-05 0 0.00014404 -3.19848e-05 0 0.000138024 -4.25713e-05 0 0.000130309 -5.55047e-05 0 0.000120416 -7.06705e-05 0 0.000107633 -9.41118e-05 0 9.20846e-05 -0.000111652 0 7.66661e-05 -8.96273e-05 0 6.4074e-05 -7.41434e-05 0 5.39039e-05 -6.19301e-05 0 4.5488e-05 -5.29695e-05 0 3.84264e-05 -4.58094e-05 0 0 7.85828e-05 0 1.52346e-05 7.98214e-05 0 3.1224e-05 8.33524e-05 0 4.91065e-05 9.00237e-05 0 6.99209e-05 9.92518e-05 0 9.89171e-05 0.000113859 0 0.000127804 9.89431e-05 0 0.000148634 7.98878e-05 0 0.000164033 6.69188e-05 0 0.000176024 5.56294e-05 0 0.000185454 4.62705e-05 0 0.000192874 3.81362e-05 0 0.000198624 3.09316e-05 0 0.000202935 2.43669e-05 0 0.000205961 1.82341e-05 0 0.000207799 1.23597e-05 0 0.000208501 6.59577e-06 0 0.000208079 8.01915e-07 0 0.000206502 -5.16739e-06 0 0.000203697 -1.14799e-05 0 0.000199537 -1.83351e-05 0 0.00019382 -2.60099e-05 0 0.000186237 -3.47816e-05 0 0.000176277 -4.53321e-05 0 0.00016314 -5.73785e-05 0 0.000144859 -7.52849e-05 0 0.000118882 -8.87708e-05 0 9.32475e-05 -7.23793e-05 0 7.63617e-05 -6.09207e-05 0 6.31228e-05 -5.14506e-05 0 5.26814e-05 -4.43976e-05 0 4.41471e-05 -3.86924e-05 0 0 6.25121e-05 0 1.71701e-05 6.32695e-05 0 3.52046e-05 6.55766e-05 0 5.53491e-05 6.93151e-05 0 7.84713e-05 7.42439e-05 0 0.000110012 7.7282e-05 0 0.000141364 7.13542e-05 0 0.000164386 6.13692e-05 0 0.000181733 5.22689e-05 0 0.000195303 4.42879e-05 0 0.000205945 3.73253e-05 0 0.00021426 3.11788e-05 0 0.000220653 2.56336e-05 0 0.000225409 2.05191e-05 0 0.00022872 1.56939e-05 0 0.000230712 1.10435e-05 0 0.000231448 6.46829e-06 0 0.000230941 1.87475e-06 0 0.000229152 -2.83489e-06 0 0.000225982 -7.77139e-06 0 0.000221267 -1.30701e-05 0 0.000214755 -1.88929e-05 0 0.000206078 -2.54425e-05 0 0.00019468 -3.29046e-05 0 0.000179769 -4.13583e-05 0 0.00015951 -5.05405e-05 0 0.000131334 -5.54718e-05 0 0.000103492 -5.11953e-05 0 8.47244e-05 -4.47235e-05 0 6.97665e-05 -3.90562e-05 0 5.7976e-05 -3.4331e-05 0 4.84027e-05 -3.05256e-05 0 0 4.49266e-05 0 1.82152e-05 4.52454e-05 0 3.73309e-05 4.61522e-05 0 5.81467e-05 4.75408e-05 0 8.16233e-05 4.88749e-05 0 0.000106787 4.88883e-05 0 0.000131607 4.60822e-05 0 0.000153573 4.14712e-05 0 0.000171478 3.65361e-05 0 0.000185763 3.18697e-05 0 0.000197047 2.75796e-05 0 0.00020586 2.36185e-05 0 0.000212617 1.99109e-05 0 0.000217625 1.63847e-05 0 0.0002211 1.29812e-05 0 0.00022318 9.65265e-06 0 0.000223939 6.35872e-06 0 0.000223388 3.06167e-06 0 0.000221482 -2.78015e-07 0 0.000218109 -3.70633e-06 0 0.000213085 -7.27913e-06 0 0.000206139 -1.10643e-05 0 0.000196894 -1.51317e-05 0 0.000184869 -1.95209e-05 0 0.000169505 -2.41142e-05 0 0.000150433 -2.83057e-05 0 0.000128951 -3.05975e-05 0 0.000107687 -2.99533e-05 0 8.88181e-05 -2.78445e-05 0 7.35091e-05 -2.55017e-05 0 6.10435e-05 -2.34164e-05 0 5.09367e-05 -2.16362e-05 0 0 2.67326e-05 0 1.83942e-05 2.66013e-05 0 3.7638e-05 2.62177e-05 0 5.85339e-05 2.5591e-05 0 8.14282e-05 2.47614e-05 0 0.000106001 2.37966e-05 0 0.0001301 2.27925e-05 0 0.000151475 2.17015e-05 0 0.000169305 2.04626e-05 0 0.000183679 1.90582e-05 0 0.000195068 1.74982e-05 0 0.000203966 1.58063e-05 0 0.000210784 1.40081e-05 0 0.000215833 1.21292e-05 0 0.000219335 1.01945e-05 0 0.000221431 8.22765e-06 0 0.000222199 6.25197e-06 0 0.00022165 4.29038e-06 0 0.000219736 2.36593e-06 0 0.000216342 5.02069e-07 0 0.000211279 -1.27708e-06 0 0.000204271 -2.94662e-06 0 0.000194946 -4.48194e-06 0 0.000182862 -5.861e-06 0 0.000167607 -7.07602e-06 0 0.000149165 -8.14754e-06 0 0.000128451 -9.14103e-06 0 0.000107833 -1.01104e-05 0 8.96117e-05 -1.09689e-05 0 7.4301e-05 -1.16612e-05 0 6.18017e-05 -1.21629e-05 0 5.16296e-05 -1.24862e-05 0 0 8.7936e-06 0 1.7701e-05 8.21187e-06 0 3.62975e-05 6.52918e-06 0 5.66409e-05 3.86028e-06 0 7.96603e-05 7.72106e-07 0 0.00010512 -1.2421e-06 0 0.000130267 -4.19049e-07 0 0.000151989 2.08484e-06 0 0.000169525 4.56227e-06 0 0.000183468 6.4037e-06 0 0.000194455 7.54989e-06 0 0.000203026 8.10057e-06 0 0.000209596 8.18596e-06 0 0.000214467 7.92971e-06 0 0.000217854 7.43986e-06 0 0.000219893 6.8115e-06 0 0.000220657 6.1311e-06 0 0.000220157 5.48192e-06 0 0.000218349 4.94923e-06 0 0.000215122 4.62561e-06 0 0.000210294 4.61513e-06 0 0.000203594 5.03578e-06 0 0.000194649 6.01001e-06 0 0.000182967 7.627e-06 0 0.000167966 9.81349e-06 0 0.000149125 1.19411e-05 0 0.000127292 1.22774e-05 0 0.000105694 9.63219e-06 0 8.72229e-05 5.72388e-06 0 7.22979e-05 1.98593e-06 0 6.02255e-05 -1.09108e-06 0 5.04615e-05 -3.49402e-06 0 0 -8.02593e-06 0 1.61377e-05 -9.04515e-06 0 3.31355e-05 -1.21338e-05 0 5.22172e-05 -1.72124e-05 0 7.43479e-05 -2.41008e-05 0 0.000104715 -2.97805e-05 0 0.000134952 -2.54581e-05 0 0.000157077 -1.72507e-05 0 0.000173607 -1.06318e-05 0 0.000186465 -5.53351e-06 0 0.000196511 -1.7963e-06 0 0.000204344 8.59094e-07 0 0.000210364 2.70423e-06 0 0.000214848 3.96214e-06 0 0.000217985 4.82278e-06 0 0.000219895 5.44695e-06 0 0.000220642 5.97925e-06 0 0.000220238 6.55777e-06 0 0.000218643 7.32493e-06 0 0.000215763 8.43705e-06 0 0.000211436 1.0077e-05 0 0.000205417 1.24577e-05 0 0.000197344 1.58367e-05 0 0.000186659 2.04748e-05 0 0.000172555 2.65066e-05 0 0.000153172 3.3967e-05 0 0.00012607 3.73387e-05 0 9.93305e-05 3.04464e-05 0 8.14429e-05 2.20061e-05 0 6.73795e-05 1.49326e-05 0 5.63828e-05 9.27206e-06 0 4.75055e-05 4.91914e-06 0 0 -2.28194e-05 0 1.36992e-05 -2.43209e-05 0 2.81181e-05 -2.85895e-05 0 4.43679e-05 -3.66255e-05 0 6.34128e-05 -4.77661e-05 0 9.05002e-05 -6.57882e-05 0 0.000117521 -5.20313e-05 0 0.000136747 -3.46219e-05 0 0.000150827 -2.43278e-05 0 0.000161727 -1.60568e-05 0 0.000170265 -1.00768e-05 0 0.000176969 -5.57075e-06 0 0.000182168 -2.19654e-06 0 0.000186079 3.89091e-07 0 0.000188847 2.43984e-06 0 0.000190566 4.17356e-06 0 0.000191285 5.78159e-06 0 0.000191014 7.44698e-06 0 0.000189725 9.35807e-06 0 0.000187349 1.17265e-05 0 0.000183766 1.47963e-05 0 0.000178782 1.88967e-05 0 0.000172105 2.4351e-05 0 0.000163241 3.19506e-05 0 0.000151414 4.13941e-05 0 0.000134713 5.77292e-05 0 0.000110551 7.01296e-05 0 8.67346e-05 5.03904e-05 0 7.14702e-05 3.70687e-05 0 5.96343e-05 2.62479e-05 0 5.04228e-05 1.84075e-05 0 4.29411e-05 1.22822e-05 0 0 -3.4877e-05 0 1.05342e-05 -3.66567e-05 0 2.15e-05 -4.19035e-05 0 3.33983e-05 -5.17515e-05 0 4.69918e-05 -6.6182e-05 0 6.25e-05 -8.76846e-05 0 7.78426e-05 -7.08329e-05 0 9.06928e-05 -4.85466e-05 0 0.000100849 -3.51179e-05 0 0.000108964 -2.45642e-05 0 0.000115504 -1.68284e-05 0 0.000120762 -1.08988e-05 0 0.000124927 -6.31134e-06 0 0.000128121 -2.65589e-06 0 0.000130431 3.7122e-07 0 0.00013191 3.02456e-06 0 0.00013259 5.52746e-06 0 0.000132479 8.09278e-06 0 0.000131565 1.09402e-05 0 0.000129812 1.43168e-05 0 0.000127156 1.85144e-05 0 0.000123495 2.39264e-05 0 0.000118667 3.09941e-05 0 0.000112406 4.06987e-05 0 0.00010428 5.30575e-05 0 9.3675e-05 7.40007e-05 0 8.08374e-05 8.91671e-05 0 6.81477e-05 6.55462e-05 0 5.77503e-05 4.84436e-05 0 4.95035e-05 3.52063e-05 0 4.27409e-05 2.56374e-05 0 3.70878e-05 1.82825e-05 0 0 -4.36039e-05 0 6.96632e-06 -4.54976e-05 0 1.39339e-05 -5.10713e-05 0 2.08788e-05 -6.15667e-05 0 2.78407e-05 -7.68322e-05 0 3.45718e-05 -9.89242e-05 0 4.10301e-05 -8.10779e-05 0 4.71037e-05 -5.71609e-05 0 5.2595e-05 -4.22712e-05 0 5.74753e-05 -3.0508e-05 0 6.17333e-05 -2.17493e-05 0 6.53646e-05 -1.49136e-05 0 6.83733e-05 -9.50209e-06 0 7.07695e-05 -5.07997e-06 0 7.2566e-05 -1.32734e-06 0 7.37751e-05 2.02458e-06 0 7.44071e-05 5.21182e-06 0 7.4469e-05 8.45965e-06 0 7.39647e-05 1.2e-05 0 7.28967e-05 1.60933e-05 0 7.12677e-05 2.10463e-05 0 6.90843e-05 2.72752e-05 0 6.63605e-05 3.52535e-05 0 6.31206e-05 4.60296e-05 0 5.93978e-05 5.96821e-05 0 5.52444e-05 8.20555e-05 0 5.08838e-05 9.79784e-05 0 4.64551e-05 7.34867e-05 0 4.20278e-05 5.52191e-05 0 3.78767e-05 4.09483e-05 0 3.39858e-05 3.06016e-05 0 3.03962e-05 2.26009e-05 0 0 -4.88193e-05 0 3.40194e-06 -5.05987e-05 0 6.36011e-06 -5.58396e-05 0 8.40636e-06 -6.56586e-05 0 8.61821e-06 -8.00074e-05 0 7.43706e-06 -0.000101196 0 5.84864e-06 -8.35431e-05 0 5.22839e-06 -6.01392e-05 0 6.06301e-06 -4.55077e-05 0 7.72057e-06 -3.3715e-05 0 9.6996e-06 -2.47218e-05 0 1.1698e-05 -1.75371e-05 0 1.35399e-05 -1.17114e-05 0 1.51239e-05 -6.84264e-06 0 1.63943e-05 -2.62886e-06 0 1.73229e-05 1.18776e-06 0 1.79002e-05 4.83656e-06 0 1.81309e-05 8.53709e-06 0 1.80347e-05 1.25144e-05 0 1.76498e-05 1.70174e-05 0 1.70424e-05 2.23345e-05 0 1.63243e-05 2.88481e-05 0 1.56823e-05 3.69818e-05 0 1.54294e-05 4.76926e-05 0 1.60774e-05 6.09759e-05 0 1.82674e-05 8.27086e-05 0 2.15189e-05 9.82957e-05 0 2.44581e-05 7.45517e-05 0 2.60921e-05 5.70385e-05 0 2.59575e-05 4.32853e-05 0 2.49309e-05 3.31331e-05 0 2.33929e-05 2.51615e-05 0 0 -5.0702e-05 0 2.29878e-07 -5.22091e-05 0 -2.38316e-07 -5.64795e-05 0 -2.56261e-06 -6.44862e-05 0 -7.69757e-06 -7.5544e-05 0 -2.13957e-05 -9.34259e-05 0 -3.55779e-05 -7.77363e-05 0 -4.26598e-05 -5.7847e-05 0 -4.56981e-05 -4.51495e-05 0 -4.6787e-05 -3.43748e-05 0 -4.67975e-05 -2.58613e-05 0 -4.62648e-05 -1.88293e-05 0 -4.54944e-05 -1.29704e-05 0 -4.46697e-05 -7.95693e-06 0 -4.38989e-05 -3.53644e-06 0 -4.3242e-05 5.17471e-07 0 -4.27245e-05 4.41025e-06 0 -4.23436e-05 8.34037e-06 0 -4.20683e-05 1.2509e-05 0 -4.18333e-05 1.71336e-05 0 -4.15252e-05 2.2453e-05 0 -4.0956e-05 2.87756e-05 0 -3.98165e-05 3.63844e-05 0 -3.75693e-05 4.60261e-05 0 -3.33435e-05 5.73204e-05 0 -2.50495e-05 7.54833e-05 0 -9.64091e-06 8.90569e-05 0 5.2771e-06 6.85852e-05 0 1.15891e-05 5.43584e-05 0 1.49862e-05 4.24686e-05 0 1.63227e-05 3.34328e-05 0 1.65899e-05 2.60444e-05 0 0 -4.98261e-05 0 -2.23297e-06 -5.08849e-05 0 -5.265e-06 -5.40045e-05 0 -1.03049e-05 -5.91063e-05 0 -1.84954e-05 -6.5732e-05 0 -3.52505e-05 -7.16049e-05 0 -5.24472e-05 -6.41083e-05 0 -6.23177e-05 -5.21574e-05 0 -6.76591e-05 -4.19754e-05 0 -7.06193e-05 -3.30531e-05 0 -7.21261e-05 -2.54622e-05 0 -7.27672e-05 -1.89755e-05 0 -7.2893e-05 -1.33845e-05 0 -7.27238e-05 -8.48323e-06 0 -7.23952e-05 -4.07919e-06 0 -7.19857e-05 7.29321e-09 0 -7.15307e-05 3.94705e-06 0 -7.10295e-05 7.90635e-06 0 -7.04456e-05 1.20519e-05 0 -6.96997e-05 1.65548e-05 0 -6.8656e-05 2.15946e-05 0 -6.70954e-05 2.73591e-05 0 -6.467e-05 3.40329e-05 0 -6.07979e-05 4.1813e-05 0 -5.45606e-05 5.05897e-05 0 -4.38254e-05 6.08255e-05 0 -2.58195e-05 6.62397e-05 0 -8.348e-06 5.78477e-05 0 4.09377e-07 4.81822e-05 0 5.77986e-06 3.94192e-05 0 8.77479e-06 3.18997e-05 0 1.03988e-05 2.55609e-05 0 0 -4.68601e-05 0 -3.89852e-06 -4.75315e-05 0 -8.51143e-06 -4.94304e-05 0 -1.46163e-05 -5.21599e-05 0 -2.31646e-05 -5.48835e-05 0 -3.46298e-05 -5.50927e-05 0 -4.62972e-05 -5.15158e-05 0 -5.51992e-05 -4.48678e-05 0 -6.11879e-05 -3.74398e-05 0 -6.50873e-05 -3.03842e-05 0 -6.75437e-05 -2.39578e-05 0 -6.90195e-05 -1.82226e-05 0 -6.98293e-05 -1.311e-05 0 -7.01845e-05 -8.51279e-06 0 -7.02223e-05 -4.30517e-06 0 -7.00256e-05 -3.56542e-07 0 -6.96338e-05 3.46412e-06 0 -6.90482e-05 7.28635e-06 0 -6.82323e-05 1.12373e-05 0 -6.71069e-05 1.54397e-05 0 -6.5539e-05 2.00076e-05 0 -6.33233e-05 2.50315e-05 0 -6.01538e-05 3.05589e-05 0 -5.55798e-05 3.65009e-05 0 -4.89718e-05 4.25683e-05 0 -3.95294e-05 4.75696e-05 0 -2.74338e-05 4.91676e-05 0 -1.57005e-05 4.65942e-05 0 -7.11174e-06 4.10608e-05 0 -1.29076e-06 3.50111e-05 0 2.57549e-06 2.9216e-05 0 5.06384e-06 2.40164e-05 0 0 -4.25522e-05 0 -4.87539e-06 -4.29202e-05 0 -1.02461e-05 -4.38829e-05 0 -1.65778e-05 -4.50913e-05 0 -2.41735e-05 -4.58134e-05 0 -3.27849e-05 -4.51979e-05 0 -4.13623e-05 -4.23618e-05 0 -4.87508e-05 -3.78468e-05 0 -5.44803e-05 -3.25178e-05 0 -5.86704e-05 -2.7026e-05 0 -6.16215e-05 -2.17509e-05 0 -6.36239e-05 -1.68377e-05 0 -6.49112e-05 -1.23166e-05 0 -6.56563e-05 -8.151e-06 0 -6.59797e-05 -4.27158e-06 0 -6.59574e-05 -5.92416e-07 0 -6.56275e-05 2.97914e-06 0 -6.49931e-05 6.53653e-06 0 -6.40228e-05 1.0169e-05 0 -6.26478e-05 1.39554e-05 0 -6.07563e-05 1.79546e-05 0 -5.81857e-05 2.21888e-05 0 -5.47152e-05 2.66095e-05 0 -5.00717e-05 3.10491e-05 0 -4.39765e-05 3.51014e-05 0 -3.6339e-05 3.80843e-05 0 -2.7668e-05 3.90986e-05 0 -1.91707e-05 3.75653e-05 0 -1.19663e-05 3.43295e-05 0 -6.39743e-06 3.02092e-05 0 -2.28764e-06 2.59132e-05 0 6.59247e-07 2.17983e-05 0 0 -3.74976e-05 0 -5.35013e-06 -3.76568e-05 0 -1.09984e-05 -3.80385e-05 0 -1.71777e-05 -3.83725e-05 0 -2.39621e-05 -3.82515e-05 0 -3.11236e-05 -3.71692e-05 0 -3.81434e-05 -3.49546e-05 0 -4.44523e-05 -3.16645e-05 0 -4.97124e-05 -2.76856e-05 0 -5.38659e-05 -2.34258e-05 0 -5.70133e-05 -1.9161e-05 0 -5.93081e-05 -1.50509e-05 0 -6.09008e-05 -1.11616e-05 0 -6.19168e-05 -7.49992e-06 0 -6.24506e-05 -4.03623e-06 0 -6.25652e-05 -7.2039e-07 0 -6.2294e-05 2.5076e-06 0 -6.16418e-05 5.70974e-06 0 -6.05851e-05 8.94306e-06 0 -5.90714e-05 1.22517e-05 0 -5.70182e-05 1.56564e-05 0 -5.43139e-05 1.91381e-05 0 -5.08246e-05 2.26158e-05 0 -4.64172e-05 2.59115e-05 0 -4.10164e-05 2.87286e-05 0 -3.47119e-05 3.06363e-05 0 -2.78821e-05 3.12238e-05 0 -2.11479e-05 3.04111e-05 0 -1.50935e-05 2.83496e-05 0 -1.00308e-05 2.5536e-05 0 -5.99022e-06 2.23836e-05 0 -2.86629e-06 1.92062e-05 0 0 -3.20993e-05 0 -5.51579e-06 -3.21391e-05 0 -1.11877e-05 -3.21947e-05 0 -1.71191e-05 -3.2102e-05 0 -2.32994e-05 -3.16182e-05 0 -2.95724e-05 -3.05281e-05 0 -3.5646e-05 -2.86837e-05 0 -4.12057e-05 -2.61559e-05 0 -4.60299e-05 -2.31246e-05 0 -5.0026e-05 -1.98096e-05 0 -5.32061e-05 -1.64029e-05 0 -5.56386e-05 -1.30334e-05 0 -5.74097e-05 -9.77287e-06 0 -5.86021e-05 -6.64718e-06 0 -5.92833e-05 -3.65117e-06 0 -5.95016e-05 -7.6006e-07 0 -5.92844e-05 2.06108e-06 0 -5.86379e-05 4.84956e-06 0 -5.75474e-05 7.63782e-06 0 -5.59778e-05 1.04457e-05 0 -5.38761e-05 1.3271e-05 0 -5.11765e-05 1.6078e-05 0 -4.78118e-05 1.87829e-05 0 -4.37364e-05 2.1243e-05 0 -3.8965e-05 2.32507e-05 0 -3.36231e-05 2.457e-05 0 -2.79719e-05 2.50059e-05 0 -2.23741e-05 2.4475e-05 0 -1.71799e-05 2.31189e-05 0 -1.26143e-05 2.11583e-05 0 -8.76823e-06 1.88586e-05 0 -5.62626e-06 1.64407e-05 0 0 -2.66028e-05 0 -5.51457e-06 -2.65816e-05 0 -1.10966e-05 -2.64831e-05 0 -1.67773e-05 -2.62086e-05 0 -2.25224e-05 -2.56289e-05 0 -2.82146e-05 -2.46185e-05 0 -3.36783e-05 -2.31256e-05 0 -3.87234e-05 -2.11673e-05 0 -4.31969e-05 -1.88413e-05 0 -4.70134e-05 -1.62773e-05 0 -5.01506e-05 -1.35983e-05 0 -5.26299e-05 -1.09e-05 0 -5.44948e-05 -8.24406e-06 0 -5.57947e-05 -5.66142e-06 0 -5.65746e-05 -3.1594e-06 0 -5.68692e-05 -7.2928e-07 0 -5.66999e-05 1.64645e-06 0 -5.60741e-05 3.98749e-06 0 -5.49852e-05 6.30937e-06 0 -5.34139e-05 8.61683e-06 0 -5.13322e-05 1.08967e-05 0 -4.87092e-05 1.31105e-05 0 -4.55222e-05 1.51873e-05 0 -4.1774e-05 1.7021e-05 0 -3.75146e-05 1.84779e-05 0 -3.28613e-05 1.94175e-05 0 -2.80046e-05 1.97335e-05 0 -2.31776e-05 1.94037e-05 0 -1.86049e-05 1.8482e-05 0 -1.44586e-05 1.71071e-05 0 -1.08306e-05 1.54369e-05 0 -7.74623e-06 1.36263e-05 0 0 -2.11335e-05 0 -5.43873e-06 -2.1089e-05 0 -1.08926e-05 -2.09367e-05 0 -1.63554e-05 -2.06217e-05 0 -2.17815e-05 -2.00715e-05 0 -2.70843e-05 -1.92243e-05 0 -3.2143e-05 -1.80461e-05 0 -3.68301e-05 -1.65527e-05 0 -4.10375e-05 -1.47974e-05 0 -4.46925e-05 -1.28563e-05 0 -4.7761e-05 -1.08081e-05 0 -5.02402e-05 -8.71945e-06 0 -5.21471e-05 -6.63809e-06 0 -5.35084e-05 -4.59236e-06 0 -5.43516e-05 -2.59419e-06 0 -5.47007e-05 -6.43681e-07 0 -5.45721e-05 1.26585e-06 0 -5.39741e-05 3.14283e-06 0 -5.29067e-05 4.99243e-06 0 -5.13634e-05 6.81153e-06 0 -4.93348e-05 8.58376e-06 0 -4.68144e-05 1.02751e-05 0 -4.38073e-05 1.18311e-05 0 -4.03408e-05 1.31779e-05 0 -3.64765e-05 1.42293e-05 0 -3.2318e-05 1.49028e-05 0 -2.80077e-05 1.51409e-05 0 -2.37109e-05 1.49274e-05 0 -1.95888e-05 1.43022e-05 0 -1.57699e-05 1.33428e-05 0 -1.23398e-05 1.21496e-05 0 -9.33832e-06 1.08257e-05 0 0 -1.5743e-05 0 -5.34298e-06 -1.56966e-05 0 -1.06719e-05 -1.55487e-05 0 -1.59599e-05 -1.52688e-05 0 -2.11585e-05 -1.48186e-05 0 -2.61951e-05 -1.41641e-05 0 -3.09807e-05 -1.32906e-05 0 -3.54222e-05 -1.22057e-05 0 -3.94367e-05 -1.09408e-05 0 -4.29627e-05 -9.54115e-06 0 -4.59629e-05 -8.05573e-06 0 -4.84226e-05 -6.52865e-06 0 -5.03434e-05 -4.99388e-06 0 -5.17369e-05 -3.47377e-06 0 -5.26192e-05 -1.98014e-06 0 -5.30058e-05 -5.16772e-07 0 -5.29098e-05 9.17283e-07 0 -5.234e-05 2.32423e-06 0 -5.13013e-05 3.70392e-06 0 -4.97966e-05 5.0504e-06 0 -4.78296e-05 6.34872e-06 0 -4.54094e-05 7.57251e-06 0 -4.25571e-05 8.68322e-06 0 -3.93124e-05 9.63189e-06 0 -3.57393e-05 1.03649e-05 0 -3.19288e-05 1.08333e-05 0 -2.79951e-05 1.10042e-05 0 -2.40644e-05 1.08717e-05 0 -2.02588e-05 1.04574e-05 0 -1.66829e-05 9.80961e-06 0 -1.34122e-05 8.9897e-06 0 -1.04919e-05 8.06503e-06 0 0 -1.0438e-05 0 -5.25852e-06 -1.0402e-05 0 -1.04872e-05 -1.02901e-05 0 -1.56487e-05 -1.00866e-05 0 -2.06929e-05 -9.77176e-06 0 -2.55563e-05 -9.32905e-06 0 -3.01657e-05 -8.75068e-06 0 -3.44464e-05 -8.04208e-06 0 -3.83305e-05 -7.22051e-06 0 -4.17639e-05 -6.31155e-06 0 -4.47094e-05 -5.34378e-06 0 -4.71464e-05 -4.34385e-06 0 -4.90681e-05 -3.33334e-06 0 -5.04772e-05 -2.3274e-06 0 -5.1382e-05 -1.33501e-06 0 -5.17931e-05 -3.60318e-07 0 -5.17208e-05 5.95481e-07 0 -5.11745e-05 1.53196e-06 0 -5.01627e-05 2.44722e-06 0 -4.8694e-05 3.33573e-06 0 -4.67805e-05 4.18649e-06 0 -4.4441e-05 4.98182e-06 0 -4.17054e-05 5.69732e-06 0 -3.86189e-05 6.30338e-06 0 -3.52452e-05 6.7688e-06 0 -3.16664e-05 7.06616e-06 0 -2.79792e-05 7.17787e-06 0 -2.42878e-05 7.10066e-06 0 -2.06934e-05 6.84794e-06 0 -1.7284e-05 6.44682e-06 0 -1.41285e-05 5.93331e-06 0 -1.12728e-05 5.34769e-06 0 0 -5.20069e-06 0 -5.20215e-06 -5.18135e-06 0 -1.03669e-05 -5.12191e-06 0 -1.54517e-05 -5.01574e-06 0 -2.04061e-05 -4.85461e-06 0 -2.51706e-05 -4.63153e-06 0 -2.96803e-05 -4.34362e-06 0 -3.38695e-05 -3.99334e-06 0 -3.7678e-05 -3.58855e-06 0 -4.10559e-05 -3.14085e-06 0 -4.39666e-05 -2.66339e-06 0 -4.6387e-05 -2.16873e-06 0 -4.83059e-05 -1.6673e-06 0 -4.97215e-05 -1.16669e-06 0 -5.06379e-05 -6.71689e-07 0 -5.10626e-05 -1.84825e-07 0 -5.10049e-05 2.9278e-07 0 -5.04742e-05 7.60364e-07 0 -4.94807e-05 1.21645e-06 0 -4.80369e-05 1.65785e-06 0 -4.61593e-05 2.07879e-06 0 -4.38715e-05 2.47047e-06 0 -4.1208e-05 2.82108e-06 0 -3.82163e-05 3.11672e-06 0 -3.49591e-05 3.34304e-06 0 -3.15134e-05 3.48771e-06 0 -2.79667e-05 3.54293e-06 0 -2.44118e-05 3.5076e-06 0 -2.09385e-05 3.38771e-06 0 -1.76265e-05 3.19582e-06 0 -1.45404e-05 2.94846e-06 0 -1.17258e-05 2.66458e-06 0 0 -0 0 -5.18213e-06 -0 0 -1.03245e-05 -0 0 -1.53833e-05 -0 0 -2.03075e-05 -0 0 -2.50394e-05 -0 0 -2.95162e-05 -0 0 -3.36752e-05 -0 0 -3.74585e-05 -0 0 -4.08176e-05 -0 0 -4.37162e-05 -0 0 -4.61305e-05 -0 0 -4.80479e-05 -0 0 -4.94652e-05 -0 0 -5.03852e-05 -0 0 -5.08145e-05 -0 0 -5.07617e-05 -0 0 -5.02364e-05 -0 0 -4.92497e-05 -0 0 -4.78149e-05 -0 0 -4.595e-05 -0 0 -4.36803e-05 -0 0 -4.10415e-05 -0 0 -3.80819e-05 -0 0 -3.48638e-05 -0 0 -3.14622e-05 -0 0 -2.79621e-05 -0 0 -2.44522e-05 -0 0 -2.10191e-05 -0 0 -1.77398e-05 -0 0 -1.46772e-05 -0 0 -1.18769e-05 -0 0 </DataArray> 
</PointData> 
<Points> 
<DataArray type="Float32" NumberOfComponents="3"> 