<?xml version="1.0"?> 
<VTKFile type="StructuredGrid" version="0.1"> 
<StructuredGrid WholeExtent="0 31 0 31 0 0"> 
<Piece Extent="0 31 0 31 0 0"> 
<PointData>
<DataArray type="Float32" Name="B" format="ascii" NumberOfComponents="3"> 
0 0.0479429 0 -0.00408793 0.0144304 0 0.00168004 0.0111549 0 0.0058185 0.00819689 0 0.00963284 0.00674427 0 0.0121322 0.00558816 0 0.0141214 0.0047601 0 0.0154571 0.00407912 0 0.0164893 0.0035054 0 0.0172216 0.00300647 0 0.0177927 0.00255874 0 0.0182196 0.00215289 0 0.0185564 0.00177729 0 0.0188149 0.00142653 0 0.0190165 0.00109378 0 0.019168 0.000774391 0 0.0192781 0.000463057 0 0.0193509 0.000155111 0 0.0193899 -0.000154703 0 0.0193985 -0.000471557 0 0.0193769 -0.000801777 0 0.0193314 -0.0011517 0 0.0192546 -0.00153047 0 0.019166 -0.00194719 0 0.0190309 -0.0024176 0 0.0189202 -0.00296009 0 0.0187007 -0.00360444 0 0.0186366 -0.00441446 0 0.0182724 -0.00544336 0 0.0185806 -0.00706622 0 0.0187377 -0.00937587 0 0.0179326 -0.0223733 0 0 0.0434209 0 -8.65919e-05 0.0152374 0 0.00281416 0.00933003 0 0.00591556 0.00703019 0 0.00943665 0.00571404 0 0.0117939 0.00486528 0 0.0137146 0.00422199 0 0.0150748 0.00368494 0 0.0161066 0.00321541 0 0.0168779 0.0027861 0 0.0174658 0.00239174 0 0.0179215 0.00202271 0 0.0182753 0.00167642 0 0.018552 0.00134785 0 0.0187654 0.00103371 0 0.0189263 0.000729867 0 0.0190411 0.000432347 0 0.0191149 0.000136789 0 0.0191508 -0.000161508 0 0.0191509 -0.000467666 0 0.0191172 -0.000787589 0 0.0190501 -0.00112788 0 0.018951 -0.00149688 0 0.0188177 -0.00190444 0 0.0186513 -0.00236476 0 0.0184429 -0.00289666 0 0.0181945 -0.0035319 0 0.0178829 -0.00432231 0 0.0175097 -0.0053729 0 0.0170258 -0.00691906 0 0.0161429 -0.00966059 0 0.0101523 -0.0161877 0 0 0.0358688 0 0.00414977 0.0164356 0 0.00403447 0.00831893 0 0.00673128 0.00600829 0 0.00927922 0.0047995 0 0.0116312 0.00417771 0 0.0133555 0.0036911 0 0.0147366 0.00329408 0 0.0157544 0.00291568 0 0.0165495 0.00256039 0 0.0171567 0.00221551 0 0.0176336 0.00188638 0 0.0180064 0.0015691 0 0.0182988 0.00126462 0 0.0185248 0.000969932 0 0.0186944 0.000683084 0 0.0188144 0.000400589 0 0.0188892 0.000118855 0 0.0189217 -0.000166468 0 0.0189138 -0.000460222 0 0.0188665 -0.000768012 0 0.0187799 -0.0010963 0 0.0186529 -0.00145294 0 0.0184837 -0.00184754 0 0.0182664 -0.00229318 0 0.0179943 -0.00280797 0 0.0176495 -0.00342101 0 0.0172092 -0.00418166 0 0.0166126 -0.00518432 0 0.0157138 -0.0066259 0 0.0139173 -0.00890085 0 0.00912766 -0.0127374 0 0 0.0303306 0 0.00572682 0.0166367 0 0.00580348 0.00794702 0 0.00745389 0.0051998 0 0.00950781 0.00403774 0 0.0114952 0.00353515 0 0.0131272 0.0031905 0 0.0144272 0.00290434 0 0.0154468 0.00261692 0 0.016241 0.00232729 0 0.0168669 0.00203408 0 0.0173596 0.00174303 0 0.01775 0.0014566 0 0.018057 0.00117652 0 0.0182951 0.000902742 0 0.0184734 0.000633926 0 0.0185985 0.000367824 0 0.0186743 0.000101273 0 0.0187035 -0.000169564 0 0.0186875 -0.000449197 0 0.0186267 -0.000742954 0 0.0185201 -0.00105687 0 0.0183657 -0.00139843 0 0.0181591 -0.00177636 0 0.017893 -0.00220274 0 0.0175546 -0.00269346 0 0.0171208 -0.00327445 0 0.016553 -0.00398677 0 0.0157622 -0.00490804 0 0.014563 -0.00616327 0 0.0124657 -0.00797771 0 0.00854482 -0.0105407 0 0 0.0262009 0 0.00622965 0.0160919 0 0.00711605 0.00774853 0 0.00825754 0.00462164 0 0.00984284 0.00341467 0 0.0114993 0.00296685 0 0.0129674 0.00272293 0 0.0141854 0.00252904 0 0.0151736 0.00231995 0 0.0159635 0.00209231 0 0.0165966 0.00184744 0 0.0171028 0.00159469 0 0.0175075 0.0013388 0 0.0178281 0.00108419 0 0.0180775 0.000832068 0 0.0182642 0.000582537 0 0.0183941 0.00033401 0 0.018471 8.40441e-05 0 0.018497 -0.000170798 0 0.018473 -0.000434619 0 0.0183986 -0.000712364 0 0.0182723 -0.00100965 0 0.0180905 -0.00133329 0 0.0178475 -0.00169112 0 0.0175335 -0.00209368 0 0.0171321 -0.00255425 0 0.0166155 -0.00309413 0 0.0159347 -0.00374452 0 0.0149963 -0.00456203 0 0.0136229 -0.00562044 0 0.0115247 -0.00708666 0 0.00823102 -0.00895428 0 0 0.022833 0 0.00628929 0.0151079 0 0.00795815 0.00749763 0 0.00897974 0.00419441 0 0.0102321 0.00291551 0 0.0115953 0.00247747 0 0.0128833 0.00229789 0 0.014002 0.00217354 0 0.0149431 0.00203069 0 0.0157169 0.00185762 0 0.01635 0.00165823 0 0.0168647 0.00144205 0 0.0172809 0.00121672 0 0.0176134 0.000987806 0 0.0178731 0.000758231 0 0.0180677 0.000528928 0 0.0182024 0.00029921 0 0.0182803 6.7142e-05 0 0.0183031 -0.000170198 0 0.0182712 -0.000416522 0 0.0181836 -0.000676327 0 0.0180378 -0.000954718 0 0.0178295 -0.00125777 0 0.0175514 -0.00159225 0 0.0171918 -0.00196688 0 0.0167324 -0.00239213 0 0.0161422 -0.00288396 0 0.0153705 -0.00346421 0 0.0143307 -0.00417127 0 0.0128888 -0.00505552 0 0.0108795 -0.00626471 0 0.00800823 -0.00767195 0 0 0.0199375 0 0.00619207 0.0138762 0 0.00845066 0.00712563 0 0.00955989 0.00383767 0 0.010616 0.00251114 0 0.0117471 0.00206341 0 0.0128607 0.00191806 0 0.0138724 0.00184353 0 0.0147549 0.00175253 0 0.0155029 0.00162672 0 0.0161291 0.00146806 0 0.0166473 0.00128665 0 0.0170719 0.00109096 0 0.0174143 0.000887939 0 0.0176832 0.000681413 0 0.0178851 0.000473275 0 0.0180242 0.000263443 0 0.018103 5.05732e-05 0 0.0181228 -0.000167819 0 0.0180833 -0.000394999 0 0.0179829 -0.00063499 0 0.0178184 -0.000892332 0 0.0175847 -0.00117227 0 0.0172734 -0.00148046 0 0.0168718 -0.00182369 0 0.0163606 -0.0022096 0 0.0157085 -0.00264902 0 0.0148689 -0.00315623 0 0.0137696 -0.00375735 0 0.0123199 -0.00449716 0 0.0104163 -0.0055048 0 0.007854 -0.00660601 0 0 0.0173366 0 0.00603891 0.0125074 0 0.00872327 0.00662903 0 0.00999192 0.00349707 0 0.0109605 0.00217152 0 0.011922 0.00171265 0 0.0128829 0.00158344 0 0.0137884 0.00154081 0 0.0146065 0.00148899 0 0.0153216 0.00140178 0 0.0159348 0.00127905 0 0.0164521 0.00112958 0 0.016882 0.000962471 0 0.0172322 0.000785037 0 0.0175091 0.000601974 0 0.0177175 0.000415715 0 0.0178606 0.000226798 0 0.0179403 3.43216e-05 0 0.0179571 -0.000163729 0 0.0179104 -0.000370193 0 0.0177978 -0.000588586 0 0.0176158 -0.000822855 0 0.0173582 -0.0010774 0 0.0170164 -0.00135672 0 0.016577 -0.00166579 0 0.0160212 -0.00200963 0 0.0153198 -0.00239476 0 0.0144329 -0.00283016 0 0.0133056 -0.00333539 0 0.0118776 -0.00395532 0 0.0100725 -0.00479872 0 0.00773833 -0.00567606 0 0 0.0149415 0 0.00587578 0.0110637 0 0.008861 0.00602469 0 0.0103009 0.00314436 0 0.0112497 0.00187015 0 0.0120969 0.001412 0 0.0129329 0.00128949 0 0.0137405 0.0012659 0 0.0144934 0.00124151 0 0.0151714 0.00118486 0 0.0157673 0.00109263 0 0.01628 0.000972137 0 0.0167125 0.000831995 0 0.0170685 0.000679696 0 0.017352 0.000520227 0 0.017566 0.000356467 0 0.0177127 0.000189346 0 0.0177931 1.83866e-05 0 0.0178072 -0.000158027 0 0.0177537 -0.000342293 0 0.0176298 -0.000537429 0 0.0174315 -0.000746773 0 0.0171522 -0.000973902 0 0.0167828 -0.00122224 0 0.0163106 -0.00149511 0 0.0157175 -0.00179535 0 0.0149786 -0.00212633 0 0.0140618 -0.00249372 0 0.0129269 -0.00291407 0 0.0115319 -0.00343252 0 0.00981196 -0.00413654 0 0.00765145 -0.00484427 0 0 0.0126921 0 0.00572218 0.00958055 0 0.0089188 0.00533339 0 0.010516 0.00276703 0 0.0114815 0.00158857 0 0.0122575 0.00114812 0 0.0129965 0.00103039 0 0.0137189 0.00101694 0 0.0144101 0.00101064 0 0.0150501 0.000976957 0 0.0156261 0.000910048 0 0.0161315 0.000815225 0 0.0165641 0.000700325 0 0.0169242 0.000572418 0 0.017213 0.000436549 0 0.0174318 0.000295734 0 0.0175816 0.000151193 0 0.0176626 2.7522e-06 0 0.0176741 -0.000150829 0 0.0176144 -0.000311543 0 0.0174803 -0.000481907 0 0.0172672 -0.000664677 0 0.0169684 -0.000862663 0 0.016575 -0.00107832 0 0.0160748 -0.00131364 0 0.015452 -0.00156981 0 0.0146858 -0.00184809 0 0.0137518 -0.00215239 0 0.0126211 -0.00249782 0 0.0112613 -0.00292778 0 0.00961249 -0.00351018 0 0.00758506 -0.00408145 0 0 0.0105518 0 0.00558645 0.00807806 0 0.0089314 0.00457405 0 0.0106628 0.0023619 0 0.0116616 0.00131475 0 0.0123962 0.00091011 0 0.0130632 0.000799433 0 0.013715 0.000791112 0 0.0143511 0.000795607 0 0.0149546 0.00077845 0 0.01551 0.000731934 0 0.0160064 0.0006596 0 0.0164375 0.00056806 0 0.0168001 0.00046371 0 0.017093 0.000351281 0 0.0173157 0.000233748 0 0.0174681 0.000112436 0 0.0175496 -1.25966e-05 0 0.0175588 -0.000142283 0 0.0174937 -0.000278226 0 0.0173505 -0.000422478 0 0.0171245 -0.000577244 0 0.0168088 -0.000744654 0 0.0163949 -0.000926364 0 0.0158717 -0.00112336 0 0.0152257 -0.00133571 0 0.0144405 -0.00156349 0 0.0134981 -0.00180971 0 0.0123774 -0.00208833 0 0.0110504 -0.00243894 0 0.00945968 -0.00291255 0 0.00753474 -0.00336943 0 0 0.00849321 0 0.00547237 0.00656752 0 0.00892047 0.00376262 0 0.0107611 0.00193026 0 0.0117974 0.00104194 0 0.0125104 0.000689398 0 0.0131257 0.000590377 0 0.0137217 0.00058475 0 0.014311 0.000594885 0 0.0148818 0.000588926 0 0.0154176 0.000558526 0 0.0159045 0.000505675 0 0.016333 0.000435683 0 0.016697 0.00035398 0 0.0169929 0.000264758 0 0.0172188 0.000170724 0 0.0173733 7.31799e-05 0 0.0174552 -2.76887e-05 0 0.0174625 -0.000132554 0 0.0173926 -0.000242672 0 0.0172417 -0.000359659 0 0.0170046 -0.000485219 0 0.0166748 -0.000620909 0 0.0162441 -0.000767764 0 0.0157025 -0.000926094 0 0.0150391 -0.00109535 0 0.0142413 -0.00127504 0 0.0132961 -0.0014677 0 0.0121872 -0.0016858 0 0.0108885 -0.0019634 0 0.00934394 -0.00233769 0 0.00749718 -0.00269483 0 0 0.00649619 0 0.00538113 0.0050549 0 0.00890001 0.00291222 0 0.0108255 0.00147575 0 0.0118969 0.000766734 0 0.0125999 0.000479858 0 0.0131796 0.000397614 0 0.0137333 0.000394035 0 0.0142853 0.000406297 0 0.0148285 0.000407441 0 0.0153471 0.000389572 0 0.0158252 0.000353596 0 0.0162508 0.000303487 0 0.0166153 0.000243566 0 0.0169134 0.000177268 0 0.0171417 0.000106871 0 0.017298 3.35177e-05 0 0.0173801 -4.25609e-05 0 0.0173858 -0.000121835 0 0.017312 -0.000205246 0 0.0171548 -0.000294012 0 0.0169089 -0.000389396 0 0.0165678 -0.000492484 0 0.0161237 -0.000603875 0 0.0155682 -0.000723498 0 0.0148921 -0.000850571 0 0.0140863 -0.000984459 0 0.0131413 -0.00112729 0 0.0120437 -0.00128952 0 0.0107678 -0.00149854 0 0.0092588 -0.00178043 0 0.00747032 -0.00204771 0 0 0.00454406 0 0.00531309 0.00354301 0 0.00887881 0.00203368 0 0.0108663 0.00100299 0 0.0119663 0.000487979 0 0.0126658 0.000277196 0 0.0132223 0.000216429 0 0.013746 0.000215148 0 0.0142702 0.000227332 0 0.0147922 0.000232573 0 0.0152971 0.000224459 0 0.0157679 0.000203229 0 0.0161907 0.00017161 0 0.0165554 0.00013271 0 0.016855 8.90652e-05 0 0.0170852 4.23813e-05 0 0.0172427 -6.46233e-06 0 0.017325 -5.72628e-05 0 0.0173295 -0.000110335 0 0.0172529 -0.000166342 0 0.0170909 -0.00022614 0 0.0168383 -0.000290602 0 0.0164886 -0.000360443 0 0.0160348 -0.000435983 0 0.0154692 -0.000517014 0 0.0147845 -0.000602807 0 0.0139738 -0.000692815 0 0.0130302 -0.000788698 0 0.011942 -0.000898358 0 0.0106831 -0.00104179 0 0.00919983 -0.00123623 0 0.00745268 -0.00142028 0 0 0.00262262 0 0.0052681 0.0020327 0 0.00886242 0.00113611 0 0.0108905 0.000517007 0 0.0120107 0.000205872 0 0.0127097 7.85075e-05 0 0.0132524 4.28588e-05 0 0.0137571 4.44595e-05 0 0.0142631 5.52678e-05 0 0.0147709 6.25946e-05 0 0.0152663 6.22577e-05 0 0.015732 5.4219e-05 0 0.0161528 4.00396e-05 0 0.0165175 2.15745e-05 0 0.0168182 3.57484e-07 0 0.0170495 -2.25731e-05 0 0.017208 -4.66834e-05 0 0.0172905 -7.18532e-05 0 0.0172943 -9.82815e-05 0 0.0172157 -0.000126378 0 0.0170506 -0.000156669 0 0.0167935 -0.000189682 0 0.0164382 -0.000225838 0 0.0159779 -0.0002653 0 0.0154058 -0.000307897 0 0.0147157 -0.000353146 0 0.0139023 -0.000400705 0 0.0129601 -0.000451652 0 0.0118784 -0.000510924 0 0.0106308 -0.000590717 0 0.00916414 -0.00070101 0 0.00744331 -0.000806014 0 0 0.000718993 0 0.00524598 0.000523656 0 0.00885405 0.00022752 0 0.0109024 2.30061e-05 0 0.0120331 -7.85877e-05 0 0.0127327 -0.000118215 0 0.0132692 -0.000126456 0 0.013765 -0.000121479 0 0.0142621 -0.0001127 0 0.014763 -0.000104438 0 0.0152538 -9.81674e-05 0 0.015717 -9.39624e-05 0 0.016137 -9.13484e-05 0 0.0165018 -8.97457e-05 0 0.0168031 -8.86779e-05 0 0.0170352 -8.78351e-05 0 0.0171942 -8.70762e-05 0 0.017277 -8.64001e-05 0 0.0172804 -8.59127e-05 0 0.017201 -8.579e-05 0 0.0170343 -8.6246e-05 0 0.016775 -8.74935e-05 0 0.0164169 -8.97064e-05 0 0.0159534 -9.29705e-05 0 0.0153781 -9.72567e-05 0 0.0146854 -0.000102431 0 0.0138707 -0.000108412 0 0.0129294 -0.000115604 0 0.0118509 -0.000125719 0 0.0106087 -0.000142946 0 0.00914996 -0.000170972 0 0.00744164 -0.000199256 0 0 -0.00117892 0 0.0052466 -0.00098502 0 0.00885518 -0.000684793 0 0.0109041 -0.000473787 0 0.0120353 -0.000363998 0 0.0127354 -0.00031446 0 0.0132725 -0.000294518 0 0.0137688 -0.000285969 0 0.0142665 -0.000279413 0 0.0147678 -0.000270582 0 0.0152591 -0.000258085 0 0.0157227 -0.000241946 0 0.0161431 -0.000222751 0 0.0165083 -0.000201198 0 0.0168099 -0.000177888 0 0.0170423 -0.000153258 0 0.0172015 -0.000127578 0 0.0172845 -0.000100976 0 0.0172882 -7.34753e-05 0 0.0172089 -4.50227e-05 0 0.0170423 -1.55274e-05 0 0.0167831 1.51037e-05 0 0.0164251 4.6925e-05 0 0.0159616 7.99047e-05 0 0.0153863 0.000113894 0 0.0146934 0.000148645 0 0.0138786 0.000183962 0 0.012937 0.000220153 0 0.0118583 0.000258812 0 0.0106157 0.000303826 0 0.00915646 0.000357493 0 0.0074474 0.000405243 0 0 -0.00308303 0 0.00526996 -0.00249442 0 0.00886581 -0.00159372 0 0.0108955 -0.000968142 0 0.0120172 -0.000648828 0 0.0127179 -0.000511556 0 0.0132623 -0.000464202 0 0.0137687 -0.000452262 0 0.0142762 -0.000447718 0 0.0147855 -0.000437931 0 0.0152822 -0.000418805 0 0.0157492 -0.000390399 0 0.0161713 -0.000354388 0 0.016537 -0.000312743 0 0.0168386 -0.000267125 0 0.0170708 -0.000218699 0 0.01723 -0.000168127 0 0.0173132 -0.000115657 0 0.0173175 -6.12182e-05 0 0.0172394 -4.52467e-06 0 0.0170746 5.48273e-05 0 0.0168178 0.000117247 0 0.0164627 0.000183035 0 0.0160024 0.00025224 0 0.0154302 0.000324574 0 0.0147398 0.000399436 0 0.013926 0.000476375 0 0.0129832 0.00055637 0 0.0119006 0.000644238 0 0.0106519 0.000751885 0 0.00918368 0.000887944 0 0.0074606 0.00101258 0 0 -0.00500544 0 0.00531618 -0.00400546 0 0.00888446 -0.00249196 0 0.0108746 -0.00145483 0 0.0119773 -0.000931676 0 0.0126796 -0.000710995 0 0.0132389 -0.00063851 0 0.0137653 -0.000623662 0 0.0142921 -0.000620456 0 0.0148166 -0.000608543 0 0.0153237 -0.000581596 0 0.0157967 -0.000539953 0 0.0162215 -0.000486456 0 0.0165879 -0.00042433 0 0.0168892 -0.000356237 0 0.0171207 -0.000284011 0 0.0172795 -0.00020866 0 0.0173629 -0.000130515 0 0.0173683 -4.93877e-05 0 0.0172924 3.52593e-05 0 0.0171311 0.000124162 0 0.0168789 0.000218075 0 0.0165295 0.000317597 0 0.0160757 0.000422935 0 0.0155099 0.000533765 0 0.0148248 0.000649248 0 0.0140134 0.000768722 0 0.0130687 0.00089375 0 0.0119791 0.00103211 0 0.0107183 0.00120354 0 0.00923247 0.001424 0 0.00748155 0.00162801 0 0 -0.00695902 0 0.00538545 -0.00551843 0 0.00890791 -0.00337152 0 0.010837 -0.00192867 0 0.0119123 -0.00121155 0 0.0126193 -0.000914784 0 0.0132029 -0.000820803 0 0.0137604 -0.000803614 0 0.014316 -0.000800433 0 0.0148627 -0.00078436 0 0.0153845 -0.000747593 0 0.0158656 -0.000691136 0 0.0162939 -0.000619079 0 0.0166609 -0.000535862 0 0.0169612 -0.000445047 0 0.0171916 -0.000349038 0 0.0173495 -0.000249108 0 0.0174332 -0.000145617 0 0.0174401 -3.8222e-05 0 0.0173675 7.38943e-05 0 0.0172111 0.00019183 0 0.0169658 0.000316732 0 0.016625 0.000449571 0 0.0161811 0.00059084 0 0.0156253 0.000740355 0 0.0149487 0.00089723 0 0.0141419 0.00106072 0 0.0131954 0.00123284 0 0.0120959 0.00142393 0 0.0108173 0.00166115 0 0.00930468 0.00196945 0 0.00751087 0.00225721 0 0 -0.00895796 0 0.0054779 -0.00703247 0 0.00893062 -0.00422329 0 0.010776 -0.00238462 0 0.0118174 -0.00148826 0 0.0125355 -0.00112583 0 0.0131558 -0.00101505 0 0.0137566 -0.000995749 0 0.0143507 -0.000990369 0 0.0149258 -0.00096711 0 0.0154657 -0.000917724 0 0.0159565 -0.000844301 0 0.0163885 -0.00075227 0 0.0167557 -0.000647177 0 0.0170545 -0.000533345 0 0.017283 -0.000413606 0 0.0174398 -0.000289394 0 0.0175235 -0.000161022 0 0.0175325 -2.79475e-05 0 0.0174639 0.000110963 0 0.0173141 0.000257204 0 0.0170778 0.000412369 0 0.0167485 0.000577903 0 0.0163179 0.000754739 0 0.0157762 0.000943082 0 0.015112 0.00114228 0 0.014313 0.00135175 0 0.013366 0.0015739 0 0.0122546 0.00182108 0 0.0109525 0.00212717 0 0.00940328 0.00252838 0 0.00754954 0.00290673 0 0 -0.0110189 0 0.00559317 -0.0085448 0 0.00894379 -0.00503644 0 0.0106811 -0.00281808 0 0.011686 -0.00176296 0 0.012427 -0.00134844 0 0.0131001 -0.00122595 0 0.0137579 -0.00120389 0 0.0143998 -0.00119277 0 0.0150086 -0.00115821 0 0.0155691 -0.0010926 0 0.0160702 -0.000999585 0 0.0165055 -0.00088589 0 0.016872 -0.000758034 0 0.0171684 -0.000620878 0 0.0173943 -0.000477523 0 0.0175495 -0.000329428 0 0.0176333 -0.000176779 0 0.0176446 -1.8773e-05 0 0.017581 0.00014607 0 0.0174392 0.000319684 0 0.0172141 0.000504161 0 0.016899 0.000701528 0 0.0164854 0.000913342 0 0.0159619 0.00114049 0 0.0153151 0.00138296 0 0.0145286 0.00164073 0 0.0135841 0.0019167 0 0.0124604 0.0022247 0 0.0111293 0.00260416 0 0.00953275 0.00310537 0 0.0075991 0.00358442 0 0 -0.0131621 0 0.00573008 -0.0100494 0 0.00893344 -0.00579787 0 0.0105378 -0.00322543 0 0.0115106 -0.00203906 0 0.0122941 -0.00158873 0 0.0130404 -0.00145913 0 0.0137699 -0.00143184 0 0.0144679 -0.00140982 0 0.0151142 -0.00135861 0 0.0156962 -0.00127248 0 0.016207 -0.00115684 0 0.0166447 -0.00101965 0 0.0170094 -0.000868094 0 0.0173024 -0.000707356 0 0.0175249 -0.00054058 0 0.0176779 -0.000369116 0 0.0177617 -0.000192923 0 0.0177756 -1.08887e-05 0 0.0177178 0.000178854 0 0.0175853 0.000378705 0 0.0173733 0.000591313 0 0.0170753 0.000819384 0 0.0166821 0.00106529 0 0.0161817 0.00133092 0 0.0155581 0.00161741 0 0.0147905 0.00192593 0 0.0138541 0.00226029 0 0.01272 0.00263546 0 0.0113553 0.00309475 0 0.00969967 0.00370557 0 0.00766167 0.0043003 0 0 -0.0154147 0 0.00588482 -0.0115351 0 0.00887787 -0.00649165 0 0.0103261 -0.00360539 0 0.0112835 -0.00232334 0 0.0121395 -0.00185528 0 0.012984 -0.00172083 0 0.0137997 -0.00168328 0 0.0145604 -0.00164304 0 0.0152457 -0.00156872 0 0.0158485 -0.00145712 0 0.0163675 -0.00131565 0 0.0168058 -0.00115306 0 0.0171672 -0.000976948 0 0.0174555 -0.000792446 0 0.0176738 -0.000602559 0 0.0178242 -0.000408352 0 0.0179078 -0.000209481 0 0.0179246 -4.46007e-06 0 0.0178733 0.000208987 0 0.0177512 0.000433755 0 0.0175542 0.00067308 0 0.0172757 0.000930438 0 0.0169067 0.00120917 0 0.0164343 0.00151254 0 0.0158406 0.00184332 0 0.0151002 0.0022048 0 0.0141808 0.00260261 0 0.0130422 0.00305317 0 0.0116416 0.00360151 0 0.00991377 0.00433499 0 0.00774065 0.0050678 0 0 -0.0178135 0 0.00604905 -0.0129817 0 0.00874239 -0.00709888 0 0.0100208 -0.00396116 0 0.0109993 -0.00262783 0 0.0119707 -0.002159 0 0.0129412 -0.00201775 0 0.013856 -0.00196102 0 0.0146828 -0.00189321 0 0.0154062 -0.00178816 0 0.0160272 -0.00164589 0 0.0165517 -0.00147527 0 0.0169883 -0.00128552 0 0.0173445 -0.00108409 0 0.0176268 -0.000875805 0 0.01784 -0.00066323 0 0.0179874 -0.00044704 0 0.0180707 -0.000226468 0 0.0180906 3.68612e-07 0 0.0180463 0.000236185 0 0.0179357 0.000484375 0 0.0177551 0.000748785 0 0.0174985 0.00103371 0 0.0171572 0.00134361 0 0.0167178 0.00168334 0 0.0161612 0.00205795 0 0.0154584 0.00247388 0 0.0145691 0.0029401 0 0.0134378 0.00347607 0 0.0120037 0.00412661 0 0.0101896 0.00500072 0 0.00784057 0.00590529 0 0 -0.0204182 0 0.00620327 -0.0143537 0 0.00847207 -0.00759882 0 0.00959252 -0.00430529 0 0.0106598 -0.00297099 0 0.0118021 -0.00251322 0 0.0129264 -0.0023557 0 0.0139485 -0.00226692 0 0.0148408 -0.00215976 0 0.015598 -0.00201593 0 0.0162329 -0.00183754 0 0.0167591 -0.00163477 0 0.0171912 -0.00141625 0 0.0175403 -0.00118902 0 0.0178153 -0.000957057 0 0.0180226 -0.000722388 0 0.0181664 -0.000485071 0 0.0182493 -0.000243897 0 0.0182724 3.48252e-06 0 0.0182357 0.000260208 0 0.0181374 0.00053018 0 0.0179746 0.00081784 0 0.0177419 0.00112833 0 0.0174312 0.00146726 0 0.0170296 0.00184134 0 0.0165178 0.00225824 0 0.0158645 0.00272874 0 0.0150225 0.00326719 0 0.0139194 0.00389969 0 0.0124632 0.00467099 0 0.0105497 0.00571086 0 0.00796993 0.00684207 0 0 -0.0233177 0 0.00630148 -0.0155892 0 0.00798192 -0.00797464 0 0.00901631 -0.00466601 0 0.0102811 -0.00337932 0 0.0116567 -0.00293111 0 0.0129565 -0.00273923 0 0.0140867 -0.00260045 0 0.0150386 -0.00244126 0 0.0158226 -0.00224998 0 0.0164653 -0.00203065 0 0.0169889 -0.00179289 0 0.0174133 -0.0015445 0 0.0177533 -0.00129114 0 0.0180197 -0.00103589 0 0.0182203 -0.000779814 0 0.0183602 -0.000522373 0 0.0184425 -0.000261768 0 0.0184691 4.78513e-06 0 0.0184402 0.000280871 0 0.018355 0.00057086 0 0.0182109 0.00087976 0 0.0180038 0.00121354 0 0.0177263 0.00157894 0 0.0173668 0.0019846 0 0.016907 0.00244103 0 0.0163158 0.00296421 0 0.0155421 0.00357611 0 0.0144988 0.00431523 0 0.0130506 0.00523204 0 0.0110304 0.00647534 0 0.00813873 0.00791633 0 0 -0.0266892 0 0.00624282 -0.0165774 0 0.00714229 -0.00822989 0 0.00829826 -0.00509771 0 0.00989721 -0.00388285 0 0.0115674 -0.00342472 0 0.0130483 -0.00316834 0 0.0142789 -0.00295983 0 0.0152789 -0.00273421 0 0.01608 -0.00248813 0 0.0167236 -0.0022231 0 0.0172396 -0.00194853 0 0.0176533 -0.00166932 0 0.0179821 -0.00139 0 0.0182388 -0.00111194 0 0.0184321 -0.000835371 0 0.0185677 -0.000558856 0 0.0186494 -0.000280093 0 0.0186795 4.21202e-06 0 0.0186588 0.000298032 0 0.0185869 0.000606185 0 0.0184625 0.000934182 0 0.018282 0.00128875 0 0.0180397 0.00167767 0 0.0177259 0.00211142 0 0.0173243 0.00260335 0 0.016807 0.0031748 0 0.0161246 0.0038572 0 0.0151836 0.00470741 0 0.0138045 0.00579964 0 0.0116952 0.0073024 0 0.00837757 0.00920867 0 0 -0.0308213 0 0.00574098 -0.0171272 0 0.00583244 -0.00843325 0 0.00749894 -0.00568079 0 0.00956771 -0.00451071 0 0.01157 -0.00399762 0 0.013216 -0.00364034 0 0.0145296 -0.00333936 0 0.0155621 -0.0030352 0 0.0163685 -0.00272689 0 0.0170058 -0.00241327 0 0.0175091 -0.00210013 0 0.0179094 -0.00179011 0 0.0182253 -0.00148504 0 0.0184714 -0.00118503 0 0.0186568 -0.00088888 0 0.018788 -0.000594499 0 0.0188691 -0.000298865 0 0.0189027 1.71031e-06 0 0.0188902 0.000311605 0 0.0188321 0.000636011 0 0.0187275 0.000980869 0 0.0185745 0.00135354 0 0.0183687 0.00176274 0 0.0181029 0.00222047 0 0.0177644 0.0027427 0 0.0173302 0.0033554 0 0.0167615 0.00409997 0 0.0159691 0.00505446 0 0.014766 0.00634479 0 0.0126586 0.00819898 0 0.00870961 0.0108073 0 0 -0.0363594 0 0.00416546 -0.0169323 0 0.00406623 -0.00881044 0 0.00678083 -0.00649469 0 0.00934472 -0.00527765 0 0.0117129 -0.00464516 0 0.0134522 -0.00414576 0 0.0148481 -0.00373367 0 0.0158798 -0.00333832 0 0.0166882 -0.0029641 0 0.0173077 -0.00259854 0 0.0177962 -0.00224704 0 0.0181796 -0.00190587 0 0.0184816 -0.00157607 0 0.0187163 -0.00125484 0 0.0188935 -0.000940332 0 0.0190202 -0.000629237 0 0.0191006 -0.000318107 0 0.0191378 -2.74403e-06 0 0.0191337 0.000321557 0 0.0190892 0.00066026 0 0.0190048 0.00101973 0 0.0188792 0.00140769 0 0.0187108 0.00183374 0 0.0184939 0.00231085 0 0.0182217 0.00285727 0 0.0178769 0.00350209 0 0.0174363 0.00429509 0 0.0168397 0.00533121 0 0.0159396 0.00680876 0 0.0141374 0.00912757 0 0.00931619 0.0130192 0 0 -0.0438997 0 -6.62357e-05 -0.0157435 0 0.00284725 -0.00982654 0 0.00597015 -0.00752269 0 0.00950763 -0.0061977 0 0.0118825 -0.00533813 0 0.0138195 -0.00468182 0 0.0151955 -0.00412947 0 0.0162423 -0.00364277 0 0.0170278 -0.00319424 0 0.0176291 -0.00277893 0 0.0180973 -0.0023872 0 0.0184625 -0.0020167 0 0.0187497 -0.00166247 0 0.0189723 -0.00132144 0 0.0191414 -0.000989582 0 0.0192634 -0.000663113 0 0.0193432 -0.000337814 0 0.019384 -9.14977e-06 0 0.0193882 0.000327869 0 0.0193574 0.000678988 0 0.0192926 0.00105072 0 0.0191949 0.00145126 0 0.0190624 0.00189045 0 0.0188964 0.00238236 0 0.0186882 0.00294596 0 0.0184398 0.00361297 0 0.0181288 0.00443562 0 0.0177568 0.00551966 0 0.0172751 0.00710125 0 0.0163968 0.00989141 0 0.010377 0.0164858 0 0 -0.0483281 0 -0.00402881 -0.0149634 0 0.0016899 -0.0116518 0 0.00589292 -0.00869768 0 0.00970023 -0.00723341 0 0.0122332 -0.00606688 0 0.0142313 -0.00522558 0 0.0155889 -0.00452889 0 0.0166345 -0.00393791 0 0.0173837 -0.00341933 0 0.0179683 -0.00295044 0 0.018409 -0.00252148 0 0.0187578 -0.00212136 0 0.0190276 -0.00174455 0 0.0192391 -0.00138453 0 0.0193995 -0.00103674 0 0.0195171 -0.000696083 0 0.0195963 -0.000358018 0 0.0196406 -1.74859e-05 0 0.0196533 0.000330577 0 0.019635 0.000692286 0 0.0195915 0.00107395 0 0.0195165 0.00148445 0 0.019428 0.00193304 0 0.0192948 0.00243508 0 0.0191815 0.00300936 0 0.0189672 0.00368546 0 0.0188951 0.00452704 0 0.0185491 0.00559045 0 0.018836 0.00724224 0 0.0190496 0.0096171 0 0.0183636 0.0225843 0 </DataArray> 
</PointData> 
<Points> 
<DataArray type="Float32" NumberOfComponents="3"> 