<?xml version="1.0"?> 
<VTKFile type="StructuredGrid" version="0.1"> 
<StructuredGrid WholeExtent="0 31 0 31 0 0"> 
<Piece Extent="0 31 0 31 0 0"> 
<PointData>
<DataArray type="Float32" Name="B" format="ascii" NumberOfComponents="3"> 
0.00256987 0.0191787 0 0.00481996 0.00817506 0 0.00399059 0.00643118 0 0.00330317 0.0051497 0 0.00302566 0.00434696 0 0.0026903 0.0037209 0 0.00247222 0.00323489 0 0.00224711 0.00284134 0 0.00206387 0.00251493 0 0.00188854 0.00224327 0 0.001733 0.00201249 0 0.00158761 0.00181671 0 0.00145458 0.00164853 0 0.00133079 0.0015041 0 0.00121615 0.00137921 0 0.00110932 0.00127117 0 0.00100972 0.00117737 0 0.000916567 0.00109591 0 0.000829247 0.00102508 0 0.00074715 0.00096354 0 0.000669735 0.000910131 0 0.000596486 0.000863903 0 0.000526928 0.000824053 0 0.00046061 0.000789916 0 0.000397111 0.000760934 0 0.00033603 0.00073665 0 0.000276987 0.000716686 0 0.000219617 0.00070074 0 0.000163569 0.000688574 0 0.000108504 0.000680008 0 5.40901e-05 0.000674918 0 0 0.00067323 0 -0.000980882 0.00905265 0 0.000937822 0.00780326 0 0.00165119 0.00644593 0 0.00188283 0.00538322 0 0.0019076 0.00458413 0 0.00187029 0.00396365 0 0.00179217 0.00346787 0 0.00170206 0.00306252 0 0.0016033 0.00272529 0 0.00150348 0.00244127 0 0.00140379 0.00219966 0 0.00130652 0.0019927 0 0.00121219 0.00181436 0 0.0011215 0.00166004 0 0.00103459 0.00152603 0 0.000951586 0.00140938 0 0.000872418 0.00130765 0 0.000796973 0.00121885 0 0.000725068 0.0011413 0 0.00065649 0.00107364 0 0.000591001 0.00101469 0 0.000528347 0.000963491 0 0.000468267 0.000919211 0 0.000410495 0.000881169 0 0.000354767 0.000848791 0 0.000300817 0.0008216 0 0.000248383 0.000799204 0 0.000197207 0.000781287 0 0.000147033 0.0007676 0 9.76074e-05 0.000757954 0 4.86795e-05 0.000752219 0 9.98581e-18 0.000750315 0 -0.0013821 0.00661888 0 -0.000421119 0.00628186 0 0.000291225 0.00565712 0 0.000724384 0.00502475 0 0.000971298 0.00444193 0 0.00109788 0.00393659 0 0.00115424 0.00350413 0 0.00116556 0.00313472 0 0.00114943 0.00281821 0 0.00111542 0.00254562 0 0.00107029 0.00230989 0 0.00101816 0.00210512 0 0.000961957 0.00192668 0 0.000903573 0.00177072 0 0.000844364 0.00163412 0 0.00078523 0.00151428 0 0.000726789 0.00140905 0 0.000669443 0.00131661 0 0.000613439 0.00123544 0 0.000558914 0.00116424 0 0.000505918 0.00110193 0 0.000454444 0.00104758 0 0.000404435 0.0010004 0 0.000355804 0.000959738 0 0.000308438 0.000925027 0 0.000262206 0.000895805 0 0.000216962 0.000871685 0 0.000172554 0.000852355 0 0.00012882 0.000837567 0 8.55954e-05 0.000827135 0 4.27122e-05 0.000820927 0 0 0.000818867 0 -0.00162158 0.00538823 0 -0.000968532 0.00517952 0 -0.000428897 0.00488238 0 -1.63592e-05 0.0045042 0 0.000277394 0.00411547 0 0.000478008 0.00374216 0 0.000608458 0.00339872 0 0.000688742 0.0030892 0 0.000732911 0.00281308 0 0.000751424 0.00256806 0 0.000751537 0.002351 0 0.000738539 0.00215889 0 0.000716196 0.0019888 0 0.000687269 0.00183818 0 0.00065377 0.00170475 0 0.000617183 0.00158654 0 0.000578598 0.00148184 0 0.000538819 0.00138917 0 0.000498431 0.00130724 0 0.000457853 0.00123495 0 0.000417383 0.00117135 0 0.000377218 0.0011156 0 0.000337486 0.00106701 0 0.000298255 0.00102497 0 0.00025955 0.000988966 0 0.000221362 0.000958573 0 0.000183657 0.000933428 0 0.000146379 0.000913237 0 0.000109458 0.000897768 0 7.28143e-05 0.000886842 0 3.63594e-05 0.000880336 0 0 0.000878176 0 -0.00172558 0.00450215 0 -0.00125798 0.00441624 0 -0.000838594 0.00423209 0 -0.000486682 0.00400239 0 -0.000205082 0.0037427 0 1.14948e-05 0.00347568 0 0.000173229 0.00321455 0 0.000290431 0.00296729 0 0.000372609 0.00273783 0 0.000427542 0.00252748 0 0.000461492 0.00233624 0 0.000479329 0.00216325 0 0.00048484 0.00200733 0 0.000480946 0.00186712 0 0.000469905 0.00174129 0 0.000453464 0.00162854 0 0.000432972 0.0015277 0 0.000409474 0.00143767 0 0.000383776 0.00135746 0 0.000356499 0.00128621 0 0.000328116 0.00122314 0 0.000298989 0.00116758 0 0.000269386 0.00111892 0 0.000239504 0.00107665 0 0.000209484 0.00104033 0 0.000179424 0.00100957 0 0.000149382 0.00098406 0 0.000119393 0.000963532 0 8.94687e-05 0.000947777 0 5.96061e-05 0.000936636 0 2.97904e-05 0.000929997 0 0 0.000927791 0 -0.00178662 0.00387812 0 -0.00142325 0.00381478 0 -0.00108846 0.00370918 0 -0.000792369 0.00355903 0 -0.00053993 0.00338295 0 -0.000331126 0.00319212 0 -0.000162788 0.00299674 0 -2.99985e-05 0.00280399 0 7.25808e-05 0.00261863 0 0.000150075 0.00244354 0 0.000207034 0.00228018 0 0.000247346 0.00212917 0 0.000274248 0.00199048 0 0.000290398 0.00186375 0 0.000297958 0.00174843 0 0.000298678 0.00164385 0 0.00029397 0.00154931 0 0.000284969 0.00146411 0 0.00027259 0.00138758 0 0.000257563 0.00131911 0 0.000240473 0.00125812 0 0.000221788 0.00120407 0 0.000201878 0.00115651 0 0.000181036 0.00111501 0 0.000159491 0.00107921 0 0.000137425 0.0010488 0 0.000114976 0.00102351 0 9.22517e-05 0.00100312 0 6.93344e-05 0.000987434 0 4.6288e-05 0.000976331 0 2.31626e-05 0.000969708 0 0 0.000967507 0 -0.001815 0.00337286 0 -0.00152272 0.00334441 0 -0.00124782 0.00327446 0 -0.000996961 0.00317613 0 -0.000774454 0.00305429 0 -0.00058183 0.00291718 0 -0.000418561 0.0027715 0 -0.000282657 0.00262287 0 -0.000171359 0.00247556 0 -8.16042e-05 0.0023326 0 -1.03625e-05 0.00219604 0 4.51841e-05 0.00206714 0 8.75515e-05 0.00194659 0 0.000118931 0.00183468 0 0.000141199 0.00173139 0 0.000155942 0.00163657 0 0.000164492 0.0015499 0 0.00016796 0.00147105 0 0.000167273 0.00139963 0 0.000163196 0.00133523 0 0.000156363 0.00127748 0 0.000147297 0.00122601 0 0.00013643 0.00118047 0 0.000124117 0.00114057 0 0.000110649 0.00110601 0 9.62692e-05 0.00107655 0 8.11754e-05 0.00105197 0 6.55335e-05 0.00103211 0 4.94828e-05 0.00101682 0 3.31422e-05 0.00100597 0 1.66163e-05 0.000999493 0 0 0.00099734 0 -0.00182421 0.00296999 0 -0.0015821 0.00295273 0 -0.00135111 0.0029109 0 -0.00113619 0.00284464 0 -0.000940426 0.00275974 0 -0.000765656 0.00266065 0 -0.000612301 0.00255206 0 -0.000479803 0.00243805 0 -0.000366862 0.00232205 0 -0.000271772 0.0022068 0 -0.000192632 0.00209431 0 -0.000127526 0.00198609 0 -7.46155e-05 0.00188313 0 -3.22085e-05 0.00178606 0 1.21741e-06 0.00169526 0 2.70067e-05 0.00161087 0 4.63324e-05 0.00153291 0 6.0208e-05 0.00146129 0 6.9504e-05 0.00139586 0 7.4964e-05 0.00133641 0 7.72213e-05 0.00128273 0 7.6814e-05 0.0012346 0 7.41987e-05 0.0011918 0 6.97629e-05 0.00115411 0 6.38361e-05 0.00112134 0 5.66989e-05 0.00109331 0 4.8592e-05 0.00106986 0 3.97232e-05 0.00105086 0 3.02746e-05 0.0010362 0 2.04079e-05 0.00102579 0 1.02705e-05 0.00101957 0 0 0.0010175 0 -0.00182059 0.00262926 0 -0.00161508 0.00262527 0 -0.00141769 0.00259958 0 -0.00123128 0.00255605 0 -0.00105842 0.00249683 0 -0.000900628 0.00242523 0 -0.000758704 0.00234437 0 -0.000632691 0.00225724 0 -0.0005221 0.0021665 0 -0.000426041 0.00207438 0 -0.000343387 0.00198273 0 -0.000272885 0.00189298 0 -0.000213257 0.00180622 0 -0.00016325 0.00172324 0 -0.000121687 0.0016446 0 -8.7482e-05 0.00157065 0 -5.96514e-05 0.00150162 0 -3.73171e-05 0.0014376 0 -1.97011e-05 0.0013786 0 -6.11951e-06 0.0013246 0 4.02592e-06 0.00127551 0 1.12571e-05 0.00123122 0 1.60283e-05 0.00119163 0 1.8735e-05 0.0011566 0 1.97219e-05 0.00112602 0 1.92908e-05 0.00109978 0 1.77069e-05 0.00107775 0 1.52056e-05 0.00105987 0 1.19982e-05 0.00104604 0 8.27717e-06 0.00103621 0 4.2212e-06 0.00103032 0 0 0.00102837 0 -0.00180701 0.00234059 0 -0.00163015 0.0023433 0 -0.00145882 0.0023304 0 -0.00129549 0.00230254 0 -0.00114193 0.00226188 0 -0.000999493 0.00221049 0 -0.000868954 0.00215058 0 -0.000750652 0.00208433 0 -0.000644495 0.00201376 0 -0.000550083 0.00194069 0 -0.00046678 0.00186665 0 -0.000393804 0.00179296 0 -0.000330292 0.00172064 0 -0.000275352 0.00165054 0 -0.000228101 0.00158328 0 -0.000187692 0.00151932 0 -0.000153331 0.001459 0 -0.000124283 0.00140255 0 -9.98809e-05 0.0013501 0 -7.95185e-05 0.00130172 0 -6.26535e-05 0.00125746 0 -4.88007e-05 0.00121729 0 -3.75279e-05 0.00118118 0 -2.84499e-05 0.00114909 0 -2.12235e-05 0.00112097 0 -1.55417e-05 0.00109674 0 -1.11287e-05 0.00107635 0 -7.73456e-06 0.00105975 0 -5.13081e-06 0.0010469 0 -3.1055e-06 0.00103774 0 -1.45904e-06 0.00103226 0 0 0.00103043 0 -0.00178667 0.00208968 0 -0.00163209 0.00209868 0 -0.00148181 0.00209437 0 -0.00133735 0.00207815 0 -0.00120015 0.00205113 0 -0.00107126 0.00201487 0 -0.000951435 0.00197096 0 -0.000841084 0.00192099 0 -0.000740329 0.00186652 0 -0.000649039 0.00180898 0 -0.00056689 0.00174966 0 -0.000493414 0.00168968 0 -0.00042805 0.00162998 0 -0.000370177 0.00157136 0 -0.000319152 0.00151444 0 -0.000274333 0.00145974 0 -0.000235094 0.00140764 0 -0.000200839 0.00135845 0 -0.000171008 0.00131238 0 -0.000145084 0.00126959 0 -0.000122588 0.00123017 0 -0.000103083 0.0011942 0 -8.61712e-05 0.00116169 0 -7.14909e-05 0.00113267 0 -5.87125e-05 0.00110713 0 -4.75354e-05 0.00108506 0 -3.76846e-05 0.00106643 0 -2.89067e-05 0.00105123 0 -2.09659e-05 0.00103943 0 -1.36407e-05 0.00103102 0 -6.72007e-06 0.00102597 0 0 0.00102429 0 -0.00176074 0.0018703 0 -0.00162457 0.00188334 0 -0.00149146 0.00188574 0 -0.00136272 0.00187804 0 -0.00123942 0.00186127 0 -0.00112244 0.0018365 0 -0.00101241 0.00180491 0 -0.000909779 0.0017677 0 -0.000814747 0.00172608 0 -0.000727341 0.00168119 0 -0.000647425 0.00163407 0 -0.000574742 0.00158567 0 -0.000508938 0.00153682 0 -0.000449594 0.00148824 0 -0.000396253 0.00144054 0 -0.000348438 0.00139423 0 -0.000305666 0.0013497 0 -0.000267463 0.00130729 0 -0.000233374 0.00126727 0 -0.000202961 0.00122983 0 -0.000175815 0.00119513 0 -0.000151552 0.00116328 0 -0.000129814 0.00113435 0 -0.000110271 0.00110842 0 -9.26138e-05 0.0010855 0 -7.6558e-05 0.00106562 0 -6.18376e-05 0.0010488 0 -4.82039e-05 0.00103505 0 -3.54224e-05 0.00102435 0 -2.32699e-05 0.00101671 0 -1.1532e-05 0.00101213 0 0 0.0010106 0 -0.00173095 0.00167623 0 -0.00160992 0.00169254 0 -0.0014912 0.00169974 0 -0.00137572 0.00169849 0 -0.00126435 0.00168947 0 -0.0011578 0.0016735 0 -0.00105663 0.00165147 0 -0.000961253 0.00162431 0 -0.00087191 0.00159296 0 -0.00078871 0.00155833 0 -0.000711632 0.00152127 0 -0.000640554 0.00148258 0 -0.000575265 0.00144298 0 -0.000515494 0.00140309 0 -0.000460921 0.00136349 0 -0.0004112 0.00132463 0 -0.000365966 0.00128694 0 -0.000324849 0.00125074 0 -0.000287481 0.00121632 0 -0.000253505 0.0011839 0 -0.000222573 0.00115366 0 -0.000194355 0.00112575 0 -0.000168536 0.00110029 0 -0.00014482 0.00107735 0 -0.000122925 0.00105701 0 -0.000102587 0.00103931 0 -8.35545e-05 0.00102429 0 -6.55909e-05 0.00101198 0 -4.84687e-05 0.00100238 0 -3.19697e-05 0.000995522 0 -1.58825e-05 0.000991404 0 0 0.00099003 0 -0.00169827 0.00150364 0 -0.00159011 0.00152212 0 -0.00148356 0.00153294 0 -0.00137941 0.00153649 0 -0.00127834 0.00153335 0 -0.00118095 0.00152414 0 -0.00108773 0.00150956 0 -0.000999058 0.00149034 0 -0.000915175 0.00146721 0 -0.000836237 0.0014409 0 -0.00076229 0.00141211 0 -0.000693298 0.00138151 0 -0.00062915 0.00134971 0 -0.000569677 0.00131727 0 -0.000514664 0.00128468 0 -0.000463864 0.00125239 0 -0.000417005 0.00122077 0 -0.000373803 0.00119016 0 -0.000333967 0.00116083 0 -0.000297207 0.00113302 0 -0.000263235 0.00110693 0 -0.000231769 0.00108272 0 -0.000202538 0.00106052 0 -0.00017528 0.00104044 0 -0.000149742 0.00102257 0 -0.000125684 0.00100696 0 -0.000102874 0.000993688 0 -8.10901e-05 0.000982777 0 -6.01168e-05 0.000974263 0 -3.97458e-05 0.000968167 0 -1.97736e-05 0.000964504 0 0 0.000963282 0 -0.00166382 0.00134916 0 -0.0015666 0.00136914 0 -0.00147049 0.0013825 0 -0.00137608 0.00138961 0 -0.00128397 0.00139091 0 -0.00119465 0.0013869 0 -0.00110855 0.00137812 0 -0.001026 0.00136515 0 -0.000947257 0.00134858 0 -0.000872478 0.001329 0 -0.000801756 0.00130699 0 -0.000735108 0.00128311 0 -0.00067249 0.00125786 0 -0.000613805 0.00123174 0 -0.000558916 0.00120519 0 -0.00050765 0.0011786 0 -0.000459811 0.00115231 0 -0.000415182 0.00112666 0 -0.000373537 0.00110189 0 -0.000334643 0.00107826 0 -0.000298263 0.00105595 0 -0.000264162 0.00103514 0 -0.000232108 0.00101597 0 -0.000201874 0.000998558 0 -0.000173236 0.000983 0 -0.000145979 0.000969378 0 -0.000119891 0.000957755 0 -9.47691e-05 0.000948183 0 -7.04128e-05 0.000940699 0 -4.66268e-05 0.000935335 0 -2.32191e-05 0.000932108 0 0 0.000931031 0 -0.00162841 0.00121026 0 -0.00154063 0.00123106 0 -0.0014535 0.00124616 0 -0.00136756 0.00125584 0 -0.00128327 0.00126046 0 -0.00120107 0.0012604 0 -0.00112132 0.00125611 0 -0.00104434 0.00124806 0 -0.00097036 0.00123672 0 -0.000899549 0.00122256 0 -0.000832017 0.00120608 0 -0.000767818 0.00118773 0 -0.000706951 0.00116796 0 -0.000649373 0.00114717 0 -0.000595 0.00112576 0 -0.000543718 0.00110407 0 -0.000495385 0.00108243 0 -0.000449843 0.00106112 0 -0.000406916 0.0010404 0 -0.00036642 0.00102049 0 -0.000328164 0.00100159 0 -0.000291952 0.000983862 0 -0.000257589 0.000967454 0 -0.000224879 0.000952489 0 -0.000193628 0.00093907 0 -0.000163644 0.000927284 0 -0.000134739 0.000917202 0 -0.000106728 0.00090888 0 -7.94276e-05 0.000902364 0 -5.2658e-05 0.000897686 0 -2.6241e-05 0.000894871 0 -9.91429e-19 0.00089393 0 -0.0015928 0.00108476 0 -0.00151318 0.00110589 0 -0.00143385 0.00112205 0 -0.00135526 0.00113351 0 -0.00127782 0.00114053 0 -0.00120191 0.00114344 0 -0.00112784 0.0011426 0 -0.00105589 0.00113838 0 -0.000986292 0.00113116 0 -0.000919203 0.00112136 0 -0.000854748 0.00110936 0 -0.000793 0.00109555 0 -0.000733991 0.0010803 0 -0.00067771 0.00106398 0 -0.000624115 0.00104692 0 -0.000573135 0.00102942 0 -0.000524673 0.00101178 0 -0.000478613 0.000994247 0 -0.000434822 0.000977068 0 -0.000393157 0.000960446 0 -0.000353464 0.000944569 0 -0.000315584 0.000929599 0 -0.000279352 0.000915678 0 -0.000244603 0.000902929 0 -0.00021117 0.000891456 0 -0.000178884 0.000881349 0 -0.000147579 0.00087268 0 -0.000117089 0.00086551 0 -8.72494e-05 0.000859885 0 -5.78965e-05 0.000855843 0 -2.88674e-05 0.000853407 0 -6.05594e-18 0.000852594 0 -0.00155759 0.00097088 0 -0.00148505 0.000991885 0 -0.0014125 0.00100858 0 -0.00134034 0.00102116 0 -0.00126892 0.00102986 0 -0.00119856 0.00103494 0 -0.00112955 0.00103669 0 -0.00106214 0.00103542 0 -0.000996537 0.00103144 0 -0.000932901 0.00102509 0 -0.00087136 0.0010167 0 -0.000811999 0.00100658 0 -0.000754869 0.000995064 0 -0.000699984 0.000982451 0 -0.000647333 0.000969032 0 -0.000596875 0.000955081 0 -0.000548547 0.00094085 0 -0.000502268 0.000926572 0 -0.00045794 0.000912462 0 -0.000415453 0.000898712 0 -0.000374684 0.000885494 0 -0.000335504 0.000872963 0 -0.000297779 0.000861255 0 -0.000261368 0.000850487 0 -0.000226129 0.000840762 0 -0.000191917 0.000832169 0 -0.000158585 0.000824779 0 -0.000125987 0.000818653 0 -9.39771e-05 0.000813841 0 -6.24069e-05 0.000810377 0 -3.11301e-05 0.000808289 0 -7.80231e-19 0.000807591 0 -0.0015233 0.000867072 0 -0.00145691 0.000887606 0 -0.00139028 0.000904386 0 -0.00132374 0.000917574 0 -0.0012576 0.000927359 0 -0.00119215 0.000933956 0 -0.00112764 0.000937603 0 -0.0010643 0.000938552 0 -0.00100232 0.000937068 0 -0.000941863 0.000933425 0 -0.000883044 0.000927897 0 -0.00082596 0.000920759 0 -0.000770673 0.000912281 0 -0.000717218 0.000902723 0 -0.000665602 0.000892337 0 -0.000615808 0.000881359 0 -0.000567801 0.000870014 0 -0.000521526 0.000858509 0 -0.000476912 0.000847034 0 -0.000433876 0.000835766 0 -0.000392323 0.000824863 0 -0.00035215 0.000814466 0 -0.000313246 0.000804704 0 -0.000275496 0.000795688 0 -0.000238777 0.000787516 0 -0.000202968 0.000780271 0 -0.000167939 0.000774025 0 -0.000133565 0.000768837 0 -9.97143e-05 0.000764753 0 -6.62573e-05 0.000761811 0 -3.30629e-05 0.000760036 0 0 0.000759442 0 -0.00149034 0.000772024 0 -0.00142931 0.000791793 0 -0.00136784 0.000808293 0 -0.00130621 0.000821656 0 -0.00124471 0.000832038 0 -0.00118359 0.000839617 0 -0.00112308 0.000844588 0 -0.00106338 0.000847161 0 -0.00100468 0.000847554 0 -0.000947109 0.000845996 0 -0.000890804 0.000842717 0 -0.000835859 0.000837949 0 -0.000782342 0.000831919 0 -0.0007303 0.000824852 0 -0.000679756 0.000816962 0 -0.000630711 0.000808456 0 -0.000583149 0.000799529 0 -0.000537037 0.000790365 0 -0.000492326 0.000781133 0 -0.000448956 0.00077199 0 -0.000406853 0.00076308 0 -0.000365936 0.000754534 0 -0.000326116 0.000746467 0 -0.000287298 0.000738983 0 -0.000249381 0.000732174 0 -0.000212258 0.000726119 0 -0.000175823 0.000720885 0 -0.000139963 0.000716527 0 -0.000104566 0.000713092 0 -6.95165e-05 0.000710613 0 -3.47e-05 0.000709117 0 0 0.000708616 0 -0.00145908 0.000684592 0 -0.0014027 0.000703355 0 -0.00134572 0.000719273 0 -0.00128839 0.000732457 0 -0.00123096 0.000743035 0 -0.00117365 0.000751155 0 -0.00111668 0.000756978 0 -0.00106022 0.000760676 0 -0.00100445 0.000762433 0 -0.000949496 0.00076244 0 -0.000895491 0.000760888 0 -0.000842527 0.000757973 0 -0.000790678 0.000753888 0 -0.000739999 0.000748825 0 -0.000690523 0.000742967 0 -0.000642267 0.000736492 0 -0.000595227 0.000729572 0 -0.000549388 0.000722364 0 -0.000504719 0.000715021 0 -0.000461177 0.000707681 0 -0.000418708 0.000700473 0 -0.00037725 0.000693514 0 -0.00033673 0.000686909 0 -0.000297072 0.000680753 0 -0.000258192 0.00067513 0 -0.000220002 0.000670113 0 -0.000182409 0.000665765 0 -0.000145319 0.000662137 0 -0.000108633 0.000659271 0 -7.22519e-05 0.000657201 0 -3.60748e-05 0.00065595 0 0 0.000655532 0 -0.00142978 0.000603774 0 -0.00137745 0.000621329 0 -0.00132438 0.000636417 0 -0.00127079 0.00064913 0 -0.00121692 0.000659574 0 -0.00116295 0.00066787 0 -0.00110909 0.000674152 0 -0.0010555 0.000678563 0 -0.00100234 0.000681256 0 -0.000949745 0.000682389 0 -0.000897822 0.000682125 0 -0.000846671 0.000680626 0 -0.000796371 0.000678058 0 -0.000746979 0.000674581 0 -0.000698538 0.000670353 0 -0.000651073 0.000665528 0 -0.000604595 0.000660252 0 -0.000559099 0.000654664 0 -0.00051457 0.000648895 0 -0.000470978 0.000643069 0 -0.000428286 0.000637299 0 -0.000386446 0.000631689 0 -0.000345402 0.000626333 0 -0.000305093 0.000621317 0 -0.00026545 0.000616717 0 -0.0002264 0.000612598 0 -0.000187865 0.000609017 0 -0.000149764 0.000606023 0 -0.000112013 0.000603655 0 -7.45277e-05 0.000601942 0 -3.72194e-05 0.000600905 0 0 0.000600558 0 -0.0014027 0.000528681 0 -0.00135387 0.000544863 0 -0.00130418 0.000558917 0 -0.00125384 0.000570918 0 -0.00120306 0.000580953 0 -0.00115201 0.000589124 0 -0.00110088 0.000595539 0 -0.00104982 0.000600319 0 -0.000998968 0.000603591 0 -0.000948459 0.000605485 0 -0.000898403 0.000606138 0 -0.000848893 0.000605686 0 -0.000800008 0.000604269 0 -0.00075181 0.000602022 0 -0.000704347 0.00059908 0 -0.000657652 0.000595573 0 -0.000611744 0.000591628 0 -0.000566629 0.000587363 0 -0.000522303 0.000582894 0 -0.000478749 0.000578326 0 -0.000435941 0.000573759 0 -0.000393845 0.000569285 0 -0.000352418 0.000564987 0 -0.000311612 0.000560941 0 -0.000271372 0.000557214 0 -0.000231636 0.000553865 0 -0.000192341 0.000550945 0 -0.000153418 0.000548498 0 -0.000114797 0.000546559 0 -7.6404e-05 0.000545154 0 -3.81636e-05 0.000544304 0 -1.29788e-18 0.000544019 0 -0.00137804 0.000458523 0 -0.00133221 0.000473195 0 -0.00128543 0.000486045 0 -0.00123789 0.000497135 0 -0.00118978 0.000506536 0 -0.00114126 0.00051433 0 -0.0010925 0.00052061 0 -0.00104364 0.000525474 0 -0.000994814 0.000529026 0 -0.000946147 0.000531375 0 -0.000897744 0.000532635 0 -0.000849698 0.00053292 0 -0.000802088 0.000532345 0 -0.000754978 0.000531026 0 -0.00070842 0.000529075 0 -0.000662452 0.000526603 0 -0.000617101 0.000523717 0 -0.00057238 0.00052052 0 -0.000528293 0.000517109 0 -0.000484835 0.000513576 0 -0.00044199 0.000510006 0 -0.000399733 0.00050648 0 -0.000358035 0.00050307 0 -0.000316856 0.000499841 0 -0.000276154 0.000496854 0 -0.000235879 0.00049416 0 -0.000195978 0.000491805 0 -0.000156394 0.000489826 0 -0.000117067 0.000488255 0 -7.79355e-05 0.000487115 0 -3.89349e-05 0.000486424 0 -3.185e-18 0.000486193 0 -0.00135595 0.000392584 0 -0.00131268 0.000405634 0 -0.00126838 0.000417142 0 -0.00122323 0.000427156 0 -0.00117741 0.000435737 0 -0.00113106 0.000442951 0 -0.00108433 0.000448873 0 -0.00103737 0.000453583 0 -0.000990296 0.000457168 0 -0.00094323 0.000459718 0 -0.000896273 0.000461326 0 -0.000849515 0.000462086 0 -0.000803034 0.000462095 0 -0.000756897 0.000461448 0 -0.000711158 0.000460239 0 -0.000665859 0.000458562 0 -0.000621031 0.000456505 0 -0.000576696 0.000454155 0 -0.000532864 0.000451595 0 -0.000489537 0.000448903 0 -0.000446708 0.000446152 0 -0.000404362 0.00044341 0 -0.000362478 0.000440738 0 -0.000321025 0.000438195 0 -0.000279972 0.000435831 0 -0.000239277 0.000433691 0 -0.000198899 0.000431813 0 -0.000158789 0.000430233 0 -0.000118897 0.000428975 0 -7.91717e-05 0.000428061 0 -3.95578e-05 0.000427507 0 -1.03211e-19 0.000427322 0 -0.00133657 0.000330215 0 -0.00129544 0.000341552 0 -0.00125324 0.000351604 0 -0.0012101 0.00036041 0 -0.0011662 0.000368017 0 -0.00112169 0.000374482 0 -0.00107669 0.000379863 0 -0.00103134 0.000384227 0 -0.000985759 0.000387642 0 -0.000940063 0.000390183 0 -0.000894346 0.000391924 0 -0.0008487 0.000392944 0 -0.0008032 0.000393321 0 -0.000757914 0.000393133 0 -0.000712898 0.000392458 0 -0.000668197 0.000391371 0 -0.000623847 0.000389948 0 -0.000579874 0.00038826 0 -0.000536294 0.000386376 0 -0.000493114 0.000384361 0 -0.000450336 0.000382275 0 -0.00040795 0.000380176 0 -0.000365944 0.000378116 0 -0.000324295 0.000376143 0 -0.000282979 0.0003743 0 -0.000241963 0.000372625 0 -0.000201213 0.000371152 0 -0.00016069 0.000369908 0 -0.000120353 0.000368917 0 -8.0156e-05 0.000368196 0 -4.00541e-05 0.000367758 0 0 0.000367611 0 -0.00132 0.000270818 0 -0.00128065 0.000280368 0 -0.00124016 0.000288873 0 -0.0011987 0.000296362 0 -0.00115639 0.000302875 0 -0.00111339 0.000308453 0 -0.00106982 0.000313146 0 -0.00102582 0.000317005 0 -0.000981483 0.000320086 0 -0.000936931 0.000322446 0 -0.000892257 0.000324147 0 -0.000847547 0.00032525 0 -0.000802878 0.000325817 0 -0.000758317 0.000325913 0 -0.000713922 0.000325599 0 -0.000669741 0.000324937 0 -0.000625811 0.000323986 0 -0.000582163 0.000322805 0 -0.000538816 0.00032145 0 -0.000495785 0.000319973 0 -0.000453074 0.000318424 0 -0.000410682 0.00031685 0 -0.0003686 0.000315294 0 -0.000326815 0.000313794 0 -0.000285305 0.000312387 0 -0.000244049 0.000311104 0 -0.000203015 0.000309971 0 -0.000162174 0.000309012 0 -0.00012149 0.000308247 0 -8.0926e-05 0.00030769 0 -4.04426e-05 0.000307351 0 0 0.000307238 0 -0.00130634 0.000213838 0 -0.00126841 0.000221543 0 -0.0012293 0.000228428 0 -0.00118917 0.000234516 0 -0.00114814 0.000239836 0 -0.00110636 0.000244421 0 -0.00106394 0.000248308 0 -0.00102102 0.000251537 0 -0.000977694 0.000254151 0 -0.00093407 0.000256195 0 -0.000890242 0.000257715 0 -0.000846296 0.000258759 0 -0.000802307 0.000259376 0 -0.000758342 0.000259614 0 -0.000714461 0.000259523 0 -0.000670712 0.000259149 0 -0.000627136 0.00025854 0 -0.000583766 0.000257741 0 -0.000540625 0.000256796 0 -0.000497731 0.000255745 0 -0.000455092 0.000254629 0 -0.000412713 0.000253483 0 -0.000370588 0.000252342 0 -0.000328709 0.000251236 0 -0.000287062 0.000250194 0 -0.000245628 0.00024924 0 -0.000204384 0.000248395 0 -0.000163303 0.000247679 0 -0.000122357 0.000247107 0 -8.15133e-05 0.000246689 0 -4.07392e-05 0.000246435 0 0 0.00024635 0 -0.00129565 0.000158753 0 -0.0012588 0.000164569 0 -0.00122075 0.000169779 0 -0.00118163 0.000174399 0 -0.00114159 0.000178452 0 -0.00110074 0.000181961 0 -0.00105921 0.000184952 0 -0.00101712 0.000187455 0 -0.00097457 0.000189501 0 -0.000931662 0.000191123 0 -0.000888489 0.000192354 0 -0.000845134 0.00019323 0 -0.000801674 0.000193786 0 -0.000758175 0.000194058 0 -0.000714697 0.000194081 0 -0.000671289 0.00019389 0 -0.000627995 0.000193521 0 -0.000584848 0.000193006 0 -0.000541875 0.000192377 0 -0.000499097 0.000191664 0 -0.000456525 0.000190898 0 -0.000414165 0.000190104 0 -0.000372019 0.000189308 0 -0.00033008 0.000188533 0 -0.000288338 0.0001878 0 -0.000246778 0.000187127 0 -0.000205383 0.000186529 0 -0.000164129 0.000186022 0 -0.000122991 0.000185615 0 -8.19437e-05 0.000185319 0 -4.09566e-05 0.000185138 0 0 0.000185078 0 -0.00128798 0.000105067 0 -0.00125189 0.000108962 0 -0.00121459 0.000112457 0 -0.00117619 0.000115563 0 -0.00113684 0.000118294 0 -0.00109665 0.000120666 0 -0.00105575 0.000122696 0 -0.00101425 0.000124402 0 -0.000972246 0.000125806 0 -0.000929846 0.000126929 0 -0.000887138 0.000127793 0 -0.000844205 0.000128421 0 -0.000801122 0.000128835 0 -0.000757957 0.00012906 0 -0.000714768 0.000129119 0 -0.000671607 0.000129034 0 -0.000628516 0.000128829 0 -0.000585533 0.000128525 0 -0.000542685 0.000128143 0 -0.000499994 0.000127704 0 -0.000457475 0.000127227 0 -0.000415135 0.000126729 0 -0.000372979 0.000126227 0 -0.000331003 0.000125736 0 -0.0002892 0.00012527 0 -0.000247558 0.000124841 0 -0.000206061 0.00012446 0 -0.00016469 0.000124135 0 -0.000123424 0.000123875 0 -8.2237e-05 0.000123685 0 -4.11048e-05 0.00012357 0 0 0.000123531 0 -0.00128337 5.23044e-05 0 -0.00124773 5.4257e-05 0 -0.00121087 5.60108e-05 0 -0.0011729 5.75715e-05 0 -0.00113396 5.89457e-05 0 -0.00109417 6.01413e-05 0 -0.00105364 6.11667e-05 0 -0.00101249 6.20314e-05 0 -0.000970815 6.27454e-05 0 -0.000928719 6.33192e-05 0 -0.000886289 6.37638e-05 0 -0.000843609 6.40905e-05 0 -0.000800752 6.43109e-05 0 -0.000757787 6.44364e-05 0 -0.000714772 6.44786e-05 0 -0.00067176 6.44489e-05 0 -0.000628793 6.43585e-05 0 -0.000585909 6.42184e-05 0 -0.000543138 6.40389e-05 0 -0.000500501 6.383e-05 0 -0.000458016 6.36012e-05 0 -0.000415691 6.33615e-05 0 -0.000373531 6.31189e-05 0 -0.000331536 6.28812e-05 0 -0.000289699 6.2655e-05 0 -0.000248009 6.24465e-05 0 -0.000206454 6.2261e-05 0 -0.000165016 6.2103e-05 0 -0.000123674 6.19762e-05 0 -8.24074e-05 6.18836e-05 0 -4.11909e-05 6.18272e-05 0 0 6.18083e-05 0 -0.00128182 -0 0 -0.00124634 -9.40871e-18 0 -0.00120962 -7.52166e-18 0 -0.0011718 -0 0 -0.001133 -1.34034e-19 0 -0.00109334 -9.87043e-18 0 -0.00105293 -4.86572e-18 0 -0.0010119 -0 0 -0.000970332 -0 0 -0.000928336 -0 0 -0.000885999 -0 0 -0.000843403 -0 0 -0.000800622 -0 0 -0.000757724 9.46813e-19 0 -0.000714767 7.59431e-18 0 -0.000671804 1.2716e-18 0 -0.000628879 -0 0 -0.000586029 -0 0 -0.000543283 1.30148e-18 0 -0.000500665 5.24546e-18 0 -0.000458191 4.0992e-19 0 -0.000415871 -0 0 -0.000373711 -0 0 -0.00033171 -0 0 -0.000289861 -0 0 -0.000248157 -0 0 -0.000206583 -0 0 -0.000165123 -0 0 -0.000123757 -0 0 -8.24632e-05 -0 0 -4.12191e-05 -0 0 0 -0 0 </DataArray> 
</PointData> 
<Points> 
<DataArray type="Float32" NumberOfComponents="3"> 