<?xml version="1.0"?> 
<VTKFile type="StructuredGrid" version="0.1"> 
<StructuredGrid WholeExtent="0 31 0 31 0 0"> 
<Piece Extent="0 31 0 31 0 0"> 
<PointData>
<DataArray type="Float32" Name="B" format="ascii" NumberOfComponents="3"> 
0 0.000199369 0 3.51327e-05 0.000200486 0 7.05941e-05 0.000203457 0 0.000106709 0.000208467 0 0.000143825 0.000215732 0 0.000182291 0.000225084 0 0.000222478 0.000237002 0 0.000264789 0.000251513 0 0.000309644 0.000268697 0 0.00035751 0.000289461 0 0.0004089 0.000313564 0 0.000464366 0.000341731 0 0.000524547 0.000374788 0 0.000590142 0.000412805 0 0.000661937 0.000457475 0 0.000740855 0.000509323 0 0.000827913 0.00056917 0 0.000924323 0.000640361 0 0.0010315 0.000722876 0 0.00115107 0.000820092 0 0.00128512 0.000935864 0 0.00143616 0.00107164 0 0.00160747 0.00123615 0 0.00180366 0.00143358 0 0.00203131 0.00167211 0 0.00230105 0.00196657 0 0.00263105 0.00233535 0 0.00305597 0.00281077 0 0.00365063 0.00345638 0 0.00461198 0.00442455 0 0.00671001 0.00627431 0 0.0741434 0.0347322 0 0 0.000187573 0 3.57777e-05 0.000188628 0 7.18947e-05 0.000191434 0 0.000108687 0.000196166 0 0.000146512 0.00020303 0 0.000185734 0.000211867 0 0.000226736 0.000223131 0 0.000269937 0.000236851 0 0.000315776 0.000253102 0 0.000364742 0.000272749 0 0.000417372 0.000295565 0 0.000474251 0.000322241 0 0.000536055 0.000353569 0 0.000603527 0.000389618 0 0.000677513 0.000432009 0 0.000759005 0.000481247 0 0.000849106 0.000538123 0 0.00094914 0.000605841 0 0.00106066 0.000684385 0 0.00118548 0.000776983 0 0.0013259 0.000887308 0 0.00148475 0.00101671 0 0.00166571 0.00117337 0 0.001874 0.00136106 0 0.00211703 0.001587 0 0.00240682 0.00186401 0 0.00276407 0.00220665 0 0.00322844 0.00263847 0 0.00388652 0.00319951 0 0.00496881 0.00396053 0 0.00736202 0.00498254 0 0.0149098 0.000178492 0 0 0.000175568 0 3.63853e-05 0.000176559 0 7.31201e-05 0.000179196 0 0.00011055 0.000183642 0 0.000149045 0.000190091 0 0.00018898 0.000198396 0 0.00023075 0.000208985 0 0.000274793 0.000221885 0 0.000321561 0.000237171 0 0.000371567 0.000255659 0 0.000425373 0.000277137 0 0.00048359 0.000302261 0 0.000546934 0.000331784 0 0.000616191 0.000365775 0 0.000692259 0.000405772 0 0.000776199 0.000452262 0 0.000869199 0.000506 0 0.000972686 0.000570031 0 0.00108835 0.000644344 0 0.00121816 0.000731999 0 0.00136465 0.000836461 0 0.0015309 0.000958961 0 0.00172096 0.00110711 0 0.00194052 0.00128417 0 0.00219763 0.00149636 0 0.00250529 0.00175422 0 0.00288561 0.00206817 0 0.00338057 0.00245216 0 0.00407968 0.00292093 0 0.00520739 0.00346237 0 0.00744772 0.00375391 0 0.0108713 0.000167603 0 4.19386e-18 0.000163368 0 3.69545e-05 0.000164293 0 7.42679e-05 0.000166755 0 0.000112296 0.000170907 0 0.000151418 0.00017693 0 0.000192021 0.000184687 0 0.000234513 0.000194579 0 0.000279345 0.000206635 0 0.000326988 0.000220923 0 0.000377972 0.000238211 0 0.000432884 0.000258303 0 0.000492363 0.000281818 0 0.000557158 0.000309463 0 0.000628098 0.000341308 0 0.000706133 0.000378805 0 0.000792389 0.000422415 0 0.00088813 0.000472854 0 0.000994885 0.000532996 0 0.00111446 0.000602831 0 0.001249 0.000685236 0 0.00140121 0.00078345 0 0.00157441 0.000898577 0 0.00177296 0.00103761 0 0.0020029 0.00120327 0 0.00227271 0.00140074 0 0.00259587 0.00163824 0 0.00299486 0.00192192 0 0.00351118 0.00225633 0 0.004229 0.00263282 0 0.00533604 0.00297446 0 0.00721844 0.00281162 0 0.00905586 0.000200343 0 0 0.000150986 0 3.74841e-05 0.000151843 0 7.53361e-05 0.000154126 0 0.000113921 0.000157975 0 0.000153627 0.000163561 0 0.000194853 0.000170755 0 0.000238017 0.000179931 0 0.000283586 0.000191117 0 0.000332045 0.000204378 0 0.000383942 0.000220429 0 0.000439887 0.00023909 0 0.000500546 0.000260938 0 0.000566701 0.000286638 0 0.000639219 0.000316255 0 0.000719098 0.000351149 0 0.000807526 0.000391755 0 0.000905842 0.000438744 0 0.00101567 0.000494806 0 0.00113892 0.000559931 0 0.00127789 0.000636799 0 0.00143545 0.000728408 0 0.00161513 0.000835731 0 0.00182151 0.000965103 0 0.00206089 0.00111875 0 0.00234197 0.00130076 0 0.0026782 0.00151709 0 0.00309147 0.00176993 0 0.00362036 0.00205535 0 0.00433743 0.00234596 0 0.00537893 0.00252646 0 0.00689002 0.00214367 0 0.00799244 0.000221175 0 0 0.000138434 0 3.79731e-05 0.000139223 0 7.63224e-05 0.000141321 0 0.000115421 0.000144861 0 0.000155667 0.000149998 0 0.000197468 0.000156615 0 0.000241255 0.000165058 0 0.000287505 0.000175351 0 0.000336719 0.000187557 0 0.000389463 0.000202335 0 0.000446366 0.000219522 0 0.00050812 0.000239653 0 0.000575537 0.000263342 0 0.00064952 0.000290655 0 0.000731115 0.00032285 0 0.000821564 0.000360335 0 0.000922275 0.000403732 0 0.00103496 0.000455536 0 0.00116164 0.000515735 0 0.00130471 0.000586801 0 0.00146723 0.000671479 0 0.00165288 0.00077061 0 0.00186642 0.000889865 0 0.00211428 0.00103097 0 0.00240516 0.00119701 0 0.00275212 0.00139184 0 0.00317553 0.00161412 0 0.00370924 0.00185309 0 0.00441062 0.00206854 0 0.00536392 0.00213128 0 0.00656436 0.00167206 0 0.00729052 0.000229319 0 -1.42935e-17 0.000125727 0 3.84207e-05 0.000126445 0 7.72252e-05 0.000128356 0 0.000116794 0.00013158 0 0.000157535 0.000136258 0 0.000199863 0.000142286 0 0.00024422 0.000149977 0 0.000291095 0.000159356 0 0.000341001 0.00017048 0 0.000394523 0.000183954 0 0.000452307 0.000199628 0 0.000515067 0.000217992 0 0.000583644 0.000239612 0 0.000658978 0.000264548 0 0.000742152 0.000293956 0 0.000834464 0.000328211 0 0.000937383 0.000367885 0 0.0010527 0.000415266 0 0.00118253 0.000470339 0 0.00132939 0.000535361 0 0.00149645 0.000612813 0 0.00168755 0.000703411 0 0.00190755 0.000812162 0 0.00216293 0.00094033 0 0.0024622 0.00109009 0 0.00281769 0.00126344 0 0.00324759 0.00145621 0 0.00377987 0.00165267 0 0.00445567 0.0018057 0 0.00531514 0.00178978 0 0.00627613 0.00132986 0 0.0067939 0.00022736 0 0 0.000112878 0 3.8826e-05 0.000113524 0 7.80428e-05 0.000115244 0 0.000118038 0.000118145 0 0.000159227 0.000122356 0 0.000202032 0.000127782 0 0.000246906 0.000134707 0 0.000294348 0.000143152 0 0.000344884 0.000153172 0 0.000399111 0.00016531 0 0.000457695 0.000179434 0 0.00052137 0.000195989 0 0.000591004 0.000215484 0 0.000667565 0.000237978 0 0.000752178 0.000264517 0 0.000846188 0.000295441 0 0.000951119 0.000331272 0 0.00106883 0.000374079 0 0.00120154 0.000423846 0 0.00135184 0.000482604 0 0.00152302 0.000552569 0 0.00171902 0.000634335 0 0.00194478 0.000732261 0 0.00220673 0.000847209 0 0.00251306 0.000980549 0 0.00287509 0.00113277 0 0.00330843 0.00129761 0 0.00383466 0.00145632 0 0.00447954 0.00155992 0 0.00524997 0.0014965 0 0.00603238 0.00107198 0 0.00642759 0.000217692 0 0 9.99012e-05 0 3.91877e-05 0.000100474 0 7.87725e-05 0.000102 0 0.000119148 0.000104573 0 0.000160737 0.000108308 0 0.000203969 0.000113122 0 0.000249305 0.000119266 0 0.000297254 0.00012676 0 0.000348352 0.000135653 0 0.00040321 0.000146429 0 0.000462511 0.000158971 0 0.000527005 0.000173675 0 0.000597586 0.000190996 0 0.000675249 0.000210988 0 0.000761152 0.000234584 0 0.000856685 0.000262088 0 0.000963423 0.000293966 0 0.00108329 0.000332062 0 0.00121857 0.000376359 0 0.00137195 0.000428658 0 0.00154681 0.000490906 0 0.00174716 0.000563586 0 0.00197797 0.000650432 0 0.00224557 0.000751966 0 0.00255771 0.000868907 0 0.00292455 0.00100057 0 0.0033589 0.00113942 0 0.00387605 0.00126544 0 0.00448834 0.00133159 0 0.0051799 0.00124375 0 0.00583124 0.000869724 0 0.00615114 0.000202174 0 -1.43265e-18 8.68117e-05 0 3.95063e-05 8.73107e-05 0 7.94151e-05 8.86388e-05 0 0.000120126 9.08792e-05 0 0.000162067 9.41315e-05 0 0.000205676 9.83228e-05 0 0.000251419 0.000103673 0 0.000299814 0.000110201 0 0.000351408 0.000117948 0 0.000406824 0.000127337 0 0.000466757 0.000138267 0 0.000531976 0.000151085 0 0.000603393 0.000166188 0 0.000682029 0.000183624 0 0.000769074 0.000204211 0 0.000865954 0.000228214 0 0.00097429 0.000256042 0 0.00109606 0.000289306 0 0.00123361 0.00032799 0 0.00138971 0.000373657 0 0.00156781 0.000427989 0 0.00177196 0.000491369 0 0.00200715 0.000566935 0 0.00227954 0.000654941 0 0.00259639 0.000755609 0 0.00296664 0.000867456 0 0.00340029 0.000982394 0 0.00390681 0.0010807 0 0.00448755 0.00111974 0 0.00511206 0.00102371 0 0.00566677 0.00070486 0 0.00593806 0.000182215 0 0 7.36237e-05 0 3.97805e-05 7.40477e-05 0 7.99683e-05 7.51757e-05 0 0.000120968 7.70789e-05 0 0.000163212 7.98418e-05 0 0.000207145 8.34027e-05 0 0.000253239 8.79489e-05 0 0.000302019 9.34961e-05 0 0.000354041 0.00010008 0 0.000409937 0.000108061 0 0.000470416 0.000117354 0 0.000536259 0.000128253 0 0.000608399 0.0001411 0 0.000687876 0.000155934 0 0.000775908 0.000173453 0 0.000873952 0.000193885 0 0.000983669 0.000217577 0 0.00110708 0.000245904 0 0.0012466 0.000278849 0 0.00140504 0.000317737 0 0.00158592 0.000363984 0 0.00179333 0.000417887 0 0.00203221 0.000482021 0 0.00230857 0.000556447 0 0.00262916 0.000641043 0 0.00300167 0.00073388 0 0.00343353 0.000826998 0 0.00392903 0.000902159 0 0.00448103 0.000922616 0 0.00505055 0.000829426 0 0.00553456 0.000565577 0 0.00577385 0.000158881 0 0 6.03522e-05 0 4.00099e-05 6.07002e-05 0 8.04311e-05 6.16261e-05 0 0.000121672 6.31883e-05 0 0.00016417 6.54564e-05 0 0.000208374 6.83797e-05 0 0.000254761 7.21122e-05 0 0.000303864 7.66671e-05 0 0.000356245 8.20736e-05 0 0.000412544 8.86288e-05 0 0.000473479 9.62622e-05 0 0.000539847 0.000105217 0 0.000612592 0.000115774 0 0.000692775 0.000127966 0 0.000781634 0.000142368 0 0.000880655 0.000159168 0 0.000991532 0.000178652 0 0.00111633 0.000201952 0 0.00125749 0.000229051 0 0.00141789 0.000261037 0 0.00160109 0.000299059 0 0.0018112 0.000343342 0 0.00205313 0.000395933 0 0.0023327 0.000456771 0 0.00265617 0.000525533 0 0.0030301 0.000600169 0 0.00345959 0.000673416 0 0.00394468 0.000729413 0 0.00447186 0.000738022 0 0.00499771 0.000654969 0 0.00543032 0.000443999 0 0.00564816 0.000132997 0 0 4.7012e-05 0 4.0194e-05 4.72834e-05 0 8.08025e-05 4.80054e-05 0 0.000122237 4.92236e-05 0 0.000164939 5.09924e-05 0 0.000209361 5.32722e-05 0 0.000255984 5.61834e-05 0 0.000305346 5.97361e-05 0 0.000358014 6.39536e-05 0 0.000414637 6.90677e-05 0 0.00047594 7.50237e-05 0 0.000542729 8.20117e-05 0 0.000615961 9.0251e-05 0 0.000696712 9.97682e-05 0 0.000786237 0.000111012 0 0.000886045 0.000124131 0 0.000997854 0.000139348 0 0.00112376 0.000157546 0 0.00126625 0.000178713 0 0.00142823 0.000203695 0 0.00161328 0.000233382 0 0.00182555 0.000267933 0 0.00206989 0.000308903 0 0.00235195 0.000356171 0 0.00267756 0.000409343 0 0.0030523 0.000466524 0 0.00347934 0.000521608 0 0.00395534 0.000561741 0 0.0044623 0.000563623 0 0.00495475 0.000495417 0 0.00535063 0.000334693 0 0.00555408 0.000105216 0 -1.54111e-19 3.36183e-05 0 4.03325e-05 3.38125e-05 0 8.10819e-05 3.43293e-05 0 0.000122662 3.52011e-05 0 0.000165518 3.64671e-05 0 0.000210103 3.80988e-05 0 0.000256904 4.01825e-05 0 0.00030646 4.27256e-05 0 0.000359345 4.57448e-05 0 0.000416212 4.94061e-05 0 0.000477792 5.36705e-05 0 0.000544898 5.86744e-05 0 0.000618497 6.4575e-05 0 0.000699676 7.13914e-05 0 0.000789703 7.94459e-05 0 0.000890104 8.88441e-05 0 0.00100262 9.97468e-05 0 0.00112936 0.000112787 0 0.00127285 0.000127954 0 0.00143601 0.000145854 0 0.00162246 0.000167119 0 0.00183634 0.000191855 0 0.00208248 0.000221151 0 0.00236636 0.000254882 0 0.00269348 0.000292684 0 0.00306864 0.000333042 0 0.00349352 0.000371356 0 0.00396229 0.000398196 0 0.00445392 0.000397068 0 0.00492226 0.000346657 0 0.00529293 0.000233752 0 0.00548696 7.60668e-05 0 0 2.01863e-05 0 4.0425e-05 2.0303e-05 0 8.12686e-05 2.06135e-05 0 0.000122946 2.11373e-05 0 0.000165904 2.18978e-05 0 0.000210599 2.28782e-05 0 0.000257519 2.41302e-05 0 0.000307206 2.56582e-05 0 0.000360236 2.74723e-05 0 0.000417265 2.96725e-05 0 0.00047903 3.22353e-05 0 0.000546349 3.52426e-05 0 0.000620194 3.87891e-05 0 0.000701659 4.28863e-05 0 0.000792022 4.77282e-05 0 0.00089282 5.33783e-05 0 0.0010058 5.99333e-05 0 0.00113311 6.77738e-05 0 0.00127726 7.68937e-05 0 0.00144122 8.76555e-05 0 0.0016286 0.000100438 0 0.00184356 0.000115302 0 0.00209088 0.000132892 0 0.00237596 0.000153115 0 0.00270403 0.000175722 0 0.00307938 0.000199738 0 0.00350266 0.000222307 0 0.00396642 0.000237683 0 0.00444778 0.000236048 0 0.00490051 0.00020519 0 0.0052554 0.000138228 0 0.00544372 4.59948e-05 0 0 6.73134e-06 0 4.04716e-05 6.77025e-06 0 8.13625e-05 6.8738e-06 0 0.000123089 7.04852e-06 0 0.000166099 7.30221e-06 0 0.000210849 7.62922e-06 0 0.000257828 8.04683e-06 0 0.00030758 8.55654e-06 0 0.000360683 9.1617e-06 0 0.000417795 9.89566e-06 0 0.000479653 1.07506e-05 0 0.000547078 1.17538e-05 0 0.000621047 1.2937e-05 0 0.000702656 1.4304e-05 0 0.000793188 1.59195e-05 0 0.000894185 1.78048e-05 0 0.00100741 1.9992e-05 0 0.00113499 2.26082e-05 0 0.00127948 2.56514e-05 0 0.00144384 2.92424e-05 0 0.00163169 3.35072e-05 0 0.00184718 3.84657e-05 0 0.00209509 4.43308e-05 0 0.00238077 5.10691e-05 0 0.00270931 5.85919e-05 0 0.00308473 6.65634e-05 0 0.00350716 7.40163e-05 0 0.00396834 7.90203e-05 0 0.00444454 7.83189e-05 0 0.00488958 6.79374e-05 0 0.00523685 4.57483e-05 0 0.00542246 1.53897e-05 0 0 -6.73134e-06 0 4.04716e-05 -6.77025e-06 0 8.13625e-05 -6.8738e-06 0 0.000123089 -7.04852e-06 0 0.000166099 -7.30221e-06 0 0.000210849 -7.62922e-06 0 0.000257828 -8.04683e-06 0 0.00030758 -8.55654e-06 0 0.000360683 -9.1617e-06 0 0.000417795 -9.89566e-06 0 0.000479653 -1.07506e-05 0 0.000547078 -1.17538e-05 0 0.000621047 -1.2937e-05 0 0.000702656 -1.4304e-05 0 0.000793188 -1.59195e-05 0 0.000894185 -1.78048e-05 0 0.00100741 -1.9992e-05 0 0.00113499 -2.26082e-05 0 0.00127948 -2.56514e-05 0 0.00144384 -2.92424e-05 0 0.00163169 -3.35072e-05 0 0.00184718 -3.84657e-05 0 0.00209509 -4.43308e-05 0 0.00238077 -5.10691e-05 0 0.00270931 -5.85919e-05 0 0.00308473 -6.65634e-05 0 0.00350716 -7.40163e-05 0 0.00396834 -7.90203e-05 0 0.00444454 -7.83189e-05 0 0.00488958 -6.79374e-05 0 0.00523685 -4.57483e-05 0 0.00542246 -1.53897e-05 0 0 -2.01863e-05 0 4.0425e-05 -2.0303e-05 0 8.12686e-05 -2.06135e-05 0 0.000122946 -2.11373e-05 0 0.000165904 -2.18978e-05 0 0.000210599 -2.28782e-05 0 0.000257519 -2.41302e-05 0 0.000307206 -2.56582e-05 0 0.000360236 -2.74723e-05 0 0.000417265 -2.96725e-05 0 0.00047903 -3.22353e-05 0 0.000546349 -3.52426e-05 0 0.000620194 -3.87891e-05 0 0.000701659 -4.28863e-05 0 0.000792022 -4.77282e-05 0 0.00089282 -5.33783e-05 0 0.0010058 -5.99333e-05 0 0.00113311 -6.77738e-05 0 0.00127726 -7.68937e-05 0 0.00144122 -8.76555e-05 0 0.0016286 -0.000100438 0 0.00184356 -0.000115302 0 0.00209088 -0.000132892 0 0.00237596 -0.000153115 0 0.00270403 -0.000175722 0 0.00307938 -0.000199738 0 0.00350266 -0.000222307 0 0.00396642 -0.000237683 0 0.00444778 -0.000236048 0 0.00490051 -0.00020519 0 0.0052554 -0.000138228 0 0.00544372 -4.59948e-05 0 0 -3.36183e-05 0 4.03325e-05 -3.38125e-05 0 8.10819e-05 -3.43293e-05 0 0.000122662 -3.52011e-05 0 0.000165518 -3.64671e-05 0 0.000210103 -3.80988e-05 0 0.000256904 -4.01825e-05 0 0.00030646 -4.27256e-05 0 0.000359345 -4.57448e-05 0 0.000416212 -4.94061e-05 0 0.000477792 -5.36705e-05 0 0.000544898 -5.86744e-05 0 0.000618497 -6.4575e-05 0 0.000699676 -7.13914e-05 0 0.000789703 -7.94459e-05 0 0.000890104 -8.88441e-05 0 0.00100262 -9.97468e-05 0 0.00112936 -0.000112787 0 0.00127285 -0.000127954 0 0.00143601 -0.000145854 0 0.00162246 -0.000167119 0 0.00183634 -0.000191855 0 0.00208248 -0.000221151 0 0.00236636 -0.000254882 0 0.00269348 -0.000292684 0 0.00306864 -0.000333042 0 0.00349352 -0.000371356 0 0.00396229 -0.000398196 0 0.00445392 -0.000397068 0 0.00492226 -0.000346657 0 0.00529293 -0.000233752 0 0.00548696 -7.60668e-05 0 7.32734e-19 -4.7012e-05 0 4.0194e-05 -4.72834e-05 0 8.08025e-05 -4.80054e-05 0 0.000122237 -4.92236e-05 0 0.000164939 -5.09924e-05 0 0.000209361 -5.32722e-05 0 0.000255984 -5.61834e-05 0 0.000305346 -5.97361e-05 0 0.000358014 -6.39536e-05 0 0.000414637 -6.90677e-05 0 0.00047594 -7.50237e-05 0 0.000542729 -8.20117e-05 0 0.000615961 -9.0251e-05 0 0.000696712 -9.97682e-05 0 0.000786237 -0.000111012 0 0.000886045 -0.000124131 0 0.000997854 -0.000139348 0 0.00112376 -0.000157546 0 0.00126625 -0.000178713 0 0.00142823 -0.000203695 0 0.00161328 -0.000233382 0 0.00182555 -0.000267933 0 0.00206989 -0.000308903 0 0.00235195 -0.000356171 0 0.00267756 -0.000409343 0 0.0030523 -0.000466524 0 0.00347934 -0.000521608 0 0.00395534 -0.000561741 0 0.0044623 -0.000563623 0 0.00495475 -0.000495417 0 0.00535063 -0.000334693 0 0.00555408 -0.000105216 0 0 -6.03522e-05 0 4.00099e-05 -6.07002e-05 0 8.04311e-05 -6.16261e-05 0 0.000121672 -6.31883e-05 0 0.00016417 -6.54564e-05 0 0.000208374 -6.83797e-05 0 0.000254761 -7.21122e-05 0 0.000303864 -7.66671e-05 0 0.000356245 -8.20736e-05 0 0.000412544 -8.86288e-05 0 0.000473479 -9.62622e-05 0 0.000539847 -0.000105217 0 0.000612592 -0.000115774 0 0.000692775 -0.000127966 0 0.000781634 -0.000142368 0 0.000880655 -0.000159168 0 0.000991532 -0.000178652 0 0.00111633 -0.000201952 0 0.00125749 -0.000229051 0 0.00141789 -0.000261037 0 0.00160109 -0.000299059 0 0.0018112 -0.000343342 0 0.00205313 -0.000395933 0 0.0023327 -0.000456771 0 0.00265617 -0.000525533 0 0.0030301 -0.000600169 0 0.00345959 -0.000673416 0 0.00394468 -0.000729413 0 0.00447186 -0.000738022 0 0.00499771 -0.000654969 0 0.00543032 -0.000443999 0 0.00564816 -0.000132997 0 0 -7.36237e-05 0 3.97805e-05 -7.40477e-05 0 7.99683e-05 -7.51757e-05 0 0.000120968 -7.70789e-05 0 0.000163212 -7.98418e-05 0 0.000207145 -8.34027e-05 0 0.000253239 -8.79489e-05 0 0.000302019 -9.34961e-05 0 0.000354041 -0.00010008 0 0.000409937 -0.000108061 0 0.000470416 -0.000117354 0 0.000536259 -0.000128253 0 0.000608399 -0.0001411 0 0.000687876 -0.000155934 0 0.000775908 -0.000173453 0 0.000873952 -0.000193885 0 0.000983669 -0.000217577 0 0.00110708 -0.000245904 0 0.0012466 -0.000278849 0 0.00140504 -0.000317737 0 0.00158592 -0.000363984 0 0.00179333 -0.000417887 0 0.00203221 -0.000482021 0 0.00230857 -0.000556447 0 0.00262916 -0.000641043 0 0.00300167 -0.00073388 0 0.00343353 -0.000826998 0 0.00392903 -0.000902159 0 0.00448103 -0.000922616 0 0.00505055 -0.000829426 0 0.00553456 -0.000565577 0 0.00577385 -0.000158881 0 0 -8.68117e-05 0 3.95063e-05 -8.73107e-05 0 7.94151e-05 -8.86388e-05 0 0.000120126 -9.08792e-05 0 0.000162067 -9.41315e-05 0 0.000205676 -9.83228e-05 0 0.000251419 -0.000103673 0 0.000299814 -0.000110201 0 0.000351408 -0.000117948 0 0.000406824 -0.000127337 0 0.000466757 -0.000138267 0 0.000531976 -0.000151085 0 0.000603393 -0.000166188 0 0.000682029 -0.000183624 0 0.000769074 -0.000204211 0 0.000865954 -0.000228214 0 0.00097429 -0.000256042 0 0.00109606 -0.000289306 0 0.00123361 -0.00032799 0 0.00138971 -0.000373657 0 0.00156781 -0.000427989 0 0.00177196 -0.000491369 0 0.00200715 -0.000566935 0 0.00227954 -0.000654941 0 0.00259639 -0.000755609 0 0.00296664 -0.000867456 0 0.00340029 -0.000982394 0 0.00390681 -0.0010807 0 0.00448755 -0.00111974 0 0.00511206 -0.00102371 0 0.00566677 -0.00070486 0 0.00593806 -0.000182215 0 -2.19822e-18 -9.99012e-05 0 3.91877e-05 -0.000100474 0 7.87725e-05 -0.000102 0 0.000119148 -0.000104573 0 0.000160737 -0.000108308 0 0.000203969 -0.000113122 0 0.000249305 -0.000119266 0 0.000297254 -0.00012676 0 0.000348352 -0.000135653 0 0.00040321 -0.000146429 0 0.000462511 -0.000158971 0 0.000527005 -0.000173675 0 0.000597586 -0.000190996 0 0.000675249 -0.000210988 0 0.000761152 -0.000234584 0 0.000856685 -0.000262088 0 0.000963423 -0.000293966 0 0.00108329 -0.000332062 0 0.00121857 -0.000376359 0 0.00137195 -0.000428658 0 0.00154681 -0.000490906 0 0.00174716 -0.000563586 0 0.00197797 -0.000650432 0 0.00224557 -0.000751966 0 0.00255771 -0.000868907 0 0.00292455 -0.00100057 0 0.0033589 -0.00113942 0 0.00387605 -0.00126544 0 0.00448834 -0.00133159 0 0.0051799 -0.00124375 0 0.00583124 -0.000869724 0 0.00615114 -0.000202174 0 0 -0.000112878 0 3.8826e-05 -0.000113524 0 7.80428e-05 -0.000115244 0 0.000118038 -0.000118145 0 0.000159227 -0.000122356 0 0.000202032 -0.000127782 0 0.000246906 -0.000134707 0 0.000294348 -0.000143152 0 0.000344884 -0.000153172 0 0.000399111 -0.00016531 0 0.000457695 -0.000179434 0 0.00052137 -0.000195989 0 0.000591004 -0.000215484 0 0.000667565 -0.000237978 0 0.000752178 -0.000264517 0 0.000846188 -0.000295441 0 0.000951119 -0.000331272 0 0.00106883 -0.000374079 0 0.00120154 -0.000423846 0 0.00135184 -0.000482604 0 0.00152302 -0.000552569 0 0.00171902 -0.000634335 0 0.00194478 -0.000732261 0 0.00220673 -0.000847209 0 0.00251306 -0.000980549 0 0.00287509 -0.00113277 0 0.00330843 -0.00129761 0 0.00383466 -0.00145632 0 0.00447954 -0.00155992 0 0.00524997 -0.0014965 0 0.00603238 -0.00107198 0 0.00642759 -0.000217692 0 0 -0.000125727 0 3.84207e-05 -0.000126445 0 7.72252e-05 -0.000128356 0 0.000116794 -0.00013158 0 0.000157535 -0.000136258 0 0.000199863 -0.000142286 0 0.00024422 -0.000149977 0 0.000291095 -0.000159356 0 0.000341001 -0.00017048 0 0.000394523 -0.000183954 0 0.000452307 -0.000199628 0 0.000515067 -0.000217992 0 0.000583644 -0.000239612 0 0.000658978 -0.000264548 0 0.000742152 -0.000293956 0 0.000834464 -0.000328211 0 0.000937383 -0.000367885 0 0.0010527 -0.000415266 0 0.00118253 -0.000470339 0 0.00132939 -0.000535361 0 0.00149645 -0.000612813 0 0.00168755 -0.000703411 0 0.00190755 -0.000812162 0 0.00216293 -0.00094033 0 0.0024622 -0.00109009 0 0.00281769 -0.00126344 0 0.00324759 -0.00145621 0 0.00377987 -0.00165267 0 0.00445567 -0.0018057 0 0.00531514 -0.00178978 0 0.00627613 -0.00132986 0 0.0067939 -0.00022736 0 -4.56913e-18 -0.000138434 0 3.79731e-05 -0.000139223 0 7.63224e-05 -0.000141321 0 0.000115421 -0.000144861 0 0.000155667 -0.000149998 0 0.000197468 -0.000156615 0 0.000241255 -0.000165058 0 0.000287505 -0.000175351 0 0.000336719 -0.000187557 0 0.000389463 -0.000202335 0 0.000446366 -0.000219522 0 0.00050812 -0.000239653 0 0.000575537 -0.000263342 0 0.00064952 -0.000290655 0 0.000731115 -0.00032285 0 0.000821564 -0.000360335 0 0.000922275 -0.000403732 0 0.00103496 -0.000455536 0 0.00116164 -0.000515735 0 0.00130471 -0.000586801 0 0.00146723 -0.000671479 0 0.00165288 -0.00077061 0 0.00186642 -0.000889865 0 0.00211428 -0.00103097 0 0.00240516 -0.00119701 0 0.00275212 -0.00139184 0 0.00317553 -0.00161412 0 0.00370924 -0.00185309 0 0.00441062 -0.00206854 0 0.00536392 -0.00213128 0 0.00656436 -0.00167206 0 0.00729052 -0.000229319 0 0 -0.000150986 0 3.74841e-05 -0.000151843 0 7.53361e-05 -0.000154126 0 0.000113921 -0.000157975 0 0.000153627 -0.000163561 0 0.000194853 -0.000170755 0 0.000238017 -0.000179931 0 0.000283586 -0.000191117 0 0.000332045 -0.000204378 0 0.000383942 -0.000220429 0 0.000439887 -0.00023909 0 0.000500546 -0.000260938 0 0.000566701 -0.000286638 0 0.000639219 -0.000316255 0 0.000719098 -0.000351149 0 0.000807526 -0.000391755 0 0.000905842 -0.000438744 0 0.00101567 -0.000494806 0 0.00113892 -0.000559931 0 0.00127789 -0.000636799 0 0.00143545 -0.000728408 0 0.00161513 -0.000835731 0 0.00182151 -0.000965103 0 0.00206089 -0.00111875 0 0.00234197 -0.00130076 0 0.0026782 -0.00151709 0 0.00309147 -0.00176993 0 0.00362036 -0.00205535 0 0.00433743 -0.00234596 0 0.00537893 -0.00252646 0 0.00689002 -0.00214367 0 0.00799244 -0.000221175 0 1.43789e-17 -0.000163368 0 3.69545e-05 -0.000164293 0 7.42679e-05 -0.000166755 0 0.000112296 -0.000170907 0 0.000151418 -0.00017693 0 0.000192021 -0.000184687 0 0.000234513 -0.000194579 0 0.000279345 -0.000206635 0 0.000326988 -0.000220923 0 0.000377972 -0.000238211 0 0.000432884 -0.000258303 0 0.000492363 -0.000281818 0 0.000557158 -0.000309463 0 0.000628098 -0.000341308 0 0.000706133 -0.000378805 0 0.000792389 -0.000422415 0 0.00088813 -0.000472854 0 0.000994885 -0.000532996 0 0.00111446 -0.000602831 0 0.001249 -0.000685236 0 0.00140121 -0.00078345 0 0.00157441 -0.000898577 0 0.00177296 -0.00103761 0 0.0020029 -0.00120327 0 0.00227271 -0.00140074 0 0.00259587 -0.00163824 0 0.00299486 -0.00192192 0 0.00351118 -0.00225633 0 0.004229 -0.00263282 0 0.00533604 -0.00297446 0 0.00721844 -0.00281162 0 0.00905586 -0.000200343 0 9.65795e-18 -0.000175568 0 3.63853e-05 -0.000176559 0 7.31201e-05 -0.000179196 0 0.00011055 -0.000183642 0 0.000149045 -0.000190091 0 0.00018898 -0.000198396 0 0.00023075 -0.000208985 0 0.000274793 -0.000221885 0 0.000321561 -0.000237171 0 0.000371567 -0.000255659 0 0.000425373 -0.000277137 0 0.00048359 -0.000302261 0 0.000546934 -0.000331784 0 0.000616191 -0.000365775 0 0.000692259 -0.000405772 0 0.000776199 -0.000452262 0 0.000869199 -0.000506 0 0.000972686 -0.000570031 0 0.00108835 -0.000644344 0 0.00121816 -0.000731999 0 0.00136465 -0.000836461 0 0.0015309 -0.000958961 0 0.00172096 -0.00110711 0 0.00194052 -0.00128417 0 0.00219763 -0.00149636 0 0.00250529 -0.00175422 0 0.00288561 -0.00206817 0 0.00338057 -0.00245216 0 0.00407968 -0.00292093 0 0.00520739 -0.00346237 0 0.00744772 -0.00375391 0 0.0108713 -0.000167603 0 0 -0.000187573 0 3.57777e-05 -0.000188628 0 7.18947e-05 -0.000191434 0 0.000108687 -0.000196166 0 0.000146512 -0.00020303 0 0.000185734 -0.000211867 0 0.000226736 -0.000223131 0 0.000269937 -0.000236851 0 0.000315776 -0.000253102 0 0.000364742 -0.000272749 0 0.000417372 -0.000295565 0 0.000474251 -0.000322241 0 0.000536055 -0.000353569 0 0.000603527 -0.000389618 0 0.000677513 -0.000432009 0 0.000759005 -0.000481247 0 0.000849106 -0.000538123 0 0.00094914 -0.000605841 0 0.00106066 -0.000684385 0 0.00118548 -0.000776983 0 0.0013259 -0.000887308 0 0.00148475 -0.00101671 0 0.00166571 -0.00117337 0 0.001874 -0.00136106 0 0.00211703 -0.001587 0 0.00240682 -0.00186401 0 0.00276407 -0.00220665 0 0.00322844 -0.00263847 0 0.00388652 -0.00319951 0 0.00496881 -0.00396053 0 0.00736202 -0.00498254 0 0.0149098 -0.000178492 0 0 -0.000199369 0 3.51327e-05 -0.000200486 0 7.05941e-05 -0.000203457 0 0.000106709 -0.000208467 0 0.000143825 -0.000215732 0 0.000182291 -0.000225084 0 0.000222478 -0.000237002 0 0.000264789 -0.000251513 0 0.000309644 -0.000268697 0 0.00035751 -0.000289461 0 0.0004089 -0.000313564 0 0.000464366 -0.000341731 0 0.000524547 -0.000374788 0 0.000590142 -0.000412805 0 0.000661937 -0.000457475 0 0.000740855 -0.000509323 0 0.000827913 -0.00056917 0 0.000924323 -0.000640361 0 0.0010315 -0.000722876 0 0.00115107 -0.000820092 0 0.00128512 -0.000935864 0 0.00143616 -0.00107164 0 0.00160747 -0.00123615 0 0.00180366 -0.00143358 0 0.00203131 -0.00167211 0 0.00230105 -0.00196657 0 0.00263105 -0.00233535 0 0.00305597 -0.00281077 0 0.00365063 -0.00345638 0 0.00461198 -0.00442455 0 0.00671001 -0.00627431 0 0.0741434 -0.0347322 0 </DataArray> 
</PointData> 
<Points> 
<DataArray type="Float32" NumberOfComponents="3"> 