<?xml version="1.0"?> 
<VTKFile type="StructuredGrid" version="0.1"> 
<StructuredGrid WholeExtent="0 31 0 31 0 0"> 
<Piece Extent="0 31 0 31 0 0"> 
<PointData>
<DataArray type="Float32" Name="B" format="ascii" NumberOfComponents="3"> 
0.0443792 -0.0262435 0 0.00592819 -0.00676931 0 0.00433285 -0.00482123 0 0.00354426 -0.0037543 0 0.00302551 -0.00303452 0 0.00263648 -0.00250476 0 0.0023233 -0.00209608 0 0.00206072 -0.00177214 0 0.00183519 -0.00151178 0 0.00163853 -0.00129783 0 0.00146548 -0.00112075 0 0.00131213 -0.000975554 0 0.00117559 -0.000852367 0 0.00105356 -0.000749437 0 0.000944056 -0.000662436 0 0.00084549 -0.00058763 0 0.000756464 -0.000524966 0 0.000675761 -0.000470817 0 0.000602353 -0.000424276 0 0.000535301 -0.000384756 0 0.000473801 -0.00035045 0 0.000417138 -0.000321268 0 0.000364657 -0.000296331 0 0.00031579 -0.000274872 0 0.000270012 -0.000257135 0 0.000226842 -0.000242167 0 0.00018585 -0.000229884 0 0.000146622 -0.000220251 0 0.000108779 -0.00021277 0 7.196e-05 -0.000207614 0 3.58116e-05 -0.000204556 0 0 -0.000203407 0 0.013143 -0.0039073 0 0.00668278 -0.00578246 0 0.00474111 -0.00444234 0 0.00381363 -0.0035319 0 0.00322112 -0.00287787 0 0.00278593 -0.00238324 0 0.00244095 -0.00199655 0 0.00215512 -0.00168796 0 0.00191196 -0.00143913 0 0.00170159 -0.00123441 0 0.00151771 -0.00106494 0 0.00135569 -0.000926062 0 0.00121215 -0.000808336 0 0.0010844 -0.000710076 0 0.000970193 -0.000627116 0 0.000867731 -0.000555857 0 0.000775453 -0.000496235 0 0.000692014 -0.000444762 0 0.000616288 -0.00040056 0 0.000547257 -0.00036306 0 0.000484053 -0.00033053 0 0.000425911 -0.000302878 0 0.000372135 -0.000279263 0 0.000322124 -0.000258951 0 0.000275324 -0.00024217 0 0.000231232 -0.000228015 0 0.000189398 -0.000216402 0 0.00014939 -0.000207297 0 0.000110814 -0.000200228 0 7.32987e-05 -0.000195356 0 3.64753e-05 -0.000192467 0 0 -0.000191382 0 0.010532 -0.00299075 0 0.0070033 -0.00476475 0 0.00505757 -0.00401498 0 0.00404916 -0.00328201 0 0.00340016 -0.00270397 0 0.00292569 -0.00224991 0 0.00255216 -0.00188844 0 0.00224484 -0.00159731 0 0.00198511 -0.00136146 0 0.00176173 -0.00116703 0 0.00156752 -0.00100598 0 0.00139722 -0.000874033 0 0.00124696 -0.000762246 0 0.00111373 -0.000669028 0 0.00099503 -0.000590402 0 0.000888845 -0.000522928 0 0.000793461 -0.000466533 0 0.000707414 -0.000417888 0 0.00062948 -0.000376149 0 0.000558566 -0.000340768 0 0.000493744 -0.000310096 0 0.0004342 -0.00028404 0 0.000379197 -0.000261801 0 0.000328103 -0.00024268 0 0.000280337 -0.000226891 0 0.000235373 -0.000213577 0 0.000192743 -0.000202657 0 0.000151999 -0.000194099 0 0.000112733 -0.000187455 0 7.45601e-05 -0.000182877 0 3.71008e-05 -0.000180162 0 0 -0.000179142 0 0.00930115 -0.00247703 0 0.00704279 -0.0039066 0 0.00528226 -0.00357463 0 0.0042479 -0.00301431 0 0.00356076 -0.00251642 0 0.00305459 -0.00210637 0 0.00265617 -0.00177257 0 0.00232936 -0.00150065 0 0.00205426 -0.00127907 0 0.00181867 -0.00109592 0 0.00161469 -0.000944037 0 0.00143652 -0.000819584 0 0.00127989 -0.000714192 0 0.00114146 -0.000626371 0 0.00101848 -0.00055236 0 0.000908762 -0.000488899 0 0.000810434 -0.00043591 0 0.000721915 -0.000390237 0 0.000641894 -0.000351079 0 0.000569201 -0.000317911 0 0.000502851 -0.000289174 0 0.000441984 -0.000264778 0 0.000385826 -0.000243966 0 0.000333712 -0.00022608 0 0.000285038 -0.000211316 0 0.000239255 -0.000198871 0 0.000195879 -0.000188667 0 0.000154444 -0.000180671 0 0.000114531 -0.000174465 0 7.5742e-05 -0.000170189 0 3.76867e-05 -0.000167654 0 8.55887e-18 -0.000166702 0 0.00855552 -0.00211009 0 0.00695609 -0.00323055 0 0.00542897 -0.00314787 0 0.00441029 -0.00273803 0 0.0037021 -0.0023189 0 0.00317187 -0.00195435 0 0.00275239 -0.00164984 0 0.00240821 -0.00139851 0 0.00211905 -0.0011923 0 0.00187212 -0.00102129 0 0.001659 -0.000879269 0 0.00147344 -0.000762848 0 0.0013108 -0.000664278 0 0.00116747 -0.000582191 0 0.00104047 -0.000513062 0 0.000927417 -0.00045383 0 0.000826319 -0.000404415 0 0.000735477 -0.000361854 0 0.000653494 -0.000325388 0 0.000579132 -0.000294523 0 0.000511351 -0.000267796 0 0.000449246 -0.000245118 0 0.000392006 -0.000225781 0 0.00033894 -0.00020917 0 0.000289418 -0.000195464 0 0.000242872 -0.000183914 0 0.000198799 -0.000174446 0 0.000156721 -0.000167028 0 0.000116205 -0.000161272 0 7.68421e-05 -0.000157307 0 3.8232e-05 -0.000154956 0 0 -0.000154073 0 0.00804975 -0.00181892 0 0.00682807 -0.00269843 0 0.0055166 -0.0027494 0 0.00453925 -0.00246076 0 0.00382427 -0.00211489 0 0.00327711 -0.00179554 0 0.00284036 -0.00152119 0 0.00248102 -0.00129144 0 0.00217917 -0.00110151 0 0.00192184 -0.000943402 0 0.00170026 -0.000811866 0 0.00150782 -0.000703968 0 0.00133957 -0.000612621 0 0.00119167 -0.000536582 0 0.0010609 -0.000472586 0 0.000944745 -0.000417786 0 0.000841062 -0.000372104 0 0.000748055 -0.000332784 0 0.000664247 -0.000299116 0 0.000588333 -0.000270638 0 0.00051922 -0.00024599 0 0.000455966 -0.000225087 0 0.000397724 -0.000207271 0 0.000343775 -0.000191972 0 0.000293467 -0.000179354 0 0.000246214 -0.000168723 0 0.000201497 -0.00016001 0 0.000158824 -0.000153186 0 0.000117751 -0.000147892 0 7.7858e-05 -0.000144244 0 3.87356e-05 -0.000142083 0 0 -0.00014127 0 0.00768367 -0.00157351 0 0.00669599 -0.00226938 0 0.00556329 -0.00238436 0 0.00463936 -0.00218799 0 0.00392824 -0.00190738 0 0.00337033 -0.00163158 0 0.00291987 -0.00138753 0 0.00254751 -0.00118002 0 0.00223438 -0.00100708 0 0.00196762 -0.000862527 0 0.00173829 -0.000742029 0 0.00153952 -0.000643101 0 0.0013661 -0.000559344 0 0.00121397 -0.000489645 0 0.00107972 -0.000431014 0 0.000960693 -0.000380836 0 0.000854622 -0.000339037 0 0.000759616 -0.000303078 0 0.000674124 -0.000272307 0 0.000596779 -0.000246293 0 0.000526441 -0.000223789 0 0.00046213 -0.000204713 0 0.000402966 -0.000188461 0 0.000348206 -0.000174509 0 0.000297177 -0.000163006 0 0.000249275 -0.000153317 0 0.000203967 -0.000145378 0 0.00016075 -0.000139161 0 0.000119166 -0.000134338 0 7.87881e-05 -0.000131016 0 3.91966e-05 -0.000129047 0 -2.91737e-17 -0.000128307 0 0.00740835 -0.00135836 0 0.00657423 -0.00191282 0 0.00558328 -0.00205211 0 0.00471556 -0.0019231 0 0.00401541 -0.00169878 0 0.0034518 -0.00146389 0 0.00299081 -0.00124974 0 0.00260749 -0.00106481 0 0.00228447 -0.000909391 0 0.00200928 -0.000778944 0 0.00177295 -0.000669968 0 0.00156841 -0.000580413 0 0.00139028 -0.000504579 0 0.00123428 -0.000441487 0 0.00109686 -0.000388435 0 0.000975206 -0.000343054 0 0.000866955 -0.000305273 0 0.000770126 -0.000272789 0 0.000683098 -0.000245004 0 0.000604449 -0.000221528 0 0.000532996 -0.000201227 0 0.000467722 -0.000184026 0 0.00040772 -0.000169376 0 0.000352223 -0.000156804 0 0.00030054 -0.000146441 0 0.000252049 -0.000137714 0 0.000206206 -0.000130565 0 0.000162494 -0.000124968 0 0.000120448 -0.000120627 0 7.96305e-05 -0.000117636 0 3.96142e-05 -0.000115864 0 0 -0.000115198 0 0.00719707 -0.00116438 0 0.00646779 -0.00160762 0 0.00558677 -0.00174921 0 0.0047724 -0.00166774 0 0.00408728 -0.00149083 0 0.00352185 -0.00129369 0 0.0030531 -0.00110863 0 0.00266074 -0.000946353 0 0.00232921 -0.000808842 0 0.0020466 -0.000692941 0 0.00180404 -0.000595904 0 0.00159435 -0.000516077 0 0.00141198 -0.000448466 0 0.00125251 -0.000392221 0 0.00111223 -0.000344943 0 0.000988216 -0.000304518 0 0.000878006 -0.00027088 0 0.000779537 -0.00024197 0 0.00069113 -0.000217255 0 0.000611312 -0.000196382 0 0.000538858 -0.000178338 0 0.000472722 -0.000163055 0 0.000411969 -0.000150043 0 0.000355813 -0.000138879 0 0.000303544 -0.00012968 0 0.000254527 -0.000121935 0 0.000208205 -0.000115591 0 0.000164052 -0.000110625 0 0.000121593 -0.000106773 0 8.03825e-05 -0.000104121 0 3.99869e-05 -0.000102549 0 0 -0.000101958 0 0.00703197 -0.000985755 0 0.00637718 -0.00133932 0 0.00558114 -0.00147126 0 0.00481448 -0.0014223 0 0.00414597 -0.00128468 0 0.00358134 -0.00112194 0 0.00310706 -0.000964888 0 0.00270737 -0.000825159 0 0.0023686 -0.00070581 0 0.00207956 -0.000604808 0 0.00183153 -0.000520063 0 0.00161729 -0.000450274 0 0.00143118 -0.000391148 0 0.00126864 -0.000341966 0 0.00112582 -0.000300635 0 0.000999717 -0.000265307 0 0.00088777 -0.000235924 0 0.00078785 -0.00021068 0 0.000698222 -0.000189108 0 0.000617368 -0.000170896 0 0.00054403 -0.000155157 0 0.000477132 -0.000141832 0 0.000415716 -0.00013049 0 0.000358977 -0.000120761 0 0.000306191 -0.000112746 0 0.00025671 -0.000105998 0 0.000209966 -0.000100473 0 0.000165424 -9.61481e-05 0 0.000122601 -9.27939e-05 0 8.10449e-05 -9.04843e-05 0 4.03152e-05 -8.91157e-05 0 -2.92437e-18 -8.86014e-05 0 0.00690322 -0.000818494 0 0.00630206 -0.00109784 0 0.00557095 -0.00121378 0 0.00484502 -0.00118629 0 0.00419295 -0.00108097 0 0.00363078 -0.000949378 0 0.00315276 -0.000819139 0 0.00274725 -0.000701708 0 0.00240248 -0.000600668 0 0.00210799 -0.000514838 0 0.00185528 -0.000442676 0 0.00163713 -0.00038319 0 0.00144778 -0.000332778 0 0.00128257 -0.000290844 0 0.00113757 -0.000255613 0 0.00100965 -0.000225506 0 0.000896199 -0.000200475 0 0.000795023 -0.000178977 0 0.000704339 -0.000160612 0 0.000622591 -0.000145113 0 0.000548489 -0.000131723 0 0.000480932 -0.000120389 0 0.000418944 -0.000110744 0 0.000361703 -0.000102472 0 0.000308471 -9.56593e-05 0 0.00025859 -8.99249e-05 0 0.000211483 -8.52295e-05 0 0.000166605 -8.15547e-05 0 0.000123469 -7.87049e-05 0 8.16151e-05 -7.67428e-05 0 4.05977e-05 -7.55802e-05 0 0 -7.51433e-05 0 0.00680373 -0.000659718 0 0.00624142 -0.000875954 0 0.00555933 -0.000972658 0 0.00486682 -0.000958687 0 0.00422974 -0.000879894 0 0.00367083 -0.000776508 0 0.00319041 -0.000671885 0 0.00278042 -0.000576435 0 0.00243078 -0.000493775 0 0.0021318 -0.000423321 0 0.0018752 -0.00036398 0 0.00165377 -0.000315016 0 0.00146171 -0.00027351 0 0.00129427 -0.000238983 0 0.00114742 -0.00020998 0 0.00101798 -0.0001852 0 0.000903268 -0.000164605 0 0.000801037 -0.000146922 0 0.000709466 -0.000131819 0 0.000626967 -0.000119077 0 0.000552223 -0.000108072 0 0.000484115 -9.87579e-05 0 0.000421647 -9.08339e-05 0 0.000363985 -8.40393e-05 0 0.00031038 -7.84439e-05 0 0.000260164 -7.37348e-05 0 0.000212752 -6.98794e-05 0 0.000167594 -6.68624e-05 0 0.000124195 -6.45228e-05 0 8.20921e-05 -6.2912e-05 0 4.08341e-05 -6.19576e-05 0 0 -6.1599e-05 0 0.00672868 -0.00050723 0 0.00619424 -0.000668299 0 0.00554828 -0.000744206 0 0.004882 -0.00073817 0 0.00425764 -0.000681355 0 0.00370209 -0.000603646 0 0.00322023 -0.000523541 0 0.00280689 -0.000449737 0 0.00245348 -0.000385474 0 0.00215094 -0.000330546 0 0.00189122 -0.00028421 0 0.00166717 -0.000245946 0 0.00147293 -0.000213502 0 0.00130368 -0.000186513 0 0.00115535 -0.000163844 0 0.00102469 -0.000144479 0 0.000908953 -0.000128388 0 0.000805872 -0.000114576 0 0.000713588 -0.000102782 0 0.000630483 -9.28331e-05 0 0.000555224 -8.42418e-05 0 0.000486672 -7.69727e-05 0 0.000423818 -7.07892e-05 0 0.000365818 -6.54877e-05 0 0.000311913 -6.11224e-05 0 0.000261427 -5.7449e-05 0 0.00021377 -5.44418e-05 0 0.000168387 -5.20887e-05 0 0.000124778 -5.02641e-05 0 8.2475e-05 -4.90079e-05 0 4.10239e-05 -4.82636e-05 0 0 -4.79839e-05 0 0.00667482 -0.000359274 0 0.00615963 -0.000470723 0 0.0055391 -0.000525155 0 0.00489213 -0.000523242 0 0.00427767 -0.000484997 0 0.00372507 -0.000430953 0 0.00324241 -0.000374439 0 0.0028267 -0.000321973 0 0.00247052 -0.000276097 0 0.00216534 -0.000236796 0 0.00190329 -0.000203604 0 0.00167726 -0.000176177 0 0.00148138 -0.000152916 0 0.00131078 -0.000133566 0 0.00116133 -0.000117314 0 0.00102974 -0.000103433 0 0.000913236 -9.19007e-05 0 0.000809514 -8.20029e-05 0 0.000716692 -7.35527e-05 0 0.000633131 -6.64262e-05 0 0.000557483 -6.02727e-05 0 0.000488596 -5.5067e-05 0 0.000425452 -5.06392e-05 0 0.000367197 -4.68434e-05 0 0.000313066 -4.37182e-05 0 0.000262377 -4.10886e-05 0 0.000214537 -3.89359e-05 0 0.000168984 -3.72516e-05 0 0.000125216 -3.59456e-05 0 8.2763e-05 -3.50466e-05 0 4.11666e-05 -3.45139e-05 0 -3.14598e-19 -3.43137e-05 0 0.00663997 -0.000214384 0 0.00613691 -0.00027987 0 0.0055326 -0.000312573 0 0.00489831 -0.000312334 0 0.00429061 -0.000290304 0 0.00374018 -0.000258466 0 0.00325712 -0.000224846 0 0.0028399 -0.000193472 0 0.00248191 -0.000165959 0 0.00217497 -0.000142354 0 0.00191137 -0.000122401 0 0.00168402 -0.000105907 0 0.00148704 -9.19158e-05 0 0.00131553 -8.02766e-05 0 0.00116533 -7.05016e-05 0 0.00103312 -6.21533e-05 0 0.000916103 -5.52185e-05 0 0.000811952 -4.92671e-05 0 0.000718769 -4.41867e-05 0 0.000634903 -3.99025e-05 0 0.000558995 -3.62037e-05 0 0.000489884 -3.30748e-05 0 0.000426545 -3.04137e-05 0 0.000368119 -2.81326e-05 0 0.000313837 -2.62547e-05 0 0.000263013 -2.46746e-05 0 0.000215049 -2.33812e-05 0 0.000169383 -2.23692e-05 0 0.000125509 -2.15845e-05 0 8.29556e-05 -2.10443e-05 0 4.12621e-05 -2.07243e-05 0 0 -2.0604e-05 0 0.0066228 -7.12676e-05 0 0.00612562 -9.28711e-05 0 0.00552923 -0.000103776 0 0.00490124 -0.000103842 0 0.00429697 -9.66505e-05 0 0.00374769 -8.6136e-05 0 0.00326447 -7.49782e-05 0 0.00284652 -6.45382e-05 0 0.00248763 -5.53696e-05 0 0.00217981 -4.74973e-05 0 0.00191543 -4.08402e-05 0 0.00168742 -3.53357e-05 0 0.00148989 -3.06663e-05 0 0.00131792 -2.67818e-05 0 0.00116734 -2.35194e-05 0 0.00103482 -2.07334e-05 0 0.000917545 -1.84192e-05 0 0.000813177 -1.64333e-05 0 0.000719812 -1.47381e-05 0 0.000635793 -1.33087e-05 0 0.000559754 -1.20746e-05 0 0.000490531 -1.10307e-05 0 0.000427094 -1.0143e-05 0 0.000368583 -9.38198e-06 0 0.000314224 -8.75553e-06 0 0.000263332 -8.22843e-06 0 0.000215307 -7.79699e-06 0 0.000169584 -7.45942e-06 0 0.000125656 -7.19769e-06 0 8.30523e-05 -7.01752e-06 0 4.131e-05 -6.91076e-06 0 0 -6.87065e-06 0 0.0066228 7.12676e-05 0 0.00612562 9.28711e-05 0 0.00552923 0.000103776 0 0.00490124 0.000103842 0 0.00429697 9.66505e-05 0 0.00374769 8.6136e-05 0 0.00326447 7.49782e-05 0 0.00284652 6.45382e-05 0 0.00248763 5.53696e-05 0 0.00217981 4.74973e-05 0 0.00191543 4.08402e-05 0 0.00168742 3.53357e-05 0 0.00148989 3.06663e-05 0 0.00131792 2.67818e-05 0 0.00116734 2.35194e-05 0 0.00103482 2.07334e-05 0 0.000917545 1.84192e-05 0 0.000813177 1.64333e-05 0 0.000719812 1.47381e-05 0 0.000635793 1.33087e-05 0 0.000559754 1.20746e-05 0 0.000490531 1.10307e-05 0 0.000427094 1.0143e-05 0 0.000368583 9.38198e-06 0 0.000314224 8.75553e-06 0 0.000263332 8.22843e-06 0 0.000215307 7.79699e-06 0 0.000169584 7.45942e-06 0 0.000125656 7.19769e-06 0 8.30523e-05 7.01752e-06 0 4.131e-05 6.91076e-06 0 0 6.87065e-06 0 0.00663997 0.000214384 0 0.00613691 0.00027987 0 0.0055326 0.000312573 0 0.00489831 0.000312334 0 0.00429061 0.000290304 0 0.00374018 0.000258466 0 0.00325712 0.000224846 0 0.0028399 0.000193472 0 0.00248191 0.000165959 0 0.00217497 0.000142354 0 0.00191137 0.000122401 0 0.00168402 0.000105907 0 0.00148704 9.19158e-05 0 0.00131553 8.02766e-05 0 0.00116533 7.05016e-05 0 0.00103312 6.21533e-05 0 0.000916103 5.52185e-05 0 0.000811952 4.92671e-05 0 0.000718769 4.41867e-05 0 0.000634903 3.99025e-05 0 0.000558995 3.62037e-05 0 0.000489884 3.30748e-05 0 0.000426545 3.04137e-05 0 0.000368119 2.81326e-05 0 0.000313837 2.62547e-05 0 0.000263013 2.46746e-05 0 0.000215049 2.33812e-05 0 0.000169383 2.23692e-05 0 0.000125509 2.15845e-05 0 8.29556e-05 2.10443e-05 0 4.12621e-05 2.07243e-05 0 0 2.0604e-05 0 0.00667482 0.000359274 0 0.00615963 0.000470723 0 0.0055391 0.000525155 0 0.00489213 0.000523242 0 0.00427767 0.000484997 0 0.00372507 0.000430953 0 0.00324241 0.000374439 0 0.0028267 0.000321973 0 0.00247052 0.000276097 0 0.00216534 0.000236796 0 0.00190329 0.000203604 0 0.00167726 0.000176177 0 0.00148138 0.000152916 0 0.00131078 0.000133566 0 0.00116133 0.000117314 0 0.00102974 0.000103433 0 0.000913236 9.19007e-05 0 0.000809514 8.20029e-05 0 0.000716692 7.35527e-05 0 0.000633131 6.64262e-05 0 0.000557483 6.02727e-05 0 0.000488596 5.5067e-05 0 0.000425452 5.06392e-05 0 0.000367197 4.68434e-05 0 0.000313066 4.37182e-05 0 0.000262377 4.10886e-05 0 0.000214537 3.89359e-05 0 0.000168984 3.72516e-05 0 0.000125216 3.59456e-05 0 8.2763e-05 3.50466e-05 0 4.11666e-05 3.45139e-05 0 0 3.43137e-05 0 0.00672868 0.00050723 0 0.00619424 0.000668299 0 0.00554828 0.000744206 0 0.004882 0.00073817 0 0.00425764 0.000681355 0 0.00370209 0.000603646 0 0.00322023 0.000523541 0 0.00280689 0.000449737 0 0.00245348 0.000385474 0 0.00215094 0.000330546 0 0.00189122 0.00028421 0 0.00166717 0.000245946 0 0.00147293 0.000213502 0 0.00130368 0.000186513 0 0.00115535 0.000163844 0 0.00102469 0.000144479 0 0.000908953 0.000128388 0 0.000805872 0.000114576 0 0.000713588 0.000102782 0 0.000630483 9.28331e-05 0 0.000555224 8.42418e-05 0 0.000486672 7.69727e-05 0 0.000423818 7.07892e-05 0 0.000365818 6.54877e-05 0 0.000311913 6.11224e-05 0 0.000261427 5.7449e-05 0 0.00021377 5.44418e-05 0 0.000168387 5.20887e-05 0 0.000124778 5.02641e-05 0 8.2475e-05 4.90079e-05 0 4.10239e-05 4.82636e-05 0 1.49576e-18 4.79839e-05 0 0.00680373 0.000659718 0 0.00624142 0.000875954 0 0.00555933 0.000972658 0 0.00486682 0.000958687 0 0.00422974 0.000879894 0 0.00367083 0.000776508 0 0.00319041 0.000671885 0 0.00278042 0.000576435 0 0.00243078 0.000493775 0 0.0021318 0.000423321 0 0.0018752 0.00036398 0 0.00165377 0.000315016 0 0.00146171 0.00027351 0 0.00129427 0.000238983 0 0.00114742 0.00020998 0 0.00101798 0.0001852 0 0.000903268 0.000164605 0 0.000801037 0.000146922 0 0.000709466 0.000131819 0 0.000626967 0.000119077 0 0.000552223 0.000108072 0 0.000484115 9.87579e-05 0 0.000421647 9.08339e-05 0 0.000363985 8.40393e-05 0 0.00031038 7.84439e-05 0 0.000260164 7.37348e-05 0 0.000212752 6.98794e-05 0 0.000167594 6.68624e-05 0 0.000124195 6.45228e-05 0 8.20921e-05 6.2912e-05 0 4.08341e-05 6.19576e-05 0 0 6.1599e-05 0 0.00690322 0.000818494 0 0.00630206 0.00109784 0 0.00557095 0.00121378 0 0.00484502 0.00118629 0 0.00419295 0.00108097 0 0.00363078 0.000949378 0 0.00315276 0.000819139 0 0.00274725 0.000701708 0 0.00240248 0.000600668 0 0.00210799 0.000514838 0 0.00185528 0.000442676 0 0.00163713 0.00038319 0 0.00144778 0.000332778 0 0.00128257 0.000290844 0 0.00113757 0.000255613 0 0.00100965 0.000225506 0 0.000896199 0.000200475 0 0.000795023 0.000178977 0 0.000704339 0.000160612 0 0.000622591 0.000145113 0 0.000548489 0.000131723 0 0.000480932 0.000120389 0 0.000418944 0.000110744 0 0.000361703 0.000102472 0 0.000308471 9.56593e-05 0 0.00025859 8.99249e-05 0 0.000211483 8.52295e-05 0 0.000166605 8.15547e-05 0 0.000123469 7.87049e-05 0 8.16151e-05 7.67428e-05 0 4.05977e-05 7.55802e-05 0 0 7.51433e-05 0 0.00703197 0.000985755 0 0.00637718 0.00133932 0 0.00558114 0.00147126 0 0.00481448 0.0014223 0 0.00414597 0.00128468 0 0.00358134 0.00112194 0 0.00310706 0.000964888 0 0.00270737 0.000825159 0 0.0023686 0.00070581 0 0.00207956 0.000604808 0 0.00183153 0.000520063 0 0.00161729 0.000450274 0 0.00143118 0.000391148 0 0.00126864 0.000341966 0 0.00112582 0.000300635 0 0.000999717 0.000265307 0 0.00088777 0.000235924 0 0.00078785 0.00021068 0 0.000698222 0.000189108 0 0.000617368 0.000170896 0 0.00054403 0.000155157 0 0.000477132 0.000141832 0 0.000415716 0.00013049 0 0.000358977 0.000120761 0 0.000306191 0.000112746 0 0.00025671 0.000105998 0 0.000209966 0.000100473 0 0.000165424 9.61481e-05 0 0.000122601 9.27939e-05 0 8.10449e-05 9.04843e-05 0 4.03152e-05 8.91157e-05 0 0 8.86014e-05 0 0.00719707 0.00116438 0 0.00646779 0.00160762 0 0.00558677 0.00174921 0 0.0047724 0.00166774 0 0.00408728 0.00149083 0 0.00352185 0.00129369 0 0.0030531 0.00110863 0 0.00266074 0.000946353 0 0.00232921 0.000808842 0 0.0020466 0.000692941 0 0.00180404 0.000595904 0 0.00159435 0.000516077 0 0.00141198 0.000448466 0 0.00125251 0.000392221 0 0.00111223 0.000344943 0 0.000988216 0.000304518 0 0.000878006 0.00027088 0 0.000779537 0.00024197 0 0.00069113 0.000217255 0 0.000611312 0.000196382 0 0.000538858 0.000178338 0 0.000472722 0.000163055 0 0.000411969 0.000150043 0 0.000355813 0.000138879 0 0.000303544 0.00012968 0 0.000254527 0.000121935 0 0.000208205 0.000115591 0 0.000164052 0.000110625 0 0.000121593 0.000106773 0 8.03825e-05 0.000104121 0 3.99869e-05 0.000102549 0 -4.48695e-18 0.000101958 0 0.00740835 0.00135836 0 0.00657423 0.00191282 0 0.00558328 0.00205211 0 0.00471556 0.0019231 0 0.00401541 0.00169878 0 0.0034518 0.00146389 0 0.00299081 0.00124974 0 0.00260749 0.00106481 0 0.00228447 0.000909391 0 0.00200928 0.000778944 0 0.00177295 0.000669968 0 0.00156841 0.000580413 0 0.00139028 0.000504579 0 0.00123428 0.000441487 0 0.00109686 0.000388435 0 0.000975206 0.000343054 0 0.000866955 0.000305273 0 0.000770126 0.000272789 0 0.000683098 0.000245004 0 0.000604449 0.000221528 0 0.000532996 0.000201227 0 0.000467722 0.000184026 0 0.00040772 0.000169376 0 0.000352223 0.000156804 0 0.00030054 0.000146441 0 0.000252049 0.000137714 0 0.000206206 0.000130565 0 0.000162494 0.000124968 0 0.000120448 0.000120627 0 7.96305e-05 0.000117636 0 3.96142e-05 0.000115864 0 0 0.000115198 0 0.00768367 0.00157351 0 0.00669599 0.00226938 0 0.00556329 0.00238436 0 0.00463936 0.00218799 0 0.00392824 0.00190738 0 0.00337033 0.00163158 0 0.00291987 0.00138753 0 0.00254751 0.00118002 0 0.00223438 0.00100708 0 0.00196762 0.000862527 0 0.00173829 0.000742029 0 0.00153952 0.000643101 0 0.0013661 0.000559344 0 0.00121397 0.000489645 0 0.00107972 0.000431014 0 0.000960693 0.000380836 0 0.000854622 0.000339037 0 0.000759616 0.000303078 0 0.000674124 0.000272307 0 0.000596779 0.000246293 0 0.000526441 0.000223789 0 0.00046213 0.000204713 0 0.000402966 0.000188461 0 0.000348206 0.000174509 0 0.000297177 0.000163006 0 0.000249275 0.000153317 0 0.000203967 0.000145378 0 0.00016075 0.000139161 0 0.000119166 0.000134338 0 7.87881e-05 0.000131016 0 3.91966e-05 0.000129047 0 0 0.000128307 0 0.00804975 0.00181892 0 0.00682807 0.00269843 0 0.0055166 0.0027494 0 0.00453925 0.00246076 0 0.00382427 0.00211489 0 0.00327711 0.00179554 0 0.00284036 0.00152119 0 0.00248102 0.00129144 0 0.00217917 0.00110151 0 0.00192184 0.000943402 0 0.00170026 0.000811866 0 0.00150782 0.000703968 0 0.00133957 0.000612621 0 0.00119167 0.000536582 0 0.0010609 0.000472586 0 0.000944745 0.000417786 0 0.000841062 0.000372104 0 0.000748055 0.000332784 0 0.000664247 0.000299116 0 0.000588333 0.000270638 0 0.00051922 0.00024599 0 0.000455966 0.000225087 0 0.000397724 0.000207271 0 0.000343775 0.000191972 0 0.000293467 0.000179354 0 0.000246214 0.000168723 0 0.000201497 0.00016001 0 0.000158824 0.000153186 0 0.000117751 0.000147892 0 7.7858e-05 0.000144244 0 3.87356e-05 0.000142083 0 -9.32549e-18 0.00014127 0 0.00855552 0.00211009 0 0.00695609 0.00323055 0 0.00542897 0.00314787 0 0.00441029 0.00273803 0 0.0037021 0.0023189 0 0.00317187 0.00195435 0 0.00275239 0.00164984 0 0.00240821 0.00139851 0 0.00211905 0.0011923 0 0.00187212 0.00102129 0 0.001659 0.000879269 0 0.00147344 0.000762848 0 0.0013108 0.000664278 0 0.00116747 0.000582191 0 0.00104047 0.000513062 0 0.000927417 0.00045383 0 0.000826319 0.000404415 0 0.000735477 0.000361854 0 0.000653494 0.000325388 0 0.000579132 0.000294523 0 0.000511351 0.000267796 0 0.000449246 0.000245118 0 0.000392006 0.000225781 0 0.00033894 0.00020917 0 0.000289418 0.000195464 0 0.000242872 0.000183914 0 0.000198799 0.000174446 0 0.000156721 0.000167028 0 0.000116205 0.000161272 0 7.68421e-05 0.000157307 0 3.8232e-05 0.000154956 0 0 0.000154073 0 0.00930115 0.00247703 0 0.00704279 0.0039066 0 0.00528226 0.00357463 0 0.0042479 0.00301431 0 0.00356076 0.00251642 0 0.00305459 0.00210637 0 0.00265617 0.00177257 0 0.00232936 0.00150065 0 0.00205426 0.00127907 0 0.00181867 0.00109592 0 0.00161469 0.000944037 0 0.00143652 0.000819584 0 0.00127989 0.000714192 0 0.00114146 0.000626371 0 0.00101848 0.00055236 0 0.000908762 0.000488899 0 0.000810434 0.00043591 0 0.000721915 0.000390237 0 0.000641894 0.000351079 0 0.000569201 0.000317911 0 0.000502851 0.000289174 0 0.000441984 0.000264778 0 0.000385826 0.000243966 0 0.000333712 0.00022608 0 0.000285038 0.000211316 0 0.000239255 0.000198871 0 0.000195879 0.000188667 0 0.000154444 0.000180671 0 0.000114531 0.000174465 0 7.5742e-05 0.000170189 0 3.76867e-05 0.000167654 0 2.93447e-17 0.000166702 0 0.010532 0.00299075 0 0.0070033 0.00476475 0 0.00505757 0.00401498 0 0.00404916 0.00328201 0 0.00340016 0.00270397 0 0.00292569 0.00224991 0 0.00255216 0.00188844 0 0.00224484 0.00159731 0 0.00198511 0.00136146 0 0.00176173 0.00116703 0 0.00156752 0.00100598 0 0.00139722 0.000874033 0 0.00124696 0.000762246 0 0.00111373 0.000669028 0 0.00099503 0.000590402 0 0.000888845 0.000522928 0 0.000793461 0.000466533 0 0.000707414 0.000417888 0 0.00062948 0.000376149 0 0.000558566 0.000340768 0 0.000493744 0.000310096 0 0.0004342 0.00028404 0 0.000379197 0.000261801 0 0.000328103 0.00024268 0 0.000280337 0.000226891 0 0.000235373 0.000213577 0 0.000192743 0.000202657 0 0.000151999 0.000194099 0 0.000112733 0.000187455 0 7.45601e-05 0.000182877 0 3.71008e-05 0.000180162 0 1.97091e-17 0.000179142 0 0.013143 0.0039073 0 0.00668278 0.00578246 0 0.00474111 0.00444234 0 0.00381363 0.0035319 0 0.00322112 0.00287787 0 0.00278593 0.00238324 0 0.00244095 0.00199655 0 0.00215512 0.00168796 0 0.00191196 0.00143913 0 0.00170159 0.00123441 0 0.00151771 0.00106494 0 0.00135569 0.000926062 0 0.00121215 0.000808336 0 0.0010844 0.000710076 0 0.000970193 0.000627116 0 0.000867731 0.000555857 0 0.000775453 0.000496235 0 0.000692014 0.000444762 0 0.000616288 0.00040056 0 0.000547257 0.00036306 0 0.000484053 0.00033053 0 0.000425911 0.000302878 0 0.000372135 0.000279263 0 0.000322124 0.000258951 0 0.000275324 0.00024217 0 0.000231232 0.000228015 0 0.000189398 0.000216402 0 0.00014939 0.000207297 0 0.000110814 0.000200228 0 7.32987e-05 0.000195356 0 3.64753e-05 0.000192467 0 0 0.000191382 0 0.0443792 0.0262435 0 0.00592819 0.00676931 0 0.00433285 0.00482123 0 0.00354426 0.0037543 0 0.00302551 0.00303452 0 0.00263648 0.00250476 0 0.0023233 0.00209608 0 0.00206072 0.00177214 0 0.00183519 0.00151178 0 0.00163853 0.00129783 0 0.00146548 0.00112075 0 0.00131213 0.000975554 0 0.00117559 0.000852367 0 0.00105356 0.000749437 0 0.000944056 0.000662436 0 0.00084549 0.00058763 0 0.000756464 0.000524966 0 0.000675761 0.000470817 0 0.000602353 0.000424276 0 0.000535301 0.000384756 0 0.000473801 0.00035045 0 0.000417138 0.000321268 0 0.000364657 0.000296331 0 0.00031579 0.000274872 0 0.000270012 0.000257135 0 0.000226842 0.000242167 0 0.00018585 0.000229884 0 0.000146622 0.000220251 0 0.000108779 0.00021277 0 7.196e-05 0.000207614 0 3.58116e-05 0.000204556 0 0 0.000203407 0 </DataArray> 
</PointData> 
<Points> 
<DataArray type="Float32" NumberOfComponents="3"> 