<?xml version="1.0"?> 
<VTKFile type="StructuredGrid" version="0.1"> 
<StructuredGrid WholeExtent="0 31 0 31 0 0"> 
<Piece Extent="0 31 0 31 0 0"> 
<PointData>
<DataArray type="Float32" Name="B" format="ascii" NumberOfComponents="3"> 
-0.00158315 -0 0 -0.00151601 -0 0 -0.00144796 -0 0 -0.00137943 -0 0 -0.00131081 -0 0 -0.00124248 -0 0 -0.00117476 -0 0 -0.00110796 -0 0 -0.00104236 -0 0 -0.000978172 -0 0 -0.000915599 -0 0 -0.000854795 -0 0 -0.000795877 -0 0 -0.000738928 -0 0 -0.000683999 -0 0 -0.000631109 -0 0 -0.000580253 -0 0 -0.000531395 -0 0 -0.000484482 -0 0 -0.000439438 -0 0 -0.00039617 -0 0 -0.000354572 -0 0 -0.000314523 -0 0 -0.000275893 -0 0 -0.000238543 -0 0 -0.000202325 -0 0 -0.000167088 -0 0 -0.000132674 -0 0 -9.89218e-05 -0 0 -6.56704e-05 -0 0 -3.27511e-05 -0 0 0 -0 0 -0.0015839 -6.6638e-05 0 -0.00151652 -6.7755e-05 0 -0.00144823 -6.8442e-05 0 -0.00137948 -6.87193e-05 0 -0.00131065 -6.8612e-05 0 -0.00124212 -6.81491e-05 0 -0.00117423 -6.73645e-05 0 -0.00110729 -6.6294e-05 0 -0.00104155 -6.49701e-05 0 -0.000977261 -6.34414e-05 0 -0.000914601 -6.17421e-05 0 -0.000853731 -5.98968e-05 0 -0.000794767 -5.79592e-05 0 -0.000737789 -5.59523e-05 0 -0.000682849 -5.39111e-05 0 -0.000629964 -5.18643e-05 0 -0.000579126 -4.98411e-05 0 -0.0005303 -4.78609e-05 0 -0.00048343 -4.59455e-05 0 -0.000438438 -4.41204e-05 0 -0.00039523 -4.23886e-05 0 -0.0003537 -4.07769e-05 0 -0.000313725 -3.92911e-05 0 -0.000275173 -3.79305e-05 0 -0.000237906 -3.67304e-05 0 -0.000201773 -3.56702e-05 0 -0.000166625 -3.47633e-05 0 -0.000132301 -3.40254e-05 0 -9.86411e-05 -3.34377e-05 0 -6.54827e-05 -3.30239e-05 0 -3.2657e-05 -3.27752e-05 0 -1.55364e-19 -3.26812e-05 0 -0.00158589 -0.000133725 0 -0.00151785 -0.000135944 0 -0.00144894 -0.000137298 0 -0.00137959 -0.000137826 0 -0.00131021 -0.000137582 0 -0.00124117 -0.000136623 0 -0.00117283 -0.000135018 0 -0.00110549 -0.000132839 0 -0.00103941 -0.000130153 0 -0.000974832 -0.000127057 0 -0.000911944 -0.000123621 0 -0.000850899 -0.000119894 0 -0.000791812 -0.000115985 0 -0.000734761 -0.000111939 0 -0.000679792 -0.000107827 0 -0.000626922 -0.000103706 0 -0.000576135 -9.96363e-05 0 -0.000527393 -9.56547e-05 0 -0.000480637 -9.18051e-05 0 -0.000435784 -8.8139e-05 0 -0.000392738 -8.46616e-05 0 -0.000351388 -8.14266e-05 0 -0.000311607 -7.84454e-05 0 -0.000273265 -7.57162e-05 0 -0.000236216 -7.33096e-05 0 -0.000200311 -7.1184e-05 0 -0.000165398 -6.9366e-05 0 -0.000131314 -6.78871e-05 0 -9.78973e-05 -6.67096e-05 0 -6.49854e-05 -6.58804e-05 0 -3.24079e-05 -6.53821e-05 0 -2.03666e-19 -6.51937e-05 0 -0.00158918 -0.000201707 0 -0.00152004 -0.000204998 0 -0.00145007 -0.000206976 0 -0.00137972 -0.000207704 0 -0.00130942 -0.000207263 0 -0.00123954 -0.00020574 0 -0.00117043 -0.000203242 0 -0.00110242 -0.00019988 0 -0.00103577 -0.000195755 0 -0.000970719 -0.000191016 0 -0.00090745 -0.000185768 0 -0.000846116 -0.000180088 0 -0.000786829 -0.000174139 0 -0.000729659 -0.000167991 0 -0.000674649 -0.00016175 0 -0.000621805 -0.000155503 0 -0.000571108 -0.000149338 0 -0.000522512 -0.000143313 0 -0.000475949 -0.000137493 0 -0.000431333 -0.000131954 0 -0.00038856 -0.000126704 0 -0.000347513 -0.000121823 0 -0.000308062 -0.000117328 0 -0.00027007 -0.000113214 0 -0.000233389 -0.000109589 0 -0.000197866 -0.000106388 0 -0.000163345 -0.000103651 0 -0.000129662 -0.000101425 0 -9.66536e-05 -9.96528e-05 0 -6.41538e-05 -9.84054e-05 0 -3.19914e-05 -9.76558e-05 0 0 -9.73723e-05 0 -0.00159383 -0.000271056 0 -0.00152309 -0.000275372 0 -0.0014516 -0.00027791 0 -0.00137981 -0.000278759 0 -0.00130817 -0.000278027 0 -0.00123707 -0.000275837 0 -0.00116687 -0.000272336 0 -0.00109791 -0.000267674 0 -0.00103044 -0.000261993 0 -0.000964712 -0.000255493 0 -0.000900905 -0.000248318 0 -0.000839167 -0.000240575 0 -0.000779601 -0.000232481 0 -0.000722273 -0.000224135 0 -0.000667212 -0.000215677 0 -0.000614417 -0.000207222 0 -0.000563859 -0.000198892 0 -0.000515479 -0.000190761 0 -0.000469204 -0.000182914 0 -0.000424933 -0.000175456 0 -0.000382557 -0.000168393 0 -0.000341951 -0.000161832 0 -0.000302975 -0.000155795 0 -0.000265489 -0.000150273 0 -0.000229338 -0.000145411 0 -0.000194363 -0.000141119 0 -0.000160406 -0.000137452 0 -0.000127298 -0.00013447 0 -9.48737e-05 -0.000132097 0 -6.29641e-05 -0.000130427 0 -3.13956e-05 -0.000129424 0 0 -0.000129045 0 -0.00159963 -0.000342254 0 -0.00152685 -0.00034753 0 -0.00145339 -0.00035054 0 -0.00137976 -0.000351398 0 -0.00130641 -0.000350247 0 -0.00123376 -0.000347248 0 -0.00116217 -0.000342591 0 -0.001092 -0.000336472 0 -0.0010235 -0.000329073 0 -0.000956922 -0.000320653 0 -0.000892443 -0.000311396 0 -0.000830204 -0.000301442 0 -0.0007703 -0.000291064 0 -0.000712784 -0.000280389 0 -0.000657675 -0.000269595 0 -0.000604958 -0.000258825 0 -0.00055459 -0.000248236 0 -0.0005065 -0.000237915 0 -0.0004606 -0.00022797 0 -0.00041678 -0.000218531 0 -0.000374917 -0.000209601 0 -0.000334877 -0.000201317 0 -0.000296512 -0.000193701 0 -0.000259672 -0.000186742 0 -0.000224196 -0.000180619 0 -0.00018992 -0.000175218 0 -0.00015668 -0.000170606 0 -0.000124303 -0.000166858 0 -9.26186e-05 -0.000163876 0 -6.14568e-05 -0.000161778 0 -3.06409e-05 -0.000160518 0 0 -0.000160041 0 -0.00160668 -0.000415806 0 -0.0015313 -0.000421958 0 -0.00145537 -0.000425323 0 -0.00137941 -0.000426048 0 -0.00130391 -0.000424312 0 -0.0012293 -0.000420319 0 -0.00115598 -0.000414309 0 -0.00108429 -0.000406528 0 -0.00101452 -0.000397204 0 -0.000946891 -0.000386659 0 -0.000881594 -0.000375121 0 -0.000818755 -0.000362767 0 -0.000758455 -0.000349926 0 -0.000700734 -0.00033676 0 -0.000645593 -0.000323482 0 -0.000593001 -0.000310263 0 -0.000542897 -0.000297297 0 -0.000495193 -0.000284682 0 -0.000449784 -0.000272549 0 -0.000406546 -0.000261054 0 -0.00036534 -0.000250194 0 -0.000326022 -0.000240134 0 -0.00028843 -0.000230896 0 -0.000252405 -0.000222464 0 -0.000217779 -0.000215052 0 -0.000184379 -0.00020852 0 -0.000152035 -0.000202945 0 -0.000120571 -0.000198418 0 -8.98104e-05 -0.000194818 0 -5.95806e-05 -0.000192286 0 -2.97015e-05 -0.000190766 0 0 -0.000190191 0 -0.00161482 -0.000492269 0 -0.0015363 -0.000499188 0 -0.00145737 -0.00050276 0 -0.0013786 -0.000503168 0 -0.0013005 -0.000500636 0 -0.00122355 -0.000495416 0 -0.00114816 -0.000487804 0 -0.00107468 -0.000478104 0 -0.0010034 -0.000466597 0 -0.000934551 -0.000453671 0 -0.000868308 -0.000439606 0 -0.000804788 -0.000424619 0 -0.000744054 -0.000409097 0 -0.000686127 -0.00039324 0 -0.000630987 -0.000377298 0 -0.000578582 -0.000361467 0 -0.000528828 -0.000345984 0 -0.000481616 -0.000330953 0 -0.000436822 -0.000316527 0 -0.000394301 -0.000302887 0 -0.0003539 -0.000290022 0 -0.000315457 -0.000278125 0 -0.0002788 -0.000267215 0 -0.000243756 -0.00025727 0 -0.000210148 -0.000248538 0 -0.000177796 -0.000240851 0 -0.000146521 -0.000234294 0 -0.000116142 -0.000228975 0 -8.64798e-05 -0.000224746 0 -5.7356e-05 -0.000221774 0 -2.8588e-05 -0.000219989 0 -1.75753e-18 -0.000219314 0 -0.0016239 -0.00057222 0 -0.00154168 -0.000579772 0 -0.00145923 -0.000583368 0 -0.00137716 -0.000583233 0 -0.00129604 -0.000579643 0 -0.00121636 -0.000572907 0 -0.00113856 -0.000563388 0 -0.00106302 -0.000551455 0 -0.000990016 -0.00053745 0 -0.000919789 -0.000521835 0 -0.000852493 -0.000504945 0 -0.000788229 -0.000487047 0 -0.000727042 -0.000468586 0 -0.000668928 -0.000449802 0 -0.00061384 -0.000430985 0 -0.000561698 -0.000412354 0 -0.000512393 -0.000394192 0 -0.000465791 -0.000376604 0 -0.000421744 -0.000359764 0 -0.000380084 -0.00034388 0 -0.00034064 -0.000328928 0 -0.000303231 -0.000315126 0 -0.00026767 -0.000302491 0 -0.000233773 -0.000290988 0 -0.000201349 -0.000280905 0 -0.000170211 -0.000272036 0 -0.000140173 -0.000264479 0 -0.000111047 -0.000258353 0 -8.26496e-05 -0.000253486 0 -5.47985e-05 -0.000250066 0 -2.73081e-05 -0.000248014 0 0 -0.000247238 0 -0.00163396 -0.00065631 0 -0.00154731 -0.000664327 0 -0.00146065 -0.000667719 0 -0.00137465 -0.000666762 0 -0.00128994 -0.000661792 0 -0.00120704 -0.00065319 0 -0.00112643 -0.000641391 0 -0.00104849 -0.000626843 0 -0.00097352 -0.000609961 0 -0.000901733 -0.000591287 0 -0.000833273 -0.000571221 0 -0.000768219 -0.000550082 0 -0.000706585 -0.000528378 0 -0.000648336 -0.000506395 0 -0.000593391 -0.000484459 0 -0.000541637 -0.000462813 0 -0.000492931 -0.000441789 0 -0.000447108 -0.000421487 0 -0.000403992 -0.000402101 0 -0.000363389 -0.000383865 0 -0.000325103 -0.000366735 0 -0.000288936 -0.000350957 0 -0.000254681 -0.00033654 0 -0.00022214 -0.000323435 0 -0.000191112 -0.000311966 0 -0.000161397 -0.00030189 0 -0.000132805 -0.000293314 0 -0.000105138 -0.000286368 0 -7.82103e-05 -0.000280854 0 -5.18356e-05 -0.000276982 0 -2.58257e-05 -0.000274658 0 0 -0.00027378 0 -0.00164471 -0.000745252 0 -0.00155295 -0.00075353 0 -0.00146144 -0.000756439 0 -0.00137094 -0.000754317 0 -0.00128213 -0.000747576 0 -0.00119558 -0.000736678 0 -0.00111181 -0.00072215 0 -0.0010312 -0.00070453 0 -0.000954053 -0.000684318 0 -0.000880574 -0.000662147 0 -0.000810884 -0.000638489 0 -0.000745026 -0.000613728 0 -0.000682981 -0.00058843 0 -0.000624672 -0.000562935 0 -0.000569978 -0.000537606 0 -0.000518746 -0.000512704 0 -0.000470793 -0.000488617 0 -0.000425917 -0.000465429 0 -0.000383909 -0.000443354 0 -0.000344546 -0.000422651 0 -0.000307606 -0.000403249 0 -0.000272868 -0.000385422 0 -0.000240106 -0.000369167 0 -0.000209108 -0.000354416 0 -0.000179658 -0.00034153 0 -0.000151547 -0.000330223 0 -0.000124577 -0.000320612 0 -9.85457e-05 -0.000312835 0 -7.32606e-05 -0.000306666 0 -4.85336e-05 -0.000302336 0 -2.41741e-05 -0.00029974 0 0 -0.000298758 0 -0.00165601 -0.000839827 0 -0.00155832 -0.000848114 0 -0.00146121 -0.000850198 0 -0.00136553 -0.000846496 0 -0.00127203 -0.000837508 0 -0.00118135 -0.000823798 0 -0.00109402 -0.000806002 0 -0.00101044 -0.000784766 0 -0.000930913 -0.000760688 0 -0.000855623 -0.000734508 0 -0.000784658 -0.000706776 0 -0.000718019 -0.000677954 0 -0.00065564 -0.000648663 0 -0.000597394 -0.000619305 0 -0.000543107 -0.000590279 0 -0.000492578 -0.000561857 0 -0.000445578 -0.000534488 0 -0.000401862 -0.000508231 0 -0.000361183 -0.000483318 0 -0.000323283 -0.000460029 0 -0.000287912 -0.000438262 0 -0.000254824 -0.000418314 0 -0.000223773 -0.000400166 0 -0.000194529 -0.000383729 0 -0.000166865 -0.000369398 0 -0.000140562 -0.000356842 0 -0.000115412 -0.000346181 0 -9.12081e-05 -0.000337566 0 -6.77554e-05 -0.000330738 0 -4.48629e-05 -0.000325948 0 -2.23386e-05 -0.000323077 0 0 -0.000321992 0 -0.00166765 -0.000940946 0 -0.00156306 -0.000948931 0 -0.00145947 -0.000949773 0 -0.00135782 -0.000943979 0 -0.00125895 -0.000932165 0 -0.00116358 -0.000915016 0 -0.00107225 -0.000893302 0 -0.000985402 -0.000867797 0 -0.000903304 -0.000839221 0 -0.000826114 -0.00080843 0 -0.000753873 -0.000776067 0 -0.000686529 -0.000742681 0 -0.00062395 -0.000708949 0 -0.000565949 -0.000675337 0 -0.000512286 -0.000642279 0 -0.000462702 -0.000610053 0 -0.000416912 -0.00057917 0 -0.00037462 -0.000549654 0 -0.000335537 -0.00052175 0 -0.000299365 -0.000495759 0 -0.000265823 -0.000471535 0 -0.000234639 -0.000449399 0 -0.000205545 -0.000429311 0 -0.000178293 -0.000411153 0 -0.000152644 -0.000395357 0 -0.000128368 -0.000381538 0 -0.000105251 -0.000369822 0 -8.3083e-05 -0.000360365 0 -6.16643e-05 -0.000352876 0 -4.08039e-05 -0.000347627 0 -2.03097e-05 -0.000344481 0 0 -0.000343293 0 -0.00167933 -0.00104962 0 -0.00156689 -0.00105692 0 -0.00145592 -0.00105601 0 -0.00134752 -0.0010475 0 -0.00124263 -0.00103215 0 -0.00114204 -0.00101081 0 -0.00104634 -0.000984396 0 -0.000955954 -0.000953849 0 -0.000871144 -0.000920031 0 -0.000792017 -0.000883931 0 -0.000718553 -0.000846297 0 -0.000650624 -0.00080778 0 -0.000588023 -0.000769103 0 -0.000530485 -0.000730812 0 -0.000477693 -0.000693361 0 -0.000429317 -0.000657028 0 -0.000385008 -0.000622394 0 -0.000344414 -0.000589426 0 -0.000307196 -0.000558382 0 -0.000273016 -0.000529578 0 -0.000241557 -0.000502813 0 -0.00021252 -0.000478433 0 -0.000185614 -0.000456366 0 -0.000160576 -0.000436464 0 -0.000137152 -0.00041919 0 -0.000115104 -0.000404104 0 -9.42137e-05 -0.000391332 0 -7.42649e-05 -0.000381038 0 -5.50589e-05 -0.000372892 0 -3.64045e-05 -0.000367188 0 -1.81113e-05 -0.000363771 0 0 -0.000362481 0 -0.00169071 -0.001167 0 -0.0015691 -0.00117316 0 -0.00144959 -0.00116986 0 -0.00133343 -0.00115787 0 -0.0012217 -0.00113813 0 -0.00111524 -0.00111167 0 -0.00101471 -0.00107962 0 -0.000920525 -0.00104312 0 -0.000832892 -0.00100318 0 -0.000751854 -0.000960967 0 -0.000677306 -0.000917332 0 -0.00060902 -0.000873049 0 -0.000546688 -0.000828875 0 -0.000489948 -0.00078544 0 -0.000438386 -0.000743217 0 -0.000391591 -0.000702465 0 -0.000349139 -0.000663839 0 -0.00031061 -0.000627233 0 -0.000275614 -0.000592907 0 -0.000243766 -0.000561192 0 -0.000214713 -0.000531818 0 -0.000188128 -0.00050515 0 -0.000163696 -0.000481082 0 -0.00014114 -0.000459425 0 -0.000120193 -0.000440675 0 -0.000100611 -0.000424328 0 -8.21709e-05 -0.000410511 0 -6.46559e-05 -0.00039939 0 -4.7868e-05 -0.000390599 0 -3.16184e-05 -0.000384447 0 -1.57207e-05 -0.000380765 0 0 -0.000379375 0 -0.00170138 -0.00129449 0 -0.00156923 -0.00129891 0 -0.00143993 -0.00129244 0 -0.00131495 -0.00127602 0 -0.00119552 -0.00125083 0 -0.00108258 -0.00121813 0 -0.000976817 -0.00117932 0 -0.000878615 -0.00113575 0 -0.000788126 -0.00108868 0 -0.000705289 -0.00103941 0 -0.000629883 -0.000988944 0 -0.000561549 -0.000938188 0 -0.000499853 -0.000887915 0 -0.00044431 -0.000838846 0 -0.000394396 -0.000791456 0 -0.0003496 -0.000745972 0 -0.000309412 -0.000703123 0 -0.000273342 -0.000662705 0 -0.00024094 -0.000624974 0 -0.000211773 -0.000590269 0 -0.000185452 -0.000558237 0 -0.00016162 -0.00052926 0 -0.000139942 -0.000503186 0 -0.000120126 -0.000479783 0 -0.000101896 -0.000459573 0 -8.5002e-05 -0.000441987 0 -6.922e-05 -0.000427148 0 -5.43347e-05 -0.000415222 0 -4.01512e-05 -0.000405804 0 -2.64857e-05 -0.00039922 0 -1.31581e-05 -0.000395281 0 0 -0.000393794 0 -0.00171093 -0.00143363 0 -0.00156667 -0.00143562 0 -0.00142622 -0.00142499 0 -0.00129128 -0.00140297 0 -0.00116326 -0.00137101 0 -0.00104322 -0.0013307 0 -0.000931845 -0.00128376 0 -0.000829492 -0.00123183 0 -0.000736205 -0.00117642 0 -0.000651783 -0.00111902 0 -0.000575849 -0.0010608 0 -0.000507877 -0.0010028 0 -0.000447274 -0.000945781 0 -0.00039341 -0.000890568 0 -0.000345628 -0.000837617 0 -0.000303304 -0.000787095 0 -0.000265835 -0.000739811 0 -0.00023265 -0.000695431 0 -0.00020324 -0.000654201 0 -0.000177121 -0.000616456 0 -0.000153867 -0.000581746 0 -0.000133094 -0.000550464 0 -0.00011445 -0.000522404 0 -9.76273e-05 -0.000497286 0 -8.23467e-05 -0.000475654 0 -6.83547e-05 -0.000456867 0 -5.54284e-05 -0.000441043 0 -4.33568e-05 -0.000428345 0 -3.19511e-05 -0.000418329 0 -2.10351e-05 -0.000411332 0 -1.04377e-05 -0.000407149 0 0 -0.00040557 0 -0.00171838 -0.00158635 0 -0.00155984 -0.001585 0 -0.0014063 -0.001569 0 -0.00125982 -0.0015399 0 -0.00112204 -0.00149953 0 -0.000994121 -0.00144992 0 -0.000876767 -0.00139318 0 -0.000770224 -0.00133132 0 -0.000674375 -0.00126617 0 -0.00058881 -0.00119943 0 -0.000512933 -0.00113241 0 -0.000445996 -0.00106632 0 -0.000387202 -0.00100189 0 -0.000335741 -0.000940019 0 -0.000290797 -0.000881125 0 -0.000251619 -0.000825289 0 -0.000217497 -0.000773391 0 -0.000187777 -0.00072494 0 -0.000161886 -0.000680154 0 -0.000139291 -0.000639357 0 -0.000119534 -0.000601986 0 -0.000102206 -0.000568437 0 -8.69392e-05 -0.000538445 0 -7.34208e-05 -0.00051167 0 -6.13677e-05 -0.000488677 0 -5.05293e-05 -0.000468748 0 -4.06879e-05 -0.000451994 0 -3.16411e-05 -0.000438571 0 -2.32099e-05 -0.000427994 0 -1.52296e-05 -0.000420614 0 -7.54168e-06 -0.000416203 0 2.0833e-18 -0.000414539 0 -0.00172336 -0.00175492 0 -0.00154831 -0.00174912 0 -0.00137975 -0.0017262 0 -0.00122019 -0.00168813 0 -0.00107156 -0.00163729 0 -0.000935142 -0.00157626 0 -0.000811585 -0.00150769 0 -0.000700978 -0.00143405 0 -0.000602958 -0.00135752 0 -0.000516828 -0.00128004 0 -0.000441703 -0.00120309 0 -0.000376554 -0.00112804 0 -0.000320336 -0.00105551 0 -0.000272028 -0.000986481 0 -0.000230633 -0.000921299 0 -0.000195259 -0.000859917 0 -0.000165086 -0.000803283 0 -0.000139373 -0.000750702 0 -0.000117485 -0.000702359 0 -9.88452e-05 -0.000658549 0 -8.29634e-05 -0.000618581 0 -6.94146e-05 -0.000582846 0 -5.78204e-05 -0.000551011 0 -4.78652e-05 -0.00052267 0 -3.92691e-05 -0.000498405 0 -3.17884e-05 -0.000477418 0 -2.52151e-05 -0.000459806 0 -1.93591e-05 -0.000445721 0 -1.40554e-05 -0.000434635 0 -9.15385e-06 -0.000426906 0 -4.51209e-06 -0.000422291 0 1.19956e-18 -0.00042055 0 -0.00172472 -0.00194208 0 -0.00153019 -0.00193043 0 -0.00134408 -0.00189861 0 -0.00116949 -0.00184916 0 -0.00100873 -0.00178522 0 -0.000863163 -0.00171012 0 -0.000733335 -0.00162723 0 -0.000619047 -0.00153958 0 -0.000519568 -0.0014498 0 -0.000433791 -0.00136005 0 -0.000360448 -0.00127195 0 -0.000298148 -0.00118704 0 -0.000245547 -0.00110573 0 -0.000201378 -0.0010291 0 -0.000164439 -0.000957353 0 -0.000133693 -0.000890266 0 -0.000108203 -0.000828843 0 -8.71447e-05 -0.00077215 0 -6.98284e-05 -0.000720313 0 -5.56382e-05 -0.000673592 0 -4.40616e-05 -0.000631145 0 -3.46633e-05 -0.000593355 0 -2.7063e-05 -0.000559808 0 -2.09495e-05 -0.00053003 0 -1.60526e-05 -0.000504612 0 -1.21412e-05 -0.000482675 0 -9.02275e-06 -0.000464302 0 -6.52448e-06 -0.000449632 0 -4.49939e-06 -0.000438101 0 -2.81658e-06 -0.000430069 0 -1.3536e-06 -0.000425276 0 0 -0.000423468 0 -0.00172109 -0.00215137 0 -0.00150317 -0.00213213 0 -0.00129621 -0.00208877 0 -0.00110418 -0.00202475 0 -0.000929834 -0.00194427 0 -0.000774604 -0.00185174 0 -0.000638743 -0.00175146 0 -0.000521581 -0.00164716 0 -0.000421816 -0.00154198 0 -0.000337767 -0.00143826 0 -0.00026765 -0.00133774 0 -0.000209624 -0.00124209 0 -0.000161985 -0.00115141 0 -0.000123185 -0.00106683 0 -9.18079e-05 -0.000988339 0 -6.66636e-05 -0.000915494 0 -4.67049e-05 -0.000849336 0 -3.10359e-05 -0.000788642 0 -1.89201e-05 -0.000733464 0 -9.71625e-06 -0.000684009 0 -2.90174e-06 -0.000639271 0 1.9584e-06 -0.000599613 0 5.23597e-06 -0.000564536 0 7.22839e-06 -0.000533492 0 8.18844e-06 -0.000507076 0 8.32665e-06 -0.000484326 0 7.8144e-06 -0.00046531 0 6.80111e-06 -0.000450154 0 5.41055e-06 -0.000438254 0 3.75003e-06 -0.000429974 0 1.91758e-06 -0.000425036 0 0 -0.000423174 0 -0.0017118 -0.00238729 0 -0.00146592 -0.00235816 0 -0.0012344 -0.00229974 0 -0.00102239 -0.00221684 0 -0.000833155 -0.00211529 0 -0.000668051 -0.00200103 0 -0.00052681 -0.00187959 0 -0.000408004 -0.00175554 0 -0.000309515 -0.00163256 0 -0.000228884 -0.00151309 0 -0.000163677 -0.0013989 0 -0.000111513 -0.00129173 0 -7.02801e-05 -0.00119121 0 -3.8133e-05 -0.00109847 0 -1.34364e-05 -0.00101321 0 5.14464e-06 -0.000934695 0 1.87528e-05 -0.000863984 0 2.83416e-05 -0.000799516 0 3.46763e-05 -0.000741252 0 3.84083e-05 -0.000689328 0 4.00564e-05 -0.000642561 0 4.00423e-05 -0.000601287 0 3.87181e-05 -0.000564915 0 3.63579e-05 -0.000532822 0 3.31885e-05 -0.000505597 0 2.93928e-05 -0.000482203 0 2.51146e-05 -0.000462687 0 2.04747e-05 -0.00044716 0 1.55687e-05 -0.000434983 0 1.04762e-05 -0.00042652 0 5.26674e-06 -0.000421475 0 0 -0.000419573 0 -0.00169403 -0.00265595 0 -0.00141295 -0.0026138 0 -0.00115123 -0.00253532 0 -0.000915718 -0.0024276 0 -0.000710221 -0.0022989 0 -0.000535639 -0.00215739 0 -0.000390655 -0.00201017 0 -0.000272569 -0.00186279 0 -0.000178029 -0.00171941 0 -0.000103506 -0.00158242 0 -4.5745e-05 -0.00145343 0 -1.72699e-06 -0.00133415 0 3.10981e-05 -0.00122354 0 5.48757e-05 -0.00112264 0 7.14405e-05 -0.00103078 0 8.22441e-05 -0.000946879 0 8.84943e-05 -0.000871955 0 9.11718e-05 -0.000804081 0 9.10441e-05 -0.000743105 0 8.87477e-05 -0.000689076 0 8.47765e-05 -0.000640628 0 7.95211e-05 -0.000598059 0 7.32981e-05 -0.000560684 0 6.63458e-05 -0.000527805 0 5.8854e-05 -0.000500001 0 5.09689e-05 -0.000476162 0 4.27991e-05 -0.000456314 0 3.44299e-05 -0.00044055 0 2.59236e-05 -0.000428202 0 1.73267e-05 -0.000419628 0 8.67612e-06 -0.000414521 0 0 -0.000412597 0 -0.00166616 -0.00296616 0 -0.00134045 -0.00290636 0 -0.00104165 -0.00280044 0 -0.000778947 -0.00265929 0 -0.000556443 -0.00249511 0 -0.000373846 -0.00231917 0 -0.000227926 -0.0021406 0 -0.000113972 -0.00196589 0 -2.68856e-05 -0.00179951 0 3.82364e-05 -0.00164339 0 8.56199e-05 -0.00149877 0 0.000118967 -0.00136713 0 0.00014126 -0.00124651 0 0.000154908 -0.00113776 0 0.000161899 -0.00103976 0 0.000163754 -0.000950973 0 0.0001617 -0.000872374 0 0.000156706 -0.000801626 0 0.000149509 -0.000738448 0 0.000140701 -0.000682791 0 0.000130728 -0.000633102 0 0.000119931 -0.000589634 0 0.000108574 -0.000551609 0 9.68482e-05 -0.000518258 0 8.48943e-05 -0.000490142 0 7.28133e-05 -0.000466088 0 6.0672e-05 -0.0004461 0 4.85139e-05 -0.000430252 0 3.63625e-05 -0.000417853 0 2.42276e-05 -0.000409252 0 1.21089e-05 -0.000404132 0 0 -0.000402203 0 -0.00162495 -0.0033304 0 -0.00124118 -0.00324571 0 -0.000896289 -0.00310099 0 -0.000602538 -0.00291381 0 -0.00036353 -0.00270265 0 -0.000176266 -0.00248321 0 -3.41339e-05 -0.00226682 0 7.06427e-05 -0.00206063 0 0.000145522 -0.00186887 0 0.000197063 -0.00169249 0 0.000230541 -0.00153194 0 0.000250314 -0.00138819 0 0.000259727 -0.00125808 0 0.000261368 -0.00114219 0 0.000257293 -0.00103881 0 0.000249021 -0.000945922 0 0.000237739 -0.0008644 0 0.000224352 -0.000791486 0 0.000209524 -0.000726761 0 0.000193772 -0.000670064 0 0.000177467 -0.000619665 0 0.000160879 -0.000575766 0 0.000144203 -0.000537503 0 0.000127567 -0.000504041 0 0.000111055 -0.000475917 0 9.47132e-05 -0.000451907 0 7.85594e-05 -0.000431993 0 6.25897e-05 -0.000416231 0 4.67844e-05 -0.000403914 0 3.1112e-05 -0.000395377 0 1.5532e-05 -0.000390298 0 0 -0.000388386 0 -0.00156405 -0.00376805 0 -0.00110106 -0.00364623 0 -0.000697516 -0.00344418 0 -0.000369443 -0.00319175 0 -0.000117481 -0.00291768 0 6.73487e-05 -0.00264346 0 0.000197579 -0.00238228 0 0.000285501 -0.00214086 0 0.000341548 -0.00192219 0 0.000374073 -0.00172531 0 0.000389314 -0.00154936 0 0.000392118 -0.00139447 0 0.000386015 -0.00125601 0 0.000373617 -0.00113417 0 0.000356916 -0.00102657 0 0.000337326 -0.000930667 0 0.00031591 -0.000847214 0 0.000293445 -0.000773036 0 0.000270476 -0.000707567 0 0.000247402 -0.000650536 0 0.00022449 -0.000600053 0 0.000201916 -0.000556265 0 0.000179788 -0.000518231 0 0.000158159 -0.000485064 0 0.000137043 -0.00045727 0 0.000116423 -0.000433589 0 9.62601e-05 -0.000413985 0 7.64989e-05 -0.000398494 0 5.70717e-05 -0.000386401 0 3.79024e-05 -0.000378028 0 1.89068e-05 -0.000373049 0 0 -0.000371175 0 -0.00147395 -0.00430979 0 -0.000898679 -0.00412876 0 -0.000420615 -0.00383742 0 -5.87153e-05 -0.00348991 0 0.000196151 -0.00313141 0 0.00036541 -0.0027896 0 0.00047122 -0.00247729 0 0.000531812 -0.00219839 0 0.000560796 -0.00195289 0 0.000568035 -0.00173673 0 0.000560339 -0.00154711 0 0.000542673 -0.00138299 0 0.000518456 -0.00123805 0 0.000490099 -0.001112 0 0.000459354 -0.00100175 0 0.000427406 -0.000904258 0 0.000395098 -0.000820107 0 0.00036301 -0.000745753 0 0.000331515 -0.000680492 0 0.000300855 -0.000623942 0 0.000271163 -0.000574086 0 0.0002425 -0.000531014 0 0.000214869 -0.000493727 0 0.000188235 -0.000461299 0 0.000162531 -0.000434199 0 0.000137672 -0.000411155 0 0.000113557 -0.000392113 0 9.0073e-05 -0.000377089 0 6.71009e-05 -0.000365372 0 4.45176e-05 -0.000357268 0 2.21931e-05 -0.000352452 0 7.71543e-18 -0.000350639 0 -0.00133631 -0.0050086 0 -0.000592866 -0.00472426 0 -2.28241e-05 -0.00428481 0 0.000360729 -0.00379575 0 0.000595192 -0.00332598 0 0.000726091 -0.00290478 0 0.000789239 -0.00253817 0 0.000809042 -0.00222282 0 0.000801361 -0.00195329 0 0.000776531 -0.00172115 0 0.000741125 -0.00152115 0 0.000699617 -0.0013508 0 0.000654901 -0.00120206 0 0.000608903 -0.00107413 0 0.000562931 -0.00096325 0 0.000517802 -0.000865907 0 0.000474042 -0.000782524 0 0.00043196 -0.000709259 0 0.000391705 -0.000645286 0 0.000353328 -0.000590127 0 0.000316801 -0.00054168 0 0.000282047 -0.000499983 0 0.00024895 -0.000464 0 0.000217377 -0.000432785 0 0.000187174 -0.000406767 0 0.000158178 -0.000384685 0 0.000130223 -0.000366467 0 0.000103135 -0.000352114 0 7.67424e-05 -0.000340933 0 5.08728e-05 -0.000333205 0 2.53489e-05 -0.000328614 0 0 -0.000326887 0 -0.00111208 -0.00596704 0 -9.66066e-05 -0.00547747 0 0.000570248 -0.00477387 0 0.000930048 -0.00407516 0 0.00109598 -0.00346849 0 0.00115268 -0.00296392 0 0.00114929 -0.00254735 0 0.00111288 -0.00220221 0 0.00105859 -0.00191527 0 0.000995202 -0.00167306 0 0.000927813 -0.00146771 0 0.000859618 -0.00129529 0 0.000792511 -0.00114628 0 0.000727621 -0.00101935 0 0.000665607 -0.000910239 0 0.000606789 -0.000815078 0 0.000551282 -0.000734126 0 0.000499058 -0.000663357 0 0.000450003 -0.000601857 0 0.000403939 -0.000549073 0 0.000360656 -0.000502873 0 0.000319927 -0.000463247 0 0.000281503 -0.00042915 0 0.000245145 -0.000399641 0 0.000210605 -0.000375105 0 0.00017764 -0.000354316 0 0.000146018 -0.000337191 0 0.0001155 -0.000323718 0 8.58612e-05 -0.000313231 0 5.68796e-05 -0.000305989 0 2.83306e-05 -0.000301689 0 -1.76074e-17 -0.000300072 0 -0.00070128 -0.00742511 0 0.000797749 -0.00643453 0 0.00147744 -0.0052309 0 0.00168589 -0.00425067 0 0.0016998 -0.00350621 0 0.00163581 -0.00293485 0 0.00154044 -0.00248554 0 0.00143357 -0.00212482 0 0.0013244 -0.00183153 0 0.00121749 -0.00158784 0 0.00111512 -0.00138388 0 0.0010184 -0.00121459 0 0.000927811 -0.00106949 0 0.000843412 -0.000946925 0 0.000765051 -0.000842294 0 0.000692443 -0.000751561 0 0.000625222 -0.000674843 0 0.000562979 -0.000608079 0 0.000505302 -0.000550305 0 0.000451764 -0.000500921 0 0.00040196 -0.000457833 0 0.000355497 -0.000420991 0 0.000311993 -0.000389373 0 0.000271095 -0.000362068 0 0.00023246 -0.000339415 0 0.000195765 -0.000320251 0 0.000160707 -0.000304487 0 0.000126987 -0.000292099 0 9.43253e-05 -0.000282466 0 6.24519e-05 -0.000275818 0 3.10957e-05 -0.000271872 0 -9.91601e-18 -0.000270389 0 0.000281097 -0.0102 0 0.00264701 -0.00744552 0 0.00281246 -0.00540203 0 0.00260981 -0.00418599 0 0.00237145 -0.00337468 0 0.0021465 -0.00278642 0 0.00194154 -0.00233689 0 0.00175585 -0.00198216 0 0.00158762 -0.00169727 0 0.00143506 -0.00146278 0 0.00129666 -0.00126813 0 0.00117102 -0.00110785 0 0.00105689 -0.000971331 0 0.000953147 -0.000856747 0 0.000858736 -0.000759483 0 0.000772709 -0.000675539 0 0.000694183 -0.000604926 0 0.000622342 -0.000543712 0 0.000556464 -0.000490935 0 0.000495863 -0.000445984 0 0.000439931 -0.000406871 0 0.000388112 -0.000373522 0 0.000339885 -0.000344967 0 0.000294786 -0.000320354 0 0.000252379 -0.000299975 0 0.000212259 -0.000282758 0 0.000174058 -0.000268613 0 0.000137418 -0.00025751 0 0.000102006 -0.000248882 0 6.75056e-05 -0.000242931 0 3.36026e-05 -0.000239401 0 0 -0.000238074 0 0.0168632 -0.0262435 0 0.00593179 -0.00676931 0 0.00433355 -0.00482123 0 0.00354453 -0.0037543 0 0.00302564 -0.00303452 0 0.00263656 -0.00250476 0 0.00232336 -0.00209608 0 0.00206076 -0.00177214 0 0.00183522 -0.00151178 0 0.00163855 -0.00129783 0 0.0014655 -0.00112075 0 0.00131215 -0.000975554 0 0.00117561 -0.000852367 0 0.00105357 -0.000749437 0 0.000944068 -0.000662436 0 0.000845501 -0.00058763 0 0.000756473 -0.000524966 0 0.000675769 -0.000470817 0 0.00060236 -0.000424276 0 0.000535307 -0.000384756 0 0.000473806 -0.00035045 0 0.000417142 -0.000321268 0 0.000364661 -0.000296331 0 0.000315793 -0.000274872 0 0.000270014 -0.000257135 0 0.000226844 -0.000242167 0 0.000185852 -0.000229884 0 0.000146624 -0.000220251 0 0.00010878 -0.00021277 0 7.19608e-05 -0.000207614 0 3.5812e-05 -0.000204556 0 0 -0.000203407 0 </DataArray> 
</PointData> 
<Points> 
<DataArray type="Float32" NumberOfComponents="3"> 