<?xml version="1.0"?> 
<VTKFile type="StructuredGrid" version="0.1"> 
<StructuredGrid WholeExtent="0 31 0 31 0 0"> 
<Piece Extent="0 31 0 31 0 0"> 
<PointData>
<DataArray type="Float32" Name="B" format="ascii" NumberOfComponents="3"> 
0 -0.000199369 0 3.51331e-05 -0.000200486 0 7.05948e-05 -0.000203457 0 0.000106711 -0.000208467 0 0.000143826 -0.000215732 0 0.000182293 -0.000225084 0 0.000222481 -0.000237002 0 0.000264792 -0.000251513 0 0.000309647 -0.000268697 0 0.000357514 -0.000289461 0 0.000408904 -0.000313564 0 0.000464371 -0.000341731 0 0.000524553 -0.000374788 0 0.000590148 -0.000412805 0 0.000661945 -0.000457475 0 0.000740864 -0.000509323 0 0.000827923 -0.00056917 0 0.000924335 -0.000640361 0 0.00103151 -0.000722876 0 0.00115109 -0.000820092 0 0.00128514 -0.000935864 0 0.00143618 -0.00107164 0 0.00160749 -0.00123615 0 0.0018037 -0.00143358 0 0.00203136 -0.00167211 0 0.00230111 -0.00196657 0 0.00263115 -0.00233535 0 0.00305614 -0.00281077 0 0.00365099 -0.00345638 0 0.00461296 -0.00442455 0 0.00671536 -0.00627431 0 0.0215751 -0.0347322 0 0 -0.000233389 0 3.2985e-05 -0.00023468 0 6.6264e-05 -0.000238113 0 0.000100127 -0.000243898 0 0.000134883 -0.000252285 0 0.000170842 -0.000263073 0 0.000208327 -0.000276809 0 0.000247691 -0.000293518 0 0.000289295 -0.000313283 0 0.000333536 -0.00033713 0 0.000380842 -0.000364769 0 0.00043167 -0.00039701 0 0.000486536 -0.00043477 0 0.000545992 -0.000478105 0 0.000610648 -0.000528891 0 0.000681195 -0.000587684 0 0.000758377 -0.000655369 0 0.000843046 -0.000735618 0 0.000936157 -0.000828375 0 0.00103877 -0.000937336 0 0.00115216 -0.00106675 0 0.00127779 -0.00121825 0 0.00141746 -0.00140166 0 0.0015735 -0.00162205 0 0.001749 -0.00188942 0 0.00194836 -0.00222246 0 0.00217793 -0.00264627 0 0.00244637 -0.00320689 0 0.00276118 -0.00399765 0 0.00309521 -0.00523368 0 0.00310402 -0.00745804 0 0.000546412 -0.0106159 0 0 -0.00026512 0 3.05458e-05 -0.000266564 0 6.13476e-05 -0.000270405 0 9.26573e-05 -0.000276874 0 0.000124741 -0.000286247 0 0.000157865 -0.000298295 0 0.000192305 -0.000313619 0 0.000228355 -0.000332239 0 0.000266314 -0.000354236 0 0.000306504 -0.000380728 0 0.000349265 -0.00041138 0 0.000394949 -0.00044706 0 0.000443944 -0.000488744 0 0.00049665 -0.000536464 0 0.000553487 -0.000592213 0 0.00061491 -0.000656545 0 0.000681374 -0.000730361 0 0.000753355 -0.000817504 0 0.00083133 -0.00091784 0 0.000915746 -0.00103518 0 0.00100702 -0.00117388 0 0.00110547 -0.00133552 0 0.00121123 -0.00153017 0 0.00132409 -0.00176284 0 0.00144315 -0.00204352 0 0.00156593 -0.0023905 0 0.00168618 -0.00282678 0 0.00178787 -0.00339036 0 0.00182757 -0.00414291 0 0.00168272 -0.00516823 0 0.00103596 -0.00647628 0 -0.000534542 -0.00757658 0 -2.51827e-18 -0.000294291 0 2.78531e-05 -0.000295866 0 5.59216e-05 -0.000300055 0 8.44172e-05 -0.00030711 0 0.000113562 -0.000317322 0 0.000143574 -0.00033044 0 0.00017468 -0.000347107 0 0.000207113 -0.00036733 0 0.000241108 -0.000391187 0 0.000276909 -0.00041986 0 0.000314767 -0.000452971 0 0.000354927 -0.000491421 0 0.00039765 -0.000536211 0 0.000443179 -0.000587342 0 0.000491752 -0.000646856 0 0.000543588 -0.000715272 0 0.000598858 -0.000793461 0 0.000657677 -0.000885279 0 0.000720056 -0.000990475 0 0.000785856 -0.00111277 0 0.000854685 -0.00125631 0 0.000925784 -0.00142244 0 0.000997788 -0.00162056 0 0.00106825 -0.00185486 0 0.00113305 -0.00213362 0 0.00118464 -0.00247141 0 0.00120921 -0.00288358 0 0.00118035 -0.00339065 0 0.00104696 -0.00401312 0 0.000715653 -0.00474791 0 5.47064e-05 -0.00550612 0 -0.000990967 -0.00604446 0 0 -0.000320666 0 2.49466e-05 -0.00032235 0 5.00669e-05 -0.000326827 0 7.55307e-05 -0.000334363 0 0.000101514 -0.000345264 0 0.00012819 -0.000359254 0 0.00015573 -0.000377005 0 0.000184309 -0.000398515 0 0.000214097 -0.000423849 0 0.000245261 -0.000454228 0 0.000277962 -0.000489231 0 0.000312346 -0.00052977 0 0.000348545 -0.000576842 0 0.00038666 -0.000630406 0 0.000426751 -0.000692491 0 0.000468818 -0.000763555 0 0.000512776 -0.000844395 0 0.00055841 -0.000938733 0 0.000605322 -0.00104618 0 0.000652866 -0.00117017 0 0.000699975 -0.00131443 0 0.000745037 -0.00147987 0 0.000785563 -0.00167461 0 0.000817598 -0.00190148 0 0.000835138 -0.00216632 0 0.0008284 -0.00247865 0 0.000781747 -0.00284566 0 0.000670064 -0.00327319 0 0.000454853 -0.00375808 0 8.49514e-05 -0.00427234 0 -0.00048431 -0.00474328 0 -0.00124256 -0.00505525 0 0 -0.000344054 0 2.18672e-05 -0.000345823 0 4.38661e-05 -0.000350525 0 6.61246e-05 -0.000358437 0 8.87737e-05 -0.000369872 0 0.000111938 -0.000384534 0 0.000135739 -0.000403113 0 0.000160293 -0.00042559 0 0.000185706 -0.000452016 0 0.000212072 -0.000483627 0 0.000239467 -0.000519963 0 0.000267942 -0.000561922 0 0.000297514 -0.000610472 0 0.00032815 -0.000665523 0 0.000359754 -0.000729037 0 0.000392135 -0.000801387 0 0.000424985 -0.000883265 0 0.000457816 -0.000978143 0 0.000489902 -0.00108547 0 0.000520207 -0.00120829 0 0.000547177 -0.00134973 0 0.000568636 -0.00151019 0 0.000581445 -0.0016962 0 0.000580943 -0.00190916 0 0.000560582 -0.00215241 0 0.000510608 -0.00243093 0 0.000417137 -0.00274588 0 0.000260939 -0.00309472 0 1.77777e-05 -0.00346566 0 -0.00033687 -0.00383072 0 -0.000815084 -0.00414207 0 -0.00139846 -0.00434094 0 1.38055e-17 -0.000364302 0 1.8657e-05 -0.000366134 0 3.74045e-05 -0.000370999 0 5.63292e-05 -0.000379182 0 7.55178e-05 -0.000390999 0 9.50492e-05 -0.000406136 0 0.000114995 -0.000425287 0 0.000135416 -0.000448418 0 0.00015636 -0.000475563 0 0.00017785 -0.000507948 0 0.000199888 -0.000545078 0 0.000222436 -0.000587819 0 0.000245409 -0.000637087 0 0.00026866 -0.000692742 0 0.00029196 -0.000756632 0 0.000314959 -0.000829031 0 0.000337175 -0.000910506 0 0.00035791 -0.00100419 0 0.000376203 -0.0011094 0 0.000390758 -0.00122867 0 0.000399735 -0.00136449 0 0.000400681 -0.00151678 0 0.000390235 -0.00169042 0 0.000363698 -0.0018856 0 0.000314894 -0.0021036 0 0.000235359 -0.00234608 0 0.000114241 -0.00261072 0 -6.16253e-05 -0.00289146 0 -0.000306154 -0.00317537 0 -0.000629989 -0.00344039 0 -0.00103378 -0.00365613 0 -0.00150159 -0.00379042 0 0 -0.0003813 0 1.53567e-05 -0.000383171 0 3.07643e-05 -0.000388141 0 4.627e-05 -0.000396493 0 6.19181e-05 -0.000408544 0 7.77441e-05 -0.000423964 0 9.37731e-05 -0.000443445 0 0.000110015 -0.000466931 0 0.000126462 -0.000494439 0 0.000143077 -0.000527166 0 0.000159791 -0.000564587 0 0.000176494 -0.000607519 0 0.000193013 -0.000656811 0 0.000209106 -0.00071227 0 0.000224438 -0.0007756 0 0.000238539 -0.000846968 0 0.000250798 -0.000926808 0 0.000260378 -0.00101787 0 0.000266173 -0.00111933 0 0.000266754 -0.00123325 0 0.000260169 -0.00136145 0 0.000243928 -0.00150345 0 0.000214775 -0.00166267 0 0.000168393 -0.00183837 0 9.94644e-05 -0.00203042 0 1.23649e-06 -0.00223836 0 -0.000134151 -0.00245832 0 -0.000315137 -0.00268344 0 -0.00054921 -0.00290236 0 -0.000840282 -0.00309887 0 -0.00118536 -0.00325348 0 -0.00157219 -0.00334737 0 0 -0.000394977 0 1.20053e-05 -0.000396866 0 2.4024e-05 -0.000401882 0 3.60667e-05 -0.000410308 0 4.8138e-05 -0.000422454 0 6.02332e-05 -0.000437978 0 7.23351e-05 -0.000457557 0 8.44074e-05 -0.00048112 0 9.63927e-05 -0.000508662 0 0.000108202 -0.000541333 0 0.000119707 -0.000578586 0 0.000130736 -0.000621178 0 0.000141046 -0.000669877 0 0.000150323 -0.000724441 0 0.000158153 -0.000786408 0 0.000163983 -0.000855843 0 0.000167123 -0.000933043 0 0.000166658 -0.00102036 0 0.000161422 -0.00111686 0 0.000149956 -0.00122415 0 0.00013034 -0.00134345 0 0.000100218 -0.001474 0 5.66388e-05 -0.00161798 0 -4.11639e-06 -0.00177409 0 -8.63632e-05 -0.00194132 0 -0.000195205 -0.00211804 0 -0.000336075 -0.00229998 0 -0.000514158 -0.00248074 0 -0.000733241 -0.0026511 0 -0.000994138 -0.00279939 0 -0.00129307 -0.00291276 0 -0.00162083 -0.00297959 0 0 -0.000405301 0 8.64052e-06 -0.000407188 0 1.726e-05 -0.000412197 0 2.58347e-05 -0.000420606 0 3.43332e-05 -0.000432717 0 4.27144e-05 -0.000448178 0 5.09227e-05 -0.000467647 0 5.88811e-05 -0.000491032 0 6.64902e-05 -0.000518309 0 7.36153e-05 -0.000550569 0 8.00808e-05 -0.000587248 0 8.56645e-05 -0.000629036 0 9.00706e-05 -0.000676612 0 9.29319e-05 -0.000729692 0 9.37827e-05 -0.000789637 0 9.20197e-05 -0.000856416 0 8.69121e-05 -0.0009302 0 7.75206e-05 -0.00101295 0 6.26808e-05 -0.00110367 0 4.09829e-05 -0.00120353 0 1.06293e-05 -0.00131328 0 -3.05039e-05 -0.00143196 0 -8.49709e-05 -0.00156079 0 -0.000155836 -0.00169819 0 -0.000246457 -0.0018427 0 -0.000360544 -0.00199213 0 -0.000501707 -0.0021424 0 -0.000672981 -0.002288 0 -0.000876036 -0.00242166 0 -0.00111028 -0.00253498 0 -0.0013721 -0.00261926 0 -0.00165461 -0.00266694 0 0 -0.000412273 0 5.2949e-06 -0.00041414 0 1.05374e-05 -0.000419094 0 1.5673e-05 -0.000427405 0 2.06377e-05 -0.000439363 0 2.53581e-05 -0.000454611 0 2.97452e-05 -0.000473779 0 3.36868e-05 -0.000496759 0 3.70482e-05 -0.000523506 0 3.96576e-05 -0.000555045 0 4.13016e-05 -0.000590799 0 4.17209e-05 -0.000631386 0 4.05819e-05 -0.000677398 0 3.74832e-05 -0.000728512 0 3.19297e-05 -0.000785913 0 2.32968e-05 -0.000849485 0 1.0847e-05 -0.000919289 0 -6.34283e-06 -0.000996914 0 -2.93865e-05 -0.00108135 0 -5.95945e-05 -0.00117339 0 -9.85854e-05 -0.0012734 0 -0.000148205 -0.00138032 0 -0.000210586 -0.00149468 0 -0.000288169 -0.0016148 0 -0.000383485 -0.00173903 0 -0.000499145 -0.00186504 0 -0.000637462 -0.0019892 0 -0.000800095 -0.00210691 0 -0.000987544 -0.00221253 0 -0.00119865 -0.0022999 0 -0.00143024 -0.00236295 0 -0.00167715 -0.00239654 0 0 -0.000415931 0 2.00427e-06 -0.00041776 0 3.92863e-06 -0.000422615 0 5.69157e-06 -0.000430755 0 7.20091e-06 -0.000442456 0 8.35551e-06 -0.000457358 0 9.03856e-06 -0.00047606 0 9.10868e-06 -0.000498437 0 8.40341e-06 -0.000524427 0 6.72268e-06 -0.00055498 0 3.82572e-06 -0.000589515 0 -5.71455e-07 -0.000628579 0 -6.82483e-06 -0.000672673 0 -1.53522e-05 -0.000721447 0 -2.66571e-05 -0.000775916 0 -4.13599e-05 -0.000835892 0 -6.01766e-05 -0.000901342 0 -8.39823e-05 -0.000973528 0 -0.000113806 -0.00105144 0 -0.000150826 -0.00113558 0 -0.000196456 -0.00122601 0 -0.000252255 -0.00132166 0 -0.000319956 -0.00142256 0 -0.000401461 -0.00152707 0 -0.000498639 -0.00163352 0 -0.000613294 -0.00173964 0 -0.000746873 -0.00184232 0 -0.000900211 -0.00193777 0 -0.00107321 -0.00202163 0 -0.00126457 -0.0020893 0 -0.00147159 -0.00213642 0 -0.00169031 -0.00215931 0 0 -0.000416337 0 -1.21318e-06 -0.000418116 0 -2.53039e-06 -0.000422834 0 -4.05672e-06 -0.000430739 0 -5.90874e-06 -0.000442091 0 -8.2112e-06 -0.000456532 0 -1.11044e-05 -0.000474624 0 -1.47532e-05 -0.000496231 0 -1.93422e-05 -0.000521273 0 -2.50925e-05 -0.000550623 0 -3.2264e-05 -0.000583701 0 -4.11559e-05 -0.000620983 0 -5.21354e-05 -0.000662889 0 -6.56237e-05 -0.000709047 0 -8.21184e-05 -0.000760312 0 -0.000102219 -0.00081644 0 -0.000126604 -0.000877326 0 -0.00015608 -0.000943942 0 -0.000191577 -0.00101531 0 -0.00023413 -0.00109169 0 -0.000284944 -0.00117295 0 -0.000345304 -0.00125804 0 -0.00041659 -0.00134664 0 -0.000500245 -0.00143724 0 -0.000597613 -0.00152825 0 -0.000709893 -0.00161757 0 -0.00083793 -0.00170257 0 -0.000982032 -0.00178016 0 -0.00114178 -0.00184693 0 -0.00131586 -0.0018994 0 -0.00150204 -0.00193433 0 -0.00169719 -0.00194902 0 0 -0.000413583 0 -4.32346e-06 -0.000415298 0 -8.77127e-06 -0.000419846 0 -1.34682e-05 -0.000427462 0 -1.85511e-05 -0.000438387 0 -2.41638e-05 -0.00045227 0 -3.04652e-05 -0.000469634 0 -3.76381e-05 -0.000490331 0 -4.58828e-05 -0.000514269 0 -5.54346e-05 -0.00054224 0 -6.6564e-05 -0.000573676 0 -7.95768e-05 -0.000608982 0 -9.48403e-05 -0.000648502 0 -0.000112768 -0.000691854 0 -0.00013384 -0.000739745 0 -0.000158621 -0.000791892 0 -0.000187737 -0.000848132 0 -0.000221921 -0.000909195 0 -0.000261991 -0.000974149 0 -0.00030884 -0.00104308 0 -0.000363475 -0.00111571 0 -0.000426939 -0.00119104 0 -0.000500309 -0.00126856 0 -0.000584662 -0.00134689 0 -0.000680944 -0.00142459 0 -0.000789929 -0.00149975 0 -0.000912059 -0.00157017 0 -0.00104733 -0.00163335 0 -0.00119518 -0.00168658 0 -0.00135436 -0.00172719 0 -0.00152299 -0.0017527 0 -0.00169855 -0.00176107 0 -1.55085e-18 -0.000407782 0 -7.31011e-06 -0.000409423 0 -1.47613e-05 -0.000413773 0 -2.24946e-05 -0.000421054 0 -3.0663e-05 -0.000431489 0 -3.94257e-05 -0.000444735 0 -4.89556e-05 -0.000461273 0 -5.94486e-05 -0.000480951 0 -7.11155e-05 -0.000503661 0 -8.41995e-05 -0.000530122 0 -9.89755e-05 -0.000559777 0 -0.000115748 -0.000592971 0 -0.000134878 -0.000629976 0 -0.000156763 -0.000670408 0 -0.000181854 -0.000714843 0 -0.000210677 -0.000762972 0 -0.000243799 -0.000814592 0 -0.00028187 -0.000870229 0 -0.000325602 -0.000929015 0 -0.000375751 -0.000990905 0 -0.000433146 -0.00105552 0 -0.000498619 -0.00112197 0 -0.000572997 -0.00118958 0 -0.000657068 -0.00125716 0 -0.000751479 -0.00132341 0 -0.000856698 -0.00138663 0 -0.000972905 -0.00144499 0 -0.00109991 -0.00149646 0 -0.00123708 -0.00153886 0 -0.00138328 -0.00157012 0 -0.0015369 -0.00158831 0 -0.00169587 -0.00159184 0 2.41205e-18 -0.000399063 0 -1.01679e-05 -0.000400621 0 -2.04906e-05 -0.000404752 0 -3.11222e-05 -0.000411661 0 -4.22285e-05 -0.000421555 0 -5.39806e-05 -0.000434099 0 -6.65619e-05 -0.000449736 0 -8.01772e-05 -0.000468308 0 -9.50437e-05 -0.0004897 0 -0.000111408 -0.000514554 0 -0.000129544 -0.000542333 0 -0.000149751 -0.000573325 0 -0.000172375 -0.000607742 0 -0.000197794 -0.000645201 0 -0.000226428 -0.000686166 0 -0.000258756 -0.000730315 0 -0.000295285 -0.000777416 0 -0.000336585 -0.000827833 0 -0.000383264 -0.000880766 0 -0.000435952 -0.000936078 0 -0.000495321 -0.00099334 0 -0.000562021 -0.00105174 0 -0.000636673 -0.00111056 0 -0.000719836 -0.00116876 0 -0.000811928 -0.00122518 0 -0.000913198 -0.00127834 0 -0.00102364 -0.00132671 0 -0.00114296 -0.00136862 0 -0.00127051 -0.00140233 0 -0.00140524 -0.00142619 0 -0.00154578 -0.00143869 0 -0.0016904 -0.00143857 0 0 -0.000387572 0 -1.28555e-05 -0.000389042 0 -2.5876e-05 -0.000392935 0 -3.92252e-05 -0.000399444 0 -5.30786e-05 -0.000408755 0 -6.76151e-05 -0.00042055 0 -8.30249e-05 -0.000435229 0 -9.95177e-05 -0.000452633 0 -0.000117313 -0.000472641 0 -0.000136655 -0.000495825 0 -0.000157813 -0.00052167 0 -0.000181077 -0.000550413 0 -0.000206774 -0.000582214 0 -0.000235256 -0.000616701 0 -0.000266911 -0.000654238 0 -0.000302167 -0.000694499 0 -0.000341476 -0.000737239 0 -0.000385327 -0.000782691 0 -0.000434238 -0.000830129 0 -0.000488726 -0.000879352 0 -0.000549331 -0.000929909 0 -0.000616555 -0.00098108 0 -0.000690857 -0.00103213 0 -0.000772624 -0.00108215 0 -0.000862111 -0.00113015 0 -0.000959416 -0.00117481 0 -0.00106443 -0.00121488 0 -0.00117678 -0.00124898 0 -0.00129584 -0.00127568 0 -0.00142067 -0.00129368 0 -0.00155006 -0.00130177 0 -0.00168255 -0.00129894 0 0 -0.000373469 0 -1.53896e-05 -0.000374845 0 -3.09518e-05 -0.000378488 0 -4.68577e-05 -0.000384575 0 -6.32893e-05 -0.000393275 0 -8.04309e-05 -0.000404284 0 -9.84767e-05 -0.000417966 0 -0.000117638 -0.000434161 0 -0.000138134 -0.000452744 0 -0.000160205 -0.000474221 0 -0.000184112 -0.000498105 0 -0.00021013 -0.000524587 0 -0.000238568 -0.000553784 0 -0.000269751 -0.000585337 0 -0.000304031 -0.000619528 0 -0.00034179 -0.000656037 0 -0.000383422 -0.000694612 0 -0.000429347 -0.000735385 0 -0.000479996 -0.000777703 0 -0.000535791 -0.000821328 0 -0.000597156 -0.000865805 0 -0.000664472 -0.000910505 0 -0.000738067 -0.000954701 0 -0.000818194 -0.000997616 0 -0.000904984 -0.00103839 0 -0.000998428 -0.00107588 0 -0.00109834 -0.00110903 0 -0.00120432 -0.00113671 0 -0.00131577 -0.00115776 0 -0.00143182 -0.00117111 0 -0.00155144 -0.00117581 0 -0.00167335 -0.00117104 0 0 -0.000356918 0 -1.77557e-05 -0.000358196 0 -3.56894e-05 -0.000361579 0 -5.39769e-05 -0.000367229 0 -7.28044e-05 -0.000375299 0 -9.23596e-05 -0.000385499 0 -0.000112838 -0.000398158 0 -0.00013445 -0.000413118 0 -0.000157412 -0.000430255 0 -0.000181958 -0.000450012 0 -0.000208338 -0.000471932 0 -0.000236812 -0.000496169 0 -0.000267669 -0.000522801 0 -0.000301206 -0.000551488 0 -0.000337739 -0.000582445 0 -0.000377608 -0.000615362 0 -0.000421151 -0.00064999 0 -0.000468726 -0.000686383 0 -0.000520688 -0.00072396 0 -0.000577377 -0.000762462 0 -0.00063912 -0.000801449 0 -0.000706198 -0.000840373 0 -0.000778836 -0.000878535 0 -0.000857182 -0.000915278 0 -0.000941279 -0.000949853 0 -0.00103104 -0.000981274 0 -0.00112623 -0.00100866 0 -0.00122645 -0.00103107 0 -0.00133111 -0.00104756 0 -0.00143945 -0.00105725 0 -0.00155053 -0.00105937 0 -0.00166325 -0.00105327 0 0 -0.000338096 0 -1.99336e-05 -0.000339274 0 -4.00483e-05 -0.000342391 0 -6.05226e-05 -0.000347595 0 -8.15449e-05 -0.00035502 0 -0.000103304 -0.000364398 0 -0.000125993 -0.000376022 0 -0.000149823 -0.000389738 0 -0.000175003 -0.000405424 0 -0.000201759 -0.000423466 0 -0.000230329 -0.00044344 0 -0.000260958 -0.000465466 0 -0.000293913 -0.000489595 0 -0.000329465 -0.000515507 0 -0.000367895 -0.000543361 0 -0.000409502 -0.000572861 0 -0.000454578 -0.00060377 0 -0.000503423 -0.000636083 0 -0.000556329 -0.000669287 0 -0.000613563 -0.000703118 0 -0.000675377 -0.000737157 0 -0.000741971 -0.000770931 0 -0.000813491 -0.000803786 0 -0.000890007 -0.000835163 0 -0.000971497 -0.00086442 0 -0.00105782 -0.000890701 0 -0.00114873 -0.000913275 0 -0.0012438 -0.000931357 0 -0.00134249 -0.000944162 0 -0.00144411 -0.000950984 0 -0.00154782 -0.000951188 0 -0.00165267 -0.000944246 0 0 -0.000317179 0 -2.19452e-05 -0.000318255 0 -4.40731e-05 -0.000321103 0 -6.65633e-05 -0.000325855 0 -8.96048e-05 -0.000332631 0 -0.000113385 -0.000341182 0 -0.000138098 -0.000351767 0 -0.000163947 -0.00036424 0 -0.000191136 -0.000378483 0 -0.000219884 -0.00039483 0 -0.000250414 -0.00041289 0 -0.000282957 -0.000432758 0 -0.000317757 -0.000454459 0 -0.000355059 -0.000477698 0 -0.000395116 -0.00050259 0 -0.000438185 -0.000528858 0 -0.000484518 -0.000556276 0 -0.000534365 -0.000584801 0 -0.000587959 -0.000613983 0 -0.000645512 -0.000643561 0 -0.000707207 -0.000673146 0 -0.000773181 -0.000702333 0 -0.000843515 -0.000730516 0 -0.000918221 -0.000757227 0 -0.000997227 -0.000781914 0 -0.00108036 -0.000803838 0 -0.00116734 -0.000822389 0 -0.00125778 -0.000836914 0 -0.00135116 -0.000846763 0 -0.00144683 -0.000851357 0 -0.00154406 -0.00085018 0 -0.001642 -0.000842799 0 0 -0.000294346 0 -2.37665e-05 -0.00029532 0 -4.77159e-05 -0.000297898 0 -7.20275e-05 -0.000302196 0 -9.68896e-05 -0.000308323 0 -0.000122488 -0.000316047 0 -0.000149013 -0.000325598 0 -0.000176663 -0.000336838 0 -0.000205636 -0.000349655 0 -0.000236139 -0.000364337 0 -0.000268386 -0.000380527 0 -0.000302589 -0.000398297 0 -0.000338974 -0.000417655 0 -0.000377761 -0.000438332 0 -0.000419174 -0.000460406 0 -0.000463439 -0.000483624 0 -0.000510767 -0.000507775 0 -0.000561367 -0.000532789 0 -0.000615425 -0.000558276 0 -0.000673103 -0.000583985 0 -0.000734532 -0.000609561 0 -0.000799797 -0.000634659 0 -0.000868931 -0.000658727 0 -0.0009419 -0.000681374 0 -0.0010186 -0.000702128 0 -0.00109883 -0.000720352 0 -0.00118231 -0.000735541 0 -0.00126866 -0.000747148 0 -0.00135738 -0.000754637 0 -0.0014479 -0.000757531 0 -0.00153953 -0.000755408 0 -0.00163154 -0.000747915 0 0 -0.000269781 0 -2.54066e-05 -0.000270653 0 -5.09951e-05 -0.000272961 0 -7.69439e-05 -0.000276808 0 -0.000103439 -0.000282288 0 -0.000130665 -0.000289192 0 -0.000158806 -0.00029772 0 -0.000188057 -0.000307744 0 -0.000218607 -0.00031916 0 -0.000250656 -0.000332213 0 -0.000284402 -0.000346583 0 -0.000320045 -0.000362322 0 -0.000357791 -0.000379427 0 -0.000397838 -0.000397653 0 -0.000440386 -0.000417054 0 -0.000485629 -0.000437397 0 -0.000533748 -0.000458493 0 -0.000584913 -0.000480253 0 -0.000639271 -0.000502344 0 -0.000696944 -0.00052453 0 -0.000758019 -0.000546491 0 -0.000822542 -0.000567936 0 -0.000890506 -0.000588371 0 -0.000961846 -0.000607467 0 -0.00103643 -0.000624826 0 -0.00111405 -0.000639903 0 -0.00119441 -0.000652277 0 -0.00127715 -0.000661494 0 -0.0013618 -0.000667109 0 -0.00144783 -0.000668733 0 -0.00153463 -0.000666018 0 -0.00162152 -0.000658677 0 0 -0.000243662 0 -2.68794e-05 -0.000244433 0 -5.39393e-05 -0.000246473 0 -8.13561e-05 -0.000249873 0 -0.000109314 -0.000254712 0 -0.000137993 -0.000260806 0 -0.000167574 -0.000268325 0 -0.000198247 -0.000277154 0 -0.000230193 -0.000287197 0 -0.000263601 -0.000298662 0 -0.00029866 -0.000311264 0 -0.000335555 -0.000325041 0 -0.000374474 -0.000339982 0 -0.000415597 -0.000355868 0 -0.000459099 -0.000372732 0 -0.000505151 -0.000390368 0 -0.000553902 -0.000408605 0 -0.000605493 -0.000427347 0 -0.000660037 -0.000446311 0 -0.000717621 -0.000465282 0 -0.000778299 -0.000483976 0 -0.000842083 -0.000502149 0 -0.000908936 -0.000519364 0 -0.000978767 -0.000535351 0 -0.00105143 -0.000549771 0 -0.00112669 -0.000562163 0 -0.00120429 -0.000572178 0 -0.00128384 -0.000579442 0 -0.00136492 -0.000583586 0 -0.00144704 -0.000584292 0 -0.00152963 -0.000581275 0 -0.00161208 -0.000574303 0 0 -0.00021617 0 -2.8152e-05 -0.000216841 0 -5.64823e-05 -0.000218616 0 -8.51654e-05 -0.000221573 0 -0.000114382 -0.00022578 0 -0.00014431 -0.000231074 0 -0.000175125 -0.000237602 0 -0.000207011 -0.000245259 0 -0.000240143 -0.000253961 0 -0.000274701 -0.000263879 0 -0.000310864 -0.000274767 0 -0.000348802 -0.00028665 0 -0.00038869 -0.000299511 0 -0.000430692 -0.000313162 0 -0.000474961 -0.000327618 0 -0.000521647 -0.000342699 0 -0.000570877 -0.000358255 0 -0.000622763 -0.000374191 0 -0.000677394 -0.000390268 0 -0.00073483 -0.000406294 0 -0.000795095 -0.000422022 0 -0.000858178 -0.000437251 0 -0.00092402 -0.0004516 0 -0.000992511 -0.000464847 0 -0.00106349 -0.000476711 0 -0.00113673 -0.000486804 0 -0.00121195 -0.000494839 0 -0.0012888 -0.000500508 0 -0.00136688 -0.00050351 0 -0.00144571 -0.000503585 0 -0.00152478 -0.000500504 0 -0.00160353 -0.000494075 0 0 -0.000187485 0 -2.92596e-05 -0.000188058 0 -5.86955e-05 -0.000189571 0 -8.84794e-05 -0.000192091 0 -0.00011879 -0.000195674 0 -0.0001498 -0.000200181 0 -0.000181683 -0.000205735 0 -0.000214615 -0.000212244 0 -0.000248767 -0.000219634 0 -0.00028431 -0.000228048 0 -0.000321413 -0.000237272 0 -0.000360237 -0.000247325 0 -0.000400941 -0.000258188 0 -0.000443676 -0.000269698 0 -0.000488578 -0.000281862 0 -0.000535777 -0.000294526 0 -0.000585381 -0.00030756 0 -0.000637482 -0.000320875 0 -0.000692144 -0.000334272 0 -0.000749406 -0.000347586 0 -0.000809272 -0.000360606 0 -0.000871709 -0.000373169 0 -0.000936641 -0.000384948 0 -0.00100394 -0.000395766 0 -0.00107345 -0.000405392 0 -0.00114493 -0.000413503 0 -0.0012181 -0.000419868 0 -0.00129263 -0.000424236 0 -0.00136813 -0.000426364 0 -0.00144416 -0.000426042 0 -0.00152023 -0.000423086 0 -0.00159584 -0.000417344 0 0 -0.00015778 0 -3.01945e-05 -0.000158255 0 -6.05629e-05 -0.000159509 0 -9.12748e-05 -0.000161598 0 -0.000122506 -0.000164567 0 -0.000154426 -0.0001683 0 -0.000187204 -0.000172897 0 -0.000221013 -0.000178281 0 -0.000256016 -0.00018439 0 -0.000292379 -0.000191336 0 -0.00033026 -0.000198944 0 -0.000369813 -0.000207226 0 -0.000411185 -0.000216162 0 -0.000454514 -0.000225617 0 -0.000499923 -0.000235592 0 -0.000547526 -0.000245959 0 -0.000597415 -0.000256608 0 -0.000649663 -0.000267461 0 -0.000704319 -0.000278357 0 -0.000761402 -0.000289157 0 -0.0008209 -0.000299686 0 -0.000882765 -0.000309814 0 -0.000946907 -0.000319272 0 -0.00101319 -0.000327917 0 -0.00108144 -0.000335565 0 -0.00115144 -0.000341954 0 -0.00122289 -0.000346901 0 -0.00129548 -0.000350207 0 -0.00136884 -0.000351677 0 -0.00144255 -0.000351147 0 -0.00151615 -0.000348471 0 -0.00158916 -0.000343528 0 0 -0.000127232 0 -3.09458e-05 -0.000127609 0 -6.20636e-05 -0.000128608 0 -9.35207e-05 -0.000130272 0 -0.00012549 -0.000132636 0 -0.000158139 -0.000135606 0 -0.000191634 -0.000139262 0 -0.000226142 -0.000143542 0 -0.000261822 -0.000148395 0 -0.000298834 -0.000153908 0 -0.000337331 -0.000159942 0 -0.000377456 -0.000166503 0 -0.000419351 -0.000173574 0 -0.00046314 -0.000181048 0 -0.000508937 -0.000188921 0 -0.000556844 -0.000197091 0 -0.000606939 -0.000205471 0 -0.000659283 -0.000213994 0 -0.00071391 -0.000222536 0 -0.000770827 -0.000230984 0 -0.000830009 -0.000239199 0 -0.000891394 -0.000247081 0 -0.000954886 -0.000254416 0 -0.00102034 -0.000261095 0 -0.00108758 -0.000266973 0 -0.00115638 -0.000271848 0 -0.00122647 -0.000275578 0 -0.00129752 -0.000278009 0 -0.00136918 -0.000278993 0 -0.00144105 -0.000278402 0 -0.00151269 -0.000276125 0 -0.00158365 -0.000272071 0 0 -9.60101e-05 0 -3.15392e-05 -9.62925e-05 0 -6.32485e-05 -9.70391e-05 0 -9.52937e-05 -9.82818e-05 0 -0.000127846 -0.000100048 0 -0.000161069 -0.000102266 0 -0.000195127 -0.000104995 0 -0.000230184 -0.000108189 0 -0.000266395 -0.000111807 0 -0.000303915 -0.000115916 0 -0.000342892 -0.00012041 0 -0.000383463 -0.000125293 0 -0.000425761 -0.00013055 0 -0.000469905 -0.000136102 0 -0.000515998 -0.000141944 0 -0.000564133 -0.000147999 0 -0.00061438 -0.000154203 0 -0.000666787 -0.000160503 0 -0.000721379 -0.000166807 0 -0.000778153 -0.000173032 0 -0.000837073 -0.000179073 0 -0.000898071 -0.000184857 0 -0.000961042 -0.000190225 0 -0.00102584 -0.000195097 0 -0.00109228 -0.000199369 0 -0.00116014 -0.000202889 0 -0.00122914 -0.000205556 0 -0.00129898 -0.000207258 0 -0.00136931 -0.000207885 0 -0.00143975 -0.000207347 0 -0.00150987 -0.000205563 0 -0.00157923 -0.000202465 0 0 -6.42845e-05 0 -3.1954e-05 -6.44722e-05 0 -6.40769e-05 -6.49686e-05 0 -9.65329e-05 -6.57948e-05 0 -0.000129491 -6.69684e-05 0 -0.000163115 -6.84427e-05 0 -0.000197566 -7.02559e-05 0 -0.000233005 -7.23768e-05 0 -0.000269586 -7.47793e-05 0 -0.000307458 -7.7506e-05 0 -0.000346767 -8.04865e-05 0 -0.000387645 -8.37234e-05 0 -0.000430221 -8.72064e-05 0 -0.000474606 -9.0882e-05 0 -0.000520901 -9.47465e-05 0 -0.000569189 -9.8749e-05 0 -0.000619534 -0.000102846 0 -0.000671979 -0.000107002 0 -0.000726539 -0.000111157 0 -0.000783206 -0.000115254 0 -0.000841936 -0.000119225 0 -0.000902657 -0.000123021 0 -0.000965259 -0.000126537 0 -0.00102959 -0.000129721 0 -0.00109547 -0.000132504 0 -0.00116267 -0.000134788 0 -0.00123092 -0.000136505 0 -0.00129992 -0.000137583 0 -0.00136933 -0.00013795 0 -0.00143877 -0.000137547 0 -0.00150784 -0.000136321 0 -0.0015761 -0.00013423 0 0 -3.22263e-05 0 -3.22022e-05 -3.232e-05 0 -6.45724e-05 -3.25678e-05 0 -9.72741e-05 -3.29801e-05 0 -0.000130476 -3.35659e-05 0 -0.000164339 -3.43016e-05 0 -0.000199024 -3.52062e-05 0 -0.000234692 -3.62642e-05 0 -0.000271492 -3.74624e-05 0 -0.000309574 -3.88219e-05 0 -0.00034908 -4.03075e-05 0 -0.000390141 -4.19204e-05 0 -0.000432881 -4.36551e-05 0 -0.000477409 -4.54852e-05 0 -0.000523822 -4.74083e-05 0 -0.000572199 -4.93991e-05 0 -0.0006226 -5.1436e-05 0 -0.000675064 -5.35007e-05 0 -0.000729603 -5.55635e-05 0 -0.000786202 -5.75963e-05 0 -0.000844818 -5.95645e-05 0 -0.000905371 -6.14446e-05 0 -0.000967751 -6.31837e-05 0 -0.0010318 -6.47566e-05 0 -0.00109735 -6.61287e-05 0 -0.00116415 -6.72515e-05 0 -0.00123196 -6.80918e-05 0 -0.00130046 -6.86135e-05 0 -0.00136931 -6.87817e-05 0 -0.00143816 -6.8567e-05 0 -0.0015066 -6.79434e-05 0 -0.00157421 -6.68899e-05 0 0 -0 0 -3.22959e-05 -2.54425e-19 0 -6.47595e-05 -0 0 -9.75539e-05 1.07328e-18 0 -0.000130847 -0 0 -0.000164801 -0 0 -0.000199575 6.50581e-19 0 -0.000235328 -7.99094e-19 0 -0.000272211 -0 0 -0.000310372 -0 0 -0.000349953 3.37483e-18 0 -0.000391082 -6.9055e-19 0 -0.000433883 -5.48075e-18 0 -0.000478465 -6.49882e-19 0 -0.000524922 -0 0 -0.000573332 -0 0 -0.000623754 7.70974e-18 0 -0.000676225 -0 0 -0.000730755 -0 0 -0.000787329 -0 0 -0.0008459 -5.62989e-18 0 -0.00090639 -1.10801e-18 0 -0.000968685 -0 0 -0.00103263 -0 0 -0.00109805 -0 0 -0.00116471 -0 0 -0.00123234 2.71163e-17 0 -0.00130065 -0 0 -0.0013693 -1.03781e-16 0 -0.00143793 -0 0 -0.00150613 -2.94584e-17 0 -0.00157349 -0 0 </DataArray> 
</PointData> 
<Points> 
<DataArray type="Float32" NumberOfComponents="3"> 