<?xml version="1.0"?> 
<VTKFile type="StructuredGrid" version="0.1"> 
<StructuredGrid WholeExtent="0 31 0 31 0 0"> 
<Piece Extent="0 31 0 31 0 0"> 
<PointData>
<DataArray type="Float32" Name="B" format="ascii" NumberOfComponents="3"> 
0.0741434 0.0626433 0 0.0146819 0.0118492 0 0.0119456 0.00825815 0 0.0123 0.00636465 0 0.0134938 0.00510576 0 0.01488 0.00417978 0 0.0162027 0.00345699 0 0.0173569 0.0028702 0 0.01831 0.00238017 0 0.0190666 0.00195891 0 0.0196482 0.00158927 0 0.0200824 0.00125792 0 0.0203959 0.000954738 0 0.0206113 0.000671739 0 0.0207465 0.000402339 0 0.0208145 0.000140878 0 0.0208239 -0.000117788 0 0.02078 -0.000378691 0 0.0206854 -0.000646879 0 0.0205406 -0.000927816 0 0.0203443 -0.0012278 0 0.0200941 -0.00155446 0 0.0197864 -0.0019176 0 0.0194171 -0.00233045 0 0.0189821 -0.00281037 0 0.0184791 -0.00338695 0 0.0179113 -0.00410287 0 0.0172965 -0.00503194 0 0.0166922 -0.00631477 0 0.0162752 -0.00826483 0 0.0167513 -0.0119078 0 0.0443792 -0.0453811 0 0.0149098 0.0274389 0 0.0174196 0.0143253 0 0.0138018 0.00859411 0 0.0134931 0.00614511 0 0.0142584 0.00471525 0 0.0153561 0.00376001 0 0.0164824 0.003068 0 0.0175051 0.00253619 0 0.0183731 0.00210725 0 0.0190774 0.00174374 0 0.0196292 0.00142488 0 0.0200482 0.00113621 0 0.0203552 0.000868181 0 0.0205691 0.000614073 0 0.0207053 0.000368787 0 0.020775 0.000128056 0 0.0207861 -0.000112079 0 0.0207433 -0.000355663 0 0.020649 -0.000606967 0 0.0205034 -0.000870853 0 0.0203052 -0.00115313 0 0.0200518 -0.00146103 0 0.0197394 -0.00180405 0 0.0193634 -0.00219525 0 0.0189187 -0.00265214 0 0.0184014 -0.00320513 0 0.0178114 -0.00389951 0 0.0171604 -0.00481595 0 0.016491 -0.00611398 0 0.0159344 -0.00816745 0 0.0159405 -0.0123094 0 0.013143 -0.0334984 0 0.0108713 0.022072 0 0.0171213 0.0158949 0 0.0149556 0.0090599 0 0.0144572 0.00606061 0 0.0149472 0.00442563 0 0.0158187 0.00341272 0 0.0167756 0.00272985 0 0.0176768 0.00223668 0 0.0184614 0.0018567 0 0.0191111 0.00154242 0 0.019629 0.00126842 0 0.0200285 0.00101858 0 0.0203254 0.000783344 0 0.0205349 0.000556819 0 0.0206698 0.000335024 0 0.0207398 0.000114828 0 0.0207516 -0.00010672 0 0.0207093 -0.00033279 0 0.0206148 -0.000566939 0 0.0204684 -0.000813451 0 0.0202684 -0.00107764 0 0.020012 -0.00136635 0 0.0196951 -0.00168866 0 0.0193125 -0.0020574 0 0.0188582 -0.00249003 0 0.0183265 -0.00301743 0 0.0177139 -0.00368673 0 0.0170249 -0.00458381 0 0.0162853 -0.00588192 0 0.0155735 -0.00799274 0 0.0150409 -0.0123421 0 0.010532 -0.0256796 0 0.00905586 0.0191925 0 0.0155536 0.0158887 0 0.0154457 0.00939493 0 0.0151641 0.00602937 0 0.0155362 0.00420452 0 0.0162503 0.00312357 0 0.0170691 0.0024363 0 0.0178624 0.00196952 0 0.0185679 0.00162853 0 0.0191626 0.00135579 0 0.0196443 0.00112106 0 0.0200213 0.000906179 0 0.0203052 0.000701223 0 0.0205079 0.000500757 0 0.0206398 0.000301618 0 0.0207087 0.000101578 0 0.0207203 -0.000101469 0 0.0206779 -0.000309936 0 0.0205832 -0.000526734 0 0.0204357 -0.000755605 0 0.0202339 -0.00100138 0 0.0199747 -0.00127045 0 0.0196535 -0.00157151 0 0.0192646 -0.00191696 0 0.0188009 -0.00232409 0 0.0182549 -0.00282379 0 0.0176194 -0.0034643 0 0.0168913 -0.00433473 0 0.0160785 -0.0056164 0 0.0152036 -0.00773415 0 0.0141515 -0.0120117 0 0.00930115 -0.0212613 0 0.00799244 0.0170035 0 0.0139678 0.0149296 0 0.0154456 0.00945172 0 0.0156223 0.00597885 0 0.0160137 0.00401928 0 0.0166381 0.00287708 0 0.0173522 0.00218009 0 0.0180533 0.00173171 0 0.0186861 0.00142191 0 0.0192272 0.00118412 0 0.0196718 0.000983518 0 0.0200244 0.000799848 0 0.0202933 0.000622586 0 0.0204874 0.000446511 0 0.0206147 0.000269038 0 0.0206815 8.86362e-05 0 0.0206922 -9.6115e-05 0 0.0206493 -0.00028698 0 0.020554 -0.0004863 0 0.0204055 -0.000697311 0 0.020202 -0.000924378 0 0.01994 -0.00117342 0 0.0196147 -0.00145266 0 0.0192197 -0.00177403 0 0.018747 -0.00215438 0 0.0181869 -0.00262426 0 0.0175286 -0.00323211 0 0.0167611 -0.00406831 0 0.0158738 -0.00531634 0 0.0148361 -0.00739115 0 0.0133419 -0.0113965 0 0.00855552 -0.0181081 0 0.00729052 0.0151225 0 0.0127114 0.0135986 0 0.015158 0.00920566 0 0.0158671 0.00585732 0 0.0163793 0.0038407 0 0.0169746 0.00265801 0 0.0176169 0.00195352 0 0.0182425 0.00151962 0 0.0188103 0.00123546 0 0.0193007 0.00102721 0 0.0197084 0.000856144 0 0.0200357 0.000700123 0 0.0202883 0.000547984 0 0.0204725 0.000394561 0 0.0205942 0.000237659 0 0.020658 7.62706e-05 0 0.0206671 -9.04791e-05 0 0.0206234 -0.000263818 0 0.0205273 -0.000445591 0 0.0203777 -0.000638569 0 0.0201725 -0.000846659 0 0.0199079 -0.00107531 0 0.0195788 -0.00133221 0 0.0191781 -0.0016287 0 0.0186967 -0.00198103 0 0.0181229 -0.00241893 0 0.0174422 -0.00299022 0 0.0166356 -0.00378447 0 0.0156746 -0.00498176 0 0.0144818 -0.00696848 0 0.0126423 -0.01059 0 0.00804975 -0.0156075 0 0.0067939 0.0134132 0 0.0117729 0.0121721 0 0.0147447 0.00870513 0 0.0159489 0.00563725 0 0.0166422 0.0036456 0 0.0172572 0.00245252 0 0.0178573 0.00174899 0 0.0184242 0.00132937 0 0.0189355 0.00106741 0 0.019379 0.000884441 0 0.0197512 0.000738929 0 0.0200533 0.000607267 0 0.0202889 0.000477764 0 0.0204624 0.000345239 0 0.0205777 0.000207757 0 0.0206379 6.46899e-05 0 0.0206451 -8.44203e-05 0 0.0206002 -0.000240367 0 0.0205031 -0.000404571 0 0.0203525 -0.000579383 0 0.0201456 -0.000768267 0 0.0198786 -0.000976176 0 0.0195459 -0.00121024 0 0.0191398 -0.0014811 0 0.0186501 -0.00180417 0 0.0180633 -0.00220798 0 0.0173609 -0.00273881 0 0.0165163 -0.0034835 0 0.0154841 -0.00461375 0 0.0141492 -0.0064747 0 0.0120546 -0.00966777 0 0.00768367 -0.0135008 0 0.00642759 0.011814 0 0.0110759 0.0107531 0 0.0143064 0.00801947 0 0.0159183 0.00531171 0 0.0168171 0.00341797 0 0.0174871 0.00224899 0 0.0180703 0.00155944 0 0.0185938 0.00115702 0 0.0190574 0.000915703 0 0.0194588 0.000754898 0 0.0197974 0.00063157 0 0.020075 0.000521298 0 0.0202937 0.000412081 0 0.0204562 0.000298741 0 0.0205647 0.000179516 0 0.020621 5.4041e-05 0 0.0206259 -7.78347e-05 0 0.0205796 -0.000216566 0 0.0204815 -0.000363219 0 0.0203297 -0.000519765 0 0.0201213 -0.000689242 0 0.0198521 -0.000876105 0 0.019516 -0.00108687 0 0.0191049 -0.00133136 0 0.0186075 -0.00162402 0 0.0180084 -0.00199167 0 0.0172854 -0.00247827 0 0.0164045 -0.00316605 0 0.0153053 -0.00421429 0 0.0138447 -0.00592021 0 0.0115687 -0.00868162 0 0.00740835 -0.0116543 0 0.00615114 0.0102919 0 0.0105549 0.00937282 0 0.0138965 0.00721055 0 0.0158189 0.00488761 0 0.016921 0.00314882 0 0.0176677 0.00203852 0 0.0182541 0.00137876 0 0.018748 0.000998801 0 0.0191725 0.00077819 0 0.0195367 0.000637429 0 0.0198447 0.000533523 0 0.0200991 0.000442016 0 0.0203015 0.000350919 0 0.0204532 0.000255134 0 0.0205548 0.000153029 0 0.0206068 4.44112e-05 0 0.0206093 -7.06563e-05 0 0.0205616 -0.000192375 0 0.0204624 -0.000321524 0 0.0203095 -0.000459732 0 0.0200997 -0.000609632 0 0.0198284 -0.000775171 0 0.0194893 -0.000962204 0 0.0190736 -0.00117966 0 0.0185691 -0.00144078 0 0.0179586 -0.00177033 0 0.0172164 -0.00220909 0 0.0163017 -0.00283309 0 0.0151412 -0.00378609 0 0.0135726 -0.00531579 0 0.0111718 -0.00766384 0 0.00719707 -0.0099897 0 0.00593806 0.00882697 0 0.0101584 0.00803581 0 0.0135367 0.00632416 0 0.0156864 0.00437897 0 0.0169732 0.00283511 0 0.0178061 0.00181509 0 0.0184093 0.00120197 0 0.0188848 0.000851312 0 0.0192782 0.000652697 0 0.0196103 0.000530723 0 0.0198909 0.000444045 0 0.020124 0.000369034 0 0.0203111 0.000294107 0 0.0204523 0.000214367 0 0.0205473 0.000128303 0 0.0205952 3.58303e-05 0 0.0205952 -6.28554e-05 0 0.020546 -0.000167778 0 0.0204457 -0.000279486 0 0.0202918 -0.00039931 0 0.0200807 -0.000529489 0 0.0198076 -0.000673458 0 0.0194658 -0.000836372 0 0.0190459 -0.00102618 0 0.0185351 -0.00125473 0 0.0179142 -0.00154436 0 0.0171544 -0.00193194 0 0.0162089 -0.00248588 0 0.0149934 -0.0033323 0 0.0133344 -0.00467146 0 0.0108489 -0.00663346 0 0.00703197 -0.00845697 0 0.00577385 0.00740554 0 0.00985659 0.00673773 0 0.0132347 0.00539109 0 0.0155446 0.00380197 0 0.0169891 0.0024782 0 0.0179084 0.00157533 0 0.0185369 0.00102536 0 0.0190028 0.000711611 0 0.019372 0.000537128 0 0.0196773 0.000433374 0 0.0199339 0.000362233 0 0.0201482 0.000301807 0 0.0203214 0.000241336 0 0.0204531 0.000176281 0 0.0205418 0.000105269 0 0.0205859 2.82753e-05 0 0.0205835 -5.44369e-05 0 0.0205328 -0.000142779 0 0.0204315 -0.000237123 0 0.0202766 -0.000338532 0 0.0200644 -0.000448871 0 0.0197896 -0.000571054 0 0.0194455 -0.000709507 0 0.019022 -0.000871101 0 0.0185055 -0.00106616 0 0.0178755 -0.00131421 0 0.0171001 -0.00164759 0 0.0161274 -0.00212591 0 0.0148641 -0.00285637 0 0.0131313 -0.00399604 0 0.0105901 -0.005601 0 0.00690322 -0.0070219 0 0.00564816 0.00601768 0 0.00962786 0.00547183 0 0.0129903 0.0044309 0 0.0154103 0.00317213 0 0.0169827 0.00208247 0 0.0179815 0.00131825 0 0.0186386 0.000846484 0 0.0191011 0.000577286 0 0.0194523 0.000429526 0 0.0197357 0.000343923 0 0.0199723 0.000287068 0 0.0201703 0.000239657 0 0.0203315 0.000192181 0 0.0204548 0.000140627 0 0.0205379 8.37897e-05 0 0.0205785 2.1675e-05 0 0.020574 -4.54378e-05 0 0.0205219 -0.000117403 0 0.0204197 -0.000194461 0 0.0202639 -0.000277438 0 0.0200507 -0.00036784 0 0.0197746 -0.000468057 0 0.0194285 -0.000581751 0 0.019002 -0.00071465 0 0.0184807 -0.000875407 0 0.0178427 -0.00108043 0 0.017054 -0.00135696 0 0.0160579 -0.00175489 0 0.0147546 -0.00236186 0 0.0129633 -0.00329696 0 0.0103862 -0.00457177 0 0.00680373 -0.00565969 0 0.00555408 0.00465549 0 0.00945792 0.00423119 0 0.0128005 0.00345553 0 0.0152942 0.00250304 0 0.0169653 0.00165402 0 0.0180317 0.00104472 0 0.0187166 0.00066405 0 0.0191796 0.000446465 0 0.0195178 0.000328104 0 0.0197842 0.000260899 0 0.0200046 0.000217437 0 0.0201893 0.000181798 0 0.0203405 0.000146118 0 0.0204568 0.000107072 0 0.0205353 6.36662e-05 0 0.0205729 1.5916e-05 0 0.0205665 -3.59229e-05 0 0.0205133 -9.16917e-05 0 0.0204102 -0.000151537 0 0.0202538 -0.000216075 0 0.0200398 -0.000286464 0 0.0197626 -0.000364565 0 0.0194148 -0.000453254 0 0.0189858 -0.000557052 0 0.0184606 -0.000682819 0 0.0178162 -0.000843597 0 0.0170166 -0.00106105 0 0.0160014 -0.00137464 0 0.0146659 -0.00185232 0 0.0128299 -0.00258037 0 0.0102305 -0.00354787 0 0.00672868 -0.00435146 0 0.00548696 0.00331231 0 0.00933729 0.00300938 0 0.0126618 0.00247204 0 0.0152028 0.00180605 0 0.0169453 0.00119983 0 0.0180645 0.000757097 0 0.018773 0.00047777 0 0.0192382 0.000317778 0 0.0195676 0.000231256 0 0.0198216 0.00018284 0 0.0200298 0.000152166 0 0.0202044 0.00012736 0 0.0203479 0.000102541 0 0.0204588 7.52194e-05 0 0.0205336 4.46503e-05 0 0.0205688 1.08493e-05 0 0.020561 -2.59811e-05 0 0.0205069 -6.57031e-05 0 0.0204032 -0.0001084 0 0.0202462 -0.000154498 0 0.0200316 -0.000204815 0 0.0197536 -0.000260685 0 0.0194045 -0.000324175 0 0.0189737 -0.00039855 0 0.0184454 -0.000488781 0 0.0177961 -0.000604335 0 0.0169881 -0.000760942 0 0.0159584 -0.000987132 0 0.0145988 -0.00133122 0 0.0127306 -0.00185131 0 0.0101178 -0.00252951 0 0.00667482 -0.00308215 0 0.00544372 0.00198225 0 0.00925982 0.00180057 0 0.012571 0.00148444 0 0.0151402 0.00109061 0 0.0169288 0.000727245 0 0.0180839 0.00045873 0 0.0188095 0.000288159 0 0.0192772 0.000190284 0 0.0196012 0.000137541 0 0.019847 0.000108302 0 0.0200471 9.0036e-05 0 0.0202148 7.54089e-05 0 0.0203532 6.07842e-05 0 0.0204603 4.462e-05 0 0.0205326 2.64542e-05 0 0.0205662 6.29769e-06 0 0.0205574 -1.57202e-05 0 0.0205027 -3.95073e-05 0 0.0203985 -6.5105e-05 0 0.0202412 -9.27627e-05 0 0.0200261 -0.000122969 0 0.0197475 -0.000156524 0 0.0193976 -0.000194674 0 0.0189655 -0.000239393 0 0.0184353 -0.000293693 0 0.0177827 -0.000363312 0 0.016969 -0.000457795 0 0.0159294 -0.000594386 0 0.0145537 -0.00080197 0 0.0126647 -0.00111394 0 0.0100444 -0.00151572 0 0.00663997 -0.00183916 0 0.00542246 0.000659902 0 0.00922182 0.000599355 0 0.0125261 0.000494986 0 0.0151082 0.000364668 0 0.0169196 0.000243637 0 0.0180929 0.000153668 0 0.0188275 9.63142e-05 0 0.0192967 6.33713e-05 0 0.0196181 4.56475e-05 0 0.0198598 3.58678e-05 0 0.0200559 2.98009e-05 0 0.0202202 2.49676e-05 0 0.0203559 2.01371e-05 0 0.0204611 1.47873e-05 0 0.0205321 8.76146e-06 0 0.0205649 2.06349e-06 0 0.0205556 -5.2623e-06 0 0.0205006 -1.31835e-05 0 0.0203962 -2.17126e-05 0 0.0202386 -3.09316e-05 0 0.0200233 -4.1003e-05 0 0.0197445 -5.21935e-05 0 0.0193942 -6.49197e-05 0 0.0189614 -7.98419e-05 0 0.0184301 -9.79686e-05 0 0.0177759 -0.000121223 0 0.0169593 -0.000152804 0 0.0159148 -0.000198481 0 0.0145311 -0.000267861 0 0.0126317 -0.000371825 0 0.0100082 -0.000504897 0 0.0066228 -0.000611389 0 0.00542246 -0.000659902 0 0.00922182 -0.000599355 0 0.0125261 -0.000494986 0 0.0151082 -0.000364668 0 0.0169196 -0.000243637 0 0.0180929 -0.000153668 0 0.0188275 -9.63142e-05 0 0.0192967 -6.33713e-05 0 0.0196181 -4.56475e-05 0 0.0198598 -3.58678e-05 0 0.0200559 -2.98009e-05 0 0.0202202 -2.49676e-05 0 0.0203559 -2.01371e-05 0 0.0204611 -1.47873e-05 0 0.0205321 -8.76146e-06 0 0.0205649 -2.06349e-06 0 0.0205556 5.2623e-06 0 0.0205006 1.31835e-05 0 0.0203962 2.17126e-05 0 0.0202386 3.09316e-05 0 0.0200233 4.1003e-05 0 0.0197445 5.21935e-05 0 0.0193942 6.49197e-05 0 0.0189614 7.98419e-05 0 0.0184301 9.79686e-05 0 0.0177759 0.000121223 0 0.0169593 0.000152804 0 0.0159148 0.000198481 0 0.0145311 0.000267861 0 0.0126317 0.000371825 0 0.0100082 0.000504897 0 0.0066228 0.000611389 0 0.00544372 -0.00198225 0 0.00925982 -0.00180057 0 0.012571 -0.00148444 0 0.0151402 -0.00109061 0 0.0169288 -0.000727245 0 0.0180839 -0.00045873 0 0.0188095 -0.000288159 0 0.0192772 -0.000190284 0 0.0196012 -0.000137541 0 0.019847 -0.000108302 0 0.0200471 -9.0036e-05 0 0.0202148 -7.54089e-05 0 0.0203532 -6.07842e-05 0 0.0204603 -4.462e-05 0 0.0205326 -2.64542e-05 0 0.0205662 -6.29769e-06 0 0.0205574 1.57202e-05 0 0.0205027 3.95073e-05 0 0.0203985 6.5105e-05 0 0.0202412 9.27627e-05 0 0.0200261 0.000122969 0 0.0197475 0.000156524 0 0.0193976 0.000194674 0 0.0189655 0.000239393 0 0.0184353 0.000293693 0 0.0177827 0.000363312 0 0.016969 0.000457795 0 0.0159294 0.000594386 0 0.0145537 0.00080197 0 0.0126647 0.00111394 0 0.0100444 0.00151572 0 0.00663997 0.00183916 0 0.00548696 -0.00331231 0 0.00933729 -0.00300938 0 0.0126618 -0.00247204 0 0.0152028 -0.00180605 0 0.0169453 -0.00119983 0 0.0180645 -0.000757097 0 0.018773 -0.00047777 0 0.0192382 -0.000317778 0 0.0195676 -0.000231256 0 0.0198216 -0.00018284 0 0.0200298 -0.000152166 0 0.0202044 -0.00012736 0 0.0203479 -0.000102541 0 0.0204588 -7.52194e-05 0 0.0205336 -4.46503e-05 0 0.0205688 -1.08493e-05 0 0.020561 2.59811e-05 0 0.0205069 6.57031e-05 0 0.0204032 0.0001084 0 0.0202462 0.000154498 0 0.0200316 0.000204815 0 0.0197536 0.000260685 0 0.0194045 0.000324175 0 0.0189737 0.00039855 0 0.0184454 0.000488781 0 0.0177961 0.000604335 0 0.0169881 0.000760942 0 0.0159584 0.000987132 0 0.0145988 0.00133122 0 0.0127306 0.00185131 0 0.0101178 0.00252951 0 0.00667482 0.00308215 0 0.00555408 -0.00465549 0 0.00945792 -0.00423119 0 0.0128005 -0.00345553 0 0.0152942 -0.00250304 0 0.0169653 -0.00165402 0 0.0180317 -0.00104472 0 0.0187166 -0.00066405 0 0.0191796 -0.000446465 0 0.0195178 -0.000328104 0 0.0197842 -0.000260899 0 0.0200046 -0.000217437 0 0.0201893 -0.000181798 0 0.0203405 -0.000146118 0 0.0204568 -0.000107072 0 0.0205353 -6.36662e-05 0 0.0205729 -1.5916e-05 0 0.0205665 3.59229e-05 0 0.0205133 9.16917e-05 0 0.0204102 0.000151537 0 0.0202538 0.000216075 0 0.0200398 0.000286464 0 0.0197626 0.000364565 0 0.0194148 0.000453254 0 0.0189858 0.000557052 0 0.0184606 0.000682819 0 0.0178162 0.000843597 0 0.0170166 0.00106105 0 0.0160014 0.00137464 0 0.0146659 0.00185232 0 0.0128299 0.00258037 0 0.0102305 0.00354787 0 0.00672868 0.00435146 0 0.00564816 -0.00601768 0 0.00962786 -0.00547183 0 0.0129903 -0.0044309 0 0.0154103 -0.00317213 0 0.0169827 -0.00208247 0 0.0179815 -0.00131825 0 0.0186386 -0.000846484 0 0.0191011 -0.000577286 0 0.0194523 -0.000429526 0 0.0197357 -0.000343923 0 0.0199723 -0.000287068 0 0.0201703 -0.000239657 0 0.0203315 -0.000192181 0 0.0204548 -0.000140627 0 0.0205379 -8.37897e-05 0 0.0205785 -2.1675e-05 0 0.020574 4.54378e-05 0 0.0205219 0.000117403 0 0.0204197 0.000194461 0 0.0202639 0.000277438 0 0.0200507 0.00036784 0 0.0197746 0.000468057 0 0.0194285 0.000581751 0 0.019002 0.00071465 0 0.0184807 0.000875407 0 0.0178427 0.00108043 0 0.017054 0.00135696 0 0.0160579 0.00175489 0 0.0147546 0.00236186 0 0.0129633 0.00329696 0 0.0103862 0.00457177 0 0.00680373 0.00565969 0 0.00577385 -0.00740554 0 0.00985659 -0.00673773 0 0.0132347 -0.00539109 0 0.0155446 -0.00380197 0 0.0169891 -0.0024782 0 0.0179084 -0.00157533 0 0.0185369 -0.00102536 0 0.0190028 -0.000711611 0 0.019372 -0.000537128 0 0.0196773 -0.000433374 0 0.0199339 -0.000362233 0 0.0201482 -0.000301807 0 0.0203214 -0.000241336 0 0.0204531 -0.000176281 0 0.0205418 -0.000105269 0 0.0205859 -2.82753e-05 0 0.0205835 5.44369e-05 0 0.0205328 0.000142779 0 0.0204315 0.000237123 0 0.0202766 0.000338532 0 0.0200644 0.000448871 0 0.0197896 0.000571054 0 0.0194455 0.000709507 0 0.019022 0.000871101 0 0.0185055 0.00106616 0 0.0178755 0.00131421 0 0.0171001 0.00164759 0 0.0161274 0.00212591 0 0.0148641 0.00285637 0 0.0131313 0.00399604 0 0.0105901 0.005601 0 0.00690322 0.0070219 0 0.00593806 -0.00882697 0 0.0101584 -0.00803581 0 0.0135367 -0.00632416 0 0.0156864 -0.00437897 0 0.0169732 -0.00283511 0 0.0178061 -0.00181509 0 0.0184093 -0.00120197 0 0.0188848 -0.000851312 0 0.0192782 -0.000652697 0 0.0196103 -0.000530723 0 0.0198909 -0.000444045 0 0.020124 -0.000369034 0 0.0203111 -0.000294107 0 0.0204523 -0.000214367 0 0.0205473 -0.000128303 0 0.0205952 -3.58303e-05 0 0.0205952 6.28554e-05 0 0.020546 0.000167778 0 0.0204457 0.000279486 0 0.0202918 0.00039931 0 0.0200807 0.000529489 0 0.0198076 0.000673458 0 0.0194658 0.000836372 0 0.0190459 0.00102618 0 0.0185351 0.00125473 0 0.0179142 0.00154436 0 0.0171544 0.00193194 0 0.0162089 0.00248588 0 0.0149934 0.0033323 0 0.0133344 0.00467146 0 0.0108489 0.00663346 0 0.00703197 0.00845697 0 0.00615114 -0.0102919 0 0.0105549 -0.00937282 0 0.0138965 -0.00721055 0 0.0158189 -0.00488761 0 0.016921 -0.00314882 0 0.0176677 -0.00203852 0 0.0182541 -0.00137876 0 0.018748 -0.000998801 0 0.0191725 -0.00077819 0 0.0195367 -0.000637429 0 0.0198447 -0.000533523 0 0.0200991 -0.000442016 0 0.0203015 -0.000350919 0 0.0204532 -0.000255134 0 0.0205548 -0.000153029 0 0.0206068 -4.44112e-05 0 0.0206093 7.06563e-05 0 0.0205616 0.000192375 0 0.0204624 0.000321524 0 0.0203095 0.000459732 0 0.0200997 0.000609632 0 0.0198284 0.000775171 0 0.0194893 0.000962204 0 0.0190736 0.00117966 0 0.0185691 0.00144078 0 0.0179586 0.00177033 0 0.0172164 0.00220909 0 0.0163017 0.00283309 0 0.0151412 0.00378609 0 0.0135726 0.00531579 0 0.0111718 0.00766384 0 0.00719707 0.0099897 0 0.00642759 -0.011814 0 0.0110759 -0.0107531 0 0.0143064 -0.00801947 0 0.0159183 -0.00531171 0 0.0168171 -0.00341797 0 0.0174871 -0.00224899 0 0.0180703 -0.00155944 0 0.0185938 -0.00115702 0 0.0190574 -0.000915703 0 0.0194588 -0.000754898 0 0.0197974 -0.00063157 0 0.020075 -0.000521298 0 0.0202937 -0.000412081 0 0.0204562 -0.000298741 0 0.0205647 -0.000179516 0 0.020621 -5.4041e-05 0 0.0206259 7.78347e-05 0 0.0205796 0.000216566 0 0.0204815 0.000363219 0 0.0203297 0.000519765 0 0.0201213 0.000689242 0 0.0198521 0.000876105 0 0.019516 0.00108687 0 0.0191049 0.00133136 0 0.0186075 0.00162402 0 0.0180084 0.00199167 0 0.0172854 0.00247827 0 0.0164045 0.00316605 0 0.0153053 0.00421429 0 0.0138447 0.00592021 0 0.0115687 0.00868162 0 0.00740835 0.0116543 0 0.0067939 -0.0134132 0 0.0117729 -0.0121721 0 0.0147447 -0.00870513 0 0.0159489 -0.00563725 0 0.0166422 -0.0036456 0 0.0172572 -0.00245252 0 0.0178573 -0.00174899 0 0.0184242 -0.00132937 0 0.0189355 -0.00106741 0 0.019379 -0.000884441 0 0.0197512 -0.000738929 0 0.0200533 -0.000607267 0 0.0202889 -0.000477764 0 0.0204624 -0.000345239 0 0.0205777 -0.000207757 0 0.0206379 -6.46899e-05 0 0.0206451 8.44203e-05 0 0.0206002 0.000240367 0 0.0205031 0.000404571 0 0.0203525 0.000579383 0 0.0201456 0.000768267 0 0.0198786 0.000976176 0 0.0195459 0.00121024 0 0.0191398 0.0014811 0 0.0186501 0.00180417 0 0.0180633 0.00220798 0 0.0173609 0.00273881 0 0.0165163 0.0034835 0 0.0154841 0.00461375 0 0.0141492 0.0064747 0 0.0120546 0.00966777 0 0.00768367 0.0135008 0 0.00729052 -0.0151225 0 0.0127114 -0.0135986 0 0.015158 -0.00920566 0 0.0158671 -0.00585732 0 0.0163793 -0.0038407 0 0.0169746 -0.00265801 0 0.0176169 -0.00195352 0 0.0182425 -0.00151962 0 0.0188103 -0.00123546 0 0.0193007 -0.00102721 0 0.0197084 -0.000856144 0 0.0200357 -0.000700123 0 0.0202883 -0.000547984 0 0.0204725 -0.000394561 0 0.0205942 -0.000237659 0 0.020658 -7.62706e-05 0 0.0206671 9.04791e-05 0 0.0206234 0.000263818 0 0.0205273 0.000445591 0 0.0203777 0.000638569 0 0.0201725 0.000846659 0 0.0199079 0.00107531 0 0.0195788 0.00133221 0 0.0191781 0.0016287 0 0.0186967 0.00198103 0 0.0181229 0.00241893 0 0.0174422 0.00299022 0 0.0166356 0.00378447 0 0.0156746 0.00498176 0 0.0144818 0.00696848 0 0.0126423 0.01059 0 0.00804975 0.0156075 0 0.00799244 -0.0170035 0 0.0139678 -0.0149296 0 0.0154456 -0.00945172 0 0.0156223 -0.00597885 0 0.0160137 -0.00401928 0 0.0166381 -0.00287708 0 0.0173522 -0.00218009 0 0.0180533 -0.00173171 0 0.0186861 -0.00142191 0 0.0192272 -0.00118412 0 0.0196718 -0.000983518 0 0.0200244 -0.000799848 0 0.0202933 -0.000622586 0 0.0204874 -0.000446511 0 0.0206147 -0.000269038 0 0.0206815 -8.86362e-05 0 0.0206922 9.6115e-05 0 0.0206493 0.00028698 0 0.020554 0.0004863 0 0.0204055 0.000697311 0 0.020202 0.000924378 0 0.01994 0.00117342 0 0.0196147 0.00145266 0 0.0192197 0.00177403 0 0.018747 0.00215438 0 0.0181869 0.00262426 0 0.0175286 0.00323211 0 0.0167611 0.00406831 0 0.0158738 0.00531634 0 0.0148361 0.00739115 0 0.0133419 0.0113965 0 0.00855552 0.0181081 0 0.00905586 -0.0191925 0 0.0155536 -0.0158887 0 0.0154457 -0.00939493 0 0.0151641 -0.00602937 0 0.0155362 -0.00420452 0 0.0162503 -0.00312357 0 0.0170691 -0.0024363 0 0.0178624 -0.00196952 0 0.0185679 -0.00162853 0 0.0191626 -0.00135579 0 0.0196443 -0.00112106 0 0.0200213 -0.000906179 0 0.0203052 -0.000701223 0 0.0205079 -0.000500757 0 0.0206398 -0.000301618 0 0.0207087 -0.000101578 0 0.0207203 0.000101469 0 0.0206779 0.000309936 0 0.0205832 0.000526734 0 0.0204357 0.000755605 0 0.0202339 0.00100138 0 0.0199747 0.00127045 0 0.0196535 0.00157151 0 0.0192646 0.00191696 0 0.0188009 0.00232409 0 0.0182549 0.00282379 0 0.0176194 0.0034643 0 0.0168913 0.00433473 0 0.0160785 0.0056164 0 0.0152036 0.00773415 0 0.0141515 0.0120117 0 0.00930115 0.0212613 0 0.0108713 -0.022072 0 0.0171213 -0.0158949 0 0.0149556 -0.0090599 0 0.0144572 -0.00606061 0 0.0149472 -0.00442563 0 0.0158187 -0.00341272 0 0.0167756 -0.00272985 0 0.0176768 -0.00223668 0 0.0184614 -0.0018567 0 0.0191111 -0.00154242 0 0.019629 -0.00126842 0 0.0200285 -0.00101858 0 0.0203254 -0.000783344 0 0.0205349 -0.000556819 0 0.0206698 -0.000335024 0 0.0207398 -0.000114828 0 0.0207516 0.00010672 0 0.0207093 0.00033279 0 0.0206148 0.000566939 0 0.0204684 0.000813451 0 0.0202684 0.00107764 0 0.020012 0.00136635 0 0.0196951 0.00168866 0 0.0193125 0.0020574 0 0.0188582 0.00249003 0 0.0183265 0.00301743 0 0.0177139 0.00368673 0 0.0170249 0.00458381 0 0.0162853 0.00588192 0 0.0155735 0.00799274 0 0.0150409 0.0123421 0 0.010532 0.0256796 0 0.0149098 -0.0274389 0 0.0174196 -0.0143253 0 0.0138018 -0.00859411 0 0.0134931 -0.00614511 0 0.0142584 -0.00471525 0 0.0153561 -0.00376001 0 0.0164824 -0.003068 0 0.0175051 -0.00253619 0 0.0183731 -0.00210725 0 0.0190774 -0.00174374 0 0.0196292 -0.00142488 0 0.0200482 -0.00113621 0 0.0203552 -0.000868181 0 0.0205691 -0.000614073 0 0.0207053 -0.000368787 0 0.020775 -0.000128056 0 0.0207861 0.000112079 0 0.0207433 0.000355663 0 0.020649 0.000606967 0 0.0205034 0.000870853 0 0.0203052 0.00115313 0 0.0200518 0.00146103 0 0.0197394 0.00180405 0 0.0193634 0.00219525 0 0.0189187 0.00265214 0 0.0184014 0.00320513 0 0.0178114 0.00389951 0 0.0171604 0.00481595 0 0.016491 0.00611398 0 0.0159344 0.00816745 0 0.0159405 0.0123094 0 0.013143 0.0334984 0 0.0741434 -0.0626433 0 0.0146819 -0.0118492 0 0.0119456 -0.00825815 0 0.0123 -0.00636465 0 0.0134938 -0.00510576 0 0.01488 -0.00417978 0 0.0162027 -0.00345699 0 0.0173569 -0.0028702 0 0.01831 -0.00238017 0 0.0190666 -0.00195891 0 0.0196482 -0.00158927 0 0.0200824 -0.00125792 0 0.0203959 -0.000954738 0 0.0206113 -0.000671739 0 0.0207465 -0.000402339 0 0.0208145 -0.000140878 0 0.0208239 0.000117788 0 0.02078 0.000378691 0 0.0206854 0.000646879 0 0.0205406 0.000927816 0 0.0203443 0.0012278 0 0.0200941 0.00155446 0 0.0197864 0.0019176 0 0.0194171 0.00233045 0 0.0189821 0.00281037 0 0.0184791 0.00338695 0 0.0179113 0.00410287 0 0.0172965 0.00503194 0 0.0166922 0.00631477 0 0.0162752 0.00826483 0 0.0167513 0.0119078 0 0.0443792 0.0453811 0 </DataArray> 
</PointData> 
<Points> 
<DataArray type="Float32" NumberOfComponents="3"> 