<?xml version="1.0"?> 
<VTKFile type="StructuredGrid" version="0.1"> 
<StructuredGrid WholeExtent="0 31 0 31 0 0"> 
<Piece Extent="0 31 0 31 0 0"> 
<PointData>
<DataArray type="Float32" Name="B" format="ascii" NumberOfComponents="3"> 
-0.00157349 -0 0 -0.00163957 -0 0 -0.00170393 -0 0 -0.0017661 -0 0 -0.00182563 -0 0 -0.00188207 -0 0 -0.00193498 -0 0 -0.00198395 -0 0 -0.0020286 -0 0 -0.00206855 -0 0 -0.00210349 -0 0 -0.00213312 -0 0 -0.00215721 -0 0 -0.00217556 -0 0 -0.00218801 -0 0 -0.00219447 -0 0 -0.00219488 -0 0 -0.00218924 -0 0 -0.0021776 -0 0 -0.00216005 -0 0 -0.00213674 -0 0 -0.00210786 -0 0 -0.00207366 -0 0 -0.0020344 -0 0 -0.00199042 -0 0 -0.00194206 -0 0 -0.00188971 -0 0 -0.00183379 -0 0 -0.00177472 -0 0 -0.00171296 -0 0 -0.00164895 -0 0 -0.00158315 -0 0 -0.00157421 6.68899e-05 0 -0.00164055 6.53891e-05 0 -0.00170516 6.34333e-05 0 -0.00176758 6.10195e-05 0 -0.00182736 5.81511e-05 0 -0.00188405 5.48372e-05 0 -0.0019372 5.10959e-05 0 -0.00198639 4.69498e-05 0 -0.00203124 4.24225e-05 0 -0.00207137 3.75562e-05 0 -0.00210647 3.23832e-05 0 -0.00213624 2.69447e-05 0 -0.00216044 2.12848e-05 0 -0.00217888 1.54495e-05 0 -0.00219139 9.48675e-06 0 -0.00219788 3.44581e-06 0 -0.00219829 -2.62333e-06 0 -0.00219262 -8.66946e-06 0 -0.00218093 -1.46425e-05 0 -0.00216329 -2.04933e-05 0 -0.00213988 -2.61738e-05 0 -0.00211086 -3.1638e-05 0 -0.0020765 -3.68417e-05 0 -0.00203706 -4.17437e-05 0 -0.00199288 -4.63113e-05 0 -0.0019443 -5.05024e-05 0 -0.00189172 -5.42929e-05 0 -0.00183556 -5.76597e-05 0 -0.00177624 -6.05844e-05 0 -0.00171422 -6.30574e-05 0 -0.00164996 -6.50745e-05 0 -0.0015839 -6.6638e-05 0 -0.0015761 0.00013423 0 -0.00164311 0.000131238 0 -0.00170841 0.000127329 0 -0.00177152 0.000122498 0 -0.00183197 0.000116751 0 -0.00188931 0.000110106 0 -0.00194308 0.000102601 0 -0.00199286 9.428e-05 0 -0.00203824 8.5192e-05 0 -0.00207886 7.54216e-05 0 -0.00211439 6.50341e-05 0 -0.00214452 5.41128e-05 0 -0.00216902 4.27461e-05 0 -0.00218768 3.1027e-05 0 -0.00220035 1.90519e-05 0 -0.00220691 6.91955e-06 0 -0.00220733 -5.26941e-06 0 -0.00220159 -1.74121e-05 0 -0.00218975 -2.94079e-05 0 -0.0021719 -4.1158e-05 0 -0.00214819 -5.25659e-05 0 -0.00211882 -6.35386e-05 0 -0.00208404 -7.39877e-05 0 -0.00204412 -8.38296e-05 0 -0.00199941 -9.29985e-05 0 -0.00195025 -0.000101409 0 -0.00189706 -0.000109014 0 -0.00184025 -0.000115765 0 -0.00178026 -0.000121625 0 -0.00171756 -0.000126575 0 -0.00165261 -0.000130607 0 -0.00158589 -0.000133725 0 -0.00157923 0.000202465 0 -0.00164738 0.000198001 0 -0.00171383 0.000192146 0 -0.00177809 0.00018489 0 -0.00183967 0.000176243 0 -0.00189811 0.000166234 0 -0.00195293 0.000154919 0 -0.00200369 0.000142367 0 -0.00204998 0.000128651 0 -0.00209142 0.000113901 0 -0.00212767 9.8217e-05 0 -0.00215841 8.17245e-05 0 -0.00218341 6.45582e-05 0 -0.00220244 4.68589e-05 0 -0.00221537 2.87725e-05 0 -0.00222207 1.04487e-05 0 -0.00222249 -7.96066e-06 0 -0.00221663 -2.63e-05 0 -0.00220454 -4.44174e-05 0 -0.00218633 -6.21632e-05 0 -0.00216214 -7.93914e-05 0 -0.00213217 -9.59612e-05 0 -0.00209668 -0.000111738 0 -0.00205596 -0.000126596 0 -0.00201035 -0.000140433 0 -0.00196022 -0.000153121 0 -0.00190599 -0.000164586 0 -0.00184809 -0.000174756 0 -0.00178698 -0.000183573 0 -0.00172313 -0.000191009 0 -0.00165704 -0.000197052 0 -0.00158918 -0.000201707 0 -0.00158365 0.000272071 0 -0.00165344 0.000266165 0 -0.00172156 0.000258372 0 -0.00178748 0.00024868 0 -0.00185071 0.000237102 0 -0.00191073 0.000223677 0 -0.00196707 0.000208482 0 -0.00201926 0.000191611 0 -0.00206686 0.000173164 0 -0.00210948 0.00015332 0 -0.00214675 0.000132212 0 -0.00217838 0.000110013 0 -0.00220409 8.6905e-05 0 -0.00222368 6.30783e-05 0 -0.00223697 3.87302e-05 0 -0.00224386 1.40622e-05 0 -0.00224429 -1.07208e-05 0 -0.00223826 -3.54095e-05 0 -0.00222582 -5.97989e-05 0 -0.00220708 -8.36875e-05 0 -0.00218219 -0.000106878 0 -0.00215136 -0.000129181 0 -0.00211485 -0.000150412 0 -0.00207297 -0.000170401 0 -0.00202607 -0.000189011 0 -0.00197453 -0.000206065 0 -0.0019188 -0.000221461 0 -0.00185932 -0.000235103 0 -0.00179658 -0.000246911 0 -0.00173108 -0.000256847 0 -0.00166333 -0.000264891 0 -0.00159383 -0.000271056 0 -0.00158916 0.000343528 0 -0.00166106 0.000336221 0 -0.00173131 0.000326505 0 -0.00179937 0.000314362 0 -0.0018647 0.000299809 0 -0.00192677 0.000282897 0 -0.00198506 0.000263725 0 -0.00203907 0.000242415 0 -0.00208835 0.000219099 0 -0.00213247 0.000194003 0 -0.00217108 0.0001673 0 -0.00220383 0.000139212 0 -0.00223046 0.00010997 0 -0.00225074 7.98183e-05 0 -0.0022645 4.9006e-05 0 -0.00227163 1.7789e-05 0 -0.00227207 -1.35735e-05 0 -0.00226582 -4.48164e-05 0 -0.00225294 -7.56803e-05 0 -0.00223352 -0.00010591 0 -0.00220774 -0.000135255 0 -0.00217581 -0.000163472 0 -0.002138 -0.00019033 0 -0.00209463 -0.000215608 0 -0.00204607 -0.000239131 0 -0.00199273 -0.00026067 0 -0.00193507 -0.000280096 0 -0.00187357 -0.000297283 0 -0.00180874 -0.000312129 0 -0.00174111 -0.000324581 0 -0.00167123 -0.000334618 0 -0.00159963 -0.000342254 0 -0.00159584 0.000417344 0 -0.00167041 0.000408691 0 -0.00174338 0.000397069 0 -0.00181416 0.000382455 0 -0.00188217 0.000364872 0 -0.00194683 0.000344381 0 -0.00200759 0.000321108 0 -0.00206391 0.000295206 0 -0.00211531 0.00026684 0 -0.00216135 0.00023629 0 -0.00220162 0.000203774 0 -0.00223579 0.000169564 0 -0.00226357 0.000133945 0 -0.00228472 9.72164e-05 0 -0.00229907 5.96836e-05 0 -0.00230651 2.16585e-05 0 -0.00230697 -1.65434e-05 0 -0.00230044 -5.45995e-05 0 -0.002287 -9.2194e-05 0 -0.00226674 -0.000129015 0 -0.00223983 -0.000164758 0 -0.00220651 -0.000199124 0 -0.00216706 -0.000231828 0 -0.00212181 -0.000262596 0 -0.00207115 -0.000291212 0 -0.00201553 -0.000317393 0 -0.00195542 -0.000340975 0 -0.00189135 -0.000361801 0 -0.00182387 -0.000379742 0 -0.00175354 -0.000394734 0 -0.00168095 -0.000406749 0 -0.00160668 -0.000415806 0 -0.00160353 0.000494075 0 -0.00168135 0.000484146 0 -0.00175762 0.000470641 0 -0.0018317 0.000453533 0 -0.00190295 0.000432848 0 -0.00197075 0.000408664 0 -0.0020345 0.000381133 0 -0.00209362 0.000350446 0 -0.00214758 0.000316804 0 -0.00219592 0.00028055 0 -0.00223821 0.000241948 0 -0.00227408 0.000201328 0 -0.00230324 0.000159032 0 -0.00232544 0.000115419 0 -0.0023405 7.08519e-05 0 -0.0023483 2.5702e-05 0 -0.00234877 -1.96567e-05 0 -0.00234192 -6.48423e-05 0 -0.0023278 -0.000109481 0 -0.00230652 -0.000153202 0 -0.00227827 -0.000195642 0 -0.00224329 -0.000236444 0 -0.00220186 -0.000275266 0 -0.00215434 -0.000311776 0 -0.00210115 -0.000345712 0 -0.00204277 -0.000376729 0 -0.0019797 -0.000404626 0 -0.00191251 -0.000429208 0 -0.0018418 -0.00045032 0 -0.0017682 -0.00046788 0 -0.00169232 -0.000481855 0 -0.00161482 -0.000492269 0 -0.00161208 0.000574303 0 -0.00169373 0.000563184 0 -0.00177389 0.000547827 0 -0.00185186 0.000528194 0 -0.00192695 0.000504321 0 -0.00199845 0.0004763 0 -0.00206572 0.000444319 0 -0.00212812 0.000408611 0 -0.0021851 0.00036942 0 -0.00223613 0.000327158 0 -0.00228076 0.000282142 0 -0.00231862 0.000234766 0 -0.00234938 0.000185436 0 -0.0023728 0.000134571 0 -0.00238868 8.25991e-05 0 -0.00239689 2.99507e-05 0 -0.00239739 -2.29395e-05 0 -0.00239015 -7.56283e-05 0 -0.00237525 -0.000127681 0 -0.0023528 -0.000178668 0 -0.00232299 -0.000228163 0 -0.00228605 -0.000275747 0 -0.00224231 -0.000321013 0 -0.00219214 -0.000363571 0 -0.00213599 -0.000403101 0 -0.00207436 -0.000439192 0 -0.00200781 -0.000471598 0 -0.00193695 -0.000500083 0 -0.00186244 -0.000524457 0 -0.00178497 -0.000544619 0 -0.00170522 -0.000560531 0 -0.0016239 -0.00057222 0 -0.00162152 0.000658677 0 -0.00170777 0.000646477 0 -0.00179261 0.000629304 0 -0.00187527 0.000607112 0 -0.00195495 0.000579943 0 -0.0020309 0.000547912 0 -0.00210238 0.000511246 0 -0.00216871 0.000470229 0 -0.00222927 0.000425157 0 -0.00228349 0.000376521 0 -0.00233091 0.000324701 0 -0.00237111 0.000270159 0 -0.00240376 0.000213373 0 -0.0024286 0.000154829 0 -0.00244544 9.50185e-05 0 -0.00245415 3.4437e-05 0 -0.00245466 -2.64197e-05 0 -0.00244698 -8.70461e-05 0 -0.00243116 -0.000146946 0 -0.00240733 -0.000205626 0 -0.00237567 -0.000262596 0 -0.00233645 -0.00031737 0 -0.00228997 -0.000369472 0 -0.00223666 -0.000418442 0 -0.00217697 -0.000463899 0 -0.00211146 -0.000505353 0 -0.00204074 -0.000542506 0 -0.00196548 -0.000575072 0 -0.00188641 -0.00060282 0 -0.00180428 -0.000625626 0 -0.00171987 -0.000643444 0 -0.00163396 -0.00065631 0 -0.00163154 0.000747915 0 -0.0017231 0.000734767 0 -0.00181335 0.000715824 0 -0.00190142 0.000691029 0 -0.00198642 0.000660433 0 -0.0020675 0.000624179 0 -0.00214383 0.000582544 0 -0.00221467 0.00053587 0 -0.00227932 0.000484519 0 -0.00233719 0.000429074 0 -0.00238776 0.000369987 0 -0.00243061 0.0003078 0 -0.00246539 0.000243068 0 -0.00249183 0.000176349 0 -0.00250974 0.000108205 0 -0.002519 3.91937e-05 0 -0.00251954 -3.01258e-05 0 -0.00251135 -9.91858e-05 0 -0.00249451 -0.000167428 0 -0.00246912 -0.000234295 0 -0.00243539 -0.000299228 0 -0.00239357 -0.00036167 0 -0.00234399 -0.000421069 0 -0.00228709 -0.000476886 0 -0.00222336 -0.000528668 0 -0.0021534 -0.000575835 0 -0.00207788 -0.000618023 0 -0.00199754 -0.000654886 0 -0.0019132 -0.000686144 0 -0.0018257 -0.000711647 0 -0.00173591 -0.000731334 0 -0.00164471 -0.000745252 0 -0.001642 0.000842799 0 -0.00173973 0.000828868 0 -0.00183628 0.00080821 0 -0.00193064 0.000780759 0 -0.00202182 0.000746576 0 -0.00210884 0.000705841 0 -0.00219078 0.000658889 0 -0.0022668 0.00060614 0 -0.00233615 0.000548035 0 -0.00239818 0.000485266 0 -0.00245234 0.000418371 0 -0.00249818 0.000347984 0 -0.00253535 0.000274744 0 -0.00256359 0.00019929 0 -0.0025827 0.000122251 0 -0.00259257 4.42527e-05 0 -0.00259313 -3.40861e-05 0 -0.00258439 -0.000112136 0 -0.00256639 -0.000189279 0 -0.00253927 -0.000264892 0 -0.00250319 -0.000338347 0 -0.00245844 -0.00040901 0 -0.00240534 -0.000476246 0 -0.00234435 -0.000539423 0 -0.00227599 -0.000598005 0 -0.0022009 -0.000651303 0 -0.00211984 -0.000698875 0 -0.00203362 -0.0007403 0 -0.00194316 -0.000775235 0 -0.0018494 -0.000803496 0 -0.00175336 -0.000825008 0 -0.00165601 -0.000839827 0 -0.00165267 0.000944246 0 -0.0017576 0.000929731 0 -0.0018615 0.000907427 0 -0.00196322 0.000877253 0 -0.0020616 0.000839286 0 -0.00215553 0.000793749 0 -0.00224397 0.000741058 0 -0.00232597 0.000681725 0 -0.0024007 0.000616294 0 -0.00246746 0.000545589 0 -0.00252567 0.000470251 0 -0.00257487 0.000391021 0 -0.00261471 0.000308634 0 -0.00264494 0.000223809 0 -0.00266538 0.000137251 0 -0.00267593 4.96456e-05 0 -0.00267652 -3.83291e-05 0 -0.00266715 -0.000125988 0 -0.00264788 -0.000212655 0 -0.00261882 -0.000297645 0 -0.00258013 -0.00038026 0 -0.00253208 -0.000459784 0 -0.00247501 -0.000535487 0 -0.00240936 -0.000606634 0 -0.00233569 -0.000672586 0 -0.00225471 -0.000732524 0 -0.00216722 -0.000785906 0 -0.00207417 -0.000832216 0 -0.00197657 -0.000871034 0 -0.00187552 -0.00090213 0 -0.00177217 -0.000925412 0 -0.00166765 -0.000940946 0 -0.00166325 0.00105327 0 -0.00177643 0.00103842 0 -0.00188875 0.00101455 0 -0.00199888 0.000981569 0 -0.00210549 0.000939572 0 -0.00220731 0.000888841 0 -0.00230312 0.00082989 0 -0.00239187 0.000763356 0 -0.00247264 0.000689911 0 -0.00254466 0.000610544 0 -0.00260734 0.000526022 0 -0.00266022 0.000437212 0 -0.00270297 0.000344954 0 -0.00273536 0.000250054 0 -0.00275723 0.000153288 0 -0.0027685 5.54006e-05 0 -0.00276911 -4.2881e-05 0 -0.00275907 -0.000140823 0 -0.00273843 -0.000237699 0 -0.00270727 -0.000332768 0 -0.00266575 -0.00042526 0 -0.00261409 -0.000514376 0 -0.00255262 -0.000599282 0 -0.00248179 -0.00067912 0 -0.00240218 -0.000753127 0 -0.00231454 -0.000820323 0 -0.00221977 -0.000880037 0 -0.00211892 -0.00093163 0 -0.00201317 -0.000974585 0 -0.00190378 -0.00100861 0 -0.00179206 -0.0010336 0 -0.00167933 -0.00104962 0 -0.00167335 0.00117104 0 -0.00179615 0.00115615 0 -0.00191832 0.00113082 0 -0.00203831 0.00109493 0 -0.00215454 0.00104859 0 -0.00226551 0.000992179 0 -0.00236985 0.000926325 0 -0.00246634 0.000851829 0 -0.00255394 0.000769538 0 -0.00263186 0.000680644 0 -0.00269949 0.000586075 0 -0.0027564 0.000486842 0 -0.0028023 0.000383904 0 -0.00283701 0.000278155 0 -0.00286041 0.000170436 0 -0.00287244 6.15409e-05 0 -0.00287308 -4.77647e-05 0 -0.00286233 -0.000156712 0 -0.00284022 -0.000264539 0 -0.00280681 -0.000370455 0 -0.0027622 -0.000473629 0 -0.00270659 -0.000573171 0 -0.00264026 -0.000668137 0 -0.00256363 -0.000757524 0 -0.00247728 -0.000840413 0 -0.00238202 -0.000915623 0 -0.00227883 -0.000982312 0 -0.00216893 -0.00103968 0 -0.00205367 -0.00108709 0 -0.00193452 -0.00112417 0 -0.00181302 -0.00115078 0 -0.00169071 -0.001167 0 -0.00168255 0.00129894 0 -0.00181648 0.0012844 0 -0.00195005 0.00125773 0 -0.00208143 0.00121878 0 -0.00220876 0.00116773 0 -0.00233027 0.00110501 0 -0.00244434 0.00103144 0 -0.00254957 0.000948037 0 -0.0026448 0.000855875 0 -0.00272921 0.000756415 0 -0.00280221 0.000650785 0 -0.00286343 0.00054017 0 -0.00291265 0.000425651 0 -0.00294978 0.000308212 0 -0.00297476 0.000188747 0 -0.00298758 6.80823e-05 0 -0.00298825 -5.29976e-05 0 -0.00297676 -0.000173711 0 -0.00295312 -0.000293276 0 -0.00291735 -0.000410874 0 -0.0028695 -0.000525619 0 -0.00280966 -0.000636539 0 -0.00273806 -0.000742566 0 -0.00265504 -0.000842531 0 -0.00256118 -0.000935318 0 -0.00245731 -0.00101949 0 -0.00234453 -0.00109396 0 -0.00222423 -0.00115773 0 -0.00209799 -0.00120999 0 -0.00196756 -0.00125027 0 -0.00183475 -0.0012784 0 -0.00170138 -0.00129449 0 -0.0016904 0.00143857 0 -0.00183714 0.00142483 0 -0.00198385 0.00139696 0 -0.00212834 0.00135479 0 -0.00226843 0.00129853 0 -0.002402 0.00122874 0 -0.00252713 0.00114643 0 -0.00264215 0.00105291 0 -0.0027458 0.000949613 0 -0.00283724 0.000838333 0 -0.00291594 0.000720462 0 -0.00298166 0.00059738 0 -0.00303432 0.000470299 0 -0.0030739 0.000340276 0 -0.00310048 0.000208242 0 -0.00311409 7.50289e-05 0 -0.00311478 -5.85878e-05 0 -0.00310255 -0.000191842 0 -0.00307737 -0.000323963 0 -0.0030392 -0.000454126 0 -0.00298799 -0.000581413 0 -0.00292374 -0.00070478 0 -0.00284653 -0.000823036 0 -0.00275661 -0.000934817 0 -0.00265447 -0.00103876 0 -0.00254095 -0.00113307 0 -0.00241728 -0.00121635 0 -0.00228508 -0.0012873 0 -0.00214625 -0.00134489 0 -0.00200284 -0.00138857 0 -0.00185702 -0.00141811 0 -0.00171093 -0.00143363 0 -0.00169587 0.00159184 0 -0.0018578 0.00157946 0 -0.00202011 0.00155057 0 -0.00218018 0.00150497 0 -0.00233539 0.00144291 0 -0.00248321 0.00136506 0 -0.00262125 0.00127267 0 -0.00274747 0.00116749 0 -0.00286048 0.00105144 0 -0.00295949 0.000926812 0 -0.00304416 0.000795322 0 -0.00311447 0.000658561 0 -0.00317052 0.000517861 0 -0.00321251 0.000374329 0 -0.00324061 0.000228897 0 -0.00325497 8.23683e-05 0 -0.00325568 -6.45304e-05 0 -0.00324274 -0.000211089 0 -0.00321608 -0.000356586 0 -0.00317556 -0.000500228 0 -0.00312102 -0.000641098 0 -0.00305227 -0.000778106 0 -0.0029692 -0.000909947 0 -0.00287185 -0.00103505 0 -0.00276052 -0.00115174 0 -0.00263597 -0.00125774 0 -0.00249958 -0.00135115 0 -0.00235335 -0.00143025 0 -0.0021996 -0.00149379 0 -0.00204082 -0.0015411 0 -0.00187956 -0.00157191 0 -0.00171838 -0.00158635 0 -0.00169855 0.00176107 0 -0.00187809 0.00175073 0 -0.00205847 0.00172099 0 -0.00223652 0.00167169 0 -0.00240922 0.00160315 0 -0.00257356 0.00151603 0 -0.00272637 0.0014118 0 -0.00286511 0.00129282 0 -0.00298817 0.00116193 0 -0.00309501 0.0010221 0 -0.00318567 0.000875406 0 -0.00326044 0.000723641 0 -0.00331972 0.000568219 0 -0.00336392 0.000410252 0 -0.00339341 0.000250626 0 -0.00340844 9.0066e-05 0 -0.00340916 -7.08025e-05 0 -0.00339557 -0.000231376 0 -0.00336756 -0.000391034 0 -0.00332487 -0.000549066 0 -0.00326717 -0.000704602 0 -0.00319405 -0.000856555 0 -0.00310512 -0.00100354 0 -0.00300007 -0.0011438 0 -0.00287887 -0.00127529 0 -0.00274202 -0.00139508 0 -0.0025911 -0.00150038 0 -0.0024286 -0.00158883 0 -0.00225763 -0.00165901 0 -0.00208111 -0.00171024 0 -0.001902 -0.00174218 0 -0.00172336 -0.00175492 0 -0.00169719 0.00194902 0 -0.00189757 0.00194151 0 -0.00209919 0.00191104 0 -0.00229824 0.00185767 0 -0.0024914 0.00178198 0 -0.00267545 0.00168445 0 -0.0028461 0.00156572 0 -0.00299885 0.0014299 0 -0.00313241 0.00128144 0 -0.00324702 0.00112417 0 -0.00334334 0.0009605 0 -0.00342215 0.00079233 0 -0.00348424 0.000621082 0 -0.00353029 0.000447804 0 -0.0035609 0.00027327 0 -0.00357645 9.80608e-05 0 -0.00357717 -7.73593e-05 0 -0.00356306 -0.000252559 0 -0.00353395 -0.000427082 0 -0.00348944 -0.000600361 0 -0.00342899 -0.000771644 0 -0.00335191 -0.000939912 0 -0.00325744 -0.00110378 0 -0.00314478 -0.00126139 0 -0.00301328 -0.00141037 0 -0.00286268 -0.00154697 0 -0.00269421 -0.00166677 0 -0.00251232 -0.00176571 0 -0.00232123 -0.00184319 0 -0.00212404 -0.00189873 0 -0.00192397 -0.00193173 0 -0.00172472 -0.00194208 0 -0.00169031 0.00215931 0 -0.00191577 0.00215547 0 -0.0021427 0.00212414 0 -0.00236621 0.00206598 0 -0.00258277 0.00198266 0 -0.00279161 0.00187439 0 -0.00298658 0.00173695 0 -0.00315422 0.00157923 0 -0.00329788 0.00140974 0 -0.00341951 0.00123253 0 -0.00352065 0.00105 0 -0.00360268 0.000864027 0 -0.00366682 0.000675918 0 -0.00371412 0.00048657 0 -0.00374541 0.000296562 0 -0.00376126 0.000106254 0 -0.00376197 -8.41256e-05 0 -0.00374755 -0.000274394 0 -0.00371773 -0.000464332 0 -0.00367198 -0.000653596 0 -0.00360951 -0.000841631 0 -0.00352929 -0.00102758 0 -0.00343011 -0.00121016 0 -0.00331061 -0.00138758 0 -0.00316924 -0.00155747 0 -0.00300404 -0.00171586 0 -0.0028116 -0.00185434 0 -0.00260534 -0.00196405 0 -0.00239129 -0.00204929 0 -0.00217009 -0.00210989 0 -0.00194512 -0.00214417 0 -0.00172109 -0.00215137 0 -0.00167715 0.00239654 0 -0.00193268 0.00239722 0 -0.00218951 0.00236427 0 -0.00244089 0.0022994 0 -0.00268197 0.00220668 0 -0.00291136 0.0020933 0 -0.00312237 0.00192543 0 -0.00330202 0.00173976 0 -0.00345408 0.00154574 0 -0.00358134 0.00134606 0 -0.00368603 0.00114286 0 -0.00377013 0.000937785 0 -0.00383536 0.000731937 0 -0.00388315 0.000525955 0 -0.00391461 0.000320129 0 -0.00393048 0.000114511 0 -0.00393115 -9.09952e-05 0 -0.00391666 -0.000296537 0 -0.00388664 -0.000502217 0 -0.00384039 -0.000708005 0 -0.00377684 -0.000913638 0 -0.00369461 -0.00111851 0 -0.00359198 -0.00132159 0 -0.00346702 -0.00152127 0 -0.00331749 -0.00171549 0 -0.00314061 -0.00190167 0 -0.00293255 -0.00207045 0 -0.00270624 -0.00218524 0 -0.00246824 -0.00228 0 -0.00221976 -0.00234759 0 -0.00196544 -0.00238395 0 -0.0017118 -0.00238729 0 -0.00165461 0.00266694 0 -0.00194831 0.00267303 0 -0.00224255 0.0026367 0 -0.00252735 0.00256102 0 -0.00279497 0.00245256 0 -0.00303997 0.00232057 0 -0.00325753 0.00212422 0 -0.00344495 0.00190872 0 -0.00360264 0.00168744 0 -0.00373316 0.00146303 0 -0.00383928 0.0012375 0 -0.0039236 0.00101225 0 -0.00398837 0.000788039 0 -0.00403546 0.000565148 0 -0.00406626 0.00034347 0 -0.00408173 0.000122649 0 -0.00408236 -9.78247e-05 0 -0.00406816 -0.000318522 0 -0.00403871 -0.000539961 0 -0.00399311 -0.00076252 0 -0.00392999 -0.000986332 0 -0.00384756 -0.00121117 0 -0.00374359 -0.00143632 0 -0.00361553 -0.00166044 0 -0.00346062 -0.00188165 0 -0.00327633 -0.00209738 0 -0.00306222 -0.00229442 0 -0.00282092 -0.00242769 0 -0.00255714 -0.00253821 0 -0.00227608 -0.00261687 0 -0.00198518 -0.00265717 0 -0.00169403 -0.00265595 0 -0.00162083 0.00297959 0 -0.00196357 0.00299212 0 -0.00230534 0.00294921 0 -0.00263131 0.00285592 0 -0.00293035 0.0027222 0 -0.00319588 0.00256029 0 -0.00342532 0.00233132 0 -0.00361911 0.0020834 0 -0.00377976 0.00183219 0 -0.00391074 0.00158098 0 -0.0040157 0.00133174 0 -0.00409799 0.00108556 0 -0.00416048 0.000842744 0 -0.00420548 0.000603074 0 -0.0042347 0.000365928 0 -0.00424929 0.000130434 0 -0.00424984 -0.000104427 0 -0.00423637 -0.00033974 0 -0.00420837 -0.000576536 0 -0.00416475 -0.000815704 0 -0.00410385 -0.0010579 0 -0.00402342 -0.00130339 0 -0.00392066 -0.00155191 0 -0.00379226 -0.00180249 0 -0.00363464 -0.00205322 0 -0.00344436 -0.00230096 0 -0.00321891 -0.00253022 0 -0.00295784 -0.00269311 0 -0.00266362 -0.00282877 0 -0.00234254 -0.00292522 0 -0.00200532 -0.00297272 0 -0.00166616 -0.00296616 0 -0.00157219 0.00334737 0 -0.00197996 0.00336773 0 -0.00238402 0.00331288 0 -0.00276209 0.0031916 0 -0.00309881 0.00301985 0 -0.00338713 0.00281608 0 -0.00362762 0.00254635 0 -0.00382519 0.00226111 0 -0.00398529 0.00197682 0 -0.00411316 0.0016968 0 -0.00421368 0.00142282 0 -0.00429115 0.00115541 0 -0.00434911 0.000894257 0 -0.00439034 0.000638452 0 -0.00441687 0.000386727 0 -0.00443002 0.000137589 0 -0.00443047 -0.00011058 0 -0.00441824 -0.000359471 0 -0.00439273 -0.000610714 0 -0.0043527 -0.000865819 0 -0.00429619 -0.00112609 0 -0.00422051 -0.00139246 0 -0.00412218 -0.00166533 0 -0.00399698 -0.00194424 0 -0.00384011 -0.00222752 0 -0.00364641 -0.00251201 0 -0.00341049 -0.00278142 0 -0.00312749 -0.0029856 0 -0.0027968 -0.00315887 0 -0.00242522 -0.00328328 0 -0.0020275 -0.00334334 0 -0.00162495 -0.00333041 0 -0.00150159 0.00379042 0 -0.00200055 0.00382057 0 -0.00249027 0.00374431 0 -0.00293622 0.00357817 0 -0.00331771 0.00334915 0 -0.00362773 0.00308636 0 -0.00387351 0.00276563 0 -0.00406937 0.00243753 0 -0.0042236 0.00211687 0 -0.00434334 0.00180636 0 -0.00443504 0.00150717 0 -0.00450408 0.00121892 0 -0.0045547 0.00094036 0 -0.00459012 0.000669719 0 -0.00461261 0.000404933 0 -0.00462364 0.000143785 0 -0.00462395 -0.00011602 0 -0.00461356 -0.000376847 0 -0.00459182 -0.000641002 0 -0.00455736 -0.000910714 0 -0.00450798 -0.00118807 0 -0.00444057 -0.00147489 0 -0.00435097 -0.00177248 0 -0.00423392 -0.00208131 0 -0.00408305 -0.0024003 0 -0.00389134 -0.00272689 0 -0.00365064 -0.00304643 0 -0.00334682 -0.00330864 0 -0.00297281 -0.00353823 0 -0.00253555 -0.00370695 0 -0.002055 -0.00378886 0 -0.00156405 -0.00376805 0 -0.00139846 0.00434094 0 -0.00203157 0.00438343 0 -0.00264283 0.00426742 0 -0.00317709 0.00402771 0 -0.00360983 0.00371214 0 -0.00393804 0.00336029 0 -0.00417866 0.00298208 0 -0.00436565 0.00260632 0 -0.00450675 0.00224632 0 -0.00461186 0.00190438 0 -0.00468935 0.00158043 0 -0.00474573 0.00127265 0 -0.00478584 0.000978506 0 -0.00481318 0.000695122 0 -0.00483019 0.000419512 0 -0.00483838 0.000148659 0 -0.0048385 -0.000120457 0 -0.0048306 -0.00039091 0 -0.004814 -0.000665727 0 -0.00478728 -0.000947928 0 -0.00474811 -0.00124052 0 -0.0046931 -0.00154641 0 -0.00461753 -0.00186819 0 -0.00451501 -0.00220776 0 -0.0043773 -0.0025653 0 -0.0041946 -0.00293862 0 -0.00395938 -0.0033145 0 -0.00363805 -0.00366429 0 -0.00321424 -0.00397861 0 -0.00269154 -0.00421918 0 -0.00209397 -0.00434047 0 -0.00147395 -0.00430979 0 -0.00124256 0.00505526 0 -0.00208781 0.00511192 0 -0.00287806 0.0049163 0 -0.00352316 0.00455138 0 -0.00400629 0.00410775 0 -0.00435031 0.00364441 0 -0.00459018 0.00318986 0 -0.00475815 0.0027586 0 -0.00487586 0.00235705 0 -0.00495797 0.00198418 0 -0.00501483 0.0016374 0 -0.00505375 0.00131271 0 -0.00507988 0.00100589 0 -0.00509677 0.000712772 0 -0.00510678 0.000429367 0 -0.00511139 0.000151828 0 -0.00511129 -0.000123586 0 -0.00510654 -0.000400645 0 -0.00509649 -0.000683088 0 -0.00507979 -0.000974751 0 -0.00505418 -0.00127963 0 -0.00501625 -0.00160191 0 -0.00496101 -0.00194586 0 -0.00488129 -0.00231559 0 -0.00476686 -0.00271379 0 -0.00460316 -0.00314159 0 -0.00436867 -0.00359253 0 -0.00403157 -0.00405191 0 -0.00355812 -0.0044912 0 -0.00292765 -0.00485277 0 -0.0021584 -0.0050507 0 -0.00133631 -0.00500861 0 -0.000990967 0.00604447 0 -0.00221112 0.00610834 0 -0.0032727 0.00573421 0 -0.00403773 0.00514724 0 -0.00454354 0.00451734 0 -0.00486712 0.00391863 0 -0.00507153 0.0033725 0 -0.00519994 0.00288052 0 -0.00527993 0.00243832 0 -0.00532887 0.00203777 0 -0.00535789 0.00167226 0 -0.0053743 0.00133492 0 -0.00538296 0.0010196 0 -0.00538705 0.000720769 0 -0.00538864 0.000433413 0 -0.00538897 0.000152918 0 -0.00538862 -0.000125109 0 -0.00538762 -0.000405052 0 -0.00538547 -0.00069129 0 -0.005381 -0.000988407 0 -0.00537231 -0.00130138 0 -0.00535635 -0.00163572 0 -0.00532849 -0.00199765 0 -0.00528162 -0.00239414 0 -0.00520474 -0.002832 0 -0.00508048 -0.00331952 0 -0.00488109 -0.003861 0 -0.00456334 -0.00445409 0 -0.00406549 -0.00507562 0 -0.0033158 -0.00565038 0 -0.00228615 -0.0060155 0 -0.00111208 -0.00596705 0 -0.000534542 0.00757662 0 -0.00254364 0.00757733 0 -0.00399387 0.00674707 0 -0.00481479 0.00576852 0 -0.0052596 0.00488773 0 -0.00549962 0.00413749 0 -0.00562619 0.00350008 0 -0.00568846 0.00295286 0 -0.00571405 0.00247728 0 -0.00571904 0.00205643 0 -0.00571314 0.00167905 0 -0.00570234 0.00133525 0 -0.0056904 0.00101695 0 -0.00567969 0.000717387 0 -0.00567165 0.000430683 0 -0.00566712 0.000151596 0 -0.00566649 -0.000124766 0 -0.00566976 -0.00040325 0 -0.00567661 -0.000688713 0 -0.00568627 -0.000986329 0 -0.00569743 -0.00130188 0 -0.00570794 -0.00164208 0 -0.00571432 -0.00201502 0 -0.00571092 -0.00243069 0 -0.00568827 -0.00290072 0 -0.00563025 -0.00344247 0 -0.00550855 -0.00407487 0 -0.00527244 -0.00481975 0 -0.0048291 -0.00569043 0 -0.00401267 -0.00664325 0 -0.00260156 -0.00742717 0 -0.00070128 -0.00742515 0 0.000546412 0.0106165 0 -0.00370093 0.00987328 0 -0.0053622 0.00781234 0 -0.00594647 0.00626382 0 -0.00616731 0.00512245 0 -0.006239 0.00424317 0 -0.00624177 0.00353809 0 -0.00621186 0.00295495 0 -0.00616773 0.00246115 0 -0.0061195 0.00203208 0 -0.00607292 0.00165256 0 -0.00603129 0.00131029 0 -0.00599648 0.000995758 0 -0.00596956 0.000701289 0 -0.00595109 0.00042045 0 -0.00594133 0.000147621 0 -0.00594039 -0.000122361 0 -0.00594827 -0.000394576 0 -0.00596485 -0.000674124 0 -0.0059899 -0.000966501 0 -0.00602298 -0.00127797 0 -0.0060633 -0.00161604 0 -0.00610935 -0.00199011 0 -0.00615839 -0.00241257 0 -0.00620526 -0.00289907 0 -0.00624014 -0.00347525 0 -0.00624375 -0.00417538 0 -0.00617632 -0.0050532 0 -0.00594848 -0.00619401 0 -0.0053305 -0.00772019 0 -0.00363577 -0.00964405 0 0.000281097 -0.0102005 0 0.0215751 0.0626433 0 -0.00776475 0.0118492 0 -0.00756187 0.00825815 0 -0.00738168 0.00636465 0 -0.00720711 0.00510576 0 -0.00704124 0.00417978 0 -0.00688749 0.00345699 0 -0.00674822 0.0028702 0 -0.00662476 0.00238017 0 -0.00651794 0.00195891 0 -0.00642755 0.00158927 0 -0.00635329 0.00125792 0 -0.00629462 0.000954738 0 -0.00625096 0.000671739 0 -0.00622179 0.000402339 0 -0.00620672 0.000140878 0 -0.00620549 -0.000117788 0 -0.00621807 -0.000378691 0 -0.0062446 -0.000646879 0 -0.00628546 -0.000927816 0 -0.00634123 -0.0012278 0 -0.00641274 -0.00155446 0 -0.00650105 -0.0019176 0 -0.00660734 -0.00233045 0 -0.00673285 -0.00281037 0 -0.00687833 -0.00338695 0 -0.00704305 -0.00410287 0 -0.00722203 -0.00503194 0 -0.00739879 -0.00631477 0 -0.00752181 -0.00826483 0 -0.00738353 -0.0119078 0 0.0168632 -0.0453811 0 </DataArray> 
</PointData> 
<Points> 
<DataArray type="Float32" NumberOfComponents="3"> 