<?xml version="1.0"?> 
<VTKFile type="StructuredGrid" version="0.1"> 
<StructuredGrid WholeExtent="0 31 0 31 0 0"> 
<Piece Extent="0 31 0 31 0 0"> 
<PointData>
<DataArray type="Float32" Name="B" format="ascii" NumberOfComponents="3"> 
5.97203e-05 4.69291e-05 0 1.59773e-05 1.21912e-05 0 1.30311e-05 5.70467e-06 0 1.13059e-05 2.54504e-06 0 1.00297e-05 7.10324e-07 0 9.0013e-06 -4.19023e-07 0 8.13486e-06 -1.12461e-06 0 7.38407e-06 -1.55766e-06 0 6.72073e-06 -1.80727e-06 0 6.12626e-06 -1.93876e-06 0 5.58829e-06 -1.98887e-06 0 5.09774e-06 -1.9799e-06 0 4.64808e-06 -1.93785e-06 0 4.2343e-06 -1.87197e-06 0 3.85231e-06 -1.79262e-06 0 3.4988e-06 -1.70674e-06 0 3.17092e-06 -1.61825e-06 0 2.86611e-06 -1.53063e-06 0 2.58216e-06 -1.44594e-06 0 2.31695e-06 -1.36603e-06 0 2.0686e-06 -1.29117e-06 0 1.83533e-06 -1.22268e-06 0 1.61544e-06 -1.16059e-06 0 1.40738e-06 -1.10462e-06 0 1.20963e-06 -1.05613e-06 0 1.02075e-06 -1.01387e-06 0 8.39388e-07 -9.78171e-07 0 6.64198e-07 -9.49469e-07 0 4.93903e-07 -9.268e-07 0 3.27263e-07 -9.10951e-07 0 1.63025e-07 -9.0147e-07 0 0 -8.97891e-07 0 -3.24527e-07 3.25655e-05 0 1.2472e-05 1.29658e-05 0 1.1582e-05 6.23876e-06 0 1.05074e-05 2.95753e-06 0 9.54574e-06 1.04951e-06 0 8.69851e-06 -1.29872e-07 0 7.94578e-06 -8.72095e-07 0 7.26956e-06 -1.33324e-06 0 6.65617e-06 -1.60516e-06 0 6.09547e-06 -1.75514e-06 0 5.5802e-06 -1.82097e-06 0 5.10476e-06 -1.8255e-06 0 4.66489e-06 -1.79548e-06 0 4.25716e-06 -1.7403e-06 0 3.87861e-06 -1.67059e-06 0 3.5267e-06 -1.5935e-06 0 3.19914e-06 -1.51288e-06 0 2.89376e-06 -1.43246e-06 0 2.60864e-06 -1.3543e-06 0 2.34186e-06 -1.28024e-06 0 2.09167e-06 -1.21068e-06 0 1.8564e-06 -1.14689e-06 0 1.63442e-06 -1.08899e-06 0 1.42421e-06 -1.03673e-06 0 1.22431e-06 -9.91401e-07 0 1.03328e-06 -9.51871e-07 0 8.49789e-07 -9.18467e-07 0 6.72486e-07 -8.91596e-07 0 5.00098e-07 -8.70367e-07 0 3.31382e-07 -8.55522e-07 0 1.65081e-07 -8.4664e-07 0 0 -8.43287e-07 0 -1.7853e-06 2.14683e-05 0 9.29063e-06 1.24773e-05 0 1.01351e-05 6.44527e-06 0 9.69507e-06 3.22754e-06 0 9.04897e-06 1.31096e-06 0 8.38528e-06 1.11826e-07 0 7.74826e-06 -6.50245e-07 0 7.14812e-06 -1.12923e-06 0 6.58579e-06 -1.41686e-06 0 6.05966e-06 -1.58084e-06 0 5.5677e-06 -1.65929e-06 0 5.10784e-06 -1.67522e-06 0 4.67814e-06 -1.65573e-06 0 4.27679e-06 -1.61021e-06 0 3.90195e-06 -1.5494e-06 0 3.5519e-06 -1.48058e-06 0 3.22489e-06 -1.4075e-06 0 2.91917e-06 -1.33402e-06 0 2.63308e-06 -1.26222e-06 0 2.36492e-06 -1.1939e-06 0 2.11308e-06 -1.12957e-06 0 1.87599e-06 -1.07045e-06 0 1.65209e-06 -1.0167e-06 0 1.43991e-06 -9.68138e-07 0 1.23801e-06 -9.25978e-07 0 1.04498e-06 -8.89186e-07 0 8.59503e-07 -8.58079e-07 0 6.80228e-07 -8.33045e-07 0 5.05886e-07 -8.13263e-07 0 3.35231e-07 -7.99426e-07 0 1.67003e-07 -7.91146e-07 0 0 -7.8802e-07 0 -1.72081e-06 1.58164e-05 0 6.88349e-06 1.12896e-05 0 8.78864e-06 6.36437e-06 0 8.90043e-06 3.36088e-06 0 8.5531e-06 1.49557e-06 0 8.06881e-06 3.06016e-07 0 7.54656e-06 -4.59303e-07 0 7.02246e-06 -9.4587e-07 0 6.51138e-06 -1.24256e-06 0 6.02006e-06 -1.41602e-06 0 5.55164e-06 -1.50396e-06 0 5.10757e-06 -1.52918e-06 0 4.68824e-06 -1.5187e-06 0 4.29346e-06 -1.48179e-06 0 3.92255e-06 -1.42915e-06 0 3.57455e-06 -1.36806e-06 0 3.24828e-06 -1.30217e-06 0 2.9424e-06 -1.23538e-06 0 2.65553e-06 -1.16977e-06 0 2.38617e-06 -1.10708e-06 0 2.13285e-06 -1.0479e-06 0 1.89411e-06 -9.93408e-07 0 1.66845e-06 -9.4379e-07 0 1.45446e-06 -8.98913e-07 0 1.25072e-06 -8.59915e-07 0 1.05585e-06 -8.25861e-07 0 8.68527e-07 -7.97055e-07 0 6.87423e-07 -7.73864e-07 0 5.11267e-07 -7.55532e-07 0 3.3881e-07 -7.42708e-07 0 1.6879e-07 -7.35033e-07 0 0 -7.32135e-07 0 -1.44538e-06 1.23754e-05 0 5.20821e-06 9.89973e-06 0 7.60345e-06 6.06678e-06 0 8.14953e-06 3.37207e-06 0 8.07066e-06 1.60732e-06 0 7.75602e-06 4.53968e-07 0 7.34488e-06 -2.98835e-07 0 6.89528e-06 -7.83014e-07 0 6.43474e-06 -1.08223e-06 0 5.9779e-06 -1.26069e-06 0 5.53286e-06 -1.35501e-06 0 5.10454e-06 -1.38742e-06 0 4.69562e-06 -1.38442e-06 0 4.30748e-06 -1.35508e-06 0 3.9406e-06 -1.30989e-06 0 3.59478e-06 -1.25601e-06 0 3.2694e-06 -1.19694e-06 0 2.96352e-06 -1.13661e-06 0 2.67603e-06 -1.07701e-06 0 2.40564e-06 -1.01984e-06 0 2.15102e-06 -9.65743e-07 0 1.91079e-06 -9.15824e-07 0 1.68353e-06 -8.70309e-07 0 1.46788e-06 -8.29102e-07 0 1.26245e-06 -7.9326e-07 0 1.06588e-06 -7.61945e-07 0 8.76859e-07 -7.35443e-07 0 6.94069e-07 -7.14099e-07 0 5.16238e-07 -6.97223e-07 0 3.42117e-07 -6.85414e-07 0 1.70442e-07 -6.78346e-07 0 0 -6.75678e-07 0 -1.19616e-06 1.00078e-05 0 4.06713e-06 8.55144e-06 0 6.60156e-06 5.62673e-06 0 7.4611e-06 3.28075e-06 0 7.61239e-06 1.65255e-06 0 7.45325e-06 5.58101e-07 0 7.14721e-06 -1.67788e-07 0 6.76919e-06 -6.40146e-07 0 6.35764e-06 -9.35588e-07 0 5.93438e-06 -1.11468e-06 0 5.51221e-06 -1.21235e-06 0 5.09933e-06 -1.24988e-06 0 4.70067e-06 -1.2529e-06 0 4.31913e-06 -1.2301e-06 0 3.9563e-06 -1.19163e-06 0 3.61273e-06 -1.14445e-06 0 3.28834e-06 -1.09187e-06 0 2.98259e-06 -1.03774e-06 0 2.69463e-06 -9.83984e-07 0 2.42335e-06 -9.32227e-07 0 2.16757e-06 -8.83136e-07 0 1.92601e-06 -8.37749e-07 0 1.69731e-06 -7.9631e-07 0 1.48016e-06 -7.58757e-07 0 1.27319e-06 -7.26066e-07 0 1.07507e-06 -6.97488e-07 0 8.84497e-07 -6.73292e-07 0 7.00163e-07 -6.53797e-07 0 5.20797e-07 -6.3838e-07 0 3.45151e-07 -6.27591e-07 0 1.71956e-07 -6.21132e-07 0 0 -6.18693e-07 0 -1.00188e-06 8.23838e-06 0 3.28165e-06 7.32629e-06 0 5.77622e-06 5.10518e-06 0 6.84562e-06 3.10809e-06 0 7.18649e-06 1.63909e-06 0 7.16601e-06 6.21732e-07 0 6.95719e-06 -6.45679e-08 0 6.64667e-06 -5.16418e-07 0 6.28177e-06 -8.0214e-07 0 5.89068e-06 -9.77704e-07 0 5.4905e-06 -1.07581e-06 0 5.09253e-06 -1.11648e-06 0 4.70381e-06 -1.12408e-06 0 4.3287e-06 -1.10683e-06 0 3.96985e-06 -1.0744e-06 0 3.62854e-06 -1.03341e-06 0 3.30522e-06 -9.86977e-07 0 2.99969e-06 -9.38819e-07 0 2.71137e-06 -8.90748e-07 0 2.43935e-06 -8.44293e-07 0 2.18255e-06 -8.00134e-07 0 1.93981e-06 -7.59232e-07 0 1.70982e-06 -7.21842e-07 0 1.4913e-06 -6.87928e-07 0 1.28294e-06 -6.5838e-07 0 1.08342e-06 -6.32537e-07 0 8.91442e-07 -6.10647e-07 0 7.05706e-07 -5.93005e-07 0 5.24945e-07 -5.79051e-07 0 3.47911e-07 -5.69282e-07 0 1.73335e-07 -5.63435e-07 0 0 -5.61226e-07 0 -8.55063e-07 6.83632e-06 0 2.73026e-06 6.23491e-06 0 5.10758e-06 4.54509e-06 0 6.30713e-06 2.87393e-06 0 6.79885e-06 1.57543e-06 0 6.89886e-06 6.48804e-07 0 6.7781e-06 1.28539e-08 0 6.52999e-06 -4.10683e-07 0 6.20873e-06 -6.81192e-07 0 5.84791e-06 -8.49326e-07 0 5.46851e-06 -9.45104e-07 0 5.08468e-06 -9.87039e-07 0 4.70541e-06 -9.97862e-07 0 4.33645e-06 -9.85217e-07 0 3.98144e-06 -9.58157e-07 0 3.64235e-06 -9.22895e-07 0 3.32011e-06 -8.82296e-07 0 3.01488e-06 -8.39881e-07 0 2.7263e-06 -7.97338e-07 0 2.45365e-06 -7.56082e-07 0 2.19598e-06 -7.16784e-07 0 1.95218e-06 -6.80325e-07 0 1.72105e-06 -6.46955e-07 0 1.50132e-06 -6.16663e-07 0 1.29172e-06 -5.90252e-07 0 1.09093e-06 -5.67141e-07 0 8.97694e-07 -5.47559e-07 0 7.10697e-07 -5.31771e-07 0 5.2868e-07 -5.1928e-07 0 3.50397e-07 -5.10536e-07 0 1.74576e-07 -5.053e-07 0 0 -5.03323e-07 0 -7.44821e-07 5.67586e-06 0 2.33649e-06 5.26315e-06 0 4.57329e-06 3.97348e-06 0 5.84592e-06 2.59523e-06 0 6.45376e-06 1.46999e-06 0 6.65581e-06 6.43617e-07 0 6.61296e-06 6.68422e-08 0 6.42133e-06 -3.21543e-07 0 6.14004e-06 -5.71868e-07 0 5.80714e-06 -7.28984e-07 0 5.44699e-06 -8.19879e-07 0 5.07629e-06 -8.61318e-07 0 4.70583e-06 -8.74094e-07 0 4.34262e-06 -8.65179e-07 0 3.99124e-06 -8.42876e-07 0 3.65427e-06 -8.12896e-07 0 3.33309e-06 -7.77833e-07 0 3.02819e-06 -7.40949e-07 0 2.73944e-06 -7.03787e-07 0 2.46626e-06 -6.67634e-07 0 2.20784e-06 -6.33132e-07 0 1.96314e-06 -6.01072e-07 0 1.73099e-06 -5.71697e-07 0 1.5102e-06 -5.45012e-07 0 1.2995e-06 -5.2173e-07 0 1.0976e-06 -5.01348e-07 0 9.03243e-07 -4.84072e-07 0 7.15127e-07 -4.7014e-07 0 5.31997e-07 -4.59116e-07 0 3.52604e-07 -4.51397e-07 0 1.75679e-07 -4.46775e-07 0 0 -4.45029e-07 0 -6.61214e-07 4.6821e-06 0 2.04815e-06 4.39078e-06 0 4.14779e-06 3.40567e-06 0 5.45662e-06 2.28552e-06 0 6.15214e-06 1.33065e-06 0 6.43901e-06 6.10595e-07 0 6.4638e-06 9.99927e-08 0 6.32232e-06 -2.47396e-07 0 6.07693e-06 -4.73133e-07 0 5.76926e-06 -6.15999e-07 0 5.42658e-06 -6.99687e-07 0 5.06784e-06 -7.39028e-07 0 4.70542e-06 -7.52595e-07 0 4.34749e-06 -7.46604e-07 0 3.99944e-06 -7.28493e-07 0 3.66444e-06 -7.03387e-07 0 3.34428e-06 -6.73588e-07 0 3.03973e-06 -6.42042e-07 0 2.75086e-06 -6.10126e-07 0 2.47726e-06 -5.78987e-07 0 2.2182e-06 -5.49219e-07 0 1.97271e-06 -5.21519e-07 0 1.7397e-06 -4.96116e-07 0 1.51798e-06 -4.73022e-07 0 1.30632e-06 -4.52861e-07 0 1.10344e-06 -4.35206e-07 0 9.08106e-07 -4.20236e-07 0 7.19011e-07 -4.0816e-07 0 5.34904e-07 -3.98604e-07 0 3.5454e-07 -3.91911e-07 0 1.76646e-07 -3.87904e-07 0 0 -3.8639e-07 0 -5.98061e-07 3.80697e-06 0 1.83603e-06 3.59808e-06 0 3.81365e-06 2.8492e-06 0 5.13537e-06 1.95501e-06 0 5.89524e-06 1.16443e-06 0 6.2508e-06 5.54109e-07 0 6.33278e-06 1.15045e-07 0 6.23462e-06 -1.86474e-07 0 6.02061e-06 -3.8382e-07 0 5.73516e-06 -5.09592e-07 0 5.40791e-06 -5.8401e-07 0 5.05975e-06 -6.19822e-07 0 4.70447e-06 -6.33142e-07 0 4.35124e-06 -6.29353e-07 0 4.00618e-06 -6.14928e-07 0 3.67295e-06 -5.94332e-07 0 3.35372e-06 -5.69552e-07 0 3.04952e-06 -5.43169e-07 0 2.76058e-06 -5.16379e-07 0 2.48664e-06 -4.90174e-07 0 2.22704e-06 -4.65085e-07 0 1.9809e-06 -4.4171e-07 0 1.74714e-06 -4.20255e-07 0 1.52464e-06 -4.0074e-07 0 1.31216e-06 -3.83694e-07 0 1.10845e-06 -3.68761e-07 0 9.12275e-07 -3.56096e-07 0 7.22341e-07 -3.45878e-07 0 5.37398e-07 -3.3779e-07 0 3.562e-07 -3.32126e-07 0 1.77475e-07 -3.28733e-07 0 0 -3.27452e-07 0 -5.50668e-07 3.01766e-06 0 1.67991e-06 2.86775e-06 0 3.55541e-06 2.30672e-06 0 4.87689e-06 1.61109e-06 0 5.68286e-06 9.77423e-07 0 6.09256e-06 4.78362e-07 0 6.22145e-06 1.14809e-07 0 6.15956e-06 -1.36893e-07 0 5.97212e-06 -3.02648e-07 0 5.70557e-06 -4.08897e-07 0 5.3915e-06 -4.72266e-07 0 5.05241e-06 -5.03309e-07 0 4.70326e-06 -5.15478e-07 0 4.35406e-06 -5.13265e-07 0 4.01158e-06 -5.02085e-07 0 3.6799e-06 -4.85682e-07 0 3.36149e-06 -4.65709e-07 0 3.0576e-06 -4.44337e-07 0 2.76864e-06 -4.22567e-07 0 2.49443e-06 -4.01226e-07 0 2.23439e-06 -3.80767e-07 0 1.98771e-06 -3.61687e-07 0 1.75334e-06 -3.44161e-07 0 1.53018e-06 -3.28212e-07 0 1.31702e-06 -3.14274e-07 0 1.11262e-06 -3.02061e-07 0 9.15749e-07 -2.917e-07 0 7.25117e-07 -2.8334e-07 0 5.39476e-07 -2.76722e-07 0 3.57584e-07 -2.72086e-07 0 1.78167e-07 -2.6931e-07 0 0 -2.68261e-07 0 -5.15812e-07 2.2904e-06 0 1.56672e-06 2.18496e-06 0 3.36127e-06 1.77797e-06 0 4.67634e-06 1.25886e-06 0 5.51435e-06 7.74795e-07 0 5.96519e-06 3.8732e-07 0 6.13104e-06 1.02117e-07 0 6.09823e-06 -9.66764e-08 0 5.93229e-06 -2.28248e-07 0 5.68112e-06 -3.12972e-07 0 5.37781e-06 -3.63815e-07 0 5.04614e-06 -3.89055e-07 0 4.702e-06 -3.9932e-07 0 4.35612e-06 -3.98156e-07 0 4.01576e-06 -3.89853e-07 0 3.68536e-06 -3.77377e-07 0 3.36764e-06 -3.62032e-07 0 3.06403e-06 -3.45546e-07 0 2.77506e-06 -3.28708e-07 0 2.50064e-06 -3.12171e-07 0 2.24026e-06 -2.96302e-07 0 1.99315e-06 -2.8149e-07 0 1.7583e-06 -2.67877e-07 0 1.53462e-06 -2.55483e-07 0 1.32092e-06 -2.44648e-07 0 1.11596e-06 -2.35152e-07 0 9.1853e-07 -2.27095e-07 0 7.27338e-07 -2.20592e-07 0 5.4114e-07 -2.15444e-07 0 3.58692e-07 -2.11838e-07 0 1.7872e-07 -2.09678e-07 0 0 -2.08863e-07 0 -4.91295e-07 1.60708e-06 0 1.48791e-06 1.53707e-06 0 3.22256e-06 1.261e-06 0 4.5296e-06 9.01741e-07 0 5.38887e-06 5.609e-07 0 5.86927e-06 2.84703e-07 0 6.06245e-06 7.97853e-08 0 6.05147e-06 -6.37915e-08 0 5.9018e-06 -1.59183e-07 0 5.66232e-06 -2.20819e-07 0 5.36721e-06 -2.57973e-07 0 5.04119e-06 -2.76593e-07 0 4.7009e-06 -2.84358e-07 0 4.35755e-06 -2.83828e-07 0 4.01882e-06 -2.78109e-07 0 3.6894e-06 -2.69351e-07 0 3.37221e-06 -2.58493e-07 0 3.06882e-06 -2.4679e-07 0 2.77985e-06 -2.34813e-07 0 2.50528e-06 -2.23036e-07 0 2.24466e-06 -2.11724e-07 0 1.99723e-06 -2.01159e-07 0 1.76201e-06 -1.91445e-07 0 1.53794e-06 -1.82598e-07 0 1.32383e-06 -1.74863e-07 0 1.11847e-06 -1.68081e-07 0 9.20616e-07 -1.62327e-07 0 7.29006e-07 -1.57682e-07 0 5.42389e-07 -1.54005e-07 0 3.59524e-07 -1.51428e-07 0 1.79135e-07 -1.49885e-07 0 0 -1.49303e-07 0 -4.75662e-07 9.53056e-07 0 1.438e-06 9.13003e-07 0 3.13317e-06 7.52934e-07 0 4.43346e-06 5.41915e-07 0 5.30563e-06 3.39434e-07 0 5.80511e-06 1.74002e-07 0 6.01633e-06 5.06014e-08 0 6.01992e-06 -3.61656e-08 0 5.88116e-06 -9.39623e-08 0 5.64956e-06 -1.31392e-07 0 5.35998e-06 -1.54021e-07 0 5.03778e-06 -1.6543e-07 0 4.70007e-06 -1.70263e-07 0 4.35845e-06 -1.70067e-07 0 4.02082e-06 -1.66721e-07 0 3.69207e-06 -1.61528e-07 0 3.37525e-06 -1.55054e-07 0 3.07201e-06 -1.48062e-07 0 2.78304e-06 -1.40897e-07 0 2.50838e-06 -1.33844e-07 0 2.24759e-06 -1.27066e-07 0 1.99995e-06 -1.20733e-07 0 1.76449e-06 -1.14909e-07 0 1.54016e-06 -1.09603e-07 0 1.32578e-06 -1.04963e-07 0 1.12014e-06 -1.00895e-07 0 9.22009e-07 -9.74427e-08 0 7.30119e-07 -9.46558e-08 0 5.43223e-07 -9.24492e-08 0 3.60079e-07 -9.09033e-08 0 1.79413e-07 -8.99774e-08 0 0 -8.96277e-08 0 -4.68029e-07 3.15857e-07 0 1.41373e-06 3.02816e-07 0 3.08926e-06 2.50359e-07 0 4.38576e-06 1.80769e-07 0 5.26402e-06 1.13617e-07 0 5.77287e-06 5.85269e-08 0 5.99308e-06 1.73214e-08 0 6.00398e-06 -1.17032e-08 0 5.87071e-06 -3.10621e-08 0 5.64308e-06 -4.36135e-08 0 5.3563e-06 -5.12126e-08 0 5.03603e-06 -5.50556e-08 0 4.69964e-06 -5.66957e-08 0 4.35888e-06 -5.66505e-08 0 4.02181e-06 -5.55495e-08 0 3.6934e-06 -5.38286e-08 0 3.37676e-06 -5.16777e-08 0 3.0736e-06 -4.93519e-08 0 2.78464e-06 -4.69669e-08 0 2.50993e-06 -4.46182e-08 0 2.24906e-06 -4.23607e-08 0 2.00131e-06 -4.02507e-08 0 1.76573e-06 -3.83099e-08 0 1.54127e-06 -3.65418e-08 0 1.32676e-06 -3.49953e-08 0 1.12098e-06 -3.36394e-08 0 9.22708e-07 -3.24886e-08 0 7.30677e-07 -3.15597e-08 0 5.43641e-07 -3.08241e-08 0 3.60357e-07 -3.03088e-08 0 1.79552e-07 -3.00002e-08 0 0 -2.98836e-08 0 -4.68029e-07 -3.15857e-07 0 1.41373e-06 -3.02816e-07 0 3.08926e-06 -2.50359e-07 0 4.38576e-06 -1.80769e-07 0 5.26402e-06 -1.13617e-07 0 5.77287e-06 -5.85269e-08 0 5.99308e-06 -1.73214e-08 0 6.00398e-06 1.17032e-08 0 5.87071e-06 3.10621e-08 0 5.64308e-06 4.36135e-08 0 5.3563e-06 5.12126e-08 0 5.03603e-06 5.50556e-08 0 4.69964e-06 5.66957e-08 0 4.35888e-06 5.66505e-08 0 4.02181e-06 5.55495e-08 0 3.6934e-06 5.38286e-08 0 3.37676e-06 5.16777e-08 0 3.0736e-06 4.93519e-08 0 2.78464e-06 4.69669e-08 0 2.50993e-06 4.46182e-08 0 2.24906e-06 4.23607e-08 0 2.00131e-06 4.02507e-08 0 1.76573e-06 3.83099e-08 0 1.54127e-06 3.65418e-08 0 1.32676e-06 3.49953e-08 0 1.12098e-06 3.36394e-08 0 9.22708e-07 3.24886e-08 0 7.30677e-07 3.15597e-08 0 5.43641e-07 3.08241e-08 0 3.60357e-07 3.03088e-08 0 1.79552e-07 3.00002e-08 0 0 2.98836e-08 0 -4.75662e-07 -9.53056e-07 0 1.438e-06 -9.13003e-07 0 3.13317e-06 -7.52934e-07 0 4.43346e-06 -5.41915e-07 0 5.30563e-06 -3.39434e-07 0 5.80511e-06 -1.74002e-07 0 6.01633e-06 -5.06014e-08 0 6.01992e-06 3.61656e-08 0 5.88116e-06 9.39623e-08 0 5.64956e-06 1.31392e-07 0 5.35998e-06 1.54021e-07 0 5.03778e-06 1.6543e-07 0 4.70007e-06 1.70263e-07 0 4.35845e-06 1.70067e-07 0 4.02082e-06 1.66721e-07 0 3.69207e-06 1.61528e-07 0 3.37525e-06 1.55054e-07 0 3.07201e-06 1.48062e-07 0 2.78304e-06 1.40897e-07 0 2.50838e-06 1.33844e-07 0 2.24759e-06 1.27066e-07 0 1.99995e-06 1.20733e-07 0 1.76449e-06 1.14909e-07 0 1.54016e-06 1.09603e-07 0 1.32578e-06 1.04963e-07 0 1.12014e-06 1.00895e-07 0 9.22009e-07 9.74427e-08 0 7.30119e-07 9.46558e-08 0 5.43223e-07 9.24492e-08 0 3.60079e-07 9.09033e-08 0 1.79413e-07 8.99774e-08 0 0 8.96277e-08 0 -4.91295e-07 -1.60708e-06 0 1.48791e-06 -1.53707e-06 0 3.22256e-06 -1.261e-06 0 4.5296e-06 -9.01741e-07 0 5.38887e-06 -5.609e-07 0 5.86927e-06 -2.84703e-07 0 6.06245e-06 -7.97853e-08 0 6.05147e-06 6.37915e-08 0 5.9018e-06 1.59183e-07 0 5.66232e-06 2.20819e-07 0 5.36721e-06 2.57973e-07 0 5.04119e-06 2.76593e-07 0 4.7009e-06 2.84358e-07 0 4.35755e-06 2.83828e-07 0 4.01882e-06 2.78109e-07 0 3.6894e-06 2.69351e-07 0 3.37221e-06 2.58493e-07 0 3.06882e-06 2.4679e-07 0 2.77985e-06 2.34813e-07 0 2.50528e-06 2.23036e-07 0 2.24466e-06 2.11724e-07 0 1.99723e-06 2.01159e-07 0 1.76201e-06 1.91445e-07 0 1.53794e-06 1.82598e-07 0 1.32383e-06 1.74863e-07 0 1.11847e-06 1.68081e-07 0 9.20616e-07 1.62327e-07 0 7.29006e-07 1.57682e-07 0 5.42389e-07 1.54005e-07 0 3.59524e-07 1.51428e-07 0 1.79135e-07 1.49885e-07 0 0 1.49303e-07 0 -5.15812e-07 -2.2904e-06 0 1.56672e-06 -2.18496e-06 0 3.36127e-06 -1.77797e-06 0 4.67634e-06 -1.25886e-06 0 5.51435e-06 -7.74795e-07 0 5.96519e-06 -3.8732e-07 0 6.13104e-06 -1.02117e-07 0 6.09823e-06 9.66764e-08 0 5.93229e-06 2.28248e-07 0 5.68112e-06 3.12972e-07 0 5.37781e-06 3.63815e-07 0 5.04614e-06 3.89055e-07 0 4.702e-06 3.9932e-07 0 4.35612e-06 3.98156e-07 0 4.01576e-06 3.89853e-07 0 3.68536e-06 3.77377e-07 0 3.36764e-06 3.62032e-07 0 3.06403e-06 3.45546e-07 0 2.77506e-06 3.28708e-07 0 2.50064e-06 3.12171e-07 0 2.24026e-06 2.96302e-07 0 1.99315e-06 2.8149e-07 0 1.7583e-06 2.67877e-07 0 1.53462e-06 2.55483e-07 0 1.32092e-06 2.44648e-07 0 1.11596e-06 2.35152e-07 0 9.1853e-07 2.27095e-07 0 7.27338e-07 2.20592e-07 0 5.4114e-07 2.15444e-07 0 3.58692e-07 2.11838e-07 0 1.7872e-07 2.09678e-07 0 0 2.08863e-07 0 -5.50668e-07 -3.01766e-06 0 1.67991e-06 -2.86775e-06 0 3.55541e-06 -2.30672e-06 0 4.87689e-06 -1.61109e-06 0 5.68286e-06 -9.77423e-07 0 6.09256e-06 -4.78362e-07 0 6.22145e-06 -1.14809e-07 0 6.15956e-06 1.36893e-07 0 5.97212e-06 3.02648e-07 0 5.70557e-06 4.08897e-07 0 5.3915e-06 4.72266e-07 0 5.05241e-06 5.03309e-07 0 4.70326e-06 5.15478e-07 0 4.35406e-06 5.13265e-07 0 4.01158e-06 5.02085e-07 0 3.6799e-06 4.85682e-07 0 3.36149e-06 4.65709e-07 0 3.0576e-06 4.44337e-07 0 2.76864e-06 4.22567e-07 0 2.49443e-06 4.01226e-07 0 2.23439e-06 3.80767e-07 0 1.98771e-06 3.61687e-07 0 1.75334e-06 3.44161e-07 0 1.53018e-06 3.28212e-07 0 1.31702e-06 3.14274e-07 0 1.11262e-06 3.02061e-07 0 9.15749e-07 2.917e-07 0 7.25117e-07 2.8334e-07 0 5.39476e-07 2.76722e-07 0 3.57584e-07 2.72086e-07 0 1.78167e-07 2.6931e-07 0 0 2.68261e-07 0 -5.98061e-07 -3.80697e-06 0 1.83603e-06 -3.59808e-06 0 3.81365e-06 -2.8492e-06 0 5.13537e-06 -1.95501e-06 0 5.89524e-06 -1.16443e-06 0 6.2508e-06 -5.54109e-07 0 6.33278e-06 -1.15045e-07 0 6.23462e-06 1.86474e-07 0 6.02061e-06 3.8382e-07 0 5.73516e-06 5.09592e-07 0 5.40791e-06 5.8401e-07 0 5.05975e-06 6.19822e-07 0 4.70447e-06 6.33142e-07 0 4.35124e-06 6.29353e-07 0 4.00618e-06 6.14928e-07 0 3.67295e-06 5.94332e-07 0 3.35372e-06 5.69552e-07 0 3.04952e-06 5.43169e-07 0 2.76058e-06 5.16379e-07 0 2.48664e-06 4.90174e-07 0 2.22704e-06 4.65085e-07 0 1.9809e-06 4.4171e-07 0 1.74714e-06 4.20255e-07 0 1.52464e-06 4.0074e-07 0 1.31216e-06 3.83694e-07 0 1.10845e-06 3.68761e-07 0 9.12275e-07 3.56096e-07 0 7.22341e-07 3.45878e-07 0 5.37398e-07 3.3779e-07 0 3.562e-07 3.32126e-07 0 1.77475e-07 3.28733e-07 0 0 3.27452e-07 0 -6.61214e-07 -4.6821e-06 0 2.04815e-06 -4.39078e-06 0 4.14779e-06 -3.40567e-06 0 5.45662e-06 -2.28552e-06 0 6.15214e-06 -1.33065e-06 0 6.43901e-06 -6.10595e-07 0 6.4638e-06 -9.99927e-08 0 6.32232e-06 2.47396e-07 0 6.07693e-06 4.73133e-07 0 5.76926e-06 6.15999e-07 0 5.42658e-06 6.99687e-07 0 5.06784e-06 7.39028e-07 0 4.70542e-06 7.52595e-07 0 4.34749e-06 7.46604e-07 0 3.99944e-06 7.28493e-07 0 3.66444e-06 7.03387e-07 0 3.34428e-06 6.73588e-07 0 3.03973e-06 6.42042e-07 0 2.75086e-06 6.10126e-07 0 2.47726e-06 5.78987e-07 0 2.2182e-06 5.49219e-07 0 1.97271e-06 5.21519e-07 0 1.7397e-06 4.96116e-07 0 1.51798e-06 4.73022e-07 0 1.30632e-06 4.52861e-07 0 1.10344e-06 4.35206e-07 0 9.08106e-07 4.20236e-07 0 7.19011e-07 4.0816e-07 0 5.34904e-07 3.98604e-07 0 3.5454e-07 3.91911e-07 0 1.76646e-07 3.87904e-07 0 0 3.8639e-07 0 -7.44821e-07 -5.67586e-06 0 2.33649e-06 -5.26315e-06 0 4.57329e-06 -3.97348e-06 0 5.84592e-06 -2.59523e-06 0 6.45376e-06 -1.46999e-06 0 6.65581e-06 -6.43617e-07 0 6.61296e-06 -6.68422e-08 0 6.42133e-06 3.21543e-07 0 6.14004e-06 5.71868e-07 0 5.80714e-06 7.28984e-07 0 5.44699e-06 8.19879e-07 0 5.07629e-06 8.61318e-07 0 4.70583e-06 8.74094e-07 0 4.34262e-06 8.65179e-07 0 3.99124e-06 8.42876e-07 0 3.65427e-06 8.12896e-07 0 3.33309e-06 7.77833e-07 0 3.02819e-06 7.40949e-07 0 2.73944e-06 7.03787e-07 0 2.46626e-06 6.67634e-07 0 2.20784e-06 6.33132e-07 0 1.96314e-06 6.01072e-07 0 1.73099e-06 5.71697e-07 0 1.5102e-06 5.45012e-07 0 1.2995e-06 5.2173e-07 0 1.0976e-06 5.01348e-07 0 9.03243e-07 4.84072e-07 0 7.15127e-07 4.7014e-07 0 5.31997e-07 4.59116e-07 0 3.52604e-07 4.51397e-07 0 1.75679e-07 4.46775e-07 0 0 4.45029e-07 0 -8.55063e-07 -6.83632e-06 0 2.73026e-06 -6.23491e-06 0 5.10758e-06 -4.54509e-06 0 6.30713e-06 -2.87393e-06 0 6.79885e-06 -1.57543e-06 0 6.89886e-06 -6.48804e-07 0 6.7781e-06 -1.28539e-08 0 6.52999e-06 4.10683e-07 0 6.20873e-06 6.81192e-07 0 5.84791e-06 8.49326e-07 0 5.46851e-06 9.45104e-07 0 5.08468e-06 9.87039e-07 0 4.70541e-06 9.97862e-07 0 4.33645e-06 9.85217e-07 0 3.98144e-06 9.58157e-07 0 3.64235e-06 9.22895e-07 0 3.32011e-06 8.82296e-07 0 3.01488e-06 8.39881e-07 0 2.7263e-06 7.97338e-07 0 2.45365e-06 7.56082e-07 0 2.19598e-06 7.16784e-07 0 1.95218e-06 6.80325e-07 0 1.72105e-06 6.46955e-07 0 1.50132e-06 6.16663e-07 0 1.29172e-06 5.90252e-07 0 1.09093e-06 5.67141e-07 0 8.97694e-07 5.47559e-07 0 7.10697e-07 5.31771e-07 0 5.2868e-07 5.1928e-07 0 3.50397e-07 5.10536e-07 0 1.74576e-07 5.053e-07 0 0 5.03323e-07 0 -1.00188e-06 -8.23838e-06 0 3.28165e-06 -7.32629e-06 0 5.77622e-06 -5.10518e-06 0 6.84562e-06 -3.10809e-06 0 7.18649e-06 -1.63909e-06 0 7.16601e-06 -6.21732e-07 0 6.95719e-06 6.45679e-08 0 6.64667e-06 5.16418e-07 0 6.28177e-06 8.0214e-07 0 5.89068e-06 9.77704e-07 0 5.4905e-06 1.07581e-06 0 5.09253e-06 1.11648e-06 0 4.70381e-06 1.12408e-06 0 4.3287e-06 1.10683e-06 0 3.96985e-06 1.0744e-06 0 3.62854e-06 1.03341e-06 0 3.30522e-06 9.86977e-07 0 2.99969e-06 9.38819e-07 0 2.71137e-06 8.90748e-07 0 2.43935e-06 8.44293e-07 0 2.18255e-06 8.00134e-07 0 1.93981e-06 7.59232e-07 0 1.70982e-06 7.21842e-07 0 1.4913e-06 6.87928e-07 0 1.28294e-06 6.5838e-07 0 1.08342e-06 6.32537e-07 0 8.91442e-07 6.10647e-07 0 7.05706e-07 5.93005e-07 0 5.24945e-07 5.79051e-07 0 3.47911e-07 5.69282e-07 0 1.73335e-07 5.63435e-07 0 0 5.61226e-07 0 -1.19616e-06 -1.00078e-05 0 4.06713e-06 -8.55144e-06 0 6.60156e-06 -5.62673e-06 0 7.4611e-06 -3.28075e-06 0 7.61239e-06 -1.65255e-06 0 7.45325e-06 -5.58101e-07 0 7.14721e-06 1.67788e-07 0 6.76919e-06 6.40146e-07 0 6.35764e-06 9.35588e-07 0 5.93438e-06 1.11468e-06 0 5.51221e-06 1.21235e-06 0 5.09933e-06 1.24988e-06 0 4.70067e-06 1.2529e-06 0 4.31913e-06 1.2301e-06 0 3.9563e-06 1.19163e-06 0 3.61273e-06 1.14445e-06 0 3.28834e-06 1.09187e-06 0 2.98259e-06 1.03774e-06 0 2.69463e-06 9.83984e-07 0 2.42335e-06 9.32227e-07 0 2.16757e-06 8.83136e-07 0 1.92601e-06 8.37749e-07 0 1.69731e-06 7.9631e-07 0 1.48016e-06 7.58757e-07 0 1.27319e-06 7.26066e-07 0 1.07507e-06 6.97488e-07 0 8.84497e-07 6.73292e-07 0 7.00163e-07 6.53797e-07 0 5.20797e-07 6.3838e-07 0 3.45151e-07 6.27591e-07 0 1.71956e-07 6.21132e-07 0 0 6.18693e-07 0 -1.44538e-06 -1.23754e-05 0 5.20821e-06 -9.89973e-06 0 7.60345e-06 -6.06678e-06 0 8.14953e-06 -3.37207e-06 0 8.07066e-06 -1.60732e-06 0 7.75602e-06 -4.53968e-07 0 7.34488e-06 2.98835e-07 0 6.89528e-06 7.83014e-07 0 6.43474e-06 1.08223e-06 0 5.9779e-06 1.26069e-06 0 5.53286e-06 1.35501e-06 0 5.10454e-06 1.38742e-06 0 4.69562e-06 1.38442e-06 0 4.30748e-06 1.35508e-06 0 3.9406e-06 1.30989e-06 0 3.59478e-06 1.25601e-06 0 3.2694e-06 1.19694e-06 0 2.96352e-06 1.13661e-06 0 2.67603e-06 1.07701e-06 0 2.40564e-06 1.01984e-06 0 2.15102e-06 9.65743e-07 0 1.91079e-06 9.15824e-07 0 1.68353e-06 8.70309e-07 0 1.46788e-06 8.29102e-07 0 1.26245e-06 7.9326e-07 0 1.06588e-06 7.61945e-07 0 8.76859e-07 7.35443e-07 0 6.94069e-07 7.14099e-07 0 5.16238e-07 6.97223e-07 0 3.42117e-07 6.85414e-07 0 1.70442e-07 6.78346e-07 0 0 6.75678e-07 0 -1.72081e-06 -1.58164e-05 0 6.88349e-06 -1.12896e-05 0 8.78864e-06 -6.36437e-06 0 8.90043e-06 -3.36088e-06 0 8.5531e-06 -1.49557e-06 0 8.06881e-06 -3.06016e-07 0 7.54656e-06 4.59303e-07 0 7.02246e-06 9.4587e-07 0 6.51138e-06 1.24256e-06 0 6.02006e-06 1.41602e-06 0 5.55164e-06 1.50396e-06 0 5.10757e-06 1.52918e-06 0 4.68824e-06 1.5187e-06 0 4.29346e-06 1.48179e-06 0 3.92255e-06 1.42915e-06 0 3.57455e-06 1.36806e-06 0 3.24828e-06 1.30217e-06 0 2.9424e-06 1.23538e-06 0 2.65553e-06 1.16977e-06 0 2.38617e-06 1.10708e-06 0 2.13285e-06 1.0479e-06 0 1.89411e-06 9.93408e-07 0 1.66845e-06 9.4379e-07 0 1.45446e-06 8.98913e-07 0 1.25072e-06 8.59915e-07 0 1.05585e-06 8.25861e-07 0 8.68527e-07 7.97055e-07 0 6.87423e-07 7.73864e-07 0 5.11267e-07 7.55532e-07 0 3.3881e-07 7.42708e-07 0 1.6879e-07 7.35033e-07 0 0 7.32135e-07 0 -1.7853e-06 -2.14683e-05 0 9.29063e-06 -1.24773e-05 0 1.01351e-05 -6.44527e-06 0 9.69507e-06 -3.22754e-06 0 9.04897e-06 -1.31096e-06 0 8.38528e-06 -1.11826e-07 0 7.74826e-06 6.50245e-07 0 7.14812e-06 1.12923e-06 0 6.58579e-06 1.41686e-06 0 6.05966e-06 1.58084e-06 0 5.5677e-06 1.65929e-06 0 5.10784e-06 1.67522e-06 0 4.67814e-06 1.65573e-06 0 4.27679e-06 1.61021e-06 0 3.90195e-06 1.5494e-06 0 3.5519e-06 1.48058e-06 0 3.22489e-06 1.4075e-06 0 2.91917e-06 1.33402e-06 0 2.63308e-06 1.26222e-06 0 2.36492e-06 1.1939e-06 0 2.11308e-06 1.12957e-06 0 1.87599e-06 1.07045e-06 0 1.65209e-06 1.0167e-06 0 1.43991e-06 9.68138e-07 0 1.23801e-06 9.25978e-07 0 1.04498e-06 8.89186e-07 0 8.59503e-07 8.58079e-07 0 6.80228e-07 8.33045e-07 0 5.05886e-07 8.13263e-07 0 3.35231e-07 7.99426e-07 0 1.67003e-07 7.91146e-07 0 0 7.8802e-07 0 -3.24527e-07 -3.25655e-05 0 1.2472e-05 -1.29658e-05 0 1.1582e-05 -6.23876e-06 0 1.05074e-05 -2.95753e-06 0 9.54574e-06 -1.04951e-06 0 8.69851e-06 1.29872e-07 0 7.94578e-06 8.72095e-07 0 7.26956e-06 1.33324e-06 0 6.65617e-06 1.60516e-06 0 6.09547e-06 1.75514e-06 0 5.5802e-06 1.82097e-06 0 5.10476e-06 1.8255e-06 0 4.66489e-06 1.79548e-06 0 4.25716e-06 1.7403e-06 0 3.87861e-06 1.67059e-06 0 3.5267e-06 1.5935e-06 0 3.19914e-06 1.51288e-06 0 2.89376e-06 1.43246e-06 0 2.60864e-06 1.3543e-06 0 2.34186e-06 1.28024e-06 0 2.09167e-06 1.21068e-06 0 1.8564e-06 1.14689e-06 0 1.63442e-06 1.08899e-06 0 1.42421e-06 1.03673e-06 0 1.22431e-06 9.91401e-07 0 1.03328e-06 9.51871e-07 0 8.49789e-07 9.18467e-07 0 6.72486e-07 8.91596e-07 0 5.00098e-07 8.70367e-07 0 3.31382e-07 8.55522e-07 0 1.65081e-07 8.4664e-07 0 0 8.43287e-07 0 5.97203e-05 -4.69291e-05 0 1.59773e-05 -1.21912e-05 0 1.30311e-05 -5.70467e-06 0 1.13059e-05 -2.54504e-06 0 1.00297e-05 -7.10324e-07 0 9.0013e-06 4.19023e-07 0 8.13486e-06 1.12461e-06 0 7.38407e-06 1.55766e-06 0 6.72073e-06 1.80727e-06 0 6.12626e-06 1.93876e-06 0 5.58829e-06 1.98887e-06 0 5.09774e-06 1.9799e-06 0 4.64808e-06 1.93785e-06 0 4.2343e-06 1.87197e-06 0 3.85231e-06 1.79262e-06 0 3.4988e-06 1.70674e-06 0 3.17092e-06 1.61825e-06 0 2.86611e-06 1.53063e-06 0 2.58216e-06 1.44594e-06 0 2.31695e-06 1.36603e-06 0 2.0686e-06 1.29117e-06 0 1.83533e-06 1.22268e-06 0 1.61544e-06 1.16059e-06 0 1.40738e-06 1.10462e-06 0 1.20963e-06 1.05613e-06 0 1.02075e-06 1.01387e-06 0 8.39388e-07 9.78171e-07 0 6.64198e-07 9.49469e-07 0 4.93903e-07 9.268e-07 0 3.27263e-07 9.10951e-07 0 1.63025e-07 9.0147e-07 0 0 8.97891e-07 0 </DataArray> 
</PointData> 
<Points> 
<DataArray type="Float32" NumberOfComponents="3"> 