<?xml version="1.0"?> 
<VTKFile type="StructuredGrid" version="0.1"> 
<StructuredGrid WholeExtent="0 31 0 31 0 0"> 
<Piece Extent="0 31 0 31 0 0"> 
<PointData>
<DataArray type="Float32" Name="B" format="ascii" NumberOfComponents="3"> 
-1.82035e-05 1.20681e-06 0 1.09314e-05 3.72217e-06 0 9.08855e-06 1.49174e-06 0 7.88587e-06 1.90978e-07 0 6.98258e-06 -5.95739e-07 0 6.25391e-06 -1.07284e-06 0 5.6406e-06 -1.35361e-06 0 5.10979e-06 -1.50557e-06 0 4.64148e-06 -1.57094e-06 0 4.22257e-06 -1.58149e-06 0 3.84434e-06 -1.55545e-06 0 3.50038e-06 -1.50426e-06 0 3.18602e-06 -1.4402e-06 0 2.89762e-06 -1.36822e-06 0 2.63219e-06 -1.29312e-06 0 2.38729e-06 -1.2179e-06 0 2.1608e-06 -1.14489e-06 0 1.95081e-06 -1.07506e-06 0 1.75569e-06 -1.00935e-06 0 1.57388e-06 -9.48709e-07 0 1.40398e-06 -8.92736e-07 0 1.24473e-06 -8.42195e-07 0 1.09488e-06 -7.9685e-07 0 9.53308e-07 -7.56282e-07 0 8.18952e-07 -7.21393e-07 0 6.90783e-07 -6.91133e-07 0 5.67849e-07 -6.65685e-07 0 4.49205e-07 -6.45296e-07 0 3.3396e-07 -6.29232e-07 0 2.21249e-07 -6.18023e-07 0 1.10205e-07 -6.11326e-07 0 0 -6.08799e-07 0 1.40759e-05 1.24972e-05 0 9.87308e-06 4.43112e-06 0 8.50352e-06 1.91612e-06 0 7.53929e-06 5.03329e-07 0 6.77139e-06 -3.45394e-07 0 6.12642e-06 -8.62477e-07 0 5.56722e-06 -1.17149e-06 0 5.07211e-06 -1.34469e-06 0 4.62746e-06 -1.42676e-06 0 4.22416e-06 -1.45108e-06 0 3.85601e-06 -1.43672e-06 0 3.51834e-06 -1.39553e-06 0 3.20763e-06 -1.34036e-06 0 2.92107e-06 -1.27624e-06 0 2.65624e-06 -1.20819e-06 0 2.41109e-06 -1.13937e-06 0 2.18377e-06 -1.07206e-06 0 1.97259e-06 -1.0074e-06 0 1.77604e-06 -9.46362e-07 0 1.59266e-06 -8.89886e-07 0 1.42113e-06 -8.37672e-07 0 1.26021e-06 -7.90458e-07 0 1.10869e-06 -7.48055e-07 0 9.65475e-07 -7.1009e-07 0 8.29499e-07 -6.77418e-07 0 6.99743e-07 -6.49069e-07 0 5.75255e-07 -6.25218e-07 0 4.55088e-07 -6.06104e-07 0 3.38347e-07 -5.91041e-07 0 2.24162e-07 -5.80529e-07 0 1.11657e-07 -5.74247e-07 0 0 -5.71878e-07 0 8.56589e-06 1.16053e-05 0 8.67331e-06 4.87203e-06 0 7.8791e-06 2.22646e-06 0 7.17186e-06 7.55607e-07 0 6.54689e-06 -1.30806e-07 0 5.98957e-06 -6.74803e-07 0 5.48681e-06 -1.00422e-06 0 5.02887e-06 -1.19365e-06 0 4.60888e-06 -1.28912e-06 0 4.22188e-06 -1.32496e-06 0 3.86431e-06 -1.32071e-06 0 3.53331e-06 -1.28847e-06 0 3.22657e-06 -1.24145e-06 0 2.94211e-06 -1.18469e-06 0 2.67811e-06 -1.12334e-06 0 2.43291e-06 -1.06067e-06 0 2.20495e-06 -9.98908e-07 0 1.99275e-06 -9.39321e-07 0 1.79493e-06 -8.82895e-07 0 1.61014e-06 -8.3055e-07 0 1.43711e-06 -7.82077e-07 0 1.27465e-06 -7.38186e-07 0 1.12159e-06 -6.98727e-07 0 9.7684e-07 -6.63373e-07 0 8.39355e-07 -6.32926e-07 0 7.08119e-07 -6.06498e-07 0 5.82181e-07 -5.84256e-07 0 4.60591e-07 -5.66425e-07 0 3.42452e-07 -5.52371e-07 0 2.26888e-07 -5.42562e-07 0 1.13017e-07 -5.367e-07 0 0 -5.34488e-07 0 5.7691e-06 9.97666e-06 0 7.46644e-06 4.9876e-06 0 7.24468e-06 2.41741e-06 0 6.79523e-06 9.45725e-07 0 6.31489e-06 4.68722e-08 0 5.8467e-06 -5.10522e-07 0 5.40145e-06 -8.52258e-07 0 4.98145e-06 -1.05275e-06 0 4.58664e-06 -1.15823e-06 0 4.21634e-06 -1.20326e-06 0 3.86966e-06 -1.20754e-06 0 3.54559e-06 -1.18319e-06 0 3.24304e-06 -1.14354e-06 0 2.96088e-06 -1.09363e-06 0 2.69789e-06 -1.03864e-06 0 2.45281e-06 -9.81875e-07 0 2.22438e-06 -9.25502e-07 0 2.01132e-06 -8.70884e-07 0 1.81238e-06 -8.18999e-07 0 1.62631e-06 -7.70748e-07 0 1.45191e-06 -7.25996e-07 0 1.28804e-06 -6.8542e-07 0 1.13356e-06 -6.48905e-07 0 9.87398e-07 -6.16167e-07 0 8.48517e-07 -5.87955e-07 0 7.15908e-07 -5.63457e-07 0 5.88624e-07 -5.42832e-07 0 4.65712e-07 -5.26293e-07 0 3.46272e-07 -5.13255e-07 0 2.29424e-07 -5.04154e-07 0 1.14282e-07 -4.98714e-07 0 0 -4.96662e-07 0 4.19125e-06 8.43051e-06 0 6.38238e-06 4.8339e-06 0 6.6292e-06 2.49472e-06 0 6.42097e-06 1.07466e-06 0 6.08129e-06 1.87683e-07 0 5.70121e-06 -3.6977e-07 0 5.31327e-06 -7.15736e-07 0 4.93121e-06 -9.22114e-07 0 4.56169e-06 -1.03418e-06 0 4.20818e-06 -1.08608e-06 0 3.8725e-06 -1.09727e-06 0 3.55547e-06 -1.07972e-06 0 3.25725e-06 -1.0467e-06 0 2.97753e-06 -1.00312e-06 0 2.71568e-06 -9.54125e-07 0 2.47087e-06 -9.03027e-07 0 2.24211e-06 -8.51888e-07 0 2.02832e-06 -8.02133e-07 0 1.82839e-06 -7.54722e-07 0 1.64118e-06 -7.10526e-07 0 1.46555e-06 -6.69472e-07 0 1.3004e-06 -6.32201e-07 0 1.14461e-06 -5.9863e-07 0 9.97149e-07 -5.68511e-07 0 8.56982e-07 -5.42541e-07 0 7.23108e-07 -5.1998e-07 0 5.9458e-07 -5.0098e-07 0 4.70447e-07 -4.8574e-07 0 3.49805e-07 -4.73725e-07 0 2.3177e-07 -4.65336e-07 0 1.15452e-07 -4.60321e-07 0 0 -4.58429e-07 0 3.22456e-06 7.11303e-06 0 5.47511e-06 4.50901e-06 0 6.05602e-06 2.47321e-06 0 6.05962e-06 1.14614e-06 0 5.8517e-06 2.92795e-07 0 5.55643e-06 -2.52123e-07 0 5.22436e-06 -5.94487e-07 0 4.87955e-06 -8.01659e-07 0 4.53493e-06 -9.16941e-07 0 4.19803e-06 -9.73391e-07 0 3.87326e-06 -9.89911e-07 0 3.56326e-06 -9.78112e-07 0 3.26939e-06 -9.50957e-07 0 2.99217e-06 -9.13196e-07 0 2.73157e-06 -8.69853e-07 0 2.48713e-06 -8.24173e-07 0 2.25816e-06 -7.7811e-07 0 2.04377e-06 -7.33113e-07 0 1.84299e-06 -6.90107e-07 0 1.65476e-06 -6.49925e-07 0 1.47802e-06 -6.12546e-07 0 1.3117e-06 -5.7857e-07 0 1.15473e-06 -5.4794e-07 0 1.00609e-06 -5.20442e-07 0 8.64746e-07 -4.96719e-07 0 7.29714e-07 -4.76102e-07 0 6.00047e-07 -4.58734e-07 0 4.74793e-07 -4.44801e-07 0 3.53048e-07 -4.33813e-07 0 2.33925e-07 -4.2614e-07 0 1.16527e-07 -4.21554e-07 0 0 -4.19824e-07 0 2.59241e-06 6.00414e-06 0 4.74219e-06 4.09358e-06 0 5.53977e-06 2.37221e-06 0 5.71979e-06 1.16593e-06 0 5.63118e-06 3.64336e-07 0 5.41551e-06 -1.56652e-07 0 5.13677e-06 -4.88045e-07 0 4.82782e-06 -6.91131e-07 0 4.50729e-06 -8.0637e-07 0 4.1865e-06 -8.65125e-07 0 3.87236e-06 -8.85421e-07 0 3.56925e-06 -8.78336e-07 0 3.27968e-06 -8.56315e-07 0 3.00497e-06 -8.23878e-07 0 2.74566e-06 -7.85846e-07 0 2.50168e-06 -7.45346e-07 0 2.2726e-06 -7.04207e-07 0 2.05772e-06 -6.63863e-07 0 1.8562e-06 -6.25195e-07 0 1.66707e-06 -5.88986e-07 0 1.48933e-06 -5.55259e-07 0 1.32197e-06 -5.24566e-07 0 1.16393e-06 -4.96873e-07 0 1.01422e-06 -4.71998e-07 0 8.71809e-07 -4.50526e-07 0 7.35725e-07 -4.31859e-07 0 6.05023e-07 -4.16129e-07 0 4.7875e-07 -4.03507e-07 0 3.56001e-07 -3.93552e-07 0 2.35886e-07 -3.866e-07 0 1.17506e-07 -3.82444e-07 0 0 -3.80876e-07 0 2.15883e-06 5.06086e-06 0 4.15999e-06 3.6392e-06 0 5.08721e-06 2.2112e-06 0 5.40789e-06 1.14095e-06 0 5.42407e-06 4.05164e-07 0 5.28129e-06 -8.19893e-08 0 5.0524e-06 -3.95673e-07 0 4.77731e-06 -5.90099e-07 0 4.47964e-06 -7.02197e-07 0 4.17421e-06 -7.61116e-07 0 3.87023e-06 -7.83707e-07 0 3.57372e-06 -7.80346e-07 0 3.2883e-06 -7.62756e-07 0 3.01606e-06 -7.35168e-07 0 2.75805e-06 -7.02121e-07 0 2.51458e-06 -6.66573e-07 0 2.28546e-06 -6.30211e-07 0 2.07018e-06 -5.94419e-07 0 1.86803e-06 -5.60023e-07 0 1.67811e-06 -5.27749e-07 0 1.4995e-06 -4.97649e-07 0 1.3312e-06 -4.70228e-07 0 1.17221e-06 -4.45468e-07 0 1.02153e-06 -4.23216e-07 0 8.7817e-07 -4.03998e-07 0 7.4114e-07 -3.87285e-07 0 6.09506e-07 -3.73199e-07 0 4.82317e-07 -3.61893e-07 0 3.58663e-07 -3.52975e-07 0 2.37655e-07 -3.46747e-07 0 1.18388e-07 -3.43023e-07 0 0 -3.41618e-07 0 1.85194e-06 4.24472e-06 0 3.70246e-06 3.17495e-06 0 4.70007e-06 2.00713e-06 0 5.12869e-06 1.07848e-06 0 5.23417e-06 4.18619e-07 0 5.15647e-06 -2.64164e-08 0 4.97308e-06 -3.16396e-07 0 4.72925e-06 -4.97973e-07 0 4.45283e-06 -6.04052e-07 0 4.16171e-06 -6.61129e-07 0 3.86724e-06 -6.84625e-07 0 3.57693e-06 -6.84056e-07 0 3.29544e-06 -6.70239e-07 0 3.02554e-06 -6.47051e-07 0 2.7688e-06 -6.18682e-07 0 2.52585e-06 -5.87872e-07 0 2.29676e-06 -5.56148e-07 0 2.08117e-06 -5.24814e-07 0 1.87848e-06 -4.94627e-07 0 1.68788e-06 -4.66251e-07 0 1.5085e-06 -4.39754e-07 0 1.33939e-06 -4.15593e-07 0 1.17956e-06 -3.93762e-07 0 1.02803e-06 -3.74131e-07 0 8.83818e-07 -3.5717e-07 0 7.4595e-07 -3.42416e-07 0 6.13489e-07 -3.29978e-07 0 4.85485e-07 -3.19993e-07 0 3.61029e-07 -3.12116e-07 0 2.39226e-07 -3.06614e-07 0 1.19172e-07 -3.03324e-07 0 0 -3.02083e-07 0 1.62763e-06 3.52549e-06 0 3.34266e-06 2.71564e-06 0 4.37417e-06 1.77346e-06 0 4.88381e-06 9.85506e-07 0 5.06378e-06 4.08282e-07 0 5.04295e-06 1.20442e-08 0 4.90023e-06 -2.49041e-07 0 4.68467e-06 -4.14018e-07 0 4.42758e-06 -5.11461e-07 0 4.14954e-06 -5.6486e-07 0 3.86377e-06 -5.87984e-07 0 3.57916e-06 -5.8935e-07 0 3.30129e-06 -5.78696e-07 0 3.03357e-06 -5.59497e-07 0 2.77803e-06 -5.35525e-07 0 2.53561e-06 -5.09254e-07 0 2.30658e-06 -4.82039e-07 0 2.09074e-06 -4.55075e-07 0 1.8876e-06 -4.29041e-07 0 1.69642e-06 -4.04526e-07 0 1.51638e-06 -3.81612e-07 0 1.34656e-06 -3.60699e-07 0 1.18599e-06 -3.41791e-07 0 1.03372e-06 -3.24781e-07 0 8.8877e-07 -3.10079e-07 0 7.50168e-07 -2.97287e-07 0 6.16983e-07 -2.865e-07 0 4.88265e-07 -2.7784e-07 0 3.63104e-07 -2.71006e-07 0 2.40605e-07 -2.66233e-07 0 1.1986e-07 -2.63379e-07 0 0 -2.62302e-07 0 1.4624e-06 2.87997e-06 0 3.06283e-06 2.2678e-06 0 4.10609e-06 1.5202e-06 0 4.67481e-06 8.68364e-07 0 4.9152e-06 3.77791e-07 0 4.94267e-06 3.55479e-08 0 4.8353e-06 -1.9227e-07 0 4.64459e-06 -3.37378e-07 0 4.4046e-06 -4.23866e-07 0 4.13817e-06 -4.71946e-07 0 3.86014e-06 -4.9355e-07 0 3.58062e-06 -4.96081e-07 0 3.30599e-06 -4.88044e-07 0 3.04024e-06 -4.72461e-07 0 2.7858e-06 -4.52632e-07 0 2.54387e-06 -4.30722e-07 0 2.31493e-06 -4.07901e-07 0 2.0989e-06 -3.85228e-07 0 1.89539e-06 -3.63293e-07 0 1.70372e-06 -3.42608e-07 0 1.52312e-06 -3.23256e-07 0 1.3527e-06 -3.05581e-07 0 1.19151e-06 -2.89591e-07 0 1.0386e-06 -2.75202e-07 0 8.93016e-07 -2.6276e-07 0 7.53786e-07 -2.51932e-07 0 6.1998e-07 -2.428e-07 0 4.9065e-07 -2.35467e-07 0 3.64885e-07 -2.2968e-07 0 2.41788e-07 -2.25638e-07 0 1.2045e-07 -2.23221e-07 0 0 -2.22309e-07 0 1.34049e-06 2.29026e-06 0 2.84808e-06 1.83329e-06 0 3.89108e-06 1.25444e-06 0 4.50184e-06 7.32562e-07 0 4.78986e-06 3.30701e-07 0 4.85709e-06 4.63556e-08 0 4.77944e-06 -1.44621e-07 0 4.60986e-06 -2.67092e-07 0 4.38449e-06 -3.40628e-07 0 4.12802e-06 -3.81965e-07 0 3.85666e-06 -4.01052e-07 0 3.58152e-06 -4.04075e-07 0 3.30969e-06 -3.98177e-07 0 3.04565e-06 -3.85888e-07 0 2.79217e-06 -3.69979e-07 0 2.55068e-06 -3.52274e-07 0 2.32183e-06 -3.33746e-07 0 2.10567e-06 -3.15295e-07 0 1.90186e-06 -2.97414e-07 0 1.7098e-06 -2.8053e-07 0 1.52873e-06 -2.64722e-07 0 1.35781e-06 -2.50275e-07 0 1.1961e-06 -2.37199e-07 0 1.04267e-06 -2.25429e-07 0 8.96556e-07 -2.15248e-07 0 7.56803e-07 -2.06386e-07 0 6.2248e-07 -1.98911e-07 0 4.92639e-07 -1.92908e-07 0 3.6637e-07 -1.88171e-07 0 2.42775e-07 -1.84861e-07 0 1.20943e-07 -1.82882e-07 0 0 -1.82135e-07 0 1.25188e-06 1.74219e-06 0 2.68744e-06 1.41142e-06 0 3.7247e-06 9.80997e-07 0 4.36453e-06 5.82773e-07 0 4.68873e-06 2.70407e-07 0 4.78735e-06 4.67799e-08 0 4.73362e-06 -1.04537e-07 0 4.5812e-06 -2.02114e-07 0 4.36777e-06 -2.61043e-07 0 4.11945e-06 -2.94451e-07 0 3.85355e-06 -3.10184e-07 0 3.58202e-06 -3.13136e-07 0 3.3125e-06 -3.08976e-07 0 3.04987e-06 -2.99708e-07 0 2.79719e-06 -2.87533e-07 0 2.55609e-06 -2.73903e-07 0 2.32733e-06 -2.59583e-07 0 2.11107e-06 -2.45294e-07 0 1.90703e-06 -2.31428e-07 0 1.71465e-06 -2.18322e-07 0 1.53322e-06 -2.06044e-07 0 1.3619e-06 -1.94816e-07 0 1.19977e-06 -1.8465e-07 0 1.04592e-06 -1.75497e-07 0 8.9939e-07 -1.67578e-07 0 7.59217e-07 -1.60684e-07 0 6.24481e-07 -1.54868e-07 0 4.94232e-07 -1.50197e-07 0 3.67559e-07 -1.46511e-07 0 2.43566e-07 -1.43935e-07 0 1.21337e-07 -1.42395e-07 0 0 -1.41814e-07 0 1.19003e-06 1.22425e-06 0 2.57306e-06 1.0002e-06 0 3.60322e-06 7.03058e-07 0 4.26227e-06 4.22923e-07 0 4.61243e-06 2.00107e-07 0 4.73431e-06 3.91475e-08 0 4.69857e-06 -7.03927e-08 0 4.55918e-06 -1.4133e-07 0 4.35484e-06 -1.84355e-07 0 4.11276e-06 -2.08896e-07 0 3.85104e-06 -2.20614e-07 0 3.58227e-06 -2.23048e-07 0 3.31452e-06 -2.20308e-07 0 3.05298e-06 -2.13845e-07 0 2.80092e-06 -2.05256e-07 0 2.56012e-06 -1.95596e-07 0 2.33144e-06 -1.85417e-07 0 2.1151e-06 -1.75244e-07 0 1.91089e-06 -1.65362e-07 0 1.71829e-06 -1.56015e-07 0 1.53658e-06 -1.47253e-07 0 1.36497e-06 -1.39238e-07 0 1.20253e-06 -1.3198e-07 0 1.04837e-06 -1.25443e-07 0 9.01516e-07 -1.19786e-07 0 7.6103e-07 -1.14861e-07 0 6.25983e-07 -1.10706e-07 0 4.95427e-07 -1.07368e-07 0 3.68452e-07 -1.04734e-07 0 2.44159e-07 -1.02894e-07 0 1.21633e-07 -1.01793e-07 0 0 -1.01378e-07 0 1.1508e-06 7.2669e-07 0 2.49953e-06 5.9688e-07 0 3.52376e-06 4.22635e-07 0 4.19443e-06 2.56328e-07 0 4.56133e-06 1.22815e-07 0 4.69858e-06 2.57774e-08 0 4.67487e-06 -4.05199e-08 0 4.54423e-06 -8.35763e-08 0 4.34604e-06 -1.09765e-07 0 4.10816e-06 -1.24762e-07 0 3.84927e-06 -1.31987e-07 0 3.58237e-06 -1.33578e-07 0 3.31583e-06 -1.32027e-07 0 3.05503e-06 -1.28213e-07 0 2.80339e-06 -1.23103e-07 0 2.56279e-06 -1.17337e-07 0 2.33417e-06 -1.1125e-07 0 2.11779e-06 -1.0516e-07 0 1.91347e-06 -9.92398e-08 0 1.72071e-06 -9.36371e-08 0 1.53883e-06 -8.83837e-08 0 1.36701e-06 -8.35767e-08 0 1.20437e-06 -7.92226e-08 0 1.05e-06 -7.53006e-08 0 9.02936e-07 -7.19065e-08 0 7.62241e-07 -6.89513e-08 0 6.26986e-07 -6.64578e-08 0 4.96226e-07 -6.44547e-08 0 3.69049e-07 -6.28738e-08 0 2.44555e-07 -6.17692e-08 0 1.21831e-07 -6.11087e-08 0 0 -6.08594e-08 0 1.1317e-06 2.40941e-07 0 2.46344e-06 1.98416e-07 0 3.48438e-06 1.40998e-07 0 4.16052e-06 8.58628e-08 0 4.53565e-06 4.13936e-08 0 4.68055e-06 8.9735e-09 0 4.66288e-06 -1.32202e-08 0 4.53666e-06 -2.76544e-08 0 4.34156e-06 -3.64465e-08 0 4.10582e-06 -4.14912e-08 0 3.84836e-06 -4.39317e-08 0 3.5824e-06 -4.4484e-08 0 3.31647e-06 -4.39827e-08 0 3.05605e-06 -4.27218e-08 0 2.80462e-06 -4.10258e-08 0 2.56413e-06 -3.9109e-08 0 2.33554e-06 -3.70831e-08 0 2.11914e-06 -3.50555e-08 0 1.91477e-06 -3.30837e-08 0 1.72193e-06 -3.1217e-08 0 1.53995e-06 -2.94665e-08 0 1.36804e-06 -2.78645e-08 0 1.2053e-06 -2.64133e-08 0 1.05081e-06 -2.5106e-08 0 9.03649e-07 -2.39747e-08 0 7.62848e-07 -2.29895e-08 0 6.2749e-07 -2.21583e-08 0 4.96627e-07 -2.14905e-08 0 3.69348e-07 -2.09635e-08 0 2.44754e-07 -2.05953e-08 0 1.2193e-07 -2.03751e-08 0 0 -2.02919e-08 0 1.1317e-06 -2.40941e-07 0 2.46344e-06 -1.98416e-07 0 3.48438e-06 -1.40998e-07 0 4.16052e-06 -8.58628e-08 0 4.53565e-06 -4.13936e-08 0 4.68055e-06 -8.9735e-09 0 4.66288e-06 1.32202e-08 0 4.53666e-06 2.76544e-08 0 4.34156e-06 3.64465e-08 0 4.10582e-06 4.14912e-08 0 3.84836e-06 4.39317e-08 0 3.5824e-06 4.4484e-08 0 3.31647e-06 4.39827e-08 0 3.05605e-06 4.27218e-08 0 2.80462e-06 4.10258e-08 0 2.56413e-06 3.9109e-08 0 2.33554e-06 3.70831e-08 0 2.11914e-06 3.50555e-08 0 1.91477e-06 3.30837e-08 0 1.72193e-06 3.1217e-08 0 1.53995e-06 2.94665e-08 0 1.36804e-06 2.78645e-08 0 1.2053e-06 2.64133e-08 0 1.05081e-06 2.5106e-08 0 9.03649e-07 2.39747e-08 0 7.62848e-07 2.29895e-08 0 6.2749e-07 2.21583e-08 0 4.96627e-07 2.14905e-08 0 3.69348e-07 2.09635e-08 0 2.44754e-07 2.05953e-08 0 1.2193e-07 2.03751e-08 0 0 2.02919e-08 0 1.1508e-06 -7.2669e-07 0 2.49953e-06 -5.9688e-07 0 3.52376e-06 -4.22635e-07 0 4.19443e-06 -2.56328e-07 0 4.56133e-06 -1.22815e-07 0 4.69858e-06 -2.57774e-08 0 4.67487e-06 4.05199e-08 0 4.54423e-06 8.35763e-08 0 4.34604e-06 1.09765e-07 0 4.10816e-06 1.24762e-07 0 3.84927e-06 1.31987e-07 0 3.58237e-06 1.33578e-07 0 3.31583e-06 1.32027e-07 0 3.05503e-06 1.28213e-07 0 2.80339e-06 1.23103e-07 0 2.56279e-06 1.17337e-07 0 2.33417e-06 1.1125e-07 0 2.11779e-06 1.0516e-07 0 1.91347e-06 9.92398e-08 0 1.72071e-06 9.36371e-08 0 1.53883e-06 8.83837e-08 0 1.36701e-06 8.35767e-08 0 1.20437e-06 7.92226e-08 0 1.05e-06 7.53006e-08 0 9.02936e-07 7.19065e-08 0 7.62241e-07 6.89513e-08 0 6.26986e-07 6.64578e-08 0 4.96226e-07 6.44547e-08 0 3.69049e-07 6.28738e-08 0 2.44555e-07 6.17692e-08 0 1.21831e-07 6.11087e-08 0 0 6.08594e-08 0 1.19003e-06 -1.22425e-06 0 2.57306e-06 -1.0002e-06 0 3.60322e-06 -7.03058e-07 0 4.26227e-06 -4.22923e-07 0 4.61243e-06 -2.00107e-07 0 4.73431e-06 -3.91475e-08 0 4.69857e-06 7.03927e-08 0 4.55918e-06 1.4133e-07 0 4.35484e-06 1.84355e-07 0 4.11276e-06 2.08896e-07 0 3.85104e-06 2.20614e-07 0 3.58227e-06 2.23048e-07 0 3.31452e-06 2.20308e-07 0 3.05298e-06 2.13845e-07 0 2.80092e-06 2.05256e-07 0 2.56012e-06 1.95596e-07 0 2.33144e-06 1.85417e-07 0 2.1151e-06 1.75244e-07 0 1.91089e-06 1.65362e-07 0 1.71829e-06 1.56015e-07 0 1.53658e-06 1.47253e-07 0 1.36497e-06 1.39238e-07 0 1.20253e-06 1.3198e-07 0 1.04837e-06 1.25443e-07 0 9.01516e-07 1.19786e-07 0 7.6103e-07 1.14861e-07 0 6.25983e-07 1.10706e-07 0 4.95427e-07 1.07368e-07 0 3.68452e-07 1.04734e-07 0 2.44159e-07 1.02894e-07 0 1.21633e-07 1.01793e-07 0 0 1.01378e-07 0 1.25188e-06 -1.74219e-06 0 2.68744e-06 -1.41142e-06 0 3.7247e-06 -9.80997e-07 0 4.36453e-06 -5.82773e-07 0 4.68873e-06 -2.70407e-07 0 4.78735e-06 -4.67799e-08 0 4.73362e-06 1.04537e-07 0 4.5812e-06 2.02114e-07 0 4.36777e-06 2.61043e-07 0 4.11945e-06 2.94451e-07 0 3.85355e-06 3.10184e-07 0 3.58202e-06 3.13136e-07 0 3.3125e-06 3.08976e-07 0 3.04987e-06 2.99708e-07 0 2.79719e-06 2.87533e-07 0 2.55609e-06 2.73903e-07 0 2.32733e-06 2.59583e-07 0 2.11107e-06 2.45294e-07 0 1.90703e-06 2.31428e-07 0 1.71465e-06 2.18322e-07 0 1.53322e-06 2.06044e-07 0 1.3619e-06 1.94816e-07 0 1.19977e-06 1.8465e-07 0 1.04592e-06 1.75497e-07 0 8.9939e-07 1.67578e-07 0 7.59217e-07 1.60684e-07 0 6.24481e-07 1.54868e-07 0 4.94232e-07 1.50197e-07 0 3.67559e-07 1.46511e-07 0 2.43566e-07 1.43935e-07 0 1.21337e-07 1.42395e-07 0 0 1.41814e-07 0 1.34049e-06 -2.29026e-06 0 2.84808e-06 -1.83329e-06 0 3.89108e-06 -1.25444e-06 0 4.50184e-06 -7.32562e-07 0 4.78986e-06 -3.30701e-07 0 4.85709e-06 -4.63556e-08 0 4.77944e-06 1.44621e-07 0 4.60986e-06 2.67092e-07 0 4.38449e-06 3.40628e-07 0 4.12802e-06 3.81965e-07 0 3.85666e-06 4.01052e-07 0 3.58152e-06 4.04075e-07 0 3.30969e-06 3.98177e-07 0 3.04565e-06 3.85888e-07 0 2.79217e-06 3.69979e-07 0 2.55068e-06 3.52274e-07 0 2.32183e-06 3.33746e-07 0 2.10567e-06 3.15295e-07 0 1.90186e-06 2.97414e-07 0 1.7098e-06 2.8053e-07 0 1.52873e-06 2.64722e-07 0 1.35781e-06 2.50275e-07 0 1.1961e-06 2.37199e-07 0 1.04267e-06 2.25429e-07 0 8.96556e-07 2.15248e-07 0 7.56803e-07 2.06386e-07 0 6.2248e-07 1.98911e-07 0 4.92639e-07 1.92908e-07 0 3.6637e-07 1.88171e-07 0 2.42775e-07 1.84861e-07 0 1.20943e-07 1.82882e-07 0 0 1.82135e-07 0 1.4624e-06 -2.87997e-06 0 3.06283e-06 -2.2678e-06 0 4.10609e-06 -1.5202e-06 0 4.67481e-06 -8.68364e-07 0 4.9152e-06 -3.77791e-07 0 4.94267e-06 -3.55479e-08 0 4.8353e-06 1.9227e-07 0 4.64459e-06 3.37378e-07 0 4.4046e-06 4.23866e-07 0 4.13817e-06 4.71946e-07 0 3.86014e-06 4.9355e-07 0 3.58062e-06 4.96081e-07 0 3.30599e-06 4.88044e-07 0 3.04024e-06 4.72461e-07 0 2.7858e-06 4.52632e-07 0 2.54387e-06 4.30722e-07 0 2.31493e-06 4.07901e-07 0 2.0989e-06 3.85228e-07 0 1.89539e-06 3.63293e-07 0 1.70372e-06 3.42608e-07 0 1.52312e-06 3.23256e-07 0 1.3527e-06 3.05581e-07 0 1.19151e-06 2.89591e-07 0 1.0386e-06 2.75202e-07 0 8.93016e-07 2.6276e-07 0 7.53786e-07 2.51932e-07 0 6.1998e-07 2.428e-07 0 4.9065e-07 2.35467e-07 0 3.64885e-07 2.2968e-07 0 2.41788e-07 2.25638e-07 0 1.2045e-07 2.23221e-07 0 0 2.22309e-07 0 1.62763e-06 -3.52549e-06 0 3.34266e-06 -2.71564e-06 0 4.37417e-06 -1.77346e-06 0 4.88381e-06 -9.85506e-07 0 5.06378e-06 -4.08282e-07 0 5.04295e-06 -1.20442e-08 0 4.90023e-06 2.49041e-07 0 4.68467e-06 4.14018e-07 0 4.42758e-06 5.11461e-07 0 4.14954e-06 5.6486e-07 0 3.86377e-06 5.87984e-07 0 3.57916e-06 5.8935e-07 0 3.30129e-06 5.78696e-07 0 3.03357e-06 5.59497e-07 0 2.77803e-06 5.35525e-07 0 2.53561e-06 5.09254e-07 0 2.30658e-06 4.82039e-07 0 2.09074e-06 4.55075e-07 0 1.8876e-06 4.29041e-07 0 1.69642e-06 4.04526e-07 0 1.51638e-06 3.81612e-07 0 1.34656e-06 3.60699e-07 0 1.18599e-06 3.41791e-07 0 1.03372e-06 3.24781e-07 0 8.8877e-07 3.10079e-07 0 7.50168e-07 2.97287e-07 0 6.16983e-07 2.865e-07 0 4.88265e-07 2.7784e-07 0 3.63104e-07 2.71006e-07 0 2.40605e-07 2.66233e-07 0 1.1986e-07 2.63379e-07 0 0 2.62302e-07 0 1.85194e-06 -4.24472e-06 0 3.70246e-06 -3.17495e-06 0 4.70007e-06 -2.00713e-06 0 5.12869e-06 -1.07848e-06 0 5.23417e-06 -4.18619e-07 0 5.15647e-06 2.64164e-08 0 4.97308e-06 3.16396e-07 0 4.72925e-06 4.97973e-07 0 4.45283e-06 6.04052e-07 0 4.16171e-06 6.61129e-07 0 3.86724e-06 6.84625e-07 0 3.57693e-06 6.84056e-07 0 3.29544e-06 6.70239e-07 0 3.02554e-06 6.47051e-07 0 2.7688e-06 6.18682e-07 0 2.52585e-06 5.87872e-07 0 2.29676e-06 5.56148e-07 0 2.08117e-06 5.24814e-07 0 1.87848e-06 4.94627e-07 0 1.68788e-06 4.66251e-07 0 1.5085e-06 4.39754e-07 0 1.33939e-06 4.15593e-07 0 1.17956e-06 3.93762e-07 0 1.02803e-06 3.74131e-07 0 8.83818e-07 3.5717e-07 0 7.4595e-07 3.42416e-07 0 6.13489e-07 3.29978e-07 0 4.85485e-07 3.19993e-07 0 3.61029e-07 3.12116e-07 0 2.39226e-07 3.06614e-07 0 1.19172e-07 3.03324e-07 0 0 3.02083e-07 0 2.15883e-06 -5.06086e-06 0 4.15999e-06 -3.6392e-06 0 5.08721e-06 -2.2112e-06 0 5.40789e-06 -1.14095e-06 0 5.42407e-06 -4.05164e-07 0 5.28129e-06 8.19893e-08 0 5.0524e-06 3.95673e-07 0 4.77731e-06 5.90099e-07 0 4.47964e-06 7.02197e-07 0 4.17421e-06 7.61116e-07 0 3.87023e-06 7.83707e-07 0 3.57372e-06 7.80346e-07 0 3.2883e-06 7.62756e-07 0 3.01606e-06 7.35168e-07 0 2.75805e-06 7.02121e-07 0 2.51458e-06 6.66573e-07 0 2.28546e-06 6.30211e-07 0 2.07018e-06 5.94419e-07 0 1.86803e-06 5.60023e-07 0 1.67811e-06 5.27749e-07 0 1.4995e-06 4.97649e-07 0 1.3312e-06 4.70228e-07 0 1.17221e-06 4.45468e-07 0 1.02153e-06 4.23216e-07 0 8.7817e-07 4.03998e-07 0 7.4114e-07 3.87285e-07 0 6.09506e-07 3.73199e-07 0 4.82317e-07 3.61893e-07 0 3.58663e-07 3.52975e-07 0 2.37655e-07 3.46747e-07 0 1.18388e-07 3.43023e-07 0 0 3.41618e-07 0 2.59241e-06 -6.00414e-06 0 4.74219e-06 -4.09358e-06 0 5.53977e-06 -2.37221e-06 0 5.71979e-06 -1.16593e-06 0 5.63118e-06 -3.64336e-07 0 5.41551e-06 1.56652e-07 0 5.13677e-06 4.88045e-07 0 4.82782e-06 6.91131e-07 0 4.50729e-06 8.0637e-07 0 4.1865e-06 8.65125e-07 0 3.87236e-06 8.85421e-07 0 3.56925e-06 8.78336e-07 0 3.27968e-06 8.56315e-07 0 3.00497e-06 8.23878e-07 0 2.74566e-06 7.85846e-07 0 2.50168e-06 7.45346e-07 0 2.2726e-06 7.04207e-07 0 2.05772e-06 6.63863e-07 0 1.8562e-06 6.25195e-07 0 1.66707e-06 5.88986e-07 0 1.48933e-06 5.55259e-07 0 1.32197e-06 5.24566e-07 0 1.16393e-06 4.96873e-07 0 1.01422e-06 4.71998e-07 0 8.71809e-07 4.50526e-07 0 7.35725e-07 4.31859e-07 0 6.05023e-07 4.16129e-07 0 4.7875e-07 4.03507e-07 0 3.56001e-07 3.93552e-07 0 2.35886e-07 3.866e-07 0 1.17506e-07 3.82444e-07 0 0 3.80876e-07 0 3.22456e-06 -7.11303e-06 0 5.47511e-06 -4.50901e-06 0 6.05602e-06 -2.47321e-06 0 6.05962e-06 -1.14614e-06 0 5.8517e-06 -2.92795e-07 0 5.55643e-06 2.52123e-07 0 5.22436e-06 5.94487e-07 0 4.87955e-06 8.01659e-07 0 4.53493e-06 9.16941e-07 0 4.19803e-06 9.73391e-07 0 3.87326e-06 9.89911e-07 0 3.56326e-06 9.78112e-07 0 3.26939e-06 9.50957e-07 0 2.99217e-06 9.13196e-07 0 2.73157e-06 8.69853e-07 0 2.48713e-06 8.24173e-07 0 2.25816e-06 7.7811e-07 0 2.04377e-06 7.33113e-07 0 1.84299e-06 6.90107e-07 0 1.65476e-06 6.49925e-07 0 1.47802e-06 6.12546e-07 0 1.3117e-06 5.7857e-07 0 1.15473e-06 5.4794e-07 0 1.00609e-06 5.20442e-07 0 8.64746e-07 4.96719e-07 0 7.29714e-07 4.76102e-07 0 6.00047e-07 4.58734e-07 0 4.74793e-07 4.44801e-07 0 3.53048e-07 4.33813e-07 0 2.33925e-07 4.2614e-07 0 1.16527e-07 4.21554e-07 0 0 4.19824e-07 0 4.19125e-06 -8.43051e-06 0 6.38238e-06 -4.8339e-06 0 6.6292e-06 -2.49472e-06 0 6.42097e-06 -1.07466e-06 0 6.08129e-06 -1.87683e-07 0 5.70121e-06 3.6977e-07 0 5.31327e-06 7.15736e-07 0 4.93121e-06 9.22114e-07 0 4.56169e-06 1.03418e-06 0 4.20818e-06 1.08608e-06 0 3.8725e-06 1.09727e-06 0 3.55547e-06 1.07972e-06 0 3.25725e-06 1.0467e-06 0 2.97753e-06 1.00312e-06 0 2.71568e-06 9.54125e-07 0 2.47087e-06 9.03027e-07 0 2.24211e-06 8.51888e-07 0 2.02832e-06 8.02133e-07 0 1.82839e-06 7.54722e-07 0 1.64118e-06 7.10526e-07 0 1.46555e-06 6.69472e-07 0 1.3004e-06 6.32201e-07 0 1.14461e-06 5.9863e-07 0 9.97149e-07 5.68511e-07 0 8.56982e-07 5.42541e-07 0 7.23108e-07 5.1998e-07 0 5.9458e-07 5.0098e-07 0 4.70447e-07 4.8574e-07 0 3.49805e-07 4.73725e-07 0 2.3177e-07 4.65336e-07 0 1.15452e-07 4.60321e-07 0 0 4.58429e-07 0 5.7691e-06 -9.97666e-06 0 7.46644e-06 -4.9876e-06 0 7.24468e-06 -2.41741e-06 0 6.79523e-06 -9.45725e-07 0 6.31489e-06 -4.68722e-08 0 5.8467e-06 5.10522e-07 0 5.40145e-06 8.52258e-07 0 4.98145e-06 1.05275e-06 0 4.58664e-06 1.15823e-06 0 4.21634e-06 1.20326e-06 0 3.86966e-06 1.20754e-06 0 3.54559e-06 1.18319e-06 0 3.24304e-06 1.14354e-06 0 2.96088e-06 1.09363e-06 0 2.69789e-06 1.03864e-06 0 2.45281e-06 9.81875e-07 0 2.22438e-06 9.25502e-07 0 2.01132e-06 8.70884e-07 0 1.81238e-06 8.18999e-07 0 1.62631e-06 7.70748e-07 0 1.45191e-06 7.25996e-07 0 1.28804e-06 6.8542e-07 0 1.13356e-06 6.48905e-07 0 9.87398e-07 6.16167e-07 0 8.48517e-07 5.87955e-07 0 7.15908e-07 5.63457e-07 0 5.88624e-07 5.42832e-07 0 4.65712e-07 5.26293e-07 0 3.46272e-07 5.13255e-07 0 2.29424e-07 5.04154e-07 0 1.14282e-07 4.98714e-07 0 0 4.96662e-07 0 8.56589e-06 -1.16053e-05 0 8.67331e-06 -4.87203e-06 0 7.8791e-06 -2.22646e-06 0 7.17186e-06 -7.55607e-07 0 6.54689e-06 1.30806e-07 0 5.98957e-06 6.74803e-07 0 5.48681e-06 1.00422e-06 0 5.02887e-06 1.19365e-06 0 4.60888e-06 1.28912e-06 0 4.22188e-06 1.32496e-06 0 3.86431e-06 1.32071e-06 0 3.53331e-06 1.28847e-06 0 3.22657e-06 1.24145e-06 0 2.94211e-06 1.18469e-06 0 2.67811e-06 1.12334e-06 0 2.43291e-06 1.06067e-06 0 2.20495e-06 9.98908e-07 0 1.99275e-06 9.39321e-07 0 1.79493e-06 8.82895e-07 0 1.61014e-06 8.3055e-07 0 1.43711e-06 7.82077e-07 0 1.27465e-06 7.38186e-07 0 1.12159e-06 6.98727e-07 0 9.7684e-07 6.63373e-07 0 8.39355e-07 6.32926e-07 0 7.08119e-07 6.06498e-07 0 5.82181e-07 5.84256e-07 0 4.60591e-07 5.66425e-07 0 3.42452e-07 5.52371e-07 0 2.26888e-07 5.42562e-07 0 1.13017e-07 5.367e-07 0 0 5.34488e-07 0 1.40759e-05 -1.24972e-05 0 9.87308e-06 -4.43112e-06 0 8.50352e-06 -1.91612e-06 0 7.53929e-06 -5.03329e-07 0 6.77139e-06 3.45394e-07 0 6.12642e-06 8.62477e-07 0 5.56722e-06 1.17149e-06 0 5.07211e-06 1.34469e-06 0 4.62746e-06 1.42676e-06 0 4.22416e-06 1.45108e-06 0 3.85601e-06 1.43672e-06 0 3.51834e-06 1.39553e-06 0 3.20763e-06 1.34036e-06 0 2.92107e-06 1.27624e-06 0 2.65624e-06 1.20819e-06 0 2.41109e-06 1.13937e-06 0 2.18377e-06 1.07206e-06 0 1.97259e-06 1.0074e-06 0 1.77604e-06 9.46362e-07 0 1.59266e-06 8.89886e-07 0 1.42113e-06 8.37672e-07 0 1.26021e-06 7.90458e-07 0 1.10869e-06 7.48055e-07 0 9.65475e-07 7.1009e-07 0 8.29499e-07 6.77418e-07 0 6.99743e-07 6.49069e-07 0 5.75255e-07 6.25218e-07 0 4.55088e-07 6.06104e-07 0 3.38347e-07 5.91041e-07 0 2.24162e-07 5.80529e-07 0 1.11657e-07 5.74247e-07 0 0 5.71878e-07 0 -1.82035e-05 -1.20681e-06 0 1.09314e-05 -3.72217e-06 0 9.08855e-06 -1.49174e-06 0 7.88587e-06 -1.90978e-07 0 6.98258e-06 5.95739e-07 0 6.25391e-06 1.07284e-06 0 5.6406e-06 1.35361e-06 0 5.10979e-06 1.50557e-06 0 4.64148e-06 1.57094e-06 0 4.22257e-06 1.58149e-06 0 3.84434e-06 1.55545e-06 0 3.50038e-06 1.50426e-06 0 3.18602e-06 1.4402e-06 0 2.89762e-06 1.36822e-06 0 2.63219e-06 1.29312e-06 0 2.38729e-06 1.2179e-06 0 2.1608e-06 1.14489e-06 0 1.95081e-06 1.07506e-06 0 1.75569e-06 1.00935e-06 0 1.57388e-06 9.48709e-07 0 1.40398e-06 8.92736e-07 0 1.24473e-06 8.42195e-07 0 1.09488e-06 7.9685e-07 0 9.53308e-07 7.56282e-07 0 8.18952e-07 7.21393e-07 0 6.90783e-07 6.91133e-07 0 5.67849e-07 6.65685e-07 0 4.49205e-07 6.45296e-07 0 3.3396e-07 6.29232e-07 0 2.21249e-07 6.18023e-07 0 1.10205e-07 6.11326e-07 0 0 6.08799e-07 0 </DataArray> 
</PointData> 
<Points> 
<DataArray type="Float32" NumberOfComponents="3"> 