<?xml version="1.0"?> 
<VTKFile type="StructuredGrid" version="0.1"> 
<StructuredGrid WholeExtent="0 31 0 31 0 0"> 
<Piece Extent="0 31 0 31 0 0"> 
<PointData>
<DataArray type="Float32" Name="B" format="ascii" NumberOfComponents="3"> 
0 2.3032e-07 0 4.15557e-08 2.31317e-07 0 8.34365e-08 2.33962e-07 0 1.25963e-07 2.38393e-07 0 1.69471e-07 2.44757e-07 0 2.14299e-07 2.52853e-07 0 2.60792e-07 2.62995e-07 0 3.09323e-07 2.75103e-07 0 3.60267e-07 2.89132e-07 0 4.14027e-07 3.05561e-07 0 4.71034e-07 3.24057e-07 0 5.31735e-07 3.44868e-07 0 5.96626e-07 3.68197e-07 0 6.66232e-07 3.93804e-07 0 7.4112e-07 4.2208e-07 0 8.2193e-07 4.52803e-07 0 9.09343e-07 4.85792e-07 0 1.00414e-06 5.21258e-07 0 1.10721e-06 5.58454e-07 0 1.21955e-06 5.9696e-07 0 1.34239e-06 6.35858e-07 0 1.4772e-06 6.73838e-07 0 1.62585e-06 7.08454e-07 0 1.79087e-06 7.369e-07 0 1.97569e-06 7.55029e-07 0 2.18548e-06 7.5599e-07 0 2.42817e-06 7.31323e-07 0 2.71678e-06 6.69925e-07 0 3.07419e-06 5.60981e-07 0 3.54279e-06 4.16133e-07 0 4.17605e-06 4.66755e-07 0 -3.1106e-05 1.2175e-05 0 0 2.16394e-07 0 4.21294e-08 2.1733e-07 0 8.4588e-08 2.19814e-07 0 1.277e-07 2.23975e-07 0 1.71806e-07 2.2995e-07 0 2.17246e-07 2.3755e-07 0 2.64372e-07 2.47069e-07 0 3.13557e-07 2.58432e-07 0 3.6518e-07 2.71593e-07 0 4.19646e-07 2.87e-07 0 4.77386e-07 3.04339e-07 0 5.38846e-07 3.23836e-07 0 6.04519e-07 3.45674e-07 0 6.74922e-07 3.69623e-07 0 7.50612e-07 3.9603e-07 0 8.32206e-07 4.24673e-07 0 9.20358e-07 4.55359e-07 0 1.01581e-06 4.88227e-07 0 1.11936e-06 5.22545e-07 0 1.23194e-06 5.57824e-07 0 1.35463e-06 5.93061e-07 0 1.4887e-06 6.26909e-07 0 1.63573e-06 6.56685e-07 0 1.79784e-06 6.79406e-07 0 1.97792e-06 6.90571e-07 0 2.18034e-06 6.82595e-07 0 2.41205e-06 6.45836e-07 0 2.68515e-06 5.66812e-07 0 3.02348e-06 4.29332e-07 0 3.48548e-06 2.29895e-07 0 4.31972e-06 1.22708e-07 0 1.12241e-05 -7.73647e-07 0 0 2.02283e-07 0 4.26668e-08 2.03158e-07 0 8.56666e-08 2.05478e-07 0 1.29327e-07 2.09366e-07 0 1.73992e-07 2.14947e-07 0 2.20007e-07 2.22046e-07 0 2.67724e-07 2.30935e-07 0 3.17521e-07 2.41545e-07 0 3.69777e-07 2.53831e-07 0 4.24902e-07 2.68208e-07 0 4.83325e-07 2.8438e-07 0 5.4549e-07 3.02556e-07 0 6.11888e-07 3.22898e-07 0 6.83026e-07 3.45186e-07 0 7.59449e-07 3.69727e-07 0 8.41755e-07 3.963e-07 0 9.30564e-07 4.24706e-07 0 1.02657e-06 4.55019e-07 0 1.13052e-06 4.86528e-07 0 1.24322e-06 5.18686e-07 0 1.36561e-06 5.50429e-07 0 1.49876e-06 5.80386e-07 0 1.64394e-06 6.05689e-07 0 1.80284e-06 6.23221e-07 0 1.9777e-06 6.28183e-07 0 2.172e-06 6.12363e-07 0 2.39144e-06 5.65017e-07 0 2.64656e-06 4.7023e-07 0 2.96012e-06 3.05336e-07 0 3.39639e-06 4.2205e-08 0 4.26083e-06 -3.62691e-07 0 7.27461e-06 -3.17286e-06 0 0 1.87999e-07 0 4.31676e-08 1.88812e-07 0 8.66715e-08 1.90967e-07 0 1.30843e-07 1.94578e-07 0 1.76029e-07 1.99762e-07 0 2.22578e-07 2.06355e-07 0 2.70845e-07 2.14609e-07 0 3.21211e-07 2.24458e-07 0 3.74057e-07 2.35862e-07 0 4.29793e-07 2.492e-07 0 4.88848e-07 2.64199e-07 0 5.51666e-07 2.81046e-07 0 6.18731e-07 2.99887e-07 0 6.90544e-07 3.20513e-07 0 7.67635e-07 3.43193e-07 0 8.50581e-07 3.67709e-07 0 9.39973e-07 3.9386e-07 0 1.03645e-06 4.21663e-07 0 1.1407e-06 4.50435e-07 0 1.25342e-06 4.79586e-07 0 1.3754e-06 5.08009e-07 0 1.50748e-06 5.34329e-07 0 1.65064e-06 5.55547e-07 0 1.80607e-06 5.68456e-07 0 1.97535e-06 5.68039e-07 0 2.16092e-06 5.45587e-07 0 2.36698e-06 4.89409e-07 0 2.6018e-06 3.81346e-07 0 2.88454e-06 1.92269e-07 0 3.2713e-06 -1.31458e-07 0 3.97971e-06 -7.8638e-07 0 5.04447e-06 -3.46597e-06 0 0 1.73555e-07 0 4.36313e-08 1.74305e-07 0 8.7602e-08 1.76294e-07 0 1.32246e-07 1.79625e-07 0 1.77915e-07 1.84408e-07 0 2.24958e-07 1.90489e-07 0 2.73734e-07 1.98103e-07 0 3.24626e-07 2.07186e-07 0 3.78016e-07 2.177e-07 0 4.34315e-07 2.29993e-07 0 4.93953e-07 2.43812e-07 0 5.5737e-07 2.59325e-07 0 6.25047e-07 2.76662e-07 0 6.97475e-07 2.95625e-07 0 7.75171e-07 3.1645e-07 0 8.58692e-07 3.38924e-07 0 9.48594e-07 3.62846e-07 0 1.04547e-06 3.88188e-07 0 1.14994e-06 4.14297e-07 0 1.26259e-06 4.40557e-07 0 1.38406e-06 4.65839e-07 0 1.51498e-06 4.88783e-07 0 1.65598e-06 5.06318e-07 0 1.80777e-06 5.15196e-07 0 1.9712e-06 5.10273e-07 0 2.14759e-06 4.825e-07 0 2.33941e-06 4.19475e-07 0 2.552e-06 3.01239e-07 0 2.7986e-06 9.34163e-08 0 3.11608e-06 -2.75862e-07 0 3.59098e-06 -1.05367e-06 0 3.71942e-06 -3.20574e-06 0 0 1.58963e-07 0 4.40574e-08 1.59649e-07 0 8.84572e-08 1.6147e-07 0 1.33536e-07 1.6452e-07 0 1.79648e-07 1.68897e-07 0 2.27144e-07 1.74464e-07 0 2.76388e-07 1.81431e-07 0 3.27762e-07 1.89743e-07 0 3.81651e-07 1.99361e-07 0 4.38467e-07 2.10604e-07 0 4.98637e-07 2.23237e-07 0 5.62601e-07 2.37412e-07 0 6.30834e-07 2.53242e-07 0 7.03819e-07 2.70543e-07 0 7.8206e-07 2.89519e-07 0 8.66091e-07 3.09967e-07 0 9.56439e-07 3.31688e-07 0 1.05365e-06 3.54618e-07 0 1.15826e-06 3.78138e-07 0 1.27078e-06 4.01624e-07 0 1.39168e-06 4.23948e-07 0 1.52136e-06 4.4378e-07 0 1.66012e-06 4.5804e-07 0 1.80817e-06 4.63497e-07 0 1.96561e-06 4.54971e-07 0 2.13258e-06 4.23263e-07 0 2.3096e-06 3.55557e-07 0 2.49862e-06 2.30755e-07 0 2.7054e-06 1.13331e-08 0 2.94303e-06 -3.81965e-07 0 3.19263e-06 -1.17391e-06 0 2.8851e-06 -2.8261e-06 0 0 1.44235e-07 0 4.44459e-08 1.44858e-07 0 8.92367e-08 1.46509e-07 0 1.34712e-07 1.49275e-07 0 1.81227e-07 1.53244e-07 0 2.29137e-07 1.58292e-07 0 2.78806e-07 1.64609e-07 0 3.30619e-07 1.72143e-07 0 3.84962e-07 1.8086e-07 0 4.42246e-07 1.91047e-07 0 5.02899e-07 2.02489e-07 0 5.67358e-07 2.15322e-07 0 6.36093e-07 2.29645e-07 0 7.09579e-07 2.45286e-07 0 7.88307e-07 2.62422e-07 0 8.72789e-07 2.80859e-07 0 9.63522e-07 3.00406e-07 0 1.06101e-06 3.20973e-07 0 1.16571e-06 3.4198e-07 0 1.27804e-06 3.62808e-07 0 1.39832e-06 3.82352e-07 0 1.52673e-06 3.99336e-07 0 1.66324e-06 4.1073e-07 0 1.80754e-06 4.13376e-07 0 1.95898e-06 4.02166e-07 0 2.11646e-06 3.67951e-07 0 2.2785e-06 2.97847e-07 0 2.44336e-06 1.70405e-07 0 2.60881e-06 -5.26233e-08 0 2.76561e-06 -4.47995e-07 0 2.83268e-06 -1.1881e-06 0 2.33075e-06 -2.44406e-06 0 0 1.29384e-07 0 4.47963e-08 1.29942e-07 0 8.99399e-08 1.31423e-07 0 1.35772e-07 1.33903e-07 0 1.82651e-07 1.37462e-07 0 2.30934e-07 1.41987e-07 0 2.80986e-07 1.4765e-07 0 3.33195e-07 1.54403e-07 0 3.87946e-07 1.62214e-07 0 4.45652e-07 1.7134e-07 0 5.06739e-07 1.81587e-07 0 5.71642e-07 1.93075e-07 0 6.40825e-07 2.05889e-07 0 7.14757e-07 2.19873e-07 0 7.93915e-07 2.35176e-07 0 8.78792e-07 2.51619e-07 0 9.69856e-07 2.6902e-07 0 1.06756e-06 2.87271e-07 0 1.17231e-06 3.05839e-07 0 1.28441e-06 3.24122e-07 0 1.40405e-06 3.41062e-07 0 1.53119e-06 3.55453e-07 0 1.66548e-06 3.64381e-07 0 1.80611e-06 3.64819e-07 0 1.95167e-06 3.51837e-07 0 2.09983e-06 3.16551e-07 0 2.24709e-06 2.46367e-07 0 2.388e-06 1.20301e-07 0 2.51277e-06 -9.83796e-08 0 2.59473e-06 -4.77341e-07 0 2.52646e-06 -1.13404e-06 0 1.94674e-06 -2.09023e-06 0 0 1.14423e-07 0 4.5108e-08 1.14917e-07 0 9.05653e-08 1.16225e-07 0 1.36715e-07 1.18418e-07 0 1.83918e-07 1.21564e-07 0 2.32532e-07 1.25564e-07 0 2.82925e-07 1.30568e-07 0 3.35485e-07 1.36535e-07 0 3.90598e-07 1.43437e-07 0 4.48678e-07 1.51498e-07 0 5.10149e-07 1.60547e-07 0 5.75444e-07 1.70688e-07 0 6.45024e-07 1.81992e-07 0 7.19348e-07 1.94322e-07 0 7.98881e-07 2.07801e-07 0 8.84099e-07 2.22265e-07 0 9.75442e-07 2.37547e-07 0 1.07332e-06 2.53529e-07 0 1.17808e-06 2.69727e-07 0 1.28994e-06 2.85573e-07 0 1.40894e-06 3.00076e-07 0 1.53485e-06 3.1212e-07 0 1.667e-06 3.18965e-07 0 1.80411e-06 3.17778e-07 0 1.94405e-06 3.03909e-07 0 2.08329e-06 2.68952e-07 0 2.21636e-06 2.0096e-07 0 2.33434e-06 8.01599e-08 0 2.42097e-06 -1.26941e-07 0 2.43801e-06 -4.75855e-07 0 2.27475e-06 -1.03872e-06 0 1.67316e-06 -1.76938e-06 0 0 9.93645e-08 0 4.53816e-08 9.97929e-08 0 9.11143e-08 1.00929e-07 0 1.37543e-07 1.02832e-07 0 1.8503e-07 1.05563e-07 0 2.33935e-07 1.09035e-07 0 2.84627e-07 1.13378e-07 0 3.37494e-07 1.18557e-07 0 3.92926e-07 1.24545e-07 0 4.51332e-07 1.31537e-07 0 5.1314e-07 1.39385e-07 0 5.78778e-07 1.48177e-07 0 6.48702e-07 1.57972e-07 0 7.23366e-07 1.6865e-07 0 8.03225e-07 1.80313e-07 0 8.88734e-07 1.92814e-07 0 9.80311e-07 2.06002e-07 0 1.07833e-06 2.19757e-07 0 1.18307e-06 2.33651e-07 0 1.29468e-06 2.4716e-07 0 1.41307e-06 2.59382e-07 0 1.53781e-06 2.69308e-07 0 1.66797e-06 2.74433e-07 0 1.80181e-06 2.72167e-07 0 1.9365e-06 2.5825e-07 0 2.06741e-06 2.24952e-07 0 2.18723e-06 1.61302e-07 0 2.28396e-06 4.93511e-08 0 2.3362e-06 -1.40054e-07 0 2.29928e-06 -4.49893e-07 0 2.07084e-06 -9.19499e-07 0 1.47235e-06 -1.47854e-06 0 0 8.42212e-08 0 4.56166e-08 8.45842e-08 0 9.15857e-08 8.5547e-08 0 1.38254e-07 8.71595e-08 0 1.85985e-07 8.94734e-08 0 2.35139e-07 9.24149e-08 0 2.86087e-07 9.60945e-08 0 3.39219e-07 1.00481e-07 0 3.94922e-07 1.05553e-07 0 4.5361e-07 1.11474e-07 0 5.15705e-07 1.18118e-07 0 5.81635e-07 1.25559e-07 0 6.51854e-07 1.33846e-07 0 7.26807e-07 1.42875e-07 0 8.0694e-07 1.52729e-07 0 8.92694e-07 1.63281e-07 0 9.84463e-07 1.74399e-07 0 1.08259e-06 1.85966e-07 0 1.1873e-06 1.97614e-07 0 1.29867e-06 2.08879e-07 0 1.41649e-06 2.18962e-07 0 1.54017e-06 2.2698e-07 0 1.66852e-06 2.30712e-07 0 1.79938e-06 2.27871e-07 0 1.92933e-06 2.14676e-07 0 2.05271e-06 1.84261e-07 0 2.16057e-06 1.26908e-07 0 2.23832e-06 2.69644e-08 0 2.26078e-06 -1.39868e-07 0 2.18073e-06 -4.05263e-07 0 1.90886e-06 -7.87056e-07 0 1.32399e-06 -1.21281e-06 0 0 6.90062e-08 0 4.58126e-08 6.93036e-08 0 9.19791e-08 7.00922e-08 0 1.38847e-07 7.14131e-08 0 1.86781e-07 7.33084e-08 0 2.36144e-07 7.57176e-08 0 2.87306e-07 7.87312e-08 0 3.40658e-07 8.23234e-08 0 3.96588e-07 8.64765e-08 0 4.55509e-07 9.13243e-08 0 5.17843e-07 9.67629e-08 0 5.84017e-07 1.02852e-07 0 6.5448e-07 1.09631e-07 0 7.29672e-07 1.17014e-07 0 8.10032e-07 1.25067e-07 0 8.95986e-07 1.33682e-07 0 9.87909e-07 1.42748e-07 0 1.08611e-06 1.52163e-07 0 1.19079e-06 1.61618e-07 0 1.30193e-06 1.70718e-07 0 1.41925e-06 1.78788e-07 0 1.542e-06 1.85082e-07 0 1.66877e-06 1.87715e-07 0 1.79705e-06 1.84744e-07 0 1.92286e-06 1.72956e-07 0 2.03968e-06 1.46507e-07 0 2.13715e-06 9.7168e-08 0 2.1986e-06 1.18904e-08 0 2.19628e-06 -1.28677e-07 0 2.08291e-06 -3.4683e-07 0 1.78267e-06 -6.47709e-07 0 1.21432e-06 -9.67207e-07 0 0 5.37325e-08 0 4.59697e-08 5.3964e-08 0 9.22943e-08 5.4578e-08 0 1.39322e-07 5.56062e-08 0 1.8742e-07 5.70817e-08 0 2.36949e-07 5.89571e-08 0 2.88282e-07 6.13029e-08 0 3.4181e-07 6.40988e-08 0 3.97922e-07 6.73311e-08 0 4.5703e-07 7.11034e-08 0 5.19555e-07 7.5335e-08 0 5.85923e-07 8.00716e-08 0 6.56581e-07 8.53436e-08 0 7.31964e-07 9.10831e-08 0 8.12502e-07 9.73396e-08 0 8.98613e-07 1.04029e-07 0 9.90656e-07 1.11062e-07 0 1.08892e-06 1.18352e-07 0 1.19355e-06 1.25659e-07 0 1.30451e-06 1.32664e-07 0 1.4214e-06 1.38826e-07 0 1.54337e-06 1.43553e-07 0 1.66883e-06 1.45333e-07 0 1.79496e-06 1.42612e-07 0 1.91735e-06 1.32813e-07 0 2.02872e-06 1.11252e-07 0 2.11763e-06 7.13614e-08 0 2.16575e-06 2.89037e-09 0 2.14378e-06 -1.08745e-07 0 2.00563e-06 -2.78486e-07 0 1.68729e-06 -5.05064e-07 0 1.13447e-06 -7.37182e-07 0 0 3.84131e-08 0 4.60877e-08 3.85786e-08 0 9.2531e-08 3.90174e-08 0 1.39679e-07 3.97524e-08 0 1.87899e-07 4.0807e-08 0 2.37554e-07 4.21474e-08 0 2.89015e-07 4.38239e-08 0 3.42675e-07 4.58221e-08 0 3.98924e-07 4.8132e-08 0 4.58171e-07 5.08275e-08 0 5.20841e-07 5.38508e-08 0 5.87354e-07 5.72344e-08 0 6.58157e-07 6.09997e-08 0 7.33682e-07 6.50978e-08 0 8.14354e-07 6.95632e-08 0 9.00582e-07 7.43348e-08 0 9.92711e-07 7.93482e-08 0 1.09101e-06 8.45387e-08 0 1.19561e-06 8.97318e-08 0 1.30641e-06 9.46953e-08 0 1.42298e-06 9.90349e-08 0 1.54435e-06 1.02319e-07 0 1.66879e-06 1.03445e-07 0 1.79327e-06 1.01279e-07 0 1.91301e-06 9.39368e-08 0 2.02019e-06 7.79984e-08 0 2.10251e-06 4.86888e-08 0 2.14051e-06 -1.34859e-09 0 2.10395e-06 -8.22255e-08 0 1.94836e-06 -2.03284e-07 0 1.61887e-06 -3.61068e-07 0 1.0787e-06 -5.18693e-07 0 0 2.30609e-08 0 4.61665e-08 2.31603e-08 0 9.26891e-08 2.34237e-08 0 1.39918e-07 2.38649e-08 0 1.88219e-07 2.44979e-08 0 2.37957e-07 2.53025e-08 0 2.89505e-07 2.63088e-08 0 3.43253e-07 2.75082e-08 0 3.99592e-07 2.88945e-08 0 4.58934e-07 3.05122e-08 0 5.21699e-07 3.23265e-08 0 5.88309e-07 3.43568e-08 0 6.59209e-07 3.66158e-08 0 7.34829e-07 3.9074e-08 0 8.15589e-07 4.17518e-08 0 9.01894e-07 4.46122e-08 0 9.94081e-07 4.76161e-08 0 1.09241e-06 5.07235e-08 0 1.19698e-06 5.38289e-08 0 1.30768e-06 5.67909e-08 0 1.42402e-06 5.93696e-08 0 1.54498e-06 6.13033e-08 0 1.66873e-06 6.192e-08 0 1.79208e-06 6.05299e-08 0 1.91002e-06 5.59859e-08 0 2.01435e-06 4.62058e-08 0 2.0922e-06 2.82926e-08 0 2.12338e-06 -2.17547e-09 0 2.07719e-06 -5.11276e-08 0 1.91052e-06 -1.23629e-07 0 1.57467e-06 -2.16665e-07 0 1.0433e-06 -3.08131e-07 0 0 7.68916e-09 0 4.62061e-08 7.72228e-09 0 9.27685e-08 7.8101e-09 0 1.40037e-07 7.9572e-09 0 1.8838e-07 8.16826e-09 0 2.3816e-07 8.43652e-09 0 2.8975e-07 8.77202e-09 0 3.43543e-07 9.17187e-09 0 3.99928e-07 9.63406e-09 0 4.59316e-07 1.01734e-08 0 5.22129e-07 1.07782e-08 0 5.88788e-07 1.1455e-08 0 6.59737e-07 1.22079e-08 0 7.35404e-07 1.30272e-08 0 8.16209e-07 1.39196e-08 0 9.02552e-07 1.48726e-08 0 9.94767e-07 1.58732e-08 0 1.0931e-06 1.69079e-08 0 1.19766e-06 1.79412e-08 0 1.30831e-06 1.89259e-08 0 1.42453e-06 1.97813e-08 0 1.54529e-06 2.04196e-08 0 1.66869e-06 2.06153e-08 0 1.79146e-06 2.01368e-08 0 1.90849e-06 1.85988e-08 0 2.01138e-06 1.53024e-08 0 2.08696e-06 9.27671e-09 0 2.11471e-06 -9.5294e-10 0 2.06372e-06 -1.73384e-08 0 1.89166e-06 -4.14777e-08 0 1.55292e-06 -7.22163e-08 0 1.02605e-06 -1.02202e-07 0 0 -7.68916e-09 0 4.62061e-08 -7.72228e-09 0 9.27685e-08 -7.8101e-09 0 1.40037e-07 -7.9572e-09 0 1.8838e-07 -8.16826e-09 0 2.3816e-07 -8.43652e-09 0 2.8975e-07 -8.77202e-09 0 3.43543e-07 -9.17187e-09 0 3.99928e-07 -9.63406e-09 0 4.59316e-07 -1.01734e-08 0 5.22129e-07 -1.07782e-08 0 5.88788e-07 -1.1455e-08 0 6.59737e-07 -1.22079e-08 0 7.35404e-07 -1.30272e-08 0 8.16209e-07 -1.39196e-08 0 9.02552e-07 -1.48726e-08 0 9.94767e-07 -1.58732e-08 0 1.0931e-06 -1.69079e-08 0 1.19766e-06 -1.79412e-08 0 1.30831e-06 -1.89259e-08 0 1.42453e-06 -1.97813e-08 0 1.54529e-06 -2.04196e-08 0 1.66869e-06 -2.06153e-08 0 1.79146e-06 -2.01368e-08 0 1.90849e-06 -1.85988e-08 0 2.01138e-06 -1.53024e-08 0 2.08696e-06 -9.27671e-09 0 2.11471e-06 9.5294e-10 0 2.06372e-06 1.73384e-08 0 1.89166e-06 4.14777e-08 0 1.55292e-06 7.22163e-08 0 1.02605e-06 1.02202e-07 0 0 -2.30609e-08 0 4.61665e-08 -2.31603e-08 0 9.26891e-08 -2.34237e-08 0 1.39918e-07 -2.38649e-08 0 1.88219e-07 -2.44979e-08 0 2.37957e-07 -2.53025e-08 0 2.89505e-07 -2.63088e-08 0 3.43253e-07 -2.75082e-08 0 3.99592e-07 -2.88945e-08 0 4.58934e-07 -3.05122e-08 0 5.21699e-07 -3.23265e-08 0 5.88309e-07 -3.43568e-08 0 6.59209e-07 -3.66158e-08 0 7.34829e-07 -3.9074e-08 0 8.15589e-07 -4.17518e-08 0 9.01894e-07 -4.46122e-08 0 9.94081e-07 -4.76161e-08 0 1.09241e-06 -5.07235e-08 0 1.19698e-06 -5.38289e-08 0 1.30768e-06 -5.67909e-08 0 1.42402e-06 -5.93696e-08 0 1.54498e-06 -6.13033e-08 0 1.66873e-06 -6.192e-08 0 1.79208e-06 -6.05299e-08 0 1.91002e-06 -5.59859e-08 0 2.01435e-06 -4.62058e-08 0 2.0922e-06 -2.82926e-08 0 2.12338e-06 2.17547e-09 0 2.07719e-06 5.11276e-08 0 1.91052e-06 1.23629e-07 0 1.57467e-06 2.16665e-07 0 1.0433e-06 3.08131e-07 0 0 -3.84131e-08 0 4.60877e-08 -3.85786e-08 0 9.2531e-08 -3.90174e-08 0 1.39679e-07 -3.97524e-08 0 1.87899e-07 -4.0807e-08 0 2.37554e-07 -4.21474e-08 0 2.89015e-07 -4.38239e-08 0 3.42675e-07 -4.58221e-08 0 3.98924e-07 -4.8132e-08 0 4.58171e-07 -5.08275e-08 0 5.20841e-07 -5.38508e-08 0 5.87354e-07 -5.72344e-08 0 6.58157e-07 -6.09997e-08 0 7.33682e-07 -6.50978e-08 0 8.14354e-07 -6.95632e-08 0 9.00582e-07 -7.43348e-08 0 9.92711e-07 -7.93482e-08 0 1.09101e-06 -8.45387e-08 0 1.19561e-06 -8.97318e-08 0 1.30641e-06 -9.46953e-08 0 1.42298e-06 -9.90349e-08 0 1.54435e-06 -1.02319e-07 0 1.66879e-06 -1.03445e-07 0 1.79327e-06 -1.01279e-07 0 1.91301e-06 -9.39368e-08 0 2.02019e-06 -7.79984e-08 0 2.10251e-06 -4.86888e-08 0 2.14051e-06 1.34859e-09 0 2.10395e-06 8.22255e-08 0 1.94836e-06 2.03284e-07 0 1.61887e-06 3.61068e-07 0 1.0787e-06 5.18693e-07 0 0 -5.37325e-08 0 4.59697e-08 -5.3964e-08 0 9.22943e-08 -5.4578e-08 0 1.39322e-07 -5.56062e-08 0 1.8742e-07 -5.70817e-08 0 2.36949e-07 -5.89571e-08 0 2.88282e-07 -6.13029e-08 0 3.4181e-07 -6.40988e-08 0 3.97922e-07 -6.73311e-08 0 4.5703e-07 -7.11034e-08 0 5.19555e-07 -7.5335e-08 0 5.85923e-07 -8.00716e-08 0 6.56581e-07 -8.53436e-08 0 7.31964e-07 -9.10831e-08 0 8.12502e-07 -9.73396e-08 0 8.98613e-07 -1.04029e-07 0 9.90656e-07 -1.11062e-07 0 1.08892e-06 -1.18352e-07 0 1.19355e-06 -1.25659e-07 0 1.30451e-06 -1.32664e-07 0 1.4214e-06 -1.38826e-07 0 1.54337e-06 -1.43553e-07 0 1.66883e-06 -1.45333e-07 0 1.79496e-06 -1.42612e-07 0 1.91735e-06 -1.32813e-07 0 2.02872e-06 -1.11252e-07 0 2.11763e-06 -7.13614e-08 0 2.16575e-06 -2.89037e-09 0 2.14378e-06 1.08745e-07 0 2.00563e-06 2.78486e-07 0 1.68729e-06 5.05064e-07 0 1.13447e-06 7.37182e-07 0 0 -6.90062e-08 0 4.58126e-08 -6.93036e-08 0 9.19791e-08 -7.00922e-08 0 1.38847e-07 -7.14131e-08 0 1.86781e-07 -7.33084e-08 0 2.36144e-07 -7.57176e-08 0 2.87306e-07 -7.87312e-08 0 3.40658e-07 -8.23234e-08 0 3.96588e-07 -8.64765e-08 0 4.55509e-07 -9.13243e-08 0 5.17843e-07 -9.67629e-08 0 5.84017e-07 -1.02852e-07 0 6.5448e-07 -1.09631e-07 0 7.29672e-07 -1.17014e-07 0 8.10032e-07 -1.25067e-07 0 8.95986e-07 -1.33682e-07 0 9.87909e-07 -1.42748e-07 0 1.08611e-06 -1.52163e-07 0 1.19079e-06 -1.61618e-07 0 1.30193e-06 -1.70718e-07 0 1.41925e-06 -1.78788e-07 0 1.542e-06 -1.85082e-07 0 1.66877e-06 -1.87715e-07 0 1.79705e-06 -1.84744e-07 0 1.92286e-06 -1.72956e-07 0 2.03968e-06 -1.46507e-07 0 2.13715e-06 -9.7168e-08 0 2.1986e-06 -1.18904e-08 0 2.19628e-06 1.28677e-07 0 2.08291e-06 3.4683e-07 0 1.78267e-06 6.47709e-07 0 1.21432e-06 9.67207e-07 0 0 -8.42212e-08 0 4.56166e-08 -8.45842e-08 0 9.15857e-08 -8.5547e-08 0 1.38254e-07 -8.71595e-08 0 1.85985e-07 -8.94734e-08 0 2.35139e-07 -9.24149e-08 0 2.86087e-07 -9.60945e-08 0 3.39219e-07 -1.00481e-07 0 3.94922e-07 -1.05553e-07 0 4.5361e-07 -1.11474e-07 0 5.15705e-07 -1.18118e-07 0 5.81635e-07 -1.25559e-07 0 6.51854e-07 -1.33846e-07 0 7.26807e-07 -1.42875e-07 0 8.0694e-07 -1.52729e-07 0 8.92694e-07 -1.63281e-07 0 9.84463e-07 -1.74399e-07 0 1.08259e-06 -1.85966e-07 0 1.1873e-06 -1.97614e-07 0 1.29867e-06 -2.08879e-07 0 1.41649e-06 -2.18962e-07 0 1.54017e-06 -2.2698e-07 0 1.66852e-06 -2.30712e-07 0 1.79938e-06 -2.27871e-07 0 1.92933e-06 -2.14676e-07 0 2.05271e-06 -1.84261e-07 0 2.16057e-06 -1.26908e-07 0 2.23832e-06 -2.69644e-08 0 2.26078e-06 1.39868e-07 0 2.18073e-06 4.05263e-07 0 1.90886e-06 7.87056e-07 0 1.32399e-06 1.21281e-06 0 0 -9.93645e-08 0 4.53816e-08 -9.97929e-08 0 9.11143e-08 -1.00929e-07 0 1.37543e-07 -1.02832e-07 0 1.8503e-07 -1.05563e-07 0 2.33935e-07 -1.09035e-07 0 2.84627e-07 -1.13378e-07 0 3.37494e-07 -1.18557e-07 0 3.92926e-07 -1.24545e-07 0 4.51332e-07 -1.31537e-07 0 5.1314e-07 -1.39385e-07 0 5.78778e-07 -1.48177e-07 0 6.48702e-07 -1.57972e-07 0 7.23366e-07 -1.6865e-07 0 8.03225e-07 -1.80313e-07 0 8.88734e-07 -1.92814e-07 0 9.80311e-07 -2.06002e-07 0 1.07833e-06 -2.19757e-07 0 1.18307e-06 -2.33651e-07 0 1.29468e-06 -2.4716e-07 0 1.41307e-06 -2.59382e-07 0 1.53781e-06 -2.69308e-07 0 1.66797e-06 -2.74433e-07 0 1.80181e-06 -2.72167e-07 0 1.9365e-06 -2.5825e-07 0 2.06741e-06 -2.24952e-07 0 2.18723e-06 -1.61302e-07 0 2.28396e-06 -4.93511e-08 0 2.3362e-06 1.40054e-07 0 2.29928e-06 4.49893e-07 0 2.07084e-06 9.19499e-07 0 1.47235e-06 1.47854e-06 0 0 -1.14423e-07 0 4.5108e-08 -1.14917e-07 0 9.05653e-08 -1.16225e-07 0 1.36715e-07 -1.18418e-07 0 1.83918e-07 -1.21564e-07 0 2.32532e-07 -1.25564e-07 0 2.82925e-07 -1.30568e-07 0 3.35485e-07 -1.36535e-07 0 3.90598e-07 -1.43437e-07 0 4.48678e-07 -1.51498e-07 0 5.10149e-07 -1.60547e-07 0 5.75444e-07 -1.70688e-07 0 6.45024e-07 -1.81992e-07 0 7.19348e-07 -1.94322e-07 0 7.98881e-07 -2.07801e-07 0 8.84099e-07 -2.22265e-07 0 9.75442e-07 -2.37547e-07 0 1.07332e-06 -2.53529e-07 0 1.17808e-06 -2.69727e-07 0 1.28994e-06 -2.85573e-07 0 1.40894e-06 -3.00076e-07 0 1.53485e-06 -3.1212e-07 0 1.667e-06 -3.18965e-07 0 1.80411e-06 -3.17778e-07 0 1.94405e-06 -3.03909e-07 0 2.08329e-06 -2.68952e-07 0 2.21636e-06 -2.0096e-07 0 2.33434e-06 -8.01599e-08 0 2.42097e-06 1.26941e-07 0 2.43801e-06 4.75855e-07 0 2.27475e-06 1.03872e-06 0 1.67316e-06 1.76938e-06 0 0 -1.29384e-07 0 4.47963e-08 -1.29942e-07 0 8.99399e-08 -1.31423e-07 0 1.35772e-07 -1.33903e-07 0 1.82651e-07 -1.37462e-07 0 2.30934e-07 -1.41987e-07 0 2.80986e-07 -1.4765e-07 0 3.33195e-07 -1.54403e-07 0 3.87946e-07 -1.62214e-07 0 4.45652e-07 -1.7134e-07 0 5.06739e-07 -1.81587e-07 0 5.71642e-07 -1.93075e-07 0 6.40825e-07 -2.05889e-07 0 7.14757e-07 -2.19873e-07 0 7.93915e-07 -2.35176e-07 0 8.78792e-07 -2.51619e-07 0 9.69856e-07 -2.6902e-07 0 1.06756e-06 -2.87271e-07 0 1.17231e-06 -3.05839e-07 0 1.28441e-06 -3.24122e-07 0 1.40405e-06 -3.41062e-07 0 1.53119e-06 -3.55453e-07 0 1.66548e-06 -3.64381e-07 0 1.80611e-06 -3.64819e-07 0 1.95167e-06 -3.51837e-07 0 2.09983e-06 -3.16551e-07 0 2.24709e-06 -2.46367e-07 0 2.388e-06 -1.20301e-07 0 2.51277e-06 9.83796e-08 0 2.59473e-06 4.77341e-07 0 2.52646e-06 1.13404e-06 0 1.94674e-06 2.09023e-06 0 0 -1.44235e-07 0 4.44459e-08 -1.44858e-07 0 8.92367e-08 -1.46509e-07 0 1.34712e-07 -1.49275e-07 0 1.81227e-07 -1.53244e-07 0 2.29137e-07 -1.58292e-07 0 2.78806e-07 -1.64609e-07 0 3.30619e-07 -1.72143e-07 0 3.84962e-07 -1.8086e-07 0 4.42246e-07 -1.91047e-07 0 5.02899e-07 -2.02489e-07 0 5.67358e-07 -2.15322e-07 0 6.36093e-07 -2.29645e-07 0 7.09579e-07 -2.45286e-07 0 7.88307e-07 -2.62422e-07 0 8.72789e-07 -2.80859e-07 0 9.63522e-07 -3.00406e-07 0 1.06101e-06 -3.20973e-07 0 1.16571e-06 -3.4198e-07 0 1.27804e-06 -3.62808e-07 0 1.39832e-06 -3.82352e-07 0 1.52673e-06 -3.99336e-07 0 1.66324e-06 -4.1073e-07 0 1.80754e-06 -4.13376e-07 0 1.95898e-06 -4.02166e-07 0 2.11646e-06 -3.67951e-07 0 2.2785e-06 -2.97847e-07 0 2.44336e-06 -1.70405e-07 0 2.60881e-06 5.26233e-08 0 2.76561e-06 4.47995e-07 0 2.83268e-06 1.1881e-06 0 2.33075e-06 2.44406e-06 0 0 -1.58963e-07 0 4.40574e-08 -1.59649e-07 0 8.84572e-08 -1.6147e-07 0 1.33536e-07 -1.6452e-07 0 1.79648e-07 -1.68897e-07 0 2.27144e-07 -1.74464e-07 0 2.76388e-07 -1.81431e-07 0 3.27762e-07 -1.89743e-07 0 3.81651e-07 -1.99361e-07 0 4.38467e-07 -2.10604e-07 0 4.98637e-07 -2.23237e-07 0 5.62601e-07 -2.37412e-07 0 6.30834e-07 -2.53242e-07 0 7.03819e-07 -2.70543e-07 0 7.8206e-07 -2.89519e-07 0 8.66091e-07 -3.09967e-07 0 9.56439e-07 -3.31688e-07 0 1.05365e-06 -3.54618e-07 0 1.15826e-06 -3.78138e-07 0 1.27078e-06 -4.01624e-07 0 1.39168e-06 -4.23948e-07 0 1.52136e-06 -4.4378e-07 0 1.66012e-06 -4.5804e-07 0 1.80817e-06 -4.63497e-07 0 1.96561e-06 -4.54971e-07 0 2.13258e-06 -4.23263e-07 0 2.3096e-06 -3.55557e-07 0 2.49862e-06 -2.30755e-07 0 2.7054e-06 -1.13331e-08 0 2.94303e-06 3.81965e-07 0 3.19263e-06 1.17391e-06 0 2.8851e-06 2.8261e-06 0 0 -1.73555e-07 0 4.36313e-08 -1.74305e-07 0 8.7602e-08 -1.76294e-07 0 1.32246e-07 -1.79625e-07 0 1.77915e-07 -1.84408e-07 0 2.24958e-07 -1.90489e-07 0 2.73734e-07 -1.98103e-07 0 3.24626e-07 -2.07186e-07 0 3.78016e-07 -2.177e-07 0 4.34315e-07 -2.29993e-07 0 4.93953e-07 -2.43812e-07 0 5.5737e-07 -2.59325e-07 0 6.25047e-07 -2.76662e-07 0 6.97475e-07 -2.95625e-07 0 7.75171e-07 -3.1645e-07 0 8.58692e-07 -3.38924e-07 0 9.48594e-07 -3.62846e-07 0 1.04547e-06 -3.88188e-07 0 1.14994e-06 -4.14297e-07 0 1.26259e-06 -4.40557e-07 0 1.38406e-06 -4.65839e-07 0 1.51498e-06 -4.88783e-07 0 1.65598e-06 -5.06318e-07 0 1.80777e-06 -5.15196e-07 0 1.9712e-06 -5.10273e-07 0 2.14759e-06 -4.825e-07 0 2.33941e-06 -4.19475e-07 0 2.552e-06 -3.01239e-07 0 2.7986e-06 -9.34163e-08 0 3.11608e-06 2.75862e-07 0 3.59098e-06 1.05367e-06 0 3.71942e-06 3.20574e-06 0 0 -1.87999e-07 0 4.31676e-08 -1.88812e-07 0 8.66715e-08 -1.90967e-07 0 1.30843e-07 -1.94578e-07 0 1.76029e-07 -1.99762e-07 0 2.22578e-07 -2.06355e-07 0 2.70845e-07 -2.14609e-07 0 3.21211e-07 -2.24458e-07 0 3.74057e-07 -2.35862e-07 0 4.29793e-07 -2.492e-07 0 4.88848e-07 -2.64199e-07 0 5.51666e-07 -2.81046e-07 0 6.18731e-07 -2.99887e-07 0 6.90544e-07 -3.20513e-07 0 7.67635e-07 -3.43193e-07 0 8.50581e-07 -3.67709e-07 0 9.39973e-07 -3.9386e-07 0 1.03645e-06 -4.21663e-07 0 1.1407e-06 -4.50435e-07 0 1.25342e-06 -4.79586e-07 0 1.3754e-06 -5.08009e-07 0 1.50748e-06 -5.34329e-07 0 1.65064e-06 -5.55547e-07 0 1.80607e-06 -5.68456e-07 0 1.97535e-06 -5.68039e-07 0 2.16092e-06 -5.45587e-07 0 2.36698e-06 -4.89409e-07 0 2.6018e-06 -3.81346e-07 0 2.88454e-06 -1.92269e-07 0 3.2713e-06 1.31458e-07 0 3.97971e-06 7.8638e-07 0 5.04447e-06 3.46597e-06 0 0 -2.02283e-07 0 4.26668e-08 -2.03158e-07 0 8.56666e-08 -2.05478e-07 0 1.29327e-07 -2.09366e-07 0 1.73992e-07 -2.14947e-07 0 2.20007e-07 -2.22046e-07 0 2.67724e-07 -2.30935e-07 0 3.17521e-07 -2.41545e-07 0 3.69777e-07 -2.53831e-07 0 4.24902e-07 -2.68208e-07 0 4.83325e-07 -2.8438e-07 0 5.4549e-07 -3.02556e-07 0 6.11888e-07 -3.22898e-07 0 6.83026e-07 -3.45186e-07 0 7.59449e-07 -3.69727e-07 0 8.41755e-07 -3.963e-07 0 9.30564e-07 -4.24706e-07 0 1.02657e-06 -4.55019e-07 0 1.13052e-06 -4.86528e-07 0 1.24322e-06 -5.18686e-07 0 1.36561e-06 -5.50429e-07 0 1.49876e-06 -5.80386e-07 0 1.64394e-06 -6.05689e-07 0 1.80284e-06 -6.23221e-07 0 1.9777e-06 -6.28183e-07 0 2.172e-06 -6.12363e-07 0 2.39144e-06 -5.65017e-07 0 2.64656e-06 -4.7023e-07 0 2.96012e-06 -3.05336e-07 0 3.39639e-06 -4.2205e-08 0 4.26083e-06 3.62691e-07 0 7.27461e-06 3.17286e-06 0 0 -2.16394e-07 0 4.21294e-08 -2.1733e-07 0 8.4588e-08 -2.19814e-07 0 1.277e-07 -2.23975e-07 0 1.71806e-07 -2.2995e-07 0 2.17246e-07 -2.3755e-07 0 2.64372e-07 -2.47069e-07 0 3.13557e-07 -2.58432e-07 0 3.6518e-07 -2.71593e-07 0 4.19646e-07 -2.87e-07 0 4.77386e-07 -3.04339e-07 0 5.38846e-07 -3.23836e-07 0 6.04519e-07 -3.45674e-07 0 6.74922e-07 -3.69623e-07 0 7.50612e-07 -3.9603e-07 0 8.32206e-07 -4.24673e-07 0 9.20358e-07 -4.55359e-07 0 1.01581e-06 -4.88227e-07 0 1.11936e-06 -5.22545e-07 0 1.23194e-06 -5.57824e-07 0 1.35463e-06 -5.93061e-07 0 1.4887e-06 -6.26909e-07 0 1.63573e-06 -6.56685e-07 0 1.79784e-06 -6.79406e-07 0 1.97792e-06 -6.90571e-07 0 2.18034e-06 -6.82595e-07 0 2.41205e-06 -6.45836e-07 0 2.68515e-06 -5.66812e-07 0 3.02348e-06 -4.29332e-07 0 3.48548e-06 -2.29895e-07 0 4.31972e-06 -1.22708e-07 0 1.12241e-05 7.73647e-07 0 0 -2.3032e-07 0 4.15557e-08 -2.31317e-07 0 8.34365e-08 -2.33962e-07 0 1.25963e-07 -2.38393e-07 0 1.69471e-07 -2.44757e-07 0 2.14299e-07 -2.52853e-07 0 2.60792e-07 -2.62995e-07 0 3.09323e-07 -2.75103e-07 0 3.60267e-07 -2.89132e-07 0 4.14027e-07 -3.05561e-07 0 4.71034e-07 -3.24057e-07 0 5.31735e-07 -3.44868e-07 0 5.96626e-07 -3.68197e-07 0 6.66232e-07 -3.93804e-07 0 7.4112e-07 -4.2208e-07 0 8.2193e-07 -4.52803e-07 0 9.09343e-07 -4.85792e-07 0 1.00414e-06 -5.21258e-07 0 1.10721e-06 -5.58454e-07 0 1.21955e-06 -5.9696e-07 0 1.34239e-06 -6.35858e-07 0 1.4772e-06 -6.73838e-07 0 1.62585e-06 -7.08454e-07 0 1.79087e-06 -7.369e-07 0 1.97569e-06 -7.55029e-07 0 2.18548e-06 -7.5599e-07 0 2.42817e-06 -7.31323e-07 0 2.71678e-06 -6.69925e-07 0 3.07419e-06 -5.60981e-07 0 3.54279e-06 -4.16133e-07 0 4.17605e-06 -4.66755e-07 0 -3.1106e-05 -1.2175e-05 0 </DataArray> 
</PointData> 
<Points> 
<DataArray type="Float32" NumberOfComponents="3"> 