<?xml version="1.0"?> 
<VTKFile type="StructuredGrid" version="0.1"> 
<StructuredGrid WholeExtent="0 31 0 31 0 0"> 
<Piece Extent="0 31 0 31 0 0"> 
<PointData>
<DataArray type="Float32" Name="B" format="ascii" NumberOfComponents="3"> 
0 -1.4823e-06 0 2.68954e-07 -1.48827e-06 0 5.3992e-07 -1.50407e-06 0 8.14872e-07 -1.53048e-06 0 1.09589e-06 -1.56829e-06 0 1.38503e-06 -1.61618e-06 0 1.68442e-06 -1.67579e-06 0 1.99629e-06 -1.74644e-06 0 2.3229e-06 -1.8276e-06 0 2.66666e-06 -1.92143e-06 0 3.03009e-06 -2.0257e-06 0 3.41579e-06 -2.14102e-06 0 3.82661e-06 -2.26746e-06 0 4.26553e-06 -2.40291e-06 0 4.73572e-06 -2.54725e-06 0 5.24074e-06 -2.69761e-06 0 5.78433e-06 -2.85082e-06 0 6.37078e-06 -3.0019e-06 0 7.00493e-06 -3.14455e-06 0 7.69232e-06 -3.26826e-06 0 8.43985e-06 -3.35713e-06 0 9.25591e-06 -3.39663e-06 0 1.01514e-05 -3.34675e-06 0 1.11415e-05 -3.1727e-06 0 1.22468e-05 -2.81748e-06 0 1.34982e-05 -2.1801e-06 0 1.49428e-05 -1.12344e-06 0 1.66579e-05 5.82995e-07 0 1.87859e-05 3.3616e-06 0 2.1653e-05 8.11714e-06 0 2.64398e-05 1.76392e-05 0 6.00176e-05 6.07191e-05 0 0 -1.74521e-06 0 2.57347e-07 -1.75228e-06 0 5.16657e-07 -1.77102e-06 0 7.79863e-07 -1.80236e-06 0 1.049e-06 -1.84725e-06 0 1.3261e-06 -1.90417e-06 0 1.61327e-06 -1.9751e-06 0 1.91276e-06 -2.05929e-06 0 2.22684e-06 -2.15619e-06 0 2.55799e-06 -2.26855e-06 0 2.90885e-06 -2.39381e-06 0 3.28221e-06 -2.53296e-06 0 3.68123e-06 -2.68644e-06 0 4.10929e-06 -2.85205e-06 0 4.57019e-06 -3.03051e-06 0 5.06835e-06 -3.21907e-06 0 5.60871e-06 -3.41491e-06 0 6.19731e-06 -3.61478e-06 0 6.84139e-06 -3.8124e-06 0 7.54981e-06 -3.99928e-06 0 8.33431e-06 -4.1622e-06 0 9.20993e-06 -4.28833e-06 0 1.01972e-05 -4.34514e-06 0 1.13254e-05 -4.30384e-06 0 1.26361e-05 -4.11885e-06 0 1.4193e-05 -3.71188e-06 0 1.60974e-05 -2.9827e-06 0 1.85231e-05 -1.7782e-06 0 2.18038e-05 1.31187e-07 0 2.66864e-05 3.03046e-06 0 3.51024e-05 6.72019e-06 0 4.93762e-05 6.18667e-06 0 0 -1.99554e-06 0 2.43794e-07 -2.00369e-06 0 4.89487e-07 -2.02528e-06 0 7.38952e-07 -2.06143e-06 0 9.94168e-07 -2.11322e-06 0 1.25712e-06 -2.17895e-06 0 1.52987e-06 -2.26097e-06 0 1.81465e-06 -2.35849e-06 0 2.11375e-06 -2.47094e-06 0 2.42967e-06 -2.60172e-06 0 2.76514e-06 -2.74798e-06 0 3.12309e-06 -2.91118e-06 0 3.50691e-06 -3.09228e-06 0 3.92031e-06 -3.28903e-06 0 4.36759e-06 -3.50329e-06 0 4.85389e-06 -3.73268e-06 0 5.38513e-06 -3.97499e-06 0 5.96873e-06 -4.22955e-06 0 6.61387e-06 -4.49041e-06 0 7.33199e-06 -4.75231e-06 0 8.13855e-06 -5.00633e-06 0 9.05355e-06 -5.2426e-06 0 1.01044e-05 -5.44027e-06 0 1.13301e-05 -5.58005e-06 0 1.27851e-05 -5.63395e-06 0 1.45516e-05 -5.55802e-06 0 1.67539e-05 -5.30564e-06 0 1.95902e-05 -4.82699e-06 0 2.3385e-05 -4.10602e-06 0 2.86587e-05 -3.29793e-06 0 3.60209e-05 -3.11201e-06 0 4.51076e-05 -5.04195e-06 0 0 -2.23138e-06 0 2.28359e-07 -2.24057e-06 0 4.58535e-07 -2.26492e-06 0 6.92321e-07 -2.30569e-06 0 9.31619e-07 -2.36414e-06 0 1.17834e-06 -2.43839e-06 0 1.4345e-06 -2.53117e-06 0 1.70226e-06 -2.64165e-06 0 1.98388e-06 -2.76928e-06 0 2.28188e-06 -2.91815e-06 0 2.59899e-06 -3.08517e-06 0 2.93823e-06 -3.27231e-06 0 3.30311e-06 -3.48115e-06 0 3.69757e-06 -3.70949e-06 0 4.12622e-06 -3.96053e-06 0 4.59469e-06 -4.23242e-06 0 5.10955e-06 -4.52378e-06 0 5.67913e-06 -4.8371e-06 0 6.31386e-06 -5.167e-06 0 7.0268e-06 -5.51224e-06 0 7.83561e-06 -5.86921e-06 0 8.76305e-06 -6.23162e-06 0 9.83992e-06 -6.59255e-06 0 1.11095e-05 -6.94342e-06 0 1.263e-05 -7.27541e-06 0 1.44861e-05 -7.57997e-06 0 1.67973e-05 -7.85878e-06 0 1.97336e-05 -8.13883e-06 0 2.35264e-05 -8.51226e-06 0 2.84428e-05 -9.20969e-06 0 3.46377e-05 -1.06674e-05 0 4.18747e-05 -1.33486e-05 0 0 -2.4509e-06 0 2.11124e-07 -2.46107e-06 0 4.23963e-07 -2.48804e-06 0 6.40208e-07 -2.5332e-06 0 8.61662e-07 -2.59801e-06 0 1.09014e-06 -2.68038e-06 0 1.32757e-06 -2.78345e-06 0 1.57603e-06 -2.90637e-06 0 1.8377e-06 -3.04862e-06 0 2.11504e-06 -3.21501e-06 0 2.41077e-06 -3.4022e-06 0 2.72785e-06 -3.61277e-06 0 3.06985e-06 -3.84894e-06 0 3.44076e-06 -4.10861e-06 0 3.84531e-06 -4.39649e-06 0 4.28932e-06 -4.71131e-06 0 4.77964e-06 -5.05267e-06 0 5.32495e-06 -5.42653e-06 0 5.93618e-06 -5.82816e-06 0 6.6269e-06 -6.26065e-06 0 7.41538e-06 -6.72605e-06 0 8.32485e-06 -7.22167e-06 0 9.38613e-06 -7.75472e-06 0 1.06415e-05 -8.32646e-06 0 1.21457e-05 -8.94513e-06 0 1.39743e-05 -9.63143e-06 0 1.62266e-05 -1.04203e-05 0 1.90297e-05 -1.13798e-05 0 2.25327e-05 -1.26346e-05 0 2.68756e-05 -1.43845e-05 0 3.21266e-05 -1.68918e-05 0 3.82368e-05 -2.03713e-05 0 0 -2.65235e-06 0 1.92187e-07 -2.66344e-06 0 3.85963e-07 -2.69286e-06 0 5.82901e-07 -2.74214e-06 0 7.84676e-07 -2.8129e-06 0 9.92986e-07 -2.90291e-06 0 1.20962e-06 -3.01565e-06 0 1.43656e-06 -3.15031e-06 0 1.67586e-06 -3.30639e-06 0 1.92986e-06 -3.48941e-06 0 2.20116e-06 -3.69585e-06 0 2.49264e-06 -3.92883e-06 0 2.80773e-06 -4.19132e-06 0 3.15035e-06 -4.48131e-06 0 3.52512e-06 -4.80502e-06 0 3.93776e-06 -5.16183e-06 0 4.39498e-06 -5.55232e-06 0 4.90529e-06 -5.98596e-06 0 5.47931e-06 -6.45861e-06 0 6.13013e-06 -6.97759e-06 0 6.87511e-06 -7.55034e-06 0 7.73594e-06 -8.17724e-06 0 8.74072e-06 -8.87827e-06 0 9.92671e-06 -9.66242e-06 0 1.13404e-05 -1.0551e-05 0 1.30426e-05 -1.15854e-05 0 1.5108e-05 -1.28197e-05 0 1.76243e-05 -1.43401e-05 0 2.06852e-05 -1.62752e-05 0 2.43738e-05 -1.87963e-05 0 2.87463e-05 -2.2102e-05 0 3.38422e-05 -2.6373e-05 0 0 -2.8341e-06 0 1.71676e-07 -2.84603e-06 0 3.44796e-07 -2.8777e-06 0 5.20788e-07 -2.93076e-06 0 7.01179e-07 -3.00699e-06 0 8.87516e-07 -3.10403e-06 0 1.08144e-06 -3.22571e-06 0 1.28477e-06 -3.37121e-06 0 1.49939e-06 -3.54011e-06 0 1.72748e-06 -3.73857e-06 0 1.97144e-06 -3.96292e-06 0 2.23395e-06 -4.21685e-06 0 2.51824e-06 -4.50398e-06 0 2.82794e-06 -4.82245e-06 0 3.16737e-06 -5.17991e-06 0 3.54187e-06 -5.57637e-06 0 3.95764e-06 -6.0133e-06 0 4.42252e-06 -6.50344e-06 0 4.94615e-06 -7.04312e-06 0 5.54027e-06 -7.64342e-06 0 6.22015e-06 -8.31637e-06 0 7.0044e-06 -9.06472e-06 0 7.91647e-06 -9.91872e-06 0 8.98631e-06 -1.08926e-05 0 1.02497e-05 -1.20163e-05 0 1.17507e-05 -1.33443e-05 0 1.35402e-05 -1.49396e-05 0 1.56735e-05 -1.68946e-05 0 1.82056e-05 -1.93355e-05 0 2.11844e-05 -2.24198e-05 0 2.46512e-05 -2.63332e-05 0 2.86586e-05 -3.12804e-05 0 0 -2.99464e-06 0 1.49736e-07 -3.00733e-06 0 3.0075e-07 -3.04101e-06 0 4.54305e-07 -3.09747e-06 0 6.11754e-07 -3.17862e-06 0 7.74472e-07 -3.28198e-06 0 9.43916e-07 -3.4117e-06 0 1.1217e-06 -3.56697e-06 0 1.30952e-06 -3.74743e-06 0 1.5093e-06 -3.95985e-06 0 1.72321e-06 -4.2004e-06 0 1.95364e-06 -4.47332e-06 0 2.20346e-06 -4.7828e-06 0 2.47592e-06 -5.12713e-06 0 2.77484e-06 -5.51525e-06 0 3.10492e-06 -5.94768e-06 0 3.47156e-06 -6.42666e-06 0 3.88151e-06 -6.96777e-06 0 4.34291e-06 -7.56758e-06 0 4.86552e-06 -8.24024e-06 0 5.46167e-06 -9.00133e-06 0 6.14596e-06 -9.85504e-06 0 6.93606e-06 -1.08391e-05 0 7.85356e-06 -1.19704e-05 0 8.92272e-06 -1.32838e-05 0 1.01714e-05 -1.48401e-05 0 1.16289e-05 -1.67048e-05 0 1.33232e-05 -1.89701e-05 0 1.52778e-05 -2.17573e-05 0 1.75085e-05 -2.52161e-05 0 2.00253e-05 -2.95318e-05 0 2.28437e-05 -3.49344e-05 0 0 -3.13262e-06 0 1.2651e-07 -3.14598e-06 0 2.54111e-07 -3.18141e-06 0 3.83884e-07 -3.24083e-06 0 5.16986e-07 -3.32627e-06 0 6.54591e-07 -3.43514e-06 0 7.97949e-07 -3.57187e-06 0 9.4844e-07 -3.73567e-06 0 1.10752e-06 -3.92621e-06 0 1.27683e-06 -4.15083e-06 0 1.45821e-06 -4.40555e-06 0 1.65371e-06 -4.69504e-06 0 1.86576e-06 -5.02404e-06 0 2.09707e-06 -5.3909e-06 0 2.35085e-06 -5.80567e-06 0 2.63093e-06 -6.26925e-06 0 2.94171e-06 -6.78449e-06 0 3.28853e-06 -7.36917e-06 0 3.67772e-06 -8.01994e-06 0 4.11662e-06 -8.75311e-06 0 4.61418e-06 -9.58667e-06 0 5.18051e-06 -1.05254e-05 0 5.8272e-06 -1.16115e-05 0 6.56733e-06 -1.28627e-05 0 7.41412e-06 -1.4315e-05 0 8.38063e-06 -1.60309e-05 0 9.47712e-06 -1.80736e-05 0 1.07084e-05 -2.053e-05 0 1.20702e-05 -2.35131e-05 0 1.35452e-05 -2.71617e-05 0 1.51015e-05 -3.16529e-05 0 1.66918e-05 -3.72183e-05 0 0 -3.24688e-06 0 1.02234e-07 -3.26079e-06 0 2.05357e-07 -3.29769e-06 0 3.10251e-07 -3.35959e-06 0 4.17857e-07 -3.44861e-06 0 5.29133e-07 -3.56209e-06 0 6.45095e-07 -3.70468e-06 0 7.66863e-07 -3.87561e-06 0 8.95615e-07 -4.07459e-06 0 1.03268e-06 -4.30939e-06 0 1.17954e-06 -4.57591e-06 0 1.33781e-06 -4.8792e-06 0 1.50942e-06 -5.22441e-06 0 1.69649e-06 -5.60991e-06 0 1.90147e-06 -6.04659e-06 0 2.12724e-06 -6.53562e-06 0 2.37704e-06 -7.08021e-06 0 2.65466e-06 -7.69972e-06 0 2.96443e-06 -8.39062e-06 0 3.31112e-06 -9.17056e-06 0 3.70019e-06 -1.00587e-05 0 4.13726e-06 -1.10598e-05 0 4.62799e-06 -1.22177e-05 0 5.17753e-06 -1.35493e-05 0 5.78921e-06 -1.50894e-05 0 6.4631e-06 -1.68978e-05 0 7.19351e-06 -1.90319e-05 0 7.96557e-06 -2.15695e-05 0 8.75084e-06 -2.46096e-05 0 9.50168e-06 -2.82728e-05 0 1.01439e-05 -3.27129e-05 0 1.05655e-05 -3.81311e-05 0 0 -3.33645e-06 0 7.70889e-08 -3.35079e-06 0 1.54852e-07 -3.38885e-06 0 2.33958e-07 -3.4527e-06 0 3.1512e-07 -3.54455e-06 0 3.9906e-07 -3.66166e-06 0 4.86544e-07 -3.80888e-06 0 5.78412e-07 -3.98542e-06 0 6.75543e-07 -4.19102e-06 0 7.78919e-07 -4.4338e-06 0 8.89622e-07 -4.70956e-06 0 1.00883e-06 -5.02358e-06 0 1.13789e-06 -5.38132e-06 0 1.27829e-06 -5.78114e-06 0 1.43166e-06 -6.2345e-06 0 1.5999e-06 -6.74266e-06 0 1.78499e-06 -7.30901e-06 0 1.98915e-06 -7.95377e-06 0 2.21467e-06 -8.67311e-06 0 2.4638e-06 -9.48517e-06 0 2.73864e-06 -1.04093e-05 0 3.04064e-06 -1.14494e-05 0 3.3701e-06 -1.26489e-05 0 3.72525e-06 -1.40226e-05 0 4.10107e-06 -1.5602e-05 0 4.48706e-06 -1.74413e-05 0 4.8648e-06 -1.95894e-05 0 5.20407e-06 -2.21112e-05 0 5.45774e-06 -2.50875e-05 0 5.55447e-06 -2.8613e-05 0 5.38788e-06 -3.28041e-05 0 4.79856e-06 -3.78054e-05 0 0 -3.40053e-06 0 5.12272e-08 -3.41519e-06 0 1.02904e-07 -3.45408e-06 0 1.55473e-07 -3.51933e-06 0 2.09409e-07 -3.61321e-06 0 2.65188e-07 -3.73292e-06 0 3.23311e-07 -3.88344e-06 0 3.84324e-07 -4.06398e-06 0 4.48789e-07 -4.27429e-06 0 5.17325e-07 -4.52271e-06 0 5.90597e-07 -4.80494e-06 0 6.69306e-07 -5.12645e-06 0 7.54231e-07 -5.49282e-06 0 8.46174e-07 -5.90238e-06 0 9.45973e-07 -6.36686e-06 0 1.05449e-06 -6.88751e-06 0 1.17251e-06 -7.46768e-06 0 1.30071e-06 -8.12782e-06 0 1.43949e-06 -8.86369e-06 0 1.58879e-06 -9.69315e-06 0 1.7477e-06 -1.06348e-05 0 1.9141e-06 -1.16915e-05 0 2.08386e-06 -1.29043e-05 0 2.24972e-06 -1.4285e-05 0 2.40026e-06 -1.58608e-05 0 2.51732e-06 -1.76778e-05 0 2.57371e-06 -1.9775e-05 0 2.52925e-06 -2.22026e-05 0 2.3256e-06 -2.50201e-05 0 1.87878e-06 -2.82922e-05 0 1.06806e-06 -3.20915e-05 0 -2.81965e-07 -3.64948e-05 0 0 -3.43859e-06 0 2.49552e-08 -3.45343e-06 0 5.01288e-08 -3.49282e-06 0 7.5736e-08 -3.5589e-06 0 1.02003e-07 -3.65397e-06 0 1.29156e-07 -3.77522e-06 0 1.57427e-07 -3.92767e-06 0 1.87059e-07 -4.11054e-06 0 2.18294e-07 -4.32358e-06 0 2.51381e-07 -4.5752e-06 0 2.86566e-07 -4.86108e-06 0 3.24077e-07 -5.18671e-06 0 3.64117e-07 -5.5577e-06 0 4.06832e-07 -5.97232e-06 0 4.52271e-07 -6.4423e-06 0 5.00325e-07 -6.96874e-06 0 5.5065e-07 -7.55482e-06 0 6.02511e-07 -8.22061e-06 0 6.54605e-07 -8.96143e-06 0 7.04836e-07 -9.79426e-06 0 7.49774e-07 -1.07363e-05 0 7.84323e-07 -1.17891e-05 0 8.00868e-07 -1.299e-05 0 7.8797e-07 -1.43474e-05 0 7.29649e-07 -1.58833e-05 0 6.02595e-07 -1.76352e-05 0 3.74282e-07 -1.96313e-05 0 -7.05524e-10 -2.19066e-05 0 -5.85212e-07 -2.44992e-05 0 -1.46582e-06 -2.74449e-05 0 -2.76175e-06 -3.07742e-05 0 -4.63761e-06 -3.45029e-05 0 0 -3.45028e-06 0 -1.5434e-09 -3.46518e-06 0 -3.10107e-09 -3.50472e-06 0 -4.68886e-09 -3.57105e-06 0 -6.32758e-09 -3.66648e-06 0 -8.04456e-09 -3.78818e-06 0 -9.87795e-09 -3.94118e-06 0 -1.18837e-08 -4.12469e-06 0 -1.4139e-08 -4.33843e-06 0 -1.67582e-08 -4.59082e-06 0 -1.99053e-08 -4.87749e-06 0 -2.38099e-08 -5.20387e-06 0 -2.88139e-08 -5.57551e-06 0 -3.53925e-08 -5.99054e-06 0 -4.42217e-08 -6.4605e-06 0 -5.62876e-08 -6.98623e-06 0 -7.29356e-08 -7.57059e-06 0 -9.61152e-08 -8.23285e-06 0 -1.28556e-07 -8.96782e-06 0 -1.73987e-07 -9.79119e-06 0 -2.3781e-07 -1.07183e-05 0 -3.27298e-07 -1.17493e-05 0 -4.52508e-07 -1.29169e-05 0 -6.27563e-07 -1.42263e-05 0 -8.71084e-07 -1.56939e-05 0 -1.20889e-06 -1.73485e-05 0 -1.67536e-06 -1.92079e-05 0 -2.31644e-06 -2.12932e-05 0 -3.19304e-06 -2.36236e-05 0 -4.38534e-06 -2.621e-05 0 -5.99797e-06 -2.90502e-05 0 -8.16583e-06 -3.21167e-05 0 0 -3.43551e-06 0 -2.80261e-08 -3.45033e-06 0 -5.62973e-08 -3.48968e-06 0 -8.50579e-08 -3.55569e-06 0 -1.14574e-07 -3.65063e-06 0 -1.4512e-07 -3.7717e-06 0 -1.77001e-07 -3.92387e-06 0 -2.10565e-07 -4.10634e-06 0 -2.46196e-07 -4.3188e-06 0 -2.84359e-07 -4.56955e-06 0 -3.25604e-07 -4.85421e-06 0 -3.70589e-07 -5.17806e-06 0 -4.20162e-07 -5.54646e-06 0 -4.75356e-07 -5.95746e-06 0 -5.37494e-07 -6.42213e-06 0 -6.08322e-07 -6.94104e-06 0 -6.9003e-07 -7.51664e-06 0 -7.85563e-07 -8.16697e-06 0 -8.98776e-07 -8.88646e-06 0 -1.03464e-06 -9.68916e-06 0 -1.19995e-06 -1.05883e-05 0 -1.40345e-06 -1.15826e-05 0 -1.65667e-06 -1.27e-05 0 -1.97513e-06 -1.39425e-05 0 -2.37847e-06 -1.53214e-05 0 -2.89289e-06 -1.6857e-05 0 -3.55194e-06 -1.85584e-05 0 -4.39871e-06 -2.04349e-05 0 -5.48788e-06 -2.24905e-05 0 -6.88795e-06 -2.47182e-05 0 -8.683e-06 -2.70941e-05 0 -1.09729e-05 -2.95674e-05 0 0 -3.3944e-06 0 -5.42911e-08 -3.40903e-06 0 -1.09053e-07 -3.44784e-06 0 -1.64753e-07 -3.51295e-06 0 -2.21896e-07 -3.60659e-06 0 -2.80999e-07 -3.72596e-06 0 -3.42621e-07 -3.87596e-06 0 -4.07391e-07 -4.05575e-06 0 -4.75986e-07 -4.26499e-06 0 -5.49198e-07 -4.51178e-06 0 -6.27939e-07 -4.79172e-06 0 -7.13258e-07 -5.10992e-06 0 -8.06456e-07 -5.47143e-06 0 -9.09064e-07 -5.87421e-06 0 -1.02296e-06 -6.32873e-06 0 -1.15053e-06 -6.83521e-06 0 -1.29465e-06 -7.39569e-06 0 -1.45905e-06 -8.02671e-06 0 -1.64844e-06 -8.72237e-06 0 -1.86865e-06 -9.49494e-06 0 -2.12741e-06 -1.03555e-05 0 -2.43431e-06 -1.13015e-05 0 -2.80158e-06 -1.23558e-05 0 -3.24513e-06 -1.3518e-05 0 -3.78442e-06 -1.47947e-05 0 -4.44454e-06 -1.61988e-05 0 -5.25646e-06 -1.77325e-05 0 -6.25835e-06 -1.93959e-05 0 -7.49658e-06 -2.11822e-05 0 -9.02607e-06 -2.3073e-05 0 -1.09097e-05 -2.50331e-05 0 -1.32154e-05 -2.70035e-05 0 0 -3.32731e-06 0 -8.00377e-08 -3.34161e-06 0 -1.60762e-07 -3.37957e-06 0 -2.42855e-07 -3.44323e-06 0 -3.27046e-07 -3.53477e-06 0 -4.14083e-07 -3.65143e-06 0 -5.04763e-07 -3.79795e-06 0 -5.99976e-07 -3.97349e-06 0 -7.00669e-07 -4.17768e-06 0 -8.07928e-07 -4.41829e-06 0 -9.22987e-07 -4.69099e-06 0 -1.04724e-06 -5.0006e-06 0 -1.18236e-06 -5.35185e-06 0 -1.3303e-06 -5.74258e-06 0 -1.49337e-06 -6.18255e-06 0 -1.67446e-06 -6.67166e-06 0 -1.87694e-06 -7.21145e-06 0 -2.10508e-06 -7.81687e-06 0 -2.3641e-06 -8.48177e-06 0 -2.66034e-06 -9.2166e-06 0 -3.00193e-06 -1.00303e-05 0 -3.39869e-06 -1.09192e-05 0 -3.8628e-06 -1.19018e-05 0 -4.40964e-06 -1.29752e-05 0 -5.05746e-06 -1.41424e-05 0 -5.82906e-06 -1.54103e-05 0 -6.75156e-06 -1.67757e-05 0 -7.85719e-06 -1.82323e-05 0 -9.18325e-06 -1.97666e-05 0 -1.07716e-05 -2.13542e-05 0 -1.26667e-05 -2.2956e-05 0 -1.4912e-05 -2.45146e-05 0 0 -3.23481e-06 0 -1.05141e-07 -3.24868e-06 0 -2.11173e-07 -3.28547e-06 0 -3.18982e-07 -3.34715e-06 0 -4.29511e-07 -3.43583e-06 0 -5.43723e-07 -3.5488e-06 0 -6.62638e-07 -3.69064e-06 0 -7.87388e-07 -3.86046e-06 0 -9.19163e-07 -4.05785e-06 0 -1.05932e-06 -4.29025e-06 0 -1.20937e-06 -4.55337e-06 0 -1.37099e-06 -4.85172e-06 0 -1.54621e-06 -5.18964e-06 0 -1.73729e-06 -5.56491e-06 0 -1.9469e-06 -5.98648e-06 0 -2.17829e-06 -6.45394e-06 0 -2.43519e-06 -6.96836e-06 0 -2.72221e-06 -7.543e-06 0 -3.04486e-06 -8.17161e-06 0 -3.40969e-06 -8.86288e-06 0 -3.82489e-06 -9.62369e-06 0 -4.30011e-06 -1.04498e-05 0 -4.84698e-06 -1.13552e-05 0 -5.47985e-06 -1.23356e-05 0 -6.2152e-06 -1.3391e-05 0 -7.07298e-06 -1.45236e-05 0 -8.07612e-06 -1.57266e-05 0 -9.25073e-06 -1.69897e-05 0 -1.06256e-05 -1.82958e-05 0 -1.22311e-05 -1.96182e-05 0 -1.40969e-05 -2.0919e-05 0 -1.62484e-05 -2.21461e-05 0 0 -3.11768e-06 0 -1.29378e-07 -3.13099e-06 0 -2.59841e-07 -3.16631e-06 0 -3.9246e-07 -3.22553e-06 0 -5.2838e-07 -3.31064e-06 0 -6.68762e-07 -3.41902e-06 0 -8.1483e-07 -3.55502e-06 0 -9.67934e-07 -3.71776e-06 0 -1.12948e-06 -3.90678e-06 0 -1.30106e-06 -4.12907e-06 0 -1.48443e-06 -4.38049e-06 0 -1.68151e-06 -4.66518e-06 0 -1.89459e-06 -4.98707e-06 0 -2.12619e-06 -5.34389e-06 0 -2.37923e-06 -5.74374e-06 0 -2.65721e-06 -6.18595e-06 0 -2.96408e-06 -6.67114e-06 0 -3.30461e-06 -7.2109e-06 0 -3.68441e-06 -7.79899e-06 0 -4.10998e-06 -8.44244e-06 0 -4.58928e-06 -9.14638e-06 0 -5.13147e-06 -9.90599e-06 0 -5.74732e-06 -1.07317e-05 0 -6.44976e-06 -1.16181e-05 0 -7.2532e-06 -1.25631e-05 0 -8.17456e-06 -1.35653e-05 0 -9.23254e-06 -1.46159e-05 0 -1.04476e-05 -1.57023e-05 0 -1.1841e-05 -1.68062e-05 0 -1.34337e-05 -1.79014e-05 0 -1.52443e-05 -1.8953e-05 0 -1.72855e-05 -1.99163e-05 0 0 -2.9769e-06 0 -1.5247e-07 -2.98956e-06 0 -3.06201e-07 -3.02314e-06 0 -4.62437e-07 -3.07944e-06 0 -6.22504e-07 -3.16032e-06 0 -7.8774e-07 -3.26328e-06 0 -9.59555e-07 -3.3924e-06 0 -1.13949e-06 -3.5468e-06 0 -1.32913e-06 -3.72601e-06 0 -1.53028e-06 -3.93653e-06 0 -1.74488e-06 -4.17436e-06 0 -1.97506e-06 -4.44326e-06 0 -2.22329e-06 -4.74677e-06 0 -2.49227e-06 -5.0826e-06 0 -2.78511e-06 -5.45798e-06 0 -3.10542e-06 -5.872e-06 0 -3.45724e-06 -6.32492e-06 0 -3.84536e-06 -6.8267e-06 0 -4.2753e-06 -7.37124e-06 0 -4.7533e-06 -7.96409e-06 0 -5.2869e-06 -8.60883e-06 0 -5.88451e-06 -9.30041e-06 0 -6.55585e-06 -1.00462e-05 0 -7.3122e-06 -1.08402e-05 0 -8.16585e-06 -1.16786e-05 0 -9.1307e-06 -1.2558e-05 0 -1.02216e-05 -1.34684e-05 0 -1.1454e-05 -1.43965e-05 0 -1.28431e-05 -1.53239e-05 0 -1.44027e-05 -1.62266e-05 0 -1.61434e-05 -1.70737e-05 0 -1.807e-05 -1.7828e-05 0 0 -2.81363e-06 0 -1.74405e-07 -2.82554e-06 0 -3.50232e-07 -2.85714e-06 0 -5.28883e-07 -2.91009e-06 0 -7.11848e-07 -2.98615e-06 0 -9.00628e-07 -3.08293e-06 0 -1.09679e-06 -3.20424e-06 0 -1.30205e-06 -3.34919e-06 0 -1.51817e-06 -3.51729e-06 0 -1.74708e-06 -3.71454e-06 0 -1.99092e-06 -3.93713e-06 0 -2.25196e-06 -4.18843e-06 0 -2.53281e-06 -4.47157e-06 0 -2.83631e-06 -4.78427e-06 0 -3.16565e-06 -5.13293e-06 0 -3.52451e-06 -5.51644e-06 0 -3.91691e-06 -5.93477e-06 0 -4.34755e-06 -6.39635e-06 0 -4.82174e-06 -6.89531e-06 0 -5.34539e-06 -7.43594e-06 0 -5.92542e-06 -8.02054e-06 0 -6.56945e-06 -8.644e-06 0 -7.28599e-06 -9.31125e-06 0 -8.08471e-06 -1.00159e-05 0 -8.97579e-06 -1.07536e-05 0 -9.97036e-06 -1.15192e-05 0 -1.10798e-05 -1.23024e-05 0 -1.23153e-05 -1.30902e-05 0 -1.36872e-05 -1.38654e-05 0 -1.52037e-05 -1.46063e-05 0 -1.68697e-05 -1.52865e-05 0 -1.86847e-05 -1.58754e-05 0 0 -2.62917e-06 0 -1.94862e-07 -2.64025e-06 0 -3.91288e-07 -2.66964e-06 0 -5.90823e-07 -2.71888e-06 0 -7.95101e-07 -2.78958e-06 0 -1.00576e-06 -2.87951e-06 0 -1.22453e-06 -2.99215e-06 0 -1.45323e-06 -3.12665e-06 0 -1.69379e-06 -3.28253e-06 0 -1.94827e-06 -3.46522e-06 0 -2.21892e-06 -3.67113e-06 0 -2.50813e-06 -3.90329e-06 0 -2.81862e-06 -4.16438e-06 0 -3.15328e-06 -4.45222e-06 0 -3.51533e-06 -4.77237e-06 0 -3.90844e-06 -5.12361e-06 0 -4.33655e-06 -5.50564e-06 0 -4.80418e-06 -5.92554e-06 0 -5.31634e-06 -6.37776e-06 0 -5.8785e-06 -6.8655e-06 0 -6.49693e-06 -7.39004e-06 0 -7.17834e-06 -7.94642e-06 0 -7.93011e-06 -8.53762e-06 0 -8.7603e-06 -9.15735e-06 0 -9.67716e-06 -9.80073e-06 0 -1.06894e-05 -1.04619e-05 0 -1.18054e-05 -1.1131e-05 0 -1.3033e-05 -1.17956e-05 0 -1.43787e-05 -1.24402e-05 0 -1.58468e-05 -1.30459e-05 0 -1.74381e-05 -1.35903e-05 0 -1.9149e-05 -1.40485e-05 0 0 -2.42505e-06 0 -2.13767e-07 -2.43522e-06 0 -4.29225e-07 -2.4622e-06 0 -6.48042e-07 -2.50739e-06 0 -8.71981e-07 -2.57225e-06 0 -1.10281e-06 -2.65472e-06 0 -1.34235e-06 -2.75797e-06 0 -1.59258e-06 -2.88117e-06 0 -1.85552e-06 -3.02384e-06 0 -2.13333e-06 -3.19086e-06 0 -2.42838e-06 -3.37891e-06 0 -2.74312e-06 -3.59062e-06 0 -3.08031e-06 -3.82833e-06 0 -3.4429e-06 -4.08992e-06 0 -3.83408e-06 -4.3802e-06 0 -4.25745e-06 -4.69788e-06 0 -4.71681e-06 -5.04248e-06 0 -5.21645e-06 -5.41984e-06 0 -5.76104e-06 -5.82482e-06 0 -6.35556e-06 -6.25973e-06 0 -7.00561e-06 -6.7251e-06 0 -7.71704e-06 -7.2162e-06 0 -8.49607e-06 -7.73457e-06 0 -9.34933e-06 -8.27423e-06 0 -1.02834e-05 -8.8302e-06 0 -1.13047e-05 -9.39641e-06 0 -1.24194e-05 -9.96361e-06 0 -1.36325e-05 -1.05206e-05 0 -1.49476e-05 -1.10535e-05 0 -1.63661e-05 -1.15462e-05 0 -1.78862e-05 -1.19802e-05 0 -1.95024e-05 -1.2335e-05 0 0 -2.20284e-06 0 -2.31123e-07 -2.21204e-06 0 -4.64049e-07 -2.23643e-06 0 -7.00554e-07 -2.27728e-06 0 -9.42512e-07 -2.33589e-06 0 -1.19179e-06 -2.41039e-06 0 -1.45034e-06 -2.5036e-06 0 -1.72021e-06 -2.61475e-06 0 -2.00352e-06 -2.74338e-06 0 -2.30253e-06 -2.89379e-06 0 -2.61965e-06 -3.06298e-06 0 -2.95741e-06 -3.2532e-06 0 -3.31858e-06 -3.46643e-06 0 -3.70611e-06 -3.7007e-06 0 -4.12315e-06 -3.9601e-06 0 -4.57319e-06 -4.24332e-06 0 -5.05987e-06 -4.54977e-06 0 -5.58721e-06 -4.88421e-06 0 -6.15953e-06 -5.24197e-06 0 -6.7813e-06 -5.62463e-06 0 -7.45748e-06 -6.03218e-06 0 -8.19308e-06 -6.46028e-06 0 -8.99328e-06 -6.90939e-06 0 -9.8634e-06 -7.37402e-06 0 -1.08085e-05 -7.84937e-06 0 -1.18332e-05 -8.32949e-06 0 -1.29417e-05 -8.80603e-06 0 -1.41369e-05 -9.26907e-06 0 -1.542e-05 -9.70663e-06 0 -1.67903e-05 -1.01051e-05 0 -1.82443e-05 -1.04491e-05 0 -1.97751e-05 -1.07224e-05 0 0 -1.96429e-06 0 -2.46479e-07 -1.97245e-06 0 -4.94856e-07 -1.9941e-06 0 -7.46997e-07 -2.03036e-06 0 -1.00487e-06 -2.08236e-06 0 -1.27043e-06 -2.14844e-06 0 -1.5457e-06 -2.23107e-06 0 -1.83284e-06 -2.32955e-06 0 -2.134e-06 -2.44343e-06 0 -2.45152e-06 -2.57648e-06 0 -2.78787e-06 -2.72598e-06 0 -3.14558e-06 -2.89387e-06 0 -3.52744e-06 -3.08178e-06 0 -3.93636e-06 -3.28793e-06 0 -4.37543e-06 -3.51572e-06 0 -4.848e-06 -3.76391e-06 0 -5.35753e-06 -4.03184e-06 0 -5.90779e-06 -4.32333e-06 0 -6.50271e-06 -4.63422e-06 0 -7.14632e-06 -4.96556e-06 0 -7.84295e-06 -5.31697e-06 0 -8.59686e-06 -5.68454e-06 0 -9.41232e-06 -6.06804e-06 0 -1.02935e-05 -6.46257e-06 0 -1.12443e-05 -6.86368e-06 0 -1.22679e-05 -7.26582e-06 0 -1.33668e-05 -7.66168e-06 0 -1.45423e-05 -8.04265e-06 0 -1.57942e-05 -8.39859e-06 0 -1.71201e-05 -8.71816e-06 0 -1.85155e-05 -8.98893e-06 0 -1.99729e-05 -9.19774e-06 0 0 -1.71124e-06 0 -2.6008e-07 -1.71832e-06 0 -5.22138e-07 -1.7371e-06 0 -7.88118e-07 -1.76855e-06 0 -1.06006e-06 -1.81365e-06 0 -1.34001e-06 -1.87093e-06 0 -1.63004e-06 -1.94253e-06 0 -1.93238e-06 -2.02782e-06 0 -2.24924e-06 -2.12638e-06 0 -2.58301e-06 -2.24143e-06 0 -2.93617e-06 -2.37059e-06 0 -3.31128e-06 -2.51548e-06 0 -3.71112e-06 -2.67744e-06 0 -4.13854e-06 -2.85487e-06 0 -4.59655e-06 -3.05058e-06 0 -5.08839e-06 -3.2634e-06 0 -5.61732e-06 -3.49269e-06 0 -6.18685e-06 -3.74145e-06 0 -6.80057e-06 -4.00607e-06 0 -7.46209e-06 -4.28719e-06 0 -8.17516e-06 -4.58423e-06 0 -8.94339e-06 -4.89378e-06 0 -9.77026e-06 -5.2152e-06 0 -1.0659e-05 -5.54422e-06 0 -1.16124e-05 -5.87688e-06 0 -1.26326e-05 -6.20822e-06 0 -1.37207e-05 -6.53201e-06 0 -1.48768e-05 -6.84098e-06 0 -1.60995e-05 -7.1267e-06 0 -1.73854e-05 -7.37992e-06 0 -1.87292e-05 -7.59066e-06 0 -2.01229e-05 -7.74849e-06 0 0 -1.44557e-06 0 -2.71745e-07 -1.45154e-06 0 -5.45533e-07 -1.46734e-06 0 -8.23372e-07 -1.49381e-06 0 -1.10737e-06 -1.53175e-06 0 -1.39962e-06 -1.57993e-06 0 -1.70227e-06 -1.64012e-06 0 -2.01758e-06 -1.71179e-06 0 -2.34781e-06 -1.79457e-06 0 -2.69539e-06 -1.89112e-06 0 -3.0628e-06 -1.99943e-06 0 -3.45261e-06 -2.12081e-06 0 -3.86758e-06 -2.25634e-06 0 -4.31051e-06 -2.40463e-06 0 -4.78433e-06 -2.56795e-06 0 -5.29213e-06 -2.74525e-06 0 -5.83703e-06 -2.93594e-06 0 -6.42229e-06 -3.14232e-06 0 -7.05118e-06 -3.36137e-06 0 -7.72694e-06 -3.59344e-06 0 -8.45284e-06 -3.83787e-06 0 -9.23191e-06 -4.09178e-06 0 -1.0067e-05 -4.35433e-06 0 -1.09605e-05 -4.62195e-06 0 -1.19144e-05 -4.89125e-06 0 -1.29299e-05 -5.158e-06 0 -1.40071e-05 -5.41702e-06 0 -1.51452e-05 -5.66236e-06 0 -1.63418e-05 -5.88722e-06 0 -1.7593e-05 -6.08421e-06 0 -1.88928e-05 -6.24547e-06 0 -2.02333e-05 -6.36288e-06 0 0 -1.16933e-06 0 -2.81257e-07 -1.17414e-06 0 -5.6461e-07 -1.18688e-06 0 -8.52115e-07 -1.20822e-06 0 -1.14593e-06 -1.2388e-06 0 -1.4482e-06 -1.27763e-06 0 -1.76109e-06 -1.32612e-06 0 -2.08693e-06 -1.38383e-06 0 -2.428e-06 -1.45046e-06 0 -2.78674e-06 -1.52813e-06 0 -3.16565e-06 -1.61519e-06 0 -3.56729e-06 -1.71269e-06 0 -3.99439e-06 -1.82144e-06 0 -4.4497e-06 -1.94032e-06 0 -4.93607e-06 -2.07107e-06 0 -5.4565e-06 -2.21283e-06 0 -6.01393e-06 -2.36505e-06 0 -6.61142e-06 -2.52948e-06 0 -7.25199e-06 -2.70367e-06 0 -7.93856e-06 -2.8878e-06 0 -8.67401e-06 -3.08121e-06 0 -9.46091e-06 -3.2816e-06 0 -1.03015e-05 -3.4881e-06 0 -1.11978e-05 -3.69785e-06 0 -1.21509e-05 -3.90809e-06 0 -1.31613e-05 -4.11537e-06 0 -1.42286e-05 -4.31558e-06 0 -1.53511e-05 -4.50406e-06 0 -1.65259e-05 -4.67547e-06 0 -1.77486e-05 -4.82417e-06 0 -1.90128e-05 -4.94412e-06 0 -2.03107e-05 -5.0292e-06 0 0 -8.84539e-07 0 -2.88846e-07 -8.88167e-07 0 -5.79827e-07 -8.97784e-07 0 -8.7504e-07 -9.13879e-07 0 -1.17668e-06 -9.36948e-07 0 -1.48692e-06 -9.66231e-07 0 -1.80798e-06 -1.00279e-06 0 -2.14219e-06 -1.04629e-06 0 -2.49186e-06 -1.09649e-06 0 -2.85945e-06 -1.15498e-06 0 -3.24746e-06 -1.22051e-06 0 -3.65844e-06 -1.29385e-06 0 -4.0951e-06 -1.37559e-06 0 -4.56014e-06 -1.46487e-06 0 -5.05635e-06 -1.56296e-06 0 -5.58662e-06 -1.6692e-06 0 -6.15377e-06 -1.78315e-06 0 -6.7607e-06 -1.90604e-06 0 -7.41021e-06 -2.03604e-06 0 -8.10497e-06 -2.1732e-06 0 -8.84753e-06 -2.31698e-06 0 -9.64012e-06 -2.46564e-06 0 -1.04846e-05 -2.61841e-06 0 -1.13824e-05 -2.77316e-06 0 -1.23342e-05 -2.9278e-06 0 -1.334e-05 -3.0797e-06 0 -1.43988e-05 -3.22581e-06 0 -1.55084e-05 -3.36268e-06 0 -1.66656e-05 -3.48641e-06 0 -1.78654e-05 -3.59286e-06 0 -1.91015e-05 -3.67771e-06 0 -2.0366e-05 -3.73654e-06 0 0 -5.93282e-07 0 -2.94198e-07 -5.95711e-07 0 -5.90558e-07 -6.02149e-07 0 -8.91204e-07 -6.12924e-07 0 -1.19836e-06 -6.28365e-07 0 -1.51421e-06 -6.47962e-07 0 -1.84102e-06 -6.72426e-07 0 -2.18111e-06 -7.01526e-07 0 -2.53683e-06 -7.35101e-07 0 -2.91062e-06 -7.74201e-07 0 -3.30501e-06 -8.17996e-07 0 -3.72252e-06 -8.66985e-07 0 -4.16585e-06 -9.21553e-07 0 -4.63766e-06 -9.81124e-07 0 -5.14069e-06 -1.04653e-06 0 -5.67777e-06 -1.1173e-06 0 -6.25162e-06 -1.19315e-06 0 -6.865e-06 -1.27486e-06 0 -7.52059e-06 -1.3612e-06 0 -8.22086e-06 -1.45219e-06 0 -8.96815e-06 -1.54742e-06 0 -9.76444e-06 -1.64574e-06 0 -1.06113e-05 -1.74658e-06 0 -1.15098e-05 -1.84852e-06 0 -1.24603e-05 -1.95017e-06 0 -1.34625e-05 -2.04975e-06 0 -1.4515e-05 -2.14526e-06 0 -1.56153e-05 -2.2344e-06 0 -1.67599e-05 -2.31463e-06 0 -1.79436e-05 -2.38325e-06 0 -1.916e-05 -2.43743e-06 0 -2.04012e-05 -2.47435e-06 0 0 -2.9773e-07 0 -2.97417e-07 -2.98948e-07 0 -5.97013e-07 -3.02175e-07 0 -9.00926e-07 -3.07576e-07 0 -1.21139e-06 -3.15315e-07 0 -1.53063e-06 -3.25136e-07 0 -1.86088e-06 -3.37395e-07 0 -2.20451e-06 -3.51975e-07 0 -2.56385e-06 -3.68794e-07 0 -2.94137e-06 -3.88376e-07 0 -3.33958e-06 -4.10306e-07 0 -3.76099e-06 -4.34828e-07 0 -4.2083e-06 -4.62134e-07 0 -4.68415e-06 -4.91933e-07 0 -5.19125e-06 -5.24635e-07 0 -5.73237e-06 -5.60006e-07 0 -6.31018e-06 -5.97894e-07 0 -6.92738e-06 -6.38681e-07 0 -7.58654e-06 -6.81751e-07 0 -8.29003e-06 -7.27103e-07 0 -9.04006e-06 -7.74527e-07 0 -9.83843e-06 -8.23443e-07 0 -1.06866e-05 -8.73559e-07 0 -1.15854e-05 -9.24159e-07 0 -1.2535e-05 -9.74545e-07 0 -1.35349e-05 -1.02383e-06 0 -1.45835e-05 -1.07101e-06 0 -1.56781e-05 -1.11495e-06 0 -1.6815e-05 -1.15438e-06 0 -1.79891e-05 -1.18799e-06 0 -1.91937e-05 -1.21437e-06 0 -2.0421e-05 -1.23215e-06 0 0 -0 0 -2.98636e-07 -0 0 -5.99456e-07 -0 0 -9.04606e-07 -0 0 -1.21633e-06 -0 0 -1.53684e-06 -0 0 -1.86839e-06 -0 0 -2.21336e-06 -0 0 -2.57408e-06 -0 0 -2.953e-06 -0 0 -3.35265e-06 -0 0 -3.77554e-06 -0 0 -4.22435e-06 -0 0 -4.70172e-06 -0 0 -5.21035e-06 -0 0 -5.75299e-06 -0 0 -6.33229e-06 -0 0 -6.95092e-06 -0 0 -7.61142e-06 -0 0 -8.31611e-06 -0 0 -9.06715e-06 -0 0 -9.8663e-06 -0 0 -1.07149e-05 -0 0 -1.16138e-05 -0 0 -1.25631e-05 -0 0 -1.3562e-05 -0 0 -1.46091e-05 -0 0 -1.57016e-05 -0 0 -1.68356e-05 -0 0 -1.8006e-05 -0 0 -1.92062e-05 -0 0 -2.04283e-05 -0 0 </DataArray> 
</PointData> 
<Points> 
<DataArray type="Float32" NumberOfComponents="3"> 