<?xml version="1.0"?> 
<VTKFile type="StructuredGrid" version="0.1"> 
<StructuredGrid WholeExtent="0 31 0 31 0 0"> 
<Piece Extent="0 31 0 31 0 0"> 
<PointData>
<DataArray type="Float32" Name="B" format="ascii" NumberOfComponents="3"> 
-1.24899e-05 -0 0 -1.32474e-05 -0 0 -1.40063e-05 -0 0 -1.47594e-05 -0 0 -1.54989e-05 -0 0 -1.62166e-05 -0 0 -1.69039e-05 -0 0 -1.75524e-05 -0 0 -1.81535e-05 -0 0 -1.86994e-05 -0 0 -1.91824e-05 -0 0 -1.9596e-05 -0 0 -1.99341e-05 -0 0 -2.01921e-05 -0 0 -2.03662e-05 -0 0 -2.04539e-05 -0 0 -2.04539e-05 -0 0 -2.03662e-05 -0 0 -2.01921e-05 -0 0 -1.99341e-05 -0 0 -1.9596e-05 -0 0 -1.91824e-05 -0 0 -1.86994e-05 -0 0 -1.81535e-05 -0 0 -1.75524e-05 -0 0 -1.69039e-05 -0 0 -1.62166e-05 -0 0 -1.54989e-05 -0 0 -1.47594e-05 -0 0 -1.40063e-05 -0 0 -1.32474e-05 -0 0 -1.24899e-05 -0 0 -1.24853e-05 7.55876e-07 0 -1.32465e-05 7.60808e-07 0 -1.40095e-05 7.58851e-07 0 -1.4767e-05 7.49343e-07 0 -1.55112e-05 7.31756e-07 0 -1.62336e-05 7.05712e-07 0 -1.69258e-05 6.71079e-07 0 -1.7579e-05 6.27905e-07 0 -1.81847e-05 5.76347e-07 0 -1.87347e-05 5.17073e-07 0 -1.92216e-05 4.50628e-07 0 -1.96384e-05 3.77841e-07 0 -1.99793e-05 2.99675e-07 0 -2.02394e-05 2.17208e-07 0 -2.04149e-05 1.31603e-07 0 -2.05033e-05 4.40842e-08 0 -2.05033e-05 -4.40842e-08 0 -2.04149e-05 -1.31603e-07 0 -2.02394e-05 -2.17208e-07 0 -1.99793e-05 -2.99675e-07 0 -1.96384e-05 -3.77841e-07 0 -1.92216e-05 -4.50628e-07 0 -1.87347e-05 -5.17073e-07 0 -1.81847e-05 -5.76347e-07 0 -1.7579e-05 -6.27905e-07 0 -1.69258e-05 -6.71079e-07 0 -1.62336e-05 -7.05712e-07 0 -1.55112e-05 -7.31756e-07 0 -1.4767e-05 -7.49343e-07 0 -1.40095e-05 -7.58851e-07 0 -1.32465e-05 -7.60808e-07 0 -1.24853e-05 -7.55876e-07 0 -1.24729e-05 1.51793e-06 0 -1.32438e-05 1.52857e-06 0 -1.40177e-05 1.52534e-06 0 -1.47869e-05 1.50685e-06 0 -1.55435e-05 1.47204e-06 0 -1.62787e-05 1.42012e-06 0 -1.69838e-05 1.3508e-06 0 -1.76496e-05 1.26419e-06 0 -1.82674e-05 1.1606e-06 0 -1.88287e-05 1.04139e-06 0 -1.93257e-05 9.07667e-07 0 -1.97514e-05 7.61115e-07 0 -2.00995e-05 6.0369e-07 0 -2.03651e-05 4.37576e-07 0 -2.05444e-05 2.65126e-07 0 -2.06347e-05 8.88123e-08 0 -2.06347e-05 -8.88123e-08 0 -2.05444e-05 -2.65126e-07 0 -2.03651e-05 -4.37576e-07 0 -2.00995e-05 -6.0369e-07 0 -1.97514e-05 -7.61115e-07 0 -1.93257e-05 -9.07667e-07 0 -1.88287e-05 -1.04139e-06 0 -1.82674e-05 -1.1606e-06 0 -1.76496e-05 -1.26419e-06 0 -1.69838e-05 -1.3508e-06 0 -1.62787e-05 -1.42012e-06 0 -1.55435e-05 -1.47204e-06 0 -1.47869e-05 -1.50685e-06 0 -1.40177e-05 -1.52534e-06 0 -1.32438e-05 -1.52857e-06 0 -1.24729e-05 -1.51793e-06 0 -1.24509e-05 2.29226e-06 0 -1.32382e-05 2.31019e-06 0 -1.40303e-05 2.30704e-06 0 -1.48193e-05 2.28067e-06 0 -1.55969e-05 2.22937e-06 0 -1.63538e-05 2.1519e-06 0 -1.70807e-05 2.04782e-06 0 -1.7768e-05 1.91724e-06 0 -1.84063e-05 1.76067e-06 0 -1.89867e-05 1.58019e-06 0 -1.95009e-05 1.37751e-06 0 -1.99414e-05 1.15524e-06 0 -2.03018e-05 9.16367e-07 0 -2.05768e-05 6.64247e-07 0 -2.07625e-05 4.02476e-07 0 -2.0856e-05 1.34824e-07 0 -2.0856e-05 -1.34824e-07 0 -2.07625e-05 -4.02476e-07 0 -2.05768e-05 -6.64247e-07 0 -2.03018e-05 -9.16367e-07 0 -1.99414e-05 -1.15524e-06 0 -1.95009e-05 -1.37751e-06 0 -1.89867e-05 -1.58019e-06 0 -1.84063e-05 -1.76067e-06 0 -1.7768e-05 -1.91724e-06 0 -1.70807e-05 -2.04782e-06 0 -1.63538e-05 -2.1519e-06 0 -1.55969e-05 -2.22937e-06 0 -1.48193e-05 -2.28067e-06 0 -1.40303e-05 -2.30704e-06 0 -1.32382e-05 -2.31019e-06 0 -1.24509e-05 -2.29226e-06 0 -1.24163e-05 3.08532e-06 0 -1.32273e-05 3.11303e-06 0 -1.40459e-05 3.11213e-06 0 -1.48638e-05 3.0796e-06 0 -1.5672e-05 3.01299e-06 0 -1.64606e-05 2.91053e-06 0 -1.72194e-05 2.77154e-06 0 -1.79381e-05 2.59619e-06 0 -1.86065e-05 2.38516e-06 0 -1.92148e-05 2.14133e-06 0 -1.9754e-05 1.86709e-06 0 -2.02162e-05 1.56606e-06 0 -2.05945e-05 1.24236e-06 0 -2.08832e-05 9.006e-07 0 -2.10781e-05 5.45702e-07 0 -2.11762e-05 1.82805e-07 0 -2.11762e-05 -1.82805e-07 0 -2.10781e-05 -5.45702e-07 0 -2.08832e-05 -9.006e-07 0 -2.05945e-05 -1.24236e-06 0 -2.02162e-05 -1.56606e-06 0 -1.9754e-05 -1.86709e-06 0 -1.92148e-05 -2.14133e-06 0 -1.86065e-05 -2.38516e-06 0 -1.79381e-05 -2.59619e-06 0 -1.72194e-05 -2.77154e-06 0 -1.64606e-05 -2.91053e-06 0 -1.5672e-05 -3.01299e-06 0 -1.48638e-05 -3.0796e-06 0 -1.40459e-05 -3.11213e-06 0 -1.32273e-05 -3.11303e-06 0 -1.24163e-05 -3.08532e-06 0 -1.2368e-05 3.90358e-06 0 -1.32093e-05 3.94456e-06 0 -1.40619e-05 3.94899e-06 0 -1.49172e-05 3.91275e-06 0 -1.57651e-05 3.83252e-06 0 -1.65949e-05 3.70586e-06 0 -1.73953e-05 3.53182e-06 0 -1.81549e-05 3.31058e-06 0 -1.88623e-05 3.04302e-06 0 -1.95068e-05 2.73297e-06 0 -2.00786e-05 2.38358e-06 0 -2.05689e-05 1.9996e-06 0 -2.09702e-05 1.58645e-06 0 -2.12766e-05 1.15009e-06 0 -2.14833e-05 6.96891e-07 0 -2.15875e-05 2.33453e-07 0 -2.15875e-05 -2.33453e-07 0 -2.14833e-05 -6.96891e-07 0 -2.12766e-05 -1.15009e-06 0 -2.09702e-05 -1.58645e-06 0 -2.05689e-05 -1.9996e-06 0 -2.00786e-05 -2.38358e-06 0 -1.95068e-05 -2.73297e-06 0 -1.88623e-05 -3.04302e-06 0 -1.81549e-05 -3.31058e-06 0 -1.73953e-05 -3.53182e-06 0 -1.65949e-05 -3.70586e-06 0 -1.57651e-05 -3.83252e-06 0 -1.49172e-05 -3.91275e-06 0 -1.40619e-05 -3.94899e-06 0 -1.32093e-05 -3.94456e-06 0 -1.2368e-05 -3.90358e-06 0 -1.22993e-05 4.75374e-06 0 -1.31789e-05 4.8127e-06 0 -1.40751e-05 4.8266e-06 0 -1.49782e-05 4.79001e-06 0 -1.58773e-05 4.69848e-06 0 -1.67604e-05 4.54875e-06 0 -1.76147e-05 4.33949e-06 0 -1.84271e-05 4.07087e-06 0 -1.9185e-05 3.74408e-06 0 -1.98763e-05 3.364e-06 0 -2.04899e-05 2.93473e-06 0 -2.10163e-05 2.46235e-06 0 -2.14471e-05 1.95373e-06 0 -2.17759e-05 1.41639e-06 0 -2.19978e-05 8.58254e-07 0 -2.21096e-05 2.87508e-07 0 -2.21096e-05 -2.87508e-07 0 -2.19978e-05 -8.58254e-07 0 -2.17759e-05 -1.41639e-06 0 -2.14471e-05 -1.95373e-06 0 -2.10163e-05 -2.46235e-06 0 -2.04899e-05 -2.93473e-06 0 -1.98763e-05 -3.364e-06 0 -1.9185e-05 -3.74408e-06 0 -1.84271e-05 -4.07087e-06 0 -1.76147e-05 -4.33949e-06 0 -1.67604e-05 -4.54875e-06 0 -1.58773e-05 -4.69848e-06 0 -1.49782e-05 -4.79001e-06 0 -1.40751e-05 -4.8266e-06 0 -1.31789e-05 -4.8127e-06 0 -1.22993e-05 -4.75374e-06 0 -1.22059e-05 5.643e-06 0 -1.31318e-05 5.72614e-06 0 -1.4081e-05 5.75504e-06 0 -1.5043e-05 5.7226e-06 0 -1.60053e-05 5.62291e-06 0 -1.69543e-05 5.45165e-06 0 -1.78753e-05 5.20698e-06 0 -1.87534e-05 4.88909e-06 0 -1.95738e-05 4.49953e-06 0 -2.03228e-05 4.04449e-06 0 -2.09879e-05 3.52925e-06 0 -2.15583e-05 2.9615e-06 0 -2.20251e-05 2.34982e-06 0 -2.23812e-05 1.7035e-06 0 -2.26215e-05 1.03219e-06 0 -2.27425e-05 3.45765e-07 0 -2.27425e-05 -3.45765e-07 0 -2.26215e-05 -1.03219e-06 0 -2.23812e-05 -1.7035e-06 0 -2.20251e-05 -2.34982e-06 0 -2.15583e-05 -2.9615e-06 0 -2.09879e-05 -3.52925e-06 0 -2.03228e-05 -4.04449e-06 0 -1.95738e-05 -4.49953e-06 0 -1.87534e-05 -4.88909e-06 0 -1.78753e-05 -5.20698e-06 0 -1.69543e-05 -5.45165e-06 0 -1.60053e-05 -5.62291e-06 0 -1.5043e-05 -5.7226e-06 0 -1.4081e-05 -5.75504e-06 0 -1.31318e-05 -5.72614e-06 0 -1.22059e-05 -5.643e-06 0 -1.20829e-05 6.57859e-06 0 -1.30631e-05 6.69391e-06 0 -1.40751e-05 6.74503e-06 0 -1.51073e-05 6.72265e-06 0 -1.61457e-05 6.61899e-06 0 -1.71743e-05 6.42829e-06 0 -1.8176e-05 6.14804e-06 0 -1.91333e-05 5.77844e-06 0 -2.0029e-05 5.32156e-06 0 -2.08473e-05 4.78527e-06 0 -2.15739e-05 4.1764e-06 0 -2.21967e-05 3.5046e-06 0 -2.2706e-05 2.78055e-06 0 -2.30943e-05 2.01553e-06 0 -2.33561e-05 1.22113e-06 0 -2.34878e-05 4.09033e-07 0 -2.34878e-05 -4.09033e-07 0 -2.33561e-05 -1.22113e-06 0 -2.30943e-05 -2.01553e-06 0 -2.2706e-05 -2.78055e-06 0 -2.21967e-05 -3.5046e-06 0 -2.15739e-05 -4.1764e-06 0 -2.08473e-05 -4.78527e-06 0 -2.0029e-05 -5.32156e-06 0 -1.91333e-05 -5.77844e-06 0 -1.8176e-05 -6.14804e-06 0 -1.71743e-05 -6.42829e-06 0 -1.61457e-05 -6.61899e-06 0 -1.51073e-05 -6.72265e-06 0 -1.40751e-05 -6.74503e-06 0 -1.30631e-05 -6.69391e-06 0 -1.20829e-05 -6.57859e-06 0 -1.19136e-05 7.56822e-06 0 -1.29581e-05 7.72607e-06 0 -1.40461e-05 7.80888e-06 0 -1.51643e-05 7.80442e-06 0 -1.62967e-05 7.70239e-06 0 -1.74242e-05 7.49507e-06 0 -1.85265e-05 7.17906e-06 0 -1.95824e-05 6.75457e-06 0 -2.05714e-05 6.22448e-06 0 -2.14748e-05 5.59888e-06 0 -2.22764e-05 4.88667e-06 0 -2.29626e-05 4.10005e-06 0 -2.35229e-05 3.25223e-06 0 -2.39494e-05 2.35686e-06 0 -2.42365e-05 1.42765e-06 0 -2.43809e-05 4.78155e-07 0 -2.43809e-05 -4.78155e-07 0 -2.42365e-05 -1.42765e-06 0 -2.39494e-05 -2.35686e-06 0 -2.35229e-05 -3.25223e-06 0 -2.29626e-05 -4.10005e-06 0 -2.22764e-05 -4.88667e-06 0 -2.14748e-05 -5.59888e-06 0 -2.05714e-05 -6.22448e-06 0 -1.95824e-05 -6.75457e-06 0 -1.85265e-05 -7.17906e-06 0 -1.74242e-05 -7.49507e-06 0 -1.62967e-05 -7.70239e-06 0 -1.51643e-05 -7.80442e-06 0 -1.40461e-05 -7.80888e-06 0 -1.29581e-05 -7.72607e-06 0 -1.19136e-05 -7.56822e-06 0 -1.16943e-05 8.61979e-06 0 -1.28122e-05 8.83357e-06 0 -1.39882e-05 8.9605e-06 0 -1.52077e-05 8.98444e-06 0 -1.64516e-05 8.89156e-06 0 -1.76975e-05 8.67146e-06 0 -1.892e-05 8.31945e-06 0 -2.00936e-05 7.83586e-06 0 -2.11935e-05 7.2248e-06 0 -2.21973e-05 6.49946e-06 0 -2.30864e-05 5.6716e-06 0 -2.38458e-05 4.75681e-06 0 -2.44643e-05 3.77145e-06 0 -2.4934e-05 2.73194e-06 0 -2.52496e-05 1.65429e-06 0 -2.54082e-05 5.5396e-07 0 -2.54082e-05 -5.5396e-07 0 -2.52496e-05 -1.65429e-06 0 -2.4934e-05 -2.73194e-06 0 -2.44643e-05 -3.77145e-06 0 -2.38458e-05 -4.75681e-06 0 -2.30864e-05 -5.6716e-06 0 -2.21973e-05 -6.49946e-06 0 -2.11935e-05 -7.2248e-06 0 -2.00936e-05 -7.83586e-06 0 -1.892e-05 -8.31945e-06 0 -1.76975e-05 -8.67146e-06 0 -1.64516e-05 -8.89156e-06 0 -1.52077e-05 -8.98444e-06 0 -1.39882e-05 -8.9605e-06 0 -1.28122e-05 -8.83357e-06 0 -1.16943e-05 -8.61979e-06 0 -1.14065e-05 9.74102e-06 0 -1.26077e-05 1.0028e-05 0 -1.38862e-05 1.02154e-05 0 -1.5226e-05 1.02818e-05 0 -1.66044e-05 1.02082e-05 0 -1.79938e-05 9.98053e-06 0 -1.93627e-05 9.59216e-06 0 -2.0679e-05 9.04372e-06 0 -2.1912e-05 8.34135e-06 0 -2.30351e-05 7.50262e-06 0 -2.40265e-05 6.54347e-06 0 -2.48701e-05 5.48401e-06 0 -2.55546e-05 4.3446e-06 0 -2.60727e-05 3.14489e-06 0 -2.64199e-05 1.90334e-06 0 -2.6594e-05 6.37179e-07 0 -2.6594e-05 -6.37179e-07 0 -2.64199e-05 -1.90334e-06 0 -2.60727e-05 -3.14489e-06 0 -2.55546e-05 -4.3446e-06 0 -2.48701e-05 -5.48401e-06 0 -2.40265e-05 -6.54347e-06 0 -2.30351e-05 -7.50262e-06 0 -2.1912e-05 -8.34135e-06 0 -2.0679e-05 -9.04372e-06 0 -1.93627e-05 -9.59216e-06 0 -1.79938e-05 -9.98053e-06 0 -1.66044e-05 -1.02082e-05 0 -1.5226e-05 -1.02818e-05 0 -1.38862e-05 -1.02154e-05 0 -1.26077e-05 -1.0028e-05 0 -1.14065e-05 -9.74102e-06 0 -1.10258e-05 1.09395e-05 0 -1.23205e-05 1.13222e-05 0 -1.37187e-05 1.15922e-05 0 -1.52025e-05 1.17202e-05 0 -1.67451e-05 1.16801e-05 0 -1.83113e-05 1.1452e-05 0 -1.9861e-05 1.10266e-05 0 -2.13525e-05 1.04051e-05 0 -2.2747e-05 9.59708e-06 0 -2.40121e-05 8.62661e-06 0 -2.51229e-05 7.51582e-06 0 -2.60624e-05 6.29106e-06 0 -2.68204e-05 4.97778e-06 0 -2.73911e-05 3.59937e-06 0 -2.77722e-05 2.1767e-06 0 -2.79628e-05 7.28387e-07 0 -2.79628e-05 -7.28387e-07 0 -2.77722e-05 -2.1767e-06 0 -2.73911e-05 -3.59937e-06 0 -2.68204e-05 -4.97778e-06 0 -2.60624e-05 -6.29106e-06 0 -2.51229e-05 -7.51582e-06 0 -2.40121e-05 -8.62661e-06 0 -2.2747e-05 -9.59708e-06 0 -2.13525e-05 -1.04051e-05 0 -1.9861e-05 -1.10266e-05 0 -1.83113e-05 -1.1452e-05 0 -1.67451e-05 -1.16801e-05 0 -1.52025e-05 -1.17202e-05 0 -1.37187e-05 -1.15922e-05 0 -1.23205e-05 -1.13222e-05 0 -1.10258e-05 -1.09395e-05 0 -1.05401e-05 1.22212e-05 0 -1.19368e-05 1.27293e-05 0 -1.34711e-05 1.31114e-05 0 -1.51239e-05 1.33278e-05 0 -1.68632e-05 1.33413e-05 0 -1.86441e-05 1.31229e-05 0 -2.04136e-05 1.26591e-05 0 -2.21164e-05 1.19525e-05 0 -2.37027e-05 1.10184e-05 0 -2.51326e-05 9.89103e-06 0 -2.63783e-05 8.60197e-06 0 -2.74232e-05 7.18616e-06 0 -2.82595e-05 5.67553e-06 0 -2.88851e-05 4.09757e-06 0 -2.93007e-05 2.47524e-06 0 -2.95079e-05 8.27807e-07 0 -2.95079e-05 -8.27807e-07 0 -2.93007e-05 -2.47524e-06 0 -2.88851e-05 -4.09757e-06 0 -2.82595e-05 -5.67553e-06 0 -2.74232e-05 -7.18616e-06 0 -2.63783e-05 -8.60197e-06 0 -2.51326e-05 -9.89103e-06 0 -2.37027e-05 -1.10184e-05 0 -2.21164e-05 -1.19525e-05 0 -2.04136e-05 -1.26591e-05 0 -1.86441e-05 -1.31229e-05 0 -1.68632e-05 -1.33413e-05 0 -1.51239e-05 -1.33278e-05 0 -1.34711e-05 -1.31114e-05 0 -1.19368e-05 -1.27293e-05 0 -1.05401e-05 -1.22212e-05 0 -9.89826e-06 1.35898e-05 0 -1.14039e-05 1.42618e-05 0 -1.30938e-05 1.4797e-05 0 -1.49502e-05 1.51397e-05 0 -1.69348e-05 1.52358e-05 0 -1.89887e-05 1.50418e-05 0 -2.10383e-05 1.4537e-05 0 -2.30071e-05 1.37266e-05 0 -2.48281e-05 1.26363e-05 0 -2.64522e-05 1.13169e-05 0 -2.78498e-05 9.81421e-06 0 -2.90078e-05 8.17521e-06 0 -2.99243e-05 6.43972e-06 0 -3.06034e-05 4.63935e-06 0 -3.10515e-05 2.7983e-06 0 -3.12739e-05 9.35122e-07 0 -3.12739e-05 -9.35122e-07 0 -3.10515e-05 -2.7983e-06 0 -3.06034e-05 -4.63935e-06 0 -2.99243e-05 -6.43972e-06 0 -2.90078e-05 -8.17521e-06 0 -2.78498e-05 -9.81421e-06 0 -2.64522e-05 -1.13169e-05 0 -2.48281e-05 -1.26363e-05 0 -2.30071e-05 -1.37266e-05 0 -2.10383e-05 -1.4537e-05 0 -1.89887e-05 -1.50418e-05 0 -1.69348e-05 -1.52358e-05 0 -1.49502e-05 -1.51397e-05 0 -1.30938e-05 -1.4797e-05 0 -1.14039e-05 -1.42618e-05 0 -9.89826e-06 -1.35898e-05 0 -9.07163e-06 1.50433e-05 0 -1.06866e-05 1.59303e-05 0 -1.2549e-05 1.66756e-05 0 -1.46466e-05 1.72008e-05 0 -1.69356e-05 1.74244e-05 0 -1.9337e-05 1.72771e-05 0 -2.17441e-05 1.67258e-05 0 -2.40462e-05 1.57808e-05 0 -2.61506e-05 1.44879e-05 0 -2.79974e-05 1.29255e-05 0 -2.95589e-05 1.11615e-05 0 -3.08309e-05 9.25918e-06 0 -3.18226e-05 7.26729e-06 0 -3.25487e-05 5.2206e-06 0 -3.30235e-05 3.1427e-06 0 -3.3258e-05 1.04915e-06 0 -3.3258e-05 -1.04915e-06 0 -3.30235e-05 -3.1427e-06 0 -3.25487e-05 -5.2206e-06 0 -3.18226e-05 -7.26729e-06 0 -3.08309e-05 -9.25918e-06 0 -2.95589e-05 -1.11615e-05 0 -2.79974e-05 -1.29255e-05 0 -2.61506e-05 -1.44879e-05 0 -2.40462e-05 -1.57808e-05 0 -2.17441e-05 -1.67258e-05 0 -1.9337e-05 -1.72771e-05 0 -1.69356e-05 -1.74244e-05 0 -1.46466e-05 -1.72008e-05 0 -1.2549e-05 -1.66756e-05 0 -1.06866e-05 -1.59303e-05 0 -9.07163e-06 -1.50433e-05 0 -8.02245e-06 1.65705e-05 0 -9.73705e-06 1.77384e-05 0 -1.17823e-05 1.87734e-05 0 -1.41613e-05 1.95656e-05 0 -1.68293e-05 1.99879e-05 0 -1.96784e-05 1.9924e-05 0 -2.2551e-05 1.93145e-05 0 -2.52739e-05 1.81826e-05 0 -2.77173e-05 1.66134e-05 0 -2.98117e-05 1.47333e-05 0 -3.15399e-05 1.26445e-05 0 -3.29166e-05 1.04304e-05 0 -3.39697e-05 8.14771e-06 0 -3.47292e-05 5.8317e-06 0 -3.52204e-05 3.50189e-06 0 -3.54614e-05 1.16759e-06 0 -3.54614e-05 -1.16759e-06 0 -3.52204e-05 -3.50189e-06 0 -3.47292e-05 -5.8317e-06 0 -3.39697e-05 -8.14771e-06 0 -3.29166e-05 -1.04304e-05 0 -3.15399e-05 -1.26445e-05 0 -2.98117e-05 -1.47333e-05 0 -2.77173e-05 -1.66134e-05 0 -2.52739e-05 -1.81826e-05 0 -2.2551e-05 -1.93145e-05 0 -1.96784e-05 -1.9924e-05 0 -1.68293e-05 -1.99879e-05 0 -1.41613e-05 -1.95656e-05 0 -1.17823e-05 -1.87734e-05 0 -9.73705e-06 -1.77384e-05 0 -8.02245e-06 -1.65705e-05 0 -6.6361e-06 1.8143e-05 0 -8.41358e-06 1.96744e-05 0 -1.06331e-05 2.11108e-05 0 -1.33382e-05 2.23023e-05 0 -1.65062e-05 2.30468e-05 0 -1.99939e-05 2.31304e-05 0 -2.35353e-05 2.24396e-05 0 -2.68295e-05 2.10217e-05 0 -2.96861e-05 1.9053e-05 0 -3.20416e-05 1.67449e-05 0 -3.3916e-05 1.42481e-05 0 -3.53634e-05 1.16662e-05 0 -3.64432e-05 9.05867e-06 0 -3.72071e-05 6.45477e-06 0 -3.76946e-05 3.86455e-06 0 -3.79318e-05 1.28659e-06 0 -3.79318e-05 -1.28659e-06 0 -3.76946e-05 -3.86455e-06 0 -3.72071e-05 -6.45477e-06 0 -3.64432e-05 -9.05867e-06 0 -3.53634e-05 -1.16662e-05 0 -3.3916e-05 -1.42481e-05 0 -3.20416e-05 -1.67449e-05 0 -2.96861e-05 -1.9053e-05 0 -2.68295e-05 -2.10217e-05 0 -2.35353e-05 -2.24396e-05 0 -1.99939e-05 -2.31304e-05 0 -1.65062e-05 -2.30468e-05 0 -1.33382e-05 -2.23023e-05 0 -1.06331e-05 -2.11108e-05 0 -8.41358e-06 -1.96744e-05 0 -6.6361e-06 -1.8143e-05 0 -4.90099e-06 1.97055e-05 0 -6.67513e-06 2.16956e-05 0 -9.02155e-06 2.36832e-05 0 -1.20651e-05 2.54833e-05 0 -1.58639e-05 2.67811e-05 0 -2.02601e-05 2.71481e-05 0 -2.47318e-05 2.63155e-05 0 -2.87828e-05 2.441e-05 0 -3.21032e-05 2.18299e-05 0 -3.4693e-05 1.89347e-05 0 -3.66586e-05 1.59287e-05 0 -3.81196e-05 1.29221e-05 0 -3.91771e-05 9.96249e-06 0 -3.99084e-05 7.06208e-06 0 -4.03675e-05 4.2139e-06 0 -4.05888e-05 1.40055e-06 0 -4.05888e-05 -1.40055e-06 0 -4.03675e-05 -4.2139e-06 0 -3.99084e-05 -7.06208e-06 0 -3.91771e-05 -9.96249e-06 0 -3.81196e-05 -1.29221e-05 0 -3.66586e-05 -1.59287e-05 0 -3.4693e-05 -1.89347e-05 0 -3.21032e-05 -2.18299e-05 0 -2.87828e-05 -2.441e-05 0 -2.47318e-05 -2.63155e-05 0 -2.02601e-05 -2.71481e-05 0 -1.58639e-05 -2.67811e-05 0 -1.20651e-05 -2.54833e-05 0 -9.02155e-06 -2.36832e-05 0 -6.67513e-06 -2.16956e-05 0 -4.90099e-06 -1.97055e-05 0 -2.72047e-06 2.11661e-05 0 -4.36442e-06 2.37066e-05 0 -6.70338e-06 2.64226e-05 0 -1.00007e-05 2.91447e-05 0 -1.45528e-05 3.14509e-05 0 -2.03839e-05 3.25153e-05 0 -2.65548e-05 3.12957e-05 0 -3.16117e-05 2.84513e-05 0 -3.53633e-05 2.49068e-05 0 -3.80669e-05 2.1219e-05 0 -4.00003e-05 1.7601e-05 0 -4.13728e-05 1.41264e-05 0 -4.23314e-05 1.08046e-05 0 -4.29761e-05 7.61607e-06 0 -4.3373e-05 4.52811e-06 0 -4.35621e-05 1.50231e-06 0 -4.35621e-05 -1.50231e-06 0 -4.3373e-05 -4.52811e-06 0 -4.29761e-05 -7.61607e-06 0 -4.23314e-05 -1.08046e-05 0 -4.13728e-05 -1.41264e-05 0 -4.00003e-05 -1.7601e-05 0 -3.80669e-05 -2.1219e-05 0 -3.53633e-05 -2.49068e-05 0 -3.16117e-05 -2.84513e-05 0 -2.65548e-05 -3.12957e-05 0 -2.03839e-05 -3.25153e-05 0 -1.45528e-05 -3.14509e-05 0 -1.00007e-05 -2.91447e-05 0 -6.70338e-06 -2.64226e-05 0 -4.36442e-06 -2.37066e-05 0 -2.72047e-06 -2.11661e-05 0 -2.88981e-08 2.23816e-05 0 -1.34124e-06 2.55237e-05 0 -3.39562e-06 2.91157e-05 0 -6.59623e-06 3.31317e-05 0 -1.16701e-05 3.73407e-05 0 -2.02027e-05 4.02931e-05 0 -3.04846e-05 3.80073e-05 0 -3.65537e-05 3.30775e-05 0 -4.0387e-05 2.80802e-05 0 -4.29056e-05 2.34094e-05 0 -4.45907e-05 1.91187e-05 0 -4.57245e-05 1.51726e-05 0 -4.64816e-05 1.1511e-05 0 -4.69725e-05 8.06843e-06 0 -4.72664e-05 4.77997e-06 0 -4.7404e-05 1.5831e-06 0 -4.7404e-05 -1.5831e-06 0 -4.72664e-05 -4.77997e-06 0 -4.69725e-05 -8.06843e-06 0 -4.64816e-05 -1.1511e-05 0 -4.57245e-05 -1.51726e-05 0 -4.45907e-05 -1.91187e-05 0 -4.29056e-05 -2.34094e-05 0 -4.0387e-05 -2.80802e-05 0 -3.65537e-05 -3.30775e-05 0 -3.04846e-05 -3.80073e-05 0 -2.02027e-05 -4.02931e-05 0 -1.16701e-05 -3.73407e-05 0 -6.59623e-06 -3.31317e-05 0 -3.39562e-06 -2.91157e-05 0 -1.34124e-06 -2.55237e-05 0 -2.88981e-08 -2.23816e-05 0 3.11036e-06 2.31747e-05 0 2.35159e-06 2.68831e-05 0 9.38549e-07 3.13601e-05 0 -1.54232e-06 3.68227e-05 0 -5.87293e-06 4.36585e-05 0 -1.37413e-05 5.31873e-05 0 -2.32788e-05 4.58744e-05 0 -2.86518e-05 3.75805e-05 0 -3.17922e-05 3.08864e-05 0 -3.37045e-05 2.52087e-05 0 -3.48901e-05 2.02885e-05 0 -3.56283e-05 1.59338e-05 0 -3.60844e-05 1.19991e-05 0 -3.63589e-05 8.36762e-06 0 -3.6513e-05 4.94124e-06 0 -3.6582e-05 1.63393e-06 0 -3.6582e-05 -1.63393e-06 0 -3.6513e-05 -4.94124e-06 0 -3.63589e-05 -8.36762e-06 0 -3.60844e-05 -1.19991e-05 0 -3.56283e-05 -1.59338e-05 0 -3.48901e-05 -2.02885e-05 0 -3.37045e-05 -2.52087e-05 0 -3.17922e-05 -3.08864e-05 0 -2.86518e-05 -3.75805e-05 0 -2.32788e-05 -4.58744e-05 0 -1.37413e-05 -5.31873e-05 0 -5.87293e-06 -4.36585e-05 0 -1.54232e-06 -3.68227e-05 0 9.38549e-07 -3.13601e-05 0 2.35159e-06 -2.68831e-05 0 3.11036e-06 -2.31747e-05 0 6.67352e-06 2.33574e-05 0 6.71303e-06 2.74849e-05 0 6.3507e-06 3.26414e-05 0 5.33325e-06 3.92204e-05 0 3.30163e-06 4.78947e-05 0 1.20928e-07 5.98659e-05 0 -3.25949e-06 5.10176e-05 0 -5.82502e-06 4.06447e-05 0 -7.33622e-06 3.2692e-05 0 -8.15195e-06 2.6266e-05 0 -8.55816e-06 2.09012e-05 0 -8.73327e-06 1.62807e-05 0 -8.78542e-06 1.21882e-05 0 -8.7805e-06 8.46463e-06 0 -8.75846e-06 4.98552e-06 0 -8.7422e-06 1.64647e-06 0 -8.7422e-06 -1.64647e-06 0 -8.75846e-06 -4.98552e-06 0 -8.7805e-06 -8.46463e-06 0 -8.78542e-06 -1.21882e-05 0 -8.73327e-06 -1.62807e-05 0 -8.55816e-06 -2.09012e-05 0 -8.15195e-06 -2.6266e-05 0 -7.33622e-06 -3.2692e-05 0 -5.82502e-06 -4.06447e-05 0 -3.25949e-06 -5.10176e-05 0 1.20928e-07 -5.98659e-05 0 3.30163e-06 -4.78947e-05 0 5.33325e-06 -3.92204e-05 0 6.3507e-06 -3.26414e-05 0 6.71303e-06 -2.74849e-05 0 6.67352e-06 -2.33574e-05 0 1.04585e-05 2.2773e-05 0 1.14461e-05 2.70775e-05 0 1.23714e-05 3.25378e-05 0 1.31793e-05 3.9602e-05 0 1.38118e-05 4.8943e-05 0 1.42521e-05 6.14291e-05 0 1.46147e-05 5.23704e-05 0 1.50411e-05 4.14102e-05 0 1.55545e-05 3.29925e-05 0 1.61059e-05 2.62895e-05 0 1.6644e-05 2.07841e-05 0 1.71317e-05 1.61086e-05 0 1.75445e-05 1.2014e-05 0 1.7866e-05 8.32107e-06 0 1.80856e-05 4.89233e-06 0 1.81969e-05 1.61428e-06 0 1.81969e-05 -1.61428e-06 0 1.80856e-05 -4.89233e-06 0 1.7866e-05 -8.32107e-06 0 1.75445e-05 -1.2014e-05 0 1.71317e-05 -1.61086e-05 0 1.6644e-05 -2.07841e-05 0 1.61059e-05 -2.62895e-05 0 1.55545e-05 -3.29925e-05 0 1.50411e-05 -4.14102e-05 0 1.46147e-05 -5.23704e-05 0 1.42521e-05 -6.14291e-05 0 1.38118e-05 -4.8943e-05 0 1.31793e-05 -3.9602e-05 0 1.23714e-05 -3.25378e-05 0 1.14461e-05 -2.70775e-05 0 1.04585e-05 -2.2773e-05 0 1.42595e-05 2.13392e-05 0 1.62397e-05 2.55401e-05 0 1.8507e-05 3.08694e-05 0 2.12031e-05 3.77443e-05 0 2.45264e-05 4.68399e-05 0 2.85162e-05 5.91674e-05 0 3.25967e-05 5.0285e-05 0 3.60028e-05 3.96801e-05 0 3.85987e-05 3.15909e-05 0 4.05692e-05 2.5149e-05 0 4.20873e-05 1.98568e-05 0 4.32616e-05 1.53678e-05 0 4.4155e-05 1.14456e-05 0 4.48033e-05 7.91826e-06 0 4.52266e-05 4.65164e-06 0 4.54358e-05 1.53419e-06 0 4.54358e-05 -1.53419e-06 0 4.52266e-05 -4.65164e-06 0 4.48033e-05 -7.91826e-06 0 4.4155e-05 -1.14456e-05 0 4.32616e-05 -1.53678e-05 0 4.20873e-05 -1.98568e-05 0 4.05692e-05 -2.5149e-05 0 3.85987e-05 -3.15909e-05 0 3.60028e-05 -3.96801e-05 0 3.25967e-05 -5.0285e-05 0 2.85162e-05 -5.91674e-05 0 2.45264e-05 -4.68399e-05 0 2.12031e-05 -3.77443e-05 0 1.8507e-05 -3.08694e-05 0 1.62397e-05 -2.55401e-05 0 1.42595e-05 -2.13392e-05 0 1.7853e-05 1.90565e-05 0 2.0759e-05 2.28976e-05 0 2.42292e-05 2.7696e-05 0 2.85909e-05 3.37272e-05 0 3.44496e-05 4.15353e-05 0 4.26163e-05 5.26615e-05 0 5.14172e-05 4.45803e-05 0 5.78087e-05 3.5518e-05 0 6.22539e-05 2.85608e-05 0 6.54694e-05 2.28902e-05 0 6.78635e-05 1.81439e-05 0 6.96652e-05 1.40708e-05 0 7.10056e-05 1.04895e-05 0 7.19616e-05 7.25921e-06 0 7.25784e-05 4.26477e-06 0 7.2881e-05 1.40658e-06 0 7.2881e-05 -1.40658e-06 0 7.25784e-05 -4.26477e-06 0 7.19616e-05 -7.25921e-06 0 7.10056e-05 -1.04895e-05 0 6.96652e-05 -1.40708e-05 0 6.78635e-05 -1.81439e-05 0 6.54694e-05 -2.28902e-05 0 6.22539e-05 -2.85608e-05 0 5.78087e-05 -3.5518e-05 0 5.14172e-05 -4.45803e-05 0 4.26163e-05 -5.26615e-05 0 3.44496e-05 -4.15353e-05 0 2.85909e-05 -3.37272e-05 0 2.42292e-05 -2.7696e-05 0 2.0759e-05 -2.28976e-05 0 1.7853e-05 -1.90565e-05 0 2.10591e-05 1.59969e-05 0 2.47409e-05 1.9312e-05 0 2.91053e-05 2.33242e-05 0 3.45547e-05 2.80441e-05 0 4.19243e-05 3.34318e-05 0 5.36427e-05 3.87697e-05 0 6.80255e-05 3.52283e-05 0 7.62361e-05 2.94534e-05 0 8.18319e-05 2.42686e-05 0 8.5908e-05 1.97282e-05 0 8.89626e-05 1.57687e-05 0 9.12672e-05 1.22889e-05 0 9.29813e-05 9.18697e-06 0 9.42018e-05 6.36773e-06 0 9.49877e-05 3.74402e-06 0 9.53728e-05 1.23525e-06 0 9.53728e-05 -1.23525e-06 0 9.49877e-05 -3.74402e-06 0 9.42018e-05 -6.36773e-06 0 9.29813e-05 -9.18697e-06 0 9.12672e-05 -1.22889e-05 0 8.89626e-05 -1.57687e-05 0 8.5908e-05 -1.97282e-05 0 8.18319e-05 -2.42686e-05 0 7.62361e-05 -2.94534e-05 0 6.80255e-05 -3.52283e-05 0 5.36427e-05 -3.87697e-05 0 4.19243e-05 -3.34318e-05 0 3.45547e-05 -2.80441e-05 0 2.91053e-05 -2.33242e-05 0 2.47409e-05 -1.9312e-05 0 2.10591e-05 -1.59969e-05 0 2.37846e-05 1.2259e-05 0 2.80763e-05 1.50276e-05 0 3.29574e-05 1.82403e-05 0 3.87585e-05 2.1656e-05 0 4.59733e-05 2.48371e-05 0 5.49176e-05 2.66599e-05 0 6.42269e-05 2.56581e-05 0 7.1849e-05 2.27238e-05 0 7.76851e-05 1.93084e-05 0 8.21675e-05 1.59823e-05 0 8.56273e-05 1.29141e-05 0 8.8283e-05 1.01307e-05 0 9.02778e-05 7.6036e-06 0 9.17059e-05 5.28248e-06 0 9.26281e-05 3.10986e-06 0 9.30806e-05 1.0266e-06 0 9.30806e-05 -1.0266e-06 0 9.26281e-05 -3.10986e-06 0 9.17059e-05 -5.28248e-06 0 9.02778e-05 -7.6036e-06 0 8.8283e-05 -1.01307e-05 0 8.56273e-05 -1.29141e-05 0 8.21675e-05 -1.59823e-05 0 7.76851e-05 -1.93084e-05 0 7.1849e-05 -2.27238e-05 0 6.42269e-05 -2.56581e-05 0 5.49176e-05 -2.66599e-05 0 4.59733e-05 -2.48371e-05 0 3.87585e-05 -2.1656e-05 0 3.29574e-05 -1.82403e-05 0 2.80763e-05 -1.50276e-05 0 2.37846e-05 -1.2259e-05 0 2.60615e-05 7.88852e-06 0 3.08614e-05 1.02906e-05 0 3.59161e-05 1.29313e-05 0 4.15524e-05 1.54019e-05 0 4.80406e-05 1.73486e-05 0 5.52879e-05 1.82862e-05 0 6.26398e-05 1.78607e-05 0 6.92897e-05 1.63148e-05 0 7.48877e-05 1.42076e-05 0 7.94509e-05 1.19579e-05 0 8.31034e-05 9.76624e-06 0 8.59707e-05 7.7133e-06 0 8.81545e-05 5.81348e-06 0 8.97309e-05 4.04898e-06 0 9.07537e-05 2.38704e-06 0 9.12568e-05 7.88484e-07 0 9.12568e-05 -7.88484e-07 0 9.07537e-05 -2.38704e-06 0 8.97309e-05 -4.04898e-06 0 8.81545e-05 -5.81348e-06 0 8.59707e-05 -7.7133e-06 0 8.31034e-05 -9.76624e-06 0 7.94509e-05 -1.19579e-05 0 7.48877e-05 -1.42076e-05 0 6.92897e-05 -1.63148e-05 0 6.26398e-05 -1.78607e-05 0 5.52879e-05 -1.82862e-05 0 4.80406e-05 -1.73486e-05 0 4.15524e-05 -1.54019e-05 0 3.59161e-05 -1.29313e-05 0 3.08614e-05 -1.02906e-05 0 2.60615e-05 -7.88852e-06 0 2.81477e-05 2.72523e-06 0 3.34615e-05 5.34892e-06 0 3.82765e-05 7.80564e-06 0 4.34385e-05 9.6378e-06 0 4.92355e-05 1.08674e-05 0 5.55129e-05 1.14197e-05 0 6.18656e-05 1.12352e-05 0 6.784e-05 1.04236e-05 0 7.31365e-05 9.21979e-06 0 7.76425e-05 7.8546e-06 0 8.136e-05 6.46924e-06 0 8.43373e-05 5.13772e-06 0 8.66344e-05 3.88589e-06 0 8.83061e-05 2.71224e-06 0 8.93958e-05 1.60091e-06 0 8.99333e-05 5.291e-07 0 8.99333e-05 -5.291e-07 0 8.93958e-05 -1.60091e-06 0 8.83061e-05 -2.71224e-06 0 8.66344e-05 -3.88589e-06 0 8.43373e-05 -5.13772e-06 0 8.136e-05 -6.46924e-06 0 7.76425e-05 -7.8546e-06 0 7.31365e-05 -9.21979e-06 0 6.784e-05 -1.04236e-05 0 6.18656e-05 -1.12352e-05 0 5.55129e-05 -1.14197e-05 0 4.92355e-05 -1.08674e-05 0 4.34385e-05 -9.6378e-06 0 3.82765e-05 -7.80564e-06 0 3.34615e-05 -5.34892e-06 0 2.81477e-05 -2.72523e-06 0 3.11484e-05 -4.23603e-06 0 3.66433e-05 9.43075e-07 0 4.01544e-05 3.33793e-06 0 4.46254e-05 4.44518e-06 0 4.99061e-05 5.06335e-06 0 5.56536e-05 5.32754e-06 0 6.15015e-05 5.26144e-06 0 6.71017e-05 4.91653e-06 0 7.2193e-05 4.38298e-06 0 7.6629e-05 3.75862e-06 0 8.03571e-05 3.11041e-06 0 8.33825e-05 2.47799e-06 0 8.57371e-05 1.87792e-06 0 8.74603e-05 1.31227e-06 0 8.85873e-05 7.75072e-07 0 8.91441e-05 2.56233e-07 0 8.91441e-05 -2.56233e-07 0 8.85873e-05 -7.75072e-07 0 8.74603e-05 -1.31227e-06 0 8.57371e-05 -1.87792e-06 0 8.33825e-05 -2.47799e-06 0 8.03571e-05 -3.11041e-06 0 7.6629e-05 -3.75862e-06 0 7.2193e-05 -4.38298e-06 0 6.71017e-05 -4.91653e-06 0 6.15015e-05 -5.26144e-06 0 5.56536e-05 -5.32754e-06 0 4.99061e-05 -5.06335e-06 0 4.46254e-05 -4.44518e-06 0 4.01544e-05 -3.33793e-06 0 3.66433e-05 -9.43075e-07 0 3.11484e-05 4.23603e-06 0 4.86718e-05 -7.19025e-05 0 3.9275e-05 2.82889e-07 0 4.08878e-05 -1.93154e-07 0 4.5001e-05 -3.35134e-07 0 5.01046e-05 -3.99128e-07 0 5.56962e-05 -4.25791e-07 0 6.1401e-05 -4.25278e-07 0 6.68925e-05 -4.03247e-07 0 7.19204e-05 -3.6567e-07 0 7.63319e-05 -3.19028e-07 0 8.00606e-05 -2.68166e-07 0 8.30988e-05 -2.16472e-07 0 8.547e-05 -1.65768e-07 0 8.72082e-05 -1.1673e-07 0 8.83464e-05 -6.92934e-08 0 8.8909e-05 -2.29657e-08 0 8.8909e-05 2.29657e-08 0 8.83464e-05 6.92934e-08 0 8.72082e-05 1.1673e-07 0 8.547e-05 1.65768e-07 0 8.30988e-05 2.16472e-07 0 8.00606e-05 2.68166e-07 0 7.63319e-05 3.19028e-07 0 7.19204e-05 3.6567e-07 0 6.68925e-05 4.03247e-07 0 6.1401e-05 4.25278e-07 0 5.56962e-05 4.25791e-07 0 5.01046e-05 3.99128e-07 0 4.5001e-05 3.35134e-07 0 4.08878e-05 1.93154e-07 0 3.9275e-05 -2.82889e-07 0 4.86718e-05 7.19025e-05 0 </DataArray> 
</PointData> 
<Points> 
<DataArray type="Float32" NumberOfComponents="3"> 