<?xml version="1.0"?> 
<VTKFile type="StructuredGrid" version="0.1"> 
<StructuredGrid WholeExtent="0 31 0 31 0 0"> 
<Piece Extent="0 31 0 31 0 0"> 
<PointData>
<DataArray type="Float32" Name="B" format="ascii" NumberOfComponents="3"> 
0 -1.4823e-06 0 -2.68952e-07 -1.48827e-06 0 -5.39916e-07 -1.50407e-06 0 -8.14866e-07 -1.53048e-06 0 -1.09588e-06 -1.56829e-06 0 -1.38502e-06 -1.61618e-06 0 -1.6844e-06 -1.67579e-06 0 -1.99628e-06 -1.74644e-06 0 -2.32289e-06 -1.8276e-06 0 -2.66664e-06 -1.92143e-06 0 -3.03007e-06 -2.0257e-06 0 -3.41576e-06 -2.14102e-06 0 -3.82658e-06 -2.26746e-06 0 -4.26549e-06 -2.40291e-06 0 -4.73568e-06 -2.54725e-06 0 -5.2407e-06 -2.69761e-06 0 -5.78428e-06 -2.85082e-06 0 -6.37072e-06 -3.0019e-06 0 -7.00487e-06 -3.14455e-06 0 -7.69225e-06 -3.26826e-06 0 -8.43978e-06 -3.35713e-06 0 -9.25582e-06 -3.39663e-06 0 -1.01513e-05 -3.34675e-06 0 -1.11414e-05 -3.1727e-06 0 -1.22466e-05 -2.81748e-06 0 -1.3498e-05 -2.1801e-06 0 -1.49425e-05 -1.12344e-06 0 -1.66575e-05 5.82995e-07 0 -1.87851e-05 3.3616e-06 0 -2.16511e-05 8.11714e-06 0 -2.64303e-05 1.76392e-05 0 -6.64654e-05 6.07191e-05 0 0 -1.39221e-06 0 -2.72379e-07 -1.3978e-06 0 -5.46781e-07 -1.41261e-06 0 -8.25195e-07 -1.43736e-06 0 -1.10971e-06 -1.47277e-06 0 -1.40238e-06 -1.51762e-06 0 -1.70535e-06 -1.57343e-06 0 -2.02084e-06 -1.63953e-06 0 -2.35109e-06 -1.71542e-06 0 -2.69849e-06 -1.80308e-06 0 -3.0655e-06 -1.90039e-06 0 -3.45467e-06 -2.00787e-06 0 -3.86874e-06 -2.12546e-06 0 -4.31052e-06 -2.25115e-06 0 -4.78299e-06 -2.38458e-06 0 -5.28938e-06 -2.5229e-06 0 -5.83301e-06 -2.66291e-06 0 -6.41754e-06 -2.79923e-06 0 -7.04696e-06 -2.9257e-06 0 -7.72559e-06 -3.03141e-06 0 -8.45858e-06 -3.10002e-06 0 -9.25186e-06 -3.11677e-06 0 -1.01128e-05 -3.04038e-06 0 -1.10511e-05 -2.83513e-06 0 -1.20794e-05 -2.44222e-06 0 -1.32158e-05 -1.75726e-06 0 -1.44852e-05 -6.38256e-07 0 -1.59225e-05 1.1541e-06 0 -1.75734e-05 4.06045e-06 0 -1.94764e-05 9.03292e-06 0 -2.1365e-05 1.90185e-05 0 -7.2887e-06 4.85164e-05 0 0 -1.30102e-06 0 -2.75582e-07 -1.30623e-06 0 -5.532e-07 -1.32004e-06 0 -8.3485e-07 -1.34311e-06 0 -1.12263e-06 -1.37612e-06 0 -1.41861e-06 -1.41792e-06 0 -1.72491e-06 -1.4699e-06 0 -2.04376e-06 -1.53145e-06 0 -2.3774e-06 -1.60207e-06 0 -2.72816e-06 -1.68357e-06 0 -3.09848e-06 -1.77395e-06 0 -3.49082e-06 -1.87364e-06 0 -3.90782e-06 -1.98249e-06 0 -4.35214e-06 -2.09857e-06 0 -4.82654e-06 -2.22135e-06 0 -5.33393e-06 -2.348e-06 0 -5.8772e-06 -2.47533e-06 0 -6.45939e-06 -2.59771e-06 0 -7.08359e-06 -2.7091e-06 0 -7.75291e-06 -2.79842e-06 0 -8.47071e-06 -2.84911e-06 0 -9.2404e-06 -2.84637e-06 0 -1.00657e-05 -2.74829e-06 0 -1.09508e-05 -2.51881e-06 0 -1.19004e-05 -2.09846e-06 0 -1.2919e-05 -1.3818e-06 0 -1.40095e-05 -2.2622e-07 0 -1.51639e-05 1.60613e-06 0 -1.63328e-05 4.54408e-06 0 -1.7283e-05 9.46707e-06 0 -1.6637e-05 1.86347e-05 0 -2.40348e-06 3.38263e-05 0 0 -1.2088e-06 0 -2.78562e-07 -1.21363e-06 0 -5.59168e-07 -1.22643e-06 0 -8.43826e-07 -1.24782e-06 0 -1.13464e-06 -1.27842e-06 0 -1.43368e-06 -1.31715e-06 0 -1.74308e-06 -1.3653e-06 0 -2.06505e-06 -1.42229e-06 0 -2.4018e-06 -1.48764e-06 0 -2.75566e-06 -1.56299e-06 0 -3.12901e-06 -1.64648e-06 0 -3.52423e-06 -1.73843e-06 0 -3.94386e-06 -1.83866e-06 0 -4.39042e-06 -1.94529e-06 0 -4.86643e-06 -2.05766e-06 0 -5.3745e-06 -2.17302e-06 0 -5.91708e-06 -2.28821e-06 0 -6.49657e-06 -2.39746e-06 0 -7.1152e-06 -2.49491e-06 0 -7.77486e-06 -2.56947e-06 0 -8.47709e-06 -2.60459e-06 0 -9.22278e-06 -2.58564e-06 0 -1.0012e-05 -2.47076e-06 0 -1.08434e-05 -2.22412e-06 0 -1.17136e-05 -1.78669e-06 0 -1.26142e-05 -1.05426e-06 0 -1.35262e-05 1.12213e-07 0 -1.44023e-05 1.93964e-06 0 -1.51097e-05 4.81878e-06 0 -1.52126e-05 9.46804e-06 0 -1.28958e-05 1.7178e-05 0 -9.55284e-07 2.57018e-05 0 0 -1.11562e-06 0 -2.81316e-07 -1.12007e-06 0 -5.64685e-07 -1.13186e-06 0 -8.52122e-07 -1.15156e-06 0 -1.14574e-06 -1.17974e-06 0 -1.44761e-06 -1.2154e-06 0 -1.75985e-06 -1.25971e-06 0 -2.08469e-06 -1.31214e-06 0 -2.42431e-06 -1.37222e-06 0 -2.781e-06 -1.44144e-06 0 -3.1571e-06 -1.51806e-06 0 -3.55493e-06 -1.60235e-06 0 -3.97692e-06 -1.69405e-06 0 -4.42542e-06 -1.7914e-06 0 -4.90277e-06 -1.89362e-06 0 -5.41123e-06 -1.99806e-06 0 -5.95285e-06 -2.10165e-06 0 -6.52941e-06 -2.19857e-06 0 -7.14226e-06 -2.28322e-06 0 -7.79208e-06 -2.34463e-06 0 -8.47862e-06 -2.36653e-06 0 -9.2003e-06 -2.33466e-06 0 -9.95356e-06 -2.20782e-06 0 -1.07317e-05 -1.95103e-06 0 -1.15233e-05 -1.50677e-06 0 -1.23078e-05 -7.74176e-07 0 -1.30463e-05 3.78595e-07 0 -1.3657e-05 2.15973e-06 0 -1.39439e-05 4.90366e-06 0 -1.3359e-05 9.12951e-06 0 -1.01585e-05 1.53151e-05 0 -4.44194e-07 2.04519e-05 0 0 -1.02156e-06 0 -2.83842e-07 -1.02563e-06 0 -5.69746e-07 -1.03641e-06 0 -8.59732e-07 -1.05442e-06 0 -1.15591e-06 -1.08016e-06 0 -1.46037e-06 -1.11273e-06 0 -1.77523e-06 -1.1532e-06 0 -2.10268e-06 -1.20106e-06 0 -2.44491e-06 -1.25588e-06 0 -2.80418e-06 -1.31899e-06 0 -3.18278e-06 -1.38879e-06 0 -3.58295e-06 -1.46547e-06 0 -4.00702e-06 -1.54875e-06 0 -4.45721e-06 -1.63698e-06 0 -4.93564e-06 -1.72932e-06 0 -5.44427e-06 -1.82321e-06 0 -5.98472e-06 -1.91572e-06 0 -6.5582e-06 -2.00111e-06 0 -7.16518e-06 -2.07405e-06 0 -7.80519e-06 -2.12391e-06 0 -8.47622e-06 -2.13491e-06 0 -9.17428e-06 -2.09333e-06 0 -9.89231e-06 -1.95929e-06 0 -1.06184e-05 -1.6992e-06 0 -1.13337e-05 -1.258e-06 0 -1.20062e-05 -5.40103e-07 0 -1.25796e-05 5.7625e-07 0 -1.29449e-05 2.27514e-06 0 -1.28651e-05 4.82592e-06 0 -1.17631e-05 8.55457e-06 0 -8.20162e-06 1.34118e-05 0 -2.34046e-07 1.67008e-05 0 0 -9.26703e-07 0 -2.86142e-07 -9.30387e-07 0 -5.74352e-07 -9.40145e-07 0 -8.66656e-07 -9.56451e-07 0 -1.16517e-06 -9.79759e-07 0 -1.47198e-06 -1.00925e-06 0 -1.7892e-06 -1.04587e-06 0 -2.11903e-06 -1.08916e-06 0 -2.46363e-06 -1.13872e-06 0 -2.82522e-06 -1.19574e-06 0 -3.20605e-06 -1.25875e-06 0 -3.60831e-06 -1.32789e-06 0 -4.03423e-06 -1.40287e-06 0 -4.48587e-06 -1.48214e-06 0 -4.96515e-06 -1.56482e-06 0 -5.47376e-06 -1.64853e-06 0 -6.01293e-06 -1.73047e-06 0 -6.58325e-06 -1.80509e-06 0 -7.18443e-06 -1.86741e-06 0 -7.81483e-06 -1.90725e-06 0 -8.4708e-06 -1.90957e-06 0 -9.14601e-06 -1.8614e-06 0 -9.83008e-06 -1.72474e-06 0 -1.05062e-05 -1.4679e-06 0 -1.11486e-05 -1.03917e-06 0 -1.17151e-05 -3.49748e-07 0 -1.21349e-05 7.09937e-07 0 -1.22791e-05 2.29707e-06 0 -1.18914e-05 4.61579e-06 0 -1.04243e-05 7.83183e-06 0 -6.79526e-06 1.16165e-05 0 -1.36693e-07 1.38294e-05 0 0 -8.31113e-07 0 -2.88214e-07 -8.34412e-07 0 -5.78501e-07 -8.43151e-07 0 -8.72893e-07 -8.57751e-07 0 -1.17351e-06 -8.78616e-07 0 -1.48244e-06 -9.05009e-07 0 -1.80179e-06 -9.3778e-07 0 -2.13375e-06 -9.76504e-07 0 -2.48045e-06 -1.02082e-06 0 -2.84412e-06 -1.07177e-06 0 -3.22695e-06 -1.12803e-06 0 -3.63105e-06 -1.18969e-06 0 -4.05857e-06 -1.25646e-06 0 -4.51145e-06 -1.32692e-06 0 -4.99141e-06 -1.40019e-06 0 -5.49986e-06 -1.47406e-06 0 -6.03766e-06 -1.54592e-06 0 -6.60487e-06 -1.61051e-06 0 -7.20041e-06 -1.66322e-06 0 -7.8216e-06 -1.69451e-06 0 -8.4632e-06 -1.69028e-06 0 -9.1167e-06 -1.63846e-06 0 -9.76861e-06 -1.50352e-06 0 -1.03975e-05 -1.2561e-06 0 -1.09716e-05 -8.48552e-07 0 -1.14397e-05 -2.00109e-07 0 -1.17195e-05 7.85447e-07 0 -1.16697e-05 2.23795e-06 0 -1.10315e-05 4.30244e-06 0 -9.32086e-06 7.02691e-06 0 -5.77094e-06 9.97106e-06 0 -8.72821e-08 1.15188e-05 0 0 -7.34872e-07 0 -2.90054e-07 -7.37785e-07 0 -5.82186e-07 -7.45501e-07 0 -8.78432e-07 -7.58391e-07 0 -1.18092e-06 -7.76811e-07 0 -1.49172e-06 -8.00106e-07 0 -1.81295e-06 -8.29023e-07 0 -2.1468e-06 -8.63181e-07 0 -2.49538e-06 -9.02261e-07 0 -2.86087e-06 -9.47156e-07 0 -3.24544e-06 -9.96697e-07 0 -3.65116e-06 -1.05095e-06 0 -4.08007e-06 -1.10961e-06 0 -4.53398e-06 -1.17141e-06 0 -5.01446e-06 -1.23549e-06 0 -5.52266e-06 -1.29984e-06 0 -6.05908e-06 -1.36207e-06 0 -6.62329e-06 -1.41731e-06 0 -7.2135e-06 -1.46138e-06 0 -7.82604e-06 -1.48548e-06 0 -8.45422e-06 -1.47669e-06 0 -9.08752e-06 -1.42397e-06 0 -9.7096e-06 -1.29478e-06 0 -1.0295e-05 -1.06247e-06 0 -1.08063e-05 -6.84052e-07 0 -1.11849e-05 -8.76265e-08 0 -1.13402e-05 8.09225e-07 0 -1.11241e-05 2.11037e-06 0 -1.02885e-05 3.91158e-06 0 -8.42521e-06 6.18368e-06 0 -5.0166e-06 8.47334e-06 0 -6.0402e-08 9.58703e-06 0 0 -6.38055e-07 0 -2.91668e-07 -6.40581e-07 0 -5.85419e-07 -6.47272e-07 0 -8.8329e-07 -6.58449e-07 0 -1.18741e-06 -6.74419e-07 0 -1.49986e-06 -6.94613e-07 0 -1.82274e-06 -7.19675e-07 0 -2.15823e-06 -7.49272e-07 0 -2.50844e-06 -7.8312e-07 0 -2.87553e-06 -8.21983e-07 0 -3.26162e-06 -8.64843e-07 0 -3.66873e-06 -9.11738e-07 0 -4.09881e-06 -9.62376e-07 0 -4.55359e-06 -1.01564e-06 0 -5.03446e-06 -1.07074e-06 0 -5.54235e-06 -1.12587e-06 0 -6.07743e-06 -1.1789e-06 0 -6.63884e-06 -1.22541e-06 0 -7.22413e-06 -1.26171e-06 0 -7.82872e-06 -1.27988e-06 0 -8.44462e-06 -1.26835e-06 0 -9.05951e-06 -1.21725e-06 0 -9.65447e-06 -1.0975e-06 0 -1.02004e-05 -8.85435e-07 0 -1.06551e-05 -5.4321e-07 0 -1.09542e-05 -8.33666e-09 0 -1.10006e-05 7.88015e-07 0 -1.06448e-05 1.92639e-06 0 -9.65623e-06 3.46433e-06 0 -7.7023e-06 5.32913e-06 0 -4.45067e-06 7.10552e-06 0 -4.46279e-08 7.92158e-06 0 0 -5.40738e-07 0 -2.93052e-07 -5.42877e-07 0 -5.8819e-07 -5.48541e-07 0 -8.87455e-07 -5.58003e-07 0 -1.19297e-06 -5.7152e-07 0 -1.50683e-06 -5.88611e-07 0 -1.83113e-06 -6.09817e-07 0 -2.16803e-06 -6.34854e-07 0 -2.51963e-06 -6.63479e-07 0 -2.88808e-06 -6.9633e-07 0 -3.27546e-06 -7.32538e-07 0 -3.68374e-06 -7.72126e-07 0 -4.11482e-06 -8.14827e-07 0 -4.5703e-06 -8.59685e-07 0 -5.05145e-06 -9.05976e-07 0 -5.559e-06 -9.52149e-07 0 -6.09285e-06 -9.96351e-07 0 -6.65171e-06 -1.0347e-06 0 -7.23258e-06 -1.06402e-06 0 -7.83009e-06 -1.07739e-06 0 -8.43508e-06 -1.06475e-06 0 -9.03363e-06 -1.01753e-06 0 -9.6046e-06 -9.10466e-07 0 -1.01157e-05 -7.23192e-07 0 -1.0521e-05 -4.23298e-07 0 -1.0751e-05 4.19983e-08 0 -1.07048e-05 7.2859e-07 0 -1.02348e-05 1.69698e-06 0 -9.13071e-06 2.97724e-06 0 -7.12795e-06 4.47836e-06 0 -4.02604e-06 5.84594e-06 0 -3.50152e-08 6.44832e-06 0 0 -4.42999e-07 0 -2.94207e-07 -4.4475e-07 0 -5.90502e-07 -4.49386e-07 0 -8.90928e-07 -4.5713e-07 0 -1.19761e-06 -4.68193e-07 0 -1.51265e-06 -4.82178e-07 0 -1.83812e-06 -4.99528e-07 0 -2.17619e-06 -5.20008e-07 0 -2.52896e-06 -5.43417e-07 0 -2.89853e-06 -5.70271e-07 0 -3.28697e-06 -5.99857e-07 0 -3.69622e-06 -6.32183e-07 0 -4.1281e-06 -6.67017e-07 0 -4.58415e-06 -7.0357e-07 0 -5.06551e-06 -7.41217e-07 0 -5.57273e-06 -7.78667e-07 0 -6.10547e-06 -8.14368e-07 0 -6.66211e-06 -8.4505e-07 0 -7.23915e-06 -8.68066e-07 0 -7.83056e-06 -8.77625e-07 0 -8.42617e-06 -8.65279e-07 0 -9.01072e-06 -8.23896e-07 0 -9.56118e-06 -7.32351e-07 0 -1.00427e-05 -5.73752e-07 0 -1.04059e-05 -3.21376e-07 0 -1.05779e-05 6.77762e-08 0 -1.04555e-05 6.37566e-07 0 -9.89435e-06 1.43188e-06 0 -8.70526e-06 2.46277e-06 0 -6.67977e-06 3.63865e-06 0 -3.70871e-06 4.67345e-06 0 -2.89475e-08 5.11541e-06 0 0 -3.44914e-07 0 -2.95131e-07 -3.46276e-07 0 -5.92352e-07 -3.49883e-07 0 -8.93708e-07 -3.55908e-07 0 -1.20133e-06 -3.64514e-07 0 -1.5173e-06 -3.75393e-07 0 -1.84371e-06 -3.88887e-07 0 -2.18272e-06 -4.04813e-07 0 -2.53641e-06 -4.23013e-07 0 -2.90688e-06 -4.43884e-07 0 -3.29617e-06 -4.66869e-07 0 -3.70618e-06 -4.91971e-07 0 -4.13871e-06 -5.19e-07 0 -4.59519e-06 -5.47336e-07 0 -5.07669e-06 -5.76474e-07 0 -5.5836e-06 -6.05394e-07 0 -6.11542e-06 -6.32869e-07 0 -6.67022e-06 -6.56295e-07 0 -7.2441e-06 -6.73585e-07 0 -7.83049e-06 -6.80147e-07 0 -8.41841e-06 -6.69287e-07 0 -8.9915e-06 -6.3537e-07 0 -9.5252e-06 -5.61692e-07 0 -9.98254e-06 -4.3498e-07 0 -1.03117e-05 -2.34345e-07 0 -1.04371e-05 7.34721e-08 0 -1.02543e-05 5.21285e-07 0 -9.62333e-06 1.13956e-06 0 -8.37344e-06 1.93002e-06 0 -6.34026e-06 2.81231e-06 0 -3.47594e-06 3.56875e-06 0 -2.50535e-08 3.88473e-06 0 0 -2.46559e-07 0 -2.95825e-07 -2.47532e-07 0 -5.93741e-07 -2.5011e-07 0 -8.95795e-07 -2.54414e-07 0 -1.20412e-06 -2.60562e-07 0 -1.52079e-06 -2.68333e-07 0 -1.84791e-06 -2.77972e-07 0 -2.18762e-06 -2.89345e-07 0 -2.542e-06 -3.02341e-07 0 -2.91314e-06 -3.17241e-07 0 -3.30307e-06 -3.33646e-07 0 -3.71365e-06 -3.51553e-07 0 -4.14664e-06 -3.70825e-07 0 -4.60344e-06 -3.91014e-07 0 -5.08503e-06 -4.11749e-07 0 -5.59171e-06 -4.32294e-07 0 -6.1228e-06 -4.51761e-07 0 -6.67617e-06 -4.68257e-07 0 -7.24763e-06 -4.80277e-07 0 -7.83018e-06 -4.84492e-07 0 -8.41222e-06 -4.76054e-07 0 -8.97655e-06 -4.50893e-07 0 -9.49747e-06 -3.96931e-07 0 -9.93644e-06 -3.04619e-07 0 -1.02398e-05 -1.58991e-07 0 -1.03302e-05 6.35799e-08 0 -1.01025e-05 3.85782e-07 0 -9.42099e-06 8.27346e-07 0 -8.12967e-06 1.3855e-06 0 -6.09625e-06 1.9986e-06 0 -3.31248e-06 2.51452e-06 0 -2.25824e-08 2.72674e-06 0 0 -1.48013e-07 0 -2.96288e-07 -1.48597e-07 0 -5.94668e-07 -1.50143e-07 0 -8.97189e-07 -1.52726e-07 0 -1.20598e-06 -1.56415e-07 0 -1.52312e-06 -1.61078e-07 0 -1.85071e-06 -1.66861e-07 0 -2.19089e-06 -1.73685e-07 0 -2.54574e-06 -1.81481e-07 0 -2.91732e-06 -1.90417e-07 0 -3.30767e-06 -2.00254e-07 0 -3.71863e-06 -2.1099e-07 0 -4.15193e-06 -2.22539e-07 0 -4.60894e-06 -2.34631e-07 0 -5.09058e-06 -2.47041e-07 0 -5.59708e-06 -2.59323e-07 0 -6.12768e-06 -2.70939e-07 0 -6.68009e-06 -2.80742e-07 0 -7.2499e-06 -2.8782e-07 0 -7.82984e-06 -2.90159e-07 0 -8.40791e-06 -2.84823e-07 0 -8.96633e-06 -2.69351e-07 0 -9.47862e-06 -2.36437e-07 0 -9.90521e-06 -1.80327e-07 0 -1.01913e-05 -9.20266e-08 0 -1.02582e-05 4.2581e-08 0 -1.00008e-05 2.36792e-07 0 -9.2865e-06 5.01617e-07 0 -7.9695e-06 8.33821e-07 0 -5.93837e-06 1.1949e-06 0 -3.20836e-06 1.49512e-06 0 -2.11163e-08 1.61743e-06 0 0 -4.93504e-08 0 -2.9652e-07 -4.9545e-08 0 -5.95134e-07 -5.00606e-08 0 -8.97888e-07 -5.09216e-08 0 -1.20691e-06 -5.21514e-08 0 -1.52429e-06 -5.37057e-08 0 -1.85212e-06 -5.56334e-08 0 -2.19254e-06 -5.79078e-08 0 -2.54761e-06 -6.05062e-08 0 -2.91942e-06 -6.34844e-08 0 -3.30998e-06 -6.67626e-08 0 -3.72113e-06 -7.03396e-08 0 -4.15458e-06 -7.41868e-08 0 -4.61169e-06 -7.82143e-08 0 -5.09336e-06 -8.23457e-08 0 -5.59977e-06 -8.6432e-08 0 -6.13011e-06 -9.02935e-08 0 -6.68203e-06 -9.35449e-08 0 -7.25101e-06 -9.58823e-08 0 -7.82963e-06 -9.66301e-08 0 -8.40569e-06 -9.48055e-08 0 -8.96112e-06 -8.95852e-08 0 -9.46905e-06 -7.85242e-08 0 -9.8894e-06 -5.97003e-08 0 -1.01667e-05 -3.01133e-08 0 -1.02219e-05 1.49318e-08 0 -9.94971e-06 7.98125e-08 0 -9.21919e-06 1.6806e-07 0 -7.8899e-06 2.78337e-07 0 -5.86061e-06 3.97574e-07 0 -3.15754e-06 4.96132e-07 0 -2.04304e-08 5.36096e-07 0 0 4.93504e-08 0 -2.9652e-07 4.9545e-08 0 -5.95134e-07 5.00606e-08 0 -8.97888e-07 5.09216e-08 0 -1.20691e-06 5.21514e-08 0 -1.52429e-06 5.37057e-08 0 -1.85212e-06 5.56334e-08 0 -2.19254e-06 5.79078e-08 0 -2.54761e-06 6.05062e-08 0 -2.91942e-06 6.34844e-08 0 -3.30998e-06 6.67626e-08 0 -3.72113e-06 7.03396e-08 0 -4.15458e-06 7.41868e-08 0 -4.61169e-06 7.82143e-08 0 -5.09336e-06 8.23457e-08 0 -5.59977e-06 8.6432e-08 0 -6.13011e-06 9.02935e-08 0 -6.68203e-06 9.35449e-08 0 -7.25101e-06 9.58823e-08 0 -7.82963e-06 9.66301e-08 0 -8.40569e-06 9.48055e-08 0 -8.96112e-06 8.95852e-08 0 -9.46905e-06 7.85242e-08 0 -9.8894e-06 5.97003e-08 0 -1.01667e-05 3.01133e-08 0 -1.02219e-05 -1.49318e-08 0 -9.94971e-06 -7.98125e-08 0 -9.21919e-06 -1.6806e-07 0 -7.8899e-06 -2.78337e-07 0 -5.86061e-06 -3.97574e-07 0 -3.15754e-06 -4.96132e-07 0 -2.04304e-08 -5.36096e-07 0 0 1.48013e-07 0 -2.96288e-07 1.48597e-07 0 -5.94668e-07 1.50143e-07 0 -8.97189e-07 1.52726e-07 0 -1.20598e-06 1.56415e-07 0 -1.52312e-06 1.61078e-07 0 -1.85071e-06 1.66861e-07 0 -2.19089e-06 1.73685e-07 0 -2.54574e-06 1.81481e-07 0 -2.91732e-06 1.90417e-07 0 -3.30767e-06 2.00254e-07 0 -3.71863e-06 2.1099e-07 0 -4.15193e-06 2.22539e-07 0 -4.60894e-06 2.34631e-07 0 -5.09058e-06 2.47041e-07 0 -5.59708e-06 2.59323e-07 0 -6.12768e-06 2.70939e-07 0 -6.68009e-06 2.80742e-07 0 -7.2499e-06 2.8782e-07 0 -7.82984e-06 2.90159e-07 0 -8.40791e-06 2.84823e-07 0 -8.96633e-06 2.69351e-07 0 -9.47862e-06 2.36437e-07 0 -9.90521e-06 1.80327e-07 0 -1.01913e-05 9.20266e-08 0 -1.02582e-05 -4.2581e-08 0 -1.00008e-05 -2.36792e-07 0 -9.2865e-06 -5.01617e-07 0 -7.9695e-06 -8.33821e-07 0 -5.93837e-06 -1.1949e-06 0 -3.20836e-06 -1.49512e-06 0 -2.11163e-08 -1.61743e-06 0 0 2.46559e-07 0 -2.95825e-07 2.47532e-07 0 -5.93741e-07 2.5011e-07 0 -8.95795e-07 2.54414e-07 0 -1.20412e-06 2.60562e-07 0 -1.52079e-06 2.68333e-07 0 -1.84791e-06 2.77972e-07 0 -2.18762e-06 2.89345e-07 0 -2.542e-06 3.02341e-07 0 -2.91314e-06 3.17241e-07 0 -3.30307e-06 3.33646e-07 0 -3.71365e-06 3.51553e-07 0 -4.14664e-06 3.70825e-07 0 -4.60344e-06 3.91014e-07 0 -5.08503e-06 4.11749e-07 0 -5.59171e-06 4.32294e-07 0 -6.1228e-06 4.51761e-07 0 -6.67617e-06 4.68257e-07 0 -7.24763e-06 4.80277e-07 0 -7.83018e-06 4.84492e-07 0 -8.41222e-06 4.76054e-07 0 -8.97655e-06 4.50893e-07 0 -9.49747e-06 3.96931e-07 0 -9.93644e-06 3.04619e-07 0 -1.02398e-05 1.58991e-07 0 -1.03302e-05 -6.35799e-08 0 -1.01025e-05 -3.85782e-07 0 -9.42099e-06 -8.27346e-07 0 -8.12967e-06 -1.3855e-06 0 -6.09625e-06 -1.9986e-06 0 -3.31248e-06 -2.51452e-06 0 -2.25824e-08 -2.72674e-06 0 0 3.44914e-07 0 -2.95131e-07 3.46276e-07 0 -5.92352e-07 3.49883e-07 0 -8.93708e-07 3.55908e-07 0 -1.20133e-06 3.64514e-07 0 -1.5173e-06 3.75393e-07 0 -1.84371e-06 3.88887e-07 0 -2.18272e-06 4.04813e-07 0 -2.53641e-06 4.23013e-07 0 -2.90688e-06 4.43884e-07 0 -3.29617e-06 4.66869e-07 0 -3.70618e-06 4.91971e-07 0 -4.13871e-06 5.19e-07 0 -4.59519e-06 5.47336e-07 0 -5.07669e-06 5.76474e-07 0 -5.5836e-06 6.05394e-07 0 -6.11542e-06 6.32869e-07 0 -6.67022e-06 6.56295e-07 0 -7.2441e-06 6.73585e-07 0 -7.83049e-06 6.80147e-07 0 -8.41841e-06 6.69287e-07 0 -8.9915e-06 6.3537e-07 0 -9.5252e-06 5.61692e-07 0 -9.98254e-06 4.3498e-07 0 -1.03117e-05 2.34345e-07 0 -1.04371e-05 -7.34721e-08 0 -1.02543e-05 -5.21285e-07 0 -9.62333e-06 -1.13956e-06 0 -8.37344e-06 -1.93002e-06 0 -6.34026e-06 -2.81231e-06 0 -3.47594e-06 -3.56875e-06 0 -2.50535e-08 -3.88473e-06 0 0 4.42999e-07 0 -2.94207e-07 4.4475e-07 0 -5.90502e-07 4.49386e-07 0 -8.90928e-07 4.5713e-07 0 -1.19761e-06 4.68193e-07 0 -1.51265e-06 4.82178e-07 0 -1.83812e-06 4.99528e-07 0 -2.17619e-06 5.20008e-07 0 -2.52896e-06 5.43417e-07 0 -2.89853e-06 5.70271e-07 0 -3.28697e-06 5.99857e-07 0 -3.69622e-06 6.32183e-07 0 -4.1281e-06 6.67017e-07 0 -4.58415e-06 7.0357e-07 0 -5.06551e-06 7.41217e-07 0 -5.57273e-06 7.78667e-07 0 -6.10547e-06 8.14368e-07 0 -6.66211e-06 8.4505e-07 0 -7.23915e-06 8.68066e-07 0 -7.83056e-06 8.77625e-07 0 -8.42617e-06 8.65279e-07 0 -9.01072e-06 8.23896e-07 0 -9.56118e-06 7.32351e-07 0 -1.00427e-05 5.73752e-07 0 -1.04059e-05 3.21376e-07 0 -1.05779e-05 -6.77762e-08 0 -1.04555e-05 -6.37566e-07 0 -9.89435e-06 -1.43188e-06 0 -8.70526e-06 -2.46277e-06 0 -6.67977e-06 -3.63865e-06 0 -3.70871e-06 -4.67345e-06 0 -2.89475e-08 -5.11541e-06 0 0 5.40738e-07 0 -2.93052e-07 5.42877e-07 0 -5.8819e-07 5.48541e-07 0 -8.87455e-07 5.58003e-07 0 -1.19297e-06 5.7152e-07 0 -1.50683e-06 5.88611e-07 0 -1.83113e-06 6.09817e-07 0 -2.16803e-06 6.34854e-07 0 -2.51963e-06 6.63479e-07 0 -2.88808e-06 6.9633e-07 0 -3.27546e-06 7.32538e-07 0 -3.68374e-06 7.72126e-07 0 -4.11482e-06 8.14827e-07 0 -4.5703e-06 8.59685e-07 0 -5.05145e-06 9.05976e-07 0 -5.559e-06 9.52149e-07 0 -6.09285e-06 9.96351e-07 0 -6.65171e-06 1.0347e-06 0 -7.23258e-06 1.06402e-06 0 -7.83009e-06 1.07739e-06 0 -8.43508e-06 1.06475e-06 0 -9.03363e-06 1.01753e-06 0 -9.6046e-06 9.10466e-07 0 -1.01157e-05 7.23192e-07 0 -1.0521e-05 4.23298e-07 0 -1.0751e-05 -4.19983e-08 0 -1.07048e-05 -7.2859e-07 0 -1.02348e-05 -1.69698e-06 0 -9.13071e-06 -2.97724e-06 0 -7.12795e-06 -4.47836e-06 0 -4.02604e-06 -5.84594e-06 0 -3.50152e-08 -6.44832e-06 0 0 6.38055e-07 0 -2.91668e-07 6.40581e-07 0 -5.85419e-07 6.47272e-07 0 -8.8329e-07 6.58449e-07 0 -1.18741e-06 6.74419e-07 0 -1.49986e-06 6.94613e-07 0 -1.82274e-06 7.19675e-07 0 -2.15823e-06 7.49272e-07 0 -2.50844e-06 7.8312e-07 0 -2.87553e-06 8.21983e-07 0 -3.26162e-06 8.64843e-07 0 -3.66873e-06 9.11738e-07 0 -4.09881e-06 9.62376e-07 0 -4.55359e-06 1.01564e-06 0 -5.03446e-06 1.07074e-06 0 -5.54235e-06 1.12587e-06 0 -6.07743e-06 1.1789e-06 0 -6.63884e-06 1.22541e-06 0 -7.22413e-06 1.26171e-06 0 -7.82872e-06 1.27988e-06 0 -8.44462e-06 1.26835e-06 0 -9.05951e-06 1.21725e-06 0 -9.65447e-06 1.0975e-06 0 -1.02004e-05 8.85435e-07 0 -1.06551e-05 5.4321e-07 0 -1.09542e-05 8.33666e-09 0 -1.10006e-05 -7.88015e-07 0 -1.06448e-05 -1.92639e-06 0 -9.65623e-06 -3.46433e-06 0 -7.7023e-06 -5.32913e-06 0 -4.45067e-06 -7.10552e-06 0 -4.46279e-08 -7.92158e-06 0 0 7.34872e-07 0 -2.90054e-07 7.37785e-07 0 -5.82186e-07 7.45501e-07 0 -8.78432e-07 7.58391e-07 0 -1.18092e-06 7.76811e-07 0 -1.49172e-06 8.00106e-07 0 -1.81295e-06 8.29023e-07 0 -2.1468e-06 8.63181e-07 0 -2.49538e-06 9.02261e-07 0 -2.86087e-06 9.47156e-07 0 -3.24544e-06 9.96697e-07 0 -3.65116e-06 1.05095e-06 0 -4.08007e-06 1.10961e-06 0 -4.53398e-06 1.17141e-06 0 -5.01446e-06 1.23549e-06 0 -5.52266e-06 1.29984e-06 0 -6.05908e-06 1.36207e-06 0 -6.62329e-06 1.41731e-06 0 -7.2135e-06 1.46138e-06 0 -7.82604e-06 1.48548e-06 0 -8.45422e-06 1.47669e-06 0 -9.08752e-06 1.42397e-06 0 -9.7096e-06 1.29478e-06 0 -1.0295e-05 1.06247e-06 0 -1.08063e-05 6.84052e-07 0 -1.11849e-05 8.76265e-08 0 -1.13402e-05 -8.09225e-07 0 -1.11241e-05 -2.11037e-06 0 -1.02885e-05 -3.91158e-06 0 -8.42521e-06 -6.18368e-06 0 -5.0166e-06 -8.47334e-06 0 -6.0402e-08 -9.58703e-06 0 0 8.31113e-07 0 -2.88214e-07 8.34412e-07 0 -5.78501e-07 8.43151e-07 0 -8.72893e-07 8.57751e-07 0 -1.17351e-06 8.78616e-07 0 -1.48244e-06 9.05009e-07 0 -1.80179e-06 9.3778e-07 0 -2.13375e-06 9.76504e-07 0 -2.48045e-06 1.02082e-06 0 -2.84412e-06 1.07177e-06 0 -3.22695e-06 1.12803e-06 0 -3.63105e-06 1.18969e-06 0 -4.05857e-06 1.25646e-06 0 -4.51145e-06 1.32692e-06 0 -4.99141e-06 1.40019e-06 0 -5.49986e-06 1.47406e-06 0 -6.03766e-06 1.54592e-06 0 -6.60487e-06 1.61051e-06 0 -7.20041e-06 1.66322e-06 0 -7.8216e-06 1.69451e-06 0 -8.4632e-06 1.69028e-06 0 -9.1167e-06 1.63846e-06 0 -9.76861e-06 1.50352e-06 0 -1.03975e-05 1.2561e-06 0 -1.09716e-05 8.48552e-07 0 -1.14397e-05 2.00109e-07 0 -1.17195e-05 -7.85447e-07 0 -1.16697e-05 -2.23795e-06 0 -1.10315e-05 -4.30244e-06 0 -9.32086e-06 -7.02691e-06 0 -5.77094e-06 -9.97106e-06 0 -8.72821e-08 -1.15188e-05 0 0 9.26703e-07 0 -2.86142e-07 9.30387e-07 0 -5.74352e-07 9.40145e-07 0 -8.66656e-07 9.56451e-07 0 -1.16517e-06 9.79759e-07 0 -1.47198e-06 1.00925e-06 0 -1.7892e-06 1.04587e-06 0 -2.11903e-06 1.08916e-06 0 -2.46363e-06 1.13872e-06 0 -2.82522e-06 1.19574e-06 0 -3.20605e-06 1.25875e-06 0 -3.60831e-06 1.32789e-06 0 -4.03423e-06 1.40287e-06 0 -4.48587e-06 1.48214e-06 0 -4.96515e-06 1.56482e-06 0 -5.47376e-06 1.64853e-06 0 -6.01293e-06 1.73047e-06 0 -6.58325e-06 1.80509e-06 0 -7.18443e-06 1.86741e-06 0 -7.81483e-06 1.90725e-06 0 -8.4708e-06 1.90957e-06 0 -9.14601e-06 1.8614e-06 0 -9.83008e-06 1.72474e-06 0 -1.05062e-05 1.4679e-06 0 -1.11486e-05 1.03917e-06 0 -1.17151e-05 3.49748e-07 0 -1.21349e-05 -7.09937e-07 0 -1.22791e-05 -2.29707e-06 0 -1.18914e-05 -4.61579e-06 0 -1.04243e-05 -7.83183e-06 0 -6.79526e-06 -1.16165e-05 0 -1.36693e-07 -1.38294e-05 0 0 1.02156e-06 0 -2.83842e-07 1.02563e-06 0 -5.69746e-07 1.03641e-06 0 -8.59732e-07 1.05442e-06 0 -1.15591e-06 1.08016e-06 0 -1.46037e-06 1.11273e-06 0 -1.77523e-06 1.1532e-06 0 -2.10268e-06 1.20106e-06 0 -2.44491e-06 1.25588e-06 0 -2.80418e-06 1.31899e-06 0 -3.18278e-06 1.38879e-06 0 -3.58295e-06 1.46547e-06 0 -4.00702e-06 1.54875e-06 0 -4.45721e-06 1.63698e-06 0 -4.93564e-06 1.72932e-06 0 -5.44427e-06 1.82321e-06 0 -5.98472e-06 1.91572e-06 0 -6.5582e-06 2.00111e-06 0 -7.16518e-06 2.07405e-06 0 -7.80519e-06 2.12391e-06 0 -8.47622e-06 2.13491e-06 0 -9.17428e-06 2.09333e-06 0 -9.89231e-06 1.95929e-06 0 -1.06184e-05 1.6992e-06 0 -1.13337e-05 1.258e-06 0 -1.20062e-05 5.40103e-07 0 -1.25796e-05 -5.7625e-07 0 -1.29449e-05 -2.27514e-06 0 -1.28651e-05 -4.82592e-06 0 -1.17631e-05 -8.55457e-06 0 -8.20162e-06 -1.34118e-05 0 -2.34046e-07 -1.67008e-05 0 0 1.11562e-06 0 -2.81316e-07 1.12007e-06 0 -5.64685e-07 1.13186e-06 0 -8.52122e-07 1.15156e-06 0 -1.14574e-06 1.17974e-06 0 -1.44761e-06 1.2154e-06 0 -1.75985e-06 1.25971e-06 0 -2.08469e-06 1.31214e-06 0 -2.42431e-06 1.37222e-06 0 -2.781e-06 1.44144e-06 0 -3.1571e-06 1.51806e-06 0 -3.55493e-06 1.60235e-06 0 -3.97692e-06 1.69405e-06 0 -4.42542e-06 1.7914e-06 0 -4.90277e-06 1.89362e-06 0 -5.41123e-06 1.99806e-06 0 -5.95285e-06 2.10165e-06 0 -6.52941e-06 2.19857e-06 0 -7.14226e-06 2.28322e-06 0 -7.79208e-06 2.34463e-06 0 -8.47862e-06 2.36653e-06 0 -9.2003e-06 2.33466e-06 0 -9.95356e-06 2.20782e-06 0 -1.07317e-05 1.95103e-06 0 -1.15233e-05 1.50677e-06 0 -1.23078e-05 7.74176e-07 0 -1.30463e-05 -3.78595e-07 0 -1.3657e-05 -2.15973e-06 0 -1.39439e-05 -4.90366e-06 0 -1.3359e-05 -9.12951e-06 0 -1.01585e-05 -1.53151e-05 0 -4.44194e-07 -2.04519e-05 0 0 1.2088e-06 0 -2.78562e-07 1.21363e-06 0 -5.59168e-07 1.22643e-06 0 -8.43826e-07 1.24782e-06 0 -1.13464e-06 1.27842e-06 0 -1.43368e-06 1.31715e-06 0 -1.74308e-06 1.3653e-06 0 -2.06505e-06 1.42229e-06 0 -2.4018e-06 1.48764e-06 0 -2.75566e-06 1.56299e-06 0 -3.12901e-06 1.64648e-06 0 -3.52423e-06 1.73843e-06 0 -3.94386e-06 1.83866e-06 0 -4.39042e-06 1.94529e-06 0 -4.86643e-06 2.05766e-06 0 -5.3745e-06 2.17302e-06 0 -5.91708e-06 2.28821e-06 0 -6.49657e-06 2.39746e-06 0 -7.1152e-06 2.49491e-06 0 -7.77486e-06 2.56947e-06 0 -8.47709e-06 2.60459e-06 0 -9.22278e-06 2.58564e-06 0 -1.0012e-05 2.47076e-06 0 -1.08434e-05 2.22412e-06 0 -1.17136e-05 1.78669e-06 0 -1.26142e-05 1.05426e-06 0 -1.35262e-05 -1.12213e-07 0 -1.44023e-05 -1.93964e-06 0 -1.51097e-05 -4.81878e-06 0 -1.52126e-05 -9.46804e-06 0 -1.28958e-05 -1.7178e-05 0 -9.55284e-07 -2.57018e-05 0 0 1.30102e-06 0 -2.75582e-07 1.30623e-06 0 -5.532e-07 1.32004e-06 0 -8.3485e-07 1.34311e-06 0 -1.12263e-06 1.37612e-06 0 -1.41861e-06 1.41792e-06 0 -1.72491e-06 1.4699e-06 0 -2.04376e-06 1.53145e-06 0 -2.3774e-06 1.60207e-06 0 -2.72816e-06 1.68357e-06 0 -3.09848e-06 1.77395e-06 0 -3.49082e-06 1.87364e-06 0 -3.90782e-06 1.98249e-06 0 -4.35214e-06 2.09857e-06 0 -4.82654e-06 2.22135e-06 0 -5.33393e-06 2.348e-06 0 -5.8772e-06 2.47533e-06 0 -6.45939e-06 2.59771e-06 0 -7.08359e-06 2.7091e-06 0 -7.75291e-06 2.79842e-06 0 -8.47071e-06 2.84911e-06 0 -9.2404e-06 2.84637e-06 0 -1.00657e-05 2.74829e-06 0 -1.09508e-05 2.51881e-06 0 -1.19004e-05 2.09846e-06 0 -1.2919e-05 1.3818e-06 0 -1.40095e-05 2.2622e-07 0 -1.51639e-05 -1.60613e-06 0 -1.63328e-05 -4.54408e-06 0 -1.7283e-05 -9.46707e-06 0 -1.6637e-05 -1.86347e-05 0 -2.40348e-06 -3.38263e-05 0 0 1.39221e-06 0 -2.72379e-07 1.3978e-06 0 -5.46781e-07 1.41261e-06 0 -8.25195e-07 1.43736e-06 0 -1.10971e-06 1.47277e-06 0 -1.40238e-06 1.51762e-06 0 -1.70535e-06 1.57343e-06 0 -2.02084e-06 1.63953e-06 0 -2.35109e-06 1.71542e-06 0 -2.69849e-06 1.80308e-06 0 -3.0655e-06 1.90039e-06 0 -3.45467e-06 2.00787e-06 0 -3.86874e-06 2.12546e-06 0 -4.31052e-06 2.25115e-06 0 -4.78299e-06 2.38458e-06 0 -5.28938e-06 2.5229e-06 0 -5.83301e-06 2.66291e-06 0 -6.41754e-06 2.79923e-06 0 -7.04696e-06 2.9257e-06 0 -7.72559e-06 3.03141e-06 0 -8.45858e-06 3.10002e-06 0 -9.25186e-06 3.11677e-06 0 -1.01128e-05 3.04038e-06 0 -1.10511e-05 2.83513e-06 0 -1.20794e-05 2.44222e-06 0 -1.32158e-05 1.75726e-06 0 -1.44852e-05 6.38256e-07 0 -1.59225e-05 -1.1541e-06 0 -1.75734e-05 -4.06045e-06 0 -1.94764e-05 -9.03292e-06 0 -2.1365e-05 -1.90185e-05 0 -7.2887e-06 -4.85164e-05 0 0 1.4823e-06 0 -2.68952e-07 1.48827e-06 0 -5.39916e-07 1.50407e-06 0 -8.14866e-07 1.53048e-06 0 -1.09588e-06 1.56829e-06 0 -1.38502e-06 1.61618e-06 0 -1.6844e-06 1.67579e-06 0 -1.99628e-06 1.74644e-06 0 -2.32289e-06 1.8276e-06 0 -2.66664e-06 1.92143e-06 0 -3.03007e-06 2.0257e-06 0 -3.41576e-06 2.14102e-06 0 -3.82658e-06 2.26746e-06 0 -4.26549e-06 2.40291e-06 0 -4.73568e-06 2.54725e-06 0 -5.2407e-06 2.69761e-06 0 -5.78428e-06 2.85082e-06 0 -6.37072e-06 3.0019e-06 0 -7.00487e-06 3.14455e-06 0 -7.69225e-06 3.26826e-06 0 -8.43978e-06 3.35713e-06 0 -9.25582e-06 3.39663e-06 0 -1.01513e-05 3.34675e-06 0 -1.11414e-05 3.1727e-06 0 -1.22466e-05 2.81748e-06 0 -1.3498e-05 2.1801e-06 0 -1.49425e-05 1.12344e-06 0 -1.66575e-05 -5.82995e-07 0 -1.87851e-05 -3.3616e-06 0 -2.16511e-05 -8.11714e-06 0 -2.64303e-05 -1.76392e-05 0 -6.64654e-05 -6.07191e-05 0 </DataArray> 
</PointData> 
<Points> 
<DataArray type="Float32" NumberOfComponents="3"> 