<?xml version="1.0"?> 
<VTKFile type="StructuredGrid" version="0.1"> 
<StructuredGrid WholeExtent="0 31 0 31 0 0"> 
<Piece Extent="0 31 0 31 0 0"> 
<PointData>
<DataArray type="Float32" Name="B" format="ascii" NumberOfComponents="3"> 
0 -0 0 1.20767e-07 -0 0 2.42401e-07 -0 0 3.65754e-07 -0 0 4.91717e-07 -0 0 6.21165e-07 -0 0 7.54994e-07 -0 0 8.94138e-07 -0 0 1.03952e-06 -0 0 1.1921e-06 -0 0 1.35288e-06 -0 0 1.52283e-06 -0 0 1.70301e-06 -0 0 1.89445e-06 -0 0 2.09818e-06 -0 0 2.31527e-06 -0 0 2.54675e-06 -0 0 2.79365e-06 -0 0 3.05692e-06 -0 0 3.33745e-06 -0 0 3.63606e-06 -0 0 3.9534e-06 -0 0 4.28997e-06 -0 0 4.64604e-06 -0 0 5.02162e-06 -0 0 5.41641e-06 -0 0 5.82975e-06 -0 0 6.26054e-06 -0 0 6.70725e-06 -0 0 7.16782e-06 -0 0 7.63969e-06 -0 0 8.11975e-06 -0 0 0 -1.20407e-07 0 1.20283e-07 -1.20891e-07 0 2.41431e-07 -1.22172e-07 0 3.64294e-07 -1.24317e-07 0 4.89759e-07 -1.27388e-07 0 6.18702e-07 -1.31284e-07 0 7.52016e-07 -1.36144e-07 0 8.90632e-07 -1.41921e-07 0 1.03547e-06 -1.48579e-07 0 1.1875e-06 -1.56324e-07 0 1.34772e-06 -1.64989e-07 0 1.5171e-06 -1.74669e-07 0 1.69669e-06 -1.85434e-07 0 1.88753e-06 -1.97168e-07 0 2.09067e-06 -2.10027e-07 0 2.30718e-06 -2.23917e-07 0 2.53809e-06 -2.38776e-07 0 2.78444e-06 -2.54745e-07 0 3.0472e-06 -2.71584e-07 0 3.32728e-06 -2.89287e-07 0 3.62551e-06 -3.07767e-07 0 3.94257e-06 -3.26798e-07 0 4.27898e-06 -3.46259e-07 0 4.63503e-06 -3.65872e-07 0 5.01078e-06 -3.85365e-07 0 5.40594e-06 -4.04388e-07 0 5.81988e-06 -4.22553e-07 0 6.25154e-06 -4.39422e-07 0 6.69939e-06 -4.54503e-07 0 7.16141e-06 -4.67285e-07 0 7.63502e-06 -4.77232e-07 0 8.11713e-06 -4.8381e-07 0 0 -2.39949e-07 0 1.19004e-07 -2.40914e-07 0 2.38868e-07 -2.43471e-07 0 3.60434e-07 -2.4775e-07 0 4.84585e-07 -2.53879e-07 0 6.12192e-07 -2.61655e-07 0 7.44142e-07 -2.71355e-07 0 8.81365e-07 -2.82886e-07 0 1.02478e-06 -2.96181e-07 0 1.17535e-06 -3.11647e-07 0 1.33407e-06 -3.28956e-07 0 1.50192e-06 -3.48295e-07 0 1.67996e-06 -3.69811e-07 0 1.86924e-06 -3.93273e-07 0 2.0708e-06 -4.18995e-07 0 2.28575e-06 -4.46792e-07 0 2.51514e-06 -4.76543e-07 0 2.76003e-06 -5.08539e-07 0 3.02144e-06 -5.42299e-07 0 3.3003e-06 -5.77818e-07 0 3.59752e-06 -6.1493e-07 0 3.91381e-06 -6.53183e-07 0 4.24977e-06 -6.92346e-07 0 4.60576e-06 -7.31863e-07 0 4.98192e-06 -7.71189e-07 0 5.37803e-06 -8.09631e-07 0 5.79355e-06 -8.46407e-07 0 6.22747e-06 -8.80633e-07 0 6.67834e-06 -9.11319e-07 0 7.14417e-06 -9.37424e-07 0 7.62241e-06 -9.57865e-07 0 8.10994e-06 -9.71547e-07 0 0 -3.57785e-07 0 1.16878e-07 -3.59226e-07 0 2.34605e-07 -3.63047e-07 0 3.54015e-07 -3.69441e-07 0 4.75981e-07 -3.786e-07 0 6.01364e-07 -3.90222e-07 0 7.31044e-07 -4.04724e-07 0 8.65944e-07 -4.21966e-07 0 1.00698e-06 -4.41851e-07 0 1.15511e-06 -4.64992e-07 0 1.31133e-06 -4.90899e-07 0 1.47663e-06 -5.19859e-07 0 1.65208e-06 -5.52096e-07 0 1.83872e-06 -5.87267e-07 0 2.03765e-06 -6.25855e-07 0 2.24997e-06 -6.6759e-07 0 2.47679e-06 -7.12294e-07 0 2.71921e-06 -7.60425e-07 0 2.97831e-06 -8.11263e-07 0 3.25509e-06 -8.64818e-07 0 3.55054e-06 -9.20858e-07 0 3.86548e-06 -9.78707e-07 0 4.20061e-06 -1.03805e-06 0 4.55643e-06 -1.09804e-06 0 4.93317e-06 -1.15787e-06 0 5.33079e-06 -1.21652e-06 0 5.74886e-06 -1.27279e-06 0 6.1865e-06 -1.32535e-06 0 6.64236e-06 -1.37268e-06 0 7.11453e-06 -1.4132e-06 0 7.60049e-06 -1.44524e-06 0 8.09711e-06 -1.46708e-06 0 0 -4.73051e-07 0 1.13862e-07 -4.74962e-07 0 2.28559e-07 -4.80028e-07 0 3.44909e-07 -4.88506e-07 0 4.63771e-07 -5.00654e-07 0 5.85996e-07 -5.16071e-07 0 7.12449e-07 -5.35313e-07 0 8.44046e-07 -5.58198e-07 0 9.81692e-07 -5.846e-07 0 1.12635e-06 -6.15342e-07 0 1.279e-06 -6.49775e-07 0 1.44065e-06 -6.8829e-07 0 1.61237e-06 -7.31196e-07 0 1.79524e-06 -7.78045e-07 0 1.99035e-06 -8.29497e-07 0 2.19888e-06 -8.85203e-07 0 2.42197e-06 -9.44942e-07 0 2.66077e-06 -1.00936e-06 0 2.91647e-06 -1.0775e-06 0 3.19017e-06 -1.14941e-06 0 3.48295e-06 -1.22481e-06 0 3.7958e-06 -1.30281e-06 0 4.12956e-06 -1.38303e-06 0 4.48492e-06 -1.46435e-06 0 4.86231e-06 -1.54572e-06 0 5.26188e-06 -1.62575e-06 0 5.68339e-06 -1.70287e-06 0 6.12618e-06 -1.77526e-06 0 6.58904e-06 -1.84087e-06 0 7.07019e-06 -1.8975e-06 0 7.56718e-06 -1.94284e-06 0 8.07687e-06 -1.97452e-06 0 0 -5.8492e-07 0 1.1008e-07 -5.87291e-07 0 2.20975e-07 -5.93578e-07 0 3.33486e-07 -6.04099e-07 0 4.48454e-07 -6.19177e-07 0 5.6671e-07 -6.38318e-07 0 6.89108e-07 -6.62216e-07 0 8.16547e-07 -6.9065e-07 0 9.49924e-07 -7.23468e-07 0 1.09019e-06 -7.61706e-07 0 1.23834e-06 -8.04562e-07 0 1.39537e-06 -8.52537e-07 0 1.56236e-06 -9.06033e-07 0 1.74041e-06 -9.64501e-07 0 1.93067e-06 -1.0288e-06 0 2.13433e-06 -1.09851e-06 0 2.35259e-06 -1.17337e-06 0 2.58672e-06 -1.25425e-06 0 2.83797e-06 -1.33997e-06 0 3.10758e-06 -1.43063e-06 0 3.39679e-06 -1.52595e-06 0 3.70675e-06 -1.6248e-06 0 4.03851e-06 -1.72682e-06 0 4.393e-06 -1.83061e-06 0 4.7709e-06 -1.93485e-06 0 5.17261e-06 -2.03786e-06 0 5.59819e-06 -2.13766e-06 0 6.04721e-06 -2.23192e-06 0 6.51872e-06 -2.31801e-06 0 7.01111e-06 -2.39309e-06 0 7.52204e-06 -2.45412e-06 0 8.04837e-06 -2.49798e-06 0 0 -6.9258e-07 0 1.05439e-07 -6.95399e-07 0 2.11669e-07 -7.02874e-07 0 3.19467e-07 -7.15385e-07 0 4.29649e-07 -7.3332e-07 0 5.43026e-07 -7.56092e-07 0 6.60431e-07 -7.84538e-07 0 7.82745e-07 -8.18398e-07 0 9.10851e-07 -8.57499e-07 0 1.04569e-06 -9.03093e-07 0 1.18825e-06 -9.54231e-07 0 1.33952e-06 -1.01153e-06 0 1.50061e-06 -1.0755e-06 0 1.67264e-06 -1.1455e-06 0 1.85677e-06 -1.22259e-06 0 2.05426e-06 -1.30631e-06 0 2.26638e-06 -1.39637e-06 0 2.49449e-06 -1.4939e-06 0 2.73996e-06 -1.5975e-06 0 3.00418e-06 -1.70737e-06 0 3.28857e-06 -1.82325e-06 0 3.59451e-06 -1.9438e-06 0 3.92331e-06 -2.06872e-06 0 4.27618e-06 -2.19636e-06 0 4.65412e-06 -2.32515e-06 0 5.05792e-06 -2.45315e-06 0 5.48798e-06 -2.57793e-06 0 5.94425e-06 -2.69668e-06 0 6.42609e-06 -2.80612e-06 0 6.93218e-06 -2.90271e-06 0 7.46036e-06 -2.98257e-06 0 8.00755e-06 -3.04171e-06 0 0 -7.9522e-07 0 1.00024e-07 -7.98472e-07 0 2.00808e-07 -8.07095e-07 0 3.03102e-07 -8.2153e-07 0 4.07693e-07 -8.42229e-07 0 5.15363e-07 -8.68518e-07 0 6.26921e-07 -9.01372e-07 0 7.43225e-07 -9.40502e-07 0 8.65137e-07 -9.85715e-07 0 9.93584e-07 -1.03848e-06 0 1.12954e-06 -1.09772e-06 0 1.274e-06 -1.16416e-06 0 1.42808e-06 -1.23844e-06 0 1.59291e-06 -1.31982e-06 0 1.76969e-06 -1.40961e-06 0 1.95974e-06 -1.5073e-06 0 2.1644e-06 -1.61261e-06 0 2.38512e-06 -1.72697e-06 0 2.62342e-06 -1.84874e-06 0 2.88085e-06 -1.9783e-06 0 3.15906e-06 -2.11545e-06 0 3.45966e-06 -2.25865e-06 0 3.78429e-06 -2.40776e-06 0 4.13451e-06 -2.56086e-06 0 4.51173e-06 -2.7162e-06 0 4.91719e-06 -2.87159e-06 0 5.35175e-06 -3.02419e-06 0 5.81586e-06 -3.17066e-06 0 6.30934e-06 -3.30707e-06 0 6.83124e-06 -3.42906e-06 0 7.3797e-06 -3.53181e-06 0 7.95177e-06 -3.61029e-06 0 0 -8.92085e-07 0 9.39046e-08 -8.95752e-07 0 1.88535e-07 -9.05474e-07 0 2.84605e-07 -9.21754e-07 0 3.82868e-07 -9.45104e-07 0 4.84074e-07 -9.74772e-07 0 5.89001e-07 -1.01187e-06 0 6.98476e-07 -1.05607e-06 0 8.13339e-07 -1.10719e-06 0 9.34493e-07 -1.1669e-06 0 1.0629e-06 -1.23399e-06 0 1.19955e-06 -1.30935e-06 0 1.34555e-06 -1.3937e-06 0 1.50204e-06 -1.48627e-06 0 1.67028e-06 -1.5886e-06 0 1.85162e-06 -1.70017e-06 0 2.04747e-06 -1.8207e-06 0 2.25941e-06 -1.952e-06 0 2.48908e-06 -2.09222e-06 0 2.73822e-06 -2.24194e-06 0 3.00872e-06 -2.40108e-06 0 3.30248e-06 -2.56794e-06 0 3.62148e-06 -2.74263e-06 0 3.96773e-06 -2.923e-06 0 4.34311e-06 -3.10715e-06 0 4.7494e-06 -3.29273e-06 0 5.18807e-06 -3.4765e-06 0 5.66018e-06 -3.65459e-06 0 6.16615e-06 -3.82237e-06 0 6.70561e-06 -3.97458e-06 0 7.2771e-06 -4.10534e-06 0 7.8779e-06 -4.20832e-06 0 0 -9.82433e-07 0 8.6981e-08 -9.86492e-07 0 1.74646e-07 -9.97258e-07 0 2.63667e-07 -1.01529e-06 0 3.54757e-07 -1.04116e-06 0 4.48626e-07 -1.07403e-06 0 5.46012e-07 -1.11517e-06 0 6.47708e-07 -1.16422e-06 0 7.54518e-07 -1.22097e-06 0 8.67318e-07 -1.28734e-06 0 9.8704e-07 -1.362e-06 0 1.11466e-06 -1.44595e-06 0 1.25129e-06 -1.54009e-06 0 1.39807e-06 -1.64355e-06 0 1.55626e-06 -1.75818e-06 0 1.72728e-06 -1.88343e-06 0 1.9126e-06 -2.01909e-06 0 2.1139e-06 -2.16736e-06 0 2.33297e-06 -2.32622e-06 0 2.57174e-06 -2.49649e-06 0 2.83237e-06 -2.67832e-06 0 3.11707e-06 -2.86986e-06 0 3.42822e-06 -3.07158e-06 0 3.76833e-06 -3.28117e-06 0 4.13987e-06 -3.49663e-06 0 4.5453e-06 -3.71557e-06 0 4.98686e-06 -3.93437e-06 0 5.46642e-06 -4.14868e-06 0 5.98527e-06 -4.35314e-06 0 6.54384e-06 -4.54151e-06 0 7.14135e-06 -4.70665e-06 0 7.77555e-06 -4.84072e-06 0 0 -1.06556e-06 0 7.94315e-08 -1.06999e-06 0 1.59498e-07 -1.08173e-06 0 2.40828e-07 -1.1014e-06 0 3.24083e-07 -1.12963e-06 0 4.09928e-07 -1.16552e-06 0 4.99058e-07 -1.21046e-06 0 5.92219e-07 -1.26407e-06 0 6.90174e-07 -1.32616e-06 0 7.93763e-07 -1.39884e-06 0 9.03883e-07 -1.48069e-06 0 1.02149e-06 -1.57286e-06 0 1.14766e-06 -1.67638e-06 0 1.28354e-06 -1.79036e-06 0 1.43041e-06 -1.91692e-06 0 1.58971e-06 -2.05556e-06 0 1.76297e-06 -2.20611e-06 0 1.95197e-06 -2.37125e-06 0 2.15863e-06 -2.5488e-06 0 2.38508e-06 -2.73991e-06 0 2.63372e-06 -2.94502e-06 0 2.90713e-06 -3.16216e-06 0 3.20812e-06 -3.39236e-06 0 3.53976e-06 -3.63317e-06 0 3.90516e-06 -3.88262e-06 0 4.3076e-06 -4.13838e-06 0 4.75025e-06 -4.39658e-06 0 5.23601e-06 -4.65242e-06 0 5.76729e-06 -4.89985e-06 0 6.34561e-06 -5.13157e-06 0 6.97119e-06 -5.33902e-06 0 7.64252e-06 -5.51252e-06 0 0 -1.14083e-06 0 7.12519e-08 -1.1456e-06 0 1.43085e-07 -1.15824e-06 0 2.16072e-07 -1.17942e-06 0 2.90823e-07 -1.20983e-06 0 3.67948e-07 -1.24852e-06 0 4.48089e-07 -1.29697e-06 0 5.31938e-07 -1.35483e-06 0 6.20211e-07 -1.42188e-06 0 7.13696e-07 -1.50047e-06 0 8.13247e-07 -1.58907e-06 0 9.19779e-07 -1.68898e-06 0 1.03434e-06 -1.80139e-06 0 1.15805e-06 -1.92537e-06 0 1.29219e-06 -2.06339e-06 0 1.4382e-06 -2.21495e-06 0 1.59767e-06 -2.38e-06 0 1.77243e-06 -2.56175e-06 0 1.96454e-06 -2.75785e-06 0 2.1763e-06 -2.9699e-06 0 2.41037e-06 -3.19869e-06 0 2.66968e-06 -3.44221e-06 0 2.95748e-06 -3.70221e-06 0 3.27746e-06 -3.97619e-06 0 3.63348e-06 -4.26234e-06 0 4.02974e-06 -4.55861e-06 0 4.47053e-06 -4.86098e-06 0 4.96006e-06 -5.16436e-06 0 5.50219e-06 -5.46207e-06 0 6.09994e-06 -5.74574e-06 0 6.75504e-06 -6.00522e-06 0 7.46719e-06 -6.22866e-06 0 0 -1.20762e-06 0 6.24676e-08 -1.21269e-06 0 1.25455e-07 -1.22615e-06 0 1.89475e-07 -1.24871e-06 0 2.55074e-07 -1.2811e-06 0 3.22803e-07 -1.32231e-06 0 3.93241e-07 -1.37397e-06 0 4.67019e-07 -1.4357e-06 0 5.4479e-07 -1.50729e-06 0 6.27281e-07 -1.5913e-06 0 7.15289e-07 -1.68611e-06 0 8.09674e-07 -1.79319e-06 0 9.11429e-07 -1.91388e-06 0 1.02164e-06 -2.04724e-06 0 1.14155e-06 -2.19605e-06 0 1.27259e-06 -2.35991e-06 0 1.41636e-06 -2.53886e-06 0 1.57473e-06 -2.7367e-06 0 1.74986e-06 -2.95098e-06 0 1.94418e-06 -3.18379e-06 0 2.16059e-06 -3.43638e-06 0 2.40235e-06 -3.70676e-06 0 2.67316e-06 -3.99761e-06 0 2.97734e-06 -4.3065e-06 0 3.31956e-06 -4.63197e-06 0 3.70509e-06 -4.97248e-06 0 4.13954e-06 -5.32409e-06 0 4.62873e-06 -5.68163e-06 0 5.17839e-06 -6.038e-06 0 5.79367e-06 -6.38383e-06 0 6.47844e-06 -6.70728e-06 0 7.23443e-06 -6.994e-06 0 0 -1.2654e-06 0 5.32062e-08 -1.27074e-06 0 1.06865e-07 -1.28492e-06 0 1.61423e-07 -1.30868e-06 0 2.17357e-07 -1.34283e-06 0 2.75151e-07 -1.38629e-06 0 3.35313e-07 -1.44079e-06 0 3.98404e-07 -1.50597e-06 0 4.65006e-07 -1.58161e-06 0 5.35775e-07 -1.67048e-06 0 6.11432e-07 -1.77089e-06 0 6.92767e-07 -1.88445e-06 0 7.80706e-07 -2.01267e-06 0 8.76272e-07 -2.15462e-06 0 9.80644e-07 -2.31341e-06 0 1.09522e-06 -2.48872e-06 0 1.22156e-06 -2.68074e-06 0 1.36157e-06 -2.89388e-06 0 1.51743e-06 -3.12565e-06 0 1.69168e-06 -3.37867e-06 0 1.88742e-06 -3.6548e-06 0 2.10817e-06 -3.95212e-06 0 2.35807e-06 -4.27446e-06 0 2.64206e-06 -4.61962e-06 0 2.96564e-06 -4.98668e-06 0 3.33524e-06 -5.37497e-06 0 3.75792e-06 -5.78094e-06 0 4.24143e-06 -6.1997e-06 0 4.79379e-06 -6.62405e-06 0 5.42289e-06 -7.04388e-06 0 6.13564e-06 -7.44575e-06 0 6.93677e-06 -7.8125e-06 0 0 -1.31368e-06 0 4.34669e-08 -1.31926e-06 0 8.73121e-08 -1.33405e-06 0 1.3191e-07 -1.35885e-06 0 1.77661e-07 -1.39449e-06 0 2.24973e-07 -1.43988e-06 0 2.74277e-07 -1.49684e-06 0 3.2605e-07 -1.56498e-06 0 3.80793e-07 -1.64413e-06 0 4.39074e-07 -1.73722e-06 0 5.01527e-07 -1.84252e-06 0 5.6885e-07 -1.96177e-06 0 6.41875e-07 -2.09665e-06 0 7.21534e-07 -2.24624e-06 0 8.08914e-07 -2.41399e-06 0 9.05327e-07 -2.59968e-06 0 1.01227e-06 -2.80366e-06 0 1.13158e-06 -3.03099e-06 0 1.26544e-06 -3.27916e-06 0 1.41641e-06 -3.55142e-06 0 1.58768e-06 -3.85032e-06 0 1.78298e-06 -4.17408e-06 0 2.00681e-06 -4.52795e-06 0 2.26465e-06 -4.9101e-06 0 2.5628e-06 -5.32041e-06 0 2.90885e-06 -5.75953e-06 0 3.31149e-06 -6.22468e-06 0 3.78061e-06 -6.71177e-06 0 4.3271e-06 -7.21409e-06 0 4.96241e-06 -7.72133e-06 0 5.69772e-06 -8.2188e-06 0 6.5425e-06 -8.68655e-06 0 0 -1.35206e-06 0 3.33607e-08 -1.35782e-06 0 6.70201e-08 -1.37312e-06 0 1.01275e-07 -1.39876e-06 0 1.36442e-07 -1.43563e-06 0 1.72846e-07 -1.4826e-06 0 2.10834e-07 -1.54156e-06 0 2.50791e-07 -1.61215e-06 0 2.93126e-07 -1.6942e-06 0 3.38305e-07 -1.7908e-06 0 3.86859e-07 -1.90018e-06 0 4.39376e-07 -2.02421e-06 0 4.9657e-07 -2.16474e-06 0 5.59251e-07 -2.32085e-06 0 6.28382e-07 -2.49632e-06 0 7.05146e-07 -2.69105e-06 0 7.90919e-07 -2.90557e-06 0 8.87415e-07 -3.14559e-06 0 9.96722e-07 -3.40864e-06 0 1.12134e-06 -3.69863e-06 0 1.26447e-06 -4.01887e-06 0 1.42991e-06 -4.36785e-06 0 1.62238e-06 -4.75243e-06 0 1.84779e-06 -5.17135e-06 0 2.11311e-06 -5.62562e-06 0 2.42703e-06 -6.11762e-06 0 2.79985e-06 -6.64592e-06 0 3.24379e-06 -7.20794e-06 0 3.77298e-06 -7.79834e-06 0 4.40323e-06 -8.40754e-06 0 5.15137e-06 -9.02056e-06 0 6.03376e-06 -9.61522e-06 0 0 -1.38019e-06 0 2.29747e-08 -1.3861e-06 0 4.6164e-08 -1.40178e-06 0 6.97812e-08 -1.42806e-06 0 9.4056e-08 -1.46587e-06 0 1.19224e-07 -1.51404e-06 0 1.45541e-07 -1.57454e-06 0 1.7329e-07 -1.64701e-06 0 2.0278e-07 -1.7313e-06 0 2.34365e-07 -1.83062e-06 0 2.68454e-07 -1.94318e-06 0 3.05511e-07 -2.07099e-06 0 3.46106e-07 -2.216e-06 0 3.90901e-07 -2.37734e-06 0 4.40698e-07 -2.5591e-06 0 4.96504e-07 -2.76128e-06 0 5.59516e-07 -2.9846e-06 0 6.31262e-07 -3.23542e-06 0 7.13645e-07 -3.51131e-06 0 8.09003e-07 -3.81691e-06 0 9.20394e-07 -4.15634e-06 0 1.05157e-06 -4.52846e-06 0 1.20727e-06 -4.94187e-06 0 1.39364e-06 -5.39614e-06 0 1.61814e-06 -5.89368e-06 0 1.89033e-06 -6.43913e-06 0 2.22198e-06 -7.03306e-06 0 2.62759e-06 -7.67526e-06 0 3.12471e-06 -8.36297e-06 0 3.73415e-06 -9.08886e-06 0 4.47973e-06 -9.83939e-06 0 5.38714e-06 -1.05919e-05 0 0 -1.39783e-06 0 1.23524e-08 -1.40383e-06 0 2.48309e-08 -1.41976e-06 0 3.75612e-08 -1.44648e-06 0 5.06798e-08 -1.4849e-06 0 6.43286e-08 -1.53388e-06 0 7.86628e-08 -1.59541e-06 0 9.38598e-08 -1.66916e-06 0 1.10114e-07 -1.75497e-06 0 1.27657e-07 -1.85617e-06 0 1.4676e-07 -1.97095e-06 0 1.67741e-07 -2.1014e-06 0 1.91001e-07 -2.24962e-06 0 2.17019e-07 -2.41475e-06 0 2.46395e-07 -2.60114e-06 0 2.79902e-07 -2.80891e-06 0 3.18488e-07 -3.03896e-06 0 3.63402e-07 -3.29824e-06 0 4.16245e-07 -3.58443e-06 0 4.79047e-07 -3.90285e-06 0 5.54541e-07 -4.25847e-06 0 6.46185e-07 -4.65057e-06 0 7.58491e-07 -5.08966e-06 0 8.97473e-07 -5.57628e-06 0 1.07068e-06 -6.11453e-06 0 1.28812e-06 -6.71183e-06 0 1.56257e-06 -7.3714e-06 0 1.91036e-06 -8.09646e-06 0 2.35224e-06 -8.88831e-06 0 2.91415e-06 -9.74395e-06 0 3.62797e-06 -1.06542e-05 0 4.5316e-06 -1.15993e-05 0 0 -1.40481e-06 0 1.6173e-09 -1.41085e-06 0 3.26948e-09 -1.4269e-06 0 4.9921e-09 -1.45382e-06 0 6.82536e-09 -1.49254e-06 0 8.81354e-09 -1.54191e-06 0 1.10084e-08 -1.60395e-06 0 1.34739e-08 -1.67833e-06 0 1.62858e-08 -1.76492e-06 0 1.95419e-08 -1.86709e-06 0 2.33662e-08 -1.98305e-06 0 2.79153e-08 -2.11495e-06 0 3.34013e-08 -2.26496e-06 0 4.00961e-08 -2.43229e-06 0 4.83604e-08 -2.62146e-06 0 5.86897e-08 -2.83272e-06 0 7.17253e-08 -3.06712e-06 0 8.83558e-08 -3.3321e-06 0 1.09779e-07 -3.62549e-06 0 1.37579e-07 -3.95324e-06 0 1.73988e-07 -4.32113e-06 0 2.21946e-07 -4.72895e-06 0 2.85441e-07 -5.18906e-06 0 3.69992e-07 -5.70316e-06 0 4.82791e-07 -6.27727e-06 0 6.33726e-07 -6.92195e-06 0 8.35888e-07 -7.64373e-06 0 1.10671e-06 -8.45028e-06 0 1.46928e-06 -9.34859e-06 0 1.95396e-06 -1.03426e-05 0 2.60043e-06 -1.14311e-05 0 3.45991e-06 -1.26035e-05 0 0 -1.40104e-06 0 -9.15312e-09 -1.40708e-06 0 -1.83641e-08 -1.42311e-06 0 -2.76893e-08 -1.45001e-06 0 -3.71866e-08 -1.48869e-06 0 -4.6912e-08 -1.53802e-06 0 -5.69198e-08 -1.60003e-06 0 -6.72636e-08 -1.67438e-06 0 -7.79913e-08 -1.76096e-06 0 -8.91457e-08 -1.86316e-06 0 -1.0076e-07 -1.97921e-06 0 -1.1285e-07 -2.11128e-06 0 -1.25411e-07 -2.2616e-06 0 -1.38403e-07 -2.42942e-06 0 -1.51733e-07 -2.61938e-06 0 -1.6523e-07 -2.83181e-06 0 -1.78619e-07 -3.06789e-06 0 -1.91454e-07 -3.33544e-06 0 -2.03053e-07 -3.63243e-06 0 -2.12421e-07 -3.96536e-06 0 -2.18037e-07 -4.34071e-06 0 -2.17746e-07 -4.75879e-06 0 -2.08438e-07 -5.23371e-06 0 -1.85565e-07 -5.76839e-06 0 -1.42897e-07 -6.37086e-06 0 -7.14669e-08 -7.05504e-06 0 4.11236e-08 -7.83124e-06 0 2.12094e-07 -8.71242e-06 0 4.65223e-07 -9.71273e-06 0 8.33273e-07 -1.08454e-05 0 1.36142e-06 -1.2122e-05 0 2.11216e-06 -1.35481e-05 0 0 -1.38654e-06 0 -1.98634e-08 -1.39253e-06 0 -3.98774e-08 -1.4084e-06 0 -6.01907e-08 -1.43504e-06 0 -8.09597e-08 -1.47336e-06 0 -1.02341e-07 -1.52222e-06 0 -1.24496e-07 -1.58363e-06 0 -1.47598e-07 -1.65729e-06 0 -1.7182e-07 -1.74306e-06 0 -1.97349e-07 -1.84434e-06 0 -2.24381e-07 -1.95935e-06 0 -2.53115e-07 -2.09028e-06 0 -2.83762e-07 -2.23936e-06 0 -3.16531e-07 -2.40588e-06 0 -3.51625e-07 -2.59449e-06 0 -3.89231e-07 -2.80561e-06 0 -4.29492e-07 -3.04049e-06 0 -4.72478e-07 -3.30713e-06 0 -5.18129e-07 -3.60369e-06 0 -5.66185e-07 -3.93701e-06 0 -6.16042e-07 -4.31414e-06 0 -6.66613e-07 -4.73587e-06 0 -7.16057e-07 -5.21774e-06 0 -7.61343e-07 -5.76388e-06 0 -7.97912e-07 -6.38427e-06 0 -8.18707e-07 -7.09609e-06 0 -8.13338e-07 -7.91361e-06 0 -7.66594e-07 -8.85547e-06 0 -6.56471e-07 -9.94381e-06 0 -4.51308e-07 -1.1203e-05 0 -1.05457e-07 -1.26604e-05 0 4.47605e-07 -1.43452e-05 0 0 -1.36142e-06 0 -3.0436e-08 -1.36729e-06 0 -6.11144e-08 -1.38288e-06 0 -9.22745e-08 -1.40903e-06 0 -1.2417e-07 -1.44664e-06 0 -1.57058e-07 -1.4946e-06 0 -1.91204e-07 -1.55488e-06 0 -2.26901e-07 -1.62717e-06 0 -2.64447e-07 -1.71134e-06 0 -3.04173e-07 -1.81072e-06 0 -3.46438e-07 -1.92357e-06 0 -3.91623e-07 -2.05204e-06 0 -4.40163e-07 -2.19831e-06 0 -4.92522e-07 -2.36169e-06 0 -5.49208e-07 -2.54678e-06 0 -6.10791e-07 -2.75401e-06 0 -6.77858e-07 -2.98466e-06 0 -7.51045e-07 -3.24672e-06 0 -8.30987e-07 -3.53848e-06 0 -9.18266e-07 -3.86694e-06 0 -1.01336e-06 -4.23945e-06 0 -1.11648e-06 -4.65723e-06 0 -1.22738e-06 -5.13675e-06 0 -1.34505e-06 -5.68321e-06 0 -1.46724e-06 -6.30822e-06 0 -1.58974e-06 -7.03184e-06 0 -1.70546e-06 -7.87203e-06 0 -1.803e-06 -8.85291e-06 0 -1.86471e-06 -1.00045e-05 0 -1.86391e-06 -1.13626e-05 0 -1.76061e-06 -1.29712e-05 0 -1.49456e-06 -1.48854e-05 0 0 -1.32586e-06 0 -4.07509e-08 -1.33158e-06 0 -8.18327e-08 -1.34674e-06 0 -1.23573e-07 -1.37217e-06 0 -1.66319e-07 -1.40875e-06 0 -2.10423e-07 -1.45539e-06 0 -2.56256e-07 -1.514e-06 0 -3.04222e-07 -1.58426e-06 0 -3.5474e-07 -1.66606e-06 0 -4.08282e-07 -1.7626e-06 0 -4.65363e-07 -1.87218e-06 0 -5.26543e-07 -1.99688e-06 0 -5.92474e-07 -2.13879e-06 0 -6.63873e-07 -2.29723e-06 0 -7.41552e-07 -2.47662e-06 0 -8.26464e-07 -2.67738e-06 0 -9.19657e-07 -2.90074e-06 0 -1.02236e-06 -3.15443e-06 0 -1.13594e-06 -3.43687e-06 0 -1.26191e-06 -3.75493e-06 0 -1.40196e-06 -4.11597e-06 0 -1.55782e-06 -4.52146e-06 0 -1.73117e-06 -4.98816e-06 0 -1.92349e-06 -5.52203e-06 0 -2.13559e-06 -6.13584e-06 0 -2.36713e-06 -6.85168e-06 0 -2.61576e-06 -7.69057e-06 0 -2.87592e-06 -8.68119e-06 0 -3.13722e-06 -9.8604e-06 0 -3.38227e-06 -1.12735e-05 0 -3.58371e-06 -1.29788e-05 0 -3.69974e-06 -1.50532e-05 0 0 -1.28016e-06 0 -5.07421e-08 -1.28566e-06 0 -1.019e-07 -1.30027e-06 0 -1.53883e-07 -1.32477e-06 0 -2.07131e-07 -1.36001e-06 0 -2.62085e-07 -1.40492e-06 0 -3.19213e-07 -1.46134e-06 0 -3.79026e-07 -1.52896e-06 0 -4.42059e-07 -1.60764e-06 0 -5.08912e-07 -1.70043e-06 0 -5.80247e-07 -1.80569e-06 0 -6.56793e-07 -1.92538e-06 0 -7.39405e-07 -2.06145e-06 0 -8.29034e-07 -2.21321e-06 0 -9.26783e-07 -2.38482e-06 0 -1.03397e-06 -2.57661e-06 0 -1.15209e-06 -2.7897e-06 0 -1.28294e-06 -3.03132e-06 0 -1.42863e-06 -3.29996e-06 0 -1.59162e-06 -3.60206e-06 0 -1.77487e-06 -3.9446e-06 0 -1.98173e-06 -4.32913e-06 0 -2.21599e-06 -4.77185e-06 0 -2.48198e-06 -5.27903e-06 0 -2.78408e-06 -5.86385e-06 0 -3.12664e-06 -6.5493e-06 0 -3.5132e-06 -7.35834e-06 0 -3.94561e-06 -8.32277e-06 0 -4.42282e-06 -9.48419e-06 0 -4.93948e-06 -1.08945e-05 0 -5.48493e-06 -1.26209e-05 0 -6.04263e-06 -1.47521e-05 0 0 -1.22467e-06 0 -6.03339e-08 -1.22992e-06 0 -1.21162e-07 -1.24386e-06 0 -1.82974e-07 -1.26722e-06 0 -2.46291e-07 -1.30082e-06 0 -3.11639e-07 -1.34362e-06 0 -3.79576e-07 -1.39738e-06 0 -4.50711e-07 -1.46175e-06 0 -5.25682e-07 -1.53662e-06 0 -6.05208e-07 -1.62482e-06 0 -6.90083e-07 -1.72479e-06 0 -7.81184e-07 -1.8383e-06 0 -8.79548e-07 -1.96716e-06 0 -9.86335e-07 -2.11065e-06 0 -1.1029e-06 -2.27254e-06 0 -1.2309e-06 -2.45306e-06 0 -1.37222e-06 -2.65313e-06 0 -1.52918e-06 -2.87924e-06 0 -1.70459e-06 -3.12986e-06 0 -1.90179e-06 -3.41072e-06 0 -2.12497e-06 -3.728e-06 0 -2.37909e-06 -4.08306e-06 0 -2.67013e-06 -4.4906e-06 0 -3.00543e-06 -4.95661e-06 0 -3.39327e-06 -5.49376e-06 0 -3.84329e-06 -6.12441e-06 0 -4.36583e-06 -6.87203e-06 0 -4.97138e-06 -7.76972e-06 0 -5.66953e-06 -8.86157e-06 0 -6.46818e-06 -1.02028e-05 0 -7.37383e-06 -1.18632e-05 0 -8.39507e-06 -1.39318e-05 0 0 -1.15986e-06 0 -6.94273e-08 -1.16481e-06 0 -1.39421e-07 -1.17796e-06 0 -2.10543e-07 -1.2e-06 0 -2.83389e-07 -1.23169e-06 0 -3.58563e-07 -1.27204e-06 0 -4.36701e-07 -1.32267e-06 0 -5.185e-07 -1.38328e-06 0 -6.04689e-07 -1.45369e-06 0 -6.96086e-07 -1.53655e-06 0 -7.93599e-07 -1.63034e-06 0 -8.98228e-07 -1.73666e-06 0 -1.01116e-06 -1.85709e-06 0 -1.13372e-06 -1.99089e-06 0 -1.26748e-06 -2.14138e-06 0 -1.41435e-06 -2.30863e-06 0 -1.57653e-06 -2.49328e-06 0 -1.75679e-06 -2.70087e-06 0 -1.9585e-06 -2.9298e-06 0 -2.18575e-06 -3.18476e-06 0 -2.44382e-06 -3.47074e-06 0 -2.73911e-06 -3.78862e-06 0 -3.07967e-06 -4.15055e-06 0 -3.47575e-06 -4.56158e-06 0 -3.93962e-06 -5.03269e-06 0 -4.48654e-06 -5.58381e-06 0 -5.13437e-06 -6.23712e-06 0 -5.90326e-06 -7.02502e-06 0 -6.81459e-06 -7.99196e-06 0 -7.88941e-06 -9.19434e-06 0 -9.14835e-06 -1.07014e-05 0 -1.06168e-05 -1.25931e-05 0 0 -1.08624e-06 0 -7.79593e-08 -1.09086e-06 0 -1.56551e-07 -1.10312e-06 0 -2.36398e-07 -1.12367e-06 0 -3.18167e-07 -1.15319e-06 0 -4.02527e-07 -1.19077e-06 0 -4.90184e-07 -1.2379e-06 0 -5.8191e-07 -1.29425e-06 0 -6.78508e-07 -1.35967e-06 0 -7.80879e-07 -1.43651e-06 0 -8.90018e-07 -1.52336e-06 0 -1.00702e-06 -1.6216e-06 0 -1.13318e-06 -1.73258e-06 0 -1.26995e-06 -1.85552e-06 0 -1.41905e-06 -1.99324e-06 0 -1.58255e-06 -2.14558e-06 0 -1.76289e-06 -2.31291e-06 0 -1.96312e-06 -2.49961e-06 0 -2.18701e-06 -2.70394e-06 0 -2.4392e-06 -2.92932e-06 0 -2.72574e-06 -3.17916e-06 0 -3.05418e-06 -3.45356e-06 0 -3.43423e-06 -3.7612e-06 0 -3.87869e-06 -4.10532e-06 0 -4.40348e-06 -4.49394e-06 0 -5.02939e-06 -4.94242e-06 0 -5.78216e-06 -5.46936e-06 0 -6.69277e-06 -6.10391e-06 0 -7.79607e-06 -6.88908e-06 0 -9.12716e-06 -7.88273e-06 0 -1.07166e-05 -9.15588e-06 0 -1.25911e-05 -1.07808e-05 0 0 -1.00441e-06 0 -8.58656e-08 -1.00866e-06 0 -1.7242e-07 -1.01994e-06 0 -2.60345e-07 -1.03884e-06 0 -3.50362e-07 -1.06599e-06 0 -4.432e-07 -1.10053e-06 0 -5.39622e-07 -1.1438e-06 0 -6.4046e-07 -1.19549e-06 0 -7.46578e-07 -1.25542e-06 0 -8.58936e-07 -1.3257e-06 0 -9.78595e-07 -1.40498e-06 0 -1.10671e-06 -1.49443e-06 0 -1.24464e-06 -1.59515e-06 0 -1.39392e-06 -1.70633e-06 0 -1.55631e-06 -1.83024e-06 0 -1.734e-06 -1.96651e-06 0 -1.9295e-06 -2.11518e-06 0 -2.14599e-06 -2.27937e-06 0 -2.38742e-06 -2.45719e-06 0 -2.65865e-06 -2.65059e-06 0 -2.96616e-06 -2.86113e-06 0 -3.31809e-06 -3.08789e-06 0 -3.7252e-06 -3.33522e-06 0 -4.20201e-06 -3.60381e-06 0 -4.76725e-06 -3.89731e-06 0 -5.44646e-06 -4.22407e-06 0 -6.27302e-06 -4.59606e-06 0 -7.28993e-06 -5.03529e-06 0 -8.54922e-06 -5.58017e-06 0 -1.01058e-05 -6.29179e-06 0 -1.20018e-05 -7.25513e-06 0 -1.42476e-05 -8.55544e-06 0 0 -9.1502e-07 0 -9.3087e-08 -9.18875e-07 0 -1.86912e-07 -9.29099e-07 0 -2.82205e-07 -9.46225e-07 0 -3.79736e-07 -9.70807e-07 0 -4.80281e-07 -1.00206e-06 0 -5.84651e-07 -1.04119e-06 0 -6.93726e-07 -1.08788e-06 0 -8.08409e-07 -1.14193e-06 0 -9.29705e-07 -1.2052e-06 0 -1.05871e-06 -1.27641e-06 0 -1.19661e-06 -1.35653e-06 0 -1.34478e-06 -1.44641e-06 0 -1.50477e-06 -1.54522e-06 0 -1.67835e-06 -1.65467e-06 0 -1.86766e-06 -1.7742e-06 0 -2.0752e-06 -1.90349e-06 0 -2.30407e-06 -2.04445e-06 0 -2.55812e-06 -2.19497e-06 0 -2.84212e-06 -2.35547e-06 0 -3.16245e-06 -2.5256e-06 0 -3.52721e-06 -2.70323e-06 0 -3.94725e-06 -2.88788e-06 0 -4.4376e-06 -3.07704e-06 0 -5.01821e-06 -3.26879e-06 0 -5.71747e-06 -3.46198e-06 0 -6.57475e-06 -3.65799e-06 0 -7.64497e-06 -3.86528e-06 0 -9.00249e-06 -4.10921e-06 0 -1.07382e-05 -4.45018e-06 0 -1.29311e-05 -5.00757e-06 0 -1.55703e-05 -5.94366e-06 0 0 -8.18782e-07 0 -9.95767e-08 -8.22214e-07 0 -1.99933e-07 -8.31314e-07 0 -3.01837e-07 -8.46553e-07 0 -4.06101e-07 -8.68414e-07 0 -5.1354e-07 -8.96195e-07 0 -6.24998e-07 -9.30937e-07 0 -7.4139e-07 -9.72342e-07 0 -8.63646e-07 -1.02022e-06 0 -9.92795e-07 -1.07613e-06 0 -1.12994e-06 -1.13891e-06 0 -1.27627e-06 -1.20934e-06 0 -1.43316e-06 -1.28802e-06 0 -1.60208e-06 -1.37412e-06 0 -1.78475e-06 -1.46884e-06 0 -1.98319e-06 -1.57143e-06 0 -2.19971e-06 -1.68129e-06 0 -2.43717e-06 -1.79914e-06 0 -2.69906e-06 -1.92274e-06 0 -2.98968e-06 -2.05107e-06 0 -3.31476e-06 -2.18191e-06 0 -3.68161e-06 -2.31194e-06 0 -4.1001e-06 -2.43587e-06 0 -4.58408e-06 -2.5477e-06 0 -5.15247e-06 -2.63925e-06 0 -5.83314e-06 -2.69814e-06 0 -6.66697e-06 -2.71111e-06 0 -7.71617e-06 -2.66429e-06 0 -9.07733e-06 -2.55172e-06 0 -1.08993e-05 -2.40367e-06 0 -1.33819e-05 -2.36609e-06 0 -1.65989e-05 -2.84007e-06 0 0 -7.16446e-07 0 -1.05294e-07 -7.19433e-07 0 -2.11401e-07 -7.27354e-07 0 -3.19122e-07 -7.40615e-07 0 -4.29302e-07 -7.59628e-07 0 -5.42782e-07 -7.83774e-07 0 -6.60436e-07 -8.13941e-07 0 -7.83197e-07 -8.49852e-07 0 -9.12014e-07 -8.91314e-07 0 -1.04792e-06 -9.39629e-07 0 -1.19201e-06 -9.93759e-07 0 -1.34544e-06 -1.05428e-06 0 -1.50954e-06 -1.12161e-06 0 -1.68569e-06 -1.19491e-06 0 -1.87547e-06 -1.27496e-06 0 -2.08071e-06 -1.36086e-06 0 -2.30341e-06 -1.45181e-06 0 -2.54602e-06 -1.54753e-06 0 -2.81144e-06 -1.64569e-06 0 -3.10315e-06 -1.74409e-06 0 -3.42574e-06 -1.83895e-06 0 -3.78496e-06 -1.92595e-06 0 -4.18856e-06 -1.99567e-06 0 -4.64746e-06 -2.03887e-06 0 -5.17674e-06 -2.04152e-06 0 -5.79917e-06 -1.98008e-06 0 -6.54955e-06 -1.82505e-06 0 -7.48451e-06 -1.53359e-06 0 -8.70314e-06 -1.04604e-06 0 -1.03963e-05 -2.93133e-07 0 -1.29751e-05 7.40034e-07 0 -1.73816e-05 1.39596e-06 0 0 -6.08799e-07 0 -1.10206e-07 -6.11326e-07 0 -2.21251e-07 -6.18023e-07 0 -3.33963e-07 -6.29232e-07 0 -4.49209e-07 -6.45296e-07 0 -5.67854e-07 -6.65685e-07 0 -6.90789e-07 -6.91133e-07 0 -8.18959e-07 -7.21393e-07 0 -9.53316e-07 -7.56282e-07 0 -1.09488e-06 -7.9685e-07 0 -1.24474e-06 -8.42195e-07 0 -1.404e-06 -8.92736e-07 0 -1.57389e-06 -9.48709e-07 0 -1.7557e-06 -1.00935e-06 0 -1.95083e-06 -1.07506e-06 0 -2.16081e-06 -1.14489e-06 0 -2.38731e-06 -1.2179e-06 0 -2.63221e-06 -1.29312e-06 0 -2.89765e-06 -1.36822e-06 0 -3.18605e-06 -1.4402e-06 0 -3.50042e-06 -1.50426e-06 0 -3.84438e-06 -1.55545e-06 0 -4.22261e-06 -1.58149e-06 0 -4.64153e-06 -1.57094e-06 0 -5.10986e-06 -1.50557e-06 0 -5.64069e-06 -1.35361e-06 0 -6.25403e-06 -1.07284e-06 0 -6.98277e-06 -5.95739e-07 0 -7.88619e-06 1.90978e-07 0 -9.08921e-06 1.49174e-06 0 -1.0933e-05 3.72217e-06 0 4.14981e-06 1.20681e-06 0 </DataArray> 
</PointData> 
<Points> 
<DataArray type="Float32" NumberOfComponents="3"> 