<?xml version="1.0"?> 
<VTKFile type="StructuredGrid" version="0.1"> 
<StructuredGrid WholeExtent="0 31 0 31 0 0"> 
<Piece Extent="0 31 0 31 0 0"> 
<PointData>
<DataArray type="Float32" Name="B" format="ascii" NumberOfComponents="3"> 
6.09857e-05 0.000124228 0 7.82303e-05 2.53851e-07 0 8.05992e-05 -5.90934e-07 0 8.81637e-05 -8.40478e-07 0 9.77422e-05 -9.65782e-07 0 0.000108291 -1.01828e-06 0 0.000119079 -1.0079e-06 0 0.000129492 -9.45073e-07 0 0.000139056 -8.45874e-07 0 0.000147477 -7.28108e-07 0 0.00015462 -6.04428e-07 0 0.000160459 -4.82707e-07 0 0.000165028 -3.6647e-07 0 0.000168385 -2.56407e-07 0 0.000170586 -1.51563e-07 0 0.000171675 -5.01248e-08 0 0.000171675 5.01248e-08 0 0.000170586 1.51563e-07 0 0.000168385 2.56407e-07 0 0.000165028 3.6647e-07 0 0.000160459 4.82707e-07 0 0.00015462 6.04428e-07 0 0.000147477 7.28108e-07 0 0.000139056 8.45874e-07 0 0.000129492 9.45073e-07 0 0.000119079 1.0079e-06 0 0.000108291 1.01828e-06 0 9.77422e-05 9.65782e-07 0 8.81637e-05 8.40478e-07 0 8.05992e-05 5.90934e-07 0 7.82303e-05 -2.53851e-07 0 6.09857e-05 -0.000124228 0 5.90663e-05 7.06523e-06 0 7.10394e-05 -2.05763e-06 0 7.84247e-05 -7.31023e-06 0 8.70867e-05 -9.89117e-06 0 9.71867e-05 -1.13261e-05 0 0.000108158 -1.1944e-05 0 0.000119322 -1.18219e-05 0 0.00013002 -1.10802e-05 0 0.000139756 -9.9139e-06 0 0.000148252 -8.53467e-06 0 0.000155404 -7.08895e-06 0 0.000161217 -5.66604e-06 0 0.000165749 -4.30544e-06 0 0.00016907 -3.01471e-06 0 0.000171244 -1.78302e-06 0 0.000172319 -5.89859e-07 0 0.000172319 5.89859e-07 0 0.000171244 1.78302e-06 0 0.00016907 3.01471e-06 0 0.000165749 4.30544e-06 0 0.000161217 5.66604e-06 0 0.000155404 7.08895e-06 0 0.000148252 8.53467e-06 0 0.000139756 9.9139e-06 0 0.00013002 1.10802e-05 0 0.000119322 1.18219e-05 0 0.000108158 1.1944e-05 0 9.71867e-05 1.13261e-05 0 8.70867e-05 9.89117e-06 0 7.84247e-05 7.31023e-06 0 7.10394e-05 2.05763e-06 0 5.90663e-05 -7.06523e-06 0 5.42679e-05 -6.48714e-06 0 6.48099e-05 -1.13041e-05 0 7.44279e-05 -1.6168e-05 0 8.45283e-05 -1.99286e-05 0 9.5742e-05 -2.24729e-05 0 0.000107837 -2.36252e-05 0 0.00012006 -2.3272e-05 0 0.000131548 -2.16367e-05 0 0.000141727 -1.91898e-05 0 0.000150387 -1.63961e-05 0 0.000157532 -1.35421e-05 0 0.000163258 -1.07817e-05 0 0.000167678 -8.1716e-06 0 0.000170897 -5.71259e-06 0 0.000172997 -3.37549e-06 0 0.000174032 -1.1162e-06 0 0.000174032 1.1162e-06 0 0.000172997 3.37549e-06 0 0.000170897 5.71259e-06 0 0.000167678 8.1716e-06 0 0.000163258 1.07817e-05 0 0.000157532 1.35421e-05 0 0.000150387 1.63961e-05 0 0.000141727 1.91898e-05 0 0.000131548 2.16367e-05 0 0.00012006 2.3272e-05 0 0.000107837 2.36252e-05 0 9.5742e-05 2.24729e-05 0 8.45283e-05 1.99286e-05 0 7.44279e-05 1.6168e-05 0 6.48099e-05 1.13041e-05 0 5.42679e-05 6.48714e-06 0 5.04474e-05 -1.65006e-05 0 5.98121e-05 -2.10882e-05 0 6.97237e-05 -2.62452e-05 0 8.07232e-05 -3.11394e-05 0 9.33248e-05 -3.50142e-05 0 0.000107368 -3.68864e-05 0 0.000121596 -3.60528e-05 0 0.000134447 -3.29887e-05 0 0.000145251 -2.87928e-05 0 0.000154046 -2.4292e-05 0 0.000161081 -1.98857e-05 0 0.000166601 -1.57379e-05 0 0.000170804 -1.1882e-05 0 0.000173839 -8.28653e-06 0 0.000175808 -4.88963e-06 0 0.000176776 -1.61587e-06 0 0.000176776 1.61587e-06 0 0.000175808 4.88963e-06 0 0.000173839 8.28653e-06 0 0.000170804 1.1882e-05 0 0.000166601 1.57379e-05 0 0.000161081 1.98857e-05 0 0.000154046 2.4292e-05 0 0.000145251 2.87928e-05 0 0.000134447 3.29887e-05 0 0.000121596 3.60528e-05 0 0.000107368 3.68864e-05 0 9.33248e-05 3.50142e-05 0 8.07232e-05 3.11394e-05 0 6.97237e-05 2.62452e-05 0 5.98121e-05 2.10882e-05 0 5.04474e-05 1.65006e-05 0 4.60776e-05 -2.49612e-05 0 5.44088e-05 -3.0336e-05 0 6.39166e-05 -3.66099e-05 0 7.52116e-05 -4.33102e-05 0 8.92437e-05 -4.95587e-05 0 0.000106634 -5.31367e-05 0 0.000124723 -5.11655e-05 0 0.000139508 -4.53876e-05 0 0.000150804 -3.86432e-05 0 0.000159462 -3.20527e-05 0 0.000166135 -2.59499e-05 0 0.000171251 -2.03922e-05 0 0.000175091 -1.53275e-05 0 0.000177839 -1.06604e-05 0 0.000179613 -6.28068e-06 0 0.000180483 -2.07412e-06 0 0.000180483 2.07412e-06 0 0.000179613 6.28068e-06 0 0.000177839 1.06604e-05 0 0.000175091 1.53275e-05 0 0.000171251 2.03922e-05 0 0.000166135 2.59499e-05 0 0.000159462 3.20527e-05 0 0.000150804 3.86432e-05 0 0.000139508 4.53876e-05 0 0.000124723 5.11655e-05 0 0.000106634 5.31367e-05 0 8.92437e-05 4.95587e-05 0 7.52116e-05 4.33102e-05 0 6.39166e-05 3.66099e-05 0 5.44088e-05 3.0336e-05 0 4.60776e-05 2.49612e-05 0 4.07737e-05 -3.21889e-05 0 4.79036e-05 -3.86596e-05 0 5.63791e-05 -4.65014e-05 0 6.69737e-05 -5.57375e-05 0 8.13121e-05 -6.62818e-05 0 0.000104145 -7.67205e-05 0 0.000132181 -6.97735e-05 0 0.000148139 -5.8439e-05 0 0.000158985 -4.82399e-05 0 0.000166866 -3.92849e-05 0 0.000172759 -3.14525e-05 0 0.000177198 -2.45476e-05 0 0.000180496 -1.83737e-05 0 0.000182842 -1.27473e-05 0 0.000184352 -7.49982e-06 0 0.000185092 -2.47519e-06 0 0.000185092 2.47519e-06 0 0.000184352 7.49982e-06 0 0.000182842 1.27473e-05 0 0.000180496 1.83737e-05 0 0.000177198 2.45476e-05 0 0.000172759 3.14525e-05 0 0.000166866 3.92849e-05 0 0.000158985 4.82399e-05 0 0.000148139 5.8439e-05 0 0.000132181 6.97735e-05 0 0.000104145 7.67205e-05 0 8.13121e-05 6.62818e-05 0 6.69737e-05 5.57375e-05 0 5.63791e-05 4.65014e-05 0 4.79036e-05 3.86596e-05 0 4.07737e-05 3.21889e-05 0 3.45088e-05 -3.80957e-05 0 4.01218e-05 -4.5606e-05 0 4.68429e-05 -5.49885e-05 0 5.53067e-05 -6.67837e-05 0 6.66933e-05 -8.20529e-05 0 8.25883e-05 -0.000103806 0 9.97191e-05 -8.79737e-05 0 0.000112135 -7.02081e-05 0 0.000120746 -5.65466e-05 0 0.000126957 -4.5389e-05 0 0.00013157 -3.60282e-05 0 0.000135034 -2.79747e-05 0 0.000137607 -2.0876e-05 0 0.00013944 -1.44587e-05 0 0.000140622 -8.49902e-06 0 0.000141202 -2.80387e-06 0 0.000141202 2.80387e-06 0 0.000140622 8.49902e-06 0 0.00013944 1.44587e-05 0 0.000137607 2.0876e-05 0 0.000135034 2.79747e-05 0 0.00013157 3.60282e-05 0 0.000126957 4.5389e-05 0 0.000120746 5.65466e-05 0 0.000112135 7.02081e-05 0 9.97191e-05 8.79737e-05 0 8.25883e-05 0.000103806 0 6.66933e-05 8.20529e-05 0 5.53067e-05 6.67837e-05 0 4.68429e-05 5.49885e-05 0 4.01218e-05 4.5606e-05 0 3.45088e-05 3.80957e-05 0 2.7478e-05 -4.24891e-05 0 3.1284e-05 -5.07073e-05 0 3.56531e-05 -6.11293e-05 0 4.08603e-05 -7.45722e-05 0 4.72918e-05 -9.23554e-05 0 5.50238e-05 -0.000116455 0 6.2931e-05 -9.90521e-05 0 6.9519e-05 -7.82698e-05 0 7.45242e-05 -6.23976e-05 0 7.8311e-05 -4.97378e-05 0 8.12196e-05 -3.93177e-05 0 8.34642e-05 -3.04606e-05 0 8.5169e-05 -2.27061e-05 0 8.64046e-05 -1.57189e-05 0 8.72107e-05 -9.23837e-06 0 8.76091e-05 -3.04769e-06 0 8.76091e-05 3.04769e-06 0 8.72107e-05 9.23837e-06 0 8.64046e-05 1.57189e-05 0 8.5169e-05 2.27061e-05 0 8.34642e-05 3.04606e-05 0 8.12196e-05 3.93177e-05 0 7.8311e-05 4.97378e-05 0 7.45242e-05 6.23976e-05 0 6.9519e-05 7.82698e-05 0 6.2931e-05 9.90521e-05 0 5.50238e-05 0.000116455 0 4.72918e-05 9.23554e-05 0 4.08603e-05 7.45722e-05 0 3.56531e-05 6.11293e-05 0 3.1284e-05 5.07073e-05 0 2.7478e-05 4.24891e-05 0 2.00389e-05 -4.52282e-05 0 2.19081e-05 -5.36501e-05 0 2.36556e-05 -6.43285e-05 0 2.51729e-05 -7.81402e-05 0 2.63455e-05 -9.64012e-05 0 2.7141e-05 -0.000120809 0 2.77837e-05 -0.000103061 0 2.8552e-05 -8.15848e-05 0 2.94931e-05 -6.50737e-05 0 3.05128e-05 -5.19086e-05 0 3.15122e-05 -4.10785e-05 0 3.24205e-05 -3.18651e-05 0 3.31904e-05 -2.37823e-05 0 3.37905e-05 -1.64812e-05 0 3.42007e-05 -9.6937e-06 0 3.44087e-05 -3.19916e-06 0 3.44087e-05 3.19916e-06 0 3.42007e-05 9.6937e-06 0 3.37905e-05 1.64812e-05 0 3.31904e-05 2.37823e-05 0 3.24205e-05 3.18651e-05 0 3.15122e-05 4.10785e-05 0 3.05128e-05 5.19086e-05 0 2.94931e-05 6.50737e-05 0 2.8552e-05 8.15848e-05 0 2.77837e-05 0.000103061 0 2.7141e-05 0.000120809 0 2.63455e-05 9.64012e-05 0 2.51729e-05 7.81402e-05 0 2.36556e-05 6.43285e-05 0 2.19081e-05 5.36501e-05 0 2.00389e-05 4.52282e-05 0 1.26307e-05 -4.63115e-05 0 1.26503e-05 -5.43869e-05 0 1.18834e-05 -6.44705e-05 0 9.83435e-06 -7.73324e-05 0 5.80073e-06 -9.4288e-05 0 -4.81204e-07 -0.000117688 0 -7.15356e-06 -0.000100352 0 -1.22304e-05 -8.00265e-05 0 -1.52422e-05 -6.44285e-05 0 -1.68894e-05 -5.181e-05 0 -1.77304e-05 -4.12611e-05 0 -1.81131e-05 -3.21625e-05 0 -1.82481e-05 -2.40919e-05 0 -1.82637e-05 -1.67394e-05 0 -1.82377e-05 -9.86229e-06 0 -1.82144e-05 -3.25755e-06 0 -1.82144e-05 3.25755e-06 0 -1.82377e-05 9.86229e-06 0 -1.82637e-05 1.67394e-05 0 -1.82481e-05 2.40919e-05 0 -1.81131e-05 3.21625e-05 0 -1.77304e-05 4.12611e-05 0 -1.68894e-05 5.181e-05 0 -1.52422e-05 6.44285e-05 0 -1.22304e-05 8.00265e-05 0 -7.15356e-06 0.000100352 0 -4.81204e-07 0.000117688 0 5.80073e-06 9.4288e-05 0 9.83435e-06 7.73324e-05 0 1.18834e-05 6.44705e-05 0 1.26503e-05 5.43869e-05 0 1.26307e-05 4.63115e-05 0 5.65704e-06 -4.58992e-05 0 4.11988e-06 -5.31541e-05 0 1.30217e-06 -6.19079e-05 0 -3.60492e-06 -7.25854e-05 0 -1.21308e-05 -8.59441e-05 0 -2.75773e-05 -0.000104566 0 -4.62885e-05 -9.02348e-05 0 -5.68511e-05 -7.39786e-05 0 -6.30433e-05 -6.08459e-05 0 -6.68295e-05 -4.96958e-05 0 -6.91894e-05 -4.00219e-05 0 -7.06688e-05 -3.14495e-05 0 -7.15899e-05 -2.36947e-05 0 -7.21491e-05 -1.65297e-05 0 -7.24657e-05 -9.76358e-06 0 -7.26082e-05 -3.22897e-06 0 -7.26082e-05 3.22897e-06 0 -7.24657e-05 9.76358e-06 0 -7.21491e-05 1.65297e-05 0 -7.15899e-05 2.36947e-05 0 -7.06688e-05 3.14495e-05 0 -6.91894e-05 4.00219e-05 0 -6.68295e-05 4.96958e-05 0 -6.30433e-05 6.08459e-05 0 -5.68511e-05 7.39786e-05 0 -4.62885e-05 9.02348e-05 0 -2.75773e-05 0.000104566 0 -1.21308e-05 8.59441e-05 0 -3.60492e-06 7.25854e-05 0 1.30217e-06 6.19079e-05 0 4.11988e-06 5.31541e-05 0 5.65704e-06 4.58992e-05 0 -4.86278e-07 -4.42977e-05 0 -3.10191e-06 -5.04438e-05 0 -7.16979e-06 -5.7466e-05 0 -1.34803e-05 -6.53131e-05 0 -2.34554e-05 -7.35333e-05 0 -4.01962e-05 -7.92903e-05 0 -6.03582e-05 -7.4795e-05 0 -7.22768e-05 -6.5122e-05 0 -7.98192e-05 -5.53116e-05 0 -8.47862e-05 -4.61353e-05 0 -8.81185e-05 -3.76977e-05 0 -9.03675e-05 -2.99302e-05 0 -9.18742e-05 -2.27158e-05 0 -9.28541e-05 -1.59269e-05 0 -9.34424e-05 -9.43745e-06 0 -9.37182e-05 -3.12596e-06 0 -9.37182e-05 3.12596e-06 0 -9.34424e-05 9.43745e-06 0 -9.28541e-05 1.59269e-05 0 -9.18742e-05 2.27158e-05 0 -9.03675e-05 2.99302e-05 0 -8.81185e-05 3.76977e-05 0 -8.47862e-05 4.61353e-05 0 -7.98192e-05 5.53116e-05 0 -7.22768e-05 6.5122e-05 0 -6.03582e-05 7.4795e-05 0 -4.01962e-05 7.92903e-05 0 -2.34554e-05 7.35333e-05 0 -1.34803e-05 6.53131e-05 0 -7.16979e-06 5.7466e-05 0 -3.10191e-06 5.04438e-05 0 -4.86278e-07 4.42977e-05 0 -5.75286e-06 -4.18739e-05 0 -9.0131e-06 -4.68425e-05 0 -1.36335e-05 -5.21506e-05 0 -2.0129e-05 -5.74664e-05 0 -2.90787e-05 -6.19645e-05 0 -4.05301e-05 -6.4029e-05 0 -5.26449e-05 -6.16209e-05 0 -6.25785e-05 -5.60297e-05 0 -6.99564e-05 -4.90642e-05 0 -7.52807e-05 -4.18145e-05 0 -7.90948e-05 -3.46972e-05 0 -8.18072e-05 -2.7857e-05 0 -8.37049e-05 -2.13126e-05 0 -8.49835e-05 -1.50265e-05 0 -8.57717e-05 -8.93535e-06 0 -8.61474e-05 -2.96475e-06 0 -8.61474e-05 2.96475e-06 0 -8.57717e-05 8.93535e-06 0 -8.49835e-05 1.50265e-05 0 -8.37049e-05 2.13126e-05 0 -8.18072e-05 2.7857e-05 0 -7.90948e-05 3.46972e-05 0 -7.52807e-05 4.18145e-05 0 -6.99564e-05 4.90642e-05 0 -6.25785e-05 5.60297e-05 0 -5.26449e-05 6.16209e-05 0 -4.05301e-05 6.4029e-05 0 -2.90787e-05 6.19645e-05 0 -2.0129e-05 5.74664e-05 0 -1.36335e-05 5.21506e-05 0 -9.0131e-06 4.68425e-05 0 -5.75286e-06 4.18739e-05 0 -1.00187e-05 -3.89747e-05 0 -1.353e-05 -4.28659e-05 0 -1.81612e-05 -4.67486e-05 0 -2.41562e-05 -5.02609e-05 0 -3.16284e-05 -5.27866e-05 0 -4.02684e-05 -5.34878e-05 0 -4.9055e-05 -5.18383e-05 0 -5.70167e-05 -4.80859e-05 0 -6.35467e-05 -4.30099e-05 0 -6.86448e-05 -3.73138e-05 0 -7.25184e-05 -3.13977e-05 0 -7.54008e-05 -2.54775e-05 0 -7.74896e-05 -1.96463e-05 0 -7.89355e-05 -1.3929e-05 0 -7.98441e-05 -8.31236e-06 0 -8.02822e-05 -2.76289e-06 0 -8.02822e-05 2.76289e-06 0 -7.98441e-05 8.31236e-06 0 -7.89355e-05 1.3929e-05 0 -7.74896e-05 1.96463e-05 0 -7.54008e-05 2.54775e-05 0 -7.25184e-05 3.13977e-05 0 -6.86448e-05 3.73138e-05 0 -6.35467e-05 4.30099e-05 0 -5.70167e-05 4.80859e-05 0 -4.9055e-05 5.18383e-05 0 -4.02684e-05 5.34878e-05 0 -3.16284e-05 5.27866e-05 0 -2.41562e-05 5.02609e-05 0 -1.81612e-05 4.67486e-05 0 -1.353e-05 4.28659e-05 0 -1.00187e-05 3.89747e-05 0 -1.34124e-05 -3.58793e-05 0 -1.69269e-05 -3.88726e-05 0 -2.13064e-05 -4.16769e-05 0 -2.6636e-05 -4.39988e-05 0 -3.28705e-05 -4.54429e-05 0 -3.97295e-05 -4.55906e-05 0 -4.66924e-05 -4.42199e-05 0 -5.31701e-05 -4.14236e-05 0 -5.87894e-05 -3.75462e-05 0 -6.34256e-05 -3.30017e-05 0 -6.71177e-05 -2.80851e-05 0 -6.99711e-05 -2.29994e-05 0 -7.21014e-05 -1.78615e-05 0 -7.36094e-05 -1.27288e-05 0 -7.45722e-05 -7.62153e-06 0 -7.50409e-05 -2.53748e-06 0 -7.50409e-05 2.53748e-06 0 -7.45722e-05 7.62153e-06 0 -7.36094e-05 1.27288e-05 0 -7.21014e-05 1.78615e-05 0 -6.99711e-05 2.29994e-05 0 -6.71177e-05 2.80851e-05 0 -6.34256e-05 3.30017e-05 0 -5.87894e-05 3.75462e-05 0 -5.31701e-05 4.14236e-05 0 -4.66924e-05 4.42199e-05 0 -3.97295e-05 4.55906e-05 0 -3.28705e-05 4.54429e-05 0 -2.6636e-05 4.39988e-05 0 -2.13064e-05 4.16769e-05 0 -1.69269e-05 3.88726e-05 0 -1.34124e-05 3.58793e-05 0 -1.61233e-05 -3.27675e-05 0 -1.95118e-05 -3.50493e-05 0 -2.35474e-05 -3.70683e-05 0 -2.82356e-05 -3.86094e-05 0 -3.34887e-05 -3.94239e-05 0 -3.90953e-05 -3.92841e-05 0 -4.47467e-05 -3.8074e-05 0 -5.01033e-05 -3.58388e-05 0 -5.49113e-05 -3.27453e-05 0 -5.9034e-05 -2.9041e-05 0 -6.24376e-05 -2.49257e-05 0 -6.51502e-05 -2.05631e-05 0 -6.72263e-05 -1.60644e-05 0 -6.87242e-05 -1.1499e-05 0 -6.96935e-05 -6.90548e-06 0 -7.01691e-05 -2.30248e-06 0 -7.01691e-05 2.30248e-06 0 -6.96935e-05 6.90548e-06 0 -6.87242e-05 1.1499e-05 0 -6.72263e-05 1.60644e-05 0 -6.51502e-05 2.05631e-05 0 -6.24376e-05 2.49257e-05 0 -5.9034e-05 2.9041e-05 0 -5.49113e-05 3.27453e-05 0 -5.01033e-05 3.58388e-05 0 -4.47467e-05 3.8074e-05 0 -3.90953e-05 3.92841e-05 0 -3.34887e-05 3.94239e-05 0 -2.82356e-05 3.86094e-05 0 -2.35474e-05 3.70683e-05 0 -1.95118e-05 3.50493e-05 0 -1.61233e-05 3.27675e-05 0 -1.8174e-05 -2.97471e-05 0 -2.1365e-05 -3.14791e-05 0 -2.50402e-05 -3.29313e-05 0 -2.91751e-05 -3.39506e-05 0 -3.36841e-05 -3.43769e-05 0 -3.84119e-05 -3.40751e-05 0 -4.31497e-05 -3.29802e-05 0 -4.76806e-05 -3.11127e-05 0 -5.18227e-05 -2.85619e-05 0 -5.54586e-05 -2.54813e-05 0 -5.85337e-05 -2.20044e-05 0 -6.10395e-05 -1.8255e-05 0 -6.29941e-05 -1.43287e-05 0 -6.44255e-05 -1.02938e-05 0 -6.53617e-05 -6.1969e-06 0 -6.58241e-05 -2.06879e-06 0 -6.58241e-05 2.06879e-06 0 -6.53617e-05 6.1969e-06 0 -6.44255e-05 1.02938e-05 0 -6.29941e-05 1.43287e-05 0 -6.10395e-05 1.8255e-05 0 -5.85337e-05 2.20044e-05 0 -5.54586e-05 2.54813e-05 0 -5.18227e-05 2.85619e-05 0 -4.76806e-05 3.11127e-05 0 -4.31497e-05 3.29802e-05 0 -3.84119e-05 3.40751e-05 0 -3.36841e-05 3.43769e-05 0 -2.91751e-05 3.39506e-05 0 -2.50402e-05 3.29313e-05 0 -2.1365e-05 3.14791e-05 0 -1.8174e-05 2.97471e-05 0 -1.9789e-05 -2.68732e-05 0 -2.27638e-05 -2.81845e-05 0 -2.60991e-05 -2.92259e-05 0 -2.97598e-05 -2.98884e-05 0 -3.36707e-05 -3.00662e-05 0 -3.77161e-05 -2.96739e-05 0 -4.1752e-05 -2.86715e-05 0 -4.56284e-05 -2.70688e-05 0 -4.92138e-05 -2.49164e-05 0 -5.24119e-05 -2.23138e-05 0 -5.51645e-05 -1.93507e-05 0 -5.74457e-05 -1.61193e-05 0 -5.92516e-05 -1.26976e-05 0 -6.05901e-05 -9.14795e-06 0 -6.14733e-05 -5.51786e-06 0 -6.19119e-05 -1.84395e-06 0 -6.19119e-05 1.84395e-06 0 -6.14733e-05 5.51786e-06 0 -6.05901e-05 9.14795e-06 0 -5.92516e-05 1.26976e-05 0 -5.74457e-05 1.61193e-05 0 -5.51645e-05 1.93507e-05 0 -5.24119e-05 2.23138e-05 0 -4.92138e-05 2.49164e-05 0 -4.56284e-05 2.70688e-05 0 -4.1752e-05 2.86715e-05 0 -3.77161e-05 2.96739e-05 0 -3.36707e-05 3.00662e-05 0 -2.97598e-05 2.98884e-05 0 -2.60991e-05 2.92259e-05 0 -2.27638e-05 2.81845e-05 0 -1.9789e-05 2.68732e-05 0 -2.10421e-05 -2.41677e-05 0 -2.38019e-05 -2.51581e-05 0 -2.68305e-05 -2.59004e-05 0 -3.00907e-05 -2.63162e-05 0 -3.35194e-05 -2.63331e-05 0 -3.70287e-05 -2.58942e-05 0 -4.05144e-05 -2.49733e-05 0 -4.38685e-05 -2.35753e-05 0 -4.69928e-05 -2.17303e-05 0 -4.9809e-05 -1.95056e-05 0 -5.22627e-05 -1.69628e-05 0 -5.43213e-05 -1.41706e-05 0 -5.59692e-05 -1.11918e-05 0 -5.7202e-05 -8.08016e-06 0 -5.80211e-05 -4.88105e-06 0 -5.84295e-05 -1.63241e-06 0 -5.84295e-05 1.63241e-06 0 -5.80211e-05 4.88105e-06 0 -5.7202e-05 8.08016e-06 0 -5.59692e-05 1.11918e-05 0 -5.43213e-05 1.41706e-05 0 -5.22627e-05 1.69628e-05 0 -4.9809e-05 1.95056e-05 0 -4.69928e-05 2.17303e-05 0 -4.38685e-05 2.35753e-05 0 -4.05144e-05 2.49733e-05 0 -3.70287e-05 2.58942e-05 0 -3.35194e-05 2.63331e-05 0 -3.00907e-05 2.63162e-05 0 -2.68305e-05 2.59004e-05 0 -2.38019e-05 2.51581e-05 0 -2.10421e-05 2.41677e-05 0 -2.19898e-05 -2.16339e-05 0 -2.45482e-05 -2.23792e-05 0 -2.73088e-05 -2.29021e-05 0 -3.02364e-05 -2.31456e-05 0 -3.32783e-05 -2.30586e-05 0 -3.63658e-05 -2.26017e-05 0 -3.94197e-05 -2.17571e-05 0 -4.23583e-05 -2.05272e-05 0 -4.51057e-05 -1.89306e-05 0 -4.75979e-05 -1.70148e-05 0 -4.97863e-05 -1.4823e-05 0 -5.16375e-05 -1.2407e-05 0 -5.3131e-05 -9.81682e-06 0 -5.42558e-05 -7.09835e-06 0 -5.50068e-05 -4.29266e-06 0 -5.53825e-05 -1.43645e-06 0 -5.53825e-05 1.43645e-06 0 -5.50068e-05 4.29266e-06 0 -5.42558e-05 7.09835e-06 0 -5.3131e-05 9.81682e-06 0 -5.16375e-05 1.2407e-05 0 -4.97863e-05 1.4823e-05 0 -4.75979e-05 1.70148e-05 0 -4.51057e-05 1.89306e-05 0 -4.23583e-05 2.05272e-05 0 -3.94197e-05 2.17571e-05 0 -3.63658e-05 2.26017e-05 0 -3.32783e-05 2.30586e-05 0 -3.02364e-05 2.31456e-05 0 -2.73088e-05 2.29021e-05 0 -2.45482e-05 2.23792e-05 0 -2.19898e-05 2.16339e-05 0 -2.27321e-05 -1.92647e-05 0 -2.51057e-05 -1.98228e-05 0 -2.76306e-05 -2.01846e-05 0 -3.02747e-05 -2.0308e-05 0 -3.29939e-05 -2.01561e-05 0 -3.57335e-05 -1.97011e-05 0 -3.84322e-05 -1.89301e-05 0 -4.10264e-05 -1.78446e-05 0 -4.34564e-05 -1.64564e-05 0 -4.56695e-05 -1.48002e-05 0 -4.76232e-05 -1.29071e-05 0 -4.92856e-05 -1.08167e-05 0 -5.06345e-05 -8.56905e-06 0 -5.16555e-05 -6.20269e-06 0 -5.23398e-05 -3.75392e-06 0 -5.26829e-05 -1.25669e-06 0 -5.26829e-05 1.25669e-06 0 -5.23398e-05 3.75392e-06 0 -5.16555e-05 6.20269e-06 0 -5.06345e-05 8.56905e-06 0 -4.92856e-05 1.08167e-05 0 -4.76232e-05 1.29071e-05 0 -4.56695e-05 1.48002e-05 0 -4.34564e-05 1.64564e-05 0 -4.10264e-05 1.78446e-05 0 -3.84322e-05 1.89301e-05 0 -3.57335e-05 1.97011e-05 0 -3.29939e-05 2.01561e-05 0 -3.02747e-05 2.0308e-05 0 -2.76306e-05 2.01846e-05 0 -2.51057e-05 1.98228e-05 0 -2.27321e-05 1.92647e-05 0 -2.32926e-05 -1.70481e-05 0 -2.5502e-05 -1.74631e-05 0 -2.78246e-05 -1.77069e-05 0 -3.0232e-05 -1.77479e-05 0 -3.26866e-05 -1.75589e-05 0 -3.5144e-05 -1.71197e-05 0 -3.75549e-05 -1.64211e-05 0 -3.98687e-05 -1.54638e-05 0 -4.20368e-05 -1.42558e-05 0 -4.40155e-05 -1.28231e-05 0 -4.57679e-05 -1.11888e-05 0 -4.72646e-05 -9.38357e-06 0 -4.84836e-05 -7.43946e-06 0 -4.94094e-05 -5.38879e-06 0 -5.00316e-05 -3.26304e-06 0 -5.03441e-05 -1.09266e-06 0 -5.03441e-05 1.09266e-06 0 -5.00316e-05 3.26304e-06 0 -4.94094e-05 5.38879e-06 0 -4.84836e-05 7.43946e-06 0 -4.72646e-05 9.38357e-06 0 -4.57679e-05 1.11888e-05 0 -4.40155e-05 1.28231e-05 0 -4.20368e-05 1.42558e-05 0 -3.98687e-05 1.54638e-05 0 -3.75549e-05 1.64211e-05 0 -3.5144e-05 1.71197e-05 0 -3.26866e-05 1.75589e-05 0 -3.0232e-05 1.77479e-05 0 -2.78246e-05 1.77069e-05 0 -2.5502e-05 1.74631e-05 0 -2.32926e-05 1.70481e-05 0 -2.3719e-05 -1.4969e-05 0 -2.57837e-05 -1.52748e-05 0 -2.79329e-05 -1.54327e-05 0 -3.0141e-05 -1.54187e-05 0 -3.23759e-05 -1.52126e-05 0 -3.46007e-05 -1.47993e-05 0 -3.6775e-05 -1.41722e-05 0 -3.88573e-05 -1.33318e-05 0 -4.08075e-05 -1.22837e-05 0 -4.25887e-05 -1.10478e-05 0 -4.4169e-05 -9.64159e-06 0 -4.55218e-05 -8.089e-06 0 -4.66263e-05 -6.416e-06 0 -4.7467e-05 -4.64945e-06 0 -4.8033e-05 -2.8163e-06 0 -4.83177e-05 -9.43239e-07 0 -4.83177e-05 9.43239e-07 0 -4.8033e-05 2.8163e-06 0 -4.7467e-05 4.64945e-06 0 -4.66263e-05 6.416e-06 0 -4.55218e-05 8.089e-06 0 -4.4169e-05 9.64159e-06 0 -4.25887e-05 1.10478e-05 0 -4.08075e-05 1.22837e-05 0 -3.88573e-05 1.33318e-05 0 -3.6775e-05 1.41722e-05 0 -3.46007e-05 1.47993e-05 0 -3.23759e-05 1.52126e-05 0 -3.0141e-05 1.54187e-05 0 -2.79329e-05 1.54327e-05 0 -2.57837e-05 1.52748e-05 0 -2.3719e-05 1.4969e-05 0 -2.4048e-05 -1.30122e-05 0 -2.59857e-05 -1.32351e-05 0 -2.79853e-05 -1.33314e-05 0 -3.00239e-05 -1.32828e-05 0 -3.20739e-05 -1.30743e-05 0 -3.41039e-05 -1.26945e-05 0 -3.60804e-05 -1.21384e-05 0 -3.79689e-05 -1.14067e-05 0 -3.97356e-05 -1.05032e-05 0 -4.13493e-05 -9.44358e-06 0 -4.2782e-05 -8.24119e-06 0 -4.40102e-05 -6.91502e-06 0 -4.50145e-05 -5.48606e-06 0 -4.578e-05 -3.97651e-06 0 -4.62961e-05 -2.40915e-06 0 -4.65559e-05 -8.06965e-07 0 -4.65559e-05 8.06965e-07 0 -4.62961e-05 2.40915e-06 0 -4.578e-05 3.97651e-06 0 -4.50145e-05 5.48606e-06 0 -4.40102e-05 6.91502e-06 0 -4.2782e-05 8.24119e-06 0 -4.13493e-05 9.44358e-06 0 -3.97356e-05 1.05032e-05 0 -3.79689e-05 1.14067e-05 0 -3.60804e-05 1.21384e-05 0 -3.41039e-05 1.26945e-05 0 -3.20739e-05 1.30743e-05 0 -3.00239e-05 1.32828e-05 0 -2.79853e-05 1.33314e-05 0 -2.59857e-05 1.32351e-05 0 -2.4048e-05 1.30122e-05 0 -2.42864e-05 -1.11621e-05 0 -2.61171e-05 -1.13223e-05 0 -2.79929e-05 -1.13756e-05 0 -2.98931e-05 -1.13079e-05 0 -3.17934e-05 -1.11079e-05 0 -3.36669e-05 -1.0767e-05 0 -3.54846e-05 -1.02816e-05 0 -3.72172e-05 -9.65219e-06 0 -3.88357e-05 -8.88177e-06 0 -4.03131e-05 -7.98256e-06 0 -4.1625e-05 -6.96495e-06 0 -4.275e-05 -5.84403e-06 0 -4.36706e-05 -4.63672e-06 0 -4.4373e-05 -3.36123e-06 0 -4.48468e-05 -2.03659e-06 0 -4.50853e-05 -6.82213e-07 0 -4.50853e-05 6.82213e-07 0 -4.48468e-05 2.03659e-06 0 -4.4373e-05 3.36123e-06 0 -4.36706e-05 4.63672e-06 0 -4.275e-05 5.84403e-06 0 -4.1625e-05 6.96495e-06 0 -4.03131e-05 7.98256e-06 0 -3.88357e-05 8.88177e-06 0 -3.72172e-05 9.65219e-06 0 -3.54846e-05 1.02816e-05 0 -3.36669e-05 1.0767e-05 0 -3.17934e-05 1.11079e-05 0 -2.98931e-05 1.13079e-05 0 -2.79929e-05 1.13756e-05 0 -2.61171e-05 1.13223e-05 0 -2.42864e-05 1.11621e-05 0 -2.44672e-05 -9.40346e-06 0 -2.62065e-05 -9.51666e-06 0 -2.79778e-05 -9.54101e-06 0 -2.97621e-05 -9.46587e-06 0 -3.1538e-05 -9.28252e-06 0 -3.32817e-05 -8.98459e-06 0 -3.49681e-05 -8.5695e-06 0 -3.65716e-05 -8.03763e-06 0 -3.80671e-05 -7.39131e-06 0 -3.94311e-05 -6.64015e-06 0 -4.06417e-05 -5.79224e-06 0 -4.168e-05 -4.8595e-06 0 -4.25298e-05 -3.85549e-06 0 -4.31784e-05 -2.79498e-06 0 -4.36161e-05 -1.69355e-06 0 -4.38366e-05 -5.67317e-07 0 -4.38366e-05 5.67317e-07 0 -4.36161e-05 1.69355e-06 0 -4.31784e-05 2.79498e-06 0 -4.25298e-05 3.85549e-06 0 -4.168e-05 4.8595e-06 0 -4.06417e-05 5.79224e-06 0 -3.94311e-05 6.64015e-06 0 -3.80671e-05 7.39131e-06 0 -3.65716e-05 8.03763e-06 0 -3.49681e-05 8.5695e-06 0 -3.32817e-05 8.98459e-06 0 -3.1538e-05 9.28252e-06 0 -2.97621e-05 9.46587e-06 0 -2.79778e-05 9.54101e-06 0 -2.62065e-05 9.51666e-06 0 -2.44672e-05 9.40346e-06 0 -2.46e-05 -7.72198e-06 0 -2.62636e-05 -7.80034e-06 0 -2.79491e-05 -7.80662e-06 0 -2.96392e-05 -7.73275e-06 0 -3.13142e-05 -7.57224e-06 0 -3.2953e-05 -7.32031e-06 0 -3.45334e-05 -6.97512e-06 0 -3.60328e-05 -6.53704e-06 0 -3.74291e-05 -6.00784e-06 0 -3.8701e-05 -5.39503e-06 0 -3.98293e-05 -4.70484e-06 0 -4.07967e-05 -3.94659e-06 0 -4.15885e-05 -3.13095e-06 0 -4.21929e-05 -2.26967e-06 0 -4.26008e-05 -1.37525e-06 0 -4.28063e-05 -4.60693e-07 0 -4.28063e-05 4.60693e-07 0 -4.26008e-05 1.37525e-06 0 -4.21929e-05 2.26967e-06 0 -4.15885e-05 3.13095e-06 0 -4.07967e-05 3.94659e-06 0 -3.98293e-05 4.70484e-06 0 -3.8701e-05 5.39503e-06 0 -3.74291e-05 6.00784e-06 0 -3.60328e-05 6.53704e-06 0 -3.45334e-05 6.97512e-06 0 -3.2953e-05 7.32031e-06 0 -3.13142e-05 7.57224e-06 0 -2.96392e-05 7.73275e-06 0 -2.79491e-05 7.80662e-06 0 -2.62636e-05 7.80034e-06 0 -2.46e-05 7.72198e-06 0 -2.46932e-05 -6.10349e-06 0 -2.6297e-05 -6.15622e-06 0 -2.79153e-05 -6.15255e-06 0 -2.95318e-05 -6.08652e-06 0 -3.11285e-05 -5.95337e-06 0 -3.26863e-05 -5.74962e-06 0 -3.41848e-05 -5.47398e-06 0 -3.56039e-05 -5.12677e-06 0 -3.69233e-05 -4.70934e-06 0 -3.8124e-05 -4.22739e-06 0 -3.91883e-05 -3.68562e-06 0 -4.01004e-05 -3.09112e-06 0 -4.08469e-05 -2.45204e-06 0 -4.14165e-05 -1.77743e-06 0 -4.1801e-05 -1.07697e-06 0 -4.19947e-05 -3.60767e-07 0 -4.19947e-05 3.60767e-07 0 -4.1801e-05 1.07697e-06 0 -4.14165e-05 1.77743e-06 0 -4.08469e-05 2.45204e-06 0 -4.01004e-05 3.09112e-06 0 -3.91883e-05 3.68562e-06 0 -3.8124e-05 4.22739e-06 0 -3.69233e-05 4.70934e-06 0 -3.56039e-05 5.12677e-06 0 -3.41848e-05 5.47398e-06 0 -3.26863e-05 5.74962e-06 0 -3.11285e-05 5.95337e-06 0 -2.95318e-05 6.08652e-06 0 -2.79153e-05 6.15255e-06 0 -2.6297e-05 6.15622e-06 0 -2.46932e-05 6.10349e-06 0 -2.47596e-05 -4.53473e-06 0 -2.63168e-05 -4.5687e-06 0 -2.78828e-05 -4.56108e-06 0 -2.94425e-05 -4.5077e-06 0 -3.09789e-05 -4.40522e-06 0 -3.24743e-05 -4.2512e-06 0 -3.39099e-05 -4.04479e-06 0 -3.52671e-05 -3.78624e-06 0 -3.65275e-05 -3.47653e-06 0 -3.76733e-05 -3.11977e-06 0 -3.86882e-05 -2.71935e-06 0 -3.95577e-05 -2.28036e-06 0 -4.0269e-05 -1.80873e-06 0 -4.08118e-05 -1.31103e-06 0 -4.11781e-05 -7.94346e-07 0 -4.13626e-05 -2.6609e-07 0 -4.13626e-05 2.6609e-07 0 -4.11781e-05 7.94346e-07 0 -4.08118e-05 1.31103e-06 0 -4.0269e-05 1.80873e-06 0 -3.95577e-05 2.28036e-06 0 -3.86882e-05 2.71935e-06 0 -3.76733e-05 3.11977e-06 0 -3.65275e-05 3.47653e-06 0 -3.52671e-05 3.78624e-06 0 -3.39099e-05 4.04479e-06 0 -3.24743e-05 4.2512e-06 0 -3.09789e-05 4.40522e-06 0 -2.94425e-05 4.5077e-06 0 -2.78828e-05 4.56108e-06 0 -2.63168e-05 4.5687e-06 0 -2.47596e-05 4.53473e-06 0 -2.4802e-05 -3.00294e-06 0 -2.63268e-05 -3.02301e-06 0 -2.78568e-05 -3.0157e-06 0 -2.93774e-05 -2.97836e-06 0 -3.08726e-05 -2.90884e-06 0 -3.23252e-05 -2.80562e-06 0 -3.37179e-05 -2.66816e-06 0 -3.50329e-05 -2.49666e-06 0 -3.62528e-05 -2.29175e-06 0 -3.73611e-05 -2.0561e-06 0 -3.83423e-05 -1.79189e-06 0 -3.91824e-05 -1.50245e-06 0 -3.98696e-05 -1.19161e-06 0 -4.03939e-05 -8.63682e-07 0 -4.07477e-05 -5.23285e-07 0 -4.09259e-05 -1.75288e-07 0 -4.09259e-05 1.75288e-07 0 -4.07477e-05 5.23285e-07 0 -4.03939e-05 8.63682e-07 0 -3.98696e-05 1.19161e-06 0 -3.91824e-05 1.50245e-06 0 -3.83423e-05 1.79189e-06 0 -3.73611e-05 2.0561e-06 0 -3.62528e-05 2.29175e-06 0 -3.50329e-05 2.49666e-06 0 -3.37179e-05 2.66816e-06 0 -3.23252e-05 2.80562e-06 0 -3.08726e-05 2.90884e-06 0 -2.93774e-05 2.97836e-06 0 -2.78568e-05 3.0157e-06 0 -2.63268e-05 3.02301e-06 0 -2.4802e-05 3.00294e-06 0 -2.48257e-05 -1.49537e-06 0 -2.63314e-05 -1.50464e-06 0 -2.78401e-05 -1.50033e-06 0 -2.93376e-05 -1.48113e-06 0 -3.08083e-05 -1.44602e-06 0 -3.22357e-05 -1.39425e-06 0 -3.36031e-05 -1.32558e-06 0 -3.48931e-05 -1.24008e-06 0 -3.60893e-05 -1.1381e-06 0 -3.71754e-05 -1.02092e-06 0 -3.81366e-05 -8.8964e-07 0 -3.89595e-05 -7.45879e-07 0 -3.96324e-05 -5.91537e-07 0 -4.01457e-05 -4.28732e-07 0 -4.04921e-05 -2.59754e-07 0 -4.06665e-05 -8.70107e-08 0 -4.06665e-05 8.70107e-08 0 -4.04921e-05 2.59754e-07 0 -4.01457e-05 4.28732e-07 0 -3.96324e-05 5.91537e-07 0 -3.89595e-05 7.45879e-07 0 -3.81366e-05 8.8964e-07 0 -3.71754e-05 1.02092e-06 0 -3.60893e-05 1.1381e-06 0 -3.48931e-05 1.24008e-06 0 -3.36031e-05 1.32558e-06 0 -3.22357e-05 1.39425e-06 0 -3.08083e-05 1.44602e-06 0 -2.93376e-05 1.48113e-06 0 -2.78401e-05 1.50033e-06 0 -2.63314e-05 1.50464e-06 0 -2.48257e-05 1.49537e-06 0 -2.48345e-05 -0 0 -2.63328e-05 -0 0 -2.78335e-05 -0 0 -2.93224e-05 -0 0 -3.07839e-05 -0 0 -3.22019e-05 -0 0 -3.35597e-05 -0 0 -3.48405e-05 -0 0 -3.60277e-05 -0 0 -3.71055e-05 -0 0 -3.80592e-05 -0 0 -3.88756e-05 -0 0 -3.95431e-05 -0 0 -4.00523e-05 -0 0 -4.0396e-05 -0 0 -4.0569e-05 -0 0 -4.0569e-05 -0 0 -4.0396e-05 -0 0 -4.00523e-05 -0 0 -3.95431e-05 -0 0 -3.88756e-05 -0 0 -3.80592e-05 -0 0 -3.71055e-05 -0 0 -3.60277e-05 -0 0 -3.48405e-05 -0 0 -3.35597e-05 -0 0 -3.22019e-05 -0 0 -3.07839e-05 -0 0 -2.93224e-05 -0 0 -2.78335e-05 -0 0 -2.63328e-05 -0 0 -2.48345e-05 -0 0 </DataArray> 
</PointData> 
<Points> 
<DataArray type="Float32" NumberOfComponents="3"> 