<?xml version="1.0"?> 
<VTKFile type="StructuredGrid" version="0.1"> 
<StructuredGrid WholeExtent="0 31 0 31 0 0"> 
<Piece Extent="0 31 0 31 0 0"> 
<PointData>
<DataArray type="Float32" Name="B" format="ascii" NumberOfComponents="3"> 
0 1.58225e-07 0 2.89096e-08 1.58801e-07 0 5.80229e-08 1.60325e-07 0 8.75398e-08 1.62864e-07 0 1.17669e-07 1.66479e-07 0 1.48618e-07 1.71029e-07 0 1.80596e-07 1.76638e-07 0 2.13824e-07 1.83209e-07 0 2.4852e-07 1.90654e-07 0 2.84915e-07 1.99083e-07 0 3.23247e-07 2.08244e-07 0 3.63755e-07 2.18072e-07 0 4.06699e-07 2.28408e-07 0 4.52342e-07 2.38953e-07 0 5.00961e-07 2.49343e-07 0 5.52858e-07 2.59076e-07 0 6.08349e-07 2.67551e-07 0 6.67792e-07 2.73386e-07 0 7.3159e-07 2.75715e-07 0 8.00214e-07 2.72374e-07 0 8.74264e-07 2.60331e-07 0 9.54496e-07 2.37221e-07 0 1.04193e-06 1.95542e-07 0 1.13801e-06 1.29348e-07 0 1.24476e-06 2.85107e-08 0 1.36515e-06 -1.25332e-07 0 1.5037e-06 -3.57845e-07 0 1.66776e-06 -7.14832e-07 0 1.87186e-06 -1.28842e-06 0 2.15781e-06 -2.30582e-06 0 2.76176e-06 -4.63528e-06 0 4.26491e-05 -2.50246e-05 0 0 1.48547e-07 0 2.92399e-08 1.49085e-07 0 5.86832e-08 1.50508e-07 0 8.8529e-08 1.5288e-07 0 1.18986e-07 1.56255e-07 0 1.50258e-07 1.605e-07 0 1.82553e-07 1.65729e-07 0 2.16088e-07 1.71849e-07 0 2.51076e-07 1.78774e-07 0 2.87739e-07 1.86598e-07 0 3.26303e-07 1.95082e-07 0 3.66993e-07 2.04153e-07 0 4.10046e-07 2.13646e-07 0 4.55694e-07 2.23269e-07 0 5.04173e-07 2.32644e-07 0 5.55728e-07 2.41272e-07 0 6.10596e-07 2.48552e-07 0 6.69024e-07 2.53076e-07 0 7.31266e-07 2.53987e-07 0 7.97584e-07 2.49093e-07 0 8.68277e-07 2.35328e-07 0 9.4368e-07 2.10304e-07 0 1.0242e-06 1.66415e-07 0 1.11035e-06 9.76408e-08 0 1.20271e-06 -6.26864e-09 0 1.30183e-06 -1.63866e-07 0 1.40775e-06 -4.00968e-07 0 1.51845e-06 -7.63458e-07 0 1.62447e-06 -1.34323e-06 0 1.68489e-06 -2.36586e-06 0 1.42244e-06 -4.67117e-06 0 -7.88164e-06 -1.09837e-05 0 0 1.38763e-07 0 2.95478e-08 1.39263e-07 0 5.92985e-08 1.40586e-07 0 8.94506e-08 1.42791e-07 0 1.20211e-07 1.45926e-07 0 1.51783e-07 1.49868e-07 0 1.84372e-07 1.5472e-07 0 2.18191e-07 1.60393e-07 0 2.53446e-07 1.66804e-07 0 2.90352e-07 1.74033e-07 0 3.29123e-07 1.81854e-07 0 3.6997e-07 1.90188e-07 0 4.13105e-07 1.98867e-07 0 4.58732e-07 2.0761e-07 0 5.07045e-07 2.16026e-07 0 5.5823e-07 2.23629e-07 0 6.12447e-07 2.29822e-07 0 6.69834e-07 2.33191e-07 0 7.3049e-07 2.32896e-07 0 7.9447e-07 2.26743e-07 0 8.61768e-07 2.11673e-07 0 9.32297e-07 1.85309e-07 0 1.00585e-06 1.4005e-07 0 1.082e-06 6.99145e-08 0 1.1599e-06 -3.52594e-08 0 1.23773e-06 -1.93739e-07 0 1.31121e-06 -4.30536e-07 0 1.36944e-06 -7.89102e-07 0 1.381e-06 -1.35293e-06 0 1.23476e-06 -2.30903e-06 0 3.37867e-07 -4.1625e-06 0 -5.6654e-06 -5.39822e-06 0 0 1.28879e-07 0 2.98334e-08 1.29342e-07 0 5.98691e-08 1.30565e-07 0 9.03049e-08 1.32603e-07 0 1.21347e-07 1.355e-07 0 1.53196e-07 1.39141e-07 0 1.86055e-07 1.43619e-07 0 2.20134e-07 1.48848e-07 0 2.55632e-07 1.54752e-07 0 2.92758e-07 1.61396e-07 0 3.31713e-07 1.68568e-07 0 3.72692e-07 1.76187e-07 0 4.15887e-07 1.8408e-07 0 4.61471e-07 1.91982e-07 0 5.09598e-07 1.99498e-07 0 5.60395e-07 2.06155e-07 0 6.13947e-07 2.11368e-07 0 6.7028e-07 2.13738e-07 0 7.29344e-07 2.12445e-07 0 7.90987e-07 2.05329e-07 0 8.549e-07 1.8937e-07 0 9.20577e-07 1.62237e-07 0 9.87206e-07 1.16448e-07 0 1.05344e-06 4.61591e-08 0 1.11709e-06 -5.84991e-08 0 1.17406e-06 -2.15072e-07 0 1.2162e-06 -4.46906e-07 0 1.22501e-06 -7.92898e-07 0 1.15221e-06 -1.32186e-06 0 8.45038e-07 -2.16024e-06 0 -3.19055e-07 -3.44921e-06 0 -4.09937e-06 -3.19619e-06 0 0 1.18904e-07 0 3.00966e-08 1.19329e-07 0 6.03949e-08 1.20453e-07 0 9.1092e-08 1.22325e-07 0 1.22393e-07 1.24985e-07 0 1.54497e-07 1.28326e-07 0 1.87604e-07 1.32432e-07 0 2.21919e-07 1.37224e-07 0 2.57638e-07 1.42626e-07 0 2.94961e-07 1.48695e-07 0 3.34078e-07 1.55232e-07 0 3.75168e-07 1.62155e-07 0 4.18403e-07 1.69293e-07 0 4.63927e-07 1.76392e-07 0 5.11853e-07 1.83064e-07 0 5.62254e-07 1.88853e-07 0 6.15136e-07 1.93193e-07 0 6.70421e-07 1.94715e-07 0 7.27911e-07 1.92633e-07 0 7.87249e-07 1.84842e-07 0 8.47832e-07 1.68405e-07 0 9.08747e-07 1.41067e-07 0 9.68596e-07 9.55679e-08 0 1.02516e-06 2.63007e-08 0 1.07497e-06 -7.61319e-08 0 1.11194e-06 -2.28177e-07 0 1.12463e-06 -4.50847e-07 0 1.08882e-06 -7.76995e-07 0 9.46072e-07 -1.25741e-06 0 5.33225e-07 -1.95505e-06 0 -6.42643e-07 -2.77262e-06 0 -3.08503e-06 -2.15913e-06 0 0 1.08845e-07 0 3.03376e-08 1.09233e-07 0 6.08762e-08 1.10257e-07 0 9.18122e-08 1.11964e-07 0 1.23349e-07 1.14387e-07 0 1.55685e-07 1.17431e-07 0 1.89017e-07 1.21168e-07 0 2.23547e-07 1.25526e-07 0 2.59466e-07 1.30434e-07 0 2.96963e-07 1.35937e-07 0 3.36222e-07 1.41853e-07 0 3.77406e-07 1.48099e-07 0 4.20665e-07 1.54509e-07 0 4.66115e-07 1.60844e-07 0 5.13833e-07 1.66727e-07 0 5.63835e-07 1.71724e-07 0 6.16057e-07 1.75293e-07 0 6.70316e-07 1.76116e-07 0 7.2627e-07 1.73446e-07 0 7.83368e-07 1.65261e-07 0 8.40722e-07 1.48746e-07 0 8.97029e-07 1.21747e-07 0 9.50335e-07 7.73294e-08 0 9.97605e-07 1.02054e-08 0 1.03423e-06 -8.83988e-08 0 1.05241e-06 -2.3354e-07 0 1.03816e-06 -4.4345e-07 0 9.63658e-07 -7.4422e-07 0 7.67057e-07 -1.16831e-06 0 2.98585e-07 -1.72598e-06 0 -7.70613e-07 -2.21249e-06 0 -2.41954e-06 -1.58435e-06 0 0 9.87093e-08 0 3.05563e-08 9.90595e-08 0 6.13131e-08 9.99855e-08 0 9.24658e-08 1.01527e-07 0 1.24217e-07 1.03716e-07 0 1.56763e-07 1.06463e-07 0 1.90298e-07 1.09835e-07 0 2.25021e-07 1.13762e-07 0 2.61118e-07 1.18182e-07 0 2.98771e-07 1.23129e-07 0 3.38152e-07 1.28437e-07 0 3.79413e-07 1.34025e-07 0 4.22682e-07 1.39734e-07 0 4.68051e-07 1.45342e-07 0 5.15558e-07 1.50489e-07 0 5.65169e-07 1.54765e-07 0 6.1675e-07 1.57663e-07 0 6.70019e-07 1.57929e-07 0 7.24499e-07 1.54864e-07 0 7.79453e-07 1.46555e-07 0 8.33723e-07 1.30342e-07 0 8.85637e-07 1.04202e-07 0 9.32725e-07 6.16163e-08 0 9.71209e-07 -2.31508e-09 0 9.95486e-07 -9.56238e-08 0 9.9635e-07 -2.31777e-07 0 9.58082e-07 -4.26024e-07 0 8.51249e-07 -6.97698e-07 0 6.16188e-07 -1.06298e-06 0 1.29415e-07 -1.4958e-06 0 -7.99377e-07 -1.76932e-06 0 -1.96722e-06 -1.22284e-06 0 0 8.85042e-08 0 3.0753e-08 8.88172e-08 0 6.17058e-08 8.96447e-08 0 9.30532e-08 9.10217e-08 0 1.24997e-07 9.29769e-08 0 1.5773e-07 9.543e-08 0 1.91448e-07 9.84384e-08 0 2.26343e-07 1.0194e-07 0 2.62597e-07 1.05877e-07 0 3.00386e-07 1.10277e-07 0 3.39874e-07 1.1499e-07 0 3.81196e-07 1.19937e-07 0 4.24466e-07 1.2497e-07 0 4.69749e-07 1.29887e-07 0 5.17049e-07 1.34346e-07 0 5.66283e-07 1.37971e-07 0 6.17253e-07 1.4029e-07 0 6.69585e-07 1.40133e-07 0 7.22674e-07 1.36856e-07 0 7.75608e-07 1.28678e-07 0 8.26977e-07 1.13127e-07 0 8.7477e-07 8.83356e-08 0 9.16044e-07 4.8279e-08 0 9.46361e-07 -1.14966e-08 0 9.59273e-07 -9.81979e-08 0 9.44506e-07 -2.23594e-07 0 8.85327e-07 -3.99976e-07 0 7.52441e-07 -6.40507e-07 0 4.92166e-07 -9.48492e-07 0 1.11507e-08 -1.27738e-06 0 -7.82516e-07 -1.42068e-06 0 -1.64956e-06 -9.71744e-07 0 0 7.82373e-08 0 3.09274e-08 7.85132e-08 0 6.20539e-08 7.92425e-08 0 9.35737e-08 8.04559e-08 0 1.25687e-07 8.21782e-08 0 1.58587e-07 8.43385e-08 0 1.92465e-07 8.69864e-08 0 2.27511e-07 9.00665e-08 0 2.63903e-07 9.35262e-08 0 3.01811e-07 9.73874e-08 0 3.41388e-07 1.01516e-07 0 3.82761e-07 1.05839e-07 0 4.26024e-07 1.10221e-07 0 4.71219e-07 1.14477e-07 0 5.18321e-07 1.18295e-07 0 5.67201e-07 1.21332e-07 0 6.17601e-07 1.23159e-07 0 6.69063e-07 1.22705e-07 0 7.20863e-07 1.19386e-07 0 7.7193e-07 1.11574e-07 0 8.20625e-07 9.70191e-08 0 8.64627e-07 7.40268e-08 0 9.0057e-07 3.71382e-08 0 9.23444e-07 -1.76148e-08 0 9.26109e-07 -9.65629e-08 0 8.97537e-07 -2.09753e-07 0 8.20618e-07 -3.66721e-07 0 6.67506e-07 -5.75435e-07 0 3.92555e-07 -8.30146e-07 0 -6.9389e-08 -1.07622e-06 0 -7.4762e-07 -1.14291e-06 0 -1.42126e-06 -7.8329e-07 0 0 6.79158e-08 0 3.108e-08 6.81547e-08 0 6.23587e-08 6.87861e-08 0 9.40294e-08 6.98364e-08 0 1.26291e-07 7.13269e-08 0 1.59337e-07 7.31959e-08 0 1.93354e-07 7.54856e-08 0 2.28532e-07 7.81474e-08 0 2.65043e-07 8.11349e-08 0 3.03053e-07 8.44648e-08 0 3.42705e-07 8.802e-08 0 3.84118e-07 9.17345e-08 0 4.27368e-07 9.54856e-08 0 4.7248e-07 9.91114e-08 0 5.19397e-07 1.0233e-07 0 5.67951e-07 1.04838e-07 0 6.1783e-07 1.06253e-07 0 6.685e-07 1.05615e-07 0 7.19129e-07 1.02407e-07 0 7.68505e-07 9.51782e-08 0 8.14779e-07 8.19217e-08 0 8.55356e-07 6.1137e-08 0 8.86502e-07 2.79889e-08 0 9.02717e-07 -2.09776e-08 0 8.96313e-07 -9.11953e-08 0 8.55769e-07 -1.91032e-07 0 7.64089e-07 -3.27598e-07 0 5.95678e-07 -5.04827e-07 0 3.13509e-07 -7.1152e-07 0 -1.23899e-07 -8.93338e-07 0 -7.08509e-07 -9.16831e-07 0 -1.25273e-06 -6.33032e-07 0 0 5.75471e-08 0 3.12108e-08 5.7749e-08 0 6.26196e-08 5.82828e-08 0 9.44194e-08 5.91706e-08 0 1.26809e-07 6.04302e-08 0 1.59978e-07 6.20092e-08 0 1.94115e-07 6.39427e-08 0 2.29404e-07 6.61894e-08 0 2.66016e-07 6.87093e-08 0 3.04111e-07 7.15148e-08 0 3.43827e-07 7.45062e-08 0 3.85269e-07 7.76253e-08 0 4.28505e-07 8.07653e-08 0 4.73538e-07 8.37868e-08 0 5.20288e-07 8.64441e-08 0 5.68552e-07 8.84746e-08 0 6.17968e-07 8.95467e-08 0 6.67936e-07 8.88277e-08 0 7.17531e-07 8.58698e-08 0 7.65413e-07 7.9415e-08 0 8.09555e-07 6.77261e-08 0 8.47121e-07 4.95104e-08 0 8.74061e-07 2.06043e-08 0 8.84473e-07 -2.19179e-08 0 8.7025e-07 -8.25923e-08 0 8.19597e-07 -1.68199e-07 0 7.15961e-07 -2.83818e-07 0 5.36394e-07 -4.30541e-07 0 2.5207e-07 -5.94741e-07 0 -1.60058e-07 -7.27385e-07 0 -6.71453e-07 -7.28088e-07 0 -1.12773e-06 -5.07362e-07 0 0 4.71384e-08 0 3.13196e-08 4.73035e-08 0 6.2837e-08 4.77398e-08 0 9.47442e-08 4.84656e-08 0 1.27239e-07 4.9495e-08 0 1.60512e-07 5.07852e-08 0 1.94747e-07 5.23646e-08 0 2.3013e-07 5.41989e-08 0 2.66825e-07 5.6255e-08 0 3.0499e-07 5.85421e-08 0 3.44756e-07 6.09779e-08 0 3.86222e-07 6.35135e-08 0 4.29442e-07 6.6059e-08 0 4.74405e-07 6.8499e-08 0 5.2101e-07 7.06274e-08 0 5.69022e-07 7.22253e-08 0 6.18042e-07 7.30163e-08 0 6.67408e-07 7.23039e-08 0 7.16119e-07 6.97157e-08 0 7.62726e-07 6.42012e-08 0 8.05048e-07 5.43125e-08 0 8.4005e-07 3.89765e-08 0 8.63421e-07 1.474e-08 0 8.68936e-07 -2.07869e-08 0 8.48179e-07 -7.12606e-08 0 7.89237e-07 -1.41991e-07 0 6.76191e-07 -2.36445e-07 0 4.88757e-07 -3.53962e-07 0 2.05273e-07 -4.80832e-07 0 -1.83719e-07 -5.75933e-07 0 -6.39357e-07 -5.66178e-07 0 -1.03507e-06 -3.98117e-07 0 0 3.6697e-08 0 3.14067e-08 3.68254e-08 0 6.30107e-08 3.71645e-08 0 9.50039e-08 3.77286e-08 0 1.27583e-07 3.85285e-08 0 1.60938e-07 3.9531e-08 0 1.95253e-07 4.07577e-08 0 2.30709e-07 4.21819e-08 0 2.6747e-07 4.37776e-08 0 3.0569e-07 4.55511e-08 0 3.45495e-07 4.74384e-08 0 3.86978e-07 4.94001e-08 0 4.30184e-07 5.13651e-08 0 4.75089e-07 5.32427e-08 0 5.21573e-07 5.48693e-08 0 5.69379e-07 5.60723e-08 0 6.18073e-07 5.66333e-08 0 6.66947e-07 5.60012e-08 0 7.14935e-07 5.38824e-08 0 7.60501e-07 4.94468e-08 0 8.0134e-07 4.15515e-08 0 8.34257e-07 2.93529e-08 0 8.5473e-07 1.01372e-08 0 8.56289e-07 -1.79489e-08 0 8.30299e-07 -5.77079e-08 0 7.64836e-07 -1.13105e-07 0 6.44653e-07 -1.86384e-07 0 4.51877e-07 -2.76061e-07 0 1.70663e-07 -3.70035e-07 0 -1.98911e-07 -4.36197e-07 0 -6.1339e-07 -4.23371e-07 0 -9.67489e-07 -3.00046e-07 0 0 2.62303e-08 0 3.1472e-08 2.63219e-08 0 6.31411e-08 2.65641e-08 0 9.51987e-08 2.69667e-08 0 1.27842e-07 2.75377e-08 0 1.61258e-07 2.82532e-08 0 1.95631e-07 2.91285e-08 0 2.31142e-07 3.01444e-08 0 2.67953e-07 3.12823e-08 0 3.06214e-07 3.25463e-08 0 3.46048e-07 3.38903e-08 0 3.87543e-07 3.5286e-08 0 4.30737e-07 3.66816e-08 0 4.75596e-07 3.80118e-08 0 5.21988e-07 3.91581e-08 0 5.69635e-07 3.99958e-08 0 6.1808e-07 4.03673e-08 0 6.66579e-07 3.98736e-08 0 7.14016e-07 3.83031e-08 0 7.58788e-07 3.50557e-08 0 7.98498e-07 2.93062e-08 0 8.29829e-07 2.04472e-08 0 8.48105e-07 6.52597e-09 0 8.46675e-07 -1.3777e-08 0 8.16761e-07 -4.24382e-08 0 7.46476e-07 -8.21952e-08 0 6.21182e-07 -1.34397e-07 0 4.2496e-07 -1.97469e-07 0 1.46315e-07 -2.62066e-07 0 -2.08345e-07 -3.05375e-07 0 -5.93923e-07 -2.93839e-07 0 -9.20222e-07 -2.0953e-07 0 0 1.57454e-08 0 3.15156e-08 1.58004e-08 0 6.3228e-08 1.59456e-08 0 9.53286e-08 1.61871e-08 0 1.28014e-07 1.65296e-08 0 1.61471e-07 1.69586e-08 0 1.95884e-07 1.74834e-08 0 2.31432e-07 1.80925e-08 0 2.68275e-07 1.87744e-08 0 3.06563e-07 1.95317e-08 0 3.46416e-07 2.03365e-08 0 3.87919e-07 2.11716e-08 0 4.31104e-07 2.20057e-08 0 4.75931e-07 2.27995e-08 0 5.2226e-07 2.3481e-08 0 5.698e-07 2.3975e-08 0 6.18076e-07 2.41861e-08 0 6.66322e-07 2.38729e-08 0 7.13387e-07 2.29076e-08 0 7.57624e-07 2.09274e-08 0 7.96573e-07 1.74334e-08 0 8.26835e-07 1.20596e-08 0 8.43633e-07 3.62857e-09 0 8.40199e-07 -8.64921e-09 0 8.07668e-07 -2.59487e-08 0 7.34203e-07 -4.98723e-08 0 6.0562e-07 -8.11261e-08 0 4.07366e-07 -1.18559e-07 0 1.30824e-07 -1.56307e-07 0 -2.13779e-07 -1.80779e-07 0 -5.8099e-07 -1.7302e-07 0 -8.90194e-07 -1.23894e-07 0 0 5.24968e-09 0 3.15375e-08 5.268e-09 0 6.32717e-08 5.3164e-09 0 9.53938e-08 5.39689e-09 0 1.281e-07 5.51101e-09 0 1.61578e-07 5.65399e-09 0 1.96011e-07 5.82887e-09 0 2.31577e-07 6.03178e-09 0 2.68437e-07 6.25898e-09 0 3.06738e-07 6.5112e-09 0 3.46601e-07 6.77921e-09 0 3.88107e-07 7.05721e-09 0 4.31287e-07 7.33471e-09 0 4.76099e-07 7.59857e-09 0 5.22396e-07 7.82468e-09 0 5.69881e-07 7.98789e-09 0 6.18072e-07 8.05629e-09 0 6.6619e-07 7.94905e-09 0 7.13066e-07 7.62344e-09 0 7.57034e-07 6.95805e-09 0 7.95598e-07 5.78602e-09 0 8.25321e-07 3.98497e-09 0 8.41374e-07 1.16157e-09 0 8.36932e-07 -2.94696e-09 0 8.03089e-07 -8.73038e-09 0 7.2804e-07 -1.67159e-08 0 5.97843e-07 -2.71215e-08 0 3.98651e-07 -3.95294e-08 0 1.23277e-07 -5.19438e-08 0 -2.16259e-07 -5.98554e-08 0 -5.74528e-07 -5.71398e-08 0 -8.75562e-07 -4.10028e-08 0 0 -5.24968e-09 0 3.15375e-08 -5.268e-09 0 6.32717e-08 -5.3164e-09 0 9.53938e-08 -5.39689e-09 0 1.281e-07 -5.51101e-09 0 1.61578e-07 -5.65399e-09 0 1.96011e-07 -5.82887e-09 0 2.31577e-07 -6.03178e-09 0 2.68437e-07 -6.25898e-09 0 3.06738e-07 -6.5112e-09 0 3.46601e-07 -6.77921e-09 0 3.88107e-07 -7.05721e-09 0 4.31287e-07 -7.33471e-09 0 4.76099e-07 -7.59857e-09 0 5.22396e-07 -7.82468e-09 0 5.69881e-07 -7.98789e-09 0 6.18072e-07 -8.05629e-09 0 6.6619e-07 -7.94905e-09 0 7.13066e-07 -7.62344e-09 0 7.57034e-07 -6.95805e-09 0 7.95598e-07 -5.78602e-09 0 8.25321e-07 -3.98497e-09 0 8.41374e-07 -1.16157e-09 0 8.36932e-07 2.94696e-09 0 8.03089e-07 8.73038e-09 0 7.2804e-07 1.67159e-08 0 5.97843e-07 2.71215e-08 0 3.98651e-07 3.95294e-08 0 1.23277e-07 5.19438e-08 0 -2.16259e-07 5.98554e-08 0 -5.74528e-07 5.71398e-08 0 -8.75562e-07 4.10028e-08 0 0 -1.57454e-08 0 3.15156e-08 -1.58004e-08 0 6.3228e-08 -1.59456e-08 0 9.53286e-08 -1.61871e-08 0 1.28014e-07 -1.65296e-08 0 1.61471e-07 -1.69586e-08 0 1.95884e-07 -1.74834e-08 0 2.31432e-07 -1.80925e-08 0 2.68275e-07 -1.87744e-08 0 3.06563e-07 -1.95317e-08 0 3.46416e-07 -2.03365e-08 0 3.87919e-07 -2.11716e-08 0 4.31104e-07 -2.20057e-08 0 4.75931e-07 -2.27995e-08 0 5.2226e-07 -2.3481e-08 0 5.698e-07 -2.3975e-08 0 6.18076e-07 -2.41861e-08 0 6.66322e-07 -2.38729e-08 0 7.13387e-07 -2.29076e-08 0 7.57624e-07 -2.09274e-08 0 7.96573e-07 -1.74334e-08 0 8.26835e-07 -1.20596e-08 0 8.43633e-07 -3.62857e-09 0 8.40199e-07 8.64921e-09 0 8.07668e-07 2.59487e-08 0 7.34203e-07 4.98723e-08 0 6.0562e-07 8.11261e-08 0 4.07366e-07 1.18559e-07 0 1.30824e-07 1.56307e-07 0 -2.13779e-07 1.80779e-07 0 -5.8099e-07 1.7302e-07 0 -8.90194e-07 1.23894e-07 0 0 -2.62303e-08 0 3.1472e-08 -2.63219e-08 0 6.31411e-08 -2.65641e-08 0 9.51987e-08 -2.69667e-08 0 1.27842e-07 -2.75377e-08 0 1.61258e-07 -2.82532e-08 0 1.95631e-07 -2.91285e-08 0 2.31142e-07 -3.01444e-08 0 2.67953e-07 -3.12823e-08 0 3.06214e-07 -3.25463e-08 0 3.46048e-07 -3.38903e-08 0 3.87543e-07 -3.5286e-08 0 4.30737e-07 -3.66816e-08 0 4.75596e-07 -3.80118e-08 0 5.21988e-07 -3.91581e-08 0 5.69635e-07 -3.99958e-08 0 6.1808e-07 -4.03673e-08 0 6.66579e-07 -3.98736e-08 0 7.14016e-07 -3.83031e-08 0 7.58788e-07 -3.50557e-08 0 7.98498e-07 -2.93062e-08 0 8.29829e-07 -2.04472e-08 0 8.48105e-07 -6.52597e-09 0 8.46675e-07 1.3777e-08 0 8.16761e-07 4.24382e-08 0 7.46476e-07 8.21952e-08 0 6.21182e-07 1.34397e-07 0 4.2496e-07 1.97469e-07 0 1.46315e-07 2.62066e-07 0 -2.08345e-07 3.05375e-07 0 -5.93923e-07 2.93839e-07 0 -9.20222e-07 2.0953e-07 0 0 -3.6697e-08 0 3.14067e-08 -3.68254e-08 0 6.30107e-08 -3.71645e-08 0 9.50039e-08 -3.77286e-08 0 1.27583e-07 -3.85285e-08 0 1.60938e-07 -3.9531e-08 0 1.95253e-07 -4.07577e-08 0 2.30709e-07 -4.21819e-08 0 2.6747e-07 -4.37776e-08 0 3.0569e-07 -4.55511e-08 0 3.45495e-07 -4.74384e-08 0 3.86978e-07 -4.94001e-08 0 4.30184e-07 -5.13651e-08 0 4.75089e-07 -5.32427e-08 0 5.21573e-07 -5.48693e-08 0 5.69379e-07 -5.60723e-08 0 6.18073e-07 -5.66333e-08 0 6.66947e-07 -5.60012e-08 0 7.14935e-07 -5.38824e-08 0 7.60501e-07 -4.94468e-08 0 8.0134e-07 -4.15515e-08 0 8.34257e-07 -2.93529e-08 0 8.5473e-07 -1.01372e-08 0 8.56289e-07 1.79489e-08 0 8.30299e-07 5.77079e-08 0 7.64836e-07 1.13105e-07 0 6.44653e-07 1.86384e-07 0 4.51877e-07 2.76061e-07 0 1.70663e-07 3.70035e-07 0 -1.98911e-07 4.36197e-07 0 -6.1339e-07 4.23371e-07 0 -9.67489e-07 3.00046e-07 0 0 -4.71384e-08 0 3.13196e-08 -4.73035e-08 0 6.2837e-08 -4.77398e-08 0 9.47442e-08 -4.84656e-08 0 1.27239e-07 -4.9495e-08 0 1.60512e-07 -5.07852e-08 0 1.94747e-07 -5.23646e-08 0 2.3013e-07 -5.41989e-08 0 2.66825e-07 -5.6255e-08 0 3.0499e-07 -5.85421e-08 0 3.44756e-07 -6.09779e-08 0 3.86222e-07 -6.35135e-08 0 4.29442e-07 -6.6059e-08 0 4.74405e-07 -6.8499e-08 0 5.2101e-07 -7.06274e-08 0 5.69022e-07 -7.22253e-08 0 6.18042e-07 -7.30163e-08 0 6.67408e-07 -7.23039e-08 0 7.16119e-07 -6.97157e-08 0 7.62726e-07 -6.42012e-08 0 8.05048e-07 -5.43125e-08 0 8.4005e-07 -3.89765e-08 0 8.63421e-07 -1.474e-08 0 8.68936e-07 2.07869e-08 0 8.48179e-07 7.12606e-08 0 7.89237e-07 1.41991e-07 0 6.76191e-07 2.36445e-07 0 4.88757e-07 3.53962e-07 0 2.05273e-07 4.80832e-07 0 -1.83719e-07 5.75933e-07 0 -6.39357e-07 5.66178e-07 0 -1.03507e-06 3.98117e-07 0 0 -5.75471e-08 0 3.12108e-08 -5.7749e-08 0 6.26196e-08 -5.82828e-08 0 9.44194e-08 -5.91706e-08 0 1.26809e-07 -6.04302e-08 0 1.59978e-07 -6.20092e-08 0 1.94115e-07 -6.39427e-08 0 2.29404e-07 -6.61894e-08 0 2.66016e-07 -6.87093e-08 0 3.04111e-07 -7.15148e-08 0 3.43827e-07 -7.45062e-08 0 3.85269e-07 -7.76253e-08 0 4.28505e-07 -8.07653e-08 0 4.73538e-07 -8.37868e-08 0 5.20288e-07 -8.64441e-08 0 5.68552e-07 -8.84746e-08 0 6.17968e-07 -8.95467e-08 0 6.67936e-07 -8.88277e-08 0 7.17531e-07 -8.58698e-08 0 7.65413e-07 -7.9415e-08 0 8.09555e-07 -6.77261e-08 0 8.47121e-07 -4.95104e-08 0 8.74061e-07 -2.06043e-08 0 8.84473e-07 2.19179e-08 0 8.7025e-07 8.25923e-08 0 8.19597e-07 1.68199e-07 0 7.15961e-07 2.83818e-07 0 5.36394e-07 4.30541e-07 0 2.5207e-07 5.94741e-07 0 -1.60058e-07 7.27385e-07 0 -6.71453e-07 7.28088e-07 0 -1.12773e-06 5.07362e-07 0 0 -6.79158e-08 0 3.108e-08 -6.81547e-08 0 6.23587e-08 -6.87861e-08 0 9.40294e-08 -6.98364e-08 0 1.26291e-07 -7.13269e-08 0 1.59337e-07 -7.31959e-08 0 1.93354e-07 -7.54856e-08 0 2.28532e-07 -7.81474e-08 0 2.65043e-07 -8.11349e-08 0 3.03053e-07 -8.44648e-08 0 3.42705e-07 -8.802e-08 0 3.84118e-07 -9.17345e-08 0 4.27368e-07 -9.54856e-08 0 4.7248e-07 -9.91114e-08 0 5.19397e-07 -1.0233e-07 0 5.67951e-07 -1.04838e-07 0 6.1783e-07 -1.06253e-07 0 6.685e-07 -1.05615e-07 0 7.19129e-07 -1.02407e-07 0 7.68505e-07 -9.51782e-08 0 8.14779e-07 -8.19217e-08 0 8.55356e-07 -6.1137e-08 0 8.86502e-07 -2.79889e-08 0 9.02717e-07 2.09776e-08 0 8.96313e-07 9.11953e-08 0 8.55769e-07 1.91032e-07 0 7.64089e-07 3.27598e-07 0 5.95678e-07 5.04827e-07 0 3.13509e-07 7.1152e-07 0 -1.23899e-07 8.93338e-07 0 -7.08509e-07 9.16831e-07 0 -1.25273e-06 6.33032e-07 0 0 -7.82373e-08 0 3.09274e-08 -7.85132e-08 0 6.20539e-08 -7.92425e-08 0 9.35737e-08 -8.04559e-08 0 1.25687e-07 -8.21782e-08 0 1.58587e-07 -8.43385e-08 0 1.92465e-07 -8.69864e-08 0 2.27511e-07 -9.00665e-08 0 2.63903e-07 -9.35262e-08 0 3.01811e-07 -9.73874e-08 0 3.41388e-07 -1.01516e-07 0 3.82761e-07 -1.05839e-07 0 4.26024e-07 -1.10221e-07 0 4.71219e-07 -1.14477e-07 0 5.18321e-07 -1.18295e-07 0 5.67201e-07 -1.21332e-07 0 6.17601e-07 -1.23159e-07 0 6.69063e-07 -1.22705e-07 0 7.20863e-07 -1.19386e-07 0 7.7193e-07 -1.11574e-07 0 8.20625e-07 -9.70191e-08 0 8.64627e-07 -7.40268e-08 0 9.0057e-07 -3.71382e-08 0 9.23444e-07 1.76148e-08 0 9.26109e-07 9.65629e-08 0 8.97537e-07 2.09753e-07 0 8.20618e-07 3.66721e-07 0 6.67506e-07 5.75435e-07 0 3.92555e-07 8.30146e-07 0 -6.9389e-08 1.07622e-06 0 -7.4762e-07 1.14291e-06 0 -1.42126e-06 7.8329e-07 0 0 -8.85042e-08 0 3.0753e-08 -8.88172e-08 0 6.17058e-08 -8.96447e-08 0 9.30532e-08 -9.10217e-08 0 1.24997e-07 -9.29769e-08 0 1.5773e-07 -9.543e-08 0 1.91448e-07 -9.84384e-08 0 2.26343e-07 -1.0194e-07 0 2.62597e-07 -1.05877e-07 0 3.00386e-07 -1.10277e-07 0 3.39874e-07 -1.1499e-07 0 3.81196e-07 -1.19937e-07 0 4.24466e-07 -1.2497e-07 0 4.69749e-07 -1.29887e-07 0 5.17049e-07 -1.34346e-07 0 5.66283e-07 -1.37971e-07 0 6.17253e-07 -1.4029e-07 0 6.69585e-07 -1.40133e-07 0 7.22674e-07 -1.36856e-07 0 7.75608e-07 -1.28678e-07 0 8.26977e-07 -1.13127e-07 0 8.7477e-07 -8.83356e-08 0 9.16044e-07 -4.8279e-08 0 9.46361e-07 1.14966e-08 0 9.59273e-07 9.81979e-08 0 9.44506e-07 2.23594e-07 0 8.85327e-07 3.99976e-07 0 7.52441e-07 6.40507e-07 0 4.92166e-07 9.48492e-07 0 1.11507e-08 1.27738e-06 0 -7.82516e-07 1.42068e-06 0 -1.64956e-06 9.71744e-07 0 0 -9.87093e-08 0 3.05563e-08 -9.90595e-08 0 6.13131e-08 -9.99855e-08 0 9.24658e-08 -1.01527e-07 0 1.24217e-07 -1.03716e-07 0 1.56763e-07 -1.06463e-07 0 1.90298e-07 -1.09835e-07 0 2.25021e-07 -1.13762e-07 0 2.61118e-07 -1.18182e-07 0 2.98771e-07 -1.23129e-07 0 3.38152e-07 -1.28437e-07 0 3.79413e-07 -1.34025e-07 0 4.22682e-07 -1.39734e-07 0 4.68051e-07 -1.45342e-07 0 5.15558e-07 -1.50489e-07 0 5.65169e-07 -1.54765e-07 0 6.1675e-07 -1.57663e-07 0 6.70019e-07 -1.57929e-07 0 7.24499e-07 -1.54864e-07 0 7.79453e-07 -1.46555e-07 0 8.33723e-07 -1.30342e-07 0 8.85637e-07 -1.04202e-07 0 9.32725e-07 -6.16163e-08 0 9.71209e-07 2.31508e-09 0 9.95486e-07 9.56238e-08 0 9.9635e-07 2.31777e-07 0 9.58082e-07 4.26024e-07 0 8.51249e-07 6.97698e-07 0 6.16188e-07 1.06298e-06 0 1.29415e-07 1.4958e-06 0 -7.99377e-07 1.76932e-06 0 -1.96722e-06 1.22284e-06 0 0 -1.08845e-07 0 3.03376e-08 -1.09233e-07 0 6.08762e-08 -1.10257e-07 0 9.18122e-08 -1.11964e-07 0 1.23349e-07 -1.14387e-07 0 1.55685e-07 -1.17431e-07 0 1.89017e-07 -1.21168e-07 0 2.23547e-07 -1.25526e-07 0 2.59466e-07 -1.30434e-07 0 2.96963e-07 -1.35937e-07 0 3.36222e-07 -1.41853e-07 0 3.77406e-07 -1.48099e-07 0 4.20665e-07 -1.54509e-07 0 4.66115e-07 -1.60844e-07 0 5.13833e-07 -1.66727e-07 0 5.63835e-07 -1.71724e-07 0 6.16057e-07 -1.75293e-07 0 6.70316e-07 -1.76116e-07 0 7.2627e-07 -1.73446e-07 0 7.83368e-07 -1.65261e-07 0 8.40722e-07 -1.48746e-07 0 8.97029e-07 -1.21747e-07 0 9.50335e-07 -7.73294e-08 0 9.97605e-07 -1.02054e-08 0 1.03423e-06 8.83988e-08 0 1.05241e-06 2.3354e-07 0 1.03816e-06 4.4345e-07 0 9.63658e-07 7.4422e-07 0 7.67057e-07 1.16831e-06 0 2.98585e-07 1.72598e-06 0 -7.70613e-07 2.21249e-06 0 -2.41954e-06 1.58435e-06 0 0 -1.18904e-07 0 3.00966e-08 -1.19329e-07 0 6.03949e-08 -1.20453e-07 0 9.1092e-08 -1.22325e-07 0 1.22393e-07 -1.24985e-07 0 1.54497e-07 -1.28326e-07 0 1.87604e-07 -1.32432e-07 0 2.21919e-07 -1.37224e-07 0 2.57638e-07 -1.42626e-07 0 2.94961e-07 -1.48695e-07 0 3.34078e-07 -1.55232e-07 0 3.75168e-07 -1.62155e-07 0 4.18403e-07 -1.69293e-07 0 4.63927e-07 -1.76392e-07 0 5.11853e-07 -1.83064e-07 0 5.62254e-07 -1.88853e-07 0 6.15136e-07 -1.93193e-07 0 6.70421e-07 -1.94715e-07 0 7.27911e-07 -1.92633e-07 0 7.87249e-07 -1.84842e-07 0 8.47832e-07 -1.68405e-07 0 9.08747e-07 -1.41067e-07 0 9.68596e-07 -9.55679e-08 0 1.02516e-06 -2.63007e-08 0 1.07497e-06 7.61319e-08 0 1.11194e-06 2.28177e-07 0 1.12463e-06 4.50847e-07 0 1.08882e-06 7.76995e-07 0 9.46072e-07 1.25741e-06 0 5.33225e-07 1.95505e-06 0 -6.42643e-07 2.77262e-06 0 -3.08503e-06 2.15913e-06 0 0 -1.28879e-07 0 2.98334e-08 -1.29342e-07 0 5.98691e-08 -1.30565e-07 0 9.03049e-08 -1.32603e-07 0 1.21347e-07 -1.355e-07 0 1.53196e-07 -1.39141e-07 0 1.86055e-07 -1.43619e-07 0 2.20134e-07 -1.48848e-07 0 2.55632e-07 -1.54752e-07 0 2.92758e-07 -1.61396e-07 0 3.31713e-07 -1.68568e-07 0 3.72692e-07 -1.76187e-07 0 4.15887e-07 -1.8408e-07 0 4.61471e-07 -1.91982e-07 0 5.09598e-07 -1.99498e-07 0 5.60395e-07 -2.06155e-07 0 6.13947e-07 -2.11368e-07 0 6.7028e-07 -2.13738e-07 0 7.29344e-07 -2.12445e-07 0 7.90987e-07 -2.05329e-07 0 8.549e-07 -1.8937e-07 0 9.20577e-07 -1.62237e-07 0 9.87206e-07 -1.16448e-07 0 1.05344e-06 -4.61591e-08 0 1.11709e-06 5.84991e-08 0 1.17406e-06 2.15072e-07 0 1.2162e-06 4.46906e-07 0 1.22501e-06 7.92898e-07 0 1.15221e-06 1.32186e-06 0 8.45038e-07 2.16024e-06 0 -3.19055e-07 3.44921e-06 0 -4.09937e-06 3.19619e-06 0 0 -1.38763e-07 0 2.95478e-08 -1.39263e-07 0 5.92985e-08 -1.40586e-07 0 8.94506e-08 -1.42791e-07 0 1.20211e-07 -1.45926e-07 0 1.51783e-07 -1.49868e-07 0 1.84372e-07 -1.5472e-07 0 2.18191e-07 -1.60393e-07 0 2.53446e-07 -1.66804e-07 0 2.90352e-07 -1.74033e-07 0 3.29123e-07 -1.81854e-07 0 3.6997e-07 -1.90188e-07 0 4.13105e-07 -1.98867e-07 0 4.58732e-07 -2.0761e-07 0 5.07045e-07 -2.16026e-07 0 5.5823e-07 -2.23629e-07 0 6.12447e-07 -2.29822e-07 0 6.69834e-07 -2.33191e-07 0 7.3049e-07 -2.32896e-07 0 7.9447e-07 -2.26743e-07 0 8.61768e-07 -2.11673e-07 0 9.32297e-07 -1.85309e-07 0 1.00585e-06 -1.4005e-07 0 1.082e-06 -6.99145e-08 0 1.1599e-06 3.52594e-08 0 1.23773e-06 1.93739e-07 0 1.31121e-06 4.30536e-07 0 1.36944e-06 7.89102e-07 0 1.381e-06 1.35293e-06 0 1.23476e-06 2.30903e-06 0 3.37867e-07 4.1625e-06 0 -5.6654e-06 5.39822e-06 0 0 -1.48547e-07 0 2.92399e-08 -1.49085e-07 0 5.86832e-08 -1.50508e-07 0 8.8529e-08 -1.5288e-07 0 1.18986e-07 -1.56255e-07 0 1.50258e-07 -1.605e-07 0 1.82553e-07 -1.65729e-07 0 2.16088e-07 -1.71849e-07 0 2.51076e-07 -1.78774e-07 0 2.87739e-07 -1.86598e-07 0 3.26303e-07 -1.95082e-07 0 3.66993e-07 -2.04153e-07 0 4.10046e-07 -2.13646e-07 0 4.55694e-07 -2.23269e-07 0 5.04173e-07 -2.32644e-07 0 5.55728e-07 -2.41272e-07 0 6.10596e-07 -2.48552e-07 0 6.69024e-07 -2.53076e-07 0 7.31266e-07 -2.53987e-07 0 7.97584e-07 -2.49093e-07 0 8.68277e-07 -2.35328e-07 0 9.4368e-07 -2.10304e-07 0 1.0242e-06 -1.66415e-07 0 1.11035e-06 -9.76408e-08 0 1.20271e-06 6.26864e-09 0 1.30183e-06 1.63866e-07 0 1.40775e-06 4.00968e-07 0 1.51845e-06 7.63458e-07 0 1.62447e-06 1.34323e-06 0 1.68489e-06 2.36586e-06 0 1.42244e-06 4.67117e-06 0 -7.88164e-06 1.09837e-05 0 0 -1.58225e-07 0 2.89096e-08 -1.58801e-07 0 5.80229e-08 -1.60325e-07 0 8.75398e-08 -1.62864e-07 0 1.17669e-07 -1.66479e-07 0 1.48618e-07 -1.71029e-07 0 1.80596e-07 -1.76638e-07 0 2.13824e-07 -1.83209e-07 0 2.4852e-07 -1.90654e-07 0 2.84915e-07 -1.99083e-07 0 3.23247e-07 -2.08244e-07 0 3.63755e-07 -2.18072e-07 0 4.06699e-07 -2.28408e-07 0 4.52342e-07 -2.38953e-07 0 5.00961e-07 -2.49343e-07 0 5.52858e-07 -2.59076e-07 0 6.08349e-07 -2.67551e-07 0 6.67792e-07 -2.73386e-07 0 7.3159e-07 -2.75715e-07 0 8.00214e-07 -2.72374e-07 0 8.74264e-07 -2.60331e-07 0 9.54496e-07 -2.37221e-07 0 1.04193e-06 -1.95542e-07 0 1.13801e-06 -1.29348e-07 0 1.24476e-06 -2.85107e-08 0 1.36515e-06 1.25332e-07 0 1.5037e-06 3.57845e-07 0 1.66776e-06 7.14832e-07 0 1.87186e-06 1.28842e-06 0 2.15781e-06 2.30582e-06 0 2.76176e-06 4.63528e-06 0 4.26491e-05 2.50246e-05 0 </DataArray> 
</PointData> 
<Points> 
<DataArray type="Float32" NumberOfComponents="3"> 