<?xml version="1.0"?> 
<VTKFile type="StructuredGrid" version="0.1"> 
<StructuredGrid WholeExtent="0 31 0 31 0 0"> 
<Piece Extent="0 31 0 31 0 0"> 
<PointData>
<DataArray type="Float32" Name="B" format="ascii" NumberOfComponents="3"> 
-5.97203e-05 7.19025e-05 0 -0.000108868 -2.82889e-07 0 -0.000113504 1.93154e-07 0 -0.000125013 3.35134e-07 0 -0.00013926 3.99128e-07 0 -0.000154859 4.25791e-07 0 -0.000170771 4.25278e-07 0 -0.000186082 4.03247e-07 0 -0.000200097 3.6567e-07 0 -0.000212388 3.19028e-07 0 -0.000222772 2.68166e-07 0 -0.00023123 2.16472e-07 0 -0.00023783 1.65768e-07 0 -0.000242666 1.1673e-07 0 -0.000245833 6.92934e-08 0 -0.000247398 2.29657e-08 0 -0.000247398 -2.29657e-08 0 -0.000245833 -6.92934e-08 0 -0.000242666 -1.1673e-07 0 -0.00023783 -1.65768e-07 0 -0.00023123 -2.16472e-07 0 -0.000222772 -2.68166e-07 0 -0.000212388 -3.19028e-07 0 -0.000200097 -3.6567e-07 0 -0.000186082 -4.03247e-07 0 -0.000170771 -4.25278e-07 0 -0.000154859 -4.25791e-07 0 -0.00013926 -3.99128e-07 0 -0.000125013 -3.35134e-07 0 -0.000113504 -1.93154e-07 0 -0.000108868 2.82889e-07 0 -5.97203e-05 -7.19025e-05 0 3.24527e-07 1.14236e-05 0 -1.97364e-06 5.55865e-08 0 -2.0097e-06 -1.30427e-08 0 -2.18417e-06 -1.95733e-08 0 -2.41057e-06 -2.27284e-08 0 -2.66139e-06 -2.40473e-08 0 -2.91865e-06 -2.38663e-08 0 -3.16766e-06 -2.24539e-08 0 -3.39722e-06 -2.01768e-08 0 -3.60015e-06 -1.74393e-08 0 -3.77295e-06 -1.45327e-08 0 -3.91468e-06 -1.16447e-08 0 -4.02591e-06 -8.86441e-09 0 -4.10781e-06 -6.2146e-09 0 -4.16159e-06 -3.67837e-09 0 -4.18823e-06 -1.21733e-09 0 -4.18823e-06 1.21733e-09 0 -4.16159e-06 3.67837e-09 0 -4.10781e-06 6.2146e-09 0 -4.02591e-06 8.86441e-09 0 -3.91468e-06 1.16447e-08 0 -3.77295e-06 1.45327e-08 0 -3.60015e-06 1.74393e-08 0 -3.39722e-06 2.01768e-08 0 -3.16766e-06 2.24539e-08 0 -2.91865e-06 2.38663e-08 0 -2.66139e-06 2.40473e-08 0 -2.41057e-06 2.27284e-08 0 -2.18417e-06 1.95733e-08 0 -2.0097e-06 1.30427e-08 0 -1.97364e-06 -5.55865e-08 0 3.24527e-07 -1.14236e-05 0 1.7853e-06 -7.656e-06 0 4.3123e-08 3.62209e-08 0 4.46348e-08 1.00929e-10 0 4.88189e-08 1.5143e-10 0 5.41199e-08 1.73907e-10 0 5.99581e-08 1.83331e-10 0 6.59296e-08 1.81443e-10 0 7.1693e-08 1.70113e-10 0 7.69873e-08 1.52236e-10 0 8.16493e-08 1.31022e-10 0 8.56039e-08 1.08752e-10 0 8.88366e-08 8.68415e-11 0 9.13663e-08 6.5924e-11 0 9.32247e-08 4.61217e-11 0 9.44433e-08 2.72615e-11 0 9.50462e-08 9.01573e-12 0 9.50462e-08 -9.01573e-12 0 9.44433e-08 -2.72615e-11 0 9.32247e-08 -4.61217e-11 0 9.13663e-08 -6.5924e-11 0 8.88366e-08 -8.68415e-11 0 8.56039e-08 -1.08752e-10 0 8.16493e-08 -1.31022e-10 0 7.69873e-08 -1.52236e-10 0 7.1693e-08 -1.70113e-10 0 6.59296e-08 -1.81443e-10 0 5.99581e-08 -1.83331e-10 0 5.41199e-08 -1.73907e-10 0 4.88189e-08 -1.5143e-10 0 4.46348e-08 -1.00929e-10 0 4.3123e-08 -3.62209e-08 0 1.7853e-06 7.656e-06 0 1.72081e-06 -1.21952e-05 0 -2.40308e-10 2.87561e-08 0 -1.16532e-10 -3.05666e-12 0 -1.2986e-10 1.97088e-12 0 -1.46002e-10 2.31095e-12 0 -1.63494e-10 2.45267e-12 0 -1.81248e-10 2.44001e-12 0 -1.98245e-10 2.30239e-12 0 -2.13703e-10 2.07604e-12 0 -2.27163e-10 1.8007e-12 0 -2.38456e-10 1.50546e-12 0 -2.47595e-10 1.20963e-12 0 -2.54687e-10 9.22855e-13 0 -2.59863e-10 6.48051e-13 0 -2.63241e-10 3.83991e-13 0 -2.64908e-10 1.27148e-13 0 -2.64908e-10 -1.27148e-13 0 -2.63241e-10 -3.83991e-13 0 -2.59863e-10 -6.48051e-13 0 -2.54687e-10 -9.22855e-13 0 -2.47595e-10 -1.20963e-12 0 -2.38456e-10 -1.50546e-12 0 -2.27163e-10 -1.8007e-12 0 -2.13703e-10 -2.07604e-12 0 -1.98245e-10 -2.30239e-12 0 -1.81248e-10 -2.44001e-12 0 -1.63494e-10 -2.45267e-12 0 -1.46002e-10 -2.31095e-12 0 -1.2986e-10 -1.97088e-12 0 -1.16532e-10 3.05666e-12 0 -2.40308e-10 -2.87561e-08 0 1.72081e-06 1.21952e-05 0 1.44538e-06 -1.24053e-05 0 -9.53034e-11 2.33843e-08 0 -7.29879e-12 -3.36524e-12 0 -7.75632e-12 -4.88867e-14 0 -8.57693e-12 -5.69994e-14 0 -9.48393e-12 -6.02642e-14 0 -1.04131e-11 -5.97807e-14 0 -1.13114e-11 -5.62087e-14 0 -1.21382e-11 -5.04722e-14 0 -1.28679e-11 -4.35912e-14 0 -1.34882e-11 -3.62998e-14 0 -1.39962e-11 -2.90677e-14 0 -1.43944e-11 -2.21161e-14 0 -1.46873e-11 -1.5499e-14 0 -1.48795e-11 -9.17133e-15 0 -1.49747e-11 -3.03478e-15 0 -1.49747e-11 3.03478e-15 0 -1.48795e-11 9.17133e-15 0 -1.46873e-11 1.5499e-14 0 -1.43944e-11 2.21161e-14 0 -1.39962e-11 2.90677e-14 0 -1.34882e-11 3.62998e-14 0 -1.28679e-11 4.35912e-14 0 -1.21382e-11 5.04722e-14 0 -1.13114e-11 5.62087e-14 0 -1.04131e-11 5.97807e-14 0 -9.48393e-12 6.02642e-14 0 -8.57693e-12 5.69994e-14 0 -7.75632e-12 4.88867e-14 0 -7.29879e-12 3.36524e-12 0 -9.53034e-11 -2.33843e-08 0 1.44538e-06 1.24053e-05 0 1.19616e-06 -1.1386e-05 0 -6.46199e-11 1.93258e-08 0 -3.64523e-14 -2.68188e-12 0 1.06026e-13 4.26255e-16 0 1.17766e-13 1.95494e-16 0 1.30586e-13 2.07313e-16 0 1.43691e-13 2.04321e-16 0 1.5633e-13 1.90562e-16 0 1.6793e-13 1.6948e-16 0 1.78135e-13 1.44924e-16 0 1.86783e-13 1.19564e-16 0 1.93846e-13 9.4975e-17 0 1.99369e-13 7.17928e-17 0 2.03425e-13 5.00679e-17 0 2.06083e-13 2.95314e-17 0 2.07398e-13 9.75604e-18 0 2.07398e-13 -9.75604e-18 0 2.06083e-13 -2.95314e-17 0 2.03425e-13 -5.00679e-17 0 1.99369e-13 -7.17928e-17 0 1.93846e-13 -9.4975e-17 0 1.86783e-13 -1.19564e-16 0 1.78135e-13 -1.44924e-16 0 1.6793e-13 -1.6948e-16 0 1.5633e-13 -1.90562e-16 0 1.43691e-13 -2.04321e-16 0 1.30586e-13 -2.07313e-16 0 1.17766e-13 -1.95494e-16 0 1.06026e-13 -4.26255e-16 0 -3.64523e-14 2.68188e-12 0 -6.46199e-11 -1.93258e-08 0 1.19616e-06 1.1386e-05 0 1.00188e-06 -1.00541e-05 0 -5.0486e-11 1.61171e-08 0 -1.0422e-13 -2.20145e-12 0 1.42188e-16 2.22324e-16 0 2.25711e-16 6.48053e-18 0 2.45185e-16 8.83256e-18 0 2.65517e-16 8.77727e-18 0 2.85535e-16 8.27048e-18 0 3.04368e-16 7.44496e-18 0 3.21382e-16 6.44637e-18 0 3.36169e-16 5.38067e-18 0 3.48513e-16 4.31725e-18 0 3.5834e-16 3.28998e-18 0 3.65653e-16 2.30833e-18 0 3.70493e-16 1.36698e-18 0 3.729e-16 4.52509e-19 0 3.729e-16 -4.52509e-19 0 3.70493e-16 -1.36698e-18 0 3.65653e-16 -2.30833e-18 0 3.5834e-16 -3.28998e-18 0 3.48513e-16 -4.31725e-18 0 3.36169e-16 -5.38067e-18 0 3.21382e-16 -6.44637e-18 0 3.04368e-16 -7.44496e-18 0 2.85535e-16 -8.27048e-18 0 2.65517e-16 -8.77727e-18 0 2.45185e-16 -8.83256e-18 0 2.25711e-16 -6.48053e-18 0 1.42188e-16 -2.22324e-16 0 -1.0422e-13 2.20145e-12 0 -5.0486e-11 -1.61171e-08 0 1.00188e-06 1.00541e-05 0 8.55063e-07 -8.70251e-06 0 -4.12493e-11 1.34837e-08 0 -8.55422e-14 -1.82338e-12 0 -7.78357e-17 1.82899e-16 0 -2.42473e-17 -1.66925e-18 0 -2.68499e-17 -1.34411e-19 0 -2.94973e-17 -1.32812e-19 0 -3.20552e-17 -1.24781e-19 0 -3.44081e-17 -1.11944e-19 0 -3.64829e-17 -9.65914e-20 0 -3.82453e-17 -8.03636e-20 0 -3.96876e-17 -6.43033e-20 0 -4.08174e-17 -4.88946e-20 0 -4.1648e-17 -3.42495e-20 0 -4.2193e-17 -2.02604e-20 0 -4.24627e-17 -6.70312e-21 0 -4.24627e-17 6.70312e-21 0 -4.2193e-17 2.02604e-20 0 -4.1648e-17 3.42495e-20 0 -4.08174e-17 4.88946e-20 0 -3.96876e-17 6.43033e-20 0 -3.82453e-17 8.03636e-20 0 -3.64829e-17 9.65914e-20 0 -3.44081e-17 1.11944e-19 0 -3.20552e-17 1.24781e-19 0 -2.94973e-17 1.32812e-19 0 -2.68499e-17 1.34411e-19 0 -2.42473e-17 1.66925e-18 0 -7.78357e-17 -1.82899e-16 0 -8.55422e-14 1.82338e-12 0 -4.12493e-11 -1.34837e-08 0 8.55063e-07 8.70251e-06 0 7.44821e-07 -7.42166e-06 0 -3.49527e-11 1.12546e-08 0 -7.25754e-14 -1.51196e-12 0 -4.79127e-17 1.54365e-16 0 3.52502e-19 -1.28252e-18 0 3.74951e-19 -5.51948e-22 0 4.12441e-19 -1.86763e-22 0 4.48614e-19 -1.80112e-22 0 4.81829e-19 -1.66355e-22 0 5.11065e-19 -1.47764e-22 0 5.35853e-19 -1.26181e-22 0 5.56106e-19 -1.03181e-22 0 5.7195e-19 -7.98038e-23 0 5.83585e-19 -5.66019e-23 0 5.91214e-19 -3.37572e-23 0 5.94988e-19 -1.12139e-23 0 5.94988e-19 1.12139e-23 0 5.91214e-19 3.37572e-23 0 5.83585e-19 5.66019e-23 0 5.7195e-19 7.98038e-23 0 5.56106e-19 1.03181e-22 0 5.35853e-19 1.26181e-22 0 5.11065e-19 1.47764e-22 0 4.81829e-19 1.66355e-22 0 4.48614e-19 1.80112e-22 0 4.12441e-19 1.86763e-22 0 3.74951e-19 5.51948e-22 0 3.52502e-19 1.28252e-18 0 -4.79127e-17 -1.54365e-16 0 -7.25754e-14 1.51196e-12 0 -3.49527e-11 -1.12546e-08 0 7.44821e-07 7.42166e-06 0 6.61214e-07 -6.23174e-06 0 -3.04655e-11 9.31725e-09 0 -6.33186e-14 -1.24615e-12 0 -4.25143e-17 1.28687e-16 0 1.8579e-20 -1.05875e-18 0 6.84588e-21 -2.99331e-22 0 7.49372e-21 5.12482e-24 0 8.12356e-21 4.51863e-24 0 8.70577e-21 3.83211e-24 0 9.22193e-21 3.10989e-24 0 9.66263e-21 2.4361e-24 0 1.00249e-20 1.84563e-24 0 1.03098e-20 1.34023e-24 0 1.05198e-20 9.05894e-25 0 1.06578e-20 5.2302e-25 0 1.07262e-20 1.70908e-25 0 1.07262e-20 -1.70908e-25 0 1.06578e-20 -5.2302e-25 0 1.05198e-20 -9.05894e-25 0 1.03098e-20 -1.34023e-24 0 1.00249e-20 -1.84563e-24 0 9.66263e-21 -2.4361e-24 0 9.22193e-21 -3.10989e-24 0 8.70577e-21 -3.83211e-24 0 8.12356e-21 -4.51863e-24 0 7.49372e-21 -5.12482e-24 0 6.84588e-21 2.99331e-22 0 1.8579e-20 1.05875e-18 0 -4.25143e-17 -1.28687e-16 0 -6.33186e-14 1.24615e-12 0 -3.04655e-11 -9.31725e-09 0 6.61214e-07 6.23174e-06 0 5.98061e-07 -5.12832e-06 0 -2.72197e-11 7.59435e-09 0 -5.66067e-14 -1.0126e-12 0 -3.82866e-17 1.05391e-16 0 1.12793e-20 -8.61357e-19 0 2.74717e-22 -2.41906e-22 0 2.98533e-22 6.61339e-24 0 3.22951e-22 6.12063e-24 0 3.45622e-22 5.4665e-24 0 3.65814e-22 4.69502e-24 0 3.83131e-22 3.88947e-24 0 3.97423e-22 3.10067e-24 0 4.08694e-22 2.35065e-24 0 4.17024e-22 1.64291e-24 0 4.2251e-22 9.7044e-25 0 4.25231e-22 3.2083e-25 0 4.25231e-22 -3.2083e-25 0 4.2251e-22 -9.7044e-25 0 4.17024e-22 -1.64291e-24 0 4.08694e-22 -2.35065e-24 0 3.97423e-22 -3.10067e-24 0 3.83131e-22 -3.88947e-24 0 3.65814e-22 -4.69502e-24 0 3.45622e-22 -5.4665e-24 0 3.22951e-22 -6.12063e-24 0 2.98533e-22 -6.61339e-24 0 2.74717e-22 2.41906e-22 0 1.12793e-20 8.61357e-19 0 -3.82866e-17 -1.05391e-16 0 -5.66067e-14 1.0126e-12 0 -2.72197e-11 -7.59435e-09 0 5.98061e-07 5.12832e-06 0 5.50668e-07 -4.09882e-06 0 -2.48554e-11 6.02999e-09 0 -5.17097e-14 -8.02301e-13 0 -3.51458e-17 8.39575e-17 0 1.00836e-20 -6.83034e-19 0 2.71621e-23 -1.95716e-22 0 2.84358e-23 1.79591e-24 0 3.07922e-23 1.63139e-24 0 3.29778e-23 1.46275e-24 0 3.49197e-23 1.26139e-24 0 3.65811e-23 1.0489e-24 0 3.79493e-23 8.38878e-25 0 3.90266e-23 6.37614e-25 0 3.98218e-23 4.46502e-25 0 4.0345e-23 2.64079e-25 0 4.06043e-23 8.73615e-26 0 4.06043e-23 -8.73615e-26 0 4.0345e-23 -2.64079e-25 0 3.98218e-23 -4.46502e-25 0 3.90266e-23 -6.37614e-25 0 3.79493e-23 -8.38878e-25 0 3.65811e-23 -1.0489e-24 0 3.49197e-23 -1.26139e-24 0 3.29778e-23 -1.46275e-24 0 3.07922e-23 -1.63139e-24 0 2.84358e-23 -1.79591e-24 0 2.71621e-23 1.95716e-22 0 1.00836e-20 6.83034e-19 0 -3.51458e-17 -8.39575e-17 0 -5.17097e-14 8.02301e-13 0 -2.48554e-11 -6.02999e-09 0 5.50668e-07 4.09882e-06 0 5.15812e-07 -3.12872e-06 0 -2.3152e-11 4.58212e-09 0 -4.81777e-14 -6.08756e-13 0 -3.28536e-17 6.39431e-17 0 9.37073e-21 -5.18555e-19 0 1.0325e-23 -1.49842e-22 0 1.01542e-23 3.28131e-25 0 1.10246e-23 2.66673e-25 0 1.18291e-23 2.39484e-25 0 1.25395e-23 2.06855e-25 0 1.31436e-23 1.72267e-25 0 1.36386e-23 1.37952e-25 0 1.40267e-23 1.04962e-25 0 1.43123e-23 7.35584e-26 0 1.44997e-23 4.35275e-26 0 1.45925e-23 1.44032e-26 0 1.45925e-23 -1.44032e-26 0 1.44997e-23 -4.35275e-26 0 1.43123e-23 -7.35584e-26 0 1.40267e-23 -1.04962e-25 0 1.36386e-23 -1.37952e-25 0 1.31436e-23 -1.72267e-25 0 1.25395e-23 -2.06855e-25 0 1.18291e-23 -2.39484e-25 0 1.10246e-23 -2.66673e-25 0 1.01542e-23 -3.28131e-25 0 1.0325e-23 1.49842e-22 0 9.37073e-21 5.18555e-19 0 -3.28536e-17 -6.39431e-17 0 -4.81777e-14 6.08756e-13 0 -2.3152e-11 -4.58212e-09 0 5.15812e-07 3.12872e-06 0 4.91295e-07 -2.20361e-06 0 -2.19705e-11 3.21758e-09 0 -4.57261e-14 -4.27046e-13 0 -3.12499e-17 4.49694e-17 0 8.88122e-21 -3.63907e-19 0 3.14906e-24 -1.0542e-22 0 2.33849e-24 6.56481e-26 0 2.53617e-24 3.23787e-26 0 2.72109e-24 2.91154e-26 0 2.88441e-24 2.5182e-26 0 3.02333e-24 2.09971e-26 0 3.13717e-24 1.68322e-26 0 3.22643e-24 1.28178e-26 0 3.2921e-24 8.9884e-27 0 3.33522e-24 5.32099e-27 0 3.35656e-24 1.76108e-27 0 3.35656e-24 -1.76108e-27 0 3.33522e-24 -5.32099e-27 0 3.2921e-24 -8.9884e-27 0 3.22643e-24 -1.28178e-26 0 3.13717e-24 -1.68322e-26 0 3.02333e-24 -2.09971e-26 0 2.88441e-24 -2.5182e-26 0 2.72109e-24 -2.91154e-26 0 2.53617e-24 -3.23787e-26 0 2.33849e-24 -6.56481e-26 0 3.14906e-24 1.0542e-22 0 8.88122e-21 3.63907e-19 0 -3.12499e-17 -4.49694e-17 0 -4.57261e-14 4.27046e-13 0 -2.19705e-11 -3.21758e-09 0 4.91295e-07 2.20361e-06 0 4.75662e-07 -1.30986e-06 0 -2.1224e-11 1.90906e-09 0 -4.41764e-14 -2.53221e-13 0 -3.02308e-17 2.67063e-17 0 8.57464e-21 -2.15832e-19 0 1.26741e-24 -6.25778e-23 0 3.11547e-25 2.15509e-26 0 3.34703e-25 2.84379e-27 0 3.58844e-25 2.56184e-27 0 3.80215e-25 2.21982e-27 0 3.98436e-25 1.85405e-27 0 4.13396e-25 1.48843e-27 0 4.25147e-25 1.13475e-27 0 4.33803e-25 7.96418e-28 0 4.39491e-25 4.71732e-28 0 4.42309e-25 1.56172e-28 0 4.42309e-25 -1.56172e-28 0 4.39491e-25 -4.71732e-28 0 4.33803e-25 -7.96418e-28 0 4.25147e-25 -1.13475e-27 0 4.13396e-25 -1.48843e-27 0 3.98436e-25 -1.85405e-27 0 3.80215e-25 -2.21982e-27 0 3.58844e-25 -2.56184e-27 0 3.34703e-25 -2.84379e-27 0 3.11547e-25 -2.15509e-26 0 1.26741e-24 6.25778e-23 0 8.57464e-21 2.15832e-19 0 -3.02308e-17 -2.67063e-17 0 -4.41764e-14 2.53221e-13 0 -2.1224e-11 -1.90906e-09 0 4.75662e-07 1.30986e-06 0 4.68029e-07 -4.34586e-07 0 -2.08614e-11 6.32836e-10 0 -4.34233e-14 -8.39156e-14 0 -2.97341e-17 8.85682e-18 0 8.42636e-21 -7.15331e-20 0 9.73441e-25 -2.07468e-23 0 7.96034e-27 6.29084e-27 0 5.28202e-27 1.40232e-28 0 5.55161e-27 1.26916e-28 0 5.8124e-27 1.10471e-28 0 6.05236e-27 9.26521e-29 0 6.26214e-27 7.46437e-29 0 6.43513e-27 5.70668e-29 0 6.56725e-27 4.01351e-29 0 6.65622e-27 2.38053e-29 0 6.70092e-27 7.88637e-30 0 6.70092e-27 -7.88637e-30 0 6.65622e-27 -2.38053e-29 0 6.56725e-27 -4.01351e-29 0 6.43513e-27 -5.70668e-29 0 6.26214e-27 -7.46437e-29 0 6.05236e-27 -9.26521e-29 0 5.8124e-27 -1.10471e-28 0 5.55161e-27 -1.26916e-28 0 5.28202e-27 -1.40232e-28 0 7.96034e-27 -6.29084e-27 0 9.73441e-25 2.07468e-23 0 8.42636e-21 7.15331e-20 0 -2.97341e-17 -8.85682e-18 0 -4.34233e-14 8.39156e-14 0 -2.08614e-11 -6.32836e-10 0 4.68029e-07 4.34586e-07 0 4.68029e-07 4.34586e-07 0 -2.08614e-11 -6.32836e-10 0 -4.34233e-14 8.39156e-14 0 -2.97341e-17 -8.85682e-18 0 8.42636e-21 7.15331e-20 0 9.73441e-25 2.07468e-23 0 7.96034e-27 -6.29084e-27 0 5.28202e-27 -1.40232e-28 0 5.55161e-27 -1.26916e-28 0 5.8124e-27 -1.10471e-28 0 6.05236e-27 -9.26521e-29 0 6.26214e-27 -7.46437e-29 0 6.43513e-27 -5.70668e-29 0 6.56725e-27 -4.01351e-29 0 6.65622e-27 -2.38053e-29 0 6.70092e-27 -7.88637e-30 0 6.70092e-27 7.88637e-30 0 6.65622e-27 2.38053e-29 0 6.56725e-27 4.01351e-29 0 6.43513e-27 5.70668e-29 0 6.26214e-27 7.46437e-29 0 6.05236e-27 9.26521e-29 0 5.8124e-27 1.10471e-28 0 5.55161e-27 1.26916e-28 0 5.28202e-27 1.40232e-28 0 7.96034e-27 6.29084e-27 0 9.73441e-25 -2.07468e-23 0 8.42636e-21 -7.15331e-20 0 -2.97341e-17 8.85682e-18 0 -4.34233e-14 -8.39156e-14 0 -2.08614e-11 6.32836e-10 0 4.68029e-07 -4.34586e-07 0 4.75662e-07 1.30986e-06 0 -2.1224e-11 -1.90906e-09 0 -4.41764e-14 2.53221e-13 0 -3.02308e-17 -2.67063e-17 0 8.57464e-21 2.15832e-19 0 1.26741e-24 6.25778e-23 0 3.11547e-25 -2.15509e-26 0 3.34703e-25 -2.84379e-27 0 3.58844e-25 -2.56184e-27 0 3.80215e-25 -2.21982e-27 0 3.98436e-25 -1.85405e-27 0 4.13396e-25 -1.48843e-27 0 4.25147e-25 -1.13475e-27 0 4.33803e-25 -7.96418e-28 0 4.39491e-25 -4.71732e-28 0 4.42309e-25 -1.56172e-28 0 4.42309e-25 1.56172e-28 0 4.39491e-25 4.71732e-28 0 4.33803e-25 7.96418e-28 0 4.25147e-25 1.13475e-27 0 4.13396e-25 1.48843e-27 0 3.98436e-25 1.85405e-27 0 3.80215e-25 2.21982e-27 0 3.58844e-25 2.56184e-27 0 3.34703e-25 2.84379e-27 0 3.11547e-25 2.15509e-26 0 1.26741e-24 -6.25778e-23 0 8.57464e-21 -2.15832e-19 0 -3.02308e-17 2.67063e-17 0 -4.41764e-14 -2.53221e-13 0 -2.1224e-11 1.90906e-09 0 4.75662e-07 -1.30986e-06 0 4.91295e-07 2.20361e-06 0 -2.19705e-11 -3.21758e-09 0 -4.57261e-14 4.27046e-13 0 -3.12499e-17 -4.49694e-17 0 8.88122e-21 3.63907e-19 0 3.14906e-24 1.0542e-22 0 2.33849e-24 -6.56481e-26 0 2.53617e-24 -3.23787e-26 0 2.72109e-24 -2.91154e-26 0 2.88441e-24 -2.5182e-26 0 3.02333e-24 -2.09971e-26 0 3.13717e-24 -1.68322e-26 0 3.22643e-24 -1.28178e-26 0 3.2921e-24 -8.9884e-27 0 3.33522e-24 -5.32099e-27 0 3.35656e-24 -1.76108e-27 0 3.35656e-24 1.76108e-27 0 3.33522e-24 5.32099e-27 0 3.2921e-24 8.9884e-27 0 3.22643e-24 1.28178e-26 0 3.13717e-24 1.68322e-26 0 3.02333e-24 2.09971e-26 0 2.88441e-24 2.5182e-26 0 2.72109e-24 2.91154e-26 0 2.53617e-24 3.23787e-26 0 2.33849e-24 6.56481e-26 0 3.14906e-24 -1.0542e-22 0 8.88122e-21 -3.63907e-19 0 -3.12499e-17 4.49694e-17 0 -4.57261e-14 -4.27046e-13 0 -2.19705e-11 3.21758e-09 0 4.91295e-07 -2.20361e-06 0 5.15812e-07 3.12872e-06 0 -2.3152e-11 -4.58212e-09 0 -4.81777e-14 6.08756e-13 0 -3.28536e-17 -6.39431e-17 0 9.37073e-21 5.18555e-19 0 1.0325e-23 1.49842e-22 0 1.01542e-23 -3.28131e-25 0 1.10246e-23 -2.66673e-25 0 1.18291e-23 -2.39484e-25 0 1.25395e-23 -2.06855e-25 0 1.31436e-23 -1.72267e-25 0 1.36386e-23 -1.37952e-25 0 1.40267e-23 -1.04962e-25 0 1.43123e-23 -7.35584e-26 0 1.44997e-23 -4.35275e-26 0 1.45925e-23 -1.44032e-26 0 1.45925e-23 1.44032e-26 0 1.44997e-23 4.35275e-26 0 1.43123e-23 7.35584e-26 0 1.40267e-23 1.04962e-25 0 1.36386e-23 1.37952e-25 0 1.31436e-23 1.72267e-25 0 1.25395e-23 2.06855e-25 0 1.18291e-23 2.39484e-25 0 1.10246e-23 2.66673e-25 0 1.01542e-23 3.28131e-25 0 1.0325e-23 -1.49842e-22 0 9.37073e-21 -5.18555e-19 0 -3.28536e-17 6.39431e-17 0 -4.81777e-14 -6.08756e-13 0 -2.3152e-11 4.58212e-09 0 5.15812e-07 -3.12872e-06 0 5.50668e-07 4.09882e-06 0 -2.48554e-11 -6.02999e-09 0 -5.17097e-14 8.02301e-13 0 -3.51458e-17 -8.39575e-17 0 1.00836e-20 6.83034e-19 0 2.71621e-23 1.95716e-22 0 2.84358e-23 -1.79591e-24 0 3.07922e-23 -1.63139e-24 0 3.29778e-23 -1.46275e-24 0 3.49197e-23 -1.26139e-24 0 3.65811e-23 -1.0489e-24 0 3.79493e-23 -8.38878e-25 0 3.90266e-23 -6.37614e-25 0 3.98218e-23 -4.46502e-25 0 4.0345e-23 -2.64079e-25 0 4.06043e-23 -8.73615e-26 0 4.06043e-23 8.73615e-26 0 4.0345e-23 2.64079e-25 0 3.98218e-23 4.46502e-25 0 3.90266e-23 6.37614e-25 0 3.79493e-23 8.38878e-25 0 3.65811e-23 1.0489e-24 0 3.49197e-23 1.26139e-24 0 3.29778e-23 1.46275e-24 0 3.07922e-23 1.63139e-24 0 2.84358e-23 1.79591e-24 0 2.71621e-23 -1.95716e-22 0 1.00836e-20 -6.83034e-19 0 -3.51458e-17 8.39575e-17 0 -5.17097e-14 -8.02301e-13 0 -2.48554e-11 6.02999e-09 0 5.50668e-07 -4.09882e-06 0 5.98061e-07 5.12832e-06 0 -2.72197e-11 -7.59435e-09 0 -5.66067e-14 1.0126e-12 0 -3.82866e-17 -1.05391e-16 0 1.12793e-20 8.61357e-19 0 2.74717e-22 2.41906e-22 0 2.98533e-22 -6.61339e-24 0 3.22951e-22 -6.12063e-24 0 3.45622e-22 -5.4665e-24 0 3.65814e-22 -4.69502e-24 0 3.83131e-22 -3.88947e-24 0 3.97423e-22 -3.10067e-24 0 4.08694e-22 -2.35065e-24 0 4.17024e-22 -1.64291e-24 0 4.2251e-22 -9.7044e-25 0 4.25231e-22 -3.2083e-25 0 4.25231e-22 3.2083e-25 0 4.2251e-22 9.7044e-25 0 4.17024e-22 1.64291e-24 0 4.08694e-22 2.35065e-24 0 3.97423e-22 3.10067e-24 0 3.83131e-22 3.88947e-24 0 3.65814e-22 4.69502e-24 0 3.45622e-22 5.4665e-24 0 3.22951e-22 6.12063e-24 0 2.98533e-22 6.61339e-24 0 2.74717e-22 -2.41906e-22 0 1.12793e-20 -8.61357e-19 0 -3.82866e-17 1.05391e-16 0 -5.66067e-14 -1.0126e-12 0 -2.72197e-11 7.59435e-09 0 5.98061e-07 -5.12832e-06 0 6.61214e-07 6.23174e-06 0 -3.04655e-11 -9.31725e-09 0 -6.33186e-14 1.24615e-12 0 -4.25143e-17 -1.28687e-16 0 1.8579e-20 1.05875e-18 0 6.84588e-21 2.99331e-22 0 7.49372e-21 -5.12482e-24 0 8.12356e-21 -4.51863e-24 0 8.70577e-21 -3.83211e-24 0 9.22193e-21 -3.10989e-24 0 9.66263e-21 -2.4361e-24 0 1.00249e-20 -1.84563e-24 0 1.03098e-20 -1.34023e-24 0 1.05198e-20 -9.05894e-25 0 1.06578e-20 -5.2302e-25 0 1.07262e-20 -1.70908e-25 0 1.07262e-20 1.70908e-25 0 1.06578e-20 5.2302e-25 0 1.05198e-20 9.05894e-25 0 1.03098e-20 1.34023e-24 0 1.00249e-20 1.84563e-24 0 9.66263e-21 2.4361e-24 0 9.22193e-21 3.10989e-24 0 8.70577e-21 3.83211e-24 0 8.12356e-21 4.51863e-24 0 7.49372e-21 5.12482e-24 0 6.84588e-21 -2.99331e-22 0 1.8579e-20 -1.05875e-18 0 -4.25143e-17 1.28687e-16 0 -6.33186e-14 -1.24615e-12 0 -3.04655e-11 9.31725e-09 0 6.61214e-07 -6.23174e-06 0 7.44821e-07 7.42166e-06 0 -3.49527e-11 -1.12546e-08 0 -7.25754e-14 1.51196e-12 0 -4.79127e-17 -1.54365e-16 0 3.52502e-19 1.28252e-18 0 3.74951e-19 5.51948e-22 0 4.12441e-19 1.86763e-22 0 4.48614e-19 1.80112e-22 0 4.81829e-19 1.66355e-22 0 5.11065e-19 1.47764e-22 0 5.35853e-19 1.26181e-22 0 5.56106e-19 1.03181e-22 0 5.7195e-19 7.98038e-23 0 5.83585e-19 5.66019e-23 0 5.91214e-19 3.37572e-23 0 5.94988e-19 1.12139e-23 0 5.94988e-19 -1.12139e-23 0 5.91214e-19 -3.37572e-23 0 5.83585e-19 -5.66019e-23 0 5.7195e-19 -7.98038e-23 0 5.56106e-19 -1.03181e-22 0 5.35853e-19 -1.26181e-22 0 5.11065e-19 -1.47764e-22 0 4.81829e-19 -1.66355e-22 0 4.48614e-19 -1.80112e-22 0 4.12441e-19 -1.86763e-22 0 3.74951e-19 -5.51948e-22 0 3.52502e-19 -1.28252e-18 0 -4.79127e-17 1.54365e-16 0 -7.25754e-14 -1.51196e-12 0 -3.49527e-11 1.12546e-08 0 7.44821e-07 -7.42166e-06 0 8.55063e-07 8.70251e-06 0 -4.12493e-11 -1.34837e-08 0 -8.55422e-14 1.82338e-12 0 -7.78357e-17 -1.82899e-16 0 -2.42473e-17 1.66925e-18 0 -2.68499e-17 1.34411e-19 0 -2.94973e-17 1.32812e-19 0 -3.20552e-17 1.24781e-19 0 -3.44081e-17 1.11944e-19 0 -3.64829e-17 9.65914e-20 0 -3.82453e-17 8.03636e-20 0 -3.96876e-17 6.43033e-20 0 -4.08174e-17 4.88946e-20 0 -4.1648e-17 3.42495e-20 0 -4.2193e-17 2.02604e-20 0 -4.24627e-17 6.70312e-21 0 -4.24627e-17 -6.70312e-21 0 -4.2193e-17 -2.02604e-20 0 -4.1648e-17 -3.42495e-20 0 -4.08174e-17 -4.88946e-20 0 -3.96876e-17 -6.43033e-20 0 -3.82453e-17 -8.03636e-20 0 -3.64829e-17 -9.65914e-20 0 -3.44081e-17 -1.11944e-19 0 -3.20552e-17 -1.24781e-19 0 -2.94973e-17 -1.32812e-19 0 -2.68499e-17 -1.34411e-19 0 -2.42473e-17 -1.66925e-18 0 -7.78357e-17 1.82899e-16 0 -8.55422e-14 -1.82338e-12 0 -4.12493e-11 1.34837e-08 0 8.55063e-07 -8.70251e-06 0 1.00188e-06 1.00541e-05 0 -5.0486e-11 -1.61171e-08 0 -1.0422e-13 2.20145e-12 0 1.42188e-16 -2.22324e-16 0 2.25711e-16 -6.48053e-18 0 2.45185e-16 -8.83256e-18 0 2.65517e-16 -8.77727e-18 0 2.85535e-16 -8.27048e-18 0 3.04368e-16 -7.44496e-18 0 3.21382e-16 -6.44637e-18 0 3.36169e-16 -5.38067e-18 0 3.48513e-16 -4.31725e-18 0 3.5834e-16 -3.28998e-18 0 3.65653e-16 -2.30833e-18 0 3.70493e-16 -1.36698e-18 0 3.729e-16 -4.52509e-19 0 3.729e-16 4.52509e-19 0 3.70493e-16 1.36698e-18 0 3.65653e-16 2.30833e-18 0 3.5834e-16 3.28998e-18 0 3.48513e-16 4.31725e-18 0 3.36169e-16 5.38067e-18 0 3.21382e-16 6.44637e-18 0 3.04368e-16 7.44496e-18 0 2.85535e-16 8.27048e-18 0 2.65517e-16 8.77727e-18 0 2.45185e-16 8.83256e-18 0 2.25711e-16 6.48053e-18 0 1.42188e-16 2.22324e-16 0 -1.0422e-13 -2.20145e-12 0 -5.0486e-11 1.61171e-08 0 1.00188e-06 -1.00541e-05 0 1.19616e-06 1.1386e-05 0 -6.46199e-11 -1.93258e-08 0 -3.64523e-14 2.68188e-12 0 1.06026e-13 -4.26255e-16 0 1.17766e-13 -1.95494e-16 0 1.30586e-13 -2.07313e-16 0 1.43691e-13 -2.04321e-16 0 1.5633e-13 -1.90562e-16 0 1.6793e-13 -1.6948e-16 0 1.78135e-13 -1.44924e-16 0 1.86783e-13 -1.19564e-16 0 1.93846e-13 -9.4975e-17 0 1.99369e-13 -7.17928e-17 0 2.03425e-13 -5.00679e-17 0 2.06083e-13 -2.95314e-17 0 2.07398e-13 -9.75604e-18 0 2.07398e-13 9.75604e-18 0 2.06083e-13 2.95314e-17 0 2.03425e-13 5.00679e-17 0 1.99369e-13 7.17928e-17 0 1.93846e-13 9.4975e-17 0 1.86783e-13 1.19564e-16 0 1.78135e-13 1.44924e-16 0 1.6793e-13 1.6948e-16 0 1.5633e-13 1.90562e-16 0 1.43691e-13 2.04321e-16 0 1.30586e-13 2.07313e-16 0 1.17766e-13 1.95494e-16 0 1.06026e-13 4.26255e-16 0 -3.64523e-14 -2.68188e-12 0 -6.46199e-11 1.93258e-08 0 1.19616e-06 -1.1386e-05 0 1.44538e-06 1.24053e-05 0 -9.53034e-11 -2.33843e-08 0 -7.29879e-12 3.36524e-12 0 -7.75632e-12 4.88867e-14 0 -8.57693e-12 5.69994e-14 0 -9.48393e-12 6.02642e-14 0 -1.04131e-11 5.97807e-14 0 -1.13114e-11 5.62087e-14 0 -1.21382e-11 5.04722e-14 0 -1.28679e-11 4.35912e-14 0 -1.34882e-11 3.62998e-14 0 -1.39962e-11 2.90677e-14 0 -1.43944e-11 2.21161e-14 0 -1.46873e-11 1.5499e-14 0 -1.48795e-11 9.17133e-15 0 -1.49747e-11 3.03478e-15 0 -1.49747e-11 -3.03478e-15 0 -1.48795e-11 -9.17133e-15 0 -1.46873e-11 -1.5499e-14 0 -1.43944e-11 -2.21161e-14 0 -1.39962e-11 -2.90677e-14 0 -1.34882e-11 -3.62998e-14 0 -1.28679e-11 -4.35912e-14 0 -1.21382e-11 -5.04722e-14 0 -1.13114e-11 -5.62087e-14 0 -1.04131e-11 -5.97807e-14 0 -9.48393e-12 -6.02642e-14 0 -8.57693e-12 -5.69994e-14 0 -7.75632e-12 -4.88867e-14 0 -7.29879e-12 -3.36524e-12 0 -9.53034e-11 2.33843e-08 0 1.44538e-06 -1.24053e-05 0 1.72081e-06 1.21952e-05 0 -2.40308e-10 -2.87561e-08 0 -1.16532e-10 3.05666e-12 0 -1.2986e-10 -1.97088e-12 0 -1.46002e-10 -2.31095e-12 0 -1.63494e-10 -2.45267e-12 0 -1.81248e-10 -2.44001e-12 0 -1.98245e-10 -2.30239e-12 0 -2.13703e-10 -2.07604e-12 0 -2.27163e-10 -1.8007e-12 0 -2.38456e-10 -1.50546e-12 0 -2.47595e-10 -1.20963e-12 0 -2.54687e-10 -9.22855e-13 0 -2.59863e-10 -6.48051e-13 0 -2.63241e-10 -3.83991e-13 0 -2.64908e-10 -1.27148e-13 0 -2.64908e-10 1.27148e-13 0 -2.63241e-10 3.83991e-13 0 -2.59863e-10 6.48051e-13 0 -2.54687e-10 9.22855e-13 0 -2.47595e-10 1.20963e-12 0 -2.38456e-10 1.50546e-12 0 -2.27163e-10 1.8007e-12 0 -2.13703e-10 2.07604e-12 0 -1.98245e-10 2.30239e-12 0 -1.81248e-10 2.44001e-12 0 -1.63494e-10 2.45267e-12 0 -1.46002e-10 2.31095e-12 0 -1.2986e-10 1.97088e-12 0 -1.16532e-10 -3.05666e-12 0 -2.40308e-10 2.87561e-08 0 1.72081e-06 -1.21952e-05 0 1.7853e-06 7.656e-06 0 4.3123e-08 -3.62209e-08 0 4.46348e-08 -1.00929e-10 0 4.88189e-08 -1.5143e-10 0 5.41199e-08 -1.73907e-10 0 5.99581e-08 -1.83331e-10 0 6.59296e-08 -1.81443e-10 0 7.1693e-08 -1.70113e-10 0 7.69873e-08 -1.52236e-10 0 8.16493e-08 -1.31022e-10 0 8.56039e-08 -1.08752e-10 0 8.88366e-08 -8.68415e-11 0 9.13663e-08 -6.5924e-11 0 9.32247e-08 -4.61217e-11 0 9.44433e-08 -2.72615e-11 0 9.50462e-08 -9.01573e-12 0 9.50462e-08 9.01573e-12 0 9.44433e-08 2.72615e-11 0 9.32247e-08 4.61217e-11 0 9.13663e-08 6.5924e-11 0 8.88366e-08 8.68415e-11 0 8.56039e-08 1.08752e-10 0 8.16493e-08 1.31022e-10 0 7.69873e-08 1.52236e-10 0 7.1693e-08 1.70113e-10 0 6.59296e-08 1.81443e-10 0 5.99581e-08 1.83331e-10 0 5.41199e-08 1.73907e-10 0 4.88189e-08 1.5143e-10 0 4.46348e-08 1.00929e-10 0 4.3123e-08 3.62209e-08 0 1.7853e-06 -7.656e-06 0 3.24527e-07 -1.14236e-05 0 -1.97364e-06 -5.55865e-08 0 -2.0097e-06 1.30427e-08 0 -2.18417e-06 1.95733e-08 0 -2.41057e-06 2.27284e-08 0 -2.66139e-06 2.40473e-08 0 -2.91865e-06 2.38663e-08 0 -3.16766e-06 2.24539e-08 0 -3.39722e-06 2.01768e-08 0 -3.60015e-06 1.74393e-08 0 -3.77295e-06 1.45327e-08 0 -3.91468e-06 1.16447e-08 0 -4.02591e-06 8.86441e-09 0 -4.10781e-06 6.2146e-09 0 -4.16159e-06 3.67837e-09 0 -4.18823e-06 1.21733e-09 0 -4.18823e-06 -1.21733e-09 0 -4.16159e-06 -3.67837e-09 0 -4.10781e-06 -6.2146e-09 0 -4.02591e-06 -8.86441e-09 0 -3.91468e-06 -1.16447e-08 0 -3.77295e-06 -1.45327e-08 0 -3.60015e-06 -1.74393e-08 0 -3.39722e-06 -2.01768e-08 0 -3.16766e-06 -2.24539e-08 0 -2.91865e-06 -2.38663e-08 0 -2.66139e-06 -2.40473e-08 0 -2.41057e-06 -2.27284e-08 0 -2.18417e-06 -1.95733e-08 0 -2.0097e-06 -1.30427e-08 0 -1.97364e-06 5.55865e-08 0 3.24527e-07 1.14236e-05 0 -5.97203e-05 -7.19025e-05 0 -0.000108868 2.82889e-07 0 -0.000113504 -1.93154e-07 0 -0.000125013 -3.35134e-07 0 -0.00013926 -3.99128e-07 0 -0.000154859 -4.25791e-07 0 -0.000170771 -4.25278e-07 0 -0.000186082 -4.03247e-07 0 -0.000200097 -3.6567e-07 0 -0.000212388 -3.19028e-07 0 -0.000222772 -2.68166e-07 0 -0.00023123 -2.16472e-07 0 -0.00023783 -1.65768e-07 0 -0.000242666 -1.1673e-07 0 -0.000245833 -6.92934e-08 0 -0.000247398 -2.29657e-08 0 -0.000247398 2.29657e-08 0 -0.000245833 6.92934e-08 0 -0.000242666 1.1673e-07 0 -0.00023783 1.65768e-07 0 -0.00023123 2.16472e-07 0 -0.000222772 2.68166e-07 0 -0.000212388 3.19028e-07 0 -0.000200097 3.6567e-07 0 -0.000186082 4.03247e-07 0 -0.000170771 4.25278e-07 0 -0.000154859 4.25791e-07 0 -0.00013926 3.99128e-07 0 -0.000125013 3.35134e-07 0 -0.000113504 1.93154e-07 0 -0.000108868 -2.82889e-07 0 -5.97203e-05 7.19025e-05 0 </DataArray> 
</PointData> 
<Points> 
<DataArray type="Float32" NumberOfComponents="3"> 