<?xml version="1.0"?> 
<VTKFile type="StructuredGrid" version="0.1"> 
<StructuredGrid WholeExtent="0 31 0 31 0 0"> 
<Piece Extent="0 31 0 31 0 0"> 
<PointData>
<DataArray type="Float32" Name="B" format="ascii" NumberOfComponents="3"> 
0 1.21668e-06 0 2.20814e-07 1.22156e-06 0 4.43276e-07 1.23448e-06 0 6.69004e-07 1.25609e-06 0 8.99699e-07 1.287e-06 0 1.13705e-06 1.32615e-06 0 1.38279e-06 1.37487e-06 0 1.63876e-06 1.43259e-06 0 1.9068e-06 1.49886e-06 0 2.18887e-06 1.57544e-06 0 2.48705e-06 1.66047e-06 0 2.80344e-06 1.75444e-06 0 3.14039e-06 1.85733e-06 0 3.50032e-06 1.96742e-06 0 3.88581e-06 2.08449e-06 0 4.29977e-06 2.20614e-06 0 4.74524e-06 2.32969e-06 0 5.22571e-06 2.45081e-06 0 5.74513e-06 2.5643e-06 0 6.30801e-06 2.66121e-06 0 6.91998e-06 2.72814e-06 0 7.58787e-06 2.75291e-06 0 8.32061e-06 2.7018e-06 0 9.13058e-06 2.54561e-06 0 1.00346e-05 2.23644e-06 0 1.10581e-05 1.68927e-06 0 1.22394e-05 7.88461e-07 0 1.36417e-05 -6.61106e-07 0 1.53816e-05 -3.0193e-06 0 1.77285e-05 -7.0653e-06 0 2.16775e-05 -1.52484e-05 0 6.45024e-05 -5.50266e-05 0 0 1.14272e-06 0 2.23617e-07 1.14729e-06 0 4.48891e-07 1.1594e-06 0 6.7745e-07 1.17964e-06 0 9.11004e-07 1.20859e-06 0 1.15124e-06 1.24526e-06 0 1.39991e-06 1.29086e-06 0 1.65883e-06 1.34485e-06 0 1.92982e-06 1.40682e-06 0 2.21485e-06 1.47834e-06 0 2.51593e-06 1.55768e-06 0 2.83512e-06 1.64522e-06 0 3.17467e-06 1.74089e-06 0 3.53687e-06 1.843e-06 0 3.92413e-06 1.95116e-06 0 4.33908e-06 2.06297e-06 0 4.78441e-06 2.17575e-06 0 5.26309e-06 2.28484e-06 0 5.77833e-06 2.38512e-06 0 6.33365e-06 2.46736e-06 0 6.93318e-06 2.51778e-06 0 7.58171e-06 2.52402e-06 0 8.28517e-06 2.45133e-06 0 9.05142e-06 2.26974e-06 0 9.89064e-06 1.9299e-06 0 1.08172e-05 1.34405e-06 0 1.18508e-05 3.92644e-07 0 1.30186e-05 -1.12642e-06 0 1.43541e-05 -3.58738e-06 0 1.58761e-05 -7.80643e-06 0 1.72965e-05 -1.63494e-05 0 3.55988e-06 -4.14466e-05 0 0 1.06786e-06 0 2.26237e-07 1.07212e-06 0 4.5414e-07 1.08341e-06 0 6.85344e-07 1.10228e-06 0 9.21566e-07 1.12926e-06 0 1.1645e-06 1.16342e-06 0 1.41589e-06 1.2059e-06 0 1.67755e-06 1.25617e-06 0 1.95129e-06 1.31382e-06 0 2.23905e-06 1.3803e-06 0 2.5428e-06 1.45397e-06 0 2.86454e-06 1.53515e-06 0 3.20644e-06 1.62368e-06 0 3.57064e-06 1.71794e-06 0 3.95938e-06 1.8174e-06 0 4.37502e-06 1.9197e-06 0 4.81988e-06 2.02214e-06 0 5.29641e-06 2.11988e-06 0 5.80709e-06 2.2079e-06 0 6.35439e-06 2.27683e-06 0 6.94095e-06 2.3127e-06 0 7.56946e-06 2.30316e-06 0 8.2428e-06 2.21292e-06 0 8.9642e-06 2.0118e-06 0 9.73702e-06 1.6499e-06 0 1.05645e-05 1.03872e-06 0 1.14475e-05 5.84752e-08 0 1.23769e-05 -1.49113e-06 0 1.33047e-05 -3.97262e-06 0 1.40153e-05 -8.13392e-06 0 1.32534e-05 -1.59035e-05 0 3.15994e-07 -2.8265e-05 0 0 9.92148e-07 0 2.28673e-07 9.96099e-07 0 4.5902e-07 1.00656e-06 0 6.92683e-07 1.02406e-06 0 9.31384e-07 1.04907e-06 0 1.17682e-06 1.08072e-06 0 1.43073e-06 1.12006e-06 0 1.69492e-06 1.1666e-06 0 1.97121e-06 1.21994e-06 0 2.26148e-06 1.28139e-06 0 2.56767e-06 1.34943e-06 0 2.89173e-06 1.42429e-06 0 3.23572e-06 1.50577e-06 0 3.60168e-06 1.59232e-06 0 3.99164e-06 1.68331e-06 0 4.40771e-06 1.77641e-06 0 4.85184e-06 1.86898e-06 0 5.32594e-06 1.95605e-06 0 5.83177e-06 2.03277e-06 0 6.37077e-06 2.08975e-06 0 6.94407e-06 2.11306e-06 0 7.55224e-06 2.09049e-06 0 8.19511e-06 1.98681e-06 0 8.87127e-06 1.77206e-06 0 9.57732e-06 1.3968e-06 0 1.03056e-05 7.73688e-07 0 1.10388e-05 -2.13786e-07 0 1.17341e-05 -1.75598e-06 0 1.22733e-05 -4.1812e-06 0 1.22687e-05 -8.09306e-06 0 1.01106e-05 -1.45518e-05 0 -3.91316e-07 -2.12229e-05 0 0 9.15659e-07 0 2.30925e-07 9.19298e-07 0 4.6353e-07 9.28937e-07 0 6.99465e-07 9.45045e-07 0 9.40453e-07 9.68073e-07 0 1.1882e-06 9.97211e-07 0 1.44443e-06 1.03341e-06 0 1.71096e-06 1.07622e-06 0 1.98957e-06 1.12525e-06 0 2.28214e-06 1.1817e-06 0 2.59055e-06 1.24413e-06 0 2.91671e-06 1.31273e-06 0 3.26258e-06 1.38726e-06 0 3.63005e-06 1.46624e-06 0 4.02101e-06 1.54896e-06 0 4.43728e-06 1.63319e-06 0 4.88046e-06 1.71633e-06 0 5.35195e-06 1.79342e-06 0 5.85277e-06 1.85979e-06 0 6.38334e-06 1.90618e-06 0 6.94331e-06 1.91891e-06 0 7.53116e-06 1.88605e-06 0 8.14369e-06 1.773e-06 0 8.77497e-06 1.55051e-06 0 9.41505e-06 1.17047e-06 0 1.00459e-05 5.48492e-07 0 1.06335e-05 -4.25581e-07 0 1.11065e-05 -1.92561e-06 0 1.12935e-05 -4.23031e-06 0 1.07154e-05 -7.76789e-06 0 7.85502e-06 -1.28891e-05 0 -5.11774e-07 -1.67804e-05 0 0 8.38451e-07 0 2.32991e-07 8.41777e-07 0 4.67668e-07 8.50587e-07 0 7.05685e-07 8.65307e-07 0 9.48771e-07 8.86346e-07 0 1.19863e-06 9.12963e-07 0 1.45698e-06 9.46019e-07 0 1.72564e-06 9.85091e-07 0 2.00638e-06 1.02982e-06 0 2.30103e-06 1.08128e-06 0 2.61146e-06 1.13814e-06 0 2.9395e-06 1.20054e-06 0 3.28702e-06 1.2682e-06 0 3.65581e-06 1.33976e-06 0 4.04756e-06 1.41444e-06 0 4.46385e-06 1.4901e-06 0 4.90593e-06 1.56427e-06 0 5.3747e-06 1.63203e-06 0 5.87044e-06 1.68898e-06 0 6.39262e-06 1.72613e-06 0 6.93942e-06 1.73021e-06 0 7.5073e-06 1.68977e-06 0 8.09013e-06 1.57132e-06 0 8.67764e-06 1.34682e-06 0 9.25366e-06 9.70278e-07 0 9.79065e-06 3.61853e-07 0 1.02402e-05 -5.79847e-07 0 1.05083e-05 -2.00772e-06 0 1.03901e-05 -4.14389e-06 0 9.38745e-06 -7.24906e-06 0 6.27142e-06 -1.12269e-05 0 -4.91804e-07 -1.36526e-05 0 0 7.60585e-07 0 2.34871e-07 7.63597e-07 0 4.71433e-07 7.71575e-07 0 7.11345e-07 7.84903e-07 0 9.56337e-07 8.0395e-07 0 1.20811e-06 8.28041e-07 0 1.4684e-06 8.57951e-07 0 1.73899e-06 8.93289e-07 0 2.02164e-06 9.3373e-07 0 2.31818e-06 9.80211e-07 0 2.63041e-06 1.03153e-06 0 2.96012e-06 1.08778e-06 0 3.3091e-06 1.14868e-06 0 3.67901e-06 1.21295e-06 0 4.07139e-06 1.27979e-06 0 4.48755e-06 1.34719e-06 0 4.92843e-06 1.41281e-06 0 5.39443e-06 1.47191e-06 0 5.88517e-06 1.52034e-06 0 6.39916e-06 1.54953e-06 0 6.93317e-06 1.54683e-06 0 7.48175e-06 1.50141e-06 0 8.03598e-06 1.38141e-06 0 8.58149e-06 1.16038e-06 0 9.0964e-06 7.95168e-07 0 9.54471e-06 2.11786e-07 0 9.86603e-06 -6.80709e-07 0 9.95024e-06 -2.01205e-06 0 9.5778e-06 -3.94822e-06 0 8.28121e-06 -6.61302e-06 0 5.15102e-06 -9.68298e-06 0 -4.42258e-07 -1.12804e-05 0 0 6.82124e-07 0 2.36565e-07 6.84821e-07 0 4.74825e-07 6.91964e-07 0 7.16442e-07 7.03897e-07 0 9.63151e-07 7.20948e-07 0 1.21665e-06 7.4251e-07 0 1.47867e-06 7.69271e-07 0 1.751e-06 8.00879e-07 0 2.03537e-06 8.37034e-07 0 2.33358e-06 8.7856e-07 0 2.64742e-06 9.24375e-07 0 2.9786e-06 9.74535e-07 0 3.32885e-06 1.02875e-06 0 3.69972e-06 1.08586e-06 0 4.09257e-06 1.14506e-06 0 4.50851e-06 1.2045e-06 0 4.94814e-06 1.26199e-06 0 5.41141e-06 1.31302e-06 0 5.8973e-06 1.3538e-06 0 6.40344e-06 1.37626e-06 0 6.92527e-06 1.36857e-06 0 7.45553e-06 1.32064e-06 0 7.9827e-06 1.2027e-06 0 8.48863e-06 9.90284e-07 0 8.94629e-06 6.43684e-07 0 9.31239e-06 9.57191e-08 0 9.51717e-06 -7.33147e-07 0 9.44056e-06 -1.94928e-06 0 8.863e-06 -3.66835e-06 0 7.37539e-06 -5.91526e-06 0 4.34556e-06 -8.28401e-06 0 -3.92467e-07 -9.38261e-06 0 0 6.0313e-07 0 2.38069e-07 6.05512e-07 0 4.77837e-07 6.11818e-07 0 7.20969e-07 6.22353e-07 0 9.69201e-07 6.37404e-07 0 1.22423e-06 6.56434e-07 0 1.48779e-06 6.80046e-07 0 1.76165e-06 7.07925e-07 0 2.04753e-06 7.39803e-07 0 2.34723e-06 7.76393e-07 0 2.66247e-06 8.16732e-07 0 2.99495e-06 8.60853e-07 0 3.34629e-06 9.08473e-07 0 3.71795e-06 9.58543e-07 0 4.11116e-06 1.0103e-06 0 4.52679e-06 1.06204e-06 0 4.96517e-06 1.11178e-06 0 5.42583e-06 1.15534e-06 0 5.90715e-06 1.18927e-06 0 6.40592e-06 1.20614e-06 0 6.91639e-06 1.19512e-06 0 7.42961e-06 1.14699e-06 0 7.9317e-06 1.03449e-06 0 8.40109e-06 8.35425e-07 0 8.80623e-06 5.1403e-07 0 9.09776e-06 1.06243e-08 0 9.199e-06 -7.4265e-07 0 8.98528e-06 -1.83017e-06 0 8.24742e-06 -3.32609e-06 0 6.64445e-06 -5.19204e-06 0 3.75868e-06 -7.02168e-06 0 -3.49854e-07 -7.80194e-06 0 0 5.23666e-07 0 2.39388e-07 5.25731e-07 0 4.80479e-07 5.312e-07 0 7.24939e-07 5.40334e-07 0 9.74505e-07 5.53382e-07 0 1.23088e-06 5.69878e-07 0 1.49578e-06 5.90341e-07 0 1.77098e-06 6.14495e-07 0 2.05819e-06 6.42103e-07 0 2.35917e-06 6.73773e-07 0 2.67564e-06 7.08667e-07 0 3.00922e-06 7.46798e-07 0 3.3615e-06 7.87899e-07 0 3.73382e-06 8.31046e-07 0 4.12728e-06 8.75523e-07 0 4.54258e-06 9.19829e-07 0 4.97976e-06 9.62169e-07 0 5.43798e-06 9.98776e-07 0 5.91506e-06 1.02659e-06 0 6.40708e-06 1.03894e-06 0 6.90717e-06 1.02611e-06 0 7.40486e-06 9.79883e-07 0 7.88415e-06 8.75888e-07 0 8.32047e-06 6.9446e-07 0 8.67837e-06 4.04134e-07 0 8.90355e-06 -4.68518e-08 0 8.91459e-06 -7.14928e-07 0 8.58612e-06 -1.6649e-06 0 7.72524e-06 -2.93915e-06 0 6.05741e-06 -4.46497e-06 0 3.322e-06 -5.87656e-06 0 -3.15181e-07 -6.44263e-06 0 0 4.43793e-07 0 2.4052e-07 4.45541e-07 0 4.82744e-07 4.50171e-07 0 7.28342e-07 4.57903e-07 0 9.79052e-07 4.68947e-07 0 1.23657e-06 4.82906e-07 0 1.50262e-06 5.0022e-07 0 1.77897e-06 5.20651e-07 0 2.06731e-06 5.43997e-07 0 2.36939e-06 5.70765e-07 0 2.68689e-06 6.00241e-07 0 3.02142e-06 6.32426e-07 0 3.37447e-06 6.67078e-07 0 3.74733e-06 7.03403e-07 0 4.14097e-06 7.4076e-07 0 4.55592e-06 7.77849e-07 0 4.99199e-06 8.1311e-07 0 5.448e-06 8.43241e-07 0 5.9213e-06 8.656e-07 0 6.40729e-06 8.74375e-07 0 6.89816e-06 8.61101e-07 0 7.38208e-06 8.18659e-07 0 7.84123e-06 7.25892e-07 0 8.24842e-06 5.65872e-07 0 8.56496e-06 3.11698e-07 0 8.7327e-06 -8.02757e-08 0 8.66721e-06 -6.55678e-07 0 8.24518e-06 -1.46266e-06 0 7.2924e-06 -2.52122e-06 0 5.59302e-06 -3.74563e-06 0 2.99652e-06 -4.8275e-06 0 -2.87812e-07 -5.2422e-06 0 0 3.63575e-07 0 2.41463e-07 3.65006e-07 0 4.84633e-07 3.68795e-07 0 7.3118e-07 3.75123e-07 0 9.82843e-07 3.84161e-07 0 1.24132e-06 3.95584e-07 0 1.50833e-06 4.09749e-07 0 1.78563e-06 4.2646e-07 0 2.07491e-06 4.45551e-07 0 2.3779e-06 4.67431e-07 0 2.69626e-06 4.91513e-07 0 3.03155e-06 5.1779e-07 0 3.38524e-06 5.46054e-07 0 3.75853e-06 5.75648e-07 0 4.15229e-06 6.0602e-07 0 4.56691e-06 6.36088e-07 0 5.00199e-06 6.64547e-07 0 5.45608e-06 6.88615e-07 0 5.92611e-06 7.06095e-07 0 6.40691e-06 7.12113e-07 0 6.88985e-06 6.99581e-07 0 7.36199e-06 6.62559e-07 0 7.80391e-06 5.83372e-07 0 8.18628e-06 4.4799e-07 0 8.46777e-06 2.34253e-07 0 8.58734e-06 -9.33323e-08 0 8.45886e-06 -5.70429e-07 0 7.96261e-06 -1.23156e-06 0 6.94279e-06 -2.08243e-06 0 5.23192e-06 -3.03909e-06 0 2.75451e-06 -3.85484e-06 0 -2.66688e-07 -4.15738e-06 0 0 2.83074e-07 0 2.42219e-07 2.84187e-07 0 4.86145e-07 2.87135e-07 0 7.33452e-07 2.92058e-07 0 9.85878e-07 2.99089e-07 0 1.24512e-06 3.07974e-07 0 1.5129e-06 3.1899e-07 0 1.79096e-06 3.31985e-07 0 2.08099e-06 3.46827e-07 0 2.3847e-06 3.63831e-07 0 2.70374e-06 3.82539e-07 0 3.03965e-06 4.02942e-07 0 3.39383e-06 4.2487e-07 0 3.76745e-06 4.47807e-07 0 4.16129e-06 4.71309e-07 0 4.57561e-06 4.94519e-07 0 5.00987e-06 5.16408e-07 0 5.46236e-06 5.3476e-07 0 5.92969e-06 5.47842e-07 0 6.40624e-06 5.51792e-07 0 6.88268e-06 5.40993e-07 0 7.34517e-06 5.10754e-07 0 7.77302e-06 4.47102e-07 0 8.13518e-06 3.39023e-07 0 8.38828e-06 1.69208e-07 0 8.46916e-06 -8.9756e-08 0 8.29092e-06 -4.64452e-07 0 7.73793e-06 -9.78562e-07 0 6.67066e-06 -1.63006e-06 0 4.95914e-06 -2.34642e-06 0 2.57766e-06 -2.94113e-06 0 -2.50861e-07 -3.15654e-06 0 0 2.02353e-07 0 2.42786e-07 2.03148e-07 0 4.87281e-07 2.05254e-07 0 7.35157e-07 2.08771e-07 0 9.88155e-07 2.13794e-07 0 1.24797e-06 2.20141e-07 0 1.51632e-06 2.28009e-07 0 1.79495e-06 2.37289e-07 0 2.08555e-06 2.47887e-07 0 2.3898e-06 2.60025e-07 0 2.70935e-06 2.73376e-07 0 3.04571e-06 2.87931e-07 0 3.40027e-06 3.03564e-07 0 3.77412e-06 3.19904e-07 0 4.16801e-06 3.36625e-07 0 4.58209e-06 3.5311e-07 0 5.01571e-06 3.68611e-07 0 5.46696e-06 3.8152e-07 0 5.93223e-06 3.90588e-07 0 6.40551e-06 3.93013e-07 0 6.87699e-06 3.84731e-07 0 7.33211e-06 3.62352e-07 0 7.74924e-06 3.15775e-07 0 8.09604e-06 2.37082e-07 0 8.32763e-06 1.1388e-07 0 8.37942e-06 -7.3284e-08 0 8.1643e-06 -3.42732e-07 0 7.57036e-06 -7.0963e-07 0 6.47104e-06 -1.16917e-06 0 4.7635e-06 -1.66621e-06 0 2.45382e-06 -2.07105e-06 0 -2.39592e-07 -2.21532e-06 0 0 1.21475e-07 0 2.43164e-07 1.21952e-07 0 4.88038e-07 1.23216e-07 0 7.36296e-07 1.25326e-07 0 9.89676e-07 1.2834e-07 0 1.24988e-06 1.32148e-07 0 1.51861e-06 1.36869e-07 0 1.79762e-06 1.42436e-07 0 2.08859e-06 1.48793e-07 0 2.3932e-06 1.56073e-07 0 2.7131e-06 1.64079e-07 0 3.04975e-06 1.72804e-07 0 3.40455e-06 1.82172e-07 0 3.77856e-06 1.91959e-07 0 4.17247e-06 2.01965e-07 0 4.58639e-06 2.11817e-07 0 5.01956e-06 2.21064e-07 0 5.46999e-06 2.2873e-07 0 5.93384e-06 2.34059e-07 0 6.40492e-06 2.35355e-07 0 6.87304e-06 2.30156e-07 0 7.32318e-06 2.16415e-07 0 7.73307e-06 1.88023e-07 0 8.06952e-06 1.40208e-07 0 8.28668e-06 6.55281e-08 0 8.31904e-06 -4.7632e-08 0 8.07953e-06 -2.09986e-07 0 7.45906e-06 -4.2992e-07 0 6.34002e-06 -7.03236e-07 0 4.6371e-06 -9.95675e-07 0 2.37508e-06 -1.23096e-06 0 -2.3235e-07 -1.31395e-06 0 0 4.0502e-08 0 2.43354e-07 4.06611e-08 0 4.88419e-07 4.10824e-08 0 7.36867e-07 4.1786e-08 0 9.90439e-07 4.27906e-08 0 1.25083e-06 4.406e-08 0 1.51976e-06 4.56336e-08 0 1.79896e-06 4.74893e-08 0 2.09011e-06 4.9608e-08 0 2.39491e-06 5.20342e-08 0 2.71497e-06 5.4702e-08 0 3.05178e-06 5.7609e-08 0 3.4067e-06 6.07296e-08 0 3.78079e-06 6.39889e-08 0 4.17471e-06 6.73199e-08 0 4.58854e-06 7.05976e-08 0 5.02149e-06 7.36709e-08 0 5.47149e-06 7.62126e-08 0 5.93463e-06 7.79702e-08 0 6.40459e-06 7.83756e-08 0 6.87101e-06 7.66045e-08 0 7.31864e-06 7.19717e-08 0 7.72487e-06 6.24332e-08 0 8.0561e-06 4.63951e-08 0 8.26598e-06 2.13753e-08 0 8.2886e-06 -1.64869e-08 0 8.03692e-06 -7.0715e-08 0 7.40339e-06 -1.43985e-07 0 6.27495e-06 -2.34681e-07 0 4.5749e-06 -3.31204e-07 0 2.3367e-06 -4.08398e-07 0 -2.28799e-07 -4.35493e-07 0 0 -4.0502e-08 0 2.43354e-07 -4.06611e-08 0 4.88419e-07 -4.10824e-08 0 7.36867e-07 -4.1786e-08 0 9.90439e-07 -4.27906e-08 0 1.25083e-06 -4.406e-08 0 1.51976e-06 -4.56336e-08 0 1.79896e-06 -4.74893e-08 0 2.09011e-06 -4.9608e-08 0 2.39491e-06 -5.20342e-08 0 2.71497e-06 -5.4702e-08 0 3.05178e-06 -5.7609e-08 0 3.4067e-06 -6.07296e-08 0 3.78079e-06 -6.39889e-08 0 4.17471e-06 -6.73199e-08 0 4.58854e-06 -7.05976e-08 0 5.02149e-06 -7.36709e-08 0 5.47149e-06 -7.62126e-08 0 5.93463e-06 -7.79702e-08 0 6.40459e-06 -7.83756e-08 0 6.87101e-06 -7.66045e-08 0 7.31864e-06 -7.19717e-08 0 7.72487e-06 -6.24332e-08 0 8.0561e-06 -4.63951e-08 0 8.26598e-06 -2.13753e-08 0 8.2886e-06 1.64869e-08 0 8.03692e-06 7.0715e-08 0 7.40339e-06 1.43985e-07 0 6.27495e-06 2.34681e-07 0 4.5749e-06 3.31204e-07 0 2.3367e-06 4.08398e-07 0 -2.28799e-07 4.35493e-07 0 0 -1.21475e-07 0 2.43164e-07 -1.21952e-07 0 4.88038e-07 -1.23216e-07 0 7.36296e-07 -1.25326e-07 0 9.89676e-07 -1.2834e-07 0 1.24988e-06 -1.32148e-07 0 1.51861e-06 -1.36869e-07 0 1.79762e-06 -1.42436e-07 0 2.08859e-06 -1.48793e-07 0 2.3932e-06 -1.56073e-07 0 2.7131e-06 -1.64079e-07 0 3.04975e-06 -1.72804e-07 0 3.40455e-06 -1.82172e-07 0 3.77856e-06 -1.91959e-07 0 4.17247e-06 -2.01965e-07 0 4.58639e-06 -2.11817e-07 0 5.01956e-06 -2.21064e-07 0 5.46999e-06 -2.2873e-07 0 5.93384e-06 -2.34059e-07 0 6.40492e-06 -2.35355e-07 0 6.87304e-06 -2.30156e-07 0 7.32318e-06 -2.16415e-07 0 7.73307e-06 -1.88023e-07 0 8.06952e-06 -1.40208e-07 0 8.28668e-06 -6.55281e-08 0 8.31904e-06 4.7632e-08 0 8.07953e-06 2.09986e-07 0 7.45906e-06 4.2992e-07 0 6.34002e-06 7.03236e-07 0 4.6371e-06 9.95675e-07 0 2.37508e-06 1.23096e-06 0 -2.3235e-07 1.31395e-06 0 0 -2.02353e-07 0 2.42786e-07 -2.03148e-07 0 4.87281e-07 -2.05254e-07 0 7.35157e-07 -2.08771e-07 0 9.88155e-07 -2.13794e-07 0 1.24797e-06 -2.20141e-07 0 1.51632e-06 -2.28009e-07 0 1.79495e-06 -2.37289e-07 0 2.08555e-06 -2.47887e-07 0 2.3898e-06 -2.60025e-07 0 2.70935e-06 -2.73376e-07 0 3.04571e-06 -2.87931e-07 0 3.40027e-06 -3.03564e-07 0 3.77412e-06 -3.19904e-07 0 4.16801e-06 -3.36625e-07 0 4.58209e-06 -3.5311e-07 0 5.01571e-06 -3.68611e-07 0 5.46696e-06 -3.8152e-07 0 5.93223e-06 -3.90588e-07 0 6.40551e-06 -3.93013e-07 0 6.87699e-06 -3.84731e-07 0 7.33211e-06 -3.62352e-07 0 7.74924e-06 -3.15775e-07 0 8.09604e-06 -2.37082e-07 0 8.32763e-06 -1.1388e-07 0 8.37942e-06 7.3284e-08 0 8.1643e-06 3.42732e-07 0 7.57036e-06 7.0963e-07 0 6.47104e-06 1.16917e-06 0 4.7635e-06 1.66621e-06 0 2.45382e-06 2.07105e-06 0 -2.39592e-07 2.21532e-06 0 0 -2.83074e-07 0 2.42219e-07 -2.84187e-07 0 4.86145e-07 -2.87135e-07 0 7.33452e-07 -2.92058e-07 0 9.85878e-07 -2.99089e-07 0 1.24512e-06 -3.07974e-07 0 1.5129e-06 -3.1899e-07 0 1.79096e-06 -3.31985e-07 0 2.08099e-06 -3.46827e-07 0 2.3847e-06 -3.63831e-07 0 2.70374e-06 -3.82539e-07 0 3.03965e-06 -4.02942e-07 0 3.39383e-06 -4.2487e-07 0 3.76745e-06 -4.47807e-07 0 4.16129e-06 -4.71309e-07 0 4.57561e-06 -4.94519e-07 0 5.00987e-06 -5.16408e-07 0 5.46236e-06 -5.3476e-07 0 5.92969e-06 -5.47842e-07 0 6.40624e-06 -5.51792e-07 0 6.88268e-06 -5.40993e-07 0 7.34517e-06 -5.10754e-07 0 7.77302e-06 -4.47102e-07 0 8.13518e-06 -3.39023e-07 0 8.38828e-06 -1.69208e-07 0 8.46916e-06 8.9756e-08 0 8.29092e-06 4.64452e-07 0 7.73793e-06 9.78562e-07 0 6.67066e-06 1.63006e-06 0 4.95914e-06 2.34642e-06 0 2.57766e-06 2.94113e-06 0 -2.50861e-07 3.15654e-06 0 0 -3.63575e-07 0 2.41463e-07 -3.65006e-07 0 4.84633e-07 -3.68795e-07 0 7.3118e-07 -3.75123e-07 0 9.82843e-07 -3.84161e-07 0 1.24132e-06 -3.95584e-07 0 1.50833e-06 -4.09749e-07 0 1.78563e-06 -4.2646e-07 0 2.07491e-06 -4.45551e-07 0 2.3779e-06 -4.67431e-07 0 2.69626e-06 -4.91513e-07 0 3.03155e-06 -5.1779e-07 0 3.38524e-06 -5.46054e-07 0 3.75853e-06 -5.75648e-07 0 4.15229e-06 -6.0602e-07 0 4.56691e-06 -6.36088e-07 0 5.00199e-06 -6.64547e-07 0 5.45608e-06 -6.88615e-07 0 5.92611e-06 -7.06095e-07 0 6.40691e-06 -7.12113e-07 0 6.88985e-06 -6.99581e-07 0 7.36199e-06 -6.62559e-07 0 7.80391e-06 -5.83372e-07 0 8.18628e-06 -4.4799e-07 0 8.46777e-06 -2.34253e-07 0 8.58734e-06 9.33323e-08 0 8.45886e-06 5.70429e-07 0 7.96261e-06 1.23156e-06 0 6.94279e-06 2.08243e-06 0 5.23192e-06 3.03909e-06 0 2.75451e-06 3.85484e-06 0 -2.66688e-07 4.15738e-06 0 0 -4.43793e-07 0 2.4052e-07 -4.45541e-07 0 4.82744e-07 -4.50171e-07 0 7.28342e-07 -4.57903e-07 0 9.79052e-07 -4.68947e-07 0 1.23657e-06 -4.82906e-07 0 1.50262e-06 -5.0022e-07 0 1.77897e-06 -5.20651e-07 0 2.06731e-06 -5.43997e-07 0 2.36939e-06 -5.70765e-07 0 2.68689e-06 -6.00241e-07 0 3.02142e-06 -6.32426e-07 0 3.37447e-06 -6.67078e-07 0 3.74733e-06 -7.03403e-07 0 4.14097e-06 -7.4076e-07 0 4.55592e-06 -7.77849e-07 0 4.99199e-06 -8.1311e-07 0 5.448e-06 -8.43241e-07 0 5.9213e-06 -8.656e-07 0 6.40729e-06 -8.74375e-07 0 6.89816e-06 -8.61101e-07 0 7.38208e-06 -8.18659e-07 0 7.84123e-06 -7.25892e-07 0 8.24842e-06 -5.65872e-07 0 8.56496e-06 -3.11698e-07 0 8.7327e-06 8.02757e-08 0 8.66721e-06 6.55678e-07 0 8.24518e-06 1.46266e-06 0 7.2924e-06 2.52122e-06 0 5.59302e-06 3.74563e-06 0 2.99652e-06 4.8275e-06 0 -2.87812e-07 5.2422e-06 0 0 -5.23666e-07 0 2.39388e-07 -5.25731e-07 0 4.80479e-07 -5.312e-07 0 7.24939e-07 -5.40334e-07 0 9.74505e-07 -5.53382e-07 0 1.23088e-06 -5.69878e-07 0 1.49578e-06 -5.90341e-07 0 1.77098e-06 -6.14495e-07 0 2.05819e-06 -6.42103e-07 0 2.35917e-06 -6.73773e-07 0 2.67564e-06 -7.08667e-07 0 3.00922e-06 -7.46798e-07 0 3.3615e-06 -7.87899e-07 0 3.73382e-06 -8.31046e-07 0 4.12728e-06 -8.75523e-07 0 4.54258e-06 -9.19829e-07 0 4.97976e-06 -9.62169e-07 0 5.43798e-06 -9.98776e-07 0 5.91506e-06 -1.02659e-06 0 6.40708e-06 -1.03894e-06 0 6.90717e-06 -1.02611e-06 0 7.40486e-06 -9.79883e-07 0 7.88415e-06 -8.75888e-07 0 8.32047e-06 -6.9446e-07 0 8.67837e-06 -4.04134e-07 0 8.90355e-06 4.68518e-08 0 8.91459e-06 7.14928e-07 0 8.58612e-06 1.6649e-06 0 7.72524e-06 2.93915e-06 0 6.05741e-06 4.46497e-06 0 3.322e-06 5.87656e-06 0 -3.15181e-07 6.44263e-06 0 0 -6.0313e-07 0 2.38069e-07 -6.05512e-07 0 4.77837e-07 -6.11818e-07 0 7.20969e-07 -6.22353e-07 0 9.69201e-07 -6.37404e-07 0 1.22423e-06 -6.56434e-07 0 1.48779e-06 -6.80046e-07 0 1.76165e-06 -7.07925e-07 0 2.04753e-06 -7.39803e-07 0 2.34723e-06 -7.76393e-07 0 2.66247e-06 -8.16732e-07 0 2.99495e-06 -8.60853e-07 0 3.34629e-06 -9.08473e-07 0 3.71795e-06 -9.58543e-07 0 4.11116e-06 -1.0103e-06 0 4.52679e-06 -1.06204e-06 0 4.96517e-06 -1.11178e-06 0 5.42583e-06 -1.15534e-06 0 5.90715e-06 -1.18927e-06 0 6.40592e-06 -1.20614e-06 0 6.91639e-06 -1.19512e-06 0 7.42961e-06 -1.14699e-06 0 7.9317e-06 -1.03449e-06 0 8.40109e-06 -8.35425e-07 0 8.80623e-06 -5.1403e-07 0 9.09776e-06 -1.06243e-08 0 9.199e-06 7.4265e-07 0 8.98528e-06 1.83017e-06 0 8.24742e-06 3.32609e-06 0 6.64445e-06 5.19204e-06 0 3.75868e-06 7.02168e-06 0 -3.49854e-07 7.80194e-06 0 0 -6.82124e-07 0 2.36565e-07 -6.84821e-07 0 4.74825e-07 -6.91964e-07 0 7.16442e-07 -7.03897e-07 0 9.63151e-07 -7.20948e-07 0 1.21665e-06 -7.4251e-07 0 1.47867e-06 -7.69271e-07 0 1.751e-06 -8.00879e-07 0 2.03537e-06 -8.37034e-07 0 2.33358e-06 -8.7856e-07 0 2.64742e-06 -9.24375e-07 0 2.9786e-06 -9.74535e-07 0 3.32885e-06 -1.02875e-06 0 3.69972e-06 -1.08586e-06 0 4.09257e-06 -1.14506e-06 0 4.50851e-06 -1.2045e-06 0 4.94814e-06 -1.26199e-06 0 5.41141e-06 -1.31302e-06 0 5.8973e-06 -1.3538e-06 0 6.40344e-06 -1.37626e-06 0 6.92527e-06 -1.36857e-06 0 7.45553e-06 -1.32064e-06 0 7.9827e-06 -1.2027e-06 0 8.48863e-06 -9.90284e-07 0 8.94629e-06 -6.43684e-07 0 9.31239e-06 -9.57191e-08 0 9.51717e-06 7.33147e-07 0 9.44056e-06 1.94928e-06 0 8.863e-06 3.66835e-06 0 7.37539e-06 5.91526e-06 0 4.34556e-06 8.28401e-06 0 -3.92467e-07 9.38261e-06 0 0 -7.60585e-07 0 2.34871e-07 -7.63597e-07 0 4.71433e-07 -7.71575e-07 0 7.11345e-07 -7.84903e-07 0 9.56337e-07 -8.0395e-07 0 1.20811e-06 -8.28041e-07 0 1.4684e-06 -8.57951e-07 0 1.73899e-06 -8.93289e-07 0 2.02164e-06 -9.3373e-07 0 2.31818e-06 -9.80211e-07 0 2.63041e-06 -1.03153e-06 0 2.96012e-06 -1.08778e-06 0 3.3091e-06 -1.14868e-06 0 3.67901e-06 -1.21295e-06 0 4.07139e-06 -1.27979e-06 0 4.48755e-06 -1.34719e-06 0 4.92843e-06 -1.41281e-06 0 5.39443e-06 -1.47191e-06 0 5.88517e-06 -1.52034e-06 0 6.39916e-06 -1.54953e-06 0 6.93317e-06 -1.54683e-06 0 7.48175e-06 -1.50141e-06 0 8.03598e-06 -1.38141e-06 0 8.58149e-06 -1.16038e-06 0 9.0964e-06 -7.95168e-07 0 9.54471e-06 -2.11786e-07 0 9.86603e-06 6.80709e-07 0 9.95024e-06 2.01205e-06 0 9.5778e-06 3.94822e-06 0 8.28121e-06 6.61302e-06 0 5.15102e-06 9.68298e-06 0 -4.42258e-07 1.12804e-05 0 0 -8.38451e-07 0 2.32991e-07 -8.41777e-07 0 4.67668e-07 -8.50587e-07 0 7.05685e-07 -8.65307e-07 0 9.48771e-07 -8.86346e-07 0 1.19863e-06 -9.12963e-07 0 1.45698e-06 -9.46019e-07 0 1.72564e-06 -9.85091e-07 0 2.00638e-06 -1.02982e-06 0 2.30103e-06 -1.08128e-06 0 2.61146e-06 -1.13814e-06 0 2.9395e-06 -1.20054e-06 0 3.28702e-06 -1.2682e-06 0 3.65581e-06 -1.33976e-06 0 4.04756e-06 -1.41444e-06 0 4.46385e-06 -1.4901e-06 0 4.90593e-06 -1.56427e-06 0 5.3747e-06 -1.63203e-06 0 5.87044e-06 -1.68898e-06 0 6.39262e-06 -1.72613e-06 0 6.93942e-06 -1.73021e-06 0 7.5073e-06 -1.68977e-06 0 8.09013e-06 -1.57132e-06 0 8.67764e-06 -1.34682e-06 0 9.25366e-06 -9.70278e-07 0 9.79065e-06 -3.61853e-07 0 1.02402e-05 5.79847e-07 0 1.05083e-05 2.00772e-06 0 1.03901e-05 4.14389e-06 0 9.38745e-06 7.24906e-06 0 6.27142e-06 1.12269e-05 0 -4.91804e-07 1.36526e-05 0 0 -9.15659e-07 0 2.30925e-07 -9.19298e-07 0 4.6353e-07 -9.28937e-07 0 6.99465e-07 -9.45045e-07 0 9.40453e-07 -9.68073e-07 0 1.1882e-06 -9.97211e-07 0 1.44443e-06 -1.03341e-06 0 1.71096e-06 -1.07622e-06 0 1.98957e-06 -1.12525e-06 0 2.28214e-06 -1.1817e-06 0 2.59055e-06 -1.24413e-06 0 2.91671e-06 -1.31273e-06 0 3.26258e-06 -1.38726e-06 0 3.63005e-06 -1.46624e-06 0 4.02101e-06 -1.54896e-06 0 4.43728e-06 -1.63319e-06 0 4.88046e-06 -1.71633e-06 0 5.35195e-06 -1.79342e-06 0 5.85277e-06 -1.85979e-06 0 6.38334e-06 -1.90618e-06 0 6.94331e-06 -1.91891e-06 0 7.53116e-06 -1.88605e-06 0 8.14369e-06 -1.773e-06 0 8.77497e-06 -1.55051e-06 0 9.41505e-06 -1.17047e-06 0 1.00459e-05 -5.48492e-07 0 1.06335e-05 4.25581e-07 0 1.11065e-05 1.92561e-06 0 1.12935e-05 4.23031e-06 0 1.07154e-05 7.76789e-06 0 7.85502e-06 1.28891e-05 0 -5.11774e-07 1.67804e-05 0 0 -9.92148e-07 0 2.28673e-07 -9.96099e-07 0 4.5902e-07 -1.00656e-06 0 6.92683e-07 -1.02406e-06 0 9.31384e-07 -1.04907e-06 0 1.17682e-06 -1.08072e-06 0 1.43073e-06 -1.12006e-06 0 1.69492e-06 -1.1666e-06 0 1.97121e-06 -1.21994e-06 0 2.26148e-06 -1.28139e-06 0 2.56767e-06 -1.34943e-06 0 2.89173e-06 -1.42429e-06 0 3.23572e-06 -1.50577e-06 0 3.60168e-06 -1.59232e-06 0 3.99164e-06 -1.68331e-06 0 4.40771e-06 -1.77641e-06 0 4.85184e-06 -1.86898e-06 0 5.32594e-06 -1.95605e-06 0 5.83177e-06 -2.03277e-06 0 6.37077e-06 -2.08975e-06 0 6.94407e-06 -2.11306e-06 0 7.55224e-06 -2.09049e-06 0 8.19511e-06 -1.98681e-06 0 8.87127e-06 -1.77206e-06 0 9.57732e-06 -1.3968e-06 0 1.03056e-05 -7.73688e-07 0 1.10388e-05 2.13786e-07 0 1.17341e-05 1.75598e-06 0 1.22733e-05 4.1812e-06 0 1.22687e-05 8.09306e-06 0 1.01106e-05 1.45518e-05 0 -3.91316e-07 2.12229e-05 0 0 -1.06786e-06 0 2.26237e-07 -1.07212e-06 0 4.5414e-07 -1.08341e-06 0 6.85344e-07 -1.10228e-06 0 9.21566e-07 -1.12926e-06 0 1.1645e-06 -1.16342e-06 0 1.41589e-06 -1.2059e-06 0 1.67755e-06 -1.25617e-06 0 1.95129e-06 -1.31382e-06 0 2.23905e-06 -1.3803e-06 0 2.5428e-06 -1.45397e-06 0 2.86454e-06 -1.53515e-06 0 3.20644e-06 -1.62368e-06 0 3.57064e-06 -1.71794e-06 0 3.95938e-06 -1.8174e-06 0 4.37502e-06 -1.9197e-06 0 4.81988e-06 -2.02214e-06 0 5.29641e-06 -2.11988e-06 0 5.80709e-06 -2.2079e-06 0 6.35439e-06 -2.27683e-06 0 6.94095e-06 -2.3127e-06 0 7.56946e-06 -2.30316e-06 0 8.2428e-06 -2.21292e-06 0 8.9642e-06 -2.0118e-06 0 9.73702e-06 -1.6499e-06 0 1.05645e-05 -1.03872e-06 0 1.14475e-05 -5.84752e-08 0 1.23769e-05 1.49113e-06 0 1.33047e-05 3.97262e-06 0 1.40153e-05 8.13392e-06 0 1.32534e-05 1.59035e-05 0 3.15994e-07 2.8265e-05 0 0 -1.14272e-06 0 2.23617e-07 -1.14729e-06 0 4.48891e-07 -1.1594e-06 0 6.7745e-07 -1.17964e-06 0 9.11004e-07 -1.20859e-06 0 1.15124e-06 -1.24526e-06 0 1.39991e-06 -1.29086e-06 0 1.65883e-06 -1.34485e-06 0 1.92982e-06 -1.40682e-06 0 2.21485e-06 -1.47834e-06 0 2.51593e-06 -1.55768e-06 0 2.83512e-06 -1.64522e-06 0 3.17467e-06 -1.74089e-06 0 3.53687e-06 -1.843e-06 0 3.92413e-06 -1.95116e-06 0 4.33908e-06 -2.06297e-06 0 4.78441e-06 -2.17575e-06 0 5.26309e-06 -2.28484e-06 0 5.77833e-06 -2.38512e-06 0 6.33365e-06 -2.46736e-06 0 6.93318e-06 -2.51778e-06 0 7.58171e-06 -2.52402e-06 0 8.28517e-06 -2.45133e-06 0 9.05142e-06 -2.26974e-06 0 9.89064e-06 -1.9299e-06 0 1.08172e-05 -1.34405e-06 0 1.18508e-05 -3.92644e-07 0 1.30186e-05 1.12642e-06 0 1.43541e-05 3.58738e-06 0 1.58761e-05 7.80643e-06 0 1.72965e-05 1.63494e-05 0 3.55988e-06 4.14466e-05 0 0 -1.21668e-06 0 2.20814e-07 -1.22156e-06 0 4.43276e-07 -1.23448e-06 0 6.69004e-07 -1.25609e-06 0 8.99699e-07 -1.287e-06 0 1.13705e-06 -1.32615e-06 0 1.38279e-06 -1.37487e-06 0 1.63876e-06 -1.43259e-06 0 1.9068e-06 -1.49886e-06 0 2.18887e-06 -1.57544e-06 0 2.48705e-06 -1.66047e-06 0 2.80344e-06 -1.75444e-06 0 3.14039e-06 -1.85733e-06 0 3.50032e-06 -1.96742e-06 0 3.88581e-06 -2.08449e-06 0 4.29977e-06 -2.20614e-06 0 4.74524e-06 -2.32969e-06 0 5.22571e-06 -2.45081e-06 0 5.74513e-06 -2.5643e-06 0 6.30801e-06 -2.66121e-06 0 6.91998e-06 -2.72814e-06 0 7.58787e-06 -2.75291e-06 0 8.32061e-06 -2.7018e-06 0 9.13058e-06 -2.54561e-06 0 1.00346e-05 -2.23644e-06 0 1.10581e-05 -1.68927e-06 0 1.22394e-05 -7.88461e-07 0 1.36417e-05 6.61106e-07 0 1.53816e-05 3.0193e-06 0 1.77285e-05 7.0653e-06 0 2.16775e-05 1.52484e-05 0 6.45024e-05 5.50266e-05 0 </DataArray> 
</PointData> 
<Points> 
<DataArray type="Float32" NumberOfComponents="3"> 