<?xml version="1.0"?> 
<VTKFile type="StructuredGrid" version="0.1"> 
<StructuredGrid WholeExtent="0 31 0 31 0 0"> 
<Piece Extent="0 31 0 31 0 0"> 
<PointData>
<DataArray type="Float32" Name="B" format="ascii" NumberOfComponents="3"> 
2.04283e-05 -0 0 2.1663e-05 -0 0 2.28997e-05 -0 0 2.41268e-05 -0 0 2.53314e-05 -0 0 2.65003e-05 -0 0 2.76197e-05 -0 0 2.86756e-05 -0 0 2.96543e-05 -0 0 3.0543e-05 -0 0 3.13294e-05 -0 0 3.20025e-05 -0 0 3.2553e-05 -0 0 3.29729e-05 -0 0 3.32562e-05 -0 0 3.33989e-05 -0 0 3.33989e-05 -0 0 3.32562e-05 -0 0 3.29729e-05 -0 0 3.2553e-05 -0 0 3.20025e-05 -0 0 3.13294e-05 -0 0 3.0543e-05 -0 0 2.96543e-05 -0 0 2.86756e-05 -0 0 2.76197e-05 -0 0 2.65003e-05 -0 0 2.53314e-05 -0 0 2.41268e-05 -0 0 2.28997e-05 -0 0 2.1663e-05 -0 0 2.04283e-05 -0 0 2.0421e-05 -1.23215e-06 0 2.16617e-05 -1.23992e-06 0 2.2905e-05 -1.23649e-06 0 2.41392e-05 -1.22078e-06 0 2.53515e-05 -1.19194e-06 0 2.65282e-05 -1.14935e-06 0 2.76554e-05 -1.09281e-06 0 2.87189e-05 -1.02238e-06 0 2.97051e-05 -9.38345e-07 0 3.06006e-05 -8.41773e-07 0 3.13932e-05 -7.33553e-07 0 3.20717e-05 -6.15032e-07 0 3.26266e-05 -4.87777e-07 0 3.30499e-05 -3.53535e-07 0 3.33355e-05 -2.14197e-07 0 3.34794e-05 -7.17507e-08 0 3.34794e-05 7.17507e-08 0 3.33355e-05 2.14197e-07 0 3.30499e-05 3.53535e-07 0 3.26266e-05 4.87777e-07 0 3.20717e-05 6.15032e-07 0 3.13932e-05 7.33553e-07 0 3.06006e-05 8.41773e-07 0 2.97051e-05 9.38345e-07 0 2.87189e-05 1.02238e-06 0 2.76554e-05 1.09281e-06 0 2.65282e-05 1.14935e-06 0 2.53515e-05 1.19194e-06 0 2.41392e-05 1.22078e-06 0 2.2905e-05 1.23649e-06 0 2.16617e-05 1.23992e-06 0 2.0421e-05 1.23215e-06 0 2.04012e-05 -2.47435e-06 0 2.16577e-05 -2.49116e-06 0 2.29187e-05 -2.48539e-06 0 2.41719e-05 -2.45484e-06 0 2.54043e-05 -2.39773e-06 0 2.66018e-05 -2.31282e-06 0 2.77499e-05 -2.19965e-06 0 2.88341e-05 -2.05838e-06 0 2.98399e-05 -1.88954e-06 0 3.07537e-05 -1.69531e-06 0 3.15627e-05 -1.47752e-06 0 3.22555e-05 -1.23889e-06 0 3.28222e-05 -9.82602e-07 0 3.32545e-05 -7.12202e-07 0 3.35463e-05 -4.31512e-07 0 3.36932e-05 -1.44547e-07 0 3.36932e-05 1.44547e-07 0 3.35463e-05 4.31512e-07 0 3.32545e-05 7.12202e-07 0 3.28222e-05 9.82602e-07 0 3.22555e-05 1.23889e-06 0 3.15627e-05 1.47752e-06 0 3.07537e-05 1.69531e-06 0 2.98399e-05 1.88954e-06 0 2.88341e-05 2.05838e-06 0 2.77499e-05 2.19965e-06 0 2.66018e-05 2.31282e-06 0 2.54043e-05 2.39773e-06 0 2.41719e-05 2.45484e-06 0 2.29187e-05 2.48539e-06 0 2.16577e-05 2.49116e-06 0 2.04012e-05 2.47435e-06 0 2.0366e-05 -3.73654e-06 0 2.16491e-05 -3.76494e-06 0 2.29398e-05 -3.75905e-06 0 2.42253e-05 -3.7154e-06 0 2.54918e-05 -3.63123e-06 0 2.67245e-05 -3.50454e-06 0 2.79081e-05 -3.33459e-06 0 2.90271e-05 -3.12162e-06 0 3.00662e-05 -2.86641e-06 0 3.1011e-05 -2.57238e-06 0 3.1848e-05 -2.24228e-06 0 3.25649e-05 -1.88036e-06 0 3.31515e-05 -1.49149e-06 0 3.35991e-05 -1.08111e-06 0 3.39012e-05 -6.55042e-07 0 3.40534e-05 -2.19428e-07 0 3.40534e-05 2.19428e-07 0 3.39012e-05 6.55042e-07 0 3.35991e-05 1.08111e-06 0 3.31515e-05 1.49149e-06 0 3.25649e-05 1.88036e-06 0 3.1848e-05 2.24228e-06 0 3.1011e-05 2.57238e-06 0 3.00662e-05 2.86641e-06 0 2.90271e-05 3.12162e-06 0 2.79081e-05 3.33459e-06 0 2.67245e-05 3.50454e-06 0 2.54918e-05 3.63123e-06 0 2.42253e-05 3.7154e-06 0 2.29398e-05 3.75905e-06 0 2.16491e-05 3.76494e-06 0 2.0366e-05 3.73654e-06 0 2.03107e-05 -5.02921e-06 0 2.16324e-05 -5.07323e-06 0 2.29661e-05 -5.07073e-06 0 2.42985e-05 -5.01678e-06 0 2.56148e-05 -4.90745e-06 0 2.6899e-05 -4.73986e-06 0 2.81345e-05 -4.51292e-06 0 2.93045e-05 -4.22692e-06 0 3.03924e-05 -3.88295e-06 0 3.13825e-05 -3.48572e-06 0 3.22602e-05 -3.0391e-06 0 3.30124e-05 -2.54896e-06 0 3.3628e-05 -2.02201e-06 0 3.40978e-05 -1.46573e-06 0 3.44149e-05 -8.88115e-07 0 3.45746e-05 -2.97507e-07 0 3.45746e-05 2.97507e-07 0 3.44149e-05 8.88115e-07 0 3.40978e-05 1.46573e-06 0 3.3628e-05 2.02201e-06 0 3.30124e-05 2.54896e-06 0 3.22602e-05 3.0391e-06 0 3.13825e-05 3.48572e-06 0 3.03924e-05 3.88295e-06 0 2.93045e-05 4.22692e-06 0 2.81345e-05 4.51292e-06 0 2.6899e-05 4.73986e-06 0 2.56148e-05 4.90745e-06 0 2.42985e-05 5.01678e-06 0 2.29661e-05 5.07073e-06 0 2.16324e-05 5.07323e-06 0 2.03107e-05 5.02921e-06 0 2.02333e-05 -6.36288e-06 0 2.16042e-05 -6.4282e-06 0 2.29934e-05 -6.43406e-06 0 2.43865e-05 -6.3738e-06 0 2.57674e-05 -6.24203e-06 0 2.71185e-05 -6.03483e-06 0 2.84216e-05 -5.75064e-06 0 2.96579e-05 -5.38978e-06 0 3.08093e-05 -4.9537e-06 0 3.18582e-05 -4.4486e-06 0 3.27887e-05 -3.87962e-06 0 3.35865e-05 -3.25446e-06 0 3.42396e-05 -2.58192e-06 0 3.4738e-05 -1.8717e-06 0 3.50744e-05 -1.13412e-06 0 3.52439e-05 -3.79919e-07 0 3.52439e-05 3.79919e-07 0 3.50744e-05 1.13412e-06 0 3.4738e-05 1.8717e-06 0 3.42396e-05 2.58192e-06 0 3.35865e-05 3.25446e-06 0 3.27887e-05 3.87962e-06 0 3.18582e-05 4.4486e-06 0 3.08093e-05 4.9537e-06 0 2.96579e-05 5.38978e-06 0 2.84216e-05 5.75064e-06 0 2.71185e-05 6.03483e-06 0 2.57674e-05 6.24203e-06 0 2.43865e-05 6.3738e-06 0 2.29934e-05 6.43406e-06 0 2.16042e-05 6.4282e-06 0 2.02333e-05 6.36288e-06 0 2.01229e-05 -7.74849e-06 0 2.15563e-05 -7.84272e-06 0 2.30163e-05 -7.86366e-06 0 2.44872e-05 -7.8025e-06 0 2.59513e-05 -7.65205e-06 0 2.7389e-05 -7.40704e-06 0 2.87795e-05 -7.06532e-06 0 3.01018e-05 -6.6272e-06 0 3.13351e-05 -6.0946e-06 0 3.246e-05 -5.47546e-06 0 3.34585e-05 -4.77643e-06 0 3.43148e-05 -4.00738e-06 0 3.50157e-05 -3.17949e-06 0 3.55507e-05 -2.30496e-06 0 3.59117e-05 -1.39665e-06 0 3.60935e-05 -4.67861e-07 0 3.60935e-05 4.67861e-07 0 3.59117e-05 1.39665e-06 0 3.55507e-05 2.30496e-06 0 3.50157e-05 3.17949e-06 0 3.43148e-05 4.00738e-06 0 3.34585e-05 4.77643e-06 0 3.246e-05 5.47546e-06 0 3.13351e-05 6.0946e-06 0 3.01018e-05 6.6272e-06 0 2.87795e-05 7.06532e-06 0 2.7389e-05 7.40704e-06 0 2.59513e-05 7.65205e-06 0 2.44872e-05 7.8025e-06 0 2.30163e-05 7.86366e-06 0 2.15563e-05 7.84272e-06 0 2.01229e-05 7.74849e-06 0 1.99729e-05 -9.19774e-06 0 2.14816e-05 -9.33092e-06 0 2.30278e-05 -9.37589e-06 0 2.45943e-05 -9.32111e-06 0 2.61611e-05 -9.15707e-06 0 2.77059e-05 -8.87674e-06 0 2.92049e-05 -8.47719e-06 0 3.06337e-05 -7.95871e-06 0 3.19686e-05 -7.32383e-06 0 3.31871e-05 -6.58262e-06 0 3.42691e-05 -5.74367e-06 0 3.51971e-05 -4.81942e-06 0 3.59565e-05 -3.82386e-06 0 3.65358e-05 -2.77202e-06 0 3.69266e-05 -1.6796e-06 0 3.71234e-05 -5.62631e-07 0 3.71234e-05 5.62631e-07 0 3.69266e-05 1.6796e-06 0 3.65358e-05 2.77202e-06 0 3.59565e-05 3.82386e-06 0 3.51971e-05 4.81942e-06 0 3.42691e-05 5.74367e-06 0 3.31871e-05 6.58262e-06 0 3.19686e-05 7.32383e-06 0 3.06337e-05 7.95871e-06 0 2.92049e-05 8.47719e-06 0 2.77059e-05 8.87674e-06 0 2.61611e-05 9.15707e-06 0 2.45943e-05 9.32111e-06 0 2.30278e-05 9.37589e-06 0 2.14816e-05 9.33092e-06 0 1.99729e-05 9.19774e-06 0 1.97751e-05 -1.07224e-05 0 2.13721e-05 -1.09075e-05 0 2.30204e-05 -1.09882e-05 0 2.47011e-05 -1.09494e-05 0 2.63914e-05 -1.07785e-05 0 2.80655e-05 -1.04662e-05 0 2.96955e-05 -1.00085e-05 0 3.12531e-05 -9.40571e-06 0 3.27103e-05 -8.66118e-06 0 3.40413e-05 -7.78771e-06 0 3.52231e-05 -6.79637e-06 0 3.62362e-05 -5.70285e-06 0 3.70647e-05 -4.52447e-06 0 3.76962e-05 -3.27955e-06 0 3.81219e-05 -1.98692e-06 0 3.83362e-05 -6.65537e-07 0 3.83362e-05 6.65537e-07 0 3.81219e-05 1.98692e-06 0 3.76962e-05 3.27955e-06 0 3.70647e-05 4.52447e-06 0 3.62362e-05 5.70285e-06 0 3.52231e-05 6.79637e-06 0 3.40413e-05 7.78771e-06 0 3.27103e-05 8.66118e-06 0 3.12531e-05 9.40571e-06 0 2.96955e-05 1.00085e-05 0 2.80655e-05 1.04662e-05 0 2.63914e-05 1.07785e-05 0 2.47011e-05 1.09494e-05 0 2.30204e-05 1.09882e-05 0 2.13721e-05 1.09075e-05 0 1.97751e-05 1.07224e-05 0 1.95024e-05 -1.2335e-05 0 2.12041e-05 -1.25888e-05 0 2.29759e-05 -1.27205e-05 0 2.47964e-05 -1.27104e-05 0 2.66394e-05 -1.25418e-05 0 2.84742e-05 -1.22021e-05 0 3.02675e-05 -1.16859e-05 0 3.19851e-05 -1.09936e-05 0 3.35938e-05 -1.01299e-05 0 3.50631e-05 -9.11105e-06 0 3.63667e-05 -7.95158e-06 0 3.74827e-05 -6.67129e-06 0 3.83939e-05 -5.2916e-06 0 3.90875e-05 -3.83468e-06 0 3.95544e-05 -2.32279e-06 0 3.97893e-05 -7.77954e-07 0 3.97893e-05 7.77954e-07 0 3.95544e-05 2.32279e-06 0 3.90875e-05 3.83468e-06 0 3.83939e-05 5.2916e-06 0 3.74827e-05 6.67129e-06 0 3.63667e-05 7.95158e-06 0 3.50631e-05 9.11105e-06 0 3.35938e-05 1.01299e-05 0 3.19851e-05 1.09936e-05 0 3.02675e-05 1.16859e-05 0 2.84742e-05 1.22021e-05 0 2.66394e-05 1.25418e-05 0 2.47964e-05 1.27104e-05 0 2.29759e-05 1.27205e-05 0 2.12041e-05 1.25888e-05 0 1.95024e-05 1.2335e-05 0 1.9149e-05 -1.40485e-05 0 2.097e-05 -1.43926e-05 0 2.28849e-05 -1.45956e-05 0 2.48699e-05 -1.46311e-05 0 2.68943e-05 -1.44768e-05 0 2.89211e-05 -1.4116e-05 0 3.09098e-05 -1.35409e-05 0 3.28185e-05 -1.27523e-05 0 3.46071e-05 -1.17567e-05 0 3.62395e-05 -1.05756e-05 0 3.76852e-05 -9.22802e-06 0 3.892e-05 -7.73929e-06 0 3.99257e-05 -6.13594e-06 0 4.06895e-05 -4.44462e-06 0 4.12028e-05 -2.69134e-06 0 4.14606e-05 -9.01227e-07 0 4.14606e-05 9.01227e-07 0 4.12028e-05 2.69134e-06 0 4.06895e-05 4.44462e-06 0 3.99257e-05 6.13594e-06 0 3.892e-05 7.73929e-06 0 3.76852e-05 9.22802e-06 0 3.62395e-05 1.05756e-05 0 3.46071e-05 1.17567e-05 0 3.28185e-05 1.27523e-05 0 3.09098e-05 1.35409e-05 0 2.89211e-05 1.4116e-05 0 2.68943e-05 1.44768e-05 0 2.48699e-05 1.46311e-05 0 2.28849e-05 1.45956e-05 0 2.097e-05 1.43926e-05 0 1.9149e-05 1.40485e-05 0 1.86847e-05 -1.58754e-05 0 2.06412e-05 -1.63379e-05 0 2.27229e-05 -1.66385e-05 0 2.49033e-05 -1.67423e-05 0 2.71461e-05 -1.6619e-05 0 2.94059e-05 -1.62453e-05 0 3.16322e-05 -1.56108e-05 0 3.37725e-05 -1.47164e-05 0 3.57773e-05 -1.35723e-05 0 3.76032e-05 -1.22067e-05 0 3.92152e-05 -1.06457e-05 0 4.05868e-05 -8.92169e-06 0 4.16997e-05 -7.06788e-06 0 4.2542e-05 -5.1161e-06 0 4.31066e-05 -3.09633e-06 0 4.33897e-05 -1.03655e-06 0 4.33897e-05 1.03655e-06 0 4.31066e-05 3.09633e-06 0 4.2542e-05 5.1161e-06 0 4.16997e-05 7.06788e-06 0 4.05868e-05 8.92169e-06 0 3.92152e-05 1.06457e-05 0 3.76032e-05 1.22067e-05 0 3.57773e-05 1.35723e-05 0 3.37725e-05 1.47164e-05 0 3.16322e-05 1.56108e-05 0 2.94059e-05 1.62453e-05 0 2.71461e-05 1.6619e-05 0 2.49033e-05 1.67423e-05 0 2.27229e-05 1.66385e-05 0 2.06412e-05 1.63379e-05 0 1.86847e-05 1.58754e-05 0 1.807e-05 -1.7828e-05 0 2.01789e-05 -1.84454e-05 0 2.24551e-05 -1.88794e-05 0 2.48696e-05 -1.90827e-05 0 2.73787e-05 -1.90131e-05 0 2.99258e-05 -1.86382e-05 0 3.24454e-05 -1.79432e-05 0 3.48701e-05 -1.69298e-05 0 3.7137e-05 -1.56137e-05 0 3.91934e-05 -1.4034e-05 0 4.09991e-05 -1.22264e-05 0 4.25266e-05 -1.02338e-05 0 4.37588e-05 -8.09735e-06 0 4.46868e-05 -5.85505e-06 0 4.53064e-05 -3.5408e-06 0 4.56164e-05 -1.18486e-06 0 4.56164e-05 1.18486e-06 0 4.53064e-05 3.5408e-06 0 4.46868e-05 5.85505e-06 0 4.37588e-05 8.09735e-06 0 4.25266e-05 1.02338e-05 0 4.09991e-05 1.22264e-05 0 3.91934e-05 1.4034e-05 0 3.7137e-05 1.56137e-05 0 3.48701e-05 1.69298e-05 0 3.24454e-05 1.79432e-05 0 2.99258e-05 1.86382e-05 0 2.73787e-05 1.90131e-05 0 2.48696e-05 1.90827e-05 0 2.24551e-05 1.88794e-05 0 2.01789e-05 1.84454e-05 0 1.807e-05 1.7828e-05 0 1.72855e-05 -1.99163e-05 0 1.95605e-05 -2.07365e-05 0 2.20578e-05 -2.13519e-05 0 2.47468e-05 -2.16979e-05 0 2.75753e-05 -2.17145e-05 0 3.04707e-05 -2.13548e-05 0 3.3347e-05 -2.05969e-05 0 3.61147e-05 -1.9445e-05 0 3.86929e-05 -1.79239e-05 0 4.10169e-05 -1.60893e-05 0 4.30417e-05 -1.39921e-05 0 4.47403e-05 -1.1689e-05 0 4.60999e-05 -9.23177e-06 0 4.71171e-05 -6.66509e-06 0 4.77928e-05 -4.02623e-06 0 4.81298e-05 -1.34652e-06 0 4.81298e-05 1.34652e-06 0 4.77928e-05 4.02623e-06 0 4.71171e-05 6.66509e-06 0 4.60999e-05 9.23177e-06 0 4.47403e-05 1.1689e-05 0 4.30417e-05 1.39921e-05 0 4.10169e-05 1.60893e-05 0 3.86929e-05 1.79239e-05 0 3.61147e-05 1.9445e-05 0 3.3347e-05 2.05969e-05 0 3.04707e-05 2.13548e-05 0 2.75753e-05 2.17145e-05 0 2.47468e-05 2.16979e-05 0 2.20578e-05 2.13519e-05 0 1.95605e-05 2.07365e-05 0 1.72855e-05 1.99163e-05 0 1.62484e-05 -2.21461e-05 0 1.87006e-05 -2.32317e-05 0 2.1451e-05 -2.40945e-05 0 2.44706e-05 -2.46447e-05 0 2.76973e-05 -2.47947e-05 0 3.10356e-05 -2.44737e-05 0 3.43663e-05 -2.36488e-05 0 3.75654e-05 -2.2328e-05 0 4.05245e-05 -2.05532e-05 0 4.31638e-05 -1.84067e-05 0 4.54352e-05 -1.59625e-05 0 4.73176e-05 -1.32968e-05 0 4.88076e-05 -1.04742e-05 0 4.99119e-05 -7.54604e-06 0 5.06405e-05 -4.55159e-06 0 5.10023e-05 -1.52104e-06 0 5.10023e-05 1.52104e-06 0 5.06405e-05 4.55159e-06 0 4.99119e-05 7.54604e-06 0 4.88076e-05 1.04742e-05 0 4.73176e-05 1.32968e-05 0 4.54352e-05 1.59625e-05 0 4.31638e-05 1.84067e-05 0 4.05245e-05 2.05532e-05 0 3.75654e-05 2.2328e-05 0 3.43663e-05 2.36488e-05 0 3.10356e-05 2.44737e-05 0 2.76973e-05 2.47947e-05 0 2.44706e-05 2.46447e-05 0 2.1451e-05 2.40945e-05 0 1.87006e-05 2.32317e-05 0 1.62484e-05 2.21461e-05 0 1.4912e-05 -2.45146e-05 0 1.75424e-05 -2.59481e-05 0 2.05732e-05 -2.71507e-05 0 2.39844e-05 -2.79961e-05 0 2.77051e-05 -2.83518e-05 0 3.1607e-05 -2.81059e-05 0 3.55176e-05 -2.7205e-05 0 3.92574e-05 -2.56657e-05 0 4.26762e-05 -2.35619e-05 0 4.5677e-05 -2.10207e-05 0 4.82147e-05 -1.81523e-05 0 5.02823e-05 -1.5059e-05 0 5.18949e-05 -1.18199e-05 0 5.30757e-05 -8.49132e-06 0 5.3848e-05 -5.11173e-06 0 5.42294e-05 -1.70651e-06 0 5.42294e-05 1.70651e-06 0 5.3848e-05 5.11173e-06 0 5.30757e-05 8.49132e-06 0 5.18949e-05 1.18199e-05 0 5.02823e-05 1.5059e-05 0 4.82147e-05 1.81523e-05 0 4.5677e-05 2.10207e-05 0 4.26762e-05 2.35619e-05 0 3.92574e-05 2.56657e-05 0 3.55176e-05 2.7205e-05 0 3.1607e-05 2.81059e-05 0 2.77051e-05 2.83518e-05 0 2.39844e-05 2.79961e-05 0 2.05732e-05 2.71507e-05 0 1.75424e-05 2.59481e-05 0 1.4912e-05 2.45146e-05 0 1.32154e-05 -2.70036e-05 0 1.60084e-05 -2.88916e-05 0 1.93366e-05 -3.05632e-05 0 2.32046e-05 -3.18403e-05 0 2.75399e-05 -3.25172e-05 0 3.21679e-05 -3.24057e-05 0 3.68333e-05 -3.14097e-05 0 4.12553e-05 -2.95668e-05 0 4.52241e-05 -2.70149e-05 0 4.86268e-05 -2.39585e-05 0 5.14356e-05 -2.05629e-05 0 5.36737e-05 -1.69633e-05 0 5.53864e-05 -1.32517e-05 0 5.66219e-05 -9.48542e-06 0 5.74213e-05 -5.69614e-06 0 5.78135e-05 -1.89923e-06 0 5.78135e-05 1.89923e-06 0 5.74213e-05 5.69614e-06 0 5.66219e-05 9.48542e-06 0 5.53864e-05 1.32517e-05 0 5.36737e-05 1.69633e-05 0 5.14356e-05 2.05629e-05 0 4.86268e-05 2.39585e-05 0 4.52241e-05 2.70149e-05 0 4.12553e-05 2.95668e-05 0 3.68333e-05 3.14097e-05 0 3.21679e-05 3.24057e-05 0 2.75399e-05 3.25172e-05 0 2.32046e-05 3.18403e-05 0 1.93366e-05 3.05632e-05 0 1.60084e-05 2.88916e-05 0 1.32154e-05 2.70036e-05 0 1.09729e-05 -2.95674e-05 0 1.38693e-05 -3.20438e-05 0 1.74811e-05 -3.43648e-05 0 2.18786e-05 -3.62878e-05 0 2.70247e-05 -3.74857e-05 0 3.26877e-05 -3.76122e-05 0 3.84369e-05 -3.6484e-05 0 4.37852e-05 -3.41775e-05 0 4.84243e-05 -3.09778e-05 0 5.22509e-05 -2.72272e-05 0 5.52976e-05 -2.31697e-05 0 5.76515e-05 -1.89731e-05 0 5.94084e-05 -1.47339e-05 0 6.06519e-05 -1.04995e-05 0 6.14456e-05 -6.28654e-06 0 6.1832e-05 -2.09298e-06 0 6.1832e-05 2.09298e-06 0 6.14456e-05 6.28654e-06 0 6.06519e-05 1.04995e-05 0 5.94084e-05 1.47339e-05 0 5.76515e-05 1.89731e-05 0 5.52976e-05 2.31697e-05 0 5.22509e-05 2.72272e-05 0 4.84243e-05 3.09778e-05 0 4.37852e-05 3.41775e-05 0 3.84369e-05 3.6484e-05 0 3.26877e-05 3.76122e-05 0 2.70247e-05 3.74857e-05 0 2.18786e-05 3.62878e-05 0 1.74811e-05 3.43648e-05 0 1.38693e-05 3.20438e-05 0 1.09729e-05 2.95674e-05 0 8.16583e-06 -3.21168e-05 0 1.10586e-05 -3.53357e-05 0 1.48776e-05 -3.85486e-05 0 1.98246e-05 -4.14562e-05 0 2.59934e-05 -4.35488e-05 0 3.31283e-05 -4.41334e-05 0 4.03848e-05 -4.2775e-05 0 4.69596e-05 -3.96783e-05 0 5.23509e-05 -3.5488e-05 0 5.65586e-05 -3.07858e-05 0 5.97546e-05 -2.59026e-05 0 6.21317e-05 -2.10168e-05 0 6.38538e-05 -1.62054e-05 0 6.50454e-05 -1.14888e-05 0 6.5794e-05 -6.85585e-06 0 6.61549e-05 -2.27872e-06 0 6.61549e-05 2.27872e-06 0 6.5794e-05 6.85585e-06 0 6.50454e-05 1.14888e-05 0 6.38538e-05 1.62054e-05 0 6.21317e-05 2.10168e-05 0 5.97546e-05 2.59026e-05 0 5.65586e-05 3.07858e-05 0 5.23509e-05 3.5488e-05 0 4.69596e-05 3.96783e-05 0 4.03848e-05 4.2775e-05 0 3.31283e-05 4.41334e-05 0 2.59934e-05 4.35488e-05 0 1.98246e-05 4.14562e-05 0 1.48776e-05 3.85486e-05 0 1.10586e-05 3.53357e-05 0 8.16583e-06 3.21168e-05 0 4.63761e-06 -3.45029e-05 0 7.32176e-06 -3.86128e-05 0 1.11308e-05 -4.30045e-05 0 1.64905e-05 -4.74038e-05 0 2.38803e-05 -5.1128e-05 0 3.33393e-05 -5.28405e-05 0 4.33475e-05 -5.08549e-05 0 5.1552e-05 -4.6238e-05 0 5.76434e-05 -4.04857e-05 0 6.20372e-05 -3.44994e-05 0 6.51829e-05 -2.86238e-05 0 6.74187e-05 -2.29783e-05 0 6.89819e-05 -1.75784e-05 0 7.00346e-05 -1.23927e-05 0 7.06832e-05 -7.36879e-06 0 7.09924e-05 -2.4449e-06 0 7.09924e-05 2.4449e-06 0 7.06832e-05 7.36879e-06 0 7.00346e-05 1.23927e-05 0 6.89819e-05 1.75784e-05 0 6.74187e-05 2.29783e-05 0 6.51829e-05 2.86238e-05 0 6.20372e-05 3.44994e-05 0 5.76434e-05 4.04857e-05 0 5.1552e-05 4.6238e-05 0 4.33475e-05 5.08549e-05 0 3.33393e-05 5.28405e-05 0 2.38803e-05 5.1128e-05 0 1.64905e-05 4.74038e-05 0 1.11308e-05 4.30045e-05 0 7.32176e-06 3.86128e-05 0 4.63761e-06 3.45029e-05 0 2.81965e-07 -3.64948e-05 0 2.43182e-06 -4.15784e-05 0 5.78264e-06 -4.73878e-05 0 1.09882e-05 -5.38806e-05 0 1.92248e-05 -6.06833e-05 0 3.30574e-05 -6.54501e-05 0 4.972e-05 -6.17388e-05 0 5.95649e-05 -5.37464e-05 0 6.57911e-05 -4.56418e-05 0 6.9888e-05 -3.80631e-05 0 7.26342e-05 -3.10966e-05 0 7.44856e-05 -2.46855e-05 0 7.57246e-05 -1.87329e-05 0 7.65296e-05 -1.31331e-05 0 7.70125e-05 -7.78145e-06 0 7.72387e-05 -2.57735e-06 0 7.72387e-05 2.57735e-06 0 7.70125e-05 7.78145e-06 0 7.65296e-05 1.31331e-05 0 7.57246e-05 1.87329e-05 0 7.44856e-05 2.46855e-05 0 7.26342e-05 3.10966e-05 0 6.9888e-05 3.80631e-05 0 6.57911e-05 4.56418e-05 0 5.95649e-05 5.37464e-05 0 4.972e-05 6.17388e-05 0 3.30574e-05 6.54501e-05 0 1.92248e-05 6.06833e-05 0 1.09882e-05 5.38806e-05 0 5.78264e-06 4.73878e-05 0 2.43182e-06 4.15784e-05 0 2.81965e-07 3.64948e-05 0 -4.79856e-06 -3.78054e-05 0 -3.54196e-06 -4.38058e-05 0 -1.22638e-06 -5.10473e-05 0 2.81718e-06 -5.98811e-05 0 9.85378e-06 -7.09339e-05 0 2.26144e-05 -8.63412e-05 0 3.80754e-05 -7.4495e-05 0 4.67973e-05 -6.10584e-05 0 5.19052e-05 -5.02068e-05 0 5.50241e-05 -4.09966e-05 0 5.69646e-05 -3.3009e-05 0 5.81783e-05 -2.59337e-05 0 5.89321e-05 -1.95359e-05 0 5.93884e-05 -1.36268e-05 0 5.9646e-05 -8.04821e-06 0 5.97618e-05 -2.66156e-06 0 5.97618e-05 2.66156e-06 0 5.9646e-05 8.04821e-06 0 5.93884e-05 1.36268e-05 0 5.89321e-05 1.95359e-05 0 5.81783e-05 2.59337e-05 0 5.69646e-05 3.3009e-05 0 5.50241e-05 4.09966e-05 0 5.19052e-05 5.02068e-05 0 4.67973e-05 6.10584e-05 0 3.80754e-05 7.4495e-05 0 2.26144e-05 8.63412e-05 0 9.85378e-06 7.09339e-05 0 2.81718e-06 5.98811e-05 0 -1.22638e-06 5.10473e-05 0 -3.54196e-06 4.38058e-05 0 -4.79856e-06 3.78054e-05 0 -1.05655e-05 -3.81311e-05 0 -1.05979e-05 -4.48099e-05 0 -9.97985e-06 -5.31511e-05 0 -8.30151e-06 -6.37915e-05 0 -4.98189e-06 -7.78191e-05 0 1.97186e-07 -9.71784e-05 0 5.69925e-06 -8.28473e-05 0 9.88209e-06 -6.60456e-05 0 1.23576e-05 -5.31558e-05 0 1.37056e-05 -4.27324e-05 0 1.43882e-05 -3.40225e-05 0 1.46935e-05 -2.65139e-05 0 1.47959e-05 -1.98568e-05 0 1.48018e-05 -1.37946e-05 0 1.47755e-05 -8.12648e-06 0 1.47539e-05 -2.68406e-06 0 1.47539e-05 2.68406e-06 0 1.47755e-05 8.12648e-06 0 1.48018e-05 1.37946e-05 0 1.47959e-05 1.98568e-05 0 1.46935e-05 2.65139e-05 0 1.43882e-05 3.40225e-05 0 1.37056e-05 4.27324e-05 0 1.23576e-05 5.31558e-05 0 9.88209e-06 6.60456e-05 0 5.69925e-06 8.28473e-05 0 1.97186e-07 9.71784e-05 0 -4.98189e-06 7.78191e-05 0 -8.30151e-06 6.37915e-05 0 -9.97985e-06 5.31511e-05 0 -1.05979e-05 4.48099e-05 0 -1.05655e-05 3.81311e-05 0 -1.66918e-05 -3.72183e-05 0 -1.82554e-05 -4.41837e-05 0 -1.97182e-05 -5.30167e-05 0 -2.09909e-05 -6.44424e-05 0 -2.19788e-05 -7.95495e-05 0 -2.26552e-05 -9.9742e-05 0 -2.32054e-05 -8.50704e-05 0 -2.38593e-05 -6.73174e-05 0 -2.46554e-05 -5.36734e-05 0 -2.55153e-05 -4.27993e-05 0 -2.63568e-05 -3.38586e-05 0 -2.71208e-05 -2.62569e-05 0 -2.77681e-05 -1.9592e-05 0 -2.82726e-05 -1.35747e-05 0 -2.86173e-05 -7.9832e-06 0 -2.8792e-05 -2.63449e-06 0 -2.8792e-05 2.63449e-06 0 -2.86173e-05 7.9832e-06 0 -2.82726e-05 1.35747e-05 0 -2.77681e-05 1.9592e-05 0 -2.71208e-05 2.62569e-05 0 -2.63568e-05 3.38586e-05 0 -2.55153e-05 4.27993e-05 0 -2.46554e-05 5.36734e-05 0 -2.38593e-05 6.73174e-05 0 -2.32054e-05 8.50704e-05 0 -2.26552e-05 9.9742e-05 0 -2.19788e-05 7.95495e-05 0 -2.09909e-05 6.44424e-05 0 -1.97182e-05 5.30167e-05 0 -1.82554e-05 4.41837e-05 0 -1.66918e-05 3.72183e-05 0 -2.28437e-05 -3.49344e-05 0 -2.60106e-05 -4.17316e-05 0 -2.96428e-05 -5.03526e-05 0 -3.39684e-05 -6.14728e-05 0 -3.93074e-05 -7.61841e-05 0 -4.5723e-05 -9.61211e-05 0 -5.2284e-05 -8.17349e-05 0 -5.7754e-05 -6.45561e-05 0 -6.19142e-05 -5.14416e-05 0 -6.50653e-05 -4.09869e-05 0 -6.74881e-05 -3.23873e-05 0 -6.93594e-05 -2.50827e-05 0 -7.07814e-05 -1.86919e-05 0 -7.18124e-05 -1.2937e-05 0 -7.24853e-05 -7.60225e-06 0 -7.28179e-05 -2.50775e-06 0 -7.28179e-05 2.50775e-06 0 -7.24853e-05 7.60225e-06 0 -7.18124e-05 1.2937e-05 0 -7.07814e-05 1.86919e-05 0 -6.93594e-05 2.50827e-05 0 -6.74881e-05 3.23873e-05 0 -6.50653e-05 4.09869e-05 0 -6.19142e-05 5.14416e-05 0 -5.7754e-05 6.45561e-05 0 -5.2284e-05 8.17349e-05 0 -4.5723e-05 9.61211e-05 0 -3.93074e-05 7.61841e-05 0 -3.39684e-05 6.14728e-05 0 -2.96428e-05 5.03526e-05 0 -2.60106e-05 4.17316e-05 0 -2.28437e-05 3.49344e-05 0 -2.86586e-05 -3.12804e-05 0 -3.33212e-05 -3.74932e-05 0 -3.8899e-05 -4.52547e-05 0 -4.59187e-05 -5.50115e-05 0 -5.53574e-05 -6.76421e-05 0 -6.85268e-05 -8.56377e-05 0 -8.27197e-05 -7.25492e-05 0 -9.30133e-05 -5.78658e-05 0 -0.000100159 -4.65808e-05 0 -0.000105318 -3.73705e-05 0 -0.000109153 -2.96494e-05 0 -0.000112035 -2.30123e-05 0 -0.000114177 -1.71669e-05 0 -0.000115704 -1.18866e-05 0 -0.000116688 -6.98585e-06 0 -0.000117171 -2.30446e-06 0 -0.000117171 2.30446e-06 0 -0.000116688 6.98585e-06 0 -0.000115704 1.18866e-05 0 -0.000114177 1.71669e-05 0 -0.000112035 2.30123e-05 0 -0.000109153 2.96494e-05 0 -0.000105318 3.73705e-05 0 -0.000100159 4.65808e-05 0 -9.30133e-05 5.78658e-05 0 -8.27197e-05 7.25492e-05 0 -6.85268e-05 8.56377e-05 0 -5.53574e-05 6.76421e-05 0 -4.59187e-05 5.50115e-05 0 -3.8899e-05 4.52547e-05 0 -3.33212e-05 3.74932e-05 0 -2.86586e-05 3.12804e-05 0 -3.38422e-05 -2.6373e-05 0 -3.97597e-05 -3.17289e-05 0 -4.67872e-05 -3.82168e-05 0 -5.55683e-05 -4.58551e-05 0 -6.74495e-05 -5.45751e-05 0 -8.63599e-05 -6.32098e-05 0 -0.000109577 -5.74694e-05 0 -0.000122805 -4.81051e-05 0 -0.000131803 -3.96852e-05 0 -0.000138348 -3.2299e-05 0 -0.000143245 -2.58451e-05 0 -0.000146936 -2.01613e-05 0 -0.000149679 -1.50845e-05 0 -0.000151631 -1.0462e-05 0 -0.000152888 -6.15396e-06 0 -0.000153503 -2.03079e-06 0 -0.000153503 2.03079e-06 0 -0.000152888 6.15396e-06 0 -0.000151631 1.0462e-05 0 -0.000149679 1.50845e-05 0 -0.000146936 2.01613e-05 0 -0.000143245 2.58451e-05 0 -0.000138348 3.2299e-05 0 -0.000131803 3.96852e-05 0 -0.000122805 4.81051e-05 0 -0.000109577 5.74694e-05 0 -8.63599e-05 6.32098e-05 0 -6.74495e-05 5.45751e-05 0 -5.55683e-05 4.58551e-05 0 -4.67872e-05 3.82168e-05 0 -3.97597e-05 3.17289e-05 0 -3.38422e-05 2.6373e-05 0 -3.82368e-05 -2.03713e-05 0 -4.51456e-05 -2.48283e-05 0 -5.30209e-05 -3.00205e-05 0 -6.23779e-05 -3.55572e-05 0 -7.40067e-05 -4.07182e-05 0 -8.84201e-05 -4.36741e-05 0 -0.000103416 -4.2047e-05 0 -0.00011568 -3.72787e-05 0 -0.000125056 -3.17179e-05 0 -0.000132248 -2.62905e-05 0 -0.000137794 -2.12709e-05 0 -0.000142047 -1.67058e-05 0 -0.000145241 -1.25506e-05 0 -0.000147527 -8.72583e-06 0 -0.000149002 -5.13962e-06 0 -0.000149726 -1.69708e-06 0 -0.000149726 1.69708e-06 0 -0.000149002 5.13962e-06 0 -0.000147527 8.72583e-06 0 -0.000145241 1.25506e-05 0 -0.000142047 1.67058e-05 0 -0.000137794 2.12709e-05 0 -0.000132248 2.62905e-05 0 -0.000125056 3.17179e-05 0 -0.00011568 3.72787e-05 0 -0.000103416 4.2047e-05 0 -8.84201e-05 4.36741e-05 0 -7.40067e-05 4.07182e-05 0 -6.23779e-05 3.55572e-05 0 -5.30209e-05 3.00205e-05 0 -4.51456e-05 2.48283e-05 0 -3.82368e-05 2.03713e-05 0 -4.18747e-05 -1.33486e-05 0 -4.96272e-05 -1.71742e-05 0 -5.78186e-05 -2.1442e-05 0 -6.69237e-05 -2.54729e-05 0 -7.73718e-05 -2.86591e-05 0 -8.90246e-05 -3.0197e-05 0 -0.000100836 -2.95079e-05 0 -0.000111509 -2.69847e-05 0 -0.000120486 -2.35349e-05 0 -0.000127797 -1.98402e-05 0 -0.000133646 -1.6229e-05 0 -0.000138237 -1.28353e-05 0 -0.000141733 -9.68506e-06 0 -0.000144256 -6.75145e-06 0 -0.000145894 -3.98266e-06 0 -0.000146699 -1.31595e-06 0 -0.000146699 1.31595e-06 0 -0.000145894 3.98266e-06 0 -0.000144256 6.75145e-06 0 -0.000141733 9.68506e-06 0 -0.000138237 1.28353e-05 0 -0.000133646 1.6229e-05 0 -0.000127797 1.98402e-05 0 -0.000120486 2.35349e-05 0 -0.000111509 2.69847e-05 0 -0.000100836 2.95079e-05 0 -8.90246e-05 3.0197e-05 0 -7.73718e-05 2.86591e-05 0 -6.69237e-05 2.54729e-05 0 -5.78186e-05 2.1442e-05 0 -4.96272e-05 1.71742e-05 0 -4.18747e-05 1.33486e-05 0 -4.51076e-05 -5.0421e-06 0 -5.37857e-05 -9.11449e-06 0 -6.16851e-05 -1.31212e-05 0 -7.00385e-05 -1.61822e-05 0 -7.93488e-05 -1.82478e-05 0 -8.94045e-05 -1.91807e-05 0 -9.95714e-05 -1.88864e-05 0 -0.000109129 -1.75472e-05 0 -0.000117599 -1.55491e-05 0 -0.000124804 -1.32728e-05 0 -0.00013075 -1.09526e-05 0 -0.000135513 -8.71299e-06 0 -0.00013919 -6.59929e-06 0 -0.000141867 -4.61106e-06 0 -0.000143612 -2.72367e-06 0 -0.000144473 -9.00502e-07 0 -0.000144473 9.00502e-07 0 -0.000143612 2.72367e-06 0 -0.000141867 4.61106e-06 0 -0.00013919 6.59929e-06 0 -0.000135513 8.71299e-06 0 -0.00013075 1.09526e-05 0 -0.000124804 1.32728e-05 0 -0.000117599 1.55491e-05 0 -0.000109129 1.75472e-05 0 -9.95714e-05 1.88864e-05 0 -8.94045e-05 1.91807e-05 0 -7.93488e-05 1.82478e-05 0 -7.00385e-05 1.61822e-05 0 -6.16851e-05 1.31212e-05 0 -5.37857e-05 9.11449e-06 0 -4.51076e-05 5.0421e-06 0 -4.93762e-05 6.18539e-06 0 -5.89367e-05 -1.64234e-06 0 -6.49005e-05 -5.82793e-06 0 -7.20884e-05 -7.84654e-06 0 -8.05066e-05 -8.97023e-06 0 -8.96573e-05 -9.45301e-06 0 -9.8968e-05 -9.35003e-06 0 -0.000107888 -8.75528e-06 0 -0.000116004 -7.82494e-06 0 -0.000123081 -6.72834e-06 0 -0.000129036 -5.5823e-06 0 -0.000133874 -4.45738e-06 0 -0.000137643 -3.38426e-06 0 -0.000140404 -2.36824e-06 0 -0.00014221 -1.40009e-06 0 -0.000143103 -4.63082e-07 0 -0.000143103 4.63082e-07 0 -0.00014221 1.40009e-06 0 -0.000140404 2.36824e-06 0 -0.000137643 3.38426e-06 0 -0.000133874 4.45738e-06 0 -0.000129036 5.5823e-06 0 -0.000123081 6.72834e-06 0 -0.000116004 7.82494e-06 0 -0.000107888 8.75528e-06 0 -9.8968e-05 9.35003e-06 0 -8.96573e-05 9.45301e-06 0 -8.05066e-05 8.97023e-06 0 -7.20884e-05 7.84654e-06 0 -6.49005e-05 5.82793e-06 0 -5.89367e-05 1.64234e-06 0 -4.93762e-05 -6.18539e-06 0 -6.00176e-05 0.000107346 0 -6.43128e-05 -1.58931e-08 0 -6.64921e-05 -2.17712e-07 0 -7.28834e-05 -2.76584e-07 0 -8.09193e-05 -3.1014e-07 0 -8.97529e-05 -3.2428e-07 0 -9.87802e-05 -3.18878e-07 0 -0.000107485 -2.96551e-07 0 -0.000115471 -2.62824e-07 0 -0.000122495 -2.23897e-07 0 -0.000128445 -1.84042e-07 0 -0.000133304 -1.45715e-07 0 -0.000137102 -1.09848e-07 0 -0.000139891 -7.64477e-08 0 -0.000141718 -4.50274e-08 0 -0.000142622 -1.48647e-08 0 -0.000142622 1.48647e-08 0 -0.000141718 4.50274e-08 0 -0.000139891 7.64477e-08 0 -0.000137102 1.09848e-07 0 -0.000133304 1.45715e-07 0 -0.000128445 1.84042e-07 0 -0.000122495 2.23897e-07 0 -0.000115471 2.62824e-07 0 -0.000107485 2.96551e-07 0 -9.87802e-05 3.18878e-07 0 -8.97529e-05 3.2428e-07 0 -8.09193e-05 3.1014e-07 0 -7.28834e-05 2.76584e-07 0 -6.64921e-05 2.17712e-07 0 -6.43128e-05 1.58931e-08 0 -6.00176e-05 -0.000107346 0 </DataArray> 
</PointData> 
<Points> 
<DataArray type="Float32" NumberOfComponents="3"> 