<?xml version="1.0"?> 
<VTKFile type="StructuredGrid" version="0.1"> 
<StructuredGrid WholeExtent="0 31 0 31 0 0"> 
<Piece Extent="0 31 0 31 0 0"> 
<PointData>
<DataArray type="Float32" Name="B" format="ascii" NumberOfComponents="3"> 
1.68993e-05 -1.2175e-05 0 -4.17544e-06 -4.66755e-07 0 -3.54297e-06 -4.16133e-07 0 -3.0743e-06 -5.60981e-07 0 -2.71685e-06 -6.69925e-07 0 -2.42821e-06 -7.31323e-07 0 -2.18552e-06 -7.5599e-07 0 -1.97572e-06 -7.55029e-07 0 -1.79089e-06 -7.369e-07 0 -1.62587e-06 -7.08454e-07 0 -1.47722e-06 -6.73838e-07 0 -1.34241e-06 -6.35858e-07 0 -1.21956e-06 -5.9696e-07 0 -1.10722e-06 -5.58454e-07 0 -1.00415e-06 -5.21258e-07 0 -9.09351e-07 -4.85792e-07 0 -8.21937e-07 -4.52803e-07 0 -7.41126e-07 -4.2208e-07 0 -6.66237e-07 -3.93804e-07 0 -5.96631e-07 -3.68197e-07 0 -5.31739e-07 -3.44868e-07 0 -4.71038e-07 -3.24057e-07 0 -4.14031e-07 -3.05561e-07 0 -3.6027e-07 -2.89132e-07 0 -3.09326e-07 -2.75103e-07 0 -2.60795e-07 -2.62995e-07 0 -2.143e-07 -2.52853e-07 0 -1.69473e-07 -2.44757e-07 0 -1.25964e-07 -2.38393e-07 0 -8.34372e-08 -2.33962e-07 0 -4.1556e-08 -2.31317e-07 0 0 -2.3032e-07 0 -5.03338e-06 -8.13264e-08 0 -4.14129e-06 -7.9524e-07 0 -3.63284e-06 -9.29417e-07 0 -3.15846e-06 -9.81197e-07 0 -2.76598e-06 -1.00774e-06 0 -2.4449e-06 -1.00982e-06 0 -2.17793e-06 -9.91585e-07 0 -1.95151e-06 -9.58567e-07 0 -1.75608e-06 -9.15711e-07 0 -1.58486e-06 -8.67346e-07 0 -1.43317e-06 -8.16282e-07 0 -1.29748e-06 -7.6463e-07 0 -1.17524e-06 -7.13869e-07 0 -1.06447e-06 -6.65117e-07 0 -9.63588e-07 -6.18938e-07 0 -8.71343e-07 -5.75465e-07 0 -7.86681e-07 -5.35467e-07 0 -7.08698e-07 -4.98463e-07 0 -6.36639e-07 -4.64587e-07 0 -5.69813e-07 -4.3404e-07 0 -5.07621e-07 -4.0629e-07 0 -4.49526e-07 -3.81596e-07 0 -3.95022e-07 -3.59689e-07 0 -3.43662e-07 -3.40257e-07 0 -2.95023e-07 -3.23684e-07 0 -2.48708e-07 -3.09391e-07 0 -2.04352e-07 -2.97427e-07 0 -1.61595e-07 -2.87882e-07 0 -1.20104e-07 -2.80381e-07 0 -7.95535e-08 -2.75159e-07 0 -3.96211e-08 -2.72043e-07 0 0 -2.70869e-07 0 -5.25386e-06 -1.48392e-06 0 -4.31089e-06 -1.47423e-06 0 -3.6597e-06 -1.4678e-06 0 -3.15353e-06 -1.42596e-06 0 -2.74367e-06 -1.37085e-06 0 -2.4083e-06 -1.30885e-06 0 -2.13048e-06 -1.24186e-06 0 -1.89683e-06 -1.17164e-06 0 -1.69735e-06 -1.10005e-06 0 -1.52459e-06 -1.02879e-06 0 -1.37324e-06 -9.59141e-07 0 -1.23922e-06 -8.92389e-07 0 -1.11952e-06 -8.28786e-07 0 -1.01188e-06 -7.69181e-07 0 -9.14435e-07 -7.13662e-07 0 -8.25789e-07 -6.61989e-07 0 -7.44763e-07 -6.14924e-07 0 -6.70376e-07 -5.71655e-07 0 -6.0182e-07 -5.32244e-07 0 -5.38374e-07 -4.96856e-07 0 -4.79424e-07 -4.648e-07 0 -4.24427e-07 -4.36345e-07 0 -3.72879e-07 -4.11148e-07 0 -3.24341e-07 -3.88828e-07 0 -2.784e-07 -3.69815e-07 0 -2.34672e-07 -3.5343e-07 0 -1.92805e-07 -3.39726e-07 0 -1.52457e-07 -3.28798e-07 0 -1.13308e-07 -3.20213e-07 0 -7.50501e-08 -3.14239e-07 0 -3.73777e-08 -3.10674e-07 0 0 -3.09331e-07 0 -5.02391e-06 -2.49411e-06 0 -4.20276e-06 -2.22784e-06 0 -3.56022e-06 -2.03896e-06 0 -3.05445e-06 -1.88095e-06 0 -2.64748e-06 -1.74046e-06 0 -2.31485e-06 -1.61292e-06 0 -2.03946e-06 -1.49539e-06 0 -1.80847e-06 -1.38605e-06 0 -1.61219e-06 -1.28402e-06 0 -1.44322e-06 -1.18848e-06 0 -1.29615e-06 -1.09924e-06 0 -1.16675e-06 -1.01671e-06 0 -1.05188e-06 -9.39838e-07 0 -9.49126e-07 -8.69154e-07 0 -8.56547e-07 -8.04215e-07 0 -7.72658e-07 -7.44358e-07 0 -6.96231e-07 -6.90317e-07 0 -6.26255e-07 -6.40915e-07 0 -5.61905e-07 -5.96128e-07 0 -5.02454e-07 -5.56072e-07 0 -4.47293e-07 -5.19882e-07 0 -3.95884e-07 -4.87834e-07 0 -3.47738e-07 -4.59505e-07 0 -3.02432e-07 -4.34443e-07 0 -2.59569e-07 -4.13121e-07 0 -2.18782e-07 -3.9476e-07 0 -1.79741e-07 -3.79414e-07 0 -1.42122e-07 -3.67182e-07 0 -1.05624e-07 -3.57577e-07 0 -6.99601e-08 -3.50894e-07 0 -3.48425e-08 -3.46908e-07 0 0 -3.45405e-07 0 -4.61477e-06 -3.33713e-06 0 -3.90553e-06 -2.91373e-06 0 -3.32698e-06 -2.58465e-06 0 -2.85896e-06 -2.31921e-06 0 -2.47805e-06 -2.09734e-06 0 -2.16486e-06 -1.90715e-06 0 -1.90457e-06 -1.74087e-06 0 -1.68585e-06 -1.59335e-06 0 -1.49998e-06 -1.46134e-06 0 -1.34023e-06 -1.34176e-06 0 -1.20153e-06 -1.23308e-06 0 -1.07987e-06 -1.13493e-06 0 -9.72232e-07 -1.04496e-06 0 -8.76252e-07 -9.63402e-07 0 -7.90029e-07 -8.89281e-07 0 -7.12104e-07 -8.21496e-07 0 -6.41271e-07 -7.60747e-07 0 -5.76538e-07 -7.05482e-07 0 -5.17103e-07 -6.55582e-07 0 -4.62261e-07 -6.11108e-07 0 -4.11424e-07 -5.71023e-07 0 -3.64082e-07 -5.35601e-07 0 -3.19769e-07 -5.0434e-07 0 -2.78086e-07 -4.76717e-07 0 -2.38662e-07 -4.53243e-07 0 -2.01155e-07 -4.33044e-07 0 -1.65257e-07 -4.16171e-07 0 -1.30668e-07 -4.02729e-07 0 -9.71116e-08 -3.92178e-07 0 -6.43217e-08 -3.84838e-07 0 -3.20344e-08 -3.80461e-07 0 0 -3.78811e-07 0 -4.06712e-06 -4.05148e-06 0 -3.47417e-06 -3.50553e-06 0 -2.98274e-06 -3.06888e-06 0 -2.57704e-06 -2.7152e-06 0 -2.24151e-06 -2.42327e-06 0 -1.96242e-06 -2.17782e-06 0 -1.72846e-06 -1.96783e-06 0 -1.53063e-06 -1.78559e-06 0 -1.36182e-06 -1.62596e-06 0 -1.21637e-06 -1.48403e-06 0 -1.08995e-06 -1.35715e-06 0 -9.79064e-07 -1.24433e-06 0 -8.81001e-07 -1.14203e-06 0 -7.93642e-07 -1.05026e-06 0 -7.1525e-07 -9.67525e-07 0 -6.4448e-07 -8.92319e-07 0 -5.80217e-07 -8.25314e-07 0 -5.21541e-07 -7.64598e-07 0 -4.67708e-07 -7.09959e-07 0 -4.18064e-07 -6.61404e-07 0 -3.72067e-07 -6.17728e-07 0 -3.29246e-07 -5.79205e-07 0 -2.89173e-07 -5.45255e-07 0 -2.51482e-07 -5.15287e-07 0 -2.15835e-07 -4.89845e-07 0 -1.81921e-07 -4.67967e-07 0 -1.4946e-07 -4.49701e-07 0 -1.18182e-07 -4.35155e-07 0 -8.7834e-08 -4.23741e-07 0 -5.81779e-08 -4.15803e-07 0 -2.89749e-08 -4.1107e-07 0 0 -4.09286e-07 0 -3.40248e-06 -4.62894e-06 0 -2.94139e-06 -3.98786e-06 0 -2.55289e-06 -3.47108e-06 0 -2.22538e-06 -3.05046e-06 0 -1.94906e-06 -2.70359e-06 0 -1.71528e-06 -2.41351e-06 0 -1.51658e-06 -2.16736e-06 0 -1.3467e-06 -1.95582e-06 0 -1.20048e-06 -1.77249e-06 0 -1.07369e-06 -1.61112e-06 0 -9.62974e-07 -1.46824e-06 0 -8.65531e-07 -1.34238e-06 0 -7.79166e-07 -1.22909e-06 0 -7.02114e-07 -1.12815e-06 0 -6.32906e-07 -1.03767e-06 0 -5.7039e-07 -9.55792e-07 0 -5.13601e-07 -8.8316e-07 0 -4.61735e-07 -8.17542e-07 0 -4.14138e-07 -7.58647e-07 0 -3.70238e-07 -7.0643e-07 0 -3.29553e-07 -6.59537e-07 0 -2.91667e-07 -6.18237e-07 0 -2.56205e-07 -5.81881e-07 0 -2.22842e-07 -5.49816e-07 0 -1.91278e-07 -5.22617e-07 0 -1.61241e-07 -4.9924e-07 0 -1.32484e-07 -4.7973e-07 0 -1.04767e-07 -4.64201e-07 0 -7.78689e-08 -4.52017e-07 0 -5.15799e-08 -4.43546e-07 0 -2.56896e-08 -4.38495e-07 0 0 -4.36591e-07 0 -2.65061e-06 -5.04913e-06 0 -2.33681e-06 -4.34659e-06 0 -2.06232e-06 -3.77802e-06 0 -1.82274e-06 -3.31289e-06 0 -1.6143e-06 -2.92798e-06 0 -1.43329e-06 -2.60576e-06 0 -1.27608e-06 -2.33264e-06 0 -1.13928e-06 -2.0986e-06 0 -1.01985e-06 -1.89659e-06 0 -9.15103e-07 -1.71957e-06 0 -8.22803e-07 -1.56359e-06 0 -7.40999e-07 -1.4269e-06 0 -6.68098e-07 -1.30437e-06 0 -6.0278e-07 -1.19567e-06 0 -5.43918e-07 -1.09858e-06 0 -4.90608e-07 -1.01098e-06 0 -4.42081e-07 -9.3351e-07 0 -3.97685e-07 -8.63665e-07 0 -3.56886e-07 -8.01092e-07 0 -3.19208e-07 -7.45708e-07 0 -2.84253e-07 -6.9603e-07 0 -2.51672e-07 -6.52325e-07 0 -2.21147e-07 -6.13884e-07 0 -1.92407e-07 -5.80003e-07 0 -1.65198e-07 -5.51281e-07 0 -1.39288e-07 -5.26604e-07 0 -1.14468e-07 -5.06017e-07 0 -9.05342e-08 -4.89634e-07 0 -6.72988e-08 -4.76784e-07 0 -4.45822e-08 -4.67849e-07 0 -2.22055e-08 -4.62523e-07 0 0 -4.60516e-07 0 -1.85336e-06 -5.29678e-06 0 -1.69318e-06 -4.57279e-06 0 -1.53672e-06 -3.98261e-06 0 -1.38871e-06 -3.49601e-06 0 -1.25187e-06 -3.09056e-06 0 -1.12729e-06 -2.74937e-06 0 -1.01499e-06 -2.45921e-06 0 -9.14351e-07 -2.21016e-06 0 -8.24384e-07 -1.99512e-06 0 -7.43974e-07 -1.80682e-06 0 -6.72027e-07 -1.64111e-06 0 -6.07477e-07 -1.49617e-06 0 -5.49382e-07 -1.36648e-06 0 -4.96912e-07 -1.25167e-06 0 -4.49322e-07 -1.14932e-06 0 -4.05992e-07 -1.05711e-06 0 -3.66376e-07 -9.75709e-07 0 -3.3e-07 -9.02412e-07 0 -2.96468e-07 -8.36822e-07 0 -2.65421e-07 -7.78828e-07 0 -2.36551e-07 -7.26848e-07 0 -2.09588e-07 -6.8115e-07 0 -1.84283e-07 -6.40979e-07 0 -1.6042e-07 -6.05587e-07 0 -1.37799e-07 -5.75596e-07 0 -1.16232e-07 -5.49836e-07 0 -9.5552e-08 -5.2835e-07 0 -7.55932e-08 -5.11255e-07 0 -5.62038e-08 -4.97847e-07 0 -3.72377e-08 -4.88526e-07 0 -1.8549e-08 -4.82969e-07 0 0 -4.80875e-07 0 -1.05921e-06 -5.37144e-06 0 -1.04574e-06 -4.66697e-06 0 -1.00269e-06 -4.08479e-06 0 -9.43694e-07 -3.59887e-06 0 -8.77425e-07 -3.1897e-06 0 -8.09306e-07 -2.84238e-06 0 -7.42582e-07 -2.54503e-06 0 -6.79066e-07 -2.28853e-06 0 -6.19652e-07 -2.06629e-06 0 -5.64664e-07 -1.87126e-06 0 -5.14088e-07 -1.69941e-06 0 -4.67712e-07 -1.54902e-06 0 -4.25235e-07 -1.41443e-06 0 -3.86319e-07 -1.2953e-06 0 -3.50611e-07 -1.18916e-06 0 -3.17785e-07 -1.09358e-06 0 -2.87533e-07 -1.00924e-06 0 -2.5957e-07 -9.33341e-07 0 -2.33645e-07 -8.65453e-07 0 -2.09526e-07 -8.05455e-07 0 -1.87005e-07 -7.51695e-07 0 -1.65896e-07 -7.04449e-07 0 -1.46023e-07 -6.62927e-07 0 -1.27233e-07 -6.26351e-07 0 -1.09377e-07 -5.95362e-07 0 -9.232e-08 -5.68748e-07 0 -7.59356e-08 -5.46552e-07 0 -6.01007e-08 -5.28894e-07 0 -4.47002e-08 -5.15044e-07 0 -2.9623e-08 -5.05417e-07 0 -1.4758e-08 -4.99678e-07 0 0 -4.97515e-07 0 -3.1192e-07 -5.28986e-06 0 -4.25349e-07 -4.64011e-06 0 -4.82992e-07 -4.09157e-06 0 -5.04869e-07 -3.62566e-06 0 -5.0413e-07 -3.22764e-06 0 -4.89482e-07 -2.88576e-06 0 -4.66686e-07 -2.59027e-06 0 -4.39516e-07 -2.33344e-06 0 -4.10407e-07 -2.10959e-06 0 -3.80906e-07 -1.91229e-06 0 -3.51939e-07 -1.73788e-06 0 -3.24059e-07 -1.58483e-06 0 -2.97551e-07 -1.44764e-06 0 -2.72539e-07 -1.32607e-06 0 -2.49046e-07 -1.21766e-06 0 -2.27033e-07 -1.11998e-06 0 -2.06425e-07 -1.03376e-06 0 -1.87127e-07 -9.56147e-07 0 -1.69039e-07 -8.86717e-07 0 -1.52054e-07 -8.25348e-07 0 -1.36068e-07 -7.70358e-07 0 -1.20982e-07 -7.22027e-07 0 -1.06698e-07 -6.7955e-07 0 -9.31223e-08 -6.42132e-07 0 -8.01669e-08 -6.10428e-07 0 -6.77453e-08 -5.83199e-07 0 -5.57766e-08 -5.60489e-07 0 -4.41799e-08 -5.42421e-07 0 -3.28785e-08 -5.2825e-07 0 -2.17978e-08 -5.18399e-07 0 -1.08623e-08 -5.12527e-07 0 0 -5.10314e-07 0 3.45945e-07 -5.08447e-06 0 1.37462e-07 -4.5129e-06 0 -2.3419e-10 -4.01637e-06 0 -8.93758e-08 -3.58509e-06 0 -1.45131e-07 -3.20998e-06 0 -1.77977e-07 -2.88304e-06 0 -1.95195e-07 -2.59708e-06 0 -2.0185e-07 -2.34614e-06 0 -2.0146e-07 -2.12568e-06 0 -1.96481e-07 -1.9302e-06 0 -1.8857e-07 -1.75655e-06 0 -1.78896e-07 -1.60353e-06 0 -1.68238e-07 -1.46599e-06 0 -1.57116e-07 -1.3438e-06 0 -1.45886e-07 -1.23462e-06 0 -1.34769e-07 -1.13613e-06 0 -1.23908e-07 -1.04908e-06 0 -1.13387e-07 -9.70654e-07 0 -1.03248e-07 -9.00449e-07 0 -9.35082e-08 -8.38356e-07 0 -8.41666e-08 -7.82694e-07 0 -7.52088e-08 -7.33753e-07 0 -6.66117e-08 -6.90725e-07 0 -5.83474e-08 -6.52813e-07 0 -5.03837e-08 -6.20683e-07 0 -4.26858e-08 -5.93082e-07 0 -3.52179e-08 -5.7006e-07 0 -2.79422e-08 -5.51741e-07 0 -2.0821e-08 -5.37371e-07 0 -1.38163e-08 -5.27382e-07 0 -6.8886e-09 -5.21426e-07 0 0 -5.19182e-07 0 9.09485e-07 -4.79411e-06 0 6.35947e-07 -4.31058e-06 0 4.38327e-07 -3.87601e-06 0 2.95695e-07 -3.48854e-06 0 1.92977e-07 -3.14445e-06 0 1.19269e-07 -2.83945e-06 0 6.66569e-08 -2.56901e-06 0 2.93884e-08 -2.32899e-06 0 3.28481e-09 -2.11615e-06 0 -1.47231e-08 -1.92602e-06 0 -2.6816e-08 -1.75609e-06 0 -3.46342e-08 -1.60553e-06 0 -3.93443e-08 -1.46969e-06 0 -4.17942e-08 -1.3486e-06 0 -4.26206e-08 -1.24011e-06 0 -4.22712e-08 -1.14203e-06 0 -4.10808e-08 -1.05518e-06 0 -3.92955e-08 -9.76825e-07 0 -3.70904e-08 -9.06599e-07 0 -3.45984e-08 -8.44424e-07 0 -3.19136e-08 -7.88645e-07 0 -2.91043e-08 -7.39566e-07 0 -2.62207e-08 -6.96393e-07 0 -2.32968e-08 -6.58336e-07 0 -2.03565e-08 -6.26068e-07 0 -1.74155e-08 -5.98342e-07 0 -1.44827e-08 -5.75208e-07 0 -1.15628e-08 -5.56795e-07 0 -8.65691e-09 -5.42351e-07 0 -5.76349e-09 -5.32308e-07 0 -2.87928e-09 -5.2632e-07 0 0 -5.24063e-07 0 1.36543e-06 -4.45559e-06 0 1.05671e-06 -4.05838e-06 0 8.20575e-07 -3.68807e-06 0 6.3988e-07 -3.34839e-06 0 5.01366e-07 -3.03984e-06 0 3.94903e-07 -2.76127e-06 0 3.1279e-07 -2.51051e-06 0 2.49197e-07 -2.28517e-06 0 1.99719e-07 -2.08324e-06 0 1.60997e-07 -1.90135e-06 0 1.30551e-07 -1.73762e-06 0 1.06444e-07 -1.59164e-06 0 8.72427e-08 -1.45933e-06 0 7.186e-08 -1.34088e-06 0 5.94443e-08 -1.23439e-06 0 4.9368e-08 -1.13788e-06 0 4.11373e-08 -1.05219e-06 0 3.43693e-08 -9.74746e-07 0 2.8774e-08 -9.05226e-07 0 2.4116e-08 -8.43586e-07 0 2.02144e-08 -7.88229e-07 0 1.69256e-08 -7.39474e-07 0 1.41312e-08 -6.96552e-07 0 1.17388e-08 -6.58692e-07 0 9.67131e-09 -6.26572e-07 0 7.86473e-09 -5.98961e-07 0 6.26692e-09 -5.75914e-07 0 4.83184e-09 -5.57566e-07 0 3.52074e-09 -5.43169e-07 0 2.29924e-09 -5.33157e-07 0 1.1353e-09 -5.27187e-07 0 0 -5.24937e-07 0 1.72763e-06 -4.09843e-06 0 1.4054e-06 -3.77851e-06 0 1.14782e-06 -3.4691e-06 0 9.42221e-07 -3.17694e-06 0 7.77957e-07 -2.90528e-06 0 6.4637e-07 -2.65527e-06 0 5.40539e-07 -2.42662e-06 0 4.54994e-07 -2.21842e-06 0 3.85447e-07 -2.02974e-06 0 3.2851e-07 -1.85824e-06 0 2.81601e-07 -1.70268e-06 0 2.42638e-07 -1.563e-06 0 2.10034e-07 -1.43575e-06 0 1.82548e-07 -1.32127e-06 0 1.59178e-07 -1.21796e-06 0 1.39164e-07 -1.12404e-06 0 1.2189e-07 -1.04039e-06 0 1.06863e-07 -9.64627e-07 0 9.3698e-08 -8.96487e-07 0 8.20719e-08 -8.35964e-07 0 7.17287e-08 -7.81542e-07 0 6.24579e-08 -7.3355e-07 0 5.40795e-08 -6.91259e-07 0 4.64478e-08 -6.53927e-07 0 3.94361e-08 -6.2223e-07 0 3.29353e-08 -5.94968e-07 0 2.68522e-08 -5.72203e-07 0 2.11016e-08 -5.54072e-07 0 1.56083e-08 -5.39841e-07 0 1.03036e-08 -5.29942e-07 0 5.1212e-09 -5.24039e-07 0 0 -5.21814e-07 0 2.01646e-06 -3.7416e-06 0 1.69423e-06 -3.48717e-06 0 1.42709e-06 -3.23224e-06 0 1.2065e-06 -2.98458e-06 0 1.02452e-06 -2.74888e-06 0 8.74199e-07 -2.52772e-06 0 7.49693e-07 -2.32218e-06 0 6.4615e-07 -2.13246e-06 0 5.59621e-07 -1.95851e-06 0 4.86877e-07 -1.79891e-06 0 4.25381e-07 -1.65296e-06 0 3.73028e-07 -1.52091e-06 0 3.28165e-07 -1.39995e-06 0 2.89473e-07 -1.29057e-06 0 2.55857e-07 -1.19142e-06 0 2.26466e-07 -1.10098e-06 0 2.00595e-07 -1.02015e-06 0 1.77666e-07 -9.46769e-07 0 1.5722e-07 -8.80624e-07 0 1.38861e-07 -8.21755e-07 0 1.2227e-07 -7.68741e-07 0 1.07178e-07 -7.21925e-07 0 9.33502e-08 -6.80623e-07 0 8.05937e-08 -6.44131e-07 0 6.87365e-08 -6.1312e-07 0 5.76274e-08 -5.86432e-07 0 4.71353e-08 -5.64133e-07 0 3.71377e-08 -5.46365e-07 0 2.75253e-08 -5.32415e-07 0 1.81964e-08 -5.22709e-07 0 9.05194e-09 -5.1692e-07 0 0 -5.14738e-07 0 2.23437e-06 -3.3964e-06 0 1.92171e-06 -3.19561e-06 0 1.65476e-06 -2.98758e-06 0 1.42808e-06 -2.7799e-06 0 1.23611e-06 -2.57772e-06 0 1.07356e-06 -2.38438e-06 0 9.35738e-07 -2.20179e-06 0 8.18565e-07 -2.03096e-06 0 7.18585e-07 -1.87248e-06 0 6.32876e-07 -1.72566e-06 0 5.59073e-07 -1.59027e-06 0 4.95157e-07 -1.46682e-06 0 4.39506e-07 -1.35309e-06 0 3.90788e-07 -1.24967e-06 0 3.47879e-07 -1.1555e-06 0 3.09884e-07 -1.06929e-06 0 2.76045e-07 -9.91954e-07 0 2.45732e-07 -9.21558e-07 0 2.18431e-07 -8.57954e-07 0 1.93695e-07 -8.0122e-07 0 1.71155e-07 -7.50047e-07 0 1.50495e-07 -7.04785e-07 0 1.31436e-07 -6.64803e-07 0 1.13744e-07 -6.29443e-07 0 9.72072e-08 -5.99364e-07 0 8.16374e-08 -5.73459e-07 0 6.68695e-08 -5.51802e-07 0 5.2747e-08 -5.34536e-07 0 3.91292e-08 -5.20975e-07 0 2.58836e-08 -5.11538e-07 0 1.28809e-08 -5.05907e-07 0 0 -5.03785e-07 0 2.40548e-06 -3.06851e-06 0 2.10655e-06 -2.91085e-06 0 1.84488e-06 -2.74222e-06 0 1.61735e-06 -2.56944e-06 0 1.42028e-06 -2.39756e-06 0 1.24989e-06 -2.23015e-06 0 1.10254e-06 -2.06957e-06 0 9.74958e-07 -1.91731e-06 0 8.64221e-07 -1.77441e-06 0 7.67785e-07 -1.64074e-06 0 6.8352e-07 -1.51645e-06 0 6.09563e-07 -1.40222e-06 0 5.44372e-07 -1.29638e-06 0 4.86658e-07 -1.19957e-06 0 4.35305e-07 -1.11101e-06 0 3.89407e-07 -1.02963e-06 0 3.48185e-07 -9.56344e-07 0 3.10976e-07 -8.8945e-07 0 2.77232e-07 -8.28857e-07 0 2.46467e-07 -7.74683e-07 0 2.18276e-07 -7.25734e-07 0 1.92306e-07 -6.82366e-07 0 1.68239e-07 -6.44006e-07 0 1.45808e-07 -6.10043e-07 0 1.24767e-07 -5.8112e-07 0 1.04894e-07 -5.56194e-07 0 8.5995e-08 -5.35341e-07 0 6.78813e-08 -5.18707e-07 0 5.03835e-08 -5.05637e-07 0 3.33409e-08 -4.96539e-07 0 1.65958e-08 -4.9111e-07 0 0 -4.89063e-07 0 2.53777e-06 -2.76008e-06 0 2.2545e-06 -2.63672e-06 0 2.00129e-06 -2.50067e-06 0 1.77662e-06 -2.35779e-06 0 1.57826e-06 -2.2127e-06 0 1.4036e-06 -2.06889e-06 0 1.24999e-06 -1.92888e-06 0 1.11486e-06 -1.7944e-06 0 9.95853e-07 -1.66674e-06 0 8.90811e-07 -1.54621e-06 0 7.97885e-07 -1.43321e-06 0 7.15401e-07 -1.32854e-06 0 6.41946e-07 -1.23098e-06 0 5.76306e-07 -1.14125e-06 0 5.17408e-07 -1.05877e-06 0 4.64366e-07 -9.8268e-07 0 4.16401e-07 -9.13897e-07 0 3.72841e-07 -8.5093e-07 0 3.33119e-07 -7.93747e-07 0 2.96726e-07 -7.42498e-07 0 2.63231e-07 -6.96107e-07 0 2.32253e-07 -6.54935e-07 0 2.03446e-07 -6.18465e-07 0 1.76514e-07 -5.86139e-07 0 1.51183e-07 -5.58579e-07 0 1.27203e-07 -5.34809e-07 0 1.04351e-07 -5.14909e-07 0 8.24138e-08 -4.99026e-07 0 6.11941e-08 -4.86542e-07 0 4.05061e-08 -4.77848e-07 0 2.01657e-08 -4.72659e-07 0 0 -4.70702e-07 0 2.63731e-06 -2.47129e-06 0 2.37009e-06 -2.37509e-06 0 2.12707e-06 -2.26575e-06 0 1.90776e-06 -2.14818e-06 0 1.71092e-06 -2.02643e-06 0 1.53488e-06 -1.90373e-06 0 1.37776e-06 -1.78257e-06 0 1.23762e-06 -1.66476e-06 0 1.11262e-06 -1.55169e-06 0 1.00098e-06 -1.44398e-06 0 9.01141e-07 -1.34217e-06 0 8.11645e-07 -1.24716e-06 0 7.31227e-07 -1.15809e-06 0 6.58778e-07 -1.07571e-06 0 5.93295e-07 -9.99624e-07 0 5.33932e-07 -9.29173e-07 0 4.79932e-07 -8.65233e-07 0 4.30632e-07 -8.06533e-07 0 3.85462e-07 -7.53085e-07 0 3.43905e-07 -7.05065e-07 0 3.05513e-07 -6.61519e-07 0 2.69887e-07 -6.22802e-07 0 2.36661e-07 -5.88457e-07 0 2.05518e-07 -5.5798e-07 0 1.76159e-07 -5.31967e-07 0 1.48313e-07 -5.09512e-07 0 1.21734e-07 -4.907e-07 0 9.61825e-08 -4.75676e-07 0 7.14407e-08 -4.63863e-07 0 4.72993e-08 -4.55633e-07 0 2.35508e-08 -4.5072e-07 0 0 -4.48867e-07 0 2.71488e-06 -2.20125e-06 0 2.46319e-06 -2.1265e-06 0 2.23086e-06 -2.03893e-06 0 2.01808e-06 -1.9426e-06 0 1.82434e-06 -1.84097e-06 0 1.64867e-06 -1.73694e-06 0 1.48982e-06 -1.63282e-06 0 1.34641e-06 -1.5304e-06 0 1.21702e-06 -1.43109e-06 0 1.10027e-06 -1.33566e-06 0 9.94838e-07 -1.24478e-06 0 8.99505e-07 -1.15933e-06 0 8.13161e-07 -1.07879e-06 0 7.3481e-07 -1.00389e-06 0 6.63535e-07 -9.34396e-07 0 5.98545e-07 -8.69809e-07 0 5.39119e-07 -8.10965e-07 0 4.84613e-07 -7.56792e-07 0 4.34466e-07 -7.07337e-07 0 3.8816e-07 -6.62798e-07 0 3.45241e-07 -6.22335e-07 0 3.053e-07 -5.86295e-07 0 2.67955e-07 -5.54279e-07 0 2.32872e-07 -5.25835e-07 0 1.99736e-07 -5.01529e-07 0 1.68255e-07 -4.80531e-07 0 1.38163e-07 -4.62928e-07 0 1.09203e-07 -4.4886e-07 0 8.11341e-08 -4.37794e-07 0 5.37273e-08 -4.30081e-07 0 2.67545e-08 -4.25477e-07 0 0 -4.2374e-07 0 2.77304e-06 -1.94851e-06 0 2.53576e-06 -1.89067e-06 0 2.31399e-06 -1.8208e-06 0 2.10831e-06 -1.74219e-06 0 1.91872e-06 -1.6578e-06 0 1.74475e-06 -1.57013e-06 0 1.58565e-06 -1.48129e-06 0 1.44047e-06 -1.39294e-06 0 1.30818e-06 -1.30644e-06 0 1.18768e-06 -1.22264e-06 0 1.07795e-06 -1.14226e-06 0 9.77947e-07 -1.06617e-06 0 8.86729e-07 -9.94068e-07 0 8.03422e-07 -9.26665e-07 0 7.27198e-07 -8.63854e-07 0 6.57332e-07 -8.05271e-07 0 5.93149e-07 -7.51697e-07 0 5.34034e-07 -7.02241e-07 0 4.79443e-07 -6.56981e-07 0 4.28868e-07 -6.16121e-07 0 3.81854e-07 -5.78936e-07 0 3.37988e-07 -5.45759e-07 0 2.96881e-07 -5.16243e-07 0 2.58187e-07 -4.89992e-07 0 2.21577e-07 -4.67533e-07 0 1.86744e-07 -4.48116e-07 0 1.53406e-07 -4.31826e-07 0 1.21289e-07 -4.188e-07 0 9.01355e-08 -4.08549e-07 0 5.96982e-08 -4.01403e-07 0 2.97308e-08 -3.97135e-07 0 0 -3.95525e-07 0 2.81692e-06 -1.71135e-06 0 2.59273e-06 -1.66684e-06 0 2.38096e-06 -1.61133e-06 0 2.18243e-06 -1.54751e-06 0 1.99747e-06 -1.47784e-06 0 1.82598e-06 -1.40445e-06 0 1.66758e-06 -1.32921e-06 0 1.52168e-06 -1.25363e-06 0 1.38755e-06 -1.17897e-06 0 1.26437e-06 -1.1061e-06 0 1.15135e-06 -1.03573e-06 0 1.04763e-06 -9.68678e-07 0 9.52416e-07 -9.04839e-07 0 8.6496e-07 -8.44865e-07 0 7.84525e-07 -7.88746e-07 0 7.10453e-07 -7.36227e-07 0 6.4212e-07 -6.88031e-07 0 5.78946e-07 -6.43423e-07 0 5.20412e-07 -6.02503e-07 0 4.66022e-07 -5.65478e-07 0 4.15329e-07 -5.31725e-07 0 3.6792e-07 -5.01561e-07 0 3.23402e-07 -4.74689e-07 0 2.81422e-07 -4.50763e-07 0 2.41642e-07 -4.3027e-07 0 2.03742e-07 -4.1254e-07 0 1.6743e-07 -3.97655e-07 0 1.32414e-07 -3.85746e-07 0 9.8424e-08 -3.7637e-07 0 6.51976e-08 -3.69831e-07 0 3.24725e-08 -3.65926e-07 0 0 -3.64452e-07 0 2.85049e-06 -1.48803e-06 0 2.63806e-06 -1.45399e-06 0 2.43553e-06 -1.41014e-06 0 2.24387e-06 -1.35865e-06 0 2.06364e-06 -1.30152e-06 0 1.89501e-06 -1.24058e-06 0 1.73789e-06 -1.17742e-06 0 1.59196e-06 -1.11339e-06 0 1.45674e-06 -1.04962e-06 0 1.33167e-06 -9.86953e-07 0 1.21612e-06 -9.26063e-07 0 1.10943e-06 -8.67702e-07 0 1.01093e-06 -8.11884e-07 0 9.19998e-07 -7.5921e-07 0 8.35974e-07 -7.09733e-07 0 7.58272e-07 -6.63286e-07 0 6.8632e-07 -6.20522e-07 0 6.19578e-07 -5.80846e-07 0 5.57553e-07 -5.44369e-07 0 4.99764e-07 -5.11295e-07 0 4.45776e-07 -4.81096e-07 0 3.95181e-07 -4.54064e-07 0 3.47584e-07 -4.29953e-07 0 3.02629e-07 -4.08463e-07 0 2.5997e-07 -3.90037e-07 0 2.1928e-07 -3.74084e-07 0 1.80255e-07 -3.60682e-07 0 1.42593e-07 -3.49954e-07 0 1.0601e-07 -3.41504e-07 0 7.02322e-08 -3.3561e-07 0 3.49829e-08 -3.32088e-07 0 0 -3.3076e-07 0 2.87452e-06 -1.27678e-06 0 2.6722e-06 -1.25096e-06 0 2.47783e-06 -1.21659e-06 0 2.29245e-06 -1.17537e-06 0 2.11677e-06 -1.12897e-06 0 1.95113e-06 -1.07887e-06 0 1.79566e-06 -1.02646e-06 0 1.65022e-06 -9.72871e-07 0 1.51457e-06 -9.19109e-07 0 1.38831e-06 -8.65949e-07 0 1.27098e-06 -8.14011e-07 0 1.16206e-06 -7.63962e-07 0 1.06102e-06 -7.159e-07 0 9.67305e-07 -6.7036e-07 0 8.80365e-07 -6.27436e-07 0 7.9967e-07 -5.87026e-07 0 7.24699e-07 -5.49708e-07 0 6.5495e-07 -5.1501e-07 0 5.89958e-07 -4.83043e-07 0 5.29263e-07 -4.54003e-07 0 4.7244e-07 -4.27448e-07 0 4.1909e-07 -4.03644e-07 0 3.6882e-07 -3.82387e-07 0 3.21272e-07 -3.63423e-07 0 2.76097e-07 -3.47147e-07 0 2.32962e-07 -3.33046e-07 0 1.91556e-07 -3.21193e-07 0 1.51566e-07 -3.117e-07 0 1.12701e-07 -3.0422e-07 0 7.46736e-08 -2.99001e-07 0 3.71978e-08 -2.95882e-07 0 0 -2.94706e-07 0 2.89252e-06 -1.07585e-06 0 2.69895e-06 -1.0565e-06 0 2.51175e-06 -1.02985e-06 0 2.33203e-06 -9.97261e-07 0 2.16055e-06 -9.60061e-07 0 1.99782e-06 -9.19476e-07 0 1.84408e-06 -8.76635e-07 0 1.69941e-06 -8.32515e-07 0 1.56367e-06 -7.87961e-07 0 1.43665e-06 -7.43665e-07 0 1.31801e-06 -7.00175e-07 0 1.20737e-06 -6.5807e-07 0 1.10429e-06 -6.1749e-07 0 1.00831e-06 -5.78901e-07 0 9.18951e-07 -5.42415e-07 0 8.35744e-07 -5.07981e-07 0 7.58216e-07 -4.76096e-07 0 6.85901e-07 -4.46391e-07 0 6.18361e-07 -4.18975e-07 0 5.55156e-07 -3.94026e-07 0 4.95876e-07 -3.71181e-07 0 4.40128e-07 -3.50678e-07 0 3.87523e-07 -3.32348e-07 0 3.37705e-07 -3.15981e-07 0 2.90323e-07 -3.01923e-07 0 2.45039e-07 -2.89735e-07 0 2.01535e-07 -2.79486e-07 0 1.59493e-07 -2.71272e-07 0 1.18612e-07 -2.64799e-07 0 7.85989e-08 -2.60281e-07 0 3.91556e-08 -2.57581e-07 0 0 -2.56562e-07 0 2.90558e-06 -8.83642e-07 0 2.71934e-06 -8.69374e-07 0 2.53824e-06 -8.49055e-07 0 2.36339e-06 -8.23755e-07 0 2.19564e-06 -7.94516e-07 0 2.03556e-06 -7.62316e-07 0 1.88353e-06 -7.28069e-07 0 1.73972e-06 -6.92573e-07 0 1.60414e-06 -6.56527e-07 0 1.47669e-06 -6.20521e-07 0 1.35714e-06 -5.85023e-07 0 1.24521e-06 -5.50515e-07 0 1.14054e-06 -5.17155e-07 0 1.04277e-06 -4.85332e-07 0 9.51463e-07 -4.55164e-07 0 8.66211e-07 -4.2663e-07 0 7.86582e-07 -4.00148e-07 0 7.12143e-07 -3.75434e-07 0 6.42481e-07 -3.52589e-07 0 5.77177e-07 -3.31767e-07 0 5.15831e-07 -3.12681e-07 0 4.58059e-07 -2.95531e-07 0 4.0348e-07 -2.80185e-07 0 3.51736e-07 -2.66472e-07 0 3.02477e-07 -2.54685e-07 0 2.55362e-07 -2.44461e-07 0 2.10069e-07 -2.35858e-07 0 1.66275e-07 -2.28962e-07 0 1.23672e-07 -2.23525e-07 0 8.19586e-08 -2.1973e-07 0 4.08315e-08 -2.17461e-07 0 0 -2.16605e-07 0 2.91459e-06 -6.98547e-07 0 2.7342e-06 -6.88294e-07 0 2.55803e-06 -6.73233e-07 0 2.38718e-06 -6.54172e-07 0 2.22253e-06 -6.31906e-07 0 2.06473e-06 -6.07189e-07 0 1.91423e-06 -5.80732e-07 0 1.77127e-06 -5.53165e-07 0 1.63598e-06 -5.25039e-07 0 1.50832e-06 -4.96836e-07 0 1.38817e-06 -4.68933e-07 0 1.27532e-06 -4.41717e-07 0 1.16949e-06 -4.15339e-07 0 1.07035e-06 -3.90111e-07 0 9.77552e-07 -3.66142e-07 0 8.90712e-07 -3.4343e-07 0 8.09436e-07 -3.22311e-07 0 7.33322e-07 -3.02575e-07 0 6.61976e-07 -2.84306e-07 0 5.94997e-07 -2.67635e-07 0 5.31997e-07 -2.52338e-07 0 4.72601e-07 -2.38581e-07 0 4.16431e-07 -2.2626e-07 0 3.63133e-07 -2.15245e-07 0 3.12355e-07 -2.0577e-07 0 2.63756e-07 -1.97547e-07 0 2.17012e-07 -1.90627e-07 0 1.71794e-07 -1.85077e-07 0 1.2779e-07 -1.807e-07 0 8.46939e-08 -1.77644e-07 0 4.2196e-08 -1.75818e-07 0 0 -1.75128e-07 0 2.92093e-06 -5.19068e-07 0 2.74514e-06 -5.12033e-07 0 2.57286e-06 -5.01413e-07 0 2.4052e-06 -4.87787e-07 0 2.24307e-06 -4.71731e-07 0 2.08714e-06 -4.53793e-07 0 1.93791e-06 -4.34494e-07 0 1.79572e-06 -4.14301e-07 0 1.66073e-06 -3.93622e-07 0 1.53299e-06 -3.72822e-07 0 1.41244e-06 -3.52188e-07 0 1.29893e-06 -3.32009e-07 0 1.19223e-06 -3.12411e-07 0 1.09207e-06 -2.9363e-07 0 9.98127e-07 -2.75755e-07 0 9.10064e-07 -2.58793e-07 0 8.27512e-07 -2.42997e-07 0 7.50092e-07 -2.28218e-07 0 6.7743e-07 -2.14524e-07 0 6.09136e-07 -2.02015e-07 0 5.44835e-07 -1.90529e-07 0 4.84156e-07 -1.80191e-07 0 4.26728e-07 -1.70927e-07 0 3.72198e-07 -1.6264e-07 0 3.20216e-07 -1.55508e-07 0 2.70439e-07 -1.49317e-07 0 2.2254e-07 -1.44105e-07 0 1.76189e-07 -1.39923e-07 0 1.3107e-07 -1.36626e-07 0 8.68733e-08 -1.34323e-07 0 4.32833e-08 -1.32946e-07 0 0 -1.32426e-07 0 2.92492e-06 -3.43762e-07 0 2.75232e-06 -3.39375e-07 0 2.58276e-06 -3.32608e-07 0 2.41736e-06 -3.23836e-07 0 2.25701e-06 -3.13432e-07 0 2.10243e-06 -3.01755e-07 0 1.95415e-06 -2.89145e-07 0 1.81253e-06 -2.7591e-07 0 1.67781e-06 -2.62322e-07 0 1.55006e-06 -2.48624e-07 0 1.42927e-06 -2.35008e-07 0 1.31533e-06 -2.21667e-07 0 1.20806e-06 -2.08692e-07 0 1.10721e-06 -1.96239e-07 0 1.0125e-06 -1.84372e-07 0 9.23595e-07 -1.731e-07 0 8.40166e-07 -1.62591e-07 0 7.61844e-07 -1.52751e-07 0 6.88268e-07 -1.43627e-07 0 6.1906e-07 -1.35286e-07 0 5.53852e-07 -1.27623e-07 0 4.92278e-07 -1.20722e-07 0 4.33969e-07 -1.14535e-07 0 3.78576e-07 -1.08999e-07 0 3.25749e-07 -1.04233e-07 0 2.75144e-07 -1.00094e-07 0 2.26434e-07 -9.6609e-08 0 1.79286e-07 -9.38127e-08 0 1.33381e-07 -9.16071e-08 0 8.84087e-08 -9.00665e-08 0 4.40494e-08 -8.91454e-08 0 0 -8.87978e-08 0 2.92713e-06 -1.71193e-07 0 2.75644e-06 -1.69089e-07 0 2.58851e-06 -1.65799e-07 0 2.42446e-06 -1.61506e-07 0 2.26519e-06 -1.56394e-07 0 2.11144e-06 -1.5064e-07 0 1.96374e-06 -1.44412e-07 0 1.82249e-06 -1.37864e-07 0 1.68794e-06 -1.31129e-07 0 1.5602e-06 -1.24331e-07 0 1.43929e-06 -1.17566e-07 0 1.32511e-06 -1.1093e-07 0 1.2175e-06 -1.0447e-07 0 1.11625e-06 -9.82643e-08 0 1.02108e-06 -9.23465e-08 0 9.3169e-07 -8.67216e-08 0 8.47742e-07 -8.14741e-08 0 7.68884e-07 -7.65582e-08 0 6.94765e-07 -7.19976e-08 0 6.25013e-07 -6.78268e-08 0 5.59262e-07 -6.39936e-08 0 4.97152e-07 -6.05406e-08 0 4.38317e-07 -5.74442e-08 0 3.82407e-07 -5.46727e-08 0 3.29073e-07 -5.22862e-08 0 2.77971e-07 -5.02136e-08 0 2.28773e-07 -4.8468e-08 0 1.81146e-07 -4.70672e-08 0 1.34771e-07 -4.59622e-08 0 8.93317e-08 -4.51904e-08 0 4.451e-08 -4.47289e-08 0 0 -4.45548e-08 0 2.92794e-06 -0 0 2.75796e-06 -0 0 2.59065e-06 -0 0 2.42712e-06 -0 0 2.26826e-06 -0 0 2.11481e-06 -0 0 1.96733e-06 -0 0 1.82623e-06 -0 0 1.69175e-06 -0 0 1.56402e-06 -0 0 1.44306e-06 -0 0 1.32879e-06 -0 0 1.22107e-06 -0 0 1.11967e-06 -0 0 1.02432e-06 -0 0 9.34746e-07 -0 0 8.50602e-07 -0 0 7.71544e-07 -0 0 6.9722e-07 -0 0 6.27262e-07 -0 0 5.61307e-07 -0 0 4.98995e-07 -0 0 4.39961e-07 -0 0 3.83855e-07 -0 0 3.3033e-07 -0 0 2.7904e-07 -0 0 2.29659e-07 -0 0 1.81851e-07 -0 0 1.35296e-07 -0 0 8.96809e-08 -0 0 4.46842e-08 -0 0 0 -0 0 </DataArray> 
</PointData> 
<Points> 
<DataArray type="Float32" NumberOfComponents="3"> 