<?xml version="1.0"?> 
<VTKFile type="StructuredGrid" version="0.1"> 
<StructuredGrid WholeExtent="0 31 0 31 0 0"> 
<Piece Extent="0 31 0 31 0 0"> 
<PointData>
<DataArray type="Float32" Name="B" format="ascii" NumberOfComponents="3"> 
3.29431e-05 9.43467e-05 0 6.54176e-05 6.22607e-07 0 6.6975e-05 -9.83978e-07 0 7.29851e-05 -1.45991e-06 0 8.07e-05 -1.6916e-06 0 8.92249e-05 -1.78852e-06 0 9.79583e-05 -1.77411e-06 0 0.000106401 -1.668e-06 0 0.000114173 -1.49767e-06 0 0.000121031 -1.29343e-06 0 0.000126862 -1.07705e-06 0 0.000131638 -8.6246e-07 0 0.000135381 -6.56201e-07 0 0.000138135 -4.59869e-07 0 0.000139942 -2.72124e-07 0 0.000140837 -9.00458e-08 0 0.000140837 9.00458e-08 0 0.000139942 2.72124e-07 0 0.000138135 4.59869e-07 0 0.000135381 6.56201e-07 0 0.000131638 8.6246e-07 0 0.000126862 1.07705e-06 0 0.000121031 1.29343e-06 0 0.000114173 1.49767e-06 0 0.000106401 1.668e-06 0 9.79583e-05 1.77411e-06 0 8.92249e-05 1.78852e-06 0 8.07e-05 1.6916e-06 0 7.29851e-05 1.45991e-06 0 6.6975e-05 9.83978e-07 0 6.54176e-05 -6.22607e-07 0 3.29431e-05 -9.43467e-05 0 4.78977e-05 5.21909e-06 0 5.8426e-05 -1.81057e-06 0 6.47984e-05 -6.44507e-06 0 7.19193e-05 -8.79179e-06 0 8.0155e-05 -1.00939e-05 0 8.90906e-05 -1.06566e-05 0 9.81826e-05 -1.05594e-05 0 0.000106899 -9.91163e-06 0 0.000114838 -8.88441e-06 0 0.000121771 -7.663e-06 0 0.000127614 -6.37646e-06 0 0.000132368 -5.10465e-06 0 0.000136078 -3.88389e-06 0 0.000138799 -2.7222e-06 0 0.000140582 -1.61107e-06 0 0.000141463 -5.33152e-07 0 0.000141463 5.33152e-07 0 0.000140582 1.61107e-06 0 0.000138799 2.7222e-06 0 0.000136078 3.88389e-06 0 0.000132368 5.10465e-06 0 0.000127614 6.37646e-06 0 0.000121771 7.663e-06 0 0.000114838 8.88441e-06 0 0.000106899 9.91163e-06 0 9.81826e-05 1.05594e-05 0 8.90906e-05 1.06566e-05 0 8.0155e-05 1.00939e-05 0 7.19193e-05 8.79179e-06 0 6.47984e-05 6.44507e-06 0 5.8426e-05 1.81057e-06 0 4.78977e-05 -5.21909e-06 0 4.4477e-05 -5.95626e-06 0 5.32711e-05 -9.77888e-06 0 6.13275e-05 -1.38314e-05 0 6.96824e-05 -1.70318e-05 0 7.88923e-05 -1.92072e-05 0 8.88015e-05 -2.0197e-05 0 9.88066e-05 -1.99088e-05 0 0.000108205 -1.8532e-05 0 0.000116531 -1.64612e-05 0 0.000123614 -1.40876e-05 0 0.000129459 -1.16537e-05 0 0.000134144 -9.29102e-06 0 0.000137763 -7.04985e-06 0 0.000140399 -4.93269e-06 0 0.000142119 -2.91637e-06 0 0.000142968 -9.64667e-07 0 0.000142968 9.64667e-07 0 0.000142119 2.91637e-06 0 0.000140399 4.93269e-06 0 0.000137763 7.04985e-06 0 0.000134144 9.29102e-06 0 0.000129459 1.16537e-05 0 0.000123614 1.40876e-05 0 0.000116531 1.64612e-05 0 0.000108205 1.8532e-05 0 9.88066e-05 1.99088e-05 0 8.88015e-05 2.0197e-05 0 7.88923e-05 1.92072e-05 0 6.96824e-05 1.70318e-05 0 6.13275e-05 1.38314e-05 0 5.32711e-05 9.77888e-06 0 4.4477e-05 5.95626e-06 0 4.14503e-05 -1.41935e-05 0 4.91828e-05 -1.79309e-05 0 5.73924e-05 -2.21916e-05 0 6.64764e-05 -2.62708e-05 0 7.68523e-05 -2.95096e-05 0 8.83987e-05 -3.10774e-05 0 0.000100087 -3.03874e-05 0 0.000110636 -2.78327e-05 0 0.000119496 -2.43246e-05 0 0.000126703 -2.05511e-05 0 0.000132465 -1.6846e-05 0 0.000136985 -1.33482e-05 0 0.000140426 -1.00877e-05 0 0.00014291 -7.04057e-06 0 0.000144523 -4.15657e-06 0 0.000145316 -1.37398e-06 0 0.000145316 1.37398e-06 0 0.000144523 4.15657e-06 0 0.00014291 7.04057e-06 0 0.000140426 1.00877e-05 0 0.000136985 1.33482e-05 0 0.000132465 1.6846e-05 0 0.000126703 2.05511e-05 0 0.000119496 2.43246e-05 0 0.000110636 2.78327e-05 0 0.000100087 3.03874e-05 0 8.83987e-05 3.10774e-05 0 7.68523e-05 2.95096e-05 0 6.64764e-05 2.62708e-05 0 5.73924e-05 2.21916e-05 0 4.91828e-05 1.79309e-05 0 4.14503e-05 1.41935e-05 0 3.78792e-05 -2.11456e-05 0 4.47369e-05 -2.55698e-05 0 5.25797e-05 -3.07533e-05 0 6.18943e-05 -3.63044e-05 0 7.34581e-05 -4.14853e-05 0 8.77864e-05 -4.44509e-05 0 0.000102686 -4.28148e-05 0 0.000114849 -3.80167e-05 0 0.00012413 -3.24063e-05 0 0.000131234 -2.69125e-05 0 0.000136704 -2.18136e-05 0 0.000140895 -1.71594e-05 0 0.000144039 -1.29086e-05 0 0.000146289 -8.98393e-06 0 0.000147741 -5.29533e-06 0 0.000148453 -1.74911e-06 0 0.000148453 1.74911e-06 0 0.000147741 5.29533e-06 0 0.000146289 8.98393e-06 0 0.000144039 1.29086e-05 0 0.000140895 1.71594e-05 0 0.000136704 2.18136e-05 0 0.000131234 2.69125e-05 0 0.00012413 3.24063e-05 0 0.000114849 3.80167e-05 0 0.000102686 4.28148e-05 0 8.77864e-05 4.44509e-05 0 7.34581e-05 4.14853e-05 0 6.18943e-05 3.63044e-05 0 5.25797e-05 3.07533e-05 0 4.47369e-05 2.55698e-05 0 3.78792e-05 2.11456e-05 0 3.35068e-05 -2.70802e-05 0 3.93665e-05 -3.24246e-05 0 4.63446e-05 -3.89068e-05 0 5.50736e-05 -4.65472e-05 0 6.68926e-05 -5.52706e-05 0 8.57302e-05 -6.39024e-05 0 0.000108867 -5.81469e-05 0 0.000122013 -4.87532e-05 0 0.000130932 -4.02889e-05 0 0.000137402 -3.28453e-05 0 0.000142234 -2.6323e-05 0 0.00014587 -2.05622e-05 0 0.000148569 -1.54019e-05 0 0.000150488 -1.06915e-05 0 0.000151723 -6.2927e-06 0 0.000152328 -2.0772e-06 0 0.000152328 2.0772e-06 0 0.000151723 6.2927e-06 0 0.000150488 1.06915e-05 0 0.000148569 1.54019e-05 0 0.00014587 2.05622e-05 0 0.000142234 2.6323e-05 0 0.000137402 3.28453e-05 0 0.000130932 4.02889e-05 0 0.000122013 4.87532e-05 0 0.000108867 5.81469e-05 0 8.57302e-05 6.39024e-05 0 6.68926e-05 5.52706e-05 0 5.50736e-05 4.65472e-05 0 4.63446e-05 3.89068e-05 0 3.93665e-05 3.24246e-05 0 3.35068e-05 2.70802e-05 0 2.83288e-05 -3.19254e-05 0 3.29345e-05 -3.81351e-05 0 3.84588e-05 -4.5893e-05 0 4.54239e-05 -5.56468e-05 0 5.48035e-05 -6.82729e-05 0 6.79085e-05 -8.62585e-05 0 8.2033e-05 -7.31514e-05 0 9.22572e-05 -5.84388e-05 0 9.93356e-05 -4.71133e-05 0 0.000104432 -3.78522e-05 0 0.000108211 -3.00712e-05 0 0.000111045 -2.33667e-05 0 0.000113148 -1.74481e-05 0 0.000114646 -1.20903e-05 0 0.000115611 -7.10915e-06 0 0.000116084 -2.34573e-06 0 0.000116084 2.34573e-06 0 0.000115611 7.10915e-06 0 0.000114646 1.20903e-05 0 0.000113148 1.74481e-05 0 0.000111045 2.33667e-05 0 0.000108211 3.00712e-05 0 0.000104432 3.78522e-05 0 9.93356e-05 4.71133e-05 0 9.22572e-05 5.84388e-05 0 8.2033e-05 7.31514e-05 0 6.79085e-05 8.62585e-05 0 5.48035e-05 6.82729e-05 0 4.54239e-05 5.56468e-05 0 3.84588e-05 4.5893e-05 0 3.29345e-05 3.81351e-05 0 2.83288e-05 3.19254e-05 0 2.25132e-05 -3.55224e-05 0 2.56265e-05 -4.23196e-05 0 2.92062e-05 -5.09376e-05 0 3.34787e-05 -6.20528e-05 0 3.87623e-05 -7.67557e-05 0 4.51201e-05 -9.66793e-05 0 5.16215e-05 -8.22726e-05 0 5.70318e-05 -6.50653e-05 0 6.11342e-05 -5.19135e-05 0 6.42313e-05 -4.14133e-05 0 6.66057e-05 -3.27606e-05 0 6.84354e-05 -2.53965e-05 0 6.98234e-05 -1.8941e-05 0 7.08286e-05 -1.31177e-05 0 7.14842e-05 -7.71171e-06 0 7.1808e-05 -2.54441e-06 0 7.1808e-05 2.54441e-06 0 7.14842e-05 7.71171e-06 0 7.08286e-05 1.31177e-05 0 6.98234e-05 1.8941e-05 0 6.84354e-05 2.53965e-05 0 6.66057e-05 3.27606e-05 0 6.42313e-05 4.14133e-05 0 6.11342e-05 5.19135e-05 0 5.70318e-05 6.50653e-05 0 5.16215e-05 8.22726e-05 0 4.51201e-05 9.66793e-05 0 3.87623e-05 7.67557e-05 0 3.34787e-05 6.20528e-05 0 2.92062e-05 5.09376e-05 0 2.56265e-05 4.23196e-05 0 2.25132e-05 3.55224e-05 0 1.63587e-05 -3.77542e-05 0 1.78727e-05 -4.47204e-05 0 1.9286e-05 -5.35505e-05 0 2.05086e-05 -6.497e-05 0 2.14454e-05 -8.0067e-05 0 2.20696e-05 -0.000100244 0 2.25672e-05 -8.5552e-05 0 2.31689e-05 -6.77716e-05 0 2.39149e-05 -5.40931e-05 0 2.47281e-05 -4.31778e-05 0 2.55276e-05 -3.41897e-05 0 2.62554e-05 -2.65352e-05 0 2.68729e-05 -1.9813e-05 0 2.73546e-05 -1.3735e-05 0 2.7684e-05 -8.08037e-06 0 2.7851e-05 -2.66704e-06 0 2.7851e-05 2.66704e-06 0 2.7684e-05 8.08037e-06 0 2.73546e-05 1.3735e-05 0 2.68729e-05 1.9813e-05 0 2.62554e-05 2.65352e-05 0 2.55276e-05 3.41897e-05 0 2.47281e-05 4.31778e-05 0 2.39149e-05 5.40931e-05 0 2.31689e-05 6.77716e-05 0 2.25672e-05 8.5552e-05 0 2.20696e-05 0.000100244 0 2.14454e-05 8.0067e-05 0 2.05086e-05 6.497e-05 0 1.9286e-05 5.35505e-05 0 1.78727e-05 4.47204e-05 0 1.63587e-05 3.77542e-05 0 1.02296e-05 -3.86195e-05 0 1.02164e-05 -4.52989e-05 0 9.55237e-06 -5.3637e-05 0 7.82768e-06 -6.42705e-05 0 4.46126e-06 -7.82873e-05 0 -7.64904e-07 -9.7631e-05 0 -6.31384e-06 -8.32795e-05 0 -1.05425e-05 -6.64517e-05 0 -1.30618e-05 -5.35301e-05 0 -1.44505e-05 -4.30694e-05 0 -1.51698e-05 -3.43169e-05 0 -1.55068e-05 -2.67612e-05 0 -1.56353e-05 -2.00531e-05 0 -1.56611e-05 -1.39371e-05 0 -1.56483e-05 -8.21281e-06 0 -1.56335e-05 -2.71298e-06 0 -1.56335e-05 2.71298e-06 0 -1.56483e-05 8.21281e-06 0 -1.56611e-05 1.39371e-05 0 -1.56353e-05 2.00531e-05 0 -1.55068e-05 2.67612e-05 0 -1.51698e-05 3.43169e-05 0 -1.44505e-05 4.30694e-05 0 -1.30618e-05 5.35301e-05 0 -1.05425e-05 6.64517e-05 0 -6.31384e-06 8.32795e-05 0 -7.64904e-07 9.7631e-05 0 4.46126e-06 7.82873e-05 0 7.82768e-06 6.42705e-05 0 9.55237e-06 5.3637e-05 0 1.02164e-05 4.52989e-05 0 1.02296e-05 3.86195e-05 0 4.46023e-06 -3.82504e-05 0 3.16189e-06 -4.4251e-05 0 8.04089e-07 -5.14889e-05 0 -3.28201e-06 -6.03155e-05 0 -1.03613e-05 -7.13572e-05 0 -2.31644e-05 -8.67492e-05 0 -3.86673e-05 -7.48833e-05 0 -4.74298e-05 -6.14222e-05 0 -5.25762e-05 -5.05412e-05 0 -5.57308e-05 -4.12972e-05 0 -5.77035e-05 -3.32713e-05 0 -5.8945e-05 -2.61539e-05 0 -5.97216e-05 -1.97106e-05 0 -6.01955e-05 -1.37535e-05 0 -6.04649e-05 -8.12499e-06 0 -6.05867e-05 -2.68728e-06 0 -6.05867e-05 2.68728e-06 0 -6.04649e-05 8.12499e-06 0 -6.01955e-05 1.37535e-05 0 -5.97216e-05 1.97106e-05 0 -5.8945e-05 2.61539e-05 0 -5.77035e-05 3.32713e-05 0 -5.57308e-05 4.12972e-05 0 -5.25762e-05 5.05412e-05 0 -4.74298e-05 6.14222e-05 0 -3.86673e-05 7.48833e-05 0 -2.31644e-05 8.67492e-05 0 -1.03613e-05 7.13572e-05 0 -3.28201e-06 6.03155e-05 0 8.04089e-07 5.14889e-05 0 3.16189e-06 4.4251e-05 0 4.46023e-06 3.82504e-05 0 -6.2187e-07 -3.69002e-05 0 -2.80992e-06 -4.19833e-05 0 -6.19943e-06 -4.77888e-05 0 -1.14439e-05 -5.42743e-05 0 -1.97193e-05 -6.1066e-05 0 -3.35903e-05 -6.5818e-05 0 -5.02904e-05 -6.20879e-05 0 -6.01716e-05 -5.40727e-05 0 -6.6432e-05 -4.59413e-05 0 -7.05605e-05 -3.83316e-05 0 -7.3335e-05 -3.13307e-05 0 -7.52109e-05 -2.48818e-05 0 -7.64701e-05 -1.88886e-05 0 -7.72906e-05 -1.32459e-05 0 -7.77839e-05 -7.84981e-06 0 -7.80154e-05 -2.60025e-06 0 -7.80154e-05 2.60025e-06 0 -7.77839e-05 7.84981e-06 0 -7.72906e-05 1.32459e-05 0 -7.64701e-05 1.88886e-05 0 -7.52109e-05 2.48818e-05 0 -7.3335e-05 3.13307e-05 0 -7.05605e-05 3.83316e-05 0 -6.6432e-05 4.59413e-05 0 -6.01716e-05 5.40727e-05 0 -5.02904e-05 6.20879e-05 0 -3.35903e-05 6.5818e-05 0 -1.97193e-05 6.1066e-05 0 -1.14439e-05 5.42743e-05 0 -6.19943e-06 4.77888e-05 0 -2.80992e-06 4.19833e-05 0 -6.2187e-07 3.69002e-05 0 -4.97836e-06 -3.48721e-05 0 -7.69747e-06 -3.89809e-05 0 -1.15418e-05 -4.33685e-05 0 -1.69371e-05 -4.77603e-05 0 -2.43622e-05 -5.14738e-05 0 -3.38559e-05 -5.31722e-05 0 -4.38978e-05 -5.11691e-05 0 -5.21347e-05 -4.6531e-05 0 -5.82566e-05 -4.0754e-05 0 -6.26784e-05 -3.47397e-05 0 -6.58492e-05 -2.88329e-05 0 -6.81066e-05 -2.31535e-05 0 -6.96877e-05 -1.77172e-05 0 -7.0754e-05 -1.24933e-05 0 -7.14119e-05 -7.42972e-06 0 -7.17257e-05 -2.46531e-06 0 -7.17257e-05 2.46531e-06 0 -7.14119e-05 7.42972e-06 0 -7.0754e-05 1.24933e-05 0 -6.96877e-05 1.77172e-05 0 -6.81066e-05 2.31535e-05 0 -6.58492e-05 2.88329e-05 0 -6.26784e-05 3.47397e-05 0 -5.82566e-05 4.0754e-05 0 -5.21347e-05 4.6531e-05 0 -4.38978e-05 5.11691e-05 0 -3.38559e-05 5.31722e-05 0 -2.43622e-05 5.14738e-05 0 -1.69371e-05 4.77603e-05 0 -1.15418e-05 4.33685e-05 0 -7.69747e-06 3.89809e-05 0 -4.97836e-06 3.48721e-05 0 -8.50667e-06 -3.24528e-05 0 -1.14315e-05 -3.56701e-05 0 -1.52829e-05 -3.88786e-05 0 -2.02622e-05 -4.17789e-05 0 -2.64631e-05 -4.38613e-05 0 -3.36296e-05 -4.44325e-05 0 -4.09165e-05 -4.30577e-05 0 -4.75204e-05 -3.99415e-05 0 -5.2939e-05 -3.57286e-05 0 -5.71717e-05 -3.1001e-05 0 -6.03899e-05 -2.60897e-05 0 -6.27863e-05 -2.11733e-05 0 -6.45243e-05 -1.63294e-05 0 -6.57279e-05 -1.15786e-05 0 -6.64847e-05 -6.9102e-06 0 -6.68498e-05 -2.29693e-06 0 -6.68498e-05 2.29693e-06 0 -6.64847e-05 6.9102e-06 0 -6.57279e-05 1.15786e-05 0 -6.45243e-05 1.63294e-05 0 -6.27863e-05 2.11733e-05 0 -6.03899e-05 2.60897e-05 0 -5.71717e-05 3.1001e-05 0 -5.2939e-05 3.57286e-05 0 -4.75204e-05 3.99415e-05 0 -4.09165e-05 4.30577e-05 0 -3.36296e-05 4.44325e-05 0 -2.64631e-05 4.38613e-05 0 -2.02622e-05 4.17789e-05 0 -1.52829e-05 3.88786e-05 0 -1.14315e-05 3.56701e-05 0 -8.50667e-06 3.24528e-05 0 -1.13132e-05 -2.98729e-05 0 -1.42391e-05 -3.23473e-05 0 -1.78805e-05 -3.46638e-05 0 -2.23076e-05 -3.65796e-05 0 -2.7483e-05 -3.77677e-05 0 -3.31746e-05 -3.78818e-05 0 -3.89514e-05 -3.67383e-05 0 -4.43259e-05 -3.44138e-05 0 -4.89894e-05 -3.11935e-05 0 -5.28385e-05 -2.742e-05 0 -5.59051e-05 -2.33371e-05 0 -5.82762e-05 -1.91131e-05 0 -6.00472e-05 -1.48446e-05 0 -6.13015e-05 -1.05797e-05 0 -6.21025e-05 -6.33505e-06 0 -6.24926e-05 -2.10923e-06 0 -6.24926e-05 2.10923e-06 0 -6.21025e-05 6.33505e-06 0 -6.13015e-05 1.05797e-05 0 -6.00472e-05 1.48446e-05 0 -5.82762e-05 1.91131e-05 0 -5.59051e-05 2.33371e-05 0 -5.28385e-05 2.742e-05 0 -4.89894e-05 3.11935e-05 0 -4.43259e-05 3.44138e-05 0 -3.89514e-05 3.67383e-05 0 -3.31746e-05 3.78818e-05 0 -2.7483e-05 3.77677e-05 0 -2.23076e-05 3.65796e-05 0 -1.78805e-05 3.46638e-05 0 -1.42391e-05 3.23473e-05 0 -1.13132e-05 2.98729e-05 0 -1.35547e-05 -2.7281e-05 0 -1.63749e-05 -2.91667e-05 0 -1.97303e-05 -3.08337e-05 0 -2.36253e-05 -3.21039e-05 0 -2.79874e-05 -3.27715e-05 0 -3.26413e-05 -3.26484e-05 0 -3.73317e-05 -3.16384e-05 0 -4.17775e-05 -2.97791e-05 0 -4.57683e-05 -2.72084e-05 0 -4.91912e-05 -2.41311e-05 0 -5.20178e-05 -2.07126e-05 0 -5.42713e-05 -1.70884e-05 0 -5.59967e-05 -1.33507e-05 0 -5.72418e-05 -9.55699e-06 0 -5.80477e-05 -5.73945e-06 0 -5.84432e-05 -1.91373e-06 0 -5.84432e-05 1.91373e-06 0 -5.80477e-05 5.73945e-06 0 -5.72418e-05 9.55699e-06 0 -5.59967e-05 1.33507e-05 0 -5.42713e-05 1.70884e-05 0 -5.20178e-05 2.07126e-05 0 -4.91912e-05 2.41311e-05 0 -4.57683e-05 2.72084e-05 0 -4.17775e-05 2.97791e-05 0 -3.73317e-05 3.16384e-05 0 -3.26413e-05 3.26484e-05 0 -2.79874e-05 3.27715e-05 0 -2.36253e-05 3.21039e-05 0 -1.97303e-05 3.08337e-05 0 -1.63749e-05 2.91667e-05 0 -1.35547e-05 2.7281e-05 0 -1.52499e-05 -2.47661e-05 0 -1.79054e-05 -2.6197e-05 0 -2.09613e-05 -2.73952e-05 0 -2.43974e-05 -2.82339e-05 0 -2.81425e-05 -2.85809e-05 0 -3.20682e-05 -2.83242e-05 0 -3.60015e-05 -2.74104e-05 0 -3.97628e-05 -2.5856e-05 0 -4.32017e-05 -2.37353e-05 0 -4.62207e-05 -2.11752e-05 0 -4.87745e-05 -1.82862e-05 0 -5.0856e-05 -1.51708e-05 0 -5.24799e-05 -1.19082e-05 0 -5.36694e-05 -8.5552e-06 0 -5.44476e-05 -5.15037e-06 0 -5.48319e-05 -1.71944e-06 0 -5.48319e-05 1.71944e-06 0 -5.44476e-05 5.15037e-06 0 -5.36694e-05 8.5552e-06 0 -5.24799e-05 1.19082e-05 0 -5.0856e-05 1.51708e-05 0 -4.87745e-05 1.82862e-05 0 -4.62207e-05 2.11752e-05 0 -4.32017e-05 2.37353e-05 0 -3.97628e-05 2.5856e-05 0 -3.60015e-05 2.74104e-05 0 -3.20682e-05 2.83242e-05 0 -2.81425e-05 2.85809e-05 0 -2.43974e-05 2.82339e-05 0 -2.09613e-05 2.73952e-05 0 -1.79054e-05 2.6197e-05 0 -1.52499e-05 2.47661e-05 0 -1.65845e-05 -2.23736e-05 0 -1.906e-05 -2.34565e-05 0 -2.18336e-05 -2.43149e-05 0 -2.48761e-05 -2.48588e-05 0 -2.81253e-05 -2.50006e-05 0 -3.14853e-05 -2.46697e-05 0 -3.48368e-05 -2.38329e-05 0 -3.80556e-05 -2.24985e-05 0 -4.10329e-05 -2.07083e-05 0 -4.36887e-05 -1.85448e-05 0 -4.59748e-05 -1.60821e-05 0 -4.78696e-05 -1.33966e-05 0 -4.93699e-05 -1.0553e-05 0 -5.0482e-05 -7.603e-06 0 -5.12159e-05 -4.58603e-06 0 -5.15804e-05 -1.53257e-06 0 -5.15804e-05 1.53257e-06 0 -5.12159e-05 4.58603e-06 0 -5.0482e-05 7.603e-06 0 -4.93699e-05 1.0553e-05 0 -4.78696e-05 1.33966e-05 0 -4.59748e-05 1.60821e-05 0 -4.36887e-05 1.85448e-05 0 -4.10329e-05 2.07083e-05 0 -3.80556e-05 2.24985e-05 0 -3.48368e-05 2.38329e-05 0 -3.14853e-05 2.46697e-05 0 -2.81253e-05 2.50006e-05 0 -2.48761e-05 2.48588e-05 0 -2.18336e-05 2.43149e-05 0 -1.906e-05 2.34565e-05 0 -1.65845e-05 2.23736e-05 0 -1.76198e-05 -2.01215e-05 0 -1.99163e-05 -2.09389e-05 0 -2.24351e-05 -2.155e-05 0 -2.51453e-05 -2.18902e-05 0 -2.79946e-05 -2.18992e-05 0 -3.091e-05 -2.15303e-05 0 -3.38054e-05 -2.07617e-05 0 -3.65911e-05 -1.95974e-05 0 -3.91858e-05 -1.80624e-05 0 -4.15249e-05 -1.62125e-05 0 -4.35629e-05 -1.40987e-05 0 -4.52729e-05 -1.17779e-05 0 -4.66419e-05 -9.30196e-06 0 -4.76661e-05 -6.71579e-06 0 -4.83467e-05 -4.05689e-06 0 -4.8686e-05 -1.35678e-06 0 -4.8686e-05 1.35678e-06 0 -4.83467e-05 4.05689e-06 0 -4.76661e-05 6.71579e-06 0 -4.66419e-05 9.30196e-06 0 -4.52729e-05 1.17779e-05 0 -4.35629e-05 1.40987e-05 0 -4.15249e-05 1.62125e-05 0 -3.91858e-05 1.80624e-05 0 -3.65911e-05 1.95974e-05 0 -3.38054e-05 2.07617e-05 0 -3.091e-05 2.15303e-05 0 -2.79946e-05 2.18992e-05 0 -2.51453e-05 2.18902e-05 0 -2.24351e-05 2.155e-05 0 -1.99163e-05 2.09389e-05 0 -1.76198e-05 2.01215e-05 0 -1.84023e-05 -1.80123e-05 0 -2.05314e-05 -1.8627e-05 0 -2.28275e-05 -1.90569e-05 0 -2.52617e-05 -1.92547e-05 0 -2.779e-05 -1.91782e-05 0 -3.03555e-05 -1.8795e-05 0 -3.28928e-05 -1.80901e-05 0 -3.5334e-05 -1.70657e-05 0 -3.76162e-05 -1.5737e-05 0 -3.96864e-05 -1.41436e-05 0 -4.15042e-05 -1.23212e-05 0 -4.30421e-05 -1.03128e-05 0 -4.42828e-05 -8.15968e-06 0 -4.52173e-05 -5.90007e-06 0 -4.58413e-05 -3.56801e-06 0 -4.61534e-05 -1.19396e-06 0 -4.61534e-05 1.19396e-06 0 -4.58413e-05 3.56801e-06 0 -4.52173e-05 5.90007e-06 0 -4.42828e-05 8.15968e-06 0 -4.30421e-05 1.03128e-05 0 -4.15042e-05 1.23212e-05 0 -3.96864e-05 1.41436e-05 0 -3.76162e-05 1.5737e-05 0 -3.5334e-05 1.70657e-05 0 -3.28928e-05 1.80901e-05 0 -3.03555e-05 1.8795e-05 0 -2.779e-05 1.91782e-05 0 -2.52617e-05 1.92547e-05 0 -2.28275e-05 1.90569e-05 0 -2.05314e-05 1.8627e-05 0 -1.84023e-05 1.80123e-05 0 -1.9015e-05 -1.60402e-05 0 -2.09903e-05 -1.65001e-05 0 -2.30907e-05 -1.67968e-05 0 -2.52895e-05 -1.68956e-05 0 -2.755e-05 -1.67659e-05 0 -2.9827e-05 -1.63846e-05 0 -3.20696e-05 -1.57413e-05 0 -3.42251e-05 -1.4837e-05 0 -3.6244e-05 -1.36816e-05 0 -3.80826e-05 -1.23038e-05 0 -3.97057e-05 -1.07296e-05 0 -4.10869e-05 -8.99161e-06 0 -4.22076e-05 -7.12303e-06 0 -4.30558e-05 -5.15592e-06 0 -4.36244e-05 -3.12039e-06 0 -4.39095e-05 -1.0446e-06 0 -4.39095e-05 1.0446e-06 0 -4.36244e-05 3.12039e-06 0 -4.30558e-05 5.15592e-06 0 -4.22076e-05 7.12303e-06 0 -4.10869e-05 8.99161e-06 0 -3.97057e-05 1.07296e-05 0 -3.80826e-05 1.23038e-05 0 -3.6244e-05 1.36816e-05 0 -3.42251e-05 1.4837e-05 0 -3.20696e-05 1.57413e-05 0 -2.9827e-05 1.63846e-05 0 -2.755e-05 1.67659e-05 0 -2.52895e-05 1.68956e-05 0 -2.30907e-05 1.67968e-05 0 -2.09903e-05 1.65001e-05 0 -1.9015e-05 1.60402e-05 0 -1.94772e-05 -1.4195e-05 0 -2.1316e-05 -1.45366e-05 0 -2.32484e-05 -1.4736e-05 0 -2.52506e-05 -1.47669e-05 0 -2.72916e-05 -1.46069e-05 0 -2.93344e-05 -1.42392e-05 0 -3.13382e-05 -1.36563e-05 0 -3.32611e-05 -1.28587e-05 0 -3.50628e-05 -1.18532e-05 0 -3.67069e-05 -1.06612e-05 0 -3.8163e-05 -9.30199e-06 0 -3.94066e-05 -7.80086e-06 0 -4.04195e-05 -6.18449e-06 0 -4.11887e-05 -4.47967e-06 0 -4.17057e-05 -2.71252e-06 0 -4.19654e-05 -9.08311e-07 0 -4.19654e-05 9.08311e-07 0 -4.17057e-05 2.71252e-06 0 -4.11887e-05 4.47967e-06 0 -4.04195e-05 6.18449e-06 0 -3.94066e-05 7.80086e-06 0 -3.8163e-05 9.30199e-06 0 -3.67069e-05 1.06612e-05 0 -3.50628e-05 1.18532e-05 0 -3.32611e-05 1.28587e-05 0 -3.13382e-05 1.36563e-05 0 -2.93344e-05 1.42392e-05 0 -2.72916e-05 1.46069e-05 0 -2.52506e-05 1.47669e-05 0 -2.32484e-05 1.4736e-05 0 -2.1316e-05 1.45366e-05 0 -1.94772e-05 1.4195e-05 0 -1.98287e-05 -1.24642e-05 0 -2.15472e-05 -1.27156e-05 0 -2.33355e-05 -1.28441e-05 0 -2.51722e-05 -1.28298e-05 0 -2.70308e-05 -1.2656e-05 0 -2.88806e-05 -1.23102e-05 0 -3.0688e-05 -1.17871e-05 0 -3.24188e-05 -1.10869e-05 0 -3.40397e-05 -1.02144e-05 0 -3.552e-05 -9.186e-06 0 -3.68332e-05 -8.01629e-06 0 -3.79574e-05 -6.72514e-06 0 -3.88753e-05 -5.33405e-06 0 -3.95739e-05 -3.86532e-06 0 -4.00443e-05 -2.34129e-06 0 -4.02808e-05 -7.84144e-07 0 -4.02808e-05 7.84144e-07 0 -4.00443e-05 2.34129e-06 0 -3.95739e-05 3.86532e-06 0 -3.88753e-05 5.33405e-06 0 -3.79574e-05 6.72514e-06 0 -3.68332e-05 8.01629e-06 0 -3.552e-05 9.186e-06 0 -3.40397e-05 1.02144e-05 0 -3.24188e-05 1.10869e-05 0 -3.0688e-05 1.17871e-05 0 -2.88806e-05 1.23102e-05 0 -2.70308e-05 1.2656e-05 0 -2.51722e-05 1.28298e-05 0 -2.33355e-05 1.28441e-05 0 -2.15472e-05 1.27156e-05 0 -1.98287e-05 1.24642e-05 0 -2.00996e-05 -1.08351e-05 0 -2.17125e-05 -1.10181e-05 0 -2.33765e-05 -1.10958e-05 0 -2.50724e-05 -1.10533e-05 0 -2.67775e-05 -1.08778e-05 0 -2.84657e-05 -1.05602e-05 0 -3.0109e-05 -1.00964e-05 0 -3.1679e-05 -9.48664e-06 0 -3.31476e-05 -8.73447e-06 0 -3.44888e-05 -7.8527e-06 0 -3.56797e-05 -6.85246e-06 0 -3.67004e-05 -5.74951e-06 0 -3.75351e-05 -4.56124e-06 0 -3.81713e-05 -3.30608e-06 0 -3.86002e-05 -2.00294e-06 0 -3.88161e-05 -6.70897e-07 0 -3.88161e-05 6.70897e-07 0 -3.86002e-05 2.00294e-06 0 -3.81713e-05 3.30608e-06 0 -3.75351e-05 4.56124e-06 0 -3.67004e-05 5.74951e-06 0 -3.56797e-05 6.85246e-06 0 -3.44888e-05 7.8527e-06 0 -3.31476e-05 8.73447e-06 0 -3.1679e-05 9.48664e-06 0 -3.0109e-05 1.00964e-05 0 -2.84657e-05 1.05602e-05 0 -2.67775e-05 1.08778e-05 0 -2.50724e-05 1.10533e-05 0 -2.33765e-05 1.10958e-05 0 -2.17125e-05 1.10181e-05 0 -2.00996e-05 1.08351e-05 0 -2.02957e-05 -9.2948e-06 0 -2.18197e-05 -9.42605e-06 0 -2.33808e-05 -9.46842e-06 0 -2.49618e-05 -9.41036e-06 0 -2.65426e-05 -9.24235e-06 0 -2.81008e-05 -8.95737e-06 0 -2.96123e-05 -8.5525e-06 0 -3.10529e-05 -8.02806e-06 0 -3.23985e-05 -7.3866e-06 0 -3.36267e-05 -6.63827e-06 0 -3.47172e-05 -5.79167e-06 0 -3.56524e-05 -4.85934e-06 0 -3.64176e-05 -3.85531e-06 0 -3.70014e-05 -2.79471e-06 0 -3.73952e-05 -1.6933e-06 0 -3.75935e-05 -5.67213e-07 0 -3.75935e-05 5.67213e-07 0 -3.73952e-05 1.6933e-06 0 -3.70014e-05 2.79471e-06 0 -3.64176e-05 3.85531e-06 0 -3.56524e-05 4.85934e-06 0 -3.47172e-05 5.79167e-06 0 -3.36267e-05 6.63827e-06 0 -3.23985e-05 7.3866e-06 0 -3.10529e-05 8.02806e-06 0 -2.96123e-05 8.5525e-06 0 -2.81008e-05 8.95737e-06 0 -2.65426e-05 9.24235e-06 0 -2.49618e-05 9.41036e-06 0 -2.33808e-05 9.46842e-06 0 -2.18197e-05 9.42605e-06 0 -2.02957e-05 9.2948e-06 0 -2.04442e-05 -7.83054e-06 0 -2.18922e-05 -7.92308e-06 0 -2.33665e-05 -7.94176e-06 0 -2.48513e-05 -7.87779e-06 0 -2.63288e-05 -7.72395e-06 0 -2.77792e-05 -7.47498e-06 0 -2.91817e-05 -7.12875e-06 0 -3.05152e-05 -6.68558e-06 0 -3.17588e-05 -6.14742e-06 0 -3.28928e-05 -5.52226e-06 0 -3.38993e-05 -4.8168e-06 0 -3.47624e-05 -4.04094e-06 0 -3.54689e-05 -3.20593e-06 0 -3.60081e-05 -2.32402e-06 0 -3.63719e-05 -1.40816e-06 0 -3.65552e-05 -4.71711e-07 0 -3.65552e-05 4.71711e-07 0 -3.63719e-05 1.40816e-06 0 -3.60081e-05 2.32402e-06 0 -3.54689e-05 3.20593e-06 0 -3.47624e-05 4.04094e-06 0 -3.38993e-05 4.8168e-06 0 -3.28928e-05 5.52226e-06 0 -3.17588e-05 6.14742e-06 0 -3.05152e-05 6.68558e-06 0 -2.91817e-05 7.12875e-06 0 -2.77792e-05 7.47498e-06 0 -2.63288e-05 7.72395e-06 0 -2.48513e-05 7.87779e-06 0 -2.33665e-05 7.94176e-06 0 -2.18922e-05 7.92308e-06 0 -2.04442e-05 7.83054e-06 0 -2.05532e-05 -6.43045e-06 0 -2.19383e-05 -6.49434e-06 0 -2.33413e-05 -6.4983e-06 0 -2.47478e-05 -6.43569e-06 0 -2.61415e-05 -6.30111e-06 0 -2.75048e-05 -6.09062e-06 0 -2.88194e-05 -5.80271e-06 0 -3.00665e-05 -5.43769e-06 0 -3.12276e-05 -4.99704e-06 0 -3.22853e-05 -4.48699e-06 0 -3.32234e-05 -3.91272e-06 0 -3.40278e-05 -3.28197e-06 0 -3.46861e-05 -2.60358e-06 0 -3.51886e-05 -1.88732e-06 0 -3.55277e-05 -1.14356e-06 0 -3.56985e-05 -3.83073e-07 0 -3.56985e-05 3.83073e-07 0 -3.55277e-05 1.14356e-06 0 -3.51886e-05 1.88732e-06 0 -3.46861e-05 2.60358e-06 0 -3.40278e-05 3.28197e-06 0 -3.32234e-05 3.91272e-06 0 -3.22853e-05 4.48699e-06 0 -3.12276e-05 4.99704e-06 0 -3.00665e-05 5.43769e-06 0 -2.88194e-05 5.80271e-06 0 -2.75048e-05 6.09062e-06 0 -2.61415e-05 6.30111e-06 0 -2.47478e-05 6.43569e-06 0 -2.33413e-05 6.4983e-06 0 -2.19383e-05 6.49434e-06 0 -2.05532e-05 6.43045e-06 0 -2.06296e-05 -5.08274e-06 0 -2.1965e-05 -5.12561e-06 0 -2.33121e-05 -5.12158e-06 0 -2.46574e-05 -5.06576e-06 0 -2.59862e-05 -4.95417e-06 0 -2.72822e-05 -4.78397e-06 0 -2.85288e-05 -4.55408e-06 0 -2.97092e-05 -4.26477e-06 0 -3.08065e-05 -3.91718e-06 0 -3.18051e-05 -3.51603e-06 0 -3.26901e-05 -3.06523e-06 0 -3.34486e-05 -2.57067e-06 0 -3.40693e-05 -2.03911e-06 0 -3.45429e-05 -1.47806e-06 0 -3.48626e-05 -8.95559e-07 0 -3.50236e-05 -2.99996e-07 0 -3.50236e-05 2.99996e-07 0 -3.48626e-05 8.95559e-07 0 -3.45429e-05 1.47806e-06 0 -3.40693e-05 2.03911e-06 0 -3.34486e-05 2.57067e-06 0 -3.26901e-05 3.06523e-06 0 -3.18051e-05 3.51603e-06 0 -3.08065e-05 3.91718e-06 0 -2.97092e-05 4.26477e-06 0 -2.85288e-05 4.55408e-06 0 -2.72822e-05 4.78397e-06 0 -2.59862e-05 4.95417e-06 0 -2.46574e-05 5.06576e-06 0 -2.33121e-05 5.12158e-06 0 -2.1965e-05 5.12561e-06 0 -2.06296e-05 5.08274e-06 0 -2.0684e-05 -3.77639e-06 0 -2.19805e-05 -3.80392e-06 0 -2.32843e-05 -3.79688e-06 0 -2.45824e-05 -3.75182e-06 0 -2.5861e-05 -3.66596e-06 0 -2.71052e-05 -3.53732e-06 0 -2.82997e-05 -3.36517e-06 0 -2.94287e-05 -3.14973e-06 0 -3.0477e-05 -2.89183e-06 0 -3.143e-05 -2.59488e-06 0 -3.22741e-05 -2.26168e-06 0 -3.29972e-05 -1.89648e-06 0 -3.35887e-05 -1.50418e-06 0 -3.404e-05 -1.09026e-06 0 -3.43446e-05 -6.60566e-07 0 -3.4498e-05 -2.21275e-07 0 -3.4498e-05 2.21275e-07 0 -3.43446e-05 6.60566e-07 0 -3.404e-05 1.09026e-06 0 -3.35887e-05 1.50418e-06 0 -3.29972e-05 1.89648e-06 0 -3.22741e-05 2.26168e-06 0 -3.143e-05 2.59488e-06 0 -3.0477e-05 2.89183e-06 0 -2.94287e-05 3.14973e-06 0 -2.82997e-05 3.36517e-06 0 -2.71052e-05 3.53732e-06 0 -2.5861e-05 3.66596e-06 0 -2.45824e-05 3.75182e-06 0 -2.32843e-05 3.79688e-06 0 -2.19805e-05 3.80392e-06 0 -2.0684e-05 3.77639e-06 0 -2.07186e-05 -2.50078e-06 0 -2.19883e-05 -2.517e-06 0 -2.32621e-05 -2.51047e-06 0 -2.45278e-05 -2.47897e-06 0 -2.57721e-05 -2.42074e-06 0 -2.69809e-05 -2.33453e-06 0 -2.81396e-05 -2.2199e-06 0 -2.92336e-05 -2.077e-06 0 -3.02483e-05 -1.90636e-06 0 -3.11702e-05 -1.71021e-06 0 -3.19862e-05 -1.49036e-06 0 -3.2685e-05 -1.24955e-06 0 -3.32565e-05 -9.90999e-07 0 -3.36925e-05 -7.18256e-07 0 -3.39867e-05 -4.35166e-07 0 -3.41349e-05 -1.45769e-07 0 -3.41349e-05 1.45769e-07 0 -3.39867e-05 4.35166e-07 0 -3.36925e-05 7.18256e-07 0 -3.32565e-05 9.90999e-07 0 -3.2685e-05 1.24955e-06 0 -3.19862e-05 1.49036e-06 0 -3.11702e-05 1.71021e-06 0 -3.02483e-05 1.90636e-06 0 -2.92336e-05 2.077e-06 0 -2.81396e-05 2.2199e-06 0 -2.69809e-05 2.33453e-06 0 -2.57721e-05 2.42074e-06 0 -2.45278e-05 2.47897e-06 0 -2.32621e-05 2.51047e-06 0 -2.19883e-05 2.517e-06 0 -2.07186e-05 2.50078e-06 0 -2.0738e-05 -1.24532e-06 0 -2.19917e-05 -1.2528e-06 0 -2.32478e-05 -1.24898e-06 0 -2.44943e-05 -1.2328e-06 0 -2.57183e-05 -1.2034e-06 0 -2.69062e-05 -1.16016e-06 0 -2.80439e-05 -1.10289e-06 0 -2.91172e-05 -1.03165e-06 0 -3.01122e-05 -9.46722e-07 0 -3.10156e-05 -8.49189e-07 0 -3.18151e-05 -7.39943e-07 0 -3.24995e-05 -6.20341e-07 0 -3.30591e-05 -4.91956e-07 0 -3.3486e-05 -3.56548e-07 0 -3.37741e-05 -2.16016e-07 0 -3.39192e-05 -7.23589e-08 0 -3.39192e-05 7.23589e-08 0 -3.37741e-05 2.16016e-07 0 -3.3486e-05 3.56548e-07 0 -3.30591e-05 4.91956e-07 0 -3.24995e-05 6.20341e-07 0 -3.18151e-05 7.39943e-07 0 -3.10156e-05 8.49189e-07 0 -3.01122e-05 9.46722e-07 0 -2.91172e-05 1.03165e-06 0 -2.80439e-05 1.10289e-06 0 -2.69062e-05 1.16016e-06 0 -2.57183e-05 1.2034e-06 0 -2.44943e-05 1.2328e-06 0 -2.32478e-05 1.24898e-06 0 -2.19917e-05 1.2528e-06 0 -2.0738e-05 1.24532e-06 0 -2.07451e-05 -0 0 -2.19928e-05 -0 0 -2.32422e-05 -0 0 -2.44815e-05 -0 0 -2.56979e-05 -0 0 -2.6878e-05 -0 0 -2.80077e-05 -0 0 -2.90733e-05 -0 0 -3.00609e-05 -0 0 -3.09574e-05 -0 0 -3.17507e-05 -0 0 -3.24297e-05 -0 0 -3.29849e-05 -0 0 -3.34084e-05 -0 0 -3.36941e-05 -0 0 -3.38381e-05 -0 0 -3.38381e-05 -0 0 -3.36941e-05 -0 0 -3.34084e-05 -0 0 -3.29849e-05 -0 0 -3.24297e-05 -0 0 -3.17507e-05 -0 0 -3.09574e-05 -0 0 -3.00609e-05 -0 0 -2.90733e-05 -0 0 -2.80077e-05 -0 0 -2.6878e-05 -0 0 -2.56979e-05 -0 0 -2.44815e-05 -0 0 -2.32422e-05 -0 0 -2.19928e-05 -0 0 -2.07451e-05 -0 0 </DataArray> 
</PointData> 
<Points> 
<DataArray type="Float32" NumberOfComponents="3"> 