<?xml version="1.0"?> 
<VTKFile type="StructuredGrid" version="0.1"> 
<StructuredGrid WholeExtent="0 31 0 31 0 0"> 
<Piece Extent="0 31 0 31 0 0"> 
<PointData>
<DataArray type="Float32" Name="B" format="ascii" NumberOfComponents="3"> 
0 -1.68314e-06 0 3.05339e-07 -1.68993e-06 0 6.12963e-07 -1.70791e-06 0 9.25122e-07 -1.73799e-06 0 1.24418e-06 -1.78103e-06 0 1.57247e-06 -1.83557e-06 0 1.91241e-06 -1.90347e-06 0 2.26656e-06 -1.98396e-06 0 2.63747e-06 -2.07645e-06 0 3.02789e-06 -2.18344e-06 0 3.44069e-06 -2.30239e-06 0 3.87883e-06 -2.43403e-06 0 4.34557e-06 -2.57848e-06 0 4.84429e-06 -2.73338e-06 0 5.37863e-06 -2.89869e-06 0 5.95263e-06 -3.07118e-06 0 6.57058e-06 -3.24736e-06 0 7.23737e-06 -3.42178e-06 0 7.95853e-06 -3.58737e-06 0 8.74038e-06 -3.73247e-06 0 9.5908e-06 -3.83941e-06 0 1.05194e-05 -3.8919e-06 0 1.15385e-05 -3.84543e-06 0 1.26654e-05 -3.66113e-06 0 1.39236e-05 -3.27538e-06 0 1.53482e-05 -2.57565e-06 0 1.69929e-05 -1.40932e-06 0 1.89457e-05 4.79404e-07 0 2.13685e-05 3.55698e-06 0 2.46296e-05 8.81422e-06 0 3.00383e-05 1.92591e-05 0 6.18533e-05 6.37579e-05 0 0 -1.98159e-06 0 2.92127e-07 -1.98964e-06 0 5.86484e-07 -2.01096e-06 0 8.85268e-07 -2.04664e-06 0 1.19079e-06 -2.09774e-06 0 1.50537e-06 -2.16253e-06 0 1.83138e-06 -2.2433e-06 0 2.17139e-06 -2.33919e-06 0 2.52799e-06 -2.44958e-06 0 2.90398e-06 -2.57764e-06 0 3.30238e-06 -2.72046e-06 0 3.72635e-06 -2.8792e-06 0 4.17948e-06 -3.05442e-06 0 4.66561e-06 -3.24362e-06 0 5.18906e-06 -3.44773e-06 0 5.75485e-06 -3.66369e-06 0 6.3686e-06 -3.88836e-06 0 7.03713e-06 -4.11829e-06 0 7.76867e-06 -4.3464e-06 0 8.57324e-06 -4.56334e-06 0 9.46411e-06 -4.75444e-06 0 1.04583e-05 -4.90535e-06 0 1.15789e-05 -4.97999e-06 0 1.2859e-05 -4.94625e-06 0 1.43453e-05 -4.75339e-06 0 1.61095e-05 -4.31438e-06 0 1.82649e-05 -3.51799e-06 0 2.10059e-05 -2.19472e-06 0 2.47029e-05 -9.14938e-08 0 3.01787e-05 3.10487e-06 0 3.95432e-05 7.1891e-06 0 5.54326e-05 6.77458e-06 0 0 -2.26573e-06 0 2.76704e-07 -2.275e-06 0 5.55565e-07 -2.29958e-06 0 8.38709e-07 -2.34071e-06 0 1.12838e-06 -2.39965e-06 0 1.42684e-06 -2.47445e-06 0 1.73642e-06 -2.56782e-06 0 2.05966e-06 -2.67885e-06 0 2.39915e-06 -2.80689e-06 0 2.75774e-06 -2.95588e-06 0 3.13853e-06 -3.12255e-06 0 3.54483e-06 -3.3086e-06 0 3.98048e-06 -3.51518e-06 0 4.44971e-06 -3.73974e-06 0 4.95736e-06 -3.9845e-06 0 5.50927e-06 -4.2468e-06 0 6.11212e-06 -4.5242e-06 0 6.7743e-06 -4.81616e-06 0 7.50618e-06 -5.11596e-06 0 8.32065e-06 -5.41789e-06 0 9.23514e-06 -5.71212e-06 0 1.02722e-05 -5.98761e-06 0 1.14625e-05 -6.22141e-06 0 1.28501e-05 -6.39202e-06 0 1.44958e-05 -6.4684e-06 0 1.64918e-05 -6.40188e-06 0 1.89771e-05 -6.1408e-06 0 2.21723e-05 -5.63004e-06 0 2.64381e-05 -4.85151e-06 0 3.23512e-05 -3.97412e-06 0 4.05926e-05 -3.77149e-06 0 5.07978e-05 -5.89324e-06 0 0 -2.5334e-06 0 2.59146e-07 -2.54384e-06 0 5.20353e-07 -2.57154e-06 0 7.85655e-07 -2.61792e-06 0 1.05721e-06 -2.68442e-06 0 1.33719e-06 -2.76889e-06 0 1.62787e-06 -2.87446e-06 0 1.93171e-06 -3.0002e-06 0 2.25128e-06 -3.14548e-06 0 2.58941e-06 -3.31499e-06 0 2.94922e-06 -3.50521e-06 0 3.3341e-06 -3.71842e-06 0 3.74805e-06 -3.95645e-06 0 4.19552e-06 -4.21682e-06 0 4.6817e-06 -4.50327e-06 0 5.21297e-06 -4.81371e-06 0 5.79673e-06 -5.14665e-06 0 6.44237e-06 -5.5051e-06 0 7.16165e-06 -5.88299e-06 0 7.96926e-06 -6.27909e-06 0 8.88506e-06 -6.68957e-06 0 9.93463e-06 -7.10737e-06 0 1.11525e-05 -7.52517e-06 0 1.25873e-05 -7.93342e-06 0 1.43043e-05 -8.32251e-06 0 1.63981e-05 -8.68322e-06 0 1.90022e-05 -9.01762e-06 0 2.23067e-05 -9.35579e-06 0 2.65697e-05 -9.79961e-06 0 3.20901e-05 -1.06035e-05 0 3.90476e-05 -1.22496e-05 0 4.71923e-05 -1.5258e-05 0 0 -2.78249e-06 0 2.39545e-07 -2.79406e-06 0 4.81032e-07 -2.82472e-06 0 7.26382e-07 -2.87608e-06 0 9.77635e-07 -2.94978e-06 0 1.23685e-06 -3.04347e-06 0 1.50621e-06 -3.16071e-06 0 1.78807e-06 -3.30054e-06 0 2.0849e-06 -3.4624e-06 0 2.39948e-06 -3.65175e-06 0 2.73488e-06 -3.86484e-06 0 3.09446e-06 -4.10458e-06 0 3.48224e-06 -4.37356e-06 0 3.90274e-06 -4.66941e-06 0 4.36128e-06 -4.99753e-06 0 4.86443e-06 -5.35653e-06 0 5.41989e-06 -5.74599e-06 0 6.03745e-06 -6.17283e-06 0 6.72939e-06 -6.63169e-06 0 7.51098e-06 -7.12622e-06 0 8.40272e-06 -7.65892e-06 0 9.43068e-06 -8.22676e-06 0 1.06295e-05 -8.83825e-06 0 1.20464e-05 -9.49483e-06 0 1.37429e-05 -1.02059e-05 0 1.58036e-05 -1.0995e-05 0 1.83395e-05 -1.19012e-05 0 2.14931e-05 -1.30007e-05 0 2.54314e-05 -1.44319e-05 0 3.03131e-05 -1.64173e-05 0 3.62186e-05 -1.92498e-05 0 4.3099e-05 -2.31726e-05 0 0 -3.01104e-06 0 2.18013e-07 -3.02364e-06 0 4.37826e-07 -3.05708e-06 0 6.61221e-07 -3.11311e-06 0 8.90093e-07 -3.19355e-06 0 1.12636e-06 -3.29589e-06 0 1.37207e-06 -3.4241e-06 0 1.62943e-06 -3.57722e-06 0 1.90078e-06 -3.75474e-06 0 2.18877e-06 -3.96292e-06 0 2.49633e-06 -4.19778e-06 0 2.8267e-06 -4.46289e-06 0 3.18378e-06 -4.76163e-06 0 3.57196e-06 -5.09175e-06 0 3.99645e-06 -5.46036e-06 0 4.46369e-06 -5.86679e-06 0 4.98122e-06 -6.3117e-06 0 5.55863e-06 -6.80597e-06 0 6.20783e-06 -7.3449e-06 0 6.94352e-06 -7.93687e-06 0 7.7852e-06 -8.5904e-06 0 8.75717e-06 -9.30595e-06 0 9.89095e-06 -1.01063e-05 0 1.12283e-05 -1.10015e-05 0 1.28214e-05 -1.20156e-05 0 1.47382e-05 -1.31954e-05 0 1.70625e-05 -1.46013e-05 0 1.98929e-05 -1.63298e-05 0 2.33348e-05 -1.85251e-05 0 2.7483e-05 -2.13785e-05 0 3.24028e-05 -2.51137e-05 0 3.81415e-05 -2.99351e-05 0 0 -3.21718e-06 0 1.947e-07 -3.23075e-06 0 3.91033e-07 -3.26673e-06 0 5.90617e-07 -3.32704e-06 0 7.95176e-07 -3.41368e-06 0 1.00646e-06 -3.52398e-06 0 1.22633e-06 -3.66229e-06 0 1.45683e-06 -3.82769e-06 0 1.70011e-06 -4.01969e-06 0 1.9586e-06 -4.24534e-06 0 2.23503e-06 -4.50044e-06 0 2.53241e-06 -4.78922e-06 0 2.85438e-06 -5.1158e-06 0 3.20502e-06 -5.47807e-06 0 3.58922e-06 -5.88478e-06 0 4.01293e-06 -6.33592e-06 0 4.48316e-06 -6.83318e-06 0 5.00869e-06 -7.3911e-06 0 5.60035e-06 -8.00549e-06 0 6.2713e-06 -8.68896e-06 0 7.03867e-06 -9.45519e-06 0 7.92332e-06 -1.03072e-05 0 8.95152e-06 -1.12794e-05 0 1.01568e-05 -1.23877e-05 0 1.15793e-05 -1.36657e-05 0 1.32686e-05 -1.51749e-05 0 1.52815e-05 -1.69859e-05 0 1.76804e-05 -1.92024e-05 0 2.05273e-05 -2.19663e-05 0 2.38773e-05 -2.54544e-05 0 2.77777e-05 -2.98761e-05 0 3.22893e-05 -3.5463e-05 0 0 -3.39922e-06 0 1.69769e-07 -3.41365e-06 0 3.40982e-07 -3.45191e-06 0 5.15068e-07 -3.51606e-06 0 6.93555e-07 -3.60826e-06 0 8.77994e-07 -3.72571e-06 0 1.07003e-06 -3.87311e-06 0 1.27149e-06 -4.04955e-06 0 1.48429e-06 -4.25461e-06 0 1.71059e-06 -4.49603e-06 0 1.95283e-06 -4.76943e-06 0 2.2137e-06 -5.07963e-06 0 2.49644e-06 -5.43143e-06 0 2.8047e-06 -5.82286e-06 0 3.14277e-06 -6.26411e-06 0 3.51591e-06 -6.75576e-06 0 3.9302e-06 -7.30037e-06 0 4.39319e-06 -7.91564e-06 0 4.91404e-06 -8.59766e-06 0 5.50364e-06 -9.36246e-06 0 6.17583e-06 -1.02277e-05 0 6.94694e-06 -1.1198e-05 0 7.83678e-06 -1.23161e-05 0 8.86951e-06 -1.36011e-05 0 1.00723e-05 -1.50919e-05 0 1.14765e-05 -1.68572e-05 0 1.31148e-05 -1.89706e-05 0 1.50189e-05 -2.15356e-05 0 1.72154e-05 -2.46889e-05 0 1.97227e-05 -2.8599e-05 0 2.25525e-05 -3.34749e-05 0 2.57229e-05 -3.95766e-05 0 0 -3.55565e-06 0 1.43384e-07 -3.57082e-06 0 2.88e-07 -3.61107e-06 0 4.35069e-07 -3.67856e-06 0 5.85894e-07 -3.7756e-06 0 7.41802e-07 -3.89926e-06 0 9.04201e-07 -4.05458e-06 0 1.07465e-06 -4.24065e-06 0 1.25477e-06 -4.4571e-06 0 1.44643e-06 -4.71226e-06 0 1.6517e-06 -5.00163e-06 0 1.87288e-06 -5.33052e-06 0 2.11267e-06 -5.70431e-06 0 2.37415e-06 -6.12111e-06 0 2.66089e-06 -6.59235e-06 0 2.97721e-06 -7.11905e-06 0 3.32801e-06 -7.70442e-06 0 3.71929e-06 -8.36864e-06 0 4.15812e-06 -9.10787e-06 0 4.65271e-06 -9.9406e-06 0 5.21307e-06 -1.08871e-05 0 5.8505e-06 -1.19528e-05 0 6.57796e-06 -1.31853e-05 0 7.41006e-06 -1.46046e-05 0 8.3616e-06 -1.62512e-05 0 9.44716e-06 -1.81953e-05 0 1.06783e-05 -2.05082e-05 0 1.20604e-05 -2.32877e-05 0 1.35887e-05 -2.6661e-05 0 1.52441e-05 -3.07847e-05 0 1.69907e-05 -3.58586e-05 0 1.87756e-05 -4.21442e-05 0 0 -3.68512e-06 0 1.15815e-07 -3.70091e-06 0 2.32632e-07 -3.74282e-06 0 3.51444e-07 -3.8131e-06 0 4.73313e-07 -3.91418e-06 0 5.99316e-07 -4.04304e-06 0 7.30597e-07 -4.20497e-06 0 8.68417e-07 -4.39907e-06 0 1.0141e-06 -4.62503e-06 0 1.16913e-06 -4.89166e-06 0 1.33518e-06 -5.19432e-06 0 1.51406e-06 -5.53873e-06 0 1.70793e-06 -5.93074e-06 0 1.91916e-06 -6.36849e-06 0 2.15048e-06 -6.86435e-06 0 2.40514e-06 -7.41962e-06 0 2.68672e-06 -8.03793e-06 0 2.99948e-06 -8.7412e-06 0 3.34824e-06 -9.52542e-06 0 3.73832e-06 -1.04105e-05 0 4.17578e-06 -1.14182e-05 0 4.66689e-06 -1.25537e-05 0 5.21795e-06 -1.38665e-05 0 5.83465e-06 -1.53757e-05 0 6.52065e-06 -1.71204e-05 0 7.27596e-06 -1.9168e-05 0 8.0941e-06 -2.1583e-05 0 8.95832e-06 -2.44531e-05 0 9.83661e-06 -2.78899e-05 0 1.06753e-05 -3.20294e-05 0 1.13909e-05 -3.70453e-05 0 1.18572e-05 -4.31646e-05 0 0 -3.78655e-06 0 8.72657e-08 -3.80284e-06 0 1.7529e-07 -3.84604e-06 0 2.64823e-07 -3.91853e-06 0 3.56666e-07 -4.02279e-06 0 4.51632e-07 -4.15574e-06 0 5.50579e-07 -4.32286e-06 0 6.5445e-07 -4.52328e-06 0 7.64227e-07 -4.75668e-06 0 8.81013e-07 -5.03228e-06 0 1.00602e-06 -5.34531e-06 0 1.14055e-06 -5.70177e-06 0 1.28612e-06 -6.10784e-06 0 1.44438e-06 -6.56165e-06 0 1.61716e-06 -7.07619e-06 0 1.80655e-06 -7.65287e-06 0 2.01476e-06 -8.29553e-06 0 2.24424e-06 -9.02704e-06 0 2.49755e-06 -9.84305e-06 0 2.77715e-06 -1.0764e-05 0 3.08534e-06 -1.18118e-05 0 3.42367e-06 -1.29908e-05 0 3.79244e-06 -1.43499e-05 0 4.18955e-06 -1.59059e-05 0 4.60925e-06 -1.76941e-05 0 5.03966e-06 -1.97757e-05 0 5.45996e-06 -2.22056e-05 0 5.83607e-06 -2.50571e-05 0 6.11482e-06 -2.84212e-05 0 6.2158e-06 -3.24046e-05 0 6.01901e-06 -3.71389e-05 0 5.34459e-06 -4.27873e-05 0 0 -3.85906e-06 0 5.79107e-08 -3.87569e-06 0 1.16324e-07 -3.91984e-06 0 1.75737e-07 -3.99389e-06 0 2.36678e-07 -4.10043e-06 0 2.9968e-07 -4.2363e-06 0 3.65303e-07 -4.40712e-06 0 4.34155e-07 -4.61202e-06 0 5.06862e-07 -4.85069e-06 0 5.84111e-07 -5.1326e-06 0 6.66641e-07 -5.45287e-06 0 7.55229e-07 -5.8177e-06 0 8.50734e-07 -6.2334e-06 0 9.54044e-07 -6.69808e-06 0 1.06608e-06 -7.22503e-06 0 1.18777e-06 -7.81562e-06 0 1.31999e-06 -8.47365e-06 0 1.46344e-06 -9.22225e-06 0 1.61855e-06 -1.00566e-05 0 1.78517e-06 -1.09968e-05 0 1.96225e-06 -1.2064e-05 0 2.1473e-06 -1.32612e-05 0 2.33563e-06 -1.46347e-05 0 2.51897e-06 -1.61979e-05 0 2.68439e-06 -1.79813e-05 0 2.81134e-06 -2.0037e-05 0 2.86914e-06 -2.24088e-05 0 2.81243e-06 -2.51533e-05 0 2.5754e-06 -2.83374e-05 0 2.06331e-06 -3.20344e-05 0 1.13993e-06 -3.63259e-05 0 -3.92703e-07 -4.12987e-05 0 0 -3.90202e-06 0 2.80967e-08 -3.91886e-06 0 5.64344e-08 -3.96356e-06 0 8.52504e-08 -4.03853e-06 0 1.14794e-07 -4.14641e-06 0 1.45315e-07 -4.28399e-06 0 1.77065e-07 -4.45696e-06 0 2.10313e-07 -4.66444e-06 0 2.4532e-07 -4.90614e-06 0 2.82358e-07 -5.19161e-06 0 3.2169e-07 -5.51592e-06 0 3.63558e-07 -5.8853e-06 0 4.08175e-07 -6.30611e-06 0 4.55681e-07 -6.77636e-06 0 5.06111e-07 -7.30936e-06 0 5.59312e-07 -7.90629e-06 0 6.14864e-07 -8.57077e-06 0 6.71901e-07 -9.32548e-06 0 7.28911e-07 -1.01651e-05 0 7.83487e-07 -1.11088e-05 0 8.31705e-07 -1.21759e-05 0 8.6777e-07 -1.33682e-05 0 8.83036e-07 -1.47278e-05 0 8.64548e-07 -1.62642e-05 0 7.94234e-07 -1.8002e-05 0 6.45759e-07 -1.99835e-05 0 3.82397e-07 -2.22405e-05 0 -4.7104e-08 -2.48124e-05 0 -7.1366e-07 -2.77422e-05 0 -1.71498e-06 -3.10701e-05 0 -3.18559e-06 -3.48307e-05 0 -5.3113e-06 -3.90415e-05 0 0 -3.91507e-06 0 -1.9675e-09 -3.93197e-06 0 -3.95754e-09 -3.97683e-06 0 -5.99448e-09 -4.05208e-06 0 -8.10886e-09 -4.16033e-06 0 -1.0339e-08 -4.29839e-06 0 -1.2736e-08 -4.47194e-06 0 -1.53723e-08 -4.6801e-06 0 -1.83455e-08 -4.92254e-06 0 -2.17962e-08 -5.2088e-06 0 -2.59231e-08 -5.53392e-06 0 -3.10007e-08 -5.90405e-06 0 -3.74327e-08 -6.32546e-06 0 -4.57755e-08 -6.79605e-06 0 -5.68148e-08 -7.32884e-06 0 -7.16903e-08 -7.92478e-06 0 -9.19489e-08 -8.58709e-06 0 -1.19823e-07 -9.33754e-06 0 -1.5843e-07 -1.01702e-05 0 -2.12015e-07 -1.11029e-05 0 -2.86714e-07 -1.21528e-05 0 -3.90776e-07 -1.33201e-05 0 -5.35589e-07 -1.46416e-05 0 -7.37129e-07 -1.61232e-05 0 -1.01644e-06 -1.77835e-05 0 -1.40268e-06 -1.96545e-05 0 -1.93466e-06 -2.17567e-05 0 -2.66424e-06 -2.41136e-05 0 -3.66017e-06 -2.67469e-05 0 -5.01292e-06 -2.96688e-05 0 -6.84057e-06 -3.28769e-05 0 -9.2954e-06 -3.63398e-05 0 0 -3.8981e-06 0 -3.20074e-08 -3.91492e-06 0 -6.42985e-08 -3.95954e-06 0 -9.71566e-08 -4.0344e-06 0 -1.30889e-07 -4.14209e-06 0 -1.65816e-07 -4.2794e-06 0 -2.02287e-07 -4.45198e-06 0 -2.40707e-07 -4.6589e-06 0 -2.8152e-07 -4.89983e-06 0 -3.25262e-07 -5.18417e-06 0 -3.72568e-07 -5.50693e-06 0 -4.24196e-07 -5.8741e-06 0 -4.81119e-07 -6.29174e-06 0 -5.44524e-07 -6.75762e-06 0 -6.15923e-07 -7.28428e-06 0 -6.97313e-07 -7.87232e-06 0 -7.91191e-07 -8.52452e-06 0 -9.00909e-07 -9.26125e-06 0 -1.03085e-06 -1.00762e-05 0 -1.18665e-06 -1.09852e-05 0 -1.37602e-06 -1.20032e-05 0 -1.60885e-06 -1.31287e-05 0 -1.8982e-06 -1.43931e-05 0 -2.26159e-06 -1.57987e-05 0 -2.72123e-06 -1.73583e-05 0 -3.3067e-06 -1.90947e-05 0 -4.05587e-06 -2.1018e-05 0 -5.01737e-06 -2.31388e-05 0 -6.25291e-06 -2.54615e-05 0 -7.83981e-06 -2.7978e-05 0 -9.87295e-06 -3.06615e-05 0 -1.24651e-05 -3.34544e-05 0 0 -3.85126e-06 0 -6.17948e-08 -3.86784e-06 0 -1.24129e-07 -3.91186e-06 0 -1.87538e-07 -3.98569e-06 0 -2.52599e-07 -4.09188e-06 0 -3.19906e-07 -4.22723e-06 0 -3.90097e-07 -4.39731e-06 0 -4.63893e-07 -4.60116e-06 0 -5.4207e-07 -4.83839e-06 0 -6.25532e-07 -5.11817e-06 0 -7.15324e-07 -5.43552e-06 0 -8.12644e-07 -5.79619e-06 0 -9.18976e-07 -6.20593e-06 0 -1.03607e-06 -6.66239e-06 0 -1.16605e-06 -7.17741e-06 0 -1.31165e-06 -7.75125e-06 0 -1.47614e-06 -8.38615e-06 0 -1.66374e-06 -9.10084e-06 0 -1.87979e-06 -9.88861e-06 0 -2.13091e-06 -1.07633e-05 0 -2.42585e-06 -1.17374e-05 0 -2.77545e-06 -1.28079e-05 0 -3.19354e-06 -1.40009e-05 0 -3.6981e-06 -1.53154e-05 0 -4.31112e-06 -1.67592e-05 0 -5.06092e-06 -1.83468e-05 0 -5.98244e-06 -2.00805e-05 0 -7.1188e-06 -2.19602e-05 0 -8.52229e-06 -2.39786e-05 0 -1.02549e-05 -2.61144e-05 0 -1.23876e-05 -2.83281e-05 0 -1.49971e-05 -3.05532e-05 0 0 -3.77495e-06 0 -9.09887e-08 -3.79117e-06 0 -1.82761e-07 -3.8342e-06 0 -2.76094e-07 -3.90638e-06 0 -3.71821e-07 -4.01016e-06 0 -4.70794e-07 -4.14242e-06 0 -5.73923e-07 -4.30853e-06 0 -6.82222e-07 -4.50753e-06 0 -7.96771e-07 -4.73898e-06 0 -9.18809e-07 -5.0117e-06 0 -1.04974e-06 -5.32078e-06 0 -1.19115e-06 -5.67166e-06 0 -1.34495e-06 -6.06968e-06 0 -1.51336e-06 -6.51239e-06 0 -1.699e-06 -7.01083e-06 0 -1.90514e-06 -7.56487e-06 0 -2.13563e-06 -8.17622e-06 0 -2.39529e-06 -8.86178e-06 0 -2.69004e-06 -9.61457e-06 0 -3.02706e-06 -1.04464e-05 0 -3.41556e-06 -1.13672e-05 0 -3.86662e-06 -1.23731e-05 0 -4.39401e-06 -1.34847e-05 0 -5.01512e-06 -1.46987e-05 0 -5.75055e-06 -1.60185e-05 0 -6.62603e-06 -1.7452e-05 0 -7.67221e-06 -1.89952e-05 0 -8.92541e-06 -2.06413e-05 0 -1.04278e-05 -2.23748e-05 0 -1.22265e-05 -2.41681e-05 0 -1.43718e-05 -2.59772e-05 0 -1.69126e-05 -2.77369e-05 0 0 -3.66984e-06 0 -1.19448e-07 -3.68555e-06 0 -2.39912e-07 -3.72726e-06 0 -3.62397e-07 -3.79718e-06 0 -4.87979e-07 -3.8977e-06 0 -6.17754e-07 -4.02577e-06 0 -7.52882e-07 -4.18653e-06 0 -8.94652e-07 -4.37901e-06 0 -1.04442e-06 -4.60273e-06 0 -1.20372e-06 -4.8661e-06 0 -1.37428e-06 -5.16426e-06 0 -1.55801e-06 -5.50231e-06 0 -1.7572e-06 -5.88517e-06 0 -1.97443e-06 -6.31029e-06 0 -2.21272e-06 -6.7878e-06 0 -2.47576e-06 -7.31722e-06 0 -2.76778e-06 -7.89974e-06 0 -3.094e-06 -8.55034e-06 0 -3.46066e-06 -9.26193e-06 0 -3.87516e-06 -1.00443e-05 0 -4.34678e-06 -1.09052e-05 0 -4.88641e-06 -1.18398e-05 0 -5.50721e-06 -1.2864e-05 0 -6.22537e-06 -1.39727e-05 0 -7.0595e-06 -1.51661e-05 0 -8.03214e-06 -1.64464e-05 0 -9.16915e-06 -1.78061e-05 0 -1.05e-05 -1.92334e-05 0 -1.20572e-05 -2.0709e-05 0 -1.38749e-05 -2.22028e-05 0 -1.59868e-05 -2.36718e-05 0 -1.84212e-05 -2.50572e-05 0 0 -3.53679e-06 0 -1.46923e-07 -3.55188e-06 0 -2.95078e-07 -3.59192e-06 0 -4.45685e-07 -3.65904e-06 0 -6.00045e-07 -3.7555e-06 0 -7.59477e-07 -3.87834e-06 0 -9.25373e-07 -4.03247e-06 0 -1.09927e-06 -4.21689e-06 0 -1.28276e-06 -4.43109e-06 0 -1.47765e-06 -4.68297e-06 0 -1.68593e-06 -4.96783e-06 0 -1.90981e-06 -5.29035e-06 0 -2.15185e-06 -5.65498e-06 0 -2.41492e-06 -6.05914e-06 0 -2.70235e-06 -6.51198e-06 0 -3.01808e-06 -7.01272e-06 0 -3.3666e-06 -7.56207e-06 0 -3.75329e-06 -8.17309e-06 0 -4.18452e-06 -8.83872e-06 0 -4.66763e-06 -9.5669e-06 0 -5.21163e-06 -1.03634e-05 0 -5.82685e-06 -1.12227e-05 0 -6.52549e-06 -1.21567e-05 0 -7.32211e-06 -1.3159e-05 0 -8.23301e-06 -1.42274e-05 0 -9.27727e-06 -1.53603e-05 0 -1.0476e-05 -1.65476e-05 0 -1.18523e-05 -1.77753e-05 0 -1.34301e-05 -1.90224e-05 0 -1.52332e-05 -2.02594e-05 0 -1.72823e-05 -2.14469e-05 0 -1.95919e-05 -2.25344e-05 0 0 -3.37695e-06 0 -1.73095e-07 -3.3913e-06 0 -3.47621e-07 -3.42936e-06 0 -5.24993e-07 -3.49316e-06 0 -7.06715e-07 -3.58481e-06 0 -8.9431e-07 -3.70149e-06 0 -1.08938e-06 -3.84781e-06 0 -1.29366e-06 -4.02276e-06 0 -1.50898e-06 -4.22581e-06 0 -1.73735e-06 -4.46431e-06 0 -1.981e-06 -4.73374e-06 0 -2.24233e-06 -5.03834e-06 0 -2.52415e-06 -5.38211e-06 0 -2.82952e-06 -5.76243e-06 0 -3.16195e-06 -6.18751e-06 0 -3.52555e-06 -6.65627e-06 0 -3.92488e-06 -7.16901e-06 0 -4.36536e-06 -7.73697e-06 0 -4.85322e-06 -8.35324e-06 0 -5.39556e-06 -9.02408e-06 0 -6.00085e-06 -9.7535e-06 0 -6.67863e-06 -1.05358e-05 0 -7.43985e-06 -1.13793e-05 0 -8.29726e-06 -1.2277e-05 0 -9.26474e-06 -1.3225e-05 0 -1.0358e-05 -1.4219e-05 0 -1.15937e-05 -1.52478e-05 0 -1.29893e-05 -1.62965e-05 0 -1.45621e-05 -1.73443e-05 0 -1.63275e-05 -1.83638e-05 0 -1.82975e-05 -1.93203e-05 0 -2.04774e-05 -2.01717e-05 0 0 -3.19161e-06 0 -1.97953e-07 -3.20511e-06 0 -3.97518e-07 -3.24092e-06 0 -6.0029e-07 -3.30092e-06 0 -8.07958e-07 -3.3871e-06 0 -1.02223e-06 -3.49677e-06 0 -1.24488e-06 -3.63421e-06 0 -1.47785e-06 -3.79843e-06 0 -1.72313e-06 -3.98888e-06 0 -1.98295e-06 -4.21232e-06 0 -2.25969e-06 -4.46445e-06 0 -2.55595e-06 -4.74908e-06 0 -2.87468e-06 -5.06973e-06 0 -3.2191e-06 -5.42383e-06 0 -3.59281e-06 -5.81859e-06 0 -3.99999e-06 -6.25277e-06 0 -4.44519e-06 -6.72629e-06 0 -4.93372e-06 -7.2487e-06 0 -5.47158e-06 -7.81334e-06 0 -6.06545e-06 -8.42503e-06 0 -6.72316e-06 -9.08637e-06 0 -7.45331e-06 -9.79156e-06 0 -8.26552e-06 -1.05461e-05 0 -9.17069e-06 -1.13429e-05 0 -1.01803e-05 -1.21769e-05 0 -1.1307e-05 -1.30422e-05 0 -1.25635e-05 -1.39273e-05 0 -1.39625e-05 -1.48174e-05 0 -1.55156e-05 -1.56931e-05 0 -1.72321e-05 -1.65299e-05 0 -1.91174e-05 -1.7298e-05 0 -2.1171e-05 -1.79625e-05 0 0 -2.98228e-06 0 -2.21132e-07 -2.99483e-06 0 -4.44039e-07 -3.02813e-06 0 -6.70472e-07 -3.08392e-06 0 -9.02287e-07 -3.16402e-06 0 -1.14134e-06 -3.2659e-06 0 -1.38959e-06 -3.39351e-06 0 -1.64912e-06 -3.54589e-06 0 -1.92208e-06 -3.72246e-06 0 -2.21083e-06 -3.92939e-06 0 -2.51793e-06 -4.16261e-06 0 -2.84607e-06 -4.42552e-06 0 -3.19833e-06 -4.72118e-06 0 -3.57799e-06 -5.04709e-06 0 -3.98869e-06 -5.40954e-06 0 -4.4346e-06 -5.80713e-06 0 -4.92015e-06 -6.23954e-06 0 -5.45047e-06 -6.71474e-06 0 -6.03121e-06 -7.22643e-06 0 -6.66856e-06 -7.77824e-06 0 -7.36961e-06 -8.3716e-06 0 -8.14194e-06 -9.00087e-06 0 -8.99386e-06 -9.66941e-06 0 -9.93449e-06 -1.03701e-05 0 -1.09731e-05 -1.10974e-05 0 -1.21196e-05 -1.18448e-05 0 -1.33834e-05 -1.26008e-05 0 -1.47733e-05 -1.33518e-05 0 -1.62966e-05 -1.408e-05 0 -1.79582e-05 -1.47639e-05 0 -1.9759e-05 -1.53786e-05 0 -2.16949e-05 -1.58956e-05 0 0 -2.75065e-06 0 -2.42551e-07 -2.76218e-06 0 -4.87021e-07 -2.79274e-06 0 -7.353e-07 -2.84394e-06 0 -9.89386e-07 -2.91741e-06 0 -1.25128e-06 -3.01085e-06 0 -1.52306e-06 -3.1278e-06 0 -1.80697e-06 -3.26736e-06 0 -2.10526e-06 -3.42895e-06 0 -2.42044e-06 -3.61811e-06 0 -2.75514e-06 -3.83108e-06 0 -3.11216e-06 -4.07083e-06 0 -3.49464e-06 -4.33997e-06 0 -3.90588e-06 -4.63613e-06 0 -4.34952e-06 -4.96474e-06 0 -4.82962e-06 -5.32432e-06 0 -5.35049e-06 -5.71433e-06 0 -5.91697e-06 -6.14135e-06 0 -6.53434e-06 -6.59957e-06 0 -7.20823e-06 -7.09158e-06 0 -7.94497e-06 -7.61796e-06 0 -8.75115e-06 -8.17338e-06 0 -9.6338e-06 -8.75953e-06 0 -1.06004e-05 -9.36968e-06 0 -1.16584e-05 -9.99816e-06 0 -1.2815e-05 -1.06381e-05 0 -1.40772e-05 -1.12791e-05 0 -1.54506e-05 -1.19083e-05 0 -1.69392e-05 -1.25103e-05 0 -1.85446e-05 -1.30667e-05 0 -2.02649e-05 -1.35566e-05 0 -2.20935e-05 -1.3957e-05 0 0 -2.49854e-06 0 -2.62214e-07 -2.50896e-06 0 -5.26473e-07 -2.53659e-06 0 -7.94789e-07 -2.58286e-06 0 -1.06929e-06 -2.64925e-06 0 -1.35209e-06 -2.73364e-06 0 -1.64538e-06 -2.83922e-06 0 -1.95153e-06 -2.96512e-06 0 -2.27289e-06 -3.1108e-06 0 -2.61205e-06 -3.28114e-06 0 -2.97174e-06 -3.47273e-06 0 -3.3548e-06 -3.68812e-06 0 -3.7644e-06 -3.92954e-06 0 -4.20385e-06 -4.19475e-06 0 -4.67673e-06 -4.48837e-06 0 -5.18698e-06 -4.80892e-06 0 -5.73872e-06 -5.15573e-06 0 -6.33649e-06 -5.53416e-06 0 -6.98517e-06 -5.93892e-06 0 -7.68983e-06 -6.3718e-06 0 -8.45605e-06 -6.83277e-06 0 -9.28948e-06 -7.31691e-06 0 -1.0196e-05 -7.82473e-06 0 -1.11816e-05 -8.35003e-06 0 -1.22519e-05 -8.88736e-06 0 -1.34123e-05 -9.42999e-06 0 -1.46674e-05 -9.96849e-06 0 -1.60203e-05 -1.04916e-05 0 -1.74727e-05 -1.09859e-05 0 -1.90236e-05 -1.14358e-05 0 -2.0669e-05 -1.18242e-05 0 -2.24011e-05 -1.21324e-05 0 0 -2.22791e-06 0 -2.7961e-07 -2.23715e-06 0 -5.61371e-07 -2.26168e-06 0 -8.47398e-07 -2.30275e-06 0 -1.13992e-06 -2.36165e-06 0 -1.44116e-06 -2.4365e-06 0 -1.7534e-06 -2.53009e-06 0 -2.07908e-06 -2.64162e-06 0 -2.42065e-06 -2.77059e-06 0 -2.78077e-06 -2.92126e-06 0 -3.16221e-06 -3.09054e-06 0 -3.56785e-06 -3.28063e-06 0 -4.00085e-06 -3.49336e-06 0 -4.46449e-06 -3.72672e-06 0 -4.96227e-06 -3.98455e-06 0 -5.49798e-06 -4.26544e-06 0 -6.07555e-06 -4.56864e-06 0 -6.6992e-06 -4.89845e-06 0 -7.37341e-06 -5.25017e-06 0 -8.10271e-06 -5.62498e-06 0 -8.892e-06 -6.02243e-06 0 -9.74608e-06 -6.4381e-06 0 -1.06698e-05 -6.87173e-06 0 -1.16678e-05 -7.31776e-06 0 -1.27445e-05 -7.77115e-06 0 -1.39035e-05 -8.22565e-06 0 -1.51477e-05 -8.67296e-06 0 -1.64783e-05 -9.10336e-06 0 -1.78953e-05 -9.50538e-06 0 -1.9396e-05 -9.86623e-06 0 -2.0975e-05 -1.01718e-05 0 -2.26241e-05 -1.04073e-05 0 0 -1.94085e-06 0 -2.95017e-07 -1.94887e-06 0 -5.92275e-07 -1.97015e-06 0 -8.93976e-07 -2.00577e-06 0 -1.20244e-06 -2.05685e-06 0 -1.51996e-06 -2.12173e-06 0 -1.84891e-06 -2.20282e-06 0 -2.19181e-06 -2.2994e-06 0 -2.55116e-06 -2.41102e-06 0 -2.92966e-06 -2.54129e-06 0 -3.33013e-06 -2.68754e-06 0 -3.75545e-06 -2.85158e-06 0 -4.20878e-06 -3.03492e-06 0 -4.69334e-06 -3.23576e-06 0 -5.21253e-06 -3.45727e-06 0 -5.77002e-06 -3.69812e-06 0 -6.3695e-06 -3.95757e-06 0 -7.01493e-06 -4.23902e-06 0 -7.71036e-06 -4.53838e-06 0 -8.45987e-06 -4.85638e-06 0 -9.2677e-06 -5.19232e-06 0 -1.01379e-05 -5.54238e-06 0 -1.10745e-05 -5.90579e-06 0 -1.2081e-05 -6.27775e-06 0 -1.31606e-05 -6.65377e-06 0 -1.43156e-05 -7.02824e-06 0 -1.55475e-05 -7.39411e-06 0 -1.68562e-05 -7.74315e-06 0 -1.82401e-05 -8.06585e-06 0 -1.96954e-05 -8.35176e-06 0 -2.1216e-05 -8.58959e-06 0 -2.27931e-05 -8.76757e-06 0 0 -1.63951e-06 0 -3.08229e-07 -1.64626e-06 0 -6.18773e-07 -1.66417e-06 0 -9.33906e-07 -1.69414e-06 0 -1.25602e-06 -1.73711e-06 0 -1.58748e-06 -1.79167e-06 0 -1.93071e-06 -1.85984e-06 0 -2.28829e-06 -1.941e-06 0 -2.66278e-06 -2.03474e-06 0 -3.0569e-06 -2.14406e-06 0 -3.47349e-06 -2.26669e-06 0 -3.91545e-06 -2.40411e-06 0 -4.38589e-06 -2.55752e-06 0 -4.88799e-06 -2.72538e-06 0 -5.42505e-06 -2.91021e-06 0 -6.00058e-06 -3.11086e-06 0 -6.6181e-06 -3.32663e-06 0 -7.28128e-06 -3.56013e-06 0 -7.99384e-06 -3.80792e-06 0 -8.75943e-06 -4.07042e-06 0 -9.58173e-06 -4.34685e-06 0 -1.04642e-05 -4.63398e-06 0 -1.14099e-05 -4.93083e-06 0 -1.24218e-05 -5.23337e-06 0 -1.35019e-05 -5.53777e-06 0 -1.46516e-05 -5.83923e-06 0 -1.58711e-05 -6.13191e-06 0 -1.71594e-05 -6.40907e-06 0 -1.85138e-05 -6.66302e-06 0 -1.99298e-05 -6.88543e-06 0 -2.14006e-05 -7.0674e-06 0 -2.29174e-05 -7.19976e-06 0 0 -1.32618e-06 0 -3.19003e-07 -1.33163e-06 0 -6.4038e-07 -1.34607e-06 0 -9.6646e-07 -1.37023e-06 0 -1.29969e-06 -1.40486e-06 0 -1.64249e-06 -1.44884e-06 0 -1.99733e-06 -1.50375e-06 0 -2.36683e-06 -1.56911e-06 0 -2.75358e-06 -1.64455e-06 0 -3.16033e-06 -1.73248e-06 0 -3.58993e-06 -1.83106e-06 0 -4.04526e-06 -1.94143e-06 0 -4.52942e-06 -2.06453e-06 0 -5.04552e-06 -2.19909e-06 0 -5.59678e-06 -2.34706e-06 0 -6.18658e-06 -2.50747e-06 0 -6.81825e-06 -2.67971e-06 0 -7.49525e-06 -2.86574e-06 0 -8.221e-06 -3.06279e-06 0 -8.99878e-06 -3.27105e-06 0 -9.83184e-06 -3.48979e-06 0 -1.07231e-05 -3.71639e-06 0 -1.16751e-05 -3.94986e-06 0 -1.269e-05 -4.18697e-06 0 -1.37692e-05 -4.42461e-06 0 -1.49131e-05 -4.65886e-06 0 -1.61213e-05 -4.88508e-06 0 -1.73919e-05 -5.09799e-06 0 -1.87216e-05 -5.29159e-06 0 -2.01053e-05 -5.45946e-06 0 -2.1536e-05 -5.5948e-06 0 -2.30047e-05 -5.6907e-06 0 0 -1.00318e-06 0 -3.27598e-07 -1.00729e-06 0 -6.57614e-07 -1.01818e-06 0 -9.92423e-07 -1.03641e-06 0 -1.33451e-06 -1.06253e-06 0 -1.68634e-06 -1.0957e-06 0 -2.05042e-06 -1.1371e-06 0 -2.4294e-06 -1.18636e-06 0 -2.82588e-06 -1.2432e-06 0 -3.24265e-06 -1.30942e-06 0 -3.68255e-06 -1.38361e-06 0 -4.14845e-06 -1.46663e-06 0 -4.64341e-06 -1.55915e-06 0 -5.17051e-06 -1.6602e-06 0 -5.73288e-06 -1.77121e-06 0 -6.33381e-06 -1.89143e-06 0 -6.97647e-06 -2.02036e-06 0 -7.66412e-06 -2.15939e-06 0 -8.39996e-06 -2.30644e-06 0 -9.18698e-06 -2.46158e-06 0 -1.00281e-05 -2.62418e-06 0 -1.09257e-05 -2.79228e-06 0 -1.18821e-05 -2.96501e-06 0 -1.28987e-05 -3.13994e-06 0 -1.39763e-05 -3.31473e-06 0 -1.5115e-05 -3.48639e-06 0 -1.63136e-05 -3.65148e-06 0 -1.75696e-05 -3.8061e-06 0 -1.88793e-05 -3.94583e-06 0 -2.02372e-05 -4.06601e-06 0 -2.16361e-05 -4.16173e-06 0 -2.30669e-05 -4.22803e-06 0 0 -6.72852e-07 0 -3.33659e-07 -6.75603e-07 0 -6.69767e-07 -6.82894e-07 0 -1.01073e-06 -6.95097e-07 0 -1.35906e-06 -7.12583e-07 0 -1.71725e-06 -7.34776e-07 0 -2.08783e-06 -7.62479e-07 0 -2.47347e-06 -7.9543e-07 0 -2.8768e-06 -8.33446e-07 0 -3.30059e-06 -8.77713e-07 0 -3.7477e-06 -9.27294e-07 0 -4.22099e-06 -9.82749e-07 0 -4.72349e-06 -1.04451e-06 0 -5.25825e-06 -1.11194e-06 0 -5.82833e-06 -1.18595e-06 0 -6.43695e-06 -1.26604e-06 0 -7.08717e-06 -1.35186e-06 0 -7.78212e-06 -1.4443e-06 0 -8.52482e-06 -1.54197e-06 0 -9.31806e-06 -1.64488e-06 0 -1.01645e-05 -1.75257e-06 0 -1.10663e-05 -1.86374e-06 0 -1.20253e-05 -1.97776e-06 0 -1.30427e-05 -2.093e-06 0 -1.41189e-05 -2.20789e-06 0 -1.52535e-05 -2.32043e-06 0 -1.64449e-05 -2.42834e-06 0 -1.76904e-05 -2.52904e-06 0 -1.89858e-05 -2.61964e-06 0 -2.03254e-05 -2.6971e-06 0 -2.1702e-05 -2.75823e-06 0 -2.31065e-05 -2.79983e-06 0 0 -3.3766e-07 0 -3.37305e-07 -3.39039e-07 0 -6.77078e-07 -3.42694e-07 0 -1.02174e-06 -3.4881e-07 0 -1.37383e-06 -3.57574e-07 0 -1.73584e-06 -3.68696e-07 0 -2.11032e-06 -3.82577e-07 0 -2.49996e-06 -3.99086e-07 0 -2.90739e-06 -4.1813e-07 0 -3.3354e-06 -4.403e-07 0 -3.78683e-06 -4.65126e-07 0 -4.26453e-06 -4.92885e-07 0 -4.77155e-06 -5.23792e-07 0 -5.31087e-06 -5.57519e-07 0 -5.88554e-06 -5.94526e-07 0 -6.49873e-06 -6.3455e-07 0 -7.15343e-06 -6.77418e-07 0 -7.85269e-06 -7.23561e-07 0 -8.59942e-06 -7.7228e-07 0 -9.39628e-06 -8.23575e-07 0 -1.02458e-05 -8.77206e-07 0 -1.115e-05 -9.32518e-07 0 -1.21104e-05 -9.89178e-07 0 -1.31281e-05 -1.04638e-06 0 -1.42033e-05 -1.10333e-06 0 -1.53353e-05 -1.15902e-06 0 -1.65222e-05 -1.21233e-06 0 -1.77613e-05 -1.26197e-06 0 -1.90481e-05 -1.3065e-06 0 -2.03768e-05 -1.34443e-06 0 -2.174e-05 -1.3742e-06 0 -2.31288e-05 -1.39423e-06 0 0 -0 0 -3.38685e-07 -0 0 -6.79844e-07 -0 0 -1.02591e-06 -0 0 -1.37941e-06 -0 0 -1.74287e-06 -0 0 -2.11883e-06 -0 0 -2.50999e-06 -0 0 -2.91897e-06 -0 0 -3.34857e-06 -0 0 -3.80162e-06 -0 0 -4.281e-06 -0 0 -4.78971e-06 -0 0 -5.33075e-06 -0 0 -5.90716e-06 -0 0 -6.52206e-06 -0 0 -7.17844e-06 -0 0 -7.87932e-06 -0 0 -8.62755e-06 -0 0 -9.42578e-06 -0 0 -1.02764e-05 -0 0 -1.11815e-05 -0 0 -1.21424e-05 -0 0 -1.31602e-05 -0 0 -1.4235e-05 -0 0 -1.53659e-05 -0 0 -1.65512e-05 -0 0 -1.77878e-05 -0 0 -1.90713e-05 -0 0 -2.03959e-05 -0 0 -2.17541e-05 -0 0 -2.3137e-05 -0 0 </DataArray> 
</PointData> 
<Points> 
<DataArray type="Float32" NumberOfComponents="3"> 