<?xml version="1.0"?> 
<VTKFile type="StructuredGrid" version="0.1"> 
<StructuredGrid WholeExtent="0 31 0 31 0 0"> 
<Piece Extent="0 31 0 31 0 0"> 
<PointData>
<DataArray type="Float32" Name="B" format="ascii" NumberOfComponents="3"> 
5.23282e-05 3.67806e-05 0 9.57887e-06 8.60121e-06 0 7.7641e-06 4.09472e-06 0 6.73609e-06 1.95955e-06 0 5.97941e-06 7.28497e-07 0 5.36984e-06 -3.12727e-08 0 4.85612e-06 -5.10803e-07 0 4.4108e-06 -8.10804e-07 0 4.01716e-06 -9.89942e-07 0 3.66417e-06 -1.09099e-06 0 3.34448e-06 -1.13791e-06 0 3.05271e-06 -1.14514e-06 0 2.78501e-06 -1.1298e-06 0 2.53842e-06 -1.09783e-06 0 2.31054e-06 -1.05608e-06 0 2.09945e-06 -1.0092e-06 0 1.90348e-06 -9.59632e-07 0 1.72115e-06 -9.09868e-07 0 1.55115e-06 -8.61268e-07 0 1.39225e-06 -8.1503e-07 0 1.24335e-06 -7.71482e-07 0 1.1034e-06 -7.31444e-07 0 9.71406e-07 -6.95026e-07 0 8.46446e-07 -6.62108e-07 0 7.27626e-07 -6.33514e-07 0 6.14091e-07 -6.08551e-07 0 5.05039e-07 -5.87437e-07 0 3.99667e-07 -5.70439e-07 0 2.97216e-07 -5.57004e-07 0 1.96946e-07 -5.47604e-07 0 9.81114e-08 -5.41979e-07 0 0 -5.39855e-07 0 -4.19475e-06 2.22611e-05 0 7.10242e-06 9.01548e-06 0 6.78162e-06 4.39842e-06 0 6.20143e-06 2.19842e-06 0 5.65568e-06 9.26738e-07 0 5.16602e-06 1.38576e-07 0 4.7271e-06 -3.62026e-07 0 4.33077e-06 -6.78308e-07 0 3.97001e-06 -8.70421e-07 0 3.63936e-06 -9.82241e-07 0 3.33482e-06 -1.03833e-06 0 3.05324e-06 -1.05343e-06 0 2.79225e-06 -1.04512e-06 0 2.54994e-06 -1.01942e-06 0 2.32461e-06 -9.83319e-07 0 2.11486e-06 -9.416e-07 0 1.91937e-06 -8.96672e-07 0 1.73692e-06 -8.5115e-07 0 1.56639e-06 -8.06404e-07 0 1.40669e-06 -7.63628e-07 0 1.25679e-06 -7.2322e-07 0 1.11573e-06 -6.85976e-07 0 9.82549e-07 -6.52041e-07 0 8.56359e-07 -6.21328e-07 0 7.36289e-07 -5.94619e-07 0 6.21499e-07 -5.71284e-07 0 5.11194e-07 -5.51536e-07 0 4.04577e-07 -5.3563e-07 0 3.00888e-07 -5.23054e-07 0 1.9939e-07 -5.14253e-07 0 9.93313e-08 -5.08985e-07 0 0 -5.06996e-07 0 -3.80858e-06 1.37334e-05 0 4.9218e-06 8.50577e-06 0 5.81194e-06 4.47494e-06 0 5.66176e-06 2.3414e-06 0 5.32558e-06 1.07349e-06 0 4.95656e-06 2.77239e-07 0 4.59337e-06 -2.33352e-07 0 4.24681e-06 -5.59205e-07 0 3.91954e-06 -7.59994e-07 0 3.61168e-06 -8.79669e-07 0 3.32261e-06 -9.42904e-07 0 3.05148e-06 -9.64524e-07 0 2.79744e-06 -9.62264e-07 0 2.55957e-06 -9.4214e-07 0 2.33696e-06 -9.1121e-07 0 2.12869e-06 -8.74306e-07 0 1.93382e-06 -8.33784e-07 0 1.75138e-06 -7.92338e-07 0 1.58044e-06 -7.51331e-07 0 1.42004e-06 -7.1194e-07 0 1.26926e-06 -6.74621e-07 0 1.12719e-06 -6.4014e-07 0 9.92916e-07 -6.08667e-07 0 8.65592e-07 -5.80149e-07 0 7.44366e-07 -5.55321e-07 0 6.2841e-07 -5.33614e-07 0 5.1694e-07 -5.15233e-07 0 4.09161e-07 -5.00421e-07 0 3.04319e-07 -4.88706e-07 0 2.01672e-07 -4.80506e-07 0 1.00471e-07 -4.75597e-07 0 0 -4.73744e-07 0 -2.9751e-06 9.71866e-06 0 3.35555e-06 7.53406e-06 0 4.92445e-06 4.35753e-06 0 5.13861e-06 2.39368e-06 0 4.99828e-06 1.1698e-06 0 4.74622e-06 3.84871e-07 0 4.45772e-06 -1.24844e-07 0 4.1607e-06 -4.53598e-07 0 3.86691e-06 -6.58756e-07 0 3.58191e-06 -7.83354e-07 0 3.30841e-06 -8.51713e-07 0 3.04783e-06 -8.78473e-07 0 2.80082e-06 -8.8127e-07 0 2.56751e-06 -8.6604e-07 0 2.34772e-06 -8.39797e-07 0 2.14103e-06 -8.07359e-07 0 1.94688e-06 -7.71008e-07 0 1.76456e-06 -7.33469e-07 0 1.59332e-06 -6.96086e-07 0 1.43233e-06 -6.60003e-07 0 1.28076e-06 -6.25719e-07 0 1.13778e-06 -5.93968e-07 0 1.00251e-06 -5.64938e-07 0 8.74149e-07 -5.38602e-07 0 7.51857e-07 -5.1565e-07 0 6.34824e-07 -4.95569e-07 0 5.22274e-07 -4.78556e-07 0 4.13419e-07 -4.6484e-07 0 3.07506e-07 -4.53988e-07 0 2.03793e-07 -4.46391e-07 0 1.01531e-07 -4.41843e-07 0 0 -4.40125e-07 0 -2.31581e-06 7.42964e-06 0 2.33378e-06 6.47773e-06 0 4.15923e-06 4.10052e-06 0 4.6494e-06 2.36645e-06 0 4.68206e-06 1.21879e-06 0 4.53952e-06 4.62515e-07 0 4.32288e-06 -3.61182e-08 0 4.07416e-06 -3.61337e-07 0 3.81328e-06 -5.66648e-07 0 3.55084e-06 -6.93277e-07 0 3.29276e-06 -7.64751e-07 0 3.04267e-06 -7.9529e-07 0 2.80268e-06 -8.02161e-07 0 2.57394e-06 -7.91143e-07 0 2.35702e-06 -7.69108e-07 0 2.15198e-06 -7.40789e-07 0 1.95863e-06 -7.08376e-07 0 1.77651e-06 -6.74577e-07 0 1.60505e-06 -6.407e-07 0 1.44357e-06 -6.07849e-07 0 1.29131e-06 -5.76548e-07 0 1.14751e-06 -5.47492e-07 0 1.01135e-06 -5.20885e-07 0 8.82033e-07 -4.96719e-07 0 7.58764e-07 -4.75636e-07 0 6.40742e-07 -4.57179e-07 0 5.27199e-07 -4.41533e-07 0 4.17351e-07 -4.28914e-07 0 3.10449e-07 -4.18928e-07 0 2.05752e-07 -4.11936e-07 0 1.02509e-07 -4.07748e-07 0 0 -4.06167e-07 0 -1.84824e-06 5.92555e-06 0 1.68508e-06 5.5022e-06 0 3.52715e-06 3.75849e-06 0 4.20599e-06 2.27423e-06 0 4.38382e-06 1.22516e-06 0 4.34056e-06 5.11963e-07 0 4.1914e-06 3.36109e-08 0 3.98888e-06 -2.82037e-07 0 3.75978e-06 -4.83461e-07 0 3.51926e-06 -6.09319e-07 0 3.27621e-06 -6.81952e-07 0 3.03638e-06 -7.14938e-07 0 2.80328e-06 -7.24924e-07 0 2.57906e-06 -7.1745e-07 0 2.36499e-06 -6.99153e-07 0 2.16163e-06 -6.74613e-07 0 1.96912e-06 -6.45909e-07 0 1.78727e-06 -6.15688e-07 0 1.61568e-06 -5.85203e-07 0 1.45378e-06 -5.55507e-07 0 1.30092e-06 -5.27136e-07 0 1.15639e-06 -5.00743e-07 0 1.01941e-06 -4.76537e-07 0 8.89243e-07 -4.54528e-07 0 7.65086e-07 -4.35308e-07 0 6.46162e-07 -4.18473e-07 0 5.3171e-07 -4.04194e-07 0 4.20955e-07 -3.92673e-07 0 3.13148e-07 -3.83553e-07 0 2.07549e-07 -3.77166e-07 0 1.03407e-07 -3.73341e-07 0 0 -3.71896e-07 0 -1.51772e-06 4.83629e-06 0 1.26887e-06 4.6494e-06 0 3.01879e-06 3.37423e-06 0 3.81425e-06 2.13213e-06 0 4.10865e-06 1.1945e-06 0 4.15279e-06 5.35581e-07 0 4.06561e-06 8.54721e-08 0 3.90644e-06 -2.15097e-07 0 3.70751e-06 -4.08847e-07 0 3.48792e-06 -5.3127e-07 0 3.25929e-06 -6.03186e-07 0 3.02933e-06 -6.3734e-07 0 2.80288e-06 -6.49513e-07 0 2.58305e-06 -6.4494e-07 0 2.37176e-06 -6.29928e-07 0 2.17007e-06 -6.08841e-07 0 1.97843e-06 -5.83625e-07 0 1.79689e-06 -5.56822e-07 0 1.62523e-06 -5.29619e-07 0 1.46298e-06 -5.03005e-07 0 1.3096e-06 -4.77514e-07 0 1.16443e-06 -4.5375e-07 0 1.02673e-06 -4.31924e-07 0 8.95785e-07 -4.12059e-07 0 7.70827e-07 -3.94696e-07 0 6.51086e-07 -3.79478e-07 0 5.35811e-07 -3.66566e-07 0 4.24232e-07 -3.56143e-07 0 3.15602e-07 -3.47891e-07 0 2.09183e-07 -3.4211e-07 0 1.04223e-07 -3.38647e-07 0 0 -3.3734e-07 0 -1.28029e-06 3.99125e-06 0 9.95627e-07 3.91331e-06 0 2.61654e-06 2.97627e-06 0 3.4756e-06 1.95391e-06 0 3.85999e-06 1.13272e-06 0 3.97905e-06 5.36105e-07 0 3.94756e-06 1.20865e-07 0 3.82829e-06 -1.59733e-07 0 3.65747e-06 -3.42328e-07 0 3.45753e-06 -4.58829e-07 0 3.2425e-06 -5.28264e-07 0 3.02186e-06 -5.62372e-07 0 2.80173e-06 -5.75854e-07 0 2.58607e-06 -5.7357e-07 0 2.37747e-06 -5.61413e-07 0 2.17739e-06 -5.43469e-07 0 1.98661e-06 -5.2153e-07 0 1.80542e-06 -4.97996e-07 0 1.63372e-06 -4.7397e-07 0 1.47121e-06 -4.50368e-07 0 1.31737e-06 -4.27707e-07 0 1.17163e-06 -4.06541e-07 0 1.0333e-06 -3.87075e-07 0 9.01663e-07 -3.69341e-07 0 7.75988e-07 -3.53828e-07 0 6.55515e-07 -3.40225e-07 0 5.39502e-07 -3.28677e-07 0 4.27181e-07 -3.19352e-07 0 3.17811e-07 -3.11968e-07 0 2.10655e-07 -3.06795e-07 0 1.04958e-07 -3.03695e-07 0 0 -3.02525e-07 0 -1.10723e-06 3.30173e-06 0 8.12182e-07 3.27459e-06 0 2.30226e-06 2.58125e-06 0 3.18892e-06 1.75095e-06 0 3.64018e-06 1.04556e-06 0 3.82173e-06 5.16455e-07 0 3.83914e-06 1.41387e-07 0 3.75579e-06 -1.15003e-07 0 3.61064e-06 -2.83318e-07 0 3.42878e-06 -3.91619e-07 0 3.22631e-06 -4.56938e-07 0 3.01433e-06 -4.89874e-07 0 2.80007e-06 -5.03844e-07 0 2.5883e-06 -5.0328e-07 0 2.38221e-06 -4.93577e-07 0 2.18365e-06 -4.78484e-07 0 1.99371e-06 -4.59627e-07 0 1.81287e-06 -4.3922e-07 0 1.64119e-06 -4.18272e-07 0 1.47845e-06 -3.97616e-07 0 1.32424e-06 -3.7774e-07 0 1.17801e-06 -3.59142e-07 0 1.03911e-06 -3.42016e-07 0 9.06871e-07 -3.26402e-07 0 7.80564e-07 -3.12732e-07 0 6.59444e-07 -3.00739e-07 0 5.42776e-07 -2.90555e-07 0 4.29799e-07 -2.82329e-07 0 3.19773e-07 -2.75813e-07 0 2.11961e-07 -2.71247e-07 0 1.05611e-07 -2.68512e-07 0 0 -2.67478e-07 0 -9.7835e-07 2.71694e-06 0 6.84785e-07 2.71309e-06 0 2.0569e-06 2.19753e-06 0 2.94952e-06 1.532e-06 0 3.44929e-06 9.38239e-07 0 3.68201e-06 4.79576e-07 0 3.74155e-06 1.48763e-07 0 3.68995e-06 -7.9845e-08 0 3.56779e-06 -2.31129e-07 0 3.40223e-06 -3.29187e-07 0 3.21114e-06 -3.88911e-07 0 3.00702e-06 -4.19645e-07 0 2.79811e-06 -4.33357e-07 0 2.5899e-06 -4.33989e-07 0 2.38611e-06 -4.26371e-07 0 2.18897e-06 -4.13864e-07 0 1.99981e-06 -3.97908e-07 0 1.81932e-06 -3.80501e-07 0 1.64768e-06 -3.62541e-07 0 1.48476e-06 -3.4477e-07 0 1.33022e-06 -3.27636e-07 0 1.18357e-06 -3.11578e-07 0 1.04419e-06 -2.96775e-07 0 9.11428e-07 -2.83269e-07 0 7.84571e-07 -2.71436e-07 0 6.62885e-07 -2.6105e-07 0 5.45645e-07 -2.52228e-07 0 4.32094e-07 -2.451e-07 0 3.21492e-07 -2.39453e-07 0 2.13106e-07 -2.35495e-07 0 1.06183e-07 -2.33124e-07 0 0 -2.32228e-07 0 -8.82171e-07 2.20536e-06 0 5.95296e-07 2.21141e-06 0 1.86761e-06 1.82824e-06 0 2.7539e-06 1.30336e-06 0 3.28766e-06 8.15301e-07 0 3.5612e-06 4.28324e-07 0 3.65608e-06 1.44786e-07 0 3.6318e-06 -5.31014e-08 0 3.52968e-06 -1.84994e-07 0 3.37844e-06 -2.71021e-07 0 3.19739e-06 -3.23837e-07 0 3.00022e-06 -3.51454e-07 0 2.79604e-06 -3.64238e-07 0 2.591e-06 -3.65601e-07 0 2.38927e-06 -3.59739e-07 0 2.19339e-06 -3.49578e-07 0 2.00495e-06 -3.36364e-07 0 1.82478e-06 -3.2184e-07 0 1.65319e-06 -3.06787e-07 0 1.49014e-06 -2.91847e-07 0 1.33534e-06 -2.77417e-07 0 1.18833e-06 -2.63874e-07 0 1.04854e-06 -2.51378e-07 0 9.15329e-07 -2.39969e-07 0 7.88001e-07 -2.29967e-07 0 6.65833e-07 -2.21185e-07 0 5.48104e-07 -2.13723e-07 0 4.3406e-07 -2.07693e-07 0 3.22966e-07 -2.02915e-07 0 2.14088e-07 -1.99565e-07 0 1.06674e-07 -1.97558e-07 0 0 -1.968e-07 0 -8.10581e-07 1.74604e-06 0 5.31902e-07 1.75532e-06 0 1.72351e-06 1.47353e-06 0 2.59785e-06 1.06933e-06 0 3.15475e-06 6.80564e-07 0 3.45998e-06 3.65388e-07 0 3.58366e-06 1.31269e-07 0 3.58215e-06 -3.35492e-08 0 3.49694e-06 -1.44079e-07 0 3.35787e-06 -2.1655e-07 0 3.18539e-06 -2.61332e-07 0 2.99416e-06 -2.85039e-07 0 2.79405e-06 -2.96315e-07 0 2.59173e-06 -2.98002e-07 0 2.39176e-06 -2.9361e-07 0 2.19698e-06 -2.8559e-07 0 2.00916e-06 -2.74976e-07 0 1.82928e-06 -2.63235e-07 0 1.65775e-06 -2.51019e-07 0 1.4946e-06 -2.38862e-07 0 1.33958e-06 -2.27103e-07 0 1.19229e-06 -2.16054e-07 0 1.05216e-06 -2.0585e-07 0 9.18576e-07 -1.96528e-07 0 7.90859e-07 -1.88352e-07 0 6.68289e-07 -1.81172e-07 0 5.50153e-07 -1.75069e-07 0 4.35699e-07 -1.70135e-07 0 3.24195e-07 -1.66226e-07 0 2.14907e-07 -1.63485e-07 0 1.07083e-07 -1.61843e-07 0 0 -1.61223e-07 0 -7.58219e-07 1.32416e-06 0 4.87316e-07 1.3333e-06 0 1.61651e-06 1.13182e-06 0 2.47765e-06 8.32644e-07 0 3.04976e-06 5.37166e-07 0 3.37876e-06 2.9326e-07 0 3.52497e-06 1.10015e-07 0 3.54166e-06 -1.99195e-08 0 3.47012e-06 -1.07499e-07 0 3.34093e-06 -1.65164e-07 0 3.17543e-06 -2.00976e-07 0 2.98906e-06 -2.20113e-07 0 2.79227e-06 -2.29396e-07 0 2.59218e-06 -2.31069e-07 0 2.39366e-06 -2.27907e-07 0 2.19979e-06 -2.21853e-07 0 2.01249e-06 -2.13723e-07 0 1.83285e-06 -2.0468e-07 0 1.66138e-06 -1.95242e-07 0 1.49815e-06 -1.85829e-07 0 1.34297e-06 -1.76713e-07 0 1.19545e-06 -1.68138e-07 0 1.05505e-06 -1.60215e-07 0 9.21173e-07 -1.52973e-07 0 7.93144e-07 -1.46619e-07 0 6.70254e-07 -1.41037e-07 0 5.51792e-07 -1.36291e-07 0 4.37011e-07 -1.32455e-07 0 3.25178e-07 -1.29414e-07 0 2.15562e-07 -1.27283e-07 0 1.07411e-07 -1.26005e-07 0 0 -1.25523e-07 0 -7.21525e-07 9.28595e-07 0 4.56982e-07 9.35905e-07 0 1.54078e-06 8.00687e-07 0 2.39019e-06 5.94904e-07 0 2.97186e-06 3.87655e-07 0 3.31773e-06 2.14232e-07 0 3.48052e-06 8.27996e-08 0 3.51084e-06 -1.09152e-08 0 3.44962e-06 -7.43273e-08 0 3.32794e-06 -1.16212e-07 0 3.16774e-06 -1.4232e-07 0 2.98508e-06 -1.56366e-07 0 2.79083e-06 -1.63275e-07 0 2.59244e-06 -1.64664e-07 0 2.39504e-06 -1.62543e-07 0 2.20186e-06 -1.58319e-07 0 2.01496e-06 -1.52578e-07 0 1.83552e-06 -1.46168e-07 0 1.66409e-06 -1.3946e-07 0 1.50081e-06 -1.3276e-07 0 1.3455e-06 -1.26264e-07 0 1.19781e-06 -1.2015e-07 0 1.05722e-06 -1.14498e-07 0 9.23119e-07 -1.09329e-07 0 7.94858e-07 -1.04794e-07 0 6.71728e-07 -1.00808e-07 0 5.53022e-07 -9.74189e-08 0 4.37995e-07 -9.46789e-08 0 3.25916e-07 -9.25072e-08 0 2.16054e-07 -9.09845e-08 0 1.07656e-07 -9.0072e-08 0 0 -8.97273e-08 0 -6.98185e-07 5.50505e-07 0 4.3808e-07 5.55143e-07 0 1.49231e-06 4.77286e-07 0 2.33312e-06 3.56911e-07 0 2.92031e-06 2.34112e-07 0 3.27697e-06 1.30414e-07 0 3.45067e-06 5.13592e-08 0 3.49006e-06 -5.22259e-09 0 3.43576e-06 -4.36095e-08 0 3.31913e-06 -6.90186e-08 0 3.16251e-06 -8.48955e-08 0 2.98235e-06 -9.34746e-08 0 2.78981e-06 -9.77311e-08 0 2.59257e-06 -9.86429e-08 0 2.39593e-06 -9.74259e-08 0 2.20322e-06 -9.49313e-08 0 2.01659e-06 -9.15144e-08 0 1.83728e-06 -8.76876e-08 0 1.66589e-06 -8.36766e-08 0 1.50258e-06 -7.96655e-08 0 1.34719e-06 -7.57748e-08 0 1.19939e-06 -7.21107e-08 0 1.05866e-06 -6.87219e-08 0 9.24418e-07 -6.56229e-08 0 7.96002e-07 -6.29024e-08 0 6.72712e-07 -6.05116e-08 0 5.53843e-07 -5.84786e-08 0 4.38652e-07 -5.68346e-08 0 3.26409e-07 -5.55316e-08 0 2.16382e-07 -5.4618e-08 0 1.0782e-07 -5.40705e-08 0 0 -5.38636e-08 0 -6.86804e-07 1.82416e-07 0 4.28975e-07 1.83999e-07 0 1.46859e-06 1.58573e-07 0 2.30488e-06 1.18956e-07 0 2.89459e-06 7.82841e-08 0 3.25652e-06 4.37809e-08 0 3.43564e-06 1.73989e-08 0 3.47957e-06 -1.51964e-09 0 3.42875e-06 -1.43716e-08 0 3.31466e-06 -2.28877e-08 0 3.15986e-06 -2.82154e-08 0 2.98096e-06 -3.11004e-08 0 2.78929e-06 -3.25379e-08 0 2.59263e-06 -3.2855e-08 0 2.39637e-06 -3.24586e-08 0 2.2039e-06 -3.16337e-08 0 2.01741e-06 -3.04993e-08 0 1.83817e-06 -2.9227e-08 0 1.66679e-06 -2.78923e-08 0 1.50346e-06 -2.65568e-08 0 1.34804e-06 -2.52609e-08 0 1.20018e-06 -2.40403e-08 0 1.05939e-06 -2.29112e-08 0 9.2507e-07 -2.18785e-08 0 7.96576e-07 -2.09718e-08 0 6.73205e-07 -2.0175e-08 0 5.54255e-07 -1.94974e-08 0 4.38982e-07 -1.89494e-08 0 3.26656e-07 -1.85151e-08 0 2.16547e-07 -1.82106e-08 0 1.07903e-07 -1.8028e-08 0 0 -1.79591e-08 0 -6.86804e-07 -1.82416e-07 0 4.28975e-07 -1.83999e-07 0 1.46859e-06 -1.58573e-07 0 2.30488e-06 -1.18956e-07 0 2.89459e-06 -7.82841e-08 0 3.25652e-06 -4.37809e-08 0 3.43564e-06 -1.73989e-08 0 3.47957e-06 1.51964e-09 0 3.42875e-06 1.43716e-08 0 3.31466e-06 2.28877e-08 0 3.15986e-06 2.82154e-08 0 2.98096e-06 3.11004e-08 0 2.78929e-06 3.25379e-08 0 2.59263e-06 3.2855e-08 0 2.39637e-06 3.24586e-08 0 2.2039e-06 3.16337e-08 0 2.01741e-06 3.04993e-08 0 1.83817e-06 2.9227e-08 0 1.66679e-06 2.78923e-08 0 1.50346e-06 2.65568e-08 0 1.34804e-06 2.52609e-08 0 1.20018e-06 2.40403e-08 0 1.05939e-06 2.29112e-08 0 9.2507e-07 2.18785e-08 0 7.96576e-07 2.09718e-08 0 6.73205e-07 2.0175e-08 0 5.54255e-07 1.94974e-08 0 4.38982e-07 1.89494e-08 0 3.26656e-07 1.85151e-08 0 2.16547e-07 1.82106e-08 0 1.07903e-07 1.8028e-08 0 0 1.79591e-08 0 -6.98185e-07 -5.50505e-07 0 4.3808e-07 -5.55143e-07 0 1.49231e-06 -4.77286e-07 0 2.33312e-06 -3.56911e-07 0 2.92031e-06 -2.34112e-07 0 3.27697e-06 -1.30414e-07 0 3.45067e-06 -5.13592e-08 0 3.49006e-06 5.22259e-09 0 3.43576e-06 4.36095e-08 0 3.31913e-06 6.90186e-08 0 3.16251e-06 8.48955e-08 0 2.98235e-06 9.34746e-08 0 2.78981e-06 9.77311e-08 0 2.59257e-06 9.86429e-08 0 2.39593e-06 9.74259e-08 0 2.20322e-06 9.49313e-08 0 2.01659e-06 9.15144e-08 0 1.83728e-06 8.76876e-08 0 1.66589e-06 8.36766e-08 0 1.50258e-06 7.96655e-08 0 1.34719e-06 7.57748e-08 0 1.19939e-06 7.21107e-08 0 1.05866e-06 6.87219e-08 0 9.24418e-07 6.56229e-08 0 7.96002e-07 6.29024e-08 0 6.72712e-07 6.05116e-08 0 5.53843e-07 5.84786e-08 0 4.38652e-07 5.68346e-08 0 3.26409e-07 5.55316e-08 0 2.16382e-07 5.4618e-08 0 1.0782e-07 5.40705e-08 0 0 5.38636e-08 0 -7.21525e-07 -9.28595e-07 0 4.56982e-07 -9.35905e-07 0 1.54078e-06 -8.00687e-07 0 2.39019e-06 -5.94904e-07 0 2.97186e-06 -3.87655e-07 0 3.31773e-06 -2.14232e-07 0 3.48052e-06 -8.27996e-08 0 3.51084e-06 1.09152e-08 0 3.44962e-06 7.43273e-08 0 3.32794e-06 1.16212e-07 0 3.16774e-06 1.4232e-07 0 2.98508e-06 1.56366e-07 0 2.79083e-06 1.63275e-07 0 2.59244e-06 1.64664e-07 0 2.39504e-06 1.62543e-07 0 2.20186e-06 1.58319e-07 0 2.01496e-06 1.52578e-07 0 1.83552e-06 1.46168e-07 0 1.66409e-06 1.3946e-07 0 1.50081e-06 1.3276e-07 0 1.3455e-06 1.26264e-07 0 1.19781e-06 1.2015e-07 0 1.05722e-06 1.14498e-07 0 9.23119e-07 1.09329e-07 0 7.94858e-07 1.04794e-07 0 6.71728e-07 1.00808e-07 0 5.53022e-07 9.74189e-08 0 4.37995e-07 9.46789e-08 0 3.25916e-07 9.25072e-08 0 2.16054e-07 9.09845e-08 0 1.07656e-07 9.0072e-08 0 0 8.97273e-08 0 -7.58219e-07 -1.32416e-06 0 4.87316e-07 -1.3333e-06 0 1.61651e-06 -1.13182e-06 0 2.47765e-06 -8.32644e-07 0 3.04976e-06 -5.37166e-07 0 3.37876e-06 -2.9326e-07 0 3.52497e-06 -1.10015e-07 0 3.54166e-06 1.99195e-08 0 3.47012e-06 1.07499e-07 0 3.34093e-06 1.65164e-07 0 3.17543e-06 2.00976e-07 0 2.98906e-06 2.20113e-07 0 2.79227e-06 2.29396e-07 0 2.59218e-06 2.31069e-07 0 2.39366e-06 2.27907e-07 0 2.19979e-06 2.21853e-07 0 2.01249e-06 2.13723e-07 0 1.83285e-06 2.0468e-07 0 1.66138e-06 1.95242e-07 0 1.49815e-06 1.85829e-07 0 1.34297e-06 1.76713e-07 0 1.19545e-06 1.68138e-07 0 1.05505e-06 1.60215e-07 0 9.21173e-07 1.52973e-07 0 7.93144e-07 1.46619e-07 0 6.70254e-07 1.41037e-07 0 5.51792e-07 1.36291e-07 0 4.37011e-07 1.32455e-07 0 3.25178e-07 1.29414e-07 0 2.15562e-07 1.27283e-07 0 1.07411e-07 1.26005e-07 0 0 1.25523e-07 0 -8.10581e-07 -1.74604e-06 0 5.31902e-07 -1.75532e-06 0 1.72351e-06 -1.47353e-06 0 2.59785e-06 -1.06933e-06 0 3.15475e-06 -6.80564e-07 0 3.45998e-06 -3.65388e-07 0 3.58366e-06 -1.31269e-07 0 3.58215e-06 3.35492e-08 0 3.49694e-06 1.44079e-07 0 3.35787e-06 2.1655e-07 0 3.18539e-06 2.61332e-07 0 2.99416e-06 2.85039e-07 0 2.79405e-06 2.96315e-07 0 2.59173e-06 2.98002e-07 0 2.39176e-06 2.9361e-07 0 2.19698e-06 2.8559e-07 0 2.00916e-06 2.74976e-07 0 1.82928e-06 2.63235e-07 0 1.65775e-06 2.51019e-07 0 1.4946e-06 2.38862e-07 0 1.33958e-06 2.27103e-07 0 1.19229e-06 2.16054e-07 0 1.05216e-06 2.0585e-07 0 9.18576e-07 1.96528e-07 0 7.90859e-07 1.88352e-07 0 6.68289e-07 1.81172e-07 0 5.50153e-07 1.75069e-07 0 4.35699e-07 1.70135e-07 0 3.24195e-07 1.66226e-07 0 2.14907e-07 1.63485e-07 0 1.07083e-07 1.61843e-07 0 0 1.61223e-07 0 -8.82171e-07 -2.20536e-06 0 5.95296e-07 -2.21141e-06 0 1.86761e-06 -1.82824e-06 0 2.7539e-06 -1.30336e-06 0 3.28766e-06 -8.15301e-07 0 3.5612e-06 -4.28324e-07 0 3.65608e-06 -1.44786e-07 0 3.6318e-06 5.31014e-08 0 3.52968e-06 1.84994e-07 0 3.37844e-06 2.71021e-07 0 3.19739e-06 3.23837e-07 0 3.00022e-06 3.51454e-07 0 2.79604e-06 3.64238e-07 0 2.591e-06 3.65601e-07 0 2.38927e-06 3.59739e-07 0 2.19339e-06 3.49578e-07 0 2.00495e-06 3.36364e-07 0 1.82478e-06 3.2184e-07 0 1.65319e-06 3.06787e-07 0 1.49014e-06 2.91847e-07 0 1.33534e-06 2.77417e-07 0 1.18833e-06 2.63874e-07 0 1.04854e-06 2.51378e-07 0 9.15329e-07 2.39969e-07 0 7.88001e-07 2.29967e-07 0 6.65833e-07 2.21185e-07 0 5.48104e-07 2.13723e-07 0 4.3406e-07 2.07693e-07 0 3.22966e-07 2.02915e-07 0 2.14088e-07 1.99565e-07 0 1.06674e-07 1.97558e-07 0 0 1.968e-07 0 -9.7835e-07 -2.71694e-06 0 6.84785e-07 -2.71309e-06 0 2.0569e-06 -2.19753e-06 0 2.94952e-06 -1.532e-06 0 3.44929e-06 -9.38239e-07 0 3.68201e-06 -4.79576e-07 0 3.74155e-06 -1.48763e-07 0 3.68995e-06 7.9845e-08 0 3.56779e-06 2.31129e-07 0 3.40223e-06 3.29187e-07 0 3.21114e-06 3.88911e-07 0 3.00702e-06 4.19645e-07 0 2.79811e-06 4.33357e-07 0 2.5899e-06 4.33989e-07 0 2.38611e-06 4.26371e-07 0 2.18897e-06 4.13864e-07 0 1.99981e-06 3.97908e-07 0 1.81932e-06 3.80501e-07 0 1.64768e-06 3.62541e-07 0 1.48476e-06 3.4477e-07 0 1.33022e-06 3.27636e-07 0 1.18357e-06 3.11578e-07 0 1.04419e-06 2.96775e-07 0 9.11428e-07 2.83269e-07 0 7.84571e-07 2.71436e-07 0 6.62885e-07 2.6105e-07 0 5.45645e-07 2.52228e-07 0 4.32094e-07 2.451e-07 0 3.21492e-07 2.39453e-07 0 2.13106e-07 2.35495e-07 0 1.06183e-07 2.33124e-07 0 0 2.32228e-07 0 -1.10723e-06 -3.30173e-06 0 8.12182e-07 -3.27459e-06 0 2.30226e-06 -2.58125e-06 0 3.18892e-06 -1.75095e-06 0 3.64018e-06 -1.04556e-06 0 3.82173e-06 -5.16455e-07 0 3.83914e-06 -1.41387e-07 0 3.75579e-06 1.15003e-07 0 3.61064e-06 2.83318e-07 0 3.42878e-06 3.91619e-07 0 3.22631e-06 4.56938e-07 0 3.01433e-06 4.89874e-07 0 2.80007e-06 5.03844e-07 0 2.5883e-06 5.0328e-07 0 2.38221e-06 4.93577e-07 0 2.18365e-06 4.78484e-07 0 1.99371e-06 4.59627e-07 0 1.81287e-06 4.3922e-07 0 1.64119e-06 4.18272e-07 0 1.47845e-06 3.97616e-07 0 1.32424e-06 3.7774e-07 0 1.17801e-06 3.59142e-07 0 1.03911e-06 3.42016e-07 0 9.06871e-07 3.26402e-07 0 7.80564e-07 3.12732e-07 0 6.59444e-07 3.00739e-07 0 5.42776e-07 2.90555e-07 0 4.29799e-07 2.82329e-07 0 3.19773e-07 2.75813e-07 0 2.11961e-07 2.71247e-07 0 1.05611e-07 2.68512e-07 0 0 2.67478e-07 0 -1.28029e-06 -3.99125e-06 0 9.95627e-07 -3.91331e-06 0 2.61654e-06 -2.97627e-06 0 3.4756e-06 -1.95391e-06 0 3.85999e-06 -1.13272e-06 0 3.97905e-06 -5.36105e-07 0 3.94756e-06 -1.20865e-07 0 3.82829e-06 1.59733e-07 0 3.65747e-06 3.42328e-07 0 3.45753e-06 4.58829e-07 0 3.2425e-06 5.28264e-07 0 3.02186e-06 5.62372e-07 0 2.80173e-06 5.75854e-07 0 2.58607e-06 5.7357e-07 0 2.37747e-06 5.61413e-07 0 2.17739e-06 5.43469e-07 0 1.98661e-06 5.2153e-07 0 1.80542e-06 4.97996e-07 0 1.63372e-06 4.7397e-07 0 1.47121e-06 4.50368e-07 0 1.31737e-06 4.27707e-07 0 1.17163e-06 4.06541e-07 0 1.0333e-06 3.87075e-07 0 9.01663e-07 3.69341e-07 0 7.75988e-07 3.53828e-07 0 6.55515e-07 3.40225e-07 0 5.39502e-07 3.28677e-07 0 4.27181e-07 3.19352e-07 0 3.17811e-07 3.11968e-07 0 2.10655e-07 3.06795e-07 0 1.04958e-07 3.03695e-07 0 0 3.02525e-07 0 -1.51772e-06 -4.83629e-06 0 1.26887e-06 -4.6494e-06 0 3.01879e-06 -3.37423e-06 0 3.81425e-06 -2.13213e-06 0 4.10865e-06 -1.1945e-06 0 4.15279e-06 -5.35581e-07 0 4.06561e-06 -8.54721e-08 0 3.90644e-06 2.15097e-07 0 3.70751e-06 4.08847e-07 0 3.48792e-06 5.3127e-07 0 3.25929e-06 6.03186e-07 0 3.02933e-06 6.3734e-07 0 2.80288e-06 6.49513e-07 0 2.58305e-06 6.4494e-07 0 2.37176e-06 6.29928e-07 0 2.17007e-06 6.08841e-07 0 1.97843e-06 5.83625e-07 0 1.79689e-06 5.56822e-07 0 1.62523e-06 5.29619e-07 0 1.46298e-06 5.03005e-07 0 1.3096e-06 4.77514e-07 0 1.16443e-06 4.5375e-07 0 1.02673e-06 4.31924e-07 0 8.95785e-07 4.12059e-07 0 7.70827e-07 3.94696e-07 0 6.51086e-07 3.79478e-07 0 5.35811e-07 3.66566e-07 0 4.24232e-07 3.56143e-07 0 3.15602e-07 3.47891e-07 0 2.09183e-07 3.4211e-07 0 1.04223e-07 3.38647e-07 0 0 3.3734e-07 0 -1.84824e-06 -5.92555e-06 0 1.68508e-06 -5.5022e-06 0 3.52715e-06 -3.75849e-06 0 4.20599e-06 -2.27423e-06 0 4.38382e-06 -1.22516e-06 0 4.34056e-06 -5.11963e-07 0 4.1914e-06 -3.36109e-08 0 3.98888e-06 2.82037e-07 0 3.75978e-06 4.83461e-07 0 3.51926e-06 6.09319e-07 0 3.27621e-06 6.81952e-07 0 3.03638e-06 7.14938e-07 0 2.80328e-06 7.24924e-07 0 2.57906e-06 7.1745e-07 0 2.36499e-06 6.99153e-07 0 2.16163e-06 6.74613e-07 0 1.96912e-06 6.45909e-07 0 1.78727e-06 6.15688e-07 0 1.61568e-06 5.85203e-07 0 1.45378e-06 5.55507e-07 0 1.30092e-06 5.27136e-07 0 1.15639e-06 5.00743e-07 0 1.01941e-06 4.76537e-07 0 8.89243e-07 4.54528e-07 0 7.65086e-07 4.35308e-07 0 6.46162e-07 4.18473e-07 0 5.3171e-07 4.04194e-07 0 4.20955e-07 3.92673e-07 0 3.13148e-07 3.83553e-07 0 2.07549e-07 3.77166e-07 0 1.03407e-07 3.73341e-07 0 0 3.71896e-07 0 -2.31581e-06 -7.42964e-06 0 2.33378e-06 -6.47773e-06 0 4.15923e-06 -4.10052e-06 0 4.6494e-06 -2.36645e-06 0 4.68206e-06 -1.21879e-06 0 4.53952e-06 -4.62515e-07 0 4.32288e-06 3.61182e-08 0 4.07416e-06 3.61337e-07 0 3.81328e-06 5.66648e-07 0 3.55084e-06 6.93277e-07 0 3.29276e-06 7.64751e-07 0 3.04267e-06 7.9529e-07 0 2.80268e-06 8.02161e-07 0 2.57394e-06 7.91143e-07 0 2.35702e-06 7.69108e-07 0 2.15198e-06 7.40789e-07 0 1.95863e-06 7.08376e-07 0 1.77651e-06 6.74577e-07 0 1.60505e-06 6.407e-07 0 1.44357e-06 6.07849e-07 0 1.29131e-06 5.76548e-07 0 1.14751e-06 5.47492e-07 0 1.01135e-06 5.20885e-07 0 8.82033e-07 4.96719e-07 0 7.58764e-07 4.75636e-07 0 6.40742e-07 4.57179e-07 0 5.27199e-07 4.41533e-07 0 4.17351e-07 4.28914e-07 0 3.10449e-07 4.18928e-07 0 2.05752e-07 4.11936e-07 0 1.02509e-07 4.07748e-07 0 0 4.06167e-07 0 -2.9751e-06 -9.71866e-06 0 3.35555e-06 -7.53406e-06 0 4.92445e-06 -4.35753e-06 0 5.13861e-06 -2.39368e-06 0 4.99828e-06 -1.1698e-06 0 4.74622e-06 -3.84871e-07 0 4.45772e-06 1.24844e-07 0 4.1607e-06 4.53598e-07 0 3.86691e-06 6.58756e-07 0 3.58191e-06 7.83354e-07 0 3.30841e-06 8.51713e-07 0 3.04783e-06 8.78473e-07 0 2.80082e-06 8.8127e-07 0 2.56751e-06 8.6604e-07 0 2.34772e-06 8.39797e-07 0 2.14103e-06 8.07359e-07 0 1.94688e-06 7.71008e-07 0 1.76456e-06 7.33469e-07 0 1.59332e-06 6.96086e-07 0 1.43233e-06 6.60003e-07 0 1.28076e-06 6.25719e-07 0 1.13778e-06 5.93968e-07 0 1.00251e-06 5.64938e-07 0 8.74149e-07 5.38602e-07 0 7.51857e-07 5.1565e-07 0 6.34824e-07 4.95569e-07 0 5.22274e-07 4.78556e-07 0 4.13419e-07 4.6484e-07 0 3.07506e-07 4.53988e-07 0 2.03793e-07 4.46391e-07 0 1.01531e-07 4.41843e-07 0 0 4.40125e-07 0 -3.80858e-06 -1.37334e-05 0 4.9218e-06 -8.50577e-06 0 5.81194e-06 -4.47494e-06 0 5.66176e-06 -2.3414e-06 0 5.32558e-06 -1.07349e-06 0 4.95656e-06 -2.77239e-07 0 4.59337e-06 2.33352e-07 0 4.24681e-06 5.59205e-07 0 3.91954e-06 7.59994e-07 0 3.61168e-06 8.79669e-07 0 3.32261e-06 9.42904e-07 0 3.05148e-06 9.64524e-07 0 2.79744e-06 9.62264e-07 0 2.55957e-06 9.4214e-07 0 2.33696e-06 9.1121e-07 0 2.12869e-06 8.74306e-07 0 1.93382e-06 8.33784e-07 0 1.75138e-06 7.92338e-07 0 1.58044e-06 7.51331e-07 0 1.42004e-06 7.1194e-07 0 1.26926e-06 6.74621e-07 0 1.12719e-06 6.4014e-07 0 9.92916e-07 6.08667e-07 0 8.65592e-07 5.80149e-07 0 7.44366e-07 5.55321e-07 0 6.2841e-07 5.33614e-07 0 5.1694e-07 5.15233e-07 0 4.09161e-07 5.00421e-07 0 3.04319e-07 4.88706e-07 0 2.01672e-07 4.80506e-07 0 1.00471e-07 4.75597e-07 0 0 4.73744e-07 0 -4.19475e-06 -2.22611e-05 0 7.10242e-06 -9.01548e-06 0 6.78162e-06 -4.39842e-06 0 6.20143e-06 -2.19842e-06 0 5.65568e-06 -9.26738e-07 0 5.16602e-06 -1.38576e-07 0 4.7271e-06 3.62026e-07 0 4.33077e-06 6.78308e-07 0 3.97001e-06 8.70421e-07 0 3.63936e-06 9.82241e-07 0 3.33482e-06 1.03833e-06 0 3.05324e-06 1.05343e-06 0 2.79225e-06 1.04512e-06 0 2.54994e-06 1.01942e-06 0 2.32461e-06 9.83319e-07 0 2.11486e-06 9.416e-07 0 1.91937e-06 8.96672e-07 0 1.73692e-06 8.5115e-07 0 1.56639e-06 8.06404e-07 0 1.40669e-06 7.63628e-07 0 1.25679e-06 7.2322e-07 0 1.11573e-06 6.85976e-07 0 9.82549e-07 6.52041e-07 0 8.56359e-07 6.21328e-07 0 7.36289e-07 5.94619e-07 0 6.21499e-07 5.71284e-07 0 5.11194e-07 5.51536e-07 0 4.04577e-07 5.3563e-07 0 3.00888e-07 5.23054e-07 0 1.9939e-07 5.14253e-07 0 9.93313e-08 5.08985e-07 0 0 5.06996e-07 0 5.23282e-05 -3.67806e-05 0 9.57887e-06 -8.60121e-06 0 7.7641e-06 -4.09472e-06 0 6.73609e-06 -1.95955e-06 0 5.97941e-06 -7.28497e-07 0 5.36984e-06 3.12727e-08 0 4.85612e-06 5.10803e-07 0 4.4108e-06 8.10804e-07 0 4.01716e-06 9.89942e-07 0 3.66417e-06 1.09099e-06 0 3.34448e-06 1.13791e-06 0 3.05271e-06 1.14514e-06 0 2.78501e-06 1.1298e-06 0 2.53842e-06 1.09783e-06 0 2.31054e-06 1.05608e-06 0 2.09945e-06 1.0092e-06 0 1.90348e-06 9.59632e-07 0 1.72115e-06 9.09868e-07 0 1.55115e-06 8.61268e-07 0 1.39225e-06 8.1503e-07 0 1.24335e-06 7.71482e-07 0 1.1034e-06 7.31444e-07 0 9.71406e-07 6.95026e-07 0 8.46446e-07 6.62108e-07 0 7.27626e-07 6.33514e-07 0 6.14091e-07 6.08551e-07 0 5.05039e-07 5.87437e-07 0 3.99667e-07 5.70439e-07 0 2.97216e-07 5.57004e-07 0 1.96946e-07 5.47604e-07 0 9.81114e-08 5.41979e-07 0 0 5.39855e-07 0 </DataArray> 
</PointData> 
<Points> 
<DataArray type="Float32" NumberOfComponents="3"> 