<?xml version="1.0"?> 
<VTKFile type="StructuredGrid" version="0.1"> 
<StructuredGrid WholeExtent="0 31 0 31 0 0"> 
<Piece Extent="0 31 0 31 0 0"> 
<PointData>
<DataArray type="Float32" Name="B" format="ascii" NumberOfComponents="3"> 
5.1409e-05 0.00011963 0 7.86211e-05 4.79701e-07 0 8.077e-05 -8.61978e-07 0 8.81996e-05 -1.25905e-06 0 9.76646e-05 -1.45443e-06 0 0.000108104 -1.53621e-06 0 0.000118789 -1.52264e-06 0 0.000129109 -1.43018e-06 0 0.000138597 -1.28266e-06 0 0.00014696 -1.10642e-06 0 0.00015406 -9.20303e-07 0 0.00015987 -7.36234e-07 0 0.000164419 -5.59727e-07 0 0.000167764 -3.92031e-07 0 0.000169957 -2.31891e-07 0 0.000171043 -7.67179e-08 0 0.000171043 7.67179e-08 0 0.000169957 2.31891e-07 0 0.000167764 3.92031e-07 0 0.000164419 5.59727e-07 0 0.00015987 7.36234e-07 0 0.00015406 9.20303e-07 0 0.00014696 1.10642e-06 0 0.000138597 1.28266e-06 0 0.000129109 1.43018e-06 0 0.000118789 1.52264e-06 0 0.000108104 1.53621e-06 0 9.76646e-05 1.45443e-06 0 8.81996e-05 1.25905e-06 0 8.077e-05 8.61978e-07 0 7.86211e-05 -4.79701e-07 0 5.1409e-05 -0.00011963 0 5.85434e-05 6.72343e-06 0 7.08588e-05 -2.11713e-06 0 7.83886e-05 -7.52853e-06 0 8.70269e-05 -1.02255e-05 0 9.70623e-05 -1.17235e-05 0 0.000107958 -1.23697e-05 0 0.000119044 -1.22497e-05 0 0.00012967 -1.14892e-05 0 0.000139344 -1.02887e-05 0 0.000147788 -8.86528e-06 0 0.000154901 -7.36987e-06 0 0.000160685 -5.89499e-06 0 0.000165196 -4.48217e-06 0 0.000168502 -3.13992e-06 0 0.000170668 -1.85765e-06 0 0.000171739 -6.14644e-07 0 0.000171739 6.14644e-07 0 0.000170668 1.85765e-06 0 0.000168502 3.13992e-06 0 0.000165196 4.48217e-06 0 0.000160685 5.89499e-06 0 0.000154901 7.36987e-06 0 0.000147788 8.86528e-06 0 0.000139344 1.02887e-05 0 0.00012967 1.14892e-05 0 0.000119044 1.22497e-05 0 0.000107958 1.23697e-05 0 9.70623e-05 1.17235e-05 0 8.70269e-05 1.02255e-05 0 7.83886e-05 7.52853e-06 0 7.08588e-05 2.11713e-06 0 5.85434e-05 -6.72343e-06 0 5.40449e-05 -6.8105e-06 0 6.46279e-05 -1.15391e-05 0 7.43014e-05 -1.64192e-05 0 8.44023e-05 -2.02291e-05 0 9.55805e-05 -2.28122e-05 0 0.000107624 -2.39847e-05 0 0.00011979 -2.36337e-05 0 0.000131221 -2.1985e-05 0 0.000141349 -1.95125e-05 0 0.000149965 -1.66843e-05 0 0.000157075 -1.37901e-05 0 0.000162774 -1.09862e-05 0 0.000167174 -8.33097e-06 0 0.000170378 -5.82636e-06 0 0.000172469 -3.44365e-06 0 0.0001735 -1.1389e-06 0 0.0001735 1.1389e-06 0 0.000172469 3.44365e-06 0 0.000170378 5.82636e-06 0 0.000167174 8.33097e-06 0 0.000162774 1.09862e-05 0 0.000157075 1.37901e-05 0 0.000149965 1.66843e-05 0 0.000141349 1.95125e-05 0 0.000131221 2.1985e-05 0 0.00011979 2.36337e-05 0 0.000107624 2.39847e-05 0 9.55805e-05 2.28122e-05 0 8.44023e-05 2.02291e-05 0 7.43014e-05 1.64192e-05 0 6.46279e-05 1.15391e-05 0 5.40449e-05 6.8105e-06 0 5.02973e-05 -1.67994e-05 0 5.96549e-05 -2.13559e-05 0 6.95729e-05 -2.65103e-05 0 8.0565e-05 -3.14216e-05 0 9.3141e-05 -3.5315e-05 0 0.000107147 -3.71978e-05 0 0.000121331 -3.63639e-05 0 0.000134139 -3.32887e-05 0 0.000144901 -2.90721e-05 0 0.000153659 -2.45435e-05 0 0.000160663 -2.01039e-05 0 0.000166158 -1.59193e-05 0 0.000170342 -1.20244e-05 0 0.000173362 -8.3888e-06 0 0.000175323 -4.95115e-06 0 0.000176287 -1.6364e-06 0 0.000176287 1.6364e-06 0 0.000175323 4.95115e-06 0 0.000173362 8.3888e-06 0 0.000170342 1.20244e-05 0 0.000166158 1.59193e-05 0 0.000160663 2.01039e-05 0 0.000153659 2.45435e-05 0 0.000144901 2.90721e-05 0 0.000134139 3.32887e-05 0 0.000121331 3.63639e-05 0 0.000107147 3.71978e-05 0 9.3141e-05 3.5315e-05 0 8.0565e-05 3.14216e-05 0 6.95729e-05 2.65103e-05 0 5.96549e-05 2.13559e-05 0 5.02973e-05 1.67994e-05 0 4.59511e-05 -2.52351e-05 0 5.42643e-05 -3.05983e-05 0 6.37605e-05 -3.68691e-05 0 7.50405e-05 -4.35746e-05 0 8.90496e-05 -4.983e-05 0 0.00010641 -5.34115e-05 0 0.000124465 -5.14371e-05 0 0.000139214 -4.56487e-05 0 0.000150476 -3.88866e-05 0 0.000159104 -3.22728e-05 0 0.000165749 -2.61418e-05 0 0.000170843 -2.05527e-05 0 0.000174666 -1.54541e-05 0 0.000177401 -1.07517e-05 0 0.000179166 -6.33576e-06 0 0.000180033 -2.09252e-06 0 0.000180033 2.09252e-06 0 0.000179166 6.33576e-06 0 0.000177401 1.07517e-05 0 0.000174666 1.54541e-05 0 0.000170843 2.05527e-05 0 0.000165749 2.61418e-05 0 0.000159104 3.22728e-05 0 0.000150476 3.88866e-05 0 0.000139214 4.56487e-05 0 0.000124465 5.14371e-05 0 0.00010641 5.34115e-05 0 8.90496e-05 4.983e-05 0 7.50405e-05 4.35746e-05 0 6.37605e-05 3.68691e-05 0 5.42643e-05 3.05983e-05 0 4.59511e-05 2.52351e-05 0 4.06551e-05 -3.2439e-05 0 4.77645e-05 -3.89057e-05 0 5.62225e-05 -4.67455e-05 0 6.67987e-05 -5.59823e-05 0 8.11152e-05 -6.65279e-05 0 0.000103922 -7.69654e-05 0 0.00013193 -7.00131e-05 0 0.000147859 -5.86682e-05 0 0.000158677 -4.84534e-05 0 0.000166531 -3.94782e-05 0 0.000172401 -3.16216e-05 0 0.000176821 -2.46894e-05 0 0.000180103 -1.8486e-05 0 0.000182438 -1.28285e-05 0 0.00018394 -7.5489e-06 0 0.000184676 -2.49161e-06 0 0.000184676 2.49161e-06 0 0.00018394 7.5489e-06 0 0.000182438 1.28285e-05 0 0.000180103 1.8486e-05 0 0.000176821 2.46894e-05 0 0.000172401 3.16216e-05 0 0.000166531 3.94782e-05 0 0.000158677 4.84534e-05 0 0.000147859 5.86682e-05 0 0.00013193 7.00131e-05 0 0.000103922 7.69654e-05 0 8.11152e-05 6.65279e-05 0 6.67987e-05 5.59823e-05 0 5.62225e-05 4.67455e-05 0 4.77645e-05 3.89057e-05 0 4.06551e-05 3.2439e-05 0 3.43922e-05 -3.83238e-05 0 3.9985e-05 -4.5833e-05 0 4.66872e-05 -5.52143e-05 0 5.51317e-05 -6.70084e-05 0 6.64974e-05 -8.2276e-05 0 8.23696e-05 -0.000104026 0 9.94762e-05 -8.81867e-05 0 0.000111868 -7.04108e-05 0 0.000120455 -5.67349e-05 0 0.000126643 -4.55595e-05 0 0.000131236 -3.61774e-05 0 0.000134683 -2.81001e-05 0 0.000137243 -2.09754e-05 0 0.000139066 -1.45307e-05 0 0.000140241 -8.54263e-06 0 0.000140817 -2.81847e-06 0 0.000140817 2.81847e-06 0 0.000140241 8.54263e-06 0 0.000139066 1.45307e-05 0 0.000137243 2.09754e-05 0 0.000134683 2.81001e-05 0 0.000131236 3.61774e-05 0 0.000126643 4.55595e-05 0 0.000120455 5.67349e-05 0 0.000111868 7.04108e-05 0 9.94762e-05 8.81867e-05 0 8.23696e-05 0.000104026 0 6.64974e-05 8.2276e-05 0 5.51317e-05 6.70084e-05 0 4.66872e-05 5.52143e-05 0 3.9985e-05 4.5833e-05 0 3.43922e-05 3.83238e-05 0 2.73611e-05 -4.26971e-05 0 3.11482e-05 -5.09153e-05 0 3.54987e-05 -6.13363e-05 0 4.06871e-05 -7.47773e-05 0 4.7099e-05 -9.25576e-05 0 5.48106e-05 -0.000116652 0 6.26967e-05 -9.92423e-05 0 6.92636e-05 -7.84499e-05 0 7.42483e-05 -6.25645e-05 0 7.8016e-05 -4.98886e-05 0 8.09075e-05 -3.94497e-05 0 8.31374e-05 -3.05716e-05 0 8.48302e-05 -2.27942e-05 0 8.60566e-05 -1.57828e-05 0 8.68566e-05 -9.27708e-06 0 8.72519e-05 -3.06065e-06 0 8.72519e-05 3.06065e-06 0 8.68566e-05 9.27708e-06 0 8.60566e-05 1.57828e-05 0 8.48302e-05 2.27942e-05 0 8.31374e-05 3.05716e-05 0 8.09075e-05 3.94497e-05 0 7.8016e-05 4.98886e-05 0 7.42483e-05 6.25645e-05 0 6.92636e-05 7.84499e-05 0 6.26967e-05 9.92423e-05 0 5.48106e-05 0.000116652 0 4.7099e-05 9.25576e-05 0 4.06871e-05 7.47773e-05 0 3.54987e-05 6.13363e-05 0 3.11482e-05 5.09153e-05 0 2.73611e-05 4.26971e-05 0 1.99211e-05 -4.54178e-05 0 2.17727e-05 -5.384e-05 0 2.35027e-05 -6.45173e-05 0 2.50023e-05 -7.83268e-05 0 2.61568e-05 -9.65842e-05 0 2.69339e-05 -0.000120986 0 2.7558e-05 -0.000103231 0 2.83078e-05 -8.17455e-05 0 2.92312e-05 -6.52221e-05 0 3.02344e-05 -5.20425e-05 0 3.12189e-05 -4.11957e-05 0 3.21144e-05 -3.19636e-05 0 3.28737e-05 -2.38605e-05 0 3.34658e-05 -1.65379e-05 0 3.38706e-05 -9.72807e-06 0 3.40759e-05 -3.21068e-06 0 3.40759e-05 3.21068e-06 0 3.38706e-05 9.72807e-06 0 3.34658e-05 1.65379e-05 0 3.28737e-05 2.38605e-05 0 3.21144e-05 3.19636e-05 0 3.12189e-05 4.11957e-05 0 3.02344e-05 5.20425e-05 0 2.92312e-05 6.52221e-05 0 2.83078e-05 8.17455e-05 0 2.7558e-05 0.000103231 0 2.69339e-05 0.000120986 0 2.61568e-05 9.65842e-05 0 2.50023e-05 7.83268e-05 0 2.35027e-05 6.45173e-05 0 2.17727e-05 5.384e-05 0 1.99211e-05 4.54178e-05 0 1.25118e-05 -4.64843e-05 0 1.25153e-05 -5.45598e-05 0 1.17322e-05 -6.46424e-05 0 9.66675e-06 -7.75018e-05 0 5.61657e-06 -9.44536e-05 0 -6.82017e-07 -0.000117848 0 -7.37095e-06 -0.000100505 0 -1.2464e-05 -8.01702e-05 0 -1.54913e-05 -6.45608e-05 0 -1.71529e-05 -5.19292e-05 0 -1.80069e-05 -4.13652e-05 0 -1.84007e-05 -3.225e-05 0 -1.8545e-05 -2.41614e-05 0 -1.85677e-05 -1.67898e-05 0 -1.85464e-05 -9.89283e-06 0 -1.85256e-05 -3.26778e-06 0 -1.85256e-05 3.26778e-06 0 -1.85464e-05 9.89283e-06 0 -1.85677e-05 1.67898e-05 0 -1.8545e-05 2.41614e-05 0 -1.84007e-05 3.225e-05 0 -1.80069e-05 4.13652e-05 0 -1.71529e-05 5.19292e-05 0 -1.54913e-05 6.45608e-05 0 -1.2464e-05 8.01702e-05 0 -7.37095e-06 0.000100505 0 -6.82017e-07 0.000117848 0 5.61657e-06 9.44536e-05 0 9.66675e-06 7.75018e-05 0 1.17322e-05 6.46424e-05 0 1.25153e-05 5.45598e-05 0 1.25118e-05 4.64843e-05 0 5.53737e-06 -4.60566e-05 0 3.98545e-06 -5.33115e-05 0 1.15279e-06 -6.20641e-05 0 -3.76934e-06 -7.27391e-05 0 -1.23103e-05 -8.60939e-05 0 -2.77719e-05 -0.00010471 0 -4.64979e-05 -9.03721e-05 0 -5.70748e-05 -7.41073e-05 0 -6.32807e-05 -6.09642e-05 0 -6.70795e-05 -4.98021e-05 0 -6.94508e-05 -4.01147e-05 0 -7.09399e-05 -3.15274e-05 0 -7.18692e-05 -2.37565e-05 0 -7.24346e-05 -1.65745e-05 0 -7.27553e-05 -9.79074e-06 0 -7.29e-05 -3.23807e-06 0 -7.29e-05 3.23807e-06 0 -7.27553e-05 9.79074e-06 0 -7.24346e-05 1.65745e-05 0 -7.18692e-05 2.37565e-05 0 -7.09399e-05 3.15274e-05 0 -6.94508e-05 4.01147e-05 0 -6.70795e-05 4.98021e-05 0 -6.32807e-05 6.09642e-05 0 -5.70748e-05 7.41073e-05 0 -4.64979e-05 9.03721e-05 0 -2.77719e-05 0.00010471 0 -1.23103e-05 8.60939e-05 0 -3.76934e-06 7.27391e-05 0 1.15279e-06 6.20641e-05 0 3.98545e-06 5.33115e-05 0 5.53737e-06 4.60566e-05 0 -6.0651e-07 -4.44411e-05 0 -3.23565e-06 -5.0587e-05 0 -7.31721e-06 -5.76079e-05 0 -1.36415e-05 -6.54523e-05 0 -2.36303e-05 -7.36686e-05 0 -4.03847e-05 -7.94204e-05 0 -6.056e-05 -7.49185e-05 0 -7.24914e-05 -6.52374e-05 0 -8.00459e-05 -5.54175e-05 0 -8.5024e-05 -4.62303e-05 0 -8.83664e-05 -3.77805e-05 0 -9.06241e-05 -2.99996e-05 0 -9.21379e-05 -2.27708e-05 0 -9.31233e-05 -1.59668e-05 0 -9.37153e-05 -9.46163e-06 0 -9.39929e-05 -3.13406e-06 0 -9.39929e-05 3.13406e-06 0 -9.37153e-05 9.46163e-06 0 -9.31233e-05 1.59668e-05 0 -9.21379e-05 2.27708e-05 0 -9.06241e-05 2.99996e-05 0 -8.83664e-05 3.77805e-05 0 -8.5024e-05 4.62303e-05 0 -8.00459e-05 5.54175e-05 0 -7.24914e-05 6.52374e-05 0 -6.056e-05 7.49185e-05 0 -4.03847e-05 7.94204e-05 0 -2.36303e-05 7.36686e-05 0 -1.36415e-05 6.54523e-05 0 -7.31721e-06 5.76079e-05 0 -3.23565e-06 5.0587e-05 0 -6.0651e-07 4.44411e-05 0 -5.87339e-06 -4.20045e-05 0 -9.146e-06 -4.69727e-05 0 -1.37789e-05 -5.22793e-05 0 -2.02869e-05 -5.75925e-05 0 -2.92492e-05 -6.20868e-05 0 -4.07128e-05 -6.41464e-05 0 -5.28396e-05 -6.1732e-05 0 -6.27847e-05 -5.61333e-05 0 -7.01732e-05 -4.91591e-05 0 -7.55076e-05 -4.18995e-05 0 -7.93305e-05 -3.47712e-05 0 -8.20506e-05 -2.7919e-05 0 -8.39545e-05 -2.13618e-05 0 -8.5238e-05 -1.50621e-05 0 -8.60294e-05 -8.9569e-06 0 -8.64068e-05 -2.97197e-06 0 -8.64068e-05 2.97197e-06 0 -8.60294e-05 8.9569e-06 0 -8.5238e-05 1.50621e-05 0 -8.39545e-05 2.13618e-05 0 -8.20506e-05 2.7919e-05 0 -7.93305e-05 3.47712e-05 0 -7.55076e-05 4.18995e-05 0 -7.01732e-05 4.91591e-05 0 -6.27847e-05 5.61333e-05 0 -5.28396e-05 6.1732e-05 0 -4.07128e-05 6.41464e-05 0 -2.92492e-05 6.20868e-05 0 -2.02869e-05 5.75925e-05 0 -1.37789e-05 5.22793e-05 0 -9.146e-06 4.69727e-05 0 -5.87339e-06 4.20045e-05 0 -1.01393e-05 -3.90935e-05 0 -1.36619e-05 -4.29842e-05 0 -1.83045e-05 -4.68653e-05 0 -2.4311e-05 -5.0375e-05 0 -3.17945e-05 -5.28971e-05 0 -4.04457e-05 -5.35935e-05 0 -4.9243e-05 -5.19383e-05 0 -5.7215e-05 -4.8179e-05 0 -6.37547e-05 -4.3095e-05 0 -6.88616e-05 -3.73899e-05 0 -7.27431e-05 -3.14639e-05 0 -7.56323e-05 -2.55328e-05 0 -7.77268e-05 -1.96902e-05 0 -7.91769e-05 -1.39608e-05 0 -8.00884e-05 -8.33158e-06 0 -8.0528e-05 -2.76933e-06 0 -8.0528e-05 2.76933e-06 0 -8.00884e-05 8.33158e-06 0 -7.91769e-05 1.39608e-05 0 -7.77268e-05 1.96902e-05 0 -7.56323e-05 2.55328e-05 0 -7.27431e-05 3.14639e-05 0 -6.88616e-05 3.73899e-05 0 -6.37547e-05 4.3095e-05 0 -5.7215e-05 4.8179e-05 0 -4.9243e-05 5.19383e-05 0 -4.04457e-05 5.35935e-05 0 -3.17945e-05 5.28971e-05 0 -2.4311e-05 5.0375e-05 0 -1.83045e-05 4.68653e-05 0 -1.36619e-05 4.29842e-05 0 -1.01393e-05 3.90935e-05 0 -1.35328e-05 -3.59874e-05 0 -1.70577e-05 -3.89799e-05 0 -2.14477e-05 -4.17826e-05 0 -2.67877e-05 -4.41021e-05 0 -3.30326e-05 -4.55427e-05 0 -3.99017e-05 -4.56859e-05 0 -4.68744e-05 -4.43099e-05 0 -5.33613e-05 -4.15072e-05 0 -5.89893e-05 -3.76225e-05 0 -6.36335e-05 -3.30699e-05 0 -6.73326e-05 -2.81443e-05 0 -7.0192e-05 -2.30489e-05 0 -7.23273e-05 -1.79006e-05 0 -7.38392e-05 -1.27571e-05 0 -7.48046e-05 -7.63869e-06 0 -7.52746e-05 -2.54323e-06 0 -7.52746e-05 2.54323e-06 0 -7.48046e-05 7.63869e-06 0 -7.38392e-05 1.27571e-05 0 -7.23273e-05 1.79006e-05 0 -7.0192e-05 2.30489e-05 0 -6.73326e-05 2.81443e-05 0 -6.36335e-05 3.30699e-05 0 -5.89893e-05 3.76225e-05 0 -5.33613e-05 4.15072e-05 0 -4.68744e-05 4.43099e-05 0 -3.99017e-05 4.56859e-05 0 -3.30326e-05 4.55427e-05 0 -2.67877e-05 4.41021e-05 0 -2.14477e-05 4.17826e-05 0 -1.70577e-05 3.89799e-05 0 -1.35328e-05 3.59874e-05 0 -1.62433e-05 -3.28656e-05 0 -1.96414e-05 -3.51466e-05 0 -2.36867e-05 -3.7164e-05 0 -2.83844e-05 -3.87027e-05 0 -3.3647e-05 -3.95139e-05 0 -3.92627e-05 -3.93699e-05 0 -4.4923e-05 -3.81548e-05 0 -5.0288e-05 -3.59138e-05 0 -5.51038e-05 -3.28138e-05 0 -5.92336e-05 -2.9102e-05 0 -6.26435e-05 -2.49787e-05 0 -6.53615e-05 -2.06073e-05 0 -6.74422e-05 -1.60994e-05 0 -6.89435e-05 -1.15243e-05 0 -6.99151e-05 -6.9208e-06 0 -7.03919e-05 -2.30761e-06 0 -7.03919e-05 2.30761e-06 0 -6.99151e-05 6.9208e-06 0 -6.89435e-05 1.15243e-05 0 -6.74422e-05 1.60994e-05 0 -6.53615e-05 2.06073e-05 0 -6.26435e-05 2.49787e-05 0 -5.92336e-05 2.9102e-05 0 -5.51038e-05 3.28138e-05 0 -5.0288e-05 3.59138e-05 0 -4.4923e-05 3.81548e-05 0 -3.92627e-05 3.93699e-05 0 -3.3647e-05 3.95139e-05 0 -2.83844e-05 3.87027e-05 0 -2.36867e-05 3.7164e-05 0 -1.96414e-05 3.51466e-05 0 -1.62433e-05 3.28656e-05 0 -1.82935e-05 -2.9836e-05 0 -2.14934e-05 -3.15672e-05 0 -2.51774e-05 -3.30178e-05 0 -2.93212e-05 -3.40347e-05 0 -3.38388e-05 -3.4458e-05 0 -3.8575e-05 -3.41523e-05 0 -4.33209e-05 -3.30529e-05 0 -4.78593e-05 -3.118e-05 0 -5.20086e-05 -2.86232e-05 0 -5.56509e-05 -2.5536e-05 0 -5.87317e-05 -2.20518e-05 0 -6.12425e-05 -1.82946e-05 0 -6.3201e-05 -1.43599e-05 0 -6.46355e-05 -1.03164e-05 0 -6.55738e-05 -6.21057e-06 0 -6.60373e-05 -2.07337e-06 0 -6.60373e-05 2.07337e-06 0 -6.55738e-05 6.21057e-06 0 -6.46355e-05 1.03164e-05 0 -6.3201e-05 1.43599e-05 0 -6.12425e-05 1.82946e-05 0 -5.87317e-05 2.20518e-05 0 -5.56509e-05 2.5536e-05 0 -5.20086e-05 2.86232e-05 0 -4.78593e-05 3.118e-05 0 -4.33209e-05 3.30529e-05 0 -3.8575e-05 3.41523e-05 0 -3.38388e-05 3.4458e-05 0 -2.93212e-05 3.40347e-05 0 -2.51774e-05 3.30178e-05 0 -2.14934e-05 3.15672e-05 0 -1.82935e-05 2.9836e-05 0 -1.99079e-05 -2.69537e-05 0 -2.28909e-05 -2.8264e-05 0 -2.62344e-05 -2.93038e-05 0 -2.99032e-05 -2.99642e-05 0 -3.3822e-05 -3.01391e-05 0 -3.78752e-05 -2.97433e-05 0 -4.19185e-05 -2.87366e-05 0 -4.58018e-05 -2.71291e-05 0 -4.93937e-05 -2.49712e-05 0 -5.25976e-05 -2.23626e-05 0 -5.53554e-05 -1.9393e-05 0 -5.7641e-05 -1.61546e-05 0 -5.94505e-05 -1.27255e-05 0 -6.07918e-05 -9.1681e-06 0 -6.16769e-05 -5.53004e-06 0 -6.21164e-05 -1.84803e-06 0 -6.21164e-05 1.84803e-06 0 -6.16769e-05 5.53004e-06 0 -6.07918e-05 9.1681e-06 0 -5.94505e-05 1.27255e-05 0 -5.7641e-05 1.61546e-05 0 -5.53554e-05 1.9393e-05 0 -5.25976e-05 2.23626e-05 0 -4.93937e-05 2.49712e-05 0 -4.58018e-05 2.71291e-05 0 -4.19185e-05 2.87366e-05 0 -3.78752e-05 2.97433e-05 0 -3.3822e-05 3.01391e-05 0 -2.99032e-05 2.99642e-05 0 -2.62344e-05 2.93038e-05 0 -2.28909e-05 2.8264e-05 0 -1.99079e-05 2.69537e-05 0 -2.11604e-05 -2.42403e-05 0 -2.39278e-05 -2.52297e-05 0 -2.6964e-05 -2.59705e-05 0 -3.02317e-05 -2.63842e-05 0 -3.36677e-05 -2.63984e-05 0 -3.71841e-05 -2.59563e-05 0 -4.06766e-05 -2.50316e-05 0 -4.4037e-05 -2.36292e-05 0 -4.71671e-05 -2.17792e-05 0 -4.99887e-05 -1.95491e-05 0 -5.24471e-05 -1.70005e-05 0 -5.45097e-05 -1.42021e-05 0 -5.61609e-05 -1.12166e-05 0 -5.73962e-05 -8.09809e-06 0 -5.8217e-05 -4.8919e-06 0 -5.86263e-05 -1.63603e-06 0 -5.86263e-05 1.63603e-06 0 -5.8217e-05 4.8919e-06 0 -5.73962e-05 8.09809e-06 0 -5.61609e-05 1.12166e-05 0 -5.45097e-05 1.42021e-05 0 -5.24471e-05 1.70005e-05 0 -4.99887e-05 1.95491e-05 0 -4.71671e-05 2.17792e-05 0 -4.4037e-05 2.36292e-05 0 -4.06766e-05 2.50316e-05 0 -3.71841e-05 2.59563e-05 0 -3.36677e-05 2.63984e-05 0 -3.02317e-05 2.63842e-05 0 -2.6964e-05 2.59705e-05 0 -2.39278e-05 2.52297e-05 0 -2.11604e-05 2.42403e-05 0 -2.21073e-05 -2.16991e-05 0 -2.46729e-05 -2.24435e-05 0 -2.74405e-05 -2.29649e-05 0 -3.03751e-05 -2.32065e-05 0 -3.34238e-05 -2.3117e-05 0 -3.65178e-05 -2.26572e-05 0 -3.95779e-05 -2.18091e-05 0 -4.25224e-05 -2.05753e-05 0 -4.52752e-05 -1.89742e-05 0 -4.77723e-05 -1.70536e-05 0 -4.9965e-05 -1.48565e-05 0 -5.18199e-05 -1.2435e-05 0 -5.33164e-05 -9.83886e-06 0 -5.44434e-05 -7.11427e-06 0 -5.5196e-05 -4.30229e-06 0 -5.55725e-05 -1.43967e-06 0 -5.55725e-05 1.43967e-06 0 -5.5196e-05 4.30229e-06 0 -5.44434e-05 7.11427e-06 0 -5.33164e-05 9.83886e-06 0 -5.18199e-05 1.2435e-05 0 -4.9965e-05 1.48565e-05 0 -4.77723e-05 1.70536e-05 0 -4.52752e-05 1.89742e-05 0 -4.25224e-05 2.05753e-05 0 -3.95779e-05 2.18091e-05 0 -3.65178e-05 2.26572e-05 0 -3.34238e-05 2.3117e-05 0 -3.03751e-05 2.32065e-05 0 -2.74405e-05 2.29649e-05 0 -2.46729e-05 2.24435e-05 0 -2.21073e-05 2.16991e-05 0 -2.28489e-05 -1.9323e-05 0 -2.52292e-05 -1.98801e-05 0 -2.77607e-05 -2.02406e-05 0 -3.04113e-05 -2.03622e-05 0 -3.31368e-05 -2.02081e-05 0 -3.58825e-05 -1.97504e-05 0 -3.85869e-05 -1.89763e-05 0 -4.11866e-05 -1.78872e-05 0 -4.36214e-05 -1.64951e-05 0 -4.5839e-05 -1.48345e-05 0 -4.77967e-05 -1.29368e-05 0 -4.94625e-05 -1.08415e-05 0 -5.08142e-05 -8.58856e-06 0 -5.18372e-05 -6.21677e-06 0 -5.2523e-05 -3.76244e-06 0 -5.28668e-05 -1.25954e-06 0 -5.28668e-05 1.25954e-06 0 -5.2523e-05 3.76244e-06 0 -5.18372e-05 6.21677e-06 0 -5.08142e-05 8.58856e-06 0 -4.94625e-05 1.08415e-05 0 -4.77967e-05 1.29368e-05 0 -4.5839e-05 1.48345e-05 0 -4.36214e-05 1.64951e-05 0 -4.11866e-05 1.78872e-05 0 -3.85869e-05 1.89763e-05 0 -3.58825e-05 1.97504e-05 0 -3.31368e-05 2.02081e-05 0 -3.04113e-05 2.03622e-05 0 -2.77607e-05 2.02406e-05 0 -2.52292e-05 1.98801e-05 0 -2.28489e-05 1.9323e-05 0 -2.34087e-05 -1.70999e-05 0 -2.56243e-05 -1.7514e-05 0 -2.79532e-05 -1.77566e-05 0 -3.03666e-05 -1.77959e-05 0 -3.28272e-05 -1.76049e-05 0 -3.52902e-05 -1.71633e-05 0 -3.77065e-05 -1.64619e-05 0 -4.00253e-05 -1.55014e-05 0 -4.2198e-05 -1.42899e-05 0 -4.41809e-05 -1.28534e-05 0 -4.59369e-05 -1.1215e-05 0 -4.74367e-05 -9.40535e-06 0 -4.86583e-05 -7.45664e-06 0 -4.9586e-05 -5.40118e-06 0 -5.02095e-05 -3.27053e-06 0 -5.05227e-05 -1.09517e-06 0 -5.05227e-05 1.09517e-06 0 -5.02095e-05 3.27053e-06 0 -4.9586e-05 5.40118e-06 0 -4.86583e-05 7.45664e-06 0 -4.74367e-05 9.40535e-06 0 -4.59369e-05 1.1215e-05 0 -4.41809e-05 1.28534e-05 0 -4.2198e-05 1.42899e-05 0 -4.00253e-05 1.55014e-05 0 -3.77065e-05 1.64619e-05 0 -3.52902e-05 1.71633e-05 0 -3.28272e-05 1.76049e-05 0 -3.03666e-05 1.77959e-05 0 -2.79532e-05 1.77566e-05 0 -2.56243e-05 1.7514e-05 0 -2.34087e-05 1.70999e-05 0 -2.38344e-05 -1.50147e-05 0 -2.59051e-05 -1.53197e-05 0 -2.80601e-05 -1.54764e-05 0 -3.02739e-05 -1.54609e-05 0 -3.25144e-05 -1.5253e-05 0 -3.47445e-05 -1.48375e-05 0 -3.69237e-05 -1.4208e-05 0 -3.90107e-05 -1.33648e-05 0 -4.09652e-05 -1.23136e-05 0 -4.27503e-05 -1.10743e-05 0 -4.4334e-05 -9.66448e-06 0 -4.56897e-05 -8.10804e-06 0 -4.67965e-05 -6.43102e-06 0 -4.7639e-05 -4.66029e-06 0 -4.82063e-05 -2.82284e-06 0 -4.84916e-05 -9.45428e-07 0 -4.84916e-05 9.45428e-07 0 -4.82063e-05 2.82284e-06 0 -4.7639e-05 4.66029e-06 0 -4.67965e-05 6.43102e-06 0 -4.56897e-05 8.10804e-06 0 -4.4334e-05 9.66448e-06 0 -4.27503e-05 1.10743e-05 0 -4.09652e-05 1.23136e-05 0 -3.90107e-05 1.33648e-05 0 -3.69237e-05 1.4208e-05 0 -3.47445e-05 1.48375e-05 0 -3.25144e-05 1.5253e-05 0 -3.02739e-05 1.54609e-05 0 -2.80601e-05 1.54764e-05 0 -2.59051e-05 1.53197e-05 0 -2.38344e-05 1.50147e-05 0 -2.41628e-05 -1.30521e-05 0 -2.61061e-05 -1.32742e-05 0 -2.81112e-05 -1.33694e-05 0 -3.01552e-05 -1.33196e-05 0 -3.22104e-05 -1.31094e-05 0 -3.42455e-05 -1.27277e-05 0 -3.62267e-05 -1.21695e-05 0 -3.81195e-05 -1.14353e-05 0 -3.98903e-05 -1.05291e-05 0 -4.15076e-05 -9.46657e-06 0 -4.29435e-05 -8.26103e-06 0 -4.41744e-05 -6.93153e-06 0 -4.51809e-05 -5.49907e-06 0 -4.59481e-05 -3.98589e-06 0 -4.64653e-05 -2.41482e-06 0 -4.67256e-05 -8.0886e-07 0 -4.67256e-05 8.0886e-07 0 -4.64653e-05 2.41482e-06 0 -4.59481e-05 3.98589e-06 0 -4.51809e-05 5.49907e-06 0 -4.41744e-05 6.93153e-06 0 -4.29435e-05 8.26103e-06 0 -4.15076e-05 9.46657e-06 0 -3.98903e-05 1.05291e-05 0 -3.81195e-05 1.14353e-05 0 -3.62267e-05 1.21695e-05 0 -3.42455e-05 1.27277e-05 0 -3.22104e-05 1.31094e-05 0 -3.01552e-05 1.33196e-05 0 -2.81112e-05 1.33694e-05 0 -2.61061e-05 1.32742e-05 0 -2.41628e-05 1.30521e-05 0 -2.44006e-05 -1.11964e-05 0 -2.62366e-05 -1.13559e-05 0 -2.81177e-05 -1.14083e-05 0 -3.00231e-05 -1.13395e-05 0 -3.19284e-05 -1.11381e-05 0 -3.38066e-05 -1.07955e-05 0 -3.56287e-05 -1.03082e-05 0 -3.73654e-05 -9.67672e-06 0 -3.89878e-05 -8.90397e-06 0 -4.04686e-05 -8.00224e-06 0 -4.17834e-05 -6.98193e-06 0 -4.2911e-05 -5.85815e-06 0 -4.38337e-05 -4.64784e-06 0 -4.45376e-05 -3.36926e-06 0 -4.50125e-05 -2.04144e-06 0 -4.52516e-05 -6.83834e-07 0 -4.52516e-05 6.83834e-07 0 -4.50125e-05 2.04144e-06 0 -4.45376e-05 3.36926e-06 0 -4.38337e-05 4.64784e-06 0 -4.2911e-05 5.85815e-06 0 -4.17834e-05 6.98193e-06 0 -4.04686e-05 8.00224e-06 0 -3.89878e-05 8.90397e-06 0 -3.73654e-05 9.67672e-06 0 -3.56287e-05 1.03082e-05 0 -3.38066e-05 1.07955e-05 0 -3.19284e-05 1.11381e-05 0 -3.00231e-05 1.13395e-05 0 -2.81177e-05 1.14083e-05 0 -2.62366e-05 1.13559e-05 0 -2.44006e-05 1.11964e-05 0 -2.45808e-05 -9.43248e-06 0 -2.63253e-05 -9.54508e-06 0 -2.81016e-05 -9.56864e-06 0 -2.98909e-05 -9.4925e-06 0 -3.16716e-05 -9.30795e-06 0 -3.34197e-05 -9.00862e-06 0 -3.51103e-05 -8.59194e-06 0 -3.67178e-05 -8.05828e-06 0 -3.8217e-05 -7.40999e-06 0 -3.95842e-05 -6.65671e-06 0 -4.07976e-05 -5.80652e-06 0 -4.18383e-05 -4.87137e-06 0 -4.26901e-05 -3.86484e-06 0 -4.33402e-05 -2.80172e-06 0 -4.37789e-05 -1.69763e-06 0 -4.39999e-05 -5.68679e-07 0 -4.39999e-05 5.68679e-07 0 -4.37789e-05 1.69763e-06 0 -4.33402e-05 2.80172e-06 0 -4.26901e-05 3.86484e-06 0 -4.18383e-05 4.87137e-06 0 -4.07976e-05 5.80652e-06 0 -3.95842e-05 6.65671e-06 0 -3.8217e-05 7.40999e-06 0 -3.67178e-05 8.05828e-06 0 -3.51103e-05 8.59194e-06 0 -3.34197e-05 9.00862e-06 0 -3.16716e-05 9.30795e-06 0 -2.98909e-05 9.4925e-06 0 -2.81016e-05 9.56864e-06 0 -2.63253e-05 9.54508e-06 0 -2.45808e-05 9.43248e-06 0 -2.47132e-05 -7.74588e-06 0 -2.63818e-05 -7.82374e-06 0 -2.80722e-05 -7.82934e-06 0 -2.9767e-05 -7.75465e-06 0 -3.14465e-05 -7.59313e-06 0 -3.30897e-05 -7.34005e-06 0 -3.46742e-05 -6.99354e-06 0 -3.61773e-05 -6.55398e-06 0 -3.7577e-05 -6.02317e-06 0 -3.88521e-05 -5.40861e-06 0 -3.99831e-05 -4.71655e-06 0 -4.09528e-05 -3.95632e-06 0 -4.17465e-05 -3.13862e-06 0 -4.23523e-05 -2.2752e-06 0 -4.27612e-05 -1.37859e-06 0 -4.29671e-05 -4.61808e-07 0 -4.29671e-05 4.61808e-07 0 -4.27612e-05 1.37859e-06 0 -4.23523e-05 2.2752e-06 0 -4.17465e-05 3.13862e-06 0 -4.09528e-05 3.95632e-06 0 -3.99831e-05 4.71655e-06 0 -3.88521e-05 5.40861e-06 0 -3.7577e-05 6.02317e-06 0 -3.61773e-05 6.55398e-06 0 -3.46742e-05 6.99354e-06 0 -3.30897e-05 7.34005e-06 0 -3.14465e-05 7.59313e-06 0 -2.9767e-05 7.75465e-06 0 -2.80722e-05 7.82934e-06 0 -2.63818e-05 7.82374e-06 0 -2.47132e-05 7.74588e-06 0 -2.4806e-05 -6.12243e-06 0 -2.64146e-05 -6.17475e-06 0 -2.80376e-05 -6.17054e-06 0 -2.96587e-05 -6.10384e-06 0 -3.12599e-05 -5.9699e-06 0 -3.28218e-05 -5.76523e-06 0 -3.43243e-05 -5.48854e-06 0 -3.5747e-05 -5.14016e-06 0 -3.70697e-05 -4.72145e-06 0 -3.82734e-05 -4.23812e-06 0 -3.93403e-05 -3.69487e-06 0 -4.02547e-05 -3.0988e-06 0 -4.1003e-05 -2.45809e-06 0 -4.1574e-05 -1.78179e-06 0 -4.19594e-05 -1.0796e-06 0 -4.21535e-05 -3.61648e-07 0 -4.21535e-05 3.61648e-07 0 -4.19594e-05 1.0796e-06 0 -4.1574e-05 1.78179e-06 0 -4.1003e-05 2.45809e-06 0 -4.02547e-05 3.0988e-06 0 -3.93403e-05 3.69487e-06 0 -3.82734e-05 4.23812e-06 0 -3.70697e-05 4.72145e-06 0 -3.5747e-05 5.14016e-06 0 -3.43243e-05 5.48854e-06 0 -3.28218e-05 5.76523e-06 0 -3.12599e-05 5.9699e-06 0 -2.96587e-05 6.10384e-06 0 -2.80376e-05 6.17054e-06 0 -2.64146e-05 6.17475e-06 0 -2.4806e-05 6.12243e-06 0 -2.48721e-05 -4.54883e-06 0 -2.6434e-05 -4.58248e-06 0 -2.80047e-05 -4.57446e-06 0 -2.95688e-05 -4.52059e-06 0 -3.11095e-05 -4.4175e-06 0 -3.26089e-05 -4.2628e-06 0 -3.40484e-05 -4.0556e-06 0 -3.54092e-05 -3.79618e-06 0 -3.66728e-05 -3.48552e-06 0 -3.78215e-05 -3.12773e-06 0 -3.8839e-05 -2.72621e-06 0 -3.97106e-05 -2.28606e-06 0 -4.04237e-05 -1.81322e-06 0 -4.09678e-05 -1.31427e-06 0 -4.1335e-05 -7.963e-07 0 -4.15199e-05 -2.66744e-07 0 -4.15199e-05 2.66744e-07 0 -4.1335e-05 7.963e-07 0 -4.09678e-05 1.31427e-06 0 -4.04237e-05 1.81322e-06 0 -3.97106e-05 2.28606e-06 0 -3.8839e-05 2.72621e-06 0 -3.78215e-05 3.12773e-06 0 -3.66728e-05 3.48552e-06 0 -3.54092e-05 3.79618e-06 0 -3.40484e-05 4.0556e-06 0 -3.26089e-05 4.2628e-06 0 -3.11095e-05 4.4175e-06 0 -2.95688e-05 4.52059e-06 0 -2.80047e-05 4.57446e-06 0 -2.6434e-05 4.58248e-06 0 -2.48721e-05 4.54883e-06 0 -2.49142e-05 -3.01228e-06 0 -2.64437e-05 -3.03215e-06 0 -2.79783e-05 -3.02457e-06 0 -2.95033e-05 -2.98689e-06 0 -3.10026e-05 -2.91698e-06 0 -3.24593e-05 -2.8133e-06 0 -3.38557e-05 -2.67533e-06 0 -3.51742e-05 -2.50325e-06 0 -3.63973e-05 -2.2977e-06 0 -3.75084e-05 -2.06137e-06 0 -3.84921e-05 -1.79643e-06 0 -3.93344e-05 -1.50622e-06 0 -4.00232e-05 -1.19458e-06 0 -4.05488e-05 -8.65823e-07 0 -4.09035e-05 -5.24578e-07 0 -4.10821e-05 -1.7572e-07 0 -4.10821e-05 1.7572e-07 0 -4.09035e-05 5.24578e-07 0 -4.05488e-05 8.65823e-07 0 -4.00232e-05 1.19458e-06 0 -3.93344e-05 1.50622e-06 0 -3.84921e-05 1.79643e-06 0 -3.75084e-05 2.06137e-06 0 -3.63973e-05 2.2977e-06 0 -3.51742e-05 2.50325e-06 0 -3.38557e-05 2.67533e-06 0 -3.24593e-05 2.8133e-06 0 -3.10026e-05 2.91698e-06 0 -2.95033e-05 2.98689e-06 0 -2.79783e-05 3.02457e-06 0 -2.64437e-05 3.03215e-06 0 -2.49142e-05 3.01228e-06 0 -2.49379e-05 -1.50003e-06 0 -2.64481e-05 -1.5092e-06 0 -2.79613e-05 -1.50475e-06 0 -2.94632e-05 -1.48538e-06 0 -3.0938e-05 -1.45007e-06 0 -3.23695e-05 -1.39808e-06 0 -3.37405e-05 -1.32914e-06 0 -3.5034e-05 -1.24336e-06 0 -3.62333e-05 -1.14106e-06 0 -3.73222e-05 -1.02355e-06 0 -3.82858e-05 -8.919e-07 0 -3.91108e-05 -7.47757e-07 0 -3.97854e-05 -5.93015e-07 0 -4.03e-05 -4.29798e-07 0 -4.06472e-05 -2.60397e-07 0 -4.08221e-05 -8.72259e-08 0 -4.08221e-05 8.72259e-08 0 -4.06472e-05 2.60397e-07 0 -4.03e-05 4.29798e-07 0 -3.97854e-05 5.93015e-07 0 -3.91108e-05 7.47757e-07 0 -3.82858e-05 8.919e-07 0 -3.73222e-05 1.02355e-06 0 -3.62333e-05 1.14106e-06 0 -3.5034e-05 1.24336e-06 0 -3.37405e-05 1.32914e-06 0 -3.23695e-05 1.39808e-06 0 -3.0938e-05 1.45007e-06 0 -2.94632e-05 1.48538e-06 0 -2.79613e-05 1.50475e-06 0 -2.64481e-05 1.5092e-06 0 -2.49379e-05 1.50003e-06 0 -2.49465e-05 -0 0 -2.64495e-05 -0 0 -2.79547e-05 -0 0 -2.94478e-05 -0 0 -3.09135e-05 -0 0 -3.23355e-05 -0 0 -3.3697e-05 -0 0 -3.49812e-05 -0 0 -3.61715e-05 -0 0 -3.72521e-05 -0 0 -3.82082e-05 -0 0 -3.90267e-05 -0 0 -3.96959e-05 -0 0 -4.02064e-05 -0 0 -4.05509e-05 -0 0 -4.07243e-05 -0 0 -4.07243e-05 -0 0 -4.05509e-05 -0 0 -4.02064e-05 -0 0 -3.96959e-05 -0 0 -3.90267e-05 -0 0 -3.82082e-05 -0 0 -3.72521e-05 -0 0 -3.61715e-05 -0 0 -3.49812e-05 -0 0 -3.3697e-05 -0 0 -3.23355e-05 -0 0 -3.09135e-05 -0 0 -2.94478e-05 -0 0 -2.79547e-05 -0 0 -2.64495e-05 -0 0 -2.49465e-05 -0 0 </DataArray> 
</PointData> 
<Points> 
<DataArray type="Float32" NumberOfComponents="3"> 