<?xml version="1.0"?> 
<VTKFile type="StructuredGrid" version="0.1"> 
<StructuredGrid WholeExtent="0 31 0 31 0 0"> 
<Piece Extent="0 31 0 31 0 0"> 
<PointData>
<DataArray type="Float32" Name="B" format="ascii" NumberOfComponents="3"> 
-1.68268e-05 -0 0 -1.58189e-05 -0 0 -1.48292e-05 -0 0 -1.38641e-05 -0 0 -1.29292e-05 -0 0 -1.20285e-05 -0 0 -1.11654e-05 -0 0 -1.0342e-05 -0 0 -9.55975e-06 -0 0 -8.81908e-06 -0 0 -8.11992e-06 -0 0 -7.4616e-06 -0 0 -6.84299e-06 -0 0 -6.26263e-06 -0 0 -5.71874e-06 -0 0 -5.20939e-06 -0 0 -4.73249e-06 -0 0 -4.28582e-06 -0 0 -3.86721e-06 -0 0 -3.47436e-06 -0 0 -3.10507e-06 -0 0 -2.75714e-06 -0 0 -2.42837e-06 -0 0 -2.11669e-06 -0 0 -1.82e-06 -0 0 -1.5363e-06 -0 0 -1.26364e-06 -0 0 -1.00009e-06 -0 0 -7.4377e-07 -0 0 -4.92869e-07 -0 0 -2.45534e-07 -0 0 0 -0 0 -1.68207e-05 -1.01622e-06 0 -1.58086e-05 -1.00147e-06 0 -1.48152e-05 -9.79619e-07 0 -1.38471e-05 -9.51814e-07 0 -1.29097e-05 -9.19201e-07 0 -1.20073e-05 -8.82876e-07 0 -1.1143e-05 -8.43887e-07 0 -1.03189e-05 -8.03169e-07 0 -9.53628e-06 -7.61549e-07 0 -8.79569e-06 -7.1976e-07 0 -8.09692e-06 -6.7838e-07 0 -7.43923e-06 -6.37998e-07 0 -6.82146e-06 -5.98854e-07 0 -6.2421e-06 -5.61427e-07 0 -5.69932e-06 -5.25888e-07 0 -5.19115e-06 -4.92239e-07 0 -4.71548e-06 -4.60987e-07 0 -4.27007e-06 -4.31814e-07 0 -3.85272e-06 -4.04848e-07 0 -3.46113e-06 -3.80278e-07 0 -3.09308e-06 -3.57767e-07 0 -2.74637e-06 -3.37553e-07 0 -2.41879e-06 -3.19479e-07 0 -2.10826e-06 -3.0334e-07 0 -1.81271e-06 -2.8948e-07 0 -1.5301e-06 -2.77467e-07 0 -1.25852e-06 -2.67367e-07 0 -9.96021e-07 -2.59275e-07 0 -7.40738e-07 -2.52899e-07 0 -4.90857e-07 -2.4845e-07 0 -2.44531e-07 -2.45792e-07 0 0 -2.44789e-07 0 -1.68043e-05 -2.04074e-06 0 -1.57806e-05 -2.01011e-06 0 -1.47775e-05 -1.96523e-06 0 -1.38015e-05 -1.90846e-06 0 -1.28578e-05 -1.84212e-06 0 -1.19507e-05 -1.76842e-06 0 -1.10831e-05 -1.6895e-06 0 -1.02572e-05 -1.60722e-06 0 -9.47385e-06 -1.52326e-06 0 -8.73351e-06 -1.43907e-06 0 -8.03582e-06 -1.3558e-06 0 -7.37988e-06 -1.27464e-06 0 -6.76438e-06 -1.19604e-06 0 -6.18768e-06 -1.12095e-06 0 -5.64785e-06 -1.04971e-06 0 -5.14284e-06 -9.82299e-07 0 -4.67045e-06 -9.19734e-07 0 -4.22838e-06 -8.61362e-07 0 -3.81438e-06 -8.07431e-07 0 -3.42613e-06 -7.58315e-07 0 -3.06137e-06 -7.13329e-07 0 -2.71788e-06 -6.72948e-07 0 -2.39345e-06 -6.36852e-07 0 -2.08599e-06 -6.0463e-07 0 -1.79343e-06 -5.76963e-07 0 -1.51374e-06 -5.52985e-07 0 -1.245e-06 -5.32829e-07 0 -9.8528e-07 -5.16684e-07 0 -7.32729e-07 -5.03963e-07 0 -4.85539e-07 -4.95087e-07 0 -2.41879e-07 -4.89784e-07 0 0 -4.87783e-07 0 -1.6775e-05 -3.08174e-06 0 -1.57322e-05 -3.03295e-06 0 -1.47128e-05 -2.96269e-06 0 -1.37235e-05 -2.87462e-06 0 -1.27694e-05 -2.7723e-06 0 -1.18546e-05 -2.65916e-06 0 -1.09819e-05 -2.53841e-06 0 -1.0153e-05 -2.41291e-06 0 -9.36864e-06 -2.28518e-06 0 -8.62891e-06 -2.15738e-06 0 -7.93319e-06 -2.03123e-06 0 -7.28031e-06 -1.90851e-06 0 -6.66872e-06 -1.78984e-06 0 -6.09659e-06 -1.67665e-06 0 -5.56179e-06 -1.56939e-06 0 -5.06213e-06 -1.46801e-06 0 -4.59527e-06 -1.37402e-06 0 -4.15882e-06 -1.2864e-06 0 -3.75046e-06 -1.20552e-06 0 -3.3678e-06 -1.13191e-06 0 -3.00854e-06 -1.06453e-06 0 -2.67044e-06 -1.00408e-06 0 -2.35127e-06 -9.50064e-07 0 -2.04894e-06 -9.01867e-07 0 -1.76136e-06 -8.605e-07 0 -1.48652e-06 -8.24658e-07 0 -1.22251e-06 -7.94536e-07 0 -9.67422e-07 -7.70412e-07 0 -7.19413e-07 -7.51408e-07 0 -4.76699e-07 -7.3815e-07 0 -2.3747e-07 -7.30228e-07 0 0 -7.27239e-07 0 -1.67291e-05 -4.14791e-06 0 -1.56587e-05 -4.07736e-06 0 -1.46161e-05 -3.97804e-06 0 -1.3608e-05 -3.85502e-06 0 -1.26393e-05 -3.71327e-06 0 -1.1714e-05 -3.55747e-06 0 -1.08343e-05 -3.39202e-06 0 -1.00015e-05 -3.22077e-06 0 -9.21618e-06 -3.04711e-06 0 -8.47775e-06 -2.8739e-06 0 -7.78523e-06 -2.7034e-06 0 -7.13708e-06 -2.53797e-06 0 -6.53139e-06 -2.37834e-06 0 -5.96604e-06 -2.22639e-06 0 -5.43864e-06 -2.08267e-06 0 -4.94678e-06 -1.94702e-06 0 -4.48795e-06 -1.82147e-06 0 -4.05964e-06 -1.70456e-06 0 -3.65941e-06 -1.59675e-06 0 -3.28478e-06 -1.49874e-06 0 -2.93341e-06 -1.4091e-06 0 -2.60302e-06 -1.32874e-06 0 -2.29135e-06 -1.25698e-06 0 -1.99631e-06 -1.19298e-06 0 -1.71583e-06 -1.13808e-06 0 -1.44789e-06 -1.09053e-06 0 -1.19061e-06 -1.05058e-06 0 -9.42091e-07 -1.01859e-06 0 -7.00529e-07 -9.93402e-07 0 -4.64164e-07 -9.75828e-07 0 -2.3122e-07 -9.65329e-07 0 0 -9.61369e-07 0 -1.66648e-05 -5.24791e-06 0 -1.55593e-05 -5.15058e-06 0 -1.44874e-05 -5.01708e-06 0 -1.34557e-05 -4.85411e-06 0 -1.24691e-05 -4.66818e-06 0 -1.15309e-05 -4.46538e-06 0 -1.0643e-05 -4.25134e-06 0 -9.80621e-06 -4.03096e-06 0 -9.02022e-06 -3.80852e-06 0 -8.28406e-06 -3.58752e-06 0 -7.59618e-06 -3.37074e-06 0 -6.95452e-06 -3.16114e-06 0 -6.35674e-06 -2.95941e-06 0 -5.80034e-06 -2.76791e-06 0 -5.2826e-06 -2.58718e-06 0 -4.80086e-06 -2.41693e-06 0 -4.35239e-06 -2.25966e-06 0 -3.93451e-06 -2.11345e-06 0 -3.54465e-06 -1.97879e-06 0 -3.18024e-06 -1.85653e-06 0 -2.83888e-06 -1.74482e-06 0 -2.51825e-06 -1.64478e-06 0 -2.21607e-06 -1.55552e-06 0 -1.93024e-06 -1.47596e-06 0 -1.65868e-06 -1.40776e-06 0 -1.39943e-06 -1.34871e-06 0 -1.1506e-06 -1.29913e-06 0 -9.10328e-07 -1.25944e-06 0 -6.76853e-07 -1.22819e-06 0 -4.48451e-07 -1.20639e-06 0 -2.23384e-07 -1.19337e-06 0 0 -1.18846e-06 0 -1.65733e-05 -6.39077e-06 0 -1.54237e-05 -6.25998e-06 0 -1.43156e-05 -6.08554e-06 0 -1.32553e-05 -5.87607e-06 0 -1.22472e-05 -5.63982e-06 0 -1.12942e-05 -5.38444e-06 0 -1.03974e-05 -5.11688e-06 0 -9.55675e-06 -4.84314e-06 0 -8.77122e-06 -4.56838e-06 0 -8.03905e-06 -4.29668e-06 0 -7.35799e-06 -4.03131e-06 0 -6.72532e-06 -3.77579e-06 0 -6.13818e-06 -3.53064e-06 0 -5.59356e-06 -3.29866e-06 0 -5.08838e-06 -3.08035e-06 0 -4.61963e-06 -2.87516e-06 0 -4.18436e-06 -2.68606e-06 0 -3.77968e-06 -2.51056e-06 0 -3.40287e-06 -2.34921e-06 0 -3.05127e-06 -2.20294e-06 0 -2.72239e-06 -2.06945e-06 0 -2.41389e-06 -1.95004e-06 0 -2.12347e-06 -1.8436e-06 0 -1.84902e-06 -1.74881e-06 0 -1.58849e-06 -1.66761e-06 0 -1.33993e-06 -1.59735e-06 0 -1.10149e-06 -1.53837e-06 0 -8.71361e-07 -1.49118e-06 0 -6.47816e-07 -1.45404e-06 0 -4.29182e-07 -1.42814e-06 0 -2.13777e-07 -1.41267e-06 0 0 -1.40683e-06 0 -1.64489e-05 -7.58614e-06 0 -1.52468e-05 -7.41316e-06 0 -1.40961e-05 -7.18906e-06 0 -1.30028e-05 -6.92473e-06 0 -1.19707e-05 -6.63044e-06 0 -1.10018e-05 -6.31555e-06 0 -1.00961e-05 -5.98845e-06 0 -9.25266e-06 -5.65623e-06 0 -8.46938e-06 -5.32494e-06 0 -7.7435e-06 -4.99915e-06 0 -7.07192e-06 -4.68253e-06 0 -6.45113e-06 -4.37913e-06 0 -5.87761e-06 -4.08913e-06 0 -5.34781e-06 -3.81573e-06 0 -4.85818e-06 -3.55926e-06 0 -4.40537e-06 -3.31883e-06 0 -3.98613e-06 -3.09787e-06 0 -3.59736e-06 -2.89323e-06 0 -3.2362e-06 -2.70544e-06 0 -2.89987e-06 -2.53551e-06 0 -2.58583e-06 -2.38064e-06 0 -2.29168e-06 -2.24229e-06 0 -2.01513e-06 -2.1191e-06 0 -1.75407e-06 -2.00949e-06 0 -1.50649e-06 -1.91567e-06 0 -1.27045e-06 -1.83455e-06 0 -1.04418e-06 -1.76649e-06 0 -8.25901e-07 -1.71206e-06 0 -6.13949e-07 -1.66923e-06 0 -4.06713e-07 -1.63938e-06 0 -2.02576e-07 -1.62155e-06 0 0 -1.61482e-06 0 -1.62849e-05 -8.84374e-06 0 -1.50223e-05 -8.61744e-06 0 -1.38232e-05 -8.33272e-06 0 -1.26933e-05 -8.00318e-06 0 -1.16355e-05 -7.64142e-06 0 -1.06505e-05 -7.25871e-06 0 -9.73699e-06 -6.86494e-06 0 -8.89266e-06 -6.46832e-06 0 -8.11415e-06 -6.07573e-06 0 -7.39752e-06 -5.69207e-06 0 -6.7386e-06 -5.3213e-06 0 -6.13299e-06 -4.96796e-06 0 -5.5764e-06 -4.63164e-06 0 -5.06468e-06 -4.31591e-06 0 -4.59374e-06 -4.0208e-06 0 -4.15988e-06 -3.74496e-06 0 -3.75953e-06 -3.49226e-06 0 -3.38937e-06 -3.25875e-06 0 -3.0464e-06 -3.04492e-06 0 -2.72773e-06 -2.85183e-06 0 -2.43076e-06 -2.67611e-06 0 -2.15308e-06 -2.51936e-06 0 -1.89238e-06 -2.37997e-06 0 -1.64659e-06 -2.25606e-06 0 -1.41372e-06 -2.15011e-06 0 -1.19191e-06 -2.05855e-06 0 -9.79416e-07 -1.98179e-06 0 -7.74546e-07 -1.92043e-06 0 -5.75702e-07 -1.87217e-06 0 -3.81344e-07 -1.83853e-06 0 -1.8993e-07 -1.81845e-06 0 0 -1.81087e-06 0 -1.60589e-05 -1.01739e-05 0 -1.47259e-05 -9.88015e-06 0 -1.34723e-05 -9.52109e-06 0 -1.23028e-05 -9.11362e-06 0 -1.12186e-05 -8.67302e-06 0 -1.02188e-05 -8.2127e-06 0 -9.30033e-06 -7.74404e-06 0 -8.45893e-06 -7.27631e-06 0 -7.68964e-06 -6.81715e-06 0 -6.98701e-06 -6.37156e-06 0 -6.34565e-06 -5.94364e-06 0 -5.76007e-06 -5.53831e-06 0 -5.22511e-06 -5.15431e-06 0 -4.73595e-06 -4.79551e-06 0 -4.28794e-06 -4.46146e-06 0 -3.87698e-06 -4.15025e-06 0 -3.4992e-06 -3.86611e-06 0 -3.15107e-06 -3.60422e-06 0 -2.82945e-06 -3.36495e-06 0 -2.53137e-06 -3.14937e-06 0 -2.25419e-06 -2.9535e-06 0 -1.99549e-06 -2.77906e-06 0 -1.75299e-06 -2.62414e-06 0 -1.52467e-06 -2.48657e-06 0 -1.3086e-06 -2.36906e-06 0 -1.10297e-06 -2.2676e-06 0 -9.06132e-07 -2.18258e-06 0 -7.16466e-07 -2.11466e-06 0 -5.32462e-07 -2.06126e-06 0 -3.5267e-07 -2.02405e-06 0 -1.75639e-07 -2.00184e-06 0 0 -1.99346e-06 0 -1.57662e-05 -1.15873e-05 0 -1.4355e-05 -1.12081e-05 0 -1.30427e-05 -1.07577e-05 0 -1.18323e-05 -1.02568e-05 0 -1.07231e-05 -9.72395e-06 0 -9.71143e-06 -9.17466e-06 0 -8.79198e-06 -8.62186e-06 0 -7.95824e-06 -8.07569e-06 0 -7.20323e-06 -7.54437e-06 0 -6.51977e-06 -7.03268e-06 0 -5.90102e-06 -6.54467e-06 0 -5.34029e-06 -6.08551e-06 0 -4.83151e-06 -5.6527e-06 0 -4.36912e-06 -5.25035e-06 0 -3.94793e-06 -4.87738e-06 0 -3.56343e-06 -4.53112e-06 0 -3.21147e-06 -4.21615e-06 0 -2.88833e-06 -3.92662e-06 0 -2.59076e-06 -3.66277e-06 0 -2.31572e-06 -3.42558e-06 0 -2.06058e-06 -3.21046e-06 0 -1.82294e-06 -3.01921e-06 0 -1.60055e-06 -2.8496e-06 0 -1.39147e-06 -2.69914e-06 0 -1.19384e-06 -2.57077e-06 0 -1.00594e-06 -2.46001e-06 0 -8.26227e-07 -2.36726e-06 0 -6.53165e-07 -2.29322e-06 0 -4.85351e-07 -2.23502e-06 0 -3.21436e-07 -2.19448e-06 0 -1.60075e-07 -2.17029e-06 0 0 -2.16116e-06 0 -1.53817e-05 -1.30943e-05 0 -1.38847e-05 -1.2607e-05 0 -1.25109e-05 -1.20443e-05 0 -1.12606e-05 -1.14317e-05 0 -1.01299e-05 -1.07908e-05 0 -9.11186e-06 -1.01398e-05 0 -8.19799e-06 -9.4927e-06 0 -7.37897e-06 -8.86035e-06 0 -6.64539e-06 -8.25121e-06 0 -5.98803e-06 -7.66942e-06 0 -5.39847e-06 -7.11866e-06 0 -4.86871e-06 -6.60418e-06 0 -4.39171e-06 -6.12186e-06 0 -3.96117e-06 -5.67592e-06 0 -3.57138e-06 -5.26444e-06 0 -3.21744e-06 -4.88386e-06 0 -2.89498e-06 -4.53902e-06 0 -2.60013e-06 -4.22293e-06 0 -2.32956e-06 -3.93561e-06 0 -2.08024e-06 -3.67797e-06 0 -1.84954e-06 -3.44473e-06 0 -1.63513e-06 -3.23773e-06 0 -1.43486e-06 -3.05442e-06 0 -1.24685e-06 -2.89198e-06 0 -1.06935e-06 -2.75356e-06 0 -9.00775e-07 -2.63422e-06 0 -7.39668e-07 -2.53436e-06 0 -5.84627e-07 -2.45468e-06 0 -4.34361e-07 -2.39207e-06 0 -2.87639e-07 -2.34849e-06 0 -1.43236e-07 -2.32248e-06 0 0 -2.31267e-06 0 -1.48729e-05 -1.47051e-05 0 -1.32838e-05 -1.40809e-05 0 -1.18485e-05 -1.33803e-05 0 -1.05628e-05 -1.26339e-05 0 -9.41801e-06 -1.18672e-05 0 -8.40276e-06 -1.11003e-05 0 -7.50438e-06 -1.03482e-05 0 -6.71007e-06 -9.62187e-06 0 -6.00756e-06 -8.92952e-06 0 -5.38533e-06 -8.2741e-06 0 -4.83322e-06 -7.65855e-06 0 -4.34188e-06 -7.08791e-06 0 -3.9033e-06 -6.55603e-06 0 -3.51052e-06 -6.06708e-06 0 -3.15731e-06 -5.61808e-06 0 -2.83851e-06 -5.2044e-06 0 -2.54957e-06 -4.8311e-06 0 -2.28654e-06 -4.48992e-06 0 -2.0461e-06 -4.18063e-06 0 -1.82526e-06 -3.90398e-06 0 -1.62147e-06 -3.65399e-06 0 -1.43251e-06 -3.43254e-06 0 -1.25633e-06 -3.2367e-06 0 -1.0912e-06 -3.06337e-06 0 -9.35514e-07 -2.91584e-06 0 -7.87797e-07 -2.78873e-06 0 -6.46742e-07 -2.68245e-06 0 -5.11085e-07 -2.5977e-06 0 -3.7967e-07 -2.53113e-06 0 -2.51398e-07 -2.4848e-06 0 -1.25182e-07 -2.45716e-06 0 0 -2.44674e-06 0 -1.42236e-05 -1.64278e-05 0 -1.254e-05 -1.56307e-05 0 -1.10471e-05 -1.4761e-05 0 -9.73433e-06 -1.38555e-05 0 -8.58625e-06 -1.29431e-05 0 -7.58556e-06 -1.20453e-05 0 -6.71458e-06 -1.11774e-05 0 -5.95639e-06 -1.03497e-05 0 -5.29552e-06 -9.56949e-06 0 -4.71797e-06 -8.83781e-06 0 -4.21181e-06 -8.15635e-06 0 -3.76636e-06 -7.52965e-06 0 -3.3727e-06 -6.94901e-06 0 -3.02327e-06 -6.4184e-06 0 -2.7115e-06 -5.93356e-06 0 -2.43202e-06 -5.48865e-06 0 -2.18021e-06 -5.08882e-06 0 -1.95213e-06 -4.72447e-06 0 -1.74453e-06 -4.39508e-06 0 -1.55453e-06 -4.10119e-06 0 -1.37973e-06 -3.83611e-06 0 -1.21804e-06 -3.60171e-06 0 -1.06761e-06 -3.39472e-06 0 -9.26842e-07 -3.21173e-06 0 -7.94298e-07 -3.05614e-06 0 -6.68676e-07 -2.92221e-06 0 -5.48819e-07 -2.81028e-06 0 -4.33623e-07 -2.72109e-06 0 -3.22083e-07 -2.65105e-06 0 -2.13247e-07 -2.60233e-06 0 -1.0618e-07 -2.57326e-06 0 0 -2.56231e-06 0 -1.33654e-05 -1.82671e-05 0 -1.1591e-05 -1.7252e-05 0 -1.00527e-05 -1.61763e-05 0 -8.72966e-06 -1.50829e-05 0 -7.59717e-06 -1.40034e-05 0 -6.63013e-06 -1.29597e-05 0 -5.8047e-06 -1.1966e-05 0 -5.09926e-06 -1.10306e-05 0 -4.49483e-06 -1.01593e-05 0 -3.97492e-06 -9.3501e-06 0 -3.52587e-06 -8.60298e-06 0 -3.13584e-06 -7.92155e-06 0 -2.7952e-06 -7.29409e-06 0 -2.49599e-06 -6.72415e-06 0 -2.23145e-06 -6.206e-06 0 -1.99618e-06 -5.73243e-06 0 -1.78562e-06 -5.30859e-06 0 -1.596e-06 -4.92352e-06 0 -1.42423e-06 -4.57631e-06 0 -1.26765e-06 -4.2673e-06 0 -1.12406e-06 -3.98907e-06 0 -9.91601e-07 -3.74347e-06 0 -8.6862e-07 -3.52689e-06 0 -7.53738e-07 -3.33563e-06 0 -6.45712e-07 -3.17318e-06 0 -5.43434e-07 -3.03344e-06 0 -4.45928e-07 -2.91674e-06 0 -3.52271e-07 -2.82379e-06 0 -2.61625e-07 -2.75083e-06 0 -1.73205e-07 -2.70008e-06 0 -8.62379e-08 -2.66982e-06 0 0 -2.65841e-06 0 -1.22597e-05 -2.02208e-05 0 -1.04081e-05 -1.89316e-05 0 -8.84594e-06 -1.7607e-05 0 -7.53739e-06 -1.62946e-05 0 -6.44557e-06 -1.50265e-05 0 -5.53585e-06 -1.38229e-05 0 -4.77732e-06 -1.26951e-05 0 -4.14334e-06 -1.16481e-05 0 -3.61144e-06 -1.06846e-05 0 -3.16277e-06 -9.79876e-06 0 -2.78223e-06 -8.98811e-06 0 -2.45711e-06 -8.25493e-06 0 -2.17735e-06 -7.58401e-06 0 -1.93484e-06 -6.97827e-06 0 -1.72287e-06 -6.43032e-06 0 -1.53623e-06 -5.93151e-06 0 -1.3706e-06 -5.48687e-06 0 -1.22249e-06 -5.08406e-06 0 -1.0891e-06 -4.72179e-06 0 -9.68094e-07 -4.40012e-06 0 -8.57554e-07 -4.111e-06 0 -7.55894e-07 -3.85619e-06 0 -6.61736e-07 -3.63177e-06 0 -5.73943e-07 -3.43379e-06 0 -4.91508e-07 -3.2658e-06 0 -4.13543e-07 -3.12139e-06 0 -3.39275e-07 -3.00085e-06 0 -2.67978e-07 -2.90489e-06 0 -1.99002e-07 -2.82959e-06 0 -1.31738e-07 -2.77724e-06 0 -6.55888e-08 -2.74602e-06 0 0 -2.73425e-06 0 -1.08562e-05 -2.22737e-05 0 -8.955e-06 -2.06439e-05 0 -7.40275e-06 -1.90231e-05 0 -6.14324e-06 -1.74602e-05 0 -5.12439e-06 -1.59839e-05 0 -4.30074e-06 -1.46096e-05 0 -3.63392e-06 -1.33429e-05 0 -3.09232e-06 -1.21835e-05 0 -2.65032e-06 -1.11297e-05 0 -2.28718e-06 -1.01708e-05 0 -1.98678e-06 -9.30105e-06 0 -1.736e-06 -8.52101e-06 0 -1.52472e-06 -7.81161e-06 0 -1.34505e-06 -7.17491e-06 0 -1.1906e-06 -6.60176e-06 0 -1.05658e-06 -6.08199e-06 0 -9.39121e-07 -5.62045e-06 0 -8.35157e-07 -5.20345e-06 0 -7.42332e-07 -4.8293e-06 0 -6.58691e-07 -4.49781e-06 0 -5.827e-07 -4.20031e-06 0 -5.13109e-07 -3.93851e-06 0 -4.48861e-07 -3.7082e-06 0 -3.891e-07 -3.50519e-06 0 -3.33084e-07 -3.33308e-06 0 -2.80172e-07 -3.18521e-06 0 -2.29812e-07 -3.06185e-06 0 -1.81495e-07 -2.96368e-06 0 -1.34768e-07 -2.88668e-06 0 -8.92108e-08 -2.83314e-06 0 -4.44145e-08 -2.80122e-06 0 0 -2.78919e-06 0 -9.00121e-06 -2.43881e-05 0 -7.11356e-06 -2.23426e-05 0 -5.63505e-06 -2.03781e-05 0 -4.483e-06 -1.85366e-05 0 -3.58781e-06 -1.68379e-05 0 -2.89278e-06 -1.52877e-05 0 -2.35265e-06 -1.38826e-05 0 -1.93175e-06 -1.26148e-05 0 -1.60234e-06 -1.14769e-05 0 -1.34274e-06 -1.04519e-05 0 -1.13671e-06 -9.53041e-06 0 -9.71438e-07 -8.71072e-06 0 -8.37407e-07 -7.96967e-06 0 -7.27423e-07 -7.30835e-06 0 -6.35885e-07 -6.71575e-06 0 -5.58712e-07 -6.18025e-06 0 -4.92744e-07 -5.7064e-06 0 -4.35573e-07 -5.27931e-06 0 -3.85413e-07 -4.89693e-06 0 -3.40841e-07 -4.55878e-06 0 -3.00786e-07 -4.25572e-06 0 -2.64409e-07 -3.98933e-06 0 -2.31028e-07 -3.75522e-06 0 -2.00113e-07 -3.54901e-06 0 -1.7122e-07 -3.37431e-06 0 -1.4398e-07 -3.22428e-06 0 -1.18083e-07 -3.09916e-06 0 -9.32507e-08 -2.99963e-06 0 -6.92419e-08 -2.92157e-06 0 -4.58356e-08 -2.8673e-06 0 -2.282e-08 -2.83496e-06 0 0 -2.82277e-06 0 -6.67937e-06 -2.649e-05 0 -4.89322e-06 -2.3954e-05 0 -3.5661e-06 -2.16056e-05 0 -2.58636e-06 -1.94677e-05 0 -1.86739e-06 -1.75421e-05 0 -1.34283e-06 -1.58195e-05 0 -9.62266e-07 -1.42842e-05 0 -6.8766e-07 -1.29185e-05 0 -4.9057e-07 -1.17076e-05 0 -3.4965e-07 -1.06276e-05 0 -2.49515e-07 -9.66502e-06 0 -1.78512e-07 -8.8154e-06 0 -1.28355e-07 -8.05157e-06 0 -9.3063e-08 -7.37346e-06 0 -6.82063e-08 -6.76834e-06 0 -5.07347e-08 -6.22322e-06 0 -3.84249e-08 -5.74234e-06 0 -2.96958e-08 -5.3098e-06 0 -2.34627e-08 -4.92322e-06 0 -1.89359e-08 -4.58187e-06 0 -1.55785e-08 -4.27626e-06 0 -1.30175e-08 -4.00789e-06 0 -1.09878e-08 -3.77221e-06 0 -9.31464e-09 -3.56471e-06 0 -7.87563e-09 -3.38901e-06 0 -6.58823e-09 -3.23817e-06 0 -5.39858e-09 -3.11241e-06 0 -4.26975e-09 -3.01239e-06 0 -3.17831e-09 -2.93395e-06 0 -2.10906e-09 -2.87943e-06 0 -1.05185e-09 -2.84694e-06 0 0 -2.83469e-06 0 -3.76123e-06 -2.84563e-05 0 -2.21721e-06 -2.53728e-05 0 -1.15261e-06 -2.26202e-05 0 -4.31187e-07 -2.01855e-05 0 4.57238e-08 -1.80433e-05 0 3.49809e-07 -1.61641e-05 0 5.33096e-07 -1.45162e-05 0 6.33174e-07 -1.30705e-05 0 6.76953e-07 -1.18036e-05 0 6.83698e-07 -1.06844e-05 0 6.66597e-07 -9.69477e-06 0 6.35073e-07 -8.82751e-06 0 5.95381e-07 -8.05171e-06 0 5.51689e-07 -7.36613e-06 0 5.06788e-07 -6.75647e-06 0 4.6237e-07 -6.20869e-06 0 4.19471e-07 -5.72662e-06 0 3.78664e-07 -5.29369e-06 0 3.40202e-07 -4.90725e-06 0 3.04146e-07 -4.56639e-06 0 2.70432e-07 -4.26143e-06 0 2.38918e-07 -3.99379e-06 0 2.09418e-07 -3.75884e-06 0 1.81727e-07 -3.55205e-06 0 1.5563e-07 -3.37699e-06 0 1.30909e-07 -3.22673e-06 0 1.07353e-07 -3.10146e-06 0 8.47541e-08 -3.00184e-06 0 6.29115e-08 -2.92372e-06 0 4.16323e-08 -2.86943e-06 0 2.0723e-08 -2.83706e-06 0 0 -2.82487e-06 0 -1.58904e-07 -3.00959e-05 0 9.49517e-07 -2.64546e-05 0 1.61215e-06 -2.33136e-05 0 1.97416e-06 -2.06093e-05 0 2.13554e-06 -1.82817e-05 0 2.1658e-06 -1.6277e-05 0 2.11327e-06 -1.4546e-05 0 2.01122e-06 -1.3047e-05 0 1.88214e-06 -1.17478e-05 0 1.74101e-06 -1.06099e-05 0 1.59723e-06 -9.61092e-06 0 1.45677e-06 -8.74089e-06 0 1.32296e-06 -7.96584e-06 0 1.19752e-06 -7.2834e-06 0 1.08113e-06 -6.67816e-06 0 9.73786e-07 -6.13533e-06 0 8.7512e-07 -5.65838e-06 0 7.84527e-07 -5.23044e-06 0 7.01323e-07 -4.84871e-06 0 6.24764e-07 -4.51217e-06 0 5.54132e-07 -4.21115e-06 0 4.88741e-07 -3.94701e-06 0 4.2793e-07 -3.71515e-06 0 3.71103e-07 -3.51109e-06 0 3.17696e-07 -3.33833e-06 0 2.67189e-07 -3.19003e-06 0 2.19105e-07 -3.0664e-06 0 1.72988e-07 -2.96807e-06 0 1.28414e-07 -2.89096e-06 0 8.49856e-08 -2.83737e-06 0 4.23047e-08 -2.80543e-06 0 0 -2.79339e-06 0 4.0428e-06 -3.11712e-05 0 4.52128e-06 -2.70355e-05 0 4.65039e-06 -2.35708e-05 0 4.56213e-06 -2.06574e-05 0 4.34464e-06 -1.8199e-05 0 4.05702e-06 -1.6117e-05 0 3.73835e-06 -1.43447e-05 0 3.41365e-06 -1.2828e-05 0 3.09815e-06 -1.15264e-05 0 2.80047e-06 -1.03951e-05 0 2.52471e-06 -9.40761e-06 0 2.27226e-06 -8.55183e-06 0 2.04278e-06 -7.79177e-06 0 1.835e-06 -7.12412e-06 0 1.64712e-06 -6.53288e-06 0 1.47721e-06 -6.00305e-06 0 1.32333e-06 -5.53776e-06 0 1.1836e-06 -5.12034e-06 0 1.05633e-06 -4.74797e-06 0 9.39931e-07 -4.41962e-06 0 8.33018e-07 -4.12584e-06 0 7.34349e-07 -3.86798e-06 0 6.42782e-07 -3.64154e-06 0 5.57333e-07 -3.4422e-06 0 4.77095e-07 -3.27338e-06 0 4.01244e-07 -3.12842e-06 0 3.29047e-07 -3.00755e-06 0 2.59801e-07 -2.91139e-06 0 1.92869e-07 -2.83598e-06 0 1.27647e-07 -2.78355e-06 0 6.3543e-08 -2.7523e-06 0 0 -2.74052e-06 0 8.81209e-06 -3.14311e-05 0 8.45349e-06 -2.69508e-05 0 7.91276e-06 -2.32805e-05 0 7.28262e-06 -2.02537e-05 0 6.62469e-06 -1.77432e-05 0 5.97853e-06 -1.56491e-05 0 5.36778e-06 -1.38892e-05 0 4.80475e-06 -1.2399e-05 0 4.29413e-06 -1.11307e-05 0 3.83576e-06 -1.00349e-05 0 3.4268e-06 -9.08253e-06 0 3.06288e-06 -8.25962e-06 0 2.73922e-06 -7.52978e-06 0 2.45106e-06 -6.8891e-06 0 2.19382e-06 -6.32171e-06 0 1.96347e-06 -5.81306e-06 0 1.75638e-06 -5.36599e-06 0 1.56935e-06 -4.96457e-06 0 1.39968e-06 -4.60614e-06 0 1.24495e-06 -4.28975e-06 0 1.1031e-06 -4.00643e-06 0 9.72345e-07 -3.75752e-06 0 8.51096e-07 -3.53877e-06 0 7.3799e-07 -3.34607e-06 0 6.31794e-07 -3.18277e-06 0 5.31398e-07 -3.04248e-06 0 4.35824e-07 -2.92545e-06 0 3.44138e-07 -2.83231e-06 0 2.55498e-07 -2.75924e-06 0 1.69107e-07 -2.70844e-06 0 8.41847e-08 -2.67816e-06 0 0 -2.66674e-06 0 1.38784e-05 -3.06657e-05 0 1.25523e-05 -2.60639e-05 0 1.12544e-05 -2.23516e-05 0 1.00241e-05 -1.93375e-05 0 8.88845e-06 -1.6875e-05 0 7.86178e-06 -1.4849e-05 0 6.94782e-06 -1.31659e-05 0 6.14262e-06 -1.17533e-05 0 5.43757e-06 -1.05586e-05 0 4.82177e-06 -9.53014e-06 0 4.28411e-06 -8.63796e-06 0 3.81363e-06 -7.86722e-06 0 3.40062e-06 -7.18307e-06 0 3.03659e-06 -6.58149e-06 0 2.71405e-06 -6.04764e-06 0 2.42684e-06 -5.56805e-06 0 2.16967e-06 -5.14546e-06 0 1.93806e-06 -4.76526e-06 0 1.72834e-06 -4.42508e-06 0 1.5373e-06 -4.1242e-06 0 1.36228e-06 -3.85436e-06 0 1.20099e-06 -3.61691e-06 0 1.05142e-06 -3.40798e-06 0 9.11857e-07 -3.22374e-06 0 7.80783e-07 -3.06743e-06 0 6.56823e-07 -2.93305e-06 0 5.38771e-07 -2.82088e-06 0 4.25482e-07 -2.73156e-06 0 3.15921e-07 -2.66147e-06 0 2.09115e-07 -2.61272e-06 0 1.04106e-07 -2.58365e-06 0 0 -2.57269e-06 0 1.8966e-05 -2.87654e-05 0 1.66229e-05 -2.4298e-05 0 1.45291e-05 -2.07312e-05 0 1.26724e-05 -1.78748e-05 0 1.10452e-05 -1.55755e-05 0 9.63477e-06 -1.3709e-05 0 8.42186e-06 -1.21744e-05 0 7.38316e-06 -1.08951e-05 0 6.49438e-06 -9.81661e-06 0 5.73221e-06 -8.88827e-06 0 5.07637e-06 -8.08132e-06 0 4.50882e-06 -7.38156e-06 0 4.01476e-06 -6.75788e-06 0 3.58198e-06 -6.20677e-06 0 3.20018e-06 -5.71537e-06 0 2.8612e-06 -5.27206e-06 0 2.55823e-06 -4.87964e-06 0 2.28565e-06 -4.52534e-06 0 2.03893e-06 -4.20731e-06 0 1.81418e-06 -3.92514e-06 0 1.6082e-06 -3.6715e-06 0 1.41828e-06 -3.4478e-06 0 1.24206e-06 -3.25061e-06 0 1.07752e-06 -3.07646e-06 0 9.2288e-07 -2.92851e-06 0 7.76543e-07 -2.80119e-06 0 6.37101e-07 -2.69482e-06 0 5.03217e-07 -2.61006e-06 0 3.73687e-07 -2.54351e-06 0 2.47373e-07 -2.4972e-06 0 1.23159e-07 -2.46958e-06 0 0 -2.45917e-06 0 2.37754e-05 -2.57307e-05 0 2.04473e-05 -2.16394e-05 0 1.75657e-05 -1.84053e-05 0 1.50881e-05 -1.58597e-05 0 1.29817e-05 -1.38483e-05 0 1.12072e-05 -1.22404e-05 0 9.71931e-06 -1.09306e-05 0 8.47203e-06 -9.84179e-06 0 7.42303e-06 -8.92153e-06 0 6.53543e-06 -8.12456e-06 0 5.77936e-06 -7.42603e-06 0 5.12978e-06 -6.81409e-06 0 4.5671e-06 -6.26382e-06 0 4.07578e-06 -5.77293e-06 0 3.64306e-06 -5.33155e-06 0 3.25915e-06 -4.93061e-06 0 2.91601e-06 -4.57311e-06 0 2.6071e-06 -4.24866e-06 0 2.32726e-06 -3.95605e-06 0 2.07204e-06 -3.69531e-06 0 1.83786e-06 -3.46018e-06 0 1.62169e-06 -3.2522e-06 0 1.42086e-06 -3.06841e-06 0 1.23314e-06 -2.9058e-06 0 1.05655e-06 -2.7674e-06 0 8.89286e-07 -2.64816e-06 0 7.2978e-07 -2.54843e-06 0 5.76536e-07 -2.46889e-06 0 4.28199e-07 -2.4064e-06 0 2.8349e-07 -2.36289e-06 0 1.4115e-07 -2.33694e-06 0 0 -2.32715e-06 0 2.80639e-05 -2.16583e-05 0 2.38334e-05 -1.81244e-05 0 2.01993e-05 -1.53925e-05 0 1.71315e-05 -1.33141e-05 0 1.45855e-05 -1.17236e-05 0 1.24932e-05 -1.04779e-05 0 1.07771e-05 -9.46913e-06 0 9.36387e-06 -8.62521e-06 0 8.19127e-06 -7.90107e-06 0 7.20847e-06 -7.26225e-06 0 6.37661e-06 -6.69115e-06 0 5.66455e-06 -6.18028e-06 0 5.04881e-06 -5.71337e-06 0 4.51131e-06 -5.29006e-06 0 4.03756e-06 -4.90433e-06 0 3.61665e-06 -4.55028e-06 0 3.23973e-06 -4.23128e-06 0 2.89973e-06 -3.93967e-06 0 2.59106e-06 -3.67501e-06 0 2.30898e-06 -3.43782e-06 0 2.04963e-06 -3.22307e-06 0 1.80979e-06 -3.03239e-06 0 1.58661e-06 -2.8634e-06 0 1.3777e-06 -2.71354e-06 0 1.18091e-06 -2.58571e-06 0 9.94315e-07 -2.47542e-06 0 8.16209e-07 -2.38305e-06 0 6.44966e-07 -2.3093e-06 0 4.79107e-07 -2.25133e-06 0 3.17232e-07 -2.21094e-06 0 1.57961e-07 -2.18684e-06 0 0 -2.17775e-06 0 3.17035e-05 -1.66796e-05 0 2.66306e-05 -1.37955e-05 0 2.22635e-05 -1.17229e-05 0 1.86492e-05 -1.02851e-05 0 1.57347e-05 -9.26164e-06 0 1.34044e-05 -8.48388e-06 0 1.15342e-05 -7.84689e-06 0 1.00176e-05 -7.29338e-06 0 8.77142e-06 -6.79419e-06 0 7.73258e-06 -6.33228e-06 0 6.85517e-06 -5.90095e-06 0 6.10396e-06 -5.49922e-06 0 5.4532e-06 -5.12145e-06 0 4.88353e-06 -4.76991e-06 0 4.37973e-06 -4.44306e-06 0 3.93049e-06 -4.13852e-06 0 3.52676e-06 -3.86019e-06 0 3.16129e-06 -3.6033e-06 0 2.82841e-06 -3.36825e-06 0 2.52329e-06 -3.1561e-06 0 2.24202e-06 -2.96306e-06 0 1.98129e-06 -2.79088e-06 0 1.73817e-06 -2.63775e-06 0 1.51019e-06 -2.5016e-06 0 1.29511e-06 -2.38517e-06 0 1.09091e-06 -2.28454e-06 0 8.95788e-07 -2.20015e-06 0 7.0803e-07 -2.13269e-06 0 5.26055e-07 -2.07961e-06 0 3.48364e-07 -2.04262e-06 0 1.73477e-07 -2.02053e-06 0 0 -2.0122e-06 0 3.4727e-05 -1.08557e-05 0 2.8714e-05 -8.61895e-06 0 2.35523e-05 -7.41342e-06 0 1.9455e-05 -6.85288e-06 0 1.6298e-05 -6.56617e-06 0 1.38582e-05 -6.35648e-06 0 1.19411e-05 -6.14544e-06 0 1.04038e-05 -5.91034e-06 0 9.1461e-06 -5.64995e-06 0 8.09725e-06 -5.37181e-06 0 7.20849e-06 -5.08351e-06 0 6.4437e-06 -4.79234e-06 0 5.77723e-06 -4.50447e-06 0 5.19012e-06 -4.22519e-06 0 4.66768e-06 -3.95769e-06 0 4.19906e-06 -3.7032e-06 0 3.7756e-06 -3.46615e-06 0 3.3904e-06 -3.2447e-06 0 3.03802e-06 -3.04003e-06 0 2.7138e-06 -2.85371e-06 0 2.41394e-06 -2.68319e-06 0 2.13518e-06 -2.5303e-06 0 1.87462e-06 -2.39378e-06 0 1.62978e-06 -2.27204e-06 0 1.39841e-06 -2.16764e-06 0 1.17843e-06 -2.07725e-06 0 9.67996e-07 -2.00132e-06 0 7.65311e-07 -1.94054e-06 0 5.6873e-07 -1.89269e-06 0 3.76678e-07 -1.85931e-06 0 1.87593e-07 -1.83937e-06 0 0 -1.83185e-06 0 3.74459e-05 -3.97029e-06 0 2.98749e-05 -2.31652e-06 0 2.37137e-05 -2.4776e-06 0 1.93098e-05 -3.18108e-06 0 1.61518e-05 -3.81298e-06 0 1.37985e-05 -4.2386e-06 0 1.19754e-05 -4.47125e-06 0 1.05157e-05 -4.55326e-06 0 9.31498e-06 -4.5242e-06 0 8.30463e-06 -4.42136e-06 0 7.43926e-06 -4.26846e-06 0 6.68626e-06 -4.08174e-06 0 6.02288e-06 -3.87903e-06 0 5.4325e-06 -3.6686e-06 0 4.90229e-06 -3.45808e-06 0 4.42278e-06 -3.25205e-06 0 3.98637e-06 -3.05542e-06 0 3.58693e-06 -2.86896e-06 0 3.21957e-06 -2.69457e-06 0 2.88006e-06 -2.53423e-06 0 2.56486e-06 -2.38652e-06 0 2.2709e-06 -2.25331e-06 0 1.9954e-06 -2.13385e-06 0 1.73596e-06 -2.02699e-06 0 1.49033e-06 -1.93506e-06 0 1.25646e-06 -1.85531e-06 0 1.03246e-06 -1.78822e-06 0 8.16504e-07 -1.73444e-06 0 6.06899e-07 -1.69206e-06 0 4.02016e-07 -1.66248e-06 0 2.00228e-07 -1.6448e-06 0 0 -1.63813e-06 0 4.11618e-05 5.32836e-06 0 2.91275e-05 5.95758e-06 0 2.20277e-05 2.82359e-06 0 1.79518e-05 3.48134e-07 0 1.52308e-05 -1.28396e-06 0 1.32264e-05 -2.31705e-06 0 1.16563e-05 -2.94714e-06 0 1.03746e-05 -3.3043e-06 0 9.29687e-06 -3.47333e-06 0 8.3698e-06 -3.52037e-06 0 7.55906e-06 -3.48389e-06 0 6.84026e-06 -3.38805e-06 0 6.19642e-06 -3.26044e-06 0 5.61511e-06 -3.11178e-06 0 5.08664e-06 -2.95329e-06 0 4.6037e-06 -2.79221e-06 0 4.16033e-06 -2.63376e-06 0 3.75158e-06 -2.48084e-06 0 3.37338e-06 -2.33584e-06 0 3.0221e-06 -2.20106e-06 0 2.69463e-06 -2.07601e-06 0 2.38819e-06 -1.96254e-06 0 2.1002e-06 -1.86031e-06 0 1.82837e-06 -1.76856e-06 0 1.57053e-06 -1.68939e-06 0 1.32466e-06 -1.62057e-06 0 1.08888e-06 -1.56258e-06 0 8.61363e-07 -1.51603e-06 0 6.40374e-07 -1.47931e-06 0 4.2425e-07 -1.45367e-06 0 2.1132e-07 -1.43833e-06 0 0 -1.43255e-06 0 5.55588e-05 5.50266e-05 0 2.16859e-05 1.52484e-05 0 1.77301e-05 7.0653e-06 0 1.53823e-05 3.0193e-06 0 1.36421e-05 6.61106e-07 0 1.22396e-05 -7.88461e-07 0 1.10582e-05 -1.68927e-06 0 1.00348e-05 -2.23644e-06 0 9.13068e-06 -2.54561e-06 0 8.3207e-06 -2.7018e-06 0 7.58794e-06 -2.75291e-06 0 6.92004e-06 -2.72814e-06 0 6.30806e-06 -2.66121e-06 0 5.74518e-06 -2.5643e-06 0 5.22575e-06 -2.45081e-06 0 4.74528e-06 -2.32969e-06 0 4.2998e-06 -2.20614e-06 0 3.88584e-06 -2.08449e-06 0 3.50034e-06 -1.96742e-06 0 3.14042e-06 -1.85733e-06 0 2.80346e-06 -1.75444e-06 0 2.48707e-06 -1.66047e-06 0 2.18889e-06 -1.57544e-06 0 1.90682e-06 -1.49886e-06 0 1.63878e-06 -1.43259e-06 0 1.3828e-06 -1.37487e-06 0 1.13706e-06 -1.32615e-06 0 8.99707e-07 -1.287e-06 0 6.69009e-07 -1.25609e-06 0 4.43279e-07 -1.23448e-06 0 2.20816e-07 -1.22156e-06 0 0 -1.21668e-06 0 </DataArray> 
</PointData> 
<Points> 
<DataArray type="Float32" NumberOfComponents="3"> 