<?xml version="1.0"?> 
<VTKFile type="StructuredGrid" version="0.1"> 
<StructuredGrid WholeExtent="0 31 0 31 0 0"> 
<Piece Extent="0 31 0 31 0 0"> 
<PointData>
<DataArray type="Float32" Name="B" format="ascii" NumberOfComponents="3"> 
2.28744e-05 -9.43467e-05 0 0.000200616 -6.22607e-07 0 0.000205525 9.83978e-07 0 0.00022403 1.45991e-06 0 0.000247756 1.6916e-06 0 0.000273966 1.78852e-06 0 0.000300814 1.77411e-06 0 0.000326766 1.668e-06 0 0.00035065 1.49767e-06 0 0.000371726 1.29343e-06 0 0.000389639 1.07705e-06 0 0.00040431 8.6246e-07 0 0.000415808 6.56201e-07 0 0.000424265 4.59869e-07 0 0.000429815 2.72124e-07 0 0.000432563 9.00458e-08 0 0.000432563 -9.00458e-08 0 0.000429815 -2.72124e-07 0 0.000424265 -4.59869e-07 0 0.000415808 -6.56201e-07 0 0.00040431 -8.6246e-07 0 0.000389639 -1.07705e-06 0 0.000371726 -1.29343e-06 0 0.00035065 -1.49767e-06 0 0.000326766 -1.668e-06 0 0.000300814 -1.77411e-06 0 0.000273966 -1.78852e-06 0 0.000247756 -1.6916e-06 0 0.00022403 -1.45991e-06 0 0.000205525 -9.83978e-07 0 0.000200616 6.22607e-07 0 2.28744e-05 9.43467e-05 0 1.85806e-05 -0.000353904 0 -2.81217e-06 4.16509e-08 0 -2.90471e-06 -4.24514e-09 0 -3.18213e-06 -5.68644e-09 0 -3.53156e-06 -6.45084e-09 0 -3.91588e-06 -6.77238e-09 0 -4.3087e-06 -6.68103e-09 0 -4.68757e-06 -6.23853e-09 0 -5.0353e-06 -5.5561e-09 0 -5.34121e-06 -4.75781e-09 0 -5.60046e-06 -3.93036e-09 0 -5.81221e-06 -3.12551e-09 0 -5.97779e-06 -2.36468e-09 0 -6.09937e-06 -1.65018e-09 0 -6.17907e-06 -9.73731e-10 0 -6.21849e-06 -3.21752e-10 0 -6.21849e-06 3.21752e-10 0 -6.17907e-06 9.73731e-10 0 -6.09937e-06 1.65018e-09 0 -5.97779e-06 2.36468e-09 0 -5.81221e-06 3.12551e-09 0 -5.60046e-06 3.93036e-09 0 -5.34121e-06 4.75781e-09 0 -5.0353e-06 5.5561e-09 0 -4.68757e-06 6.23853e-09 0 -4.3087e-06 6.68103e-09 0 -3.91588e-06 6.77238e-09 0 -3.53156e-06 6.45084e-09 0 -3.18213e-06 5.68644e-09 0 -2.90471e-06 4.24514e-09 0 -2.81217e-06 -4.16509e-08 0 1.85806e-05 0.000353904 0 1.00513e-05 -0.000257488 0 -4.6836e-09 2.78123e-08 0 -4.59561e-09 -1.24799e-10 0 -4.81469e-09 -2.06801e-10 0 -5.17579e-09 -2.41237e-10 0 -5.59586e-09 -2.55605e-10 0 -6.03634e-09 -2.53964e-10 0 -6.47236e-09 -2.39266e-10 0 -6.88521e-09 -2.15351e-10 0 -7.26073e-09 -1.86442e-10 0 -7.5892e-09 -1.55608e-10 0 -7.86498e-09 -1.24848e-10 0 -8.08552e-09 -9.51396e-11 0 -8.25025e-09 -6.6752e-11 0 -8.35953e-09 -3.95304e-11 0 -8.41397e-09 -1.30857e-11 0 -8.41397e-09 1.30857e-11 0 -8.35953e-09 3.95304e-11 0 -8.25025e-09 6.6752e-11 0 -8.08552e-09 9.51396e-11 0 -7.86498e-09 1.24848e-10 0 -7.5892e-09 1.55608e-10 0 -7.26073e-09 1.86442e-10 0 -6.88521e-09 2.15351e-10 0 -6.47236e-09 2.39266e-10 0 -6.03634e-09 2.53964e-10 0 -5.59586e-09 2.55605e-10 0 -5.17579e-09 2.41237e-10 0 -4.81469e-09 2.06801e-10 0 -4.59561e-09 1.24799e-10 0 -4.6836e-09 -2.78123e-08 0 1.00513e-05 0.000257488 0 6.3595e-06 -0.000200363 0 6.76092e-10 2.05527e-08 0 5.88619e-10 9.69722e-12 0 6.42199e-10 3.2928e-12 0 7.10852e-10 3.80481e-12 0 7.86616e-10 4.01975e-12 0 8.64183e-10 3.98506e-12 0 9.39122e-10 3.74409e-12 0 1.00804e-09 3.35897e-12 0 1.06882e-09 2.89836e-12 0 1.12043e-09 2.41151e-12 0 1.16267e-09 1.92965e-12 0 1.19576e-09 1.46731e-12 0 1.22009e-09 1.02785e-12 0 1.23605e-09 6.0804e-13 0 1.24395e-09 2.01171e-13 0 1.24395e-09 -2.01171e-13 0 1.23605e-09 -6.0804e-13 0 1.22009e-09 -1.02785e-12 0 1.19576e-09 -1.46731e-12 0 1.16267e-09 -1.92965e-12 0 1.12043e-09 -2.41151e-12 0 1.06882e-09 -2.89836e-12 0 1.00804e-09 -3.35897e-12 0 9.39122e-10 -3.74409e-12 0 8.64183e-10 -3.98506e-12 0 7.86616e-10 -4.01975e-12 0 7.10852e-10 -3.80481e-12 0 6.42199e-10 -3.2928e-12 0 5.88619e-10 -9.69722e-12 0 6.76092e-10 -2.05527e-08 0 6.3595e-06 0.000200363 0 4.46578e-06 -0.00016145 0 7.23792e-11 1.61567e-08 0 -5.04488e-12 6.07267e-12 0 -5.66243e-12 3.73068e-15 0 -6.29658e-12 3.04892e-15 0 -6.99242e-12 3.36111e-15 0 -7.70283e-12 3.43963e-15 0 -8.38718e-12 3.35725e-15 0 -9.01435e-12 3.14437e-15 0 -9.56518e-12 2.83112e-15 0 -1.00312e-11 2.44668e-15 0 -1.04113e-11 2.02044e-15 0 -1.07082e-11 1.57465e-15 0 -1.0926e-11 1.12304e-15 0 -1.10686e-11 6.72195e-16 0 -1.11392e-11 2.23697e-16 0 -1.11392e-11 -2.23697e-16 0 -1.10686e-11 -6.72195e-16 0 -1.0926e-11 -1.12304e-15 0 -1.07082e-11 -1.57465e-15 0 -1.04113e-11 -2.02044e-15 0 -1.00312e-11 -2.44668e-15 0 -9.56518e-12 -2.83112e-15 0 -9.01435e-12 -3.14437e-15 0 -8.38718e-12 -3.35725e-15 0 -7.70283e-12 -3.43963e-15 0 -6.99242e-12 -3.36111e-15 0 -6.29658e-12 -3.04892e-15 0 -5.66243e-12 -3.73068e-15 0 -5.04488e-12 -6.07267e-12 0 7.23792e-11 -1.61567e-08 0 4.46578e-06 0.00016145 0 3.36921e-06 -0.000132778 0 6.0859e-11 1.31014e-08 0 3.75957e-14 5.02206e-12 0 -5.41232e-14 5.68371e-16 0 -5.94808e-14 -7.28588e-16 0 -6.55487e-14 -7.72877e-16 0 -7.17833e-14 -7.67411e-16 0 -7.78289e-14 -7.22421e-16 0 -8.34143e-14 -6.496e-16 0 -8.83636e-14 -5.61842e-16 0 -9.25873e-14 -4.68482e-16 0 -9.60584e-14 -3.75567e-16 0 -9.87866e-14 -2.86006e-16 0 -1.00798e-13 -2.00567e-16 0 -1.0212e-13 -1.18735e-16 0 -1.02775e-13 -3.92981e-17 0 -1.02775e-13 3.92981e-17 0 -1.0212e-13 1.18735e-16 0 -1.00798e-13 2.00567e-16 0 -9.87866e-14 2.86006e-16 0 -9.60584e-14 3.75567e-16 0 -9.25873e-14 4.68482e-16 0 -8.83636e-14 5.61842e-16 0 -8.34143e-14 6.496e-16 0 -7.78289e-14 7.22421e-16 0 -7.17833e-14 7.67411e-16 0 -6.55487e-14 7.72877e-16 0 -5.94808e-14 7.28588e-16 0 -5.41232e-14 -5.68371e-16 0 3.75957e-14 -5.02206e-12 0 6.0859e-11 -1.31014e-08 0 3.36921e-06 0.000132778 0 2.67689e-06 -0.000110419 0 4.96178e-11 1.0803e-08 0 7.36871e-14 4.19027e-12 0 1.60702e-15 9.98971e-16 0 1.86522e-15 8.60851e-18 0 2.06546e-15 7.78628e-18 0 2.27033e-15 7.71281e-18 0 2.46815e-15 7.23834e-18 0 2.64997e-15 6.48525e-18 0 2.81018e-15 5.58832e-18 0 2.94615e-15 4.6437e-18 0 3.05736e-15 3.71174e-18 0 3.14441e-15 2.81991e-18 0 3.20839e-15 1.97403e-18 0 3.25035e-15 1.16726e-18 0 3.27111e-15 3.86104e-19 0 3.27111e-15 -3.86104e-19 0 3.25035e-15 -1.16726e-18 0 3.20839e-15 -1.97403e-18 0 3.14441e-15 -2.81991e-18 0 3.05736e-15 -3.71174e-18 0 2.94615e-15 -4.6437e-18 0 2.81018e-15 -5.58832e-18 0 2.64997e-15 -6.48525e-18 0 2.46815e-15 -7.23834e-18 0 2.27033e-15 -7.71281e-18 0 2.06546e-15 -7.78628e-18 0 1.86522e-15 -8.60851e-18 0 1.60702e-15 -9.98971e-16 0 7.36871e-14 -4.19027e-12 0 4.96178e-11 -1.0803e-08 0 2.67689e-06 0.000110419 0 2.21278e-06 -9.22167e-05 0 4.16429e-11 8.9739e-09 0 6.09755e-14 3.50641e-12 0 -7.09459e-17 8.27983e-16 0 -9.2171e-18 1.08769e-18 0 -1.02467e-17 5.76904e-20 0 -1.13132e-17 5.81239e-20 0 -1.23383e-17 5.49704e-20 0 -1.32749e-17 4.96956e-20 0 -1.40949e-17 4.3217e-20 0 -1.47865e-17 3.62155e-20 0 -1.53489e-17 2.91554e-20 0 -1.57871e-17 2.2277e-20 0 -1.6108e-17 1.56608e-20 0 -1.6318e-17 9.28622e-21 0 -1.64217e-17 3.07597e-21 0 -1.64217e-17 -3.07597e-21 0 -1.6318e-17 -9.28622e-21 0 -1.6108e-17 -1.56608e-20 0 -1.57871e-17 -2.2277e-20 0 -1.53489e-17 -2.91554e-20 0 -1.47865e-17 -3.62155e-20 0 -1.40949e-17 -4.3217e-20 0 -1.32749e-17 -4.96956e-20 0 -1.23383e-17 -5.49704e-20 0 -1.13132e-17 -5.81239e-20 0 -1.02467e-17 -5.76904e-20 0 -9.2171e-18 -1.08769e-18 0 -7.09459e-17 -8.27983e-16 0 6.09755e-14 -3.50641e-12 0 4.16429e-11 -8.9739e-09 0 2.21278e-06 9.22167e-05 0 1.88928e-06 -7.68855e-05 0 3.58959e-11 7.45563e-09 0 5.27967e-14 2.92712e-12 0 -5.3291e-17 6.89707e-16 0 -1.27067e-19 8.62753e-19 0 -1.23009e-19 -2.5651e-21 0 -1.34434e-19 -2.02679e-21 0 -1.45544e-19 -1.90658e-21 0 -1.55841e-19 -1.71302e-21 0 -1.64996e-19 -1.48036e-21 0 -1.72835e-19 -1.23339e-21 0 -1.79295e-19 -9.88094e-22 0 -1.84384e-19 -7.52044e-22 0 -1.88141e-19 -5.27163e-22 0 -1.90614e-19 -3.11993e-22 0 -1.9184e-19 -1.03246e-22 0 -1.9184e-19 1.03246e-22 0 -1.90614e-19 3.11993e-22 0 -1.88141e-19 5.27163e-22 0 -1.84384e-19 7.52044e-22 0 -1.79295e-19 9.88094e-22 0 -1.72835e-19 1.23339e-21 0 -1.64996e-19 1.48036e-21 0 -1.55841e-19 1.71302e-21 0 -1.45544e-19 1.90658e-21 0 -1.34434e-19 2.02679e-21 0 -1.23009e-19 2.5651e-21 0 -1.27067e-19 -8.62753e-19 0 -5.3291e-17 -6.89707e-16 0 5.27967e-14 -2.92712e-12 0 3.58959e-11 -7.45563e-09 0 1.88928e-06 7.68855e-05 0 1.65521e-06 -6.3604e-05 0 3.16468e-11 6.153e-09 0 4.66802e-14 2.42346e-12 0 -4.63762e-17 5.70224e-16 0 5.9233e-22 7.17156e-19 0 1.54682e-20 -5.34359e-22 0 1.70138e-20 -1.01931e-22 0 1.85036e-20 -9.58547e-23 0 1.98719e-20 -8.61575e-23 0 2.10767e-20 -7.44858e-23 0 2.20984e-20 -6.20826e-23 0 2.29334e-20 -4.97511e-23 0 2.35868e-20 -3.78753e-23 0 2.40667e-20 -2.65545e-23 0 2.43813e-20 -1.57178e-23 0 2.4537e-20 -5.20172e-24 0 2.4537e-20 5.20172e-24 0 2.43813e-20 1.57178e-23 0 2.40667e-20 2.65545e-23 0 2.35868e-20 3.78753e-23 0 2.29334e-20 4.97511e-23 0 2.20984e-20 6.20826e-23 0 2.10767e-20 7.44858e-23 0 1.98719e-20 8.61575e-23 0 1.85036e-20 9.58547e-23 0 1.70138e-20 1.01931e-22 0 1.54682e-20 5.34359e-22 0 5.9233e-22 -7.17156e-19 0 -4.63762e-17 -5.70224e-16 0 4.66802e-14 -2.42346e-12 0 3.16468e-11 -6.153e-09 0 1.65521e-06 6.3604e-05 0 1.48404e-06 -5.18168e-05 0 2.84922e-11 5.00445e-09 0 4.21069e-14 1.97544e-12 0 -4.146e-17 4.64349e-16 0 -1.10884e-20 5.85393e-19 0 1.0526e-21 -3.65411e-22 0 1.15904e-21 -1.40789e-23 0 1.26024e-21 -1.32056e-23 0 1.35322e-21 -1.18825e-23 0 1.43513e-21 -1.02842e-23 0 1.50463e-21 -8.58051e-24 0 1.56145e-21 -6.88217e-24 0 1.60593e-21 -5.24303e-24 0 1.6386e-21 -3.67781e-24 0 1.66003e-21 -2.17766e-24 0 1.67064e-21 -7.2081e-25 0 1.67064e-21 7.2081e-25 0 1.66003e-21 2.17766e-24 0 1.6386e-21 3.67781e-24 0 1.60593e-21 5.24303e-24 0 1.56145e-21 6.88217e-24 0 1.50463e-21 8.58051e-24 0 1.43513e-21 1.02842e-23 0 1.35322e-21 1.18825e-23 0 1.26024e-21 1.32056e-23 0 1.15904e-21 1.40789e-23 0 1.0526e-21 3.65411e-22 0 -1.10884e-20 -5.85393e-19 0 -4.146e-17 -4.64349e-16 0 4.21069e-14 -1.97544e-12 0 2.84922e-11 -5.00445e-09 0 1.48404e-06 5.18168e-05 0 1.35839e-06 -4.1129e-05 0 2.61524e-11 3.96767e-09 0 3.86988e-14 1.56857e-12 0 -3.78669e-17 3.68458e-16 0 -1.09835e-20 4.65249e-19 0 7.68059e-23 -2.79776e-22 0 8.6087e-23 -1.22339e-24 0 9.36124e-23 -1.11058e-24 0 1.00526e-22 -1.00192e-24 0 1.06614e-22 -8.69478e-25 0 1.11779e-22 -7.27221e-25 0 1.16002e-22 -5.84503e-25 0 1.19306e-22 -4.46032e-25 0 1.21733e-22 -3.13262e-25 0 1.23325e-22 -1.85636e-25 0 1.24113e-22 -6.14707e-26 0 1.24113e-22 6.14707e-26 0 1.23325e-22 1.85636e-25 0 1.21733e-22 3.13262e-25 0 1.19306e-22 4.46032e-25 0 1.16002e-22 5.84503e-25 0 1.11779e-22 7.27221e-25 0 1.06614e-22 8.69478e-25 0 1.00526e-22 1.00192e-24 0 9.36124e-23 1.11058e-24 0 8.6087e-23 1.22339e-24 0 7.68059e-23 2.79776e-22 0 -1.09835e-20 -4.65249e-19 0 -3.78669e-17 -3.68458e-16 0 3.86988e-14 -1.56857e-12 0 2.61524e-11 -3.96767e-09 0 1.35839e-06 4.1129e-05 0 1.26736e-06 -3.12461e-05 0 2.44454e-11 3.01188e-09 0 3.62043e-14 1.19197e-12 0 -3.52755e-17 2.79859e-16 0 -1.03274e-20 3.53763e-19 0 6.3717e-24 -2.1154e-22 0 8.54604e-24 -5.75109e-26 0 9.30399e-24 -2.10813e-26 0 9.99826e-24 -1.9554e-26 0 1.06083e-23 -1.74574e-26 0 1.11248e-23 -1.4975e-26 0 1.15461e-23 -1.2291e-26 0 1.18754e-23 -9.53393e-27 0 1.21169e-23 -6.77634e-27 0 1.22752e-23 -4.04694e-27 0 1.23534e-23 -1.34528e-27 0 1.23534e-23 1.34528e-27 0 1.22752e-23 4.04694e-27 0 1.21169e-23 6.77634e-27 0 1.18754e-23 9.53393e-27 0 1.15461e-23 1.2291e-26 0 1.11248e-23 1.4975e-26 0 1.06083e-23 1.74574e-26 0 9.99826e-24 1.9554e-26 0 9.30399e-24 2.10813e-26 0 8.54604e-24 5.75109e-26 0 6.3717e-24 2.1154e-22 0 -1.03274e-20 -3.53763e-19 0 -3.52755e-17 -2.79859e-16 0 3.62043e-14 -1.19197e-12 0 2.44454e-11 -3.01188e-09 0 1.26736e-06 3.12461e-05 0 1.20399e-06 -2.19378e-05 0 2.32512e-11 2.11349e-09 0 3.44553e-14 8.37018e-13 0 -3.34772e-17 1.96458e-16 0 -9.82878e-21 2.48521e-19 0 6.07958e-25 -1.48429e-22 0 2.1235e-24 -1.06472e-26 0 2.31214e-24 1.35327e-26 0 2.48449e-24 1.2099e-26 0 2.63597e-24 1.03915e-26 0 2.76423e-24 8.60849e-27 0 2.8689e-24 6.86256e-27 0 2.95069e-24 5.2025e-27 0 3.01072e-24 3.63607e-27 0 3.05005e-24 2.14774e-27 0 3.0695e-24 7.10045e-28 0 3.0695e-24 -7.10045e-28 0 3.05005e-24 -2.14774e-27 0 3.01072e-24 -3.63607e-27 0 2.95069e-24 -5.2025e-27 0 2.8689e-24 -6.86256e-27 0 2.76423e-24 -8.60849e-27 0 2.63597e-24 -1.03915e-26 0 2.48449e-24 -1.2099e-26 0 2.31214e-24 -1.35327e-26 0 2.1235e-24 1.06472e-26 0 6.07958e-25 1.48429e-22 0 -9.82878e-21 -2.48521e-19 0 -3.34772e-17 -1.96458e-16 0 3.44553e-14 -8.37018e-13 0 2.32512e-11 -2.11349e-09 0 1.20399e-06 2.19378e-05 0 1.16385e-06 -1.30149e-05 0 2.24924e-11 1.25345e-09 0 3.33426e-14 4.96626e-13 0 -3.23405e-17 1.16541e-16 0 -9.50987e-21 1.47491e-19 0 -7.78774e-25 -8.80401e-23 0 5.4851e-25 -1.15413e-26 0 5.97373e-25 3.15318e-27 0 6.41609e-25 2.83469e-27 0 6.80547e-25 2.44449e-27 0 7.13561e-25 2.03268e-27 0 7.40535e-25 1.62567e-27 0 7.61636e-25 1.23564e-27 0 7.77132e-25 8.65275e-28 0 7.87291e-25 5.11756e-28 0 7.92317e-25 1.69297e-28 0 7.92317e-25 -1.69297e-28 0 7.87291e-25 -5.11756e-28 0 7.77132e-25 -8.65275e-28 0 7.61636e-25 -1.23564e-27 0 7.40535e-25 -1.62567e-27 0 7.13561e-25 -2.03268e-27 0 6.80547e-25 -2.44449e-27 0 6.41609e-25 -2.83469e-27 0 5.97373e-25 -3.15318e-27 0 5.4851e-25 1.15413e-26 0 -7.78774e-25 8.80401e-23 0 -9.50987e-21 -1.47491e-19 0 -3.23405e-17 -1.16541e-16 0 3.33426e-14 -4.96626e-13 0 2.24924e-11 -1.25345e-09 0 1.16385e-06 1.30149e-05 0 1.14433e-06 -4.31413e-06 0 2.21226e-11 4.15422e-10 0 3.27998e-14 1.64627e-13 0 -3.17883e-17 3.86286e-17 0 -9.35415e-21 4.88981e-20 0 -1.14635e-24 -2.91801e-23 0 1.20902e-25 -4.51756e-27 0 1.32154e-25 3.96621e-28 0 1.41876e-25 3.58603e-28 0 1.50447e-25 3.09698e-28 0 1.57724e-25 2.57876e-28 0 1.63677e-25 2.06482e-28 0 1.68338e-25 1.57089e-28 0 1.71763e-25 1.10081e-28 0 1.7401e-25 6.51358e-29 0 1.75122e-25 2.15529e-29 0 1.75122e-25 -2.15529e-29 0 1.7401e-25 -6.51358e-29 0 1.71763e-25 -1.10081e-28 0 1.68338e-25 -1.57089e-28 0 1.63677e-25 -2.06482e-28 0 1.57724e-25 -2.57876e-28 0 1.50447e-25 -3.09698e-28 0 1.41876e-25 -3.58603e-28 0 1.32154e-25 -3.96621e-28 0 1.20902e-25 4.51756e-27 0 -1.14635e-24 2.91801e-23 0 -9.35415e-21 -4.88981e-20 0 -3.17883e-17 -3.86286e-17 0 3.27998e-14 -1.64627e-13 0 2.21226e-11 -4.15422e-10 0 1.14433e-06 4.31413e-06 0 1.14433e-06 4.31413e-06 0 2.21226e-11 -4.15422e-10 0 3.27998e-14 -1.64627e-13 0 -3.17883e-17 -3.86286e-17 0 -9.35415e-21 -4.88981e-20 0 -1.14635e-24 2.91801e-23 0 1.20902e-25 4.51756e-27 0 1.32154e-25 -3.96621e-28 0 1.41876e-25 -3.58603e-28 0 1.50447e-25 -3.09698e-28 0 1.57724e-25 -2.57876e-28 0 1.63677e-25 -2.06482e-28 0 1.68338e-25 -1.57089e-28 0 1.71763e-25 -1.10081e-28 0 1.7401e-25 -6.51358e-29 0 1.75122e-25 -2.15529e-29 0 1.75122e-25 2.15529e-29 0 1.7401e-25 6.51358e-29 0 1.71763e-25 1.10081e-28 0 1.68338e-25 1.57089e-28 0 1.63677e-25 2.06482e-28 0 1.57724e-25 2.57876e-28 0 1.50447e-25 3.09698e-28 0 1.41876e-25 3.58603e-28 0 1.32154e-25 3.96621e-28 0 1.20902e-25 -4.51756e-27 0 -1.14635e-24 -2.91801e-23 0 -9.35415e-21 4.88981e-20 0 -3.17883e-17 3.86286e-17 0 3.27998e-14 1.64627e-13 0 2.21226e-11 4.15422e-10 0 1.14433e-06 -4.31413e-06 0 1.16385e-06 1.30149e-05 0 2.24924e-11 -1.25345e-09 0 3.33426e-14 -4.96626e-13 0 -3.23405e-17 -1.16541e-16 0 -9.50987e-21 -1.47491e-19 0 -7.78774e-25 8.80401e-23 0 5.4851e-25 1.15413e-26 0 5.97373e-25 -3.15318e-27 0 6.41609e-25 -2.83469e-27 0 6.80547e-25 -2.44449e-27 0 7.13561e-25 -2.03268e-27 0 7.40535e-25 -1.62567e-27 0 7.61636e-25 -1.23564e-27 0 7.77132e-25 -8.65275e-28 0 7.87291e-25 -5.11756e-28 0 7.92317e-25 -1.69297e-28 0 7.92317e-25 1.69297e-28 0 7.87291e-25 5.11756e-28 0 7.77132e-25 8.65275e-28 0 7.61636e-25 1.23564e-27 0 7.40535e-25 1.62567e-27 0 7.13561e-25 2.03268e-27 0 6.80547e-25 2.44449e-27 0 6.41609e-25 2.83469e-27 0 5.97373e-25 3.15318e-27 0 5.4851e-25 -1.15413e-26 0 -7.78774e-25 -8.80401e-23 0 -9.50987e-21 1.47491e-19 0 -3.23405e-17 1.16541e-16 0 3.33426e-14 4.96626e-13 0 2.24924e-11 1.25345e-09 0 1.16385e-06 -1.30149e-05 0 1.20399e-06 2.19378e-05 0 2.32512e-11 -2.11349e-09 0 3.44553e-14 -8.37018e-13 0 -3.34772e-17 -1.96458e-16 0 -9.82878e-21 -2.48521e-19 0 6.07958e-25 1.48429e-22 0 2.1235e-24 1.06472e-26 0 2.31214e-24 -1.35327e-26 0 2.48449e-24 -1.2099e-26 0 2.63597e-24 -1.03915e-26 0 2.76423e-24 -8.60849e-27 0 2.8689e-24 -6.86256e-27 0 2.95069e-24 -5.2025e-27 0 3.01072e-24 -3.63607e-27 0 3.05005e-24 -2.14774e-27 0 3.0695e-24 -7.10045e-28 0 3.0695e-24 7.10045e-28 0 3.05005e-24 2.14774e-27 0 3.01072e-24 3.63607e-27 0 2.95069e-24 5.2025e-27 0 2.8689e-24 6.86256e-27 0 2.76423e-24 8.60849e-27 0 2.63597e-24 1.03915e-26 0 2.48449e-24 1.2099e-26 0 2.31214e-24 1.35327e-26 0 2.1235e-24 -1.06472e-26 0 6.07958e-25 -1.48429e-22 0 -9.82878e-21 2.48521e-19 0 -3.34772e-17 1.96458e-16 0 3.44553e-14 8.37018e-13 0 2.32512e-11 2.11349e-09 0 1.20399e-06 -2.19378e-05 0 1.26736e-06 3.12461e-05 0 2.44454e-11 -3.01188e-09 0 3.62043e-14 -1.19197e-12 0 -3.52755e-17 -2.79859e-16 0 -1.03274e-20 -3.53763e-19 0 6.3717e-24 2.1154e-22 0 8.54604e-24 5.75109e-26 0 9.30399e-24 2.10813e-26 0 9.99826e-24 1.9554e-26 0 1.06083e-23 1.74574e-26 0 1.11248e-23 1.4975e-26 0 1.15461e-23 1.2291e-26 0 1.18754e-23 9.53393e-27 0 1.21169e-23 6.77634e-27 0 1.22752e-23 4.04694e-27 0 1.23534e-23 1.34528e-27 0 1.23534e-23 -1.34528e-27 0 1.22752e-23 -4.04694e-27 0 1.21169e-23 -6.77634e-27 0 1.18754e-23 -9.53393e-27 0 1.15461e-23 -1.2291e-26 0 1.11248e-23 -1.4975e-26 0 1.06083e-23 -1.74574e-26 0 9.99826e-24 -1.9554e-26 0 9.30399e-24 -2.10813e-26 0 8.54604e-24 -5.75109e-26 0 6.3717e-24 -2.1154e-22 0 -1.03274e-20 3.53763e-19 0 -3.52755e-17 2.79859e-16 0 3.62043e-14 1.19197e-12 0 2.44454e-11 3.01188e-09 0 1.26736e-06 -3.12461e-05 0 1.35839e-06 4.1129e-05 0 2.61524e-11 -3.96767e-09 0 3.86988e-14 -1.56857e-12 0 -3.78669e-17 -3.68458e-16 0 -1.09835e-20 -4.65249e-19 0 7.68059e-23 2.79776e-22 0 8.6087e-23 1.22339e-24 0 9.36124e-23 1.11058e-24 0 1.00526e-22 1.00192e-24 0 1.06614e-22 8.69478e-25 0 1.11779e-22 7.27221e-25 0 1.16002e-22 5.84503e-25 0 1.19306e-22 4.46032e-25 0 1.21733e-22 3.13262e-25 0 1.23325e-22 1.85636e-25 0 1.24113e-22 6.14707e-26 0 1.24113e-22 -6.14707e-26 0 1.23325e-22 -1.85636e-25 0 1.21733e-22 -3.13262e-25 0 1.19306e-22 -4.46032e-25 0 1.16002e-22 -5.84503e-25 0 1.11779e-22 -7.27221e-25 0 1.06614e-22 -8.69478e-25 0 1.00526e-22 -1.00192e-24 0 9.36124e-23 -1.11058e-24 0 8.6087e-23 -1.22339e-24 0 7.68059e-23 -2.79776e-22 0 -1.09835e-20 4.65249e-19 0 -3.78669e-17 3.68458e-16 0 3.86988e-14 1.56857e-12 0 2.61524e-11 3.96767e-09 0 1.35839e-06 -4.1129e-05 0 1.48404e-06 5.18168e-05 0 2.84922e-11 -5.00445e-09 0 4.21069e-14 -1.97544e-12 0 -4.146e-17 -4.64349e-16 0 -1.10884e-20 -5.85393e-19 0 1.0526e-21 3.65411e-22 0 1.15904e-21 1.40789e-23 0 1.26024e-21 1.32056e-23 0 1.35322e-21 1.18825e-23 0 1.43513e-21 1.02842e-23 0 1.50463e-21 8.58051e-24 0 1.56145e-21 6.88217e-24 0 1.60593e-21 5.24303e-24 0 1.6386e-21 3.67781e-24 0 1.66003e-21 2.17766e-24 0 1.67064e-21 7.2081e-25 0 1.67064e-21 -7.2081e-25 0 1.66003e-21 -2.17766e-24 0 1.6386e-21 -3.67781e-24 0 1.60593e-21 -5.24303e-24 0 1.56145e-21 -6.88217e-24 0 1.50463e-21 -8.58051e-24 0 1.43513e-21 -1.02842e-23 0 1.35322e-21 -1.18825e-23 0 1.26024e-21 -1.32056e-23 0 1.15904e-21 -1.40789e-23 0 1.0526e-21 -3.65411e-22 0 -1.10884e-20 5.85393e-19 0 -4.146e-17 4.64349e-16 0 4.21069e-14 1.97544e-12 0 2.84922e-11 5.00445e-09 0 1.48404e-06 -5.18168e-05 0 1.65521e-06 6.3604e-05 0 3.16468e-11 -6.153e-09 0 4.66802e-14 -2.42346e-12 0 -4.63762e-17 -5.70224e-16 0 5.9233e-22 -7.17156e-19 0 1.54682e-20 5.34359e-22 0 1.70138e-20 1.01931e-22 0 1.85036e-20 9.58547e-23 0 1.98719e-20 8.61575e-23 0 2.10767e-20 7.44858e-23 0 2.20984e-20 6.20826e-23 0 2.29334e-20 4.97511e-23 0 2.35868e-20 3.78753e-23 0 2.40667e-20 2.65545e-23 0 2.43813e-20 1.57178e-23 0 2.4537e-20 5.20172e-24 0 2.4537e-20 -5.20172e-24 0 2.43813e-20 -1.57178e-23 0 2.40667e-20 -2.65545e-23 0 2.35868e-20 -3.78753e-23 0 2.29334e-20 -4.97511e-23 0 2.20984e-20 -6.20826e-23 0 2.10767e-20 -7.44858e-23 0 1.98719e-20 -8.61575e-23 0 1.85036e-20 -9.58547e-23 0 1.70138e-20 -1.01931e-22 0 1.54682e-20 -5.34359e-22 0 5.9233e-22 7.17156e-19 0 -4.63762e-17 5.70224e-16 0 4.66802e-14 2.42346e-12 0 3.16468e-11 6.153e-09 0 1.65521e-06 -6.3604e-05 0 1.88928e-06 7.68855e-05 0 3.58959e-11 -7.45563e-09 0 5.27967e-14 -2.92712e-12 0 -5.3291e-17 -6.89707e-16 0 -1.27067e-19 -8.62753e-19 0 -1.23009e-19 2.5651e-21 0 -1.34434e-19 2.02679e-21 0 -1.45544e-19 1.90658e-21 0 -1.55841e-19 1.71302e-21 0 -1.64996e-19 1.48036e-21 0 -1.72835e-19 1.23339e-21 0 -1.79295e-19 9.88094e-22 0 -1.84384e-19 7.52044e-22 0 -1.88141e-19 5.27163e-22 0 -1.90614e-19 3.11993e-22 0 -1.9184e-19 1.03246e-22 0 -1.9184e-19 -1.03246e-22 0 -1.90614e-19 -3.11993e-22 0 -1.88141e-19 -5.27163e-22 0 -1.84384e-19 -7.52044e-22 0 -1.79295e-19 -9.88094e-22 0 -1.72835e-19 -1.23339e-21 0 -1.64996e-19 -1.48036e-21 0 -1.55841e-19 -1.71302e-21 0 -1.45544e-19 -1.90658e-21 0 -1.34434e-19 -2.02679e-21 0 -1.23009e-19 -2.5651e-21 0 -1.27067e-19 8.62753e-19 0 -5.3291e-17 6.89707e-16 0 5.27967e-14 2.92712e-12 0 3.58959e-11 7.45563e-09 0 1.88928e-06 -7.68855e-05 0 2.21278e-06 9.22167e-05 0 4.16429e-11 -8.9739e-09 0 6.09755e-14 -3.50641e-12 0 -7.09459e-17 -8.27983e-16 0 -9.2171e-18 -1.08769e-18 0 -1.02467e-17 -5.76904e-20 0 -1.13132e-17 -5.81239e-20 0 -1.23383e-17 -5.49704e-20 0 -1.32749e-17 -4.96956e-20 0 -1.40949e-17 -4.3217e-20 0 -1.47865e-17 -3.62155e-20 0 -1.53489e-17 -2.91554e-20 0 -1.57871e-17 -2.2277e-20 0 -1.6108e-17 -1.56608e-20 0 -1.6318e-17 -9.28622e-21 0 -1.64217e-17 -3.07597e-21 0 -1.64217e-17 3.07597e-21 0 -1.6318e-17 9.28622e-21 0 -1.6108e-17 1.56608e-20 0 -1.57871e-17 2.2277e-20 0 -1.53489e-17 2.91554e-20 0 -1.47865e-17 3.62155e-20 0 -1.40949e-17 4.3217e-20 0 -1.32749e-17 4.96956e-20 0 -1.23383e-17 5.49704e-20 0 -1.13132e-17 5.81239e-20 0 -1.02467e-17 5.76904e-20 0 -9.2171e-18 1.08769e-18 0 -7.09459e-17 8.27983e-16 0 6.09755e-14 3.50641e-12 0 4.16429e-11 8.9739e-09 0 2.21278e-06 -9.22167e-05 0 2.67689e-06 0.000110419 0 4.96178e-11 -1.0803e-08 0 7.36871e-14 -4.19027e-12 0 1.60702e-15 -9.98971e-16 0 1.86522e-15 -8.60851e-18 0 2.06546e-15 -7.78628e-18 0 2.27033e-15 -7.71281e-18 0 2.46815e-15 -7.23834e-18 0 2.64997e-15 -6.48525e-18 0 2.81018e-15 -5.58832e-18 0 2.94615e-15 -4.6437e-18 0 3.05736e-15 -3.71174e-18 0 3.14441e-15 -2.81991e-18 0 3.20839e-15 -1.97403e-18 0 3.25035e-15 -1.16726e-18 0 3.27111e-15 -3.86104e-19 0 3.27111e-15 3.86104e-19 0 3.25035e-15 1.16726e-18 0 3.20839e-15 1.97403e-18 0 3.14441e-15 2.81991e-18 0 3.05736e-15 3.71174e-18 0 2.94615e-15 4.6437e-18 0 2.81018e-15 5.58832e-18 0 2.64997e-15 6.48525e-18 0 2.46815e-15 7.23834e-18 0 2.27033e-15 7.71281e-18 0 2.06546e-15 7.78628e-18 0 1.86522e-15 8.60851e-18 0 1.60702e-15 9.98971e-16 0 7.36871e-14 4.19027e-12 0 4.96178e-11 1.0803e-08 0 2.67689e-06 -0.000110419 0 3.36921e-06 0.000132778 0 6.0859e-11 -1.31014e-08 0 3.75957e-14 -5.02206e-12 0 -5.41232e-14 -5.68371e-16 0 -5.94808e-14 7.28588e-16 0 -6.55487e-14 7.72877e-16 0 -7.17833e-14 7.67411e-16 0 -7.78289e-14 7.22421e-16 0 -8.34143e-14 6.496e-16 0 -8.83636e-14 5.61842e-16 0 -9.25873e-14 4.68482e-16 0 -9.60584e-14 3.75567e-16 0 -9.87866e-14 2.86006e-16 0 -1.00798e-13 2.00567e-16 0 -1.0212e-13 1.18735e-16 0 -1.02775e-13 3.92981e-17 0 -1.02775e-13 -3.92981e-17 0 -1.0212e-13 -1.18735e-16 0 -1.00798e-13 -2.00567e-16 0 -9.87866e-14 -2.86006e-16 0 -9.60584e-14 -3.75567e-16 0 -9.25873e-14 -4.68482e-16 0 -8.83636e-14 -5.61842e-16 0 -8.34143e-14 -6.496e-16 0 -7.78289e-14 -7.22421e-16 0 -7.17833e-14 -7.67411e-16 0 -6.55487e-14 -7.72877e-16 0 -5.94808e-14 -7.28588e-16 0 -5.41232e-14 5.68371e-16 0 3.75957e-14 5.02206e-12 0 6.0859e-11 1.31014e-08 0 3.36921e-06 -0.000132778 0 4.46578e-06 0.00016145 0 7.23792e-11 -1.61567e-08 0 -5.04488e-12 -6.07267e-12 0 -5.66243e-12 -3.73068e-15 0 -6.29658e-12 -3.04892e-15 0 -6.99242e-12 -3.36111e-15 0 -7.70283e-12 -3.43963e-15 0 -8.38718e-12 -3.35725e-15 0 -9.01435e-12 -3.14437e-15 0 -9.56518e-12 -2.83112e-15 0 -1.00312e-11 -2.44668e-15 0 -1.04113e-11 -2.02044e-15 0 -1.07082e-11 -1.57465e-15 0 -1.0926e-11 -1.12304e-15 0 -1.10686e-11 -6.72195e-16 0 -1.11392e-11 -2.23697e-16 0 -1.11392e-11 2.23697e-16 0 -1.10686e-11 6.72195e-16 0 -1.0926e-11 1.12304e-15 0 -1.07082e-11 1.57465e-15 0 -1.04113e-11 2.02044e-15 0 -1.00312e-11 2.44668e-15 0 -9.56518e-12 2.83112e-15 0 -9.01435e-12 3.14437e-15 0 -8.38718e-12 3.35725e-15 0 -7.70283e-12 3.43963e-15 0 -6.99242e-12 3.36111e-15 0 -6.29658e-12 3.04892e-15 0 -5.66243e-12 3.73068e-15 0 -5.04488e-12 6.07267e-12 0 7.23792e-11 1.61567e-08 0 4.46578e-06 -0.00016145 0 6.3595e-06 0.000200363 0 6.76092e-10 -2.05527e-08 0 5.88619e-10 -9.69722e-12 0 6.42199e-10 -3.2928e-12 0 7.10852e-10 -3.80481e-12 0 7.86616e-10 -4.01975e-12 0 8.64183e-10 -3.98506e-12 0 9.39122e-10 -3.74409e-12 0 1.00804e-09 -3.35897e-12 0 1.06882e-09 -2.89836e-12 0 1.12043e-09 -2.41151e-12 0 1.16267e-09 -1.92965e-12 0 1.19576e-09 -1.46731e-12 0 1.22009e-09 -1.02785e-12 0 1.23605e-09 -6.0804e-13 0 1.24395e-09 -2.01171e-13 0 1.24395e-09 2.01171e-13 0 1.23605e-09 6.0804e-13 0 1.22009e-09 1.02785e-12 0 1.19576e-09 1.46731e-12 0 1.16267e-09 1.92965e-12 0 1.12043e-09 2.41151e-12 0 1.06882e-09 2.89836e-12 0 1.00804e-09 3.35897e-12 0 9.39122e-10 3.74409e-12 0 8.64183e-10 3.98506e-12 0 7.86616e-10 4.01975e-12 0 7.10852e-10 3.80481e-12 0 6.42199e-10 3.2928e-12 0 5.88619e-10 9.69722e-12 0 6.76092e-10 2.05527e-08 0 6.3595e-06 -0.000200363 0 1.00513e-05 0.000257488 0 -4.6836e-09 -2.78123e-08 0 -4.59561e-09 1.24799e-10 0 -4.81469e-09 2.06801e-10 0 -5.17579e-09 2.41237e-10 0 -5.59586e-09 2.55605e-10 0 -6.03634e-09 2.53964e-10 0 -6.47236e-09 2.39266e-10 0 -6.88521e-09 2.15351e-10 0 -7.26073e-09 1.86442e-10 0 -7.5892e-09 1.55608e-10 0 -7.86498e-09 1.24848e-10 0 -8.08552e-09 9.51396e-11 0 -8.25025e-09 6.6752e-11 0 -8.35953e-09 3.95304e-11 0 -8.41397e-09 1.30857e-11 0 -8.41397e-09 -1.30857e-11 0 -8.35953e-09 -3.95304e-11 0 -8.25025e-09 -6.6752e-11 0 -8.08552e-09 -9.51396e-11 0 -7.86498e-09 -1.24848e-10 0 -7.5892e-09 -1.55608e-10 0 -7.26073e-09 -1.86442e-10 0 -6.88521e-09 -2.15351e-10 0 -6.47236e-09 -2.39266e-10 0 -6.03634e-09 -2.53964e-10 0 -5.59586e-09 -2.55605e-10 0 -5.17579e-09 -2.41237e-10 0 -4.81469e-09 -2.06801e-10 0 -4.59561e-09 -1.24799e-10 0 -4.6836e-09 2.78123e-08 0 1.00513e-05 -0.000257488 0 1.85806e-05 0.000353904 0 -2.81217e-06 -4.16509e-08 0 -2.90471e-06 4.24514e-09 0 -3.18213e-06 5.68644e-09 0 -3.53156e-06 6.45084e-09 0 -3.91588e-06 6.77238e-09 0 -4.3087e-06 6.68103e-09 0 -4.68757e-06 6.23853e-09 0 -5.0353e-06 5.5561e-09 0 -5.34121e-06 4.75781e-09 0 -5.60046e-06 3.93036e-09 0 -5.81221e-06 3.12551e-09 0 -5.97779e-06 2.36468e-09 0 -6.09937e-06 1.65018e-09 0 -6.17907e-06 9.73731e-10 0 -6.21849e-06 3.21752e-10 0 -6.21849e-06 -3.21752e-10 0 -6.17907e-06 -9.73731e-10 0 -6.09937e-06 -1.65018e-09 0 -5.97779e-06 -2.36468e-09 0 -5.81221e-06 -3.12551e-09 0 -5.60046e-06 -3.93036e-09 0 -5.34121e-06 -4.75781e-09 0 -5.0353e-06 -5.5561e-09 0 -4.68757e-06 -6.23853e-09 0 -4.3087e-06 -6.68103e-09 0 -3.91588e-06 -6.77238e-09 0 -3.53156e-06 -6.45084e-09 0 -3.18213e-06 -5.68644e-09 0 -2.90471e-06 -4.24514e-09 0 -2.81217e-06 4.16509e-08 0 1.85806e-05 -0.000353904 0 2.28744e-05 9.43467e-05 0 0.000200616 6.22607e-07 0 0.000205525 -9.83978e-07 0 0.00022403 -1.45991e-06 0 0.000247756 -1.6916e-06 0 0.000273966 -1.78852e-06 0 0.000300814 -1.77411e-06 0 0.000326766 -1.668e-06 0 0.00035065 -1.49767e-06 0 0.000371726 -1.29343e-06 0 0.000389639 -1.07705e-06 0 0.00040431 -8.6246e-07 0 0.000415808 -6.56201e-07 0 0.000424265 -4.59869e-07 0 0.000429815 -2.72124e-07 0 0.000432563 -9.00458e-08 0 0.000432563 9.00458e-08 0 0.000429815 2.72124e-07 0 0.000424265 4.59869e-07 0 0.000415808 6.56201e-07 0 0.00040431 8.6246e-07 0 0.000389639 1.07705e-06 0 0.000371726 1.29343e-06 0 0.00035065 1.49767e-06 0 0.000326766 1.668e-06 0 0.000300814 1.77411e-06 0 0.000273966 1.78852e-06 0 0.000247756 1.6916e-06 0 0.00022403 1.45991e-06 0 0.000205525 9.83978e-07 0 0.000200616 -6.22607e-07 0 2.28744e-05 -9.43467e-05 0 </DataArray> 
</PointData> 
<Points> 
<DataArray type="Float32" NumberOfComponents="3"> 