<?xml version="1.0"?> 
<VTKFile type="StructuredGrid" version="0.1"> 
<StructuredGrid WholeExtent="0 31 0 31 0 0"> 
<Piece Extent="0 31 0 31 0 0"> 
<PointData>
<DataArray type="Float32" Name="B" format="ascii" NumberOfComponents="3"> 
6.55235e-05 6.37579e-05 0 3.00279e-05 1.92591e-05 0 2.46275e-05 8.81422e-06 0 2.13676e-05 3.55698e-06 0 1.89452e-05 4.79404e-07 0 1.69926e-05 -1.40932e-06 0 1.5348e-05 -2.57565e-06 0 1.39234e-05 -3.27538e-06 0 1.26652e-05 -3.66113e-06 0 1.15383e-05 -3.84543e-06 0 1.05193e-05 -3.8919e-06 0 9.59072e-06 -3.83941e-06 0 8.7403e-06 -3.73247e-06 0 7.95846e-06 -3.58737e-06 0 7.23731e-06 -3.42178e-06 0 6.57053e-06 -3.24736e-06 0 5.95258e-06 -3.07118e-06 0 5.37859e-06 -2.89869e-06 0 4.84425e-06 -2.73338e-06 0 4.34553e-06 -2.57848e-06 0 3.8788e-06 -2.43403e-06 0 3.44066e-06 -2.30239e-06 0 3.02787e-06 -2.18344e-06 0 2.63745e-06 -2.07645e-06 0 2.26654e-06 -1.98396e-06 0 1.9124e-06 -1.90347e-06 0 1.57246e-06 -1.83557e-06 0 1.24417e-06 -1.78103e-06 0 9.25114e-07 -1.73799e-06 0 6.12958e-07 -1.70791e-06 0 3.05336e-07 -1.68993e-06 0 0 -1.68314e-06 0 1.0699e-05 5.34657e-05 0 2.44998e-05 2.08563e-05 0 2.22255e-05 9.86463e-06 0 2.00247e-05 4.35606e-06 0 1.81305e-05 1.13134e-06 0 1.64865e-05 -8.55973e-07 0 1.50369e-05 -2.09367e-06 0 1.37403e-05 -2.8478e-06 0 1.25678e-05 -3.27661e-06 0 1.14984e-05 -3.49656e-06 0 1.05177e-05 -3.5733e-06 0 9.61431e-06 -3.54678e-06 0 8.77989e-06 -3.46297e-06 0 8.0076e-06 -3.33841e-06 0 7.29152e-06 -3.19129e-06 0 6.62668e-06 -3.03369e-06 0 6.00852e-06 -2.87257e-06 0 5.43282e-06 -2.71379e-06 0 4.89578e-06 -2.56092e-06 0 4.39372e-06 -2.41714e-06 0 3.92323e-06 -2.28275e-06 0 3.4811e-06 -2.16005e-06 0 3.06419e-06 -2.04902e-06 0 2.66961e-06 -1.94905e-06 0 2.29453e-06 -1.86255e-06 0 1.93626e-06 -1.78723e-06 0 1.59223e-06 -1.72366e-06 0 1.25991e-06 -1.67258e-06 0 9.36875e-07 -1.63226e-06 0 6.20775e-07 -1.60408e-06 0 3.09237e-07 -1.58722e-06 0 0 -1.58086e-06 0 4.38593e-06 3.79093e-05 0 1.92934e-05 2.05514e-05 0 1.97953e-05 1.03865e-05 0 1.86471e-05 4.91693e-06 0 1.72881e-05 1.65094e-06 0 1.59591e-05 -3.84079e-07 0 1.47089e-05 -1.66448e-06 0 1.35436e-05 -2.45531e-06 0 1.24589e-05 -2.91574e-06 0 1.14487e-05 -3.16355e-06 0 1.05075e-05 -3.26517e-06 0 9.63026e-06 -3.26099e-06 0 8.8126e-06 -3.19771e-06 0 8.0505e-06 -3.0919e-06 0 7.34006e-06 -2.96201e-06 0 6.67766e-06 -2.82033e-06 0 6.05973e-06 -2.67368e-06 0 5.48276e-06 -2.52822e-06 0 4.94343e-06 -2.38749e-06 0 4.43841e-06 -2.25467e-06 0 3.96452e-06 -2.13024e-06 0 3.51874e-06 -2.0164e-06 0 3.09803e-06 -1.91326e-06 0 2.6996e-06 -1.82031e-06 0 2.32066e-06 -1.73981e-06 0 1.95854e-06 -1.66967e-06 0 1.61071e-06 -1.61045e-06 0 1.27462e-06 -1.56284e-06 0 9.47868e-07 -1.52525e-06 0 6.28082e-07 -1.49898e-06 0 3.12884e-07 -1.48326e-06 0 0 -1.47733e-06 0 2.26013e-06 2.90574e-05 0 1.51174e-05 1.90534e-05 0 1.74916e-05 1.04292e-05 0 1.72857e-05 5.24575e-06 0 1.6441e-05 2.03854e-06 0 1.54226e-05 5.7351e-09 0 1.43715e-05 -1.28876e-06 0 1.33379e-05 -2.09849e-06 0 1.23417e-05 -2.57896e-06 0 1.13913e-05 -2.84672e-06 0 1.04902e-05 -2.9678e-06 0 9.63961e-06 -2.98228e-06 0 8.83916e-06 -2.93689e-06 0 8.08767e-06 -2.84801e-06 0 7.38327e-06 -2.73408e-06 0 6.72371e-06 -2.60743e-06 0 6.1064e-06 -2.47466e-06 0 5.52854e-06 -2.34209e-06 0 4.98728e-06 -2.21324e-06 0 4.47964e-06 -2.09118e-06 0 4.0027e-06 -1.97659e-06 0 3.55359e-06 -1.87157e-06 0 3.12941e-06 -1.77628e-06 0 2.72743e-06 -1.69033e-06 0 2.34492e-06 -1.61583e-06 0 1.97924e-06 -1.55088e-06 0 1.62788e-06 -1.49602e-06 0 1.2883e-06 -1.4519e-06 0 9.5809e-07 -1.41706e-06 0 6.34878e-07 -1.39269e-06 0 3.16276e-07 -1.37812e-06 0 0 -1.37262e-06 0 1.38075e-06 2.32296e-05 0 1.2018e-05 1.70718e-05 0 1.54187e-05 1.00921e-05 0 1.59848e-05 5.3627e-06 0 1.56106e-05 2.29946e-06 0 1.48889e-05 3.15061e-07 0 1.40319e-05 -9.66026e-07 0 1.3128e-05 -1.77722e-06 0 1.22194e-05 -2.26628e-06 0 1.13284e-05 -2.54615e-06 0 1.04673e-05 -2.68124e-06 0 9.64338e-06 -2.71073e-06 0 8.86026e-06 -2.6806e-06 0 8.11959e-06 -2.60686e-06 0 7.42149e-06 -2.50763e-06 0 6.76506e-06 -2.39511e-06 0 6.14869e-06 -2.27561e-06 0 5.57025e-06 -2.15552e-06 0 5.02738e-06 -2.03826e-06 0 4.51745e-06 -1.9268e-06 0 4.03779e-06 -1.82193e-06 0 3.58567e-06 -1.72565e-06 0 3.15832e-06 -1.63818e-06 0 2.75309e-06 -1.55922e-06 0 2.36731e-06 -1.49071e-06 0 1.99836e-06 -1.43096e-06 0 1.64375e-06 -1.38046e-06 0 1.30094e-06 -1.33984e-06 0 9.67537e-07 -1.30776e-06 0 6.4116e-07 -1.28532e-06 0 3.19412e-07 -1.27189e-06 0 0 -1.26683e-06 0 9.49668e-07 1.9019e-05 0 9.77338e-06 1.50104e-05 0 1.36246e-05 9.48621e-06 0 1.47777e-05 5.29704e-06 0 1.48157e-05 2.44313e-06 0 1.43692e-05 5.47469e-07 0 1.3697e-05 -6.94749e-07 0 1.29184e-05 -1.49075e-06 0 1.20951e-05 -1.97731e-06 0 1.12621e-05 -2.26163e-06 0 1.04403e-05 -2.40541e-06 0 9.64257e-06 -2.4463e-06 0 8.87663e-06 -2.42887e-06 0 8.14677e-06 -2.36848e-06 0 7.45507e-06 -2.28272e-06 0 6.80195e-06 -2.18345e-06 0 6.18674e-06 -2.07664e-06 0 5.608e-06 -1.96862e-06 0 5.06382e-06 -1.86266e-06 0 4.5519e-06 -1.76162e-06 0 4.06981e-06 -1.66636e-06 0 3.61499e-06 -1.57874e-06 0 3.18478e-06 -1.49906e-06 0 2.77659e-06 -1.42706e-06 0 2.38782e-06 -1.36454e-06 0 2.01588e-06 -1.30999e-06 0 1.65829e-06 -1.26387e-06 0 1.31254e-06 -1.22676e-06 0 9.76203e-07 -1.19744e-06 0 6.46923e-07 -1.17693e-06 0 3.22289e-07 -1.16466e-06 0 0 -1.16003e-06 0 7.09671e-07 1.5774e-05 0 8.14251e-06 1.30423e-05 0 1.21117e-05 8.70835e-06 0 1.36853e-05 5.08163e-06 0 1.40713e-05 2.4817e-06 0 1.38733e-05 7.08136e-07 0 1.33734e-05 -4.72424e-07 0 1.27135e-05 -1.23775e-06 0 1.19717e-05 -1.71127e-06 0 1.11945e-05 -1.99269e-06 0 1.04105e-05 -2.14003e-06 0 9.63821e-06 -2.18886e-06 0 8.88896e-06 -2.18161e-06 0 8.16969e-06 -2.13287e-06 0 7.48436e-06 -2.05938e-06 0 6.83463e-06 -1.9725e-06 0 6.22074e-06 -1.87782e-06 0 5.64191e-06 -1.78146e-06 0 5.09667e-06 -1.68655e-06 0 4.58304e-06 -1.59574e-06 0 4.0988e-06 -1.50997e-06 0 3.64157e-06 -1.43095e-06 0 3.20879e-06 -1.35901e-06 0 2.79794e-06 -1.29395e-06 0 2.40647e-06 -1.23742e-06 0 2.03181e-06 -1.18808e-06 0 1.67152e-06 -1.14634e-06 0 1.32308e-06 -1.11275e-06 0 9.8409e-07 -1.0862e-06 0 6.52168e-07 -1.06763e-06 0 3.24907e-07 -1.05651e-06 0 0 -1.05232e-06 0 5.63217e-07 1.31516e-05 0 6.94411e-06 1.12223e-05 0 1.0859e-05 7.83144e-06 0 1.27179e-05 4.7485e-06 0 1.33888e-05 2.4288e-06 0 1.34097e-05 8.0342e-07 0 1.3067e-05 -2.95753e-07 0 1.25174e-05 -1.01634e-06 0 1.1852e-05 -1.46701e-06 0 1.11276e-05 -1.73862e-06 0 1.03794e-05 -1.88466e-06 0 9.63124e-06 -1.93813e-06 0 8.89793e-06 -1.9387e-06 0 8.18883e-06 -1.89995e-06 0 7.50967e-06 -1.8376e-06 0 6.86331e-06 -1.7623e-06 0 6.25085e-06 -1.6792e-06 0 5.67209e-06 -1.59413e-06 0 5.126e-06 -1.50999e-06 0 4.61091e-06 -1.42925e-06 0 4.12481e-06 -1.35286e-06 0 3.66544e-06 -1.28238e-06 0 3.23036e-06 -1.21813e-06 0 2.81714e-06 -1.16e-06 0 2.42324e-06 -1.10945e-06 0 2.04615e-06 -1.0653e-06 0 1.68343e-06 -1.02796e-06 0 1.33258e-06 -9.97885e-07 0 9.91194e-07 -9.74116e-07 0 6.56894e-07 -9.57487e-07 0 3.27267e-07 -9.47536e-07 0 0 -9.43778e-07 0 4.68019e-07 1.09531e-05 0 6.05526e-06 9.55467e-06 0 9.83775e-06 6.90507e-06 0 1.18799e-05 4.32611e-06 0 1.27767e-05 2.29833e-06 0 1.29857e-05 8.40434e-07 0 1.27833e-05 -1.60799e-07 0 1.2334e-05 -8.24177e-07 0 1.17389e-05 -1.24308e-06 0 1.10631e-05 -1.49849e-06 0 1.03483e-05 -1.63871e-06 0 9.62255e-06 -1.69372e-06 0 8.90413e-06 -1.69989e-06 0 8.20459e-06 -1.66962e-06 0 7.53128e-06 -1.61733e-06 0 6.88817e-06 -1.55284e-06 0 6.27715e-06 -1.48082e-06 0 5.69859e-06 -1.40668e-06 0 5.15185e-06 -1.33307e-06 0 4.63552e-06 -1.26225e-06 0 4.1478e-06 -1.19512e-06 0 3.68657e-06 -1.1331e-06 0 3.24948e-06 -1.07652e-06 0 2.83416e-06 -1.02529e-06 0 2.43812e-06 -9.80712e-07 0 2.05888e-06 -9.41767e-07 0 1.69401e-06 -9.08809e-07 0 1.34102e-06 -8.82267e-07 0 9.97503e-07 -8.61283e-07 0 6.61091e-07 -8.46601e-07 0 3.29363e-07 -8.37813e-07 0 0 -8.34496e-07 0 4.02486e-07 9.05433e-06 0 5.38482e-06 8.02392e-06 0 9.01055e-06 5.96038e-06 0 1.11652e-05 3.8381e-06 0 1.22383e-05 2.10368e-06 0 1.26058e-05 8.26662e-07 0 1.25261e-05 -6.31608e-08 0 1.21662e-05 -6.58545e-07 0 1.16345e-05 -1.03771e-06 0 1.10028e-05 -1.27114e-06 0 1.03182e-05 -1.40143e-06 0 9.61301e-06 -1.45515e-06 0 8.90821e-06 -1.46488e-06 0 8.21746e-06 -1.44168e-06 0 7.54956e-06 -1.39848e-06 0 6.9095e-06 -1.34411e-06 0 6.29989e-06 -1.2827e-06 0 5.7216e-06 -1.21916e-06 0 5.17435e-06 -1.15585e-06 0 4.657e-06 -1.09479e-06 0 4.16789e-06 -1.03683e-06 0 3.70506e-06 -9.83221e-07 0 3.26622e-06 -9.34269e-07 0 2.84907e-06 -8.89911e-07 0 2.45116e-06 -8.51302e-07 0 2.07004e-06 -8.17556e-07 0 1.70328e-06 -7.88991e-07 0 1.34841e-06 -7.6598e-07 0 1.00304e-06 -7.47787e-07 0 6.64772e-07 -7.35055e-07 0 3.31201e-07 -7.27435e-07 0 0 -7.24557e-07 0 3.56312e-07 7.37262e-06 0 4.87961e-06 6.60888e-06 0 8.35135e-06 5.01536e-06 0 1.057e-05 3.30314e-06 0 1.1777e-05 1.85712e-06 0 1.22746e-05 7.69659e-07 0 1.22994e-05 1.88529e-09 0 1.20172e-05 -5.16398e-07 0 1.15409e-05 -8.48905e-07 0 1.09482e-05 -1.05525e-06 0 1.02904e-05 -1.17193e-06 0 9.60334e-06 -1.22186e-06 0 8.91067e-06 -1.23332e-06 0 8.22775e-06 -1.21593e-06 0 7.56472e-06 -1.18094e-06 0 6.92743e-06 -1.13605e-06 0 6.31913e-06 -1.08484e-06 0 5.74116e-06 -1.0316e-06 0 5.19353e-06 -9.78395e-07 0 4.67533e-06 -9.26964e-07 0 4.18506e-06 -8.78082e-07 0 3.72087e-06 -8.3282e-07 0 3.28055e-06 -7.91461e-07 0 2.86184e-06 -7.53964e-07 0 2.46234e-06 -7.21311e-07 0 2.0796e-06 -6.92762e-07 0 1.71123e-06 -6.68591e-07 0 1.35476e-06 -6.49116e-07 0 1.00778e-06 -6.33716e-07 0 6.6793e-07 -6.22938e-07 0 3.32777e-07 -6.16486e-07 0 0 -6.1405e-07 0 3.23318e-07 5.84988e-06 0 4.50083e-06 5.28782e-06 0 7.83568e-06 4.07918e-06 0 1.00873e-05 2.73547e-06 0 1.13937e-05 1.56961e-06 0 1.19951e-05 6.76838e-07 0 1.21062e-05 3.9258e-08 0 1.18892e-05 -3.94453e-07 0 1.14601e-05 -6.74439e-07 0 1.09006e-05 -8.49323e-07 0 1.02656e-05 -9.49224e-07 0 9.59423e-06 -9.93159e-07 0 8.91196e-06 -1.00478e-06 0 8.23581e-06 -9.92098e-07 0 7.57699e-06 -9.64553e-07 0 6.94211e-06 -9.28597e-07 0 6.33499e-06 -8.87214e-07 0 5.75734e-06 -8.4402e-07 0 5.20943e-06 -8.00743e-07 0 4.69055e-06 -7.58828e-07 0 4.19934e-06 -7.18946e-07 0 3.73403e-06 -6.81985e-07 0 3.29248e-06 -6.48188e-07 0 2.87247e-06 -6.17534e-07 0 2.47165e-06 -5.90829e-07 0 2.08757e-06 -5.67476e-07 0 1.71786e-06 -5.47699e-07 0 1.36004e-06 -5.31762e-07 0 1.01174e-06 -5.19158e-07 0 6.70562e-07 -5.10336e-07 0 3.34092e-07 -5.05056e-07 0 0 -5.03062e-07 0 2.99873e-07 4.44313e-06 0 4.2223e-06 4.04041e-06 0 7.44429e-06 3.1553e-06 0 9.71026e-06 2.14563e-06 0 1.10881e-05 1.25075e-06 0 1.17695e-05 5.55336e-07 0 1.1949e-05 5.3977e-08 0 1.17845e-05 -2.89239e-07 0 1.13936e-05 -5.11926e-07 0 1.08611e-05 -6.51732e-07 0 1.02449e-05 -7.32218e-07 0 9.58622e-06 -7.6833e-07 0 8.91251e-06 -7.78777e-07 0 8.24191e-06 -7.69889e-07 0 7.58656e-06 -7.49147e-07 0 6.9537e-06 -7.21671e-07 0 6.34757e-06 -6.89809e-07 0 5.77021e-06 -6.56444e-07 0 5.2221e-06 -6.22943e-07 0 4.70269e-06 -5.90447e-07 0 4.21074e-06 -5.59499e-07 0 3.74454e-06 -5.30795e-07 0 3.30202e-06 -5.04537e-07 0 2.88098e-06 -4.80711e-07 0 2.4791e-06 -4.59948e-07 0 2.09395e-06 -4.41787e-07 0 1.72316e-06 -4.26405e-07 0 1.36428e-06 -4.14008e-07 0 1.01491e-06 -4.04202e-07 0 6.7267e-07 -3.97339e-07 0 3.35145e-07 -3.93231e-07 0 0 -3.91679e-07 0 2.8377e-07 3.119e-06 0 4.02636e-06 2.84809e-06 0 7.16257e-06 2.24363e-06 0 9.43299e-06 1.54127e-06 0 1.08599e-05 9.08903e-07 0 1.15992e-05 4.11971e-07 0 1.18294e-05 5.1097e-08 0 1.17045e-05 -1.97154e-07 0 1.13426e-05 -3.58843e-07 0 1.08306e-05 -4.60738e-07 0 1.02287e-05 -5.19729e-07 0 9.5798e-06 -5.46571e-07 0 8.91262e-06 -5.54796e-07 0 8.24628e-06 -5.48975e-07 0 7.5936e-06 -5.34528e-07 0 6.96229e-06 -5.15167e-07 0 6.35694e-06 -4.92585e-07 0 5.77981e-06 -4.68877e-07 0 5.23158e-06 -4.45034e-07 0 4.71179e-06 -4.21879e-07 0 4.21929e-06 -3.99811e-07 0 3.75242e-06 -3.79333e-07 0 3.30917e-06 -3.60592e-07 0 2.88736e-06 -3.43582e-07 0 2.48468e-06 -3.28756e-07 0 2.09873e-06 -3.15785e-07 0 1.72714e-06 -3.04798e-07 0 1.36745e-06 -2.95942e-07 0 1.01728e-06 -2.88937e-07 0 6.74252e-07 -2.84034e-07 0 3.35935e-07 -2.81098e-07 0 0 -2.7999e-07 0 2.7366e-07 1.85021e-06 0 3.90141e-06 1.69394e-06 0 6.9801e-06 1.3419e-06 0 9.25068e-06 9.27965e-07 0 1.07081e-05 5.51391e-07 0 1.14851e-05 2.53249e-07 0 1.1749e-05 3.56689e-08 0 1.16505e-05 -1.14503e-07 0 1.1308e-05 -2.12564e-07 0 1.08099e-05 -2.74517e-07 0 1.02176e-05 -3.10515e-07 0 9.57532e-06 -3.27042e-07 0 8.91256e-06 -3.32283e-07 0 8.2491e-06 -3.29003e-07 0 7.59823e-06 -3.20484e-07 0 6.96798e-06 -3.08973e-07 0 6.36316e-06 -2.95495e-07 0 5.78621e-06 -2.81321e-07 0 5.23789e-06 -2.6705e-07 0 4.71785e-06 -2.53179e-07 0 4.22498e-06 -2.39954e-07 0 3.75768e-06 -2.27677e-07 0 3.31394e-06 -2.16438e-07 0 2.89162e-06 -2.06236e-07 0 2.48841e-06 -1.97342e-07 0 2.10193e-06 -1.89561e-07 0 1.7298e-06 -1.82968e-07 0 1.36958e-06 -1.77654e-07 0 1.01887e-06 -1.73451e-07 0 6.75309e-07 -1.70508e-07 0 3.36463e-07 -1.68747e-07 0 0 -1.68082e-07 0 2.68767e-07 6.13269e-07 0 3.84038e-06 5.62182e-07 0 6.89018e-06 4.46568e-07 0 9.16002e-06 3.09828e-07 0 1.06321e-05 1.8479e-07 0 1.14277e-05 8.54218e-08 0 1.17084e-05 1.27242e-08 0 1.16231e-05 -3.75351e-08 0 1.12905e-05 -7.03964e-08 0 1.07994e-05 -9.11834e-08 0 1.0212e-05 -1.03283e-07 0 9.573e-06 -1.08863e-07 0 8.91248e-06 -1.10661e-07 0 8.25048e-06 -1.09604e-07 0 7.60054e-06 -1.06789e-07 0 6.97082e-06 -1.0297e-07 0 6.36627e-06 -9.8489e-08 0 5.78941e-06 -9.37726e-08 0 5.24105e-06 -8.90213e-08 0 4.72089e-06 -8.44017e-08 0 4.22784e-06 -7.9996e-08 0 3.76032e-06 -7.59053e-08 0 3.31633e-06 -7.216e-08 0 2.89376e-06 -6.87599e-08 0 2.49029e-06 -6.57954e-08 0 2.10353e-06 -6.32017e-08 0 1.73113e-06 -6.10042e-08 0 1.37064e-06 -5.92329e-08 0 1.01967e-06 -5.78317e-08 0 6.75839e-07 -5.68508e-08 0 3.36727e-07 -5.62636e-08 0 0 -5.60418e-08 0 2.68767e-07 -6.13269e-07 0 3.84038e-06 -5.62182e-07 0 6.89018e-06 -4.46568e-07 0 9.16002e-06 -3.09828e-07 0 1.06321e-05 -1.8479e-07 0 1.14277e-05 -8.54218e-08 0 1.17084e-05 -1.27242e-08 0 1.16231e-05 3.75351e-08 0 1.12905e-05 7.03964e-08 0 1.07994e-05 9.11834e-08 0 1.0212e-05 1.03283e-07 0 9.573e-06 1.08863e-07 0 8.91248e-06 1.10661e-07 0 8.25048e-06 1.09604e-07 0 7.60054e-06 1.06789e-07 0 6.97082e-06 1.0297e-07 0 6.36627e-06 9.8489e-08 0 5.78941e-06 9.37726e-08 0 5.24105e-06 8.90213e-08 0 4.72089e-06 8.44017e-08 0 4.22784e-06 7.9996e-08 0 3.76032e-06 7.59053e-08 0 3.31633e-06 7.216e-08 0 2.89376e-06 6.87599e-08 0 2.49029e-06 6.57954e-08 0 2.10353e-06 6.32017e-08 0 1.73113e-06 6.10042e-08 0 1.37064e-06 5.92329e-08 0 1.01967e-06 5.78317e-08 0 6.75839e-07 5.68508e-08 0 3.36727e-07 5.62636e-08 0 0 5.60418e-08 0 2.7366e-07 -1.85021e-06 0 3.90141e-06 -1.69394e-06 0 6.9801e-06 -1.3419e-06 0 9.25068e-06 -9.27965e-07 0 1.07081e-05 -5.51391e-07 0 1.14851e-05 -2.53249e-07 0 1.1749e-05 -3.56689e-08 0 1.16505e-05 1.14503e-07 0 1.1308e-05 2.12564e-07 0 1.08099e-05 2.74517e-07 0 1.02176e-05 3.10515e-07 0 9.57532e-06 3.27042e-07 0 8.91256e-06 3.32283e-07 0 8.2491e-06 3.29003e-07 0 7.59823e-06 3.20484e-07 0 6.96798e-06 3.08973e-07 0 6.36316e-06 2.95495e-07 0 5.78621e-06 2.81321e-07 0 5.23789e-06 2.6705e-07 0 4.71785e-06 2.53179e-07 0 4.22498e-06 2.39954e-07 0 3.75768e-06 2.27677e-07 0 3.31394e-06 2.16438e-07 0 2.89162e-06 2.06236e-07 0 2.48841e-06 1.97342e-07 0 2.10193e-06 1.89561e-07 0 1.7298e-06 1.82968e-07 0 1.36958e-06 1.77654e-07 0 1.01887e-06 1.73451e-07 0 6.75309e-07 1.70508e-07 0 3.36463e-07 1.68747e-07 0 0 1.68082e-07 0 2.8377e-07 -3.119e-06 0 4.02636e-06 -2.84809e-06 0 7.16257e-06 -2.24363e-06 0 9.43299e-06 -1.54127e-06 0 1.08599e-05 -9.08903e-07 0 1.15992e-05 -4.11971e-07 0 1.18294e-05 -5.1097e-08 0 1.17045e-05 1.97154e-07 0 1.13426e-05 3.58843e-07 0 1.08306e-05 4.60738e-07 0 1.02287e-05 5.19729e-07 0 9.5798e-06 5.46571e-07 0 8.91262e-06 5.54796e-07 0 8.24628e-06 5.48975e-07 0 7.5936e-06 5.34528e-07 0 6.96229e-06 5.15167e-07 0 6.35694e-06 4.92585e-07 0 5.77981e-06 4.68877e-07 0 5.23158e-06 4.45034e-07 0 4.71179e-06 4.21879e-07 0 4.21929e-06 3.99811e-07 0 3.75242e-06 3.79333e-07 0 3.30917e-06 3.60592e-07 0 2.88736e-06 3.43582e-07 0 2.48468e-06 3.28756e-07 0 2.09873e-06 3.15785e-07 0 1.72714e-06 3.04798e-07 0 1.36745e-06 2.95942e-07 0 1.01728e-06 2.88937e-07 0 6.74252e-07 2.84034e-07 0 3.35935e-07 2.81098e-07 0 0 2.7999e-07 0 2.99873e-07 -4.44313e-06 0 4.2223e-06 -4.04041e-06 0 7.44429e-06 -3.1553e-06 0 9.71026e-06 -2.14563e-06 0 1.10881e-05 -1.25075e-06 0 1.17695e-05 -5.55336e-07 0 1.1949e-05 -5.3977e-08 0 1.17845e-05 2.89239e-07 0 1.13936e-05 5.11926e-07 0 1.08611e-05 6.51732e-07 0 1.02449e-05 7.32218e-07 0 9.58622e-06 7.6833e-07 0 8.91251e-06 7.78777e-07 0 8.24191e-06 7.69889e-07 0 7.58656e-06 7.49147e-07 0 6.9537e-06 7.21671e-07 0 6.34757e-06 6.89809e-07 0 5.77021e-06 6.56444e-07 0 5.2221e-06 6.22943e-07 0 4.70269e-06 5.90447e-07 0 4.21074e-06 5.59499e-07 0 3.74454e-06 5.30795e-07 0 3.30202e-06 5.04537e-07 0 2.88098e-06 4.80711e-07 0 2.4791e-06 4.59948e-07 0 2.09395e-06 4.41787e-07 0 1.72316e-06 4.26405e-07 0 1.36428e-06 4.14008e-07 0 1.01491e-06 4.04202e-07 0 6.7267e-07 3.97339e-07 0 3.35145e-07 3.93231e-07 0 0 3.91679e-07 0 3.23318e-07 -5.84988e-06 0 4.50083e-06 -5.28782e-06 0 7.83568e-06 -4.07918e-06 0 1.00873e-05 -2.73547e-06 0 1.13937e-05 -1.56961e-06 0 1.19951e-05 -6.76838e-07 0 1.21062e-05 -3.9258e-08 0 1.18892e-05 3.94453e-07 0 1.14601e-05 6.74439e-07 0 1.09006e-05 8.49323e-07 0 1.02656e-05 9.49224e-07 0 9.59423e-06 9.93159e-07 0 8.91196e-06 1.00478e-06 0 8.23581e-06 9.92098e-07 0 7.57699e-06 9.64553e-07 0 6.94211e-06 9.28597e-07 0 6.33499e-06 8.87214e-07 0 5.75734e-06 8.4402e-07 0 5.20943e-06 8.00743e-07 0 4.69055e-06 7.58828e-07 0 4.19934e-06 7.18946e-07 0 3.73403e-06 6.81985e-07 0 3.29248e-06 6.48188e-07 0 2.87247e-06 6.17534e-07 0 2.47165e-06 5.90829e-07 0 2.08757e-06 5.67476e-07 0 1.71786e-06 5.47699e-07 0 1.36004e-06 5.31762e-07 0 1.01174e-06 5.19158e-07 0 6.70562e-07 5.10336e-07 0 3.34092e-07 5.05056e-07 0 0 5.03062e-07 0 3.56312e-07 -7.37262e-06 0 4.87961e-06 -6.60888e-06 0 8.35135e-06 -5.01536e-06 0 1.057e-05 -3.30314e-06 0 1.1777e-05 -1.85712e-06 0 1.22746e-05 -7.69659e-07 0 1.22994e-05 -1.88529e-09 0 1.20172e-05 5.16398e-07 0 1.15409e-05 8.48905e-07 0 1.09482e-05 1.05525e-06 0 1.02904e-05 1.17193e-06 0 9.60334e-06 1.22186e-06 0 8.91067e-06 1.23332e-06 0 8.22775e-06 1.21593e-06 0 7.56472e-06 1.18094e-06 0 6.92743e-06 1.13605e-06 0 6.31913e-06 1.08484e-06 0 5.74116e-06 1.0316e-06 0 5.19353e-06 9.78395e-07 0 4.67533e-06 9.26964e-07 0 4.18506e-06 8.78082e-07 0 3.72087e-06 8.3282e-07 0 3.28055e-06 7.91461e-07 0 2.86184e-06 7.53964e-07 0 2.46234e-06 7.21311e-07 0 2.0796e-06 6.92762e-07 0 1.71123e-06 6.68591e-07 0 1.35476e-06 6.49116e-07 0 1.00778e-06 6.33716e-07 0 6.6793e-07 6.22938e-07 0 3.32777e-07 6.16486e-07 0 0 6.1405e-07 0 4.02486e-07 -9.05433e-06 0 5.38482e-06 -8.02392e-06 0 9.01055e-06 -5.96038e-06 0 1.11652e-05 -3.8381e-06 0 1.22383e-05 -2.10368e-06 0 1.26058e-05 -8.26662e-07 0 1.25261e-05 6.31608e-08 0 1.21662e-05 6.58545e-07 0 1.16345e-05 1.03771e-06 0 1.10028e-05 1.27114e-06 0 1.03182e-05 1.40143e-06 0 9.61301e-06 1.45515e-06 0 8.90821e-06 1.46488e-06 0 8.21746e-06 1.44168e-06 0 7.54956e-06 1.39848e-06 0 6.9095e-06 1.34411e-06 0 6.29989e-06 1.2827e-06 0 5.7216e-06 1.21916e-06 0 5.17435e-06 1.15585e-06 0 4.657e-06 1.09479e-06 0 4.16789e-06 1.03683e-06 0 3.70506e-06 9.83221e-07 0 3.26622e-06 9.34269e-07 0 2.84907e-06 8.89911e-07 0 2.45116e-06 8.51302e-07 0 2.07004e-06 8.17556e-07 0 1.70328e-06 7.88991e-07 0 1.34841e-06 7.6598e-07 0 1.00304e-06 7.47787e-07 0 6.64772e-07 7.35055e-07 0 3.31201e-07 7.27435e-07 0 0 7.24557e-07 0 4.68019e-07 -1.09531e-05 0 6.05526e-06 -9.55467e-06 0 9.83775e-06 -6.90507e-06 0 1.18799e-05 -4.32611e-06 0 1.27767e-05 -2.29833e-06 0 1.29857e-05 -8.40434e-07 0 1.27833e-05 1.60799e-07 0 1.2334e-05 8.24177e-07 0 1.17389e-05 1.24308e-06 0 1.10631e-05 1.49849e-06 0 1.03483e-05 1.63871e-06 0 9.62255e-06 1.69372e-06 0 8.90413e-06 1.69989e-06 0 8.20459e-06 1.66962e-06 0 7.53128e-06 1.61733e-06 0 6.88817e-06 1.55284e-06 0 6.27715e-06 1.48082e-06 0 5.69859e-06 1.40668e-06 0 5.15185e-06 1.33307e-06 0 4.63552e-06 1.26225e-06 0 4.1478e-06 1.19512e-06 0 3.68657e-06 1.1331e-06 0 3.24948e-06 1.07652e-06 0 2.83416e-06 1.02529e-06 0 2.43812e-06 9.80712e-07 0 2.05888e-06 9.41767e-07 0 1.69401e-06 9.08809e-07 0 1.34102e-06 8.82267e-07 0 9.97503e-07 8.61283e-07 0 6.61091e-07 8.46601e-07 0 3.29363e-07 8.37813e-07 0 0 8.34496e-07 0 5.63217e-07 -1.31516e-05 0 6.94411e-06 -1.12223e-05 0 1.0859e-05 -7.83144e-06 0 1.27179e-05 -4.7485e-06 0 1.33888e-05 -2.4288e-06 0 1.34097e-05 -8.0342e-07 0 1.3067e-05 2.95753e-07 0 1.25174e-05 1.01634e-06 0 1.1852e-05 1.46701e-06 0 1.11276e-05 1.73862e-06 0 1.03794e-05 1.88466e-06 0 9.63124e-06 1.93813e-06 0 8.89793e-06 1.9387e-06 0 8.18883e-06 1.89995e-06 0 7.50967e-06 1.8376e-06 0 6.86331e-06 1.7623e-06 0 6.25085e-06 1.6792e-06 0 5.67209e-06 1.59413e-06 0 5.126e-06 1.50999e-06 0 4.61091e-06 1.42925e-06 0 4.12481e-06 1.35286e-06 0 3.66544e-06 1.28238e-06 0 3.23036e-06 1.21813e-06 0 2.81714e-06 1.16e-06 0 2.42324e-06 1.10945e-06 0 2.04615e-06 1.0653e-06 0 1.68343e-06 1.02796e-06 0 1.33258e-06 9.97885e-07 0 9.91194e-07 9.74116e-07 0 6.56894e-07 9.57487e-07 0 3.27267e-07 9.47536e-07 0 0 9.43778e-07 0 7.09671e-07 -1.5774e-05 0 8.14251e-06 -1.30423e-05 0 1.21117e-05 -8.70835e-06 0 1.36853e-05 -5.08163e-06 0 1.40713e-05 -2.4817e-06 0 1.38733e-05 -7.08136e-07 0 1.33734e-05 4.72424e-07 0 1.27135e-05 1.23775e-06 0 1.19717e-05 1.71127e-06 0 1.11945e-05 1.99269e-06 0 1.04105e-05 2.14003e-06 0 9.63821e-06 2.18886e-06 0 8.88896e-06 2.18161e-06 0 8.16969e-06 2.13287e-06 0 7.48436e-06 2.05938e-06 0 6.83463e-06 1.9725e-06 0 6.22074e-06 1.87782e-06 0 5.64191e-06 1.78146e-06 0 5.09667e-06 1.68655e-06 0 4.58304e-06 1.59574e-06 0 4.0988e-06 1.50997e-06 0 3.64157e-06 1.43095e-06 0 3.20879e-06 1.35901e-06 0 2.79794e-06 1.29395e-06 0 2.40647e-06 1.23742e-06 0 2.03181e-06 1.18808e-06 0 1.67152e-06 1.14634e-06 0 1.32308e-06 1.11275e-06 0 9.8409e-07 1.0862e-06 0 6.52168e-07 1.06763e-06 0 3.24907e-07 1.05651e-06 0 0 1.05232e-06 0 9.49668e-07 -1.9019e-05 0 9.77338e-06 -1.50104e-05 0 1.36246e-05 -9.48621e-06 0 1.47777e-05 -5.29704e-06 0 1.48157e-05 -2.44313e-06 0 1.43692e-05 -5.47469e-07 0 1.3697e-05 6.94749e-07 0 1.29184e-05 1.49075e-06 0 1.20951e-05 1.97731e-06 0 1.12621e-05 2.26163e-06 0 1.04403e-05 2.40541e-06 0 9.64257e-06 2.4463e-06 0 8.87663e-06 2.42887e-06 0 8.14677e-06 2.36848e-06 0 7.45507e-06 2.28272e-06 0 6.80195e-06 2.18345e-06 0 6.18674e-06 2.07664e-06 0 5.608e-06 1.96862e-06 0 5.06382e-06 1.86266e-06 0 4.5519e-06 1.76162e-06 0 4.06981e-06 1.66636e-06 0 3.61499e-06 1.57874e-06 0 3.18478e-06 1.49906e-06 0 2.77659e-06 1.42706e-06 0 2.38782e-06 1.36454e-06 0 2.01588e-06 1.30999e-06 0 1.65829e-06 1.26387e-06 0 1.31254e-06 1.22676e-06 0 9.76203e-07 1.19744e-06 0 6.46923e-07 1.17693e-06 0 3.22289e-07 1.16466e-06 0 0 1.16003e-06 0 1.38075e-06 -2.32296e-05 0 1.2018e-05 -1.70718e-05 0 1.54187e-05 -1.00921e-05 0 1.59848e-05 -5.3627e-06 0 1.56106e-05 -2.29946e-06 0 1.48889e-05 -3.15061e-07 0 1.40319e-05 9.66026e-07 0 1.3128e-05 1.77722e-06 0 1.22194e-05 2.26628e-06 0 1.13284e-05 2.54615e-06 0 1.04673e-05 2.68124e-06 0 9.64338e-06 2.71073e-06 0 8.86026e-06 2.6806e-06 0 8.11959e-06 2.60686e-06 0 7.42149e-06 2.50763e-06 0 6.76506e-06 2.39511e-06 0 6.14869e-06 2.27561e-06 0 5.57025e-06 2.15552e-06 0 5.02738e-06 2.03826e-06 0 4.51745e-06 1.9268e-06 0 4.03779e-06 1.82193e-06 0 3.58567e-06 1.72565e-06 0 3.15832e-06 1.63818e-06 0 2.75309e-06 1.55922e-06 0 2.36731e-06 1.49071e-06 0 1.99836e-06 1.43096e-06 0 1.64375e-06 1.38046e-06 0 1.30094e-06 1.33984e-06 0 9.67537e-07 1.30776e-06 0 6.4116e-07 1.28532e-06 0 3.19412e-07 1.27189e-06 0 0 1.26683e-06 0 2.26013e-06 -2.90574e-05 0 1.51174e-05 -1.90534e-05 0 1.74916e-05 -1.04292e-05 0 1.72857e-05 -5.24575e-06 0 1.6441e-05 -2.03854e-06 0 1.54226e-05 -5.7351e-09 0 1.43715e-05 1.28876e-06 0 1.33379e-05 2.09849e-06 0 1.23417e-05 2.57896e-06 0 1.13913e-05 2.84672e-06 0 1.04902e-05 2.9678e-06 0 9.63961e-06 2.98228e-06 0 8.83916e-06 2.93689e-06 0 8.08767e-06 2.84801e-06 0 7.38327e-06 2.73408e-06 0 6.72371e-06 2.60743e-06 0 6.1064e-06 2.47466e-06 0 5.52854e-06 2.34209e-06 0 4.98728e-06 2.21324e-06 0 4.47964e-06 2.09118e-06 0 4.0027e-06 1.97659e-06 0 3.55359e-06 1.87157e-06 0 3.12941e-06 1.77628e-06 0 2.72743e-06 1.69033e-06 0 2.34492e-06 1.61583e-06 0 1.97924e-06 1.55088e-06 0 1.62788e-06 1.49602e-06 0 1.2883e-06 1.4519e-06 0 9.5809e-07 1.41706e-06 0 6.34878e-07 1.39269e-06 0 3.16276e-07 1.37812e-06 0 0 1.37262e-06 0 4.38593e-06 -3.79093e-05 0 1.92934e-05 -2.05514e-05 0 1.97953e-05 -1.03865e-05 0 1.86471e-05 -4.91693e-06 0 1.72881e-05 -1.65094e-06 0 1.59591e-05 3.84079e-07 0 1.47089e-05 1.66448e-06 0 1.35436e-05 2.45531e-06 0 1.24589e-05 2.91574e-06 0 1.14487e-05 3.16355e-06 0 1.05075e-05 3.26517e-06 0 9.63026e-06 3.26099e-06 0 8.8126e-06 3.19771e-06 0 8.0505e-06 3.0919e-06 0 7.34006e-06 2.96201e-06 0 6.67766e-06 2.82033e-06 0 6.05973e-06 2.67368e-06 0 5.48276e-06 2.52822e-06 0 4.94343e-06 2.38749e-06 0 4.43841e-06 2.25467e-06 0 3.96452e-06 2.13024e-06 0 3.51874e-06 2.0164e-06 0 3.09803e-06 1.91326e-06 0 2.6996e-06 1.82031e-06 0 2.32066e-06 1.73981e-06 0 1.95854e-06 1.66967e-06 0 1.61071e-06 1.61045e-06 0 1.27462e-06 1.56284e-06 0 9.47868e-07 1.52525e-06 0 6.28082e-07 1.49898e-06 0 3.12884e-07 1.48326e-06 0 0 1.47733e-06 0 1.0699e-05 -5.34657e-05 0 2.44998e-05 -2.08563e-05 0 2.22255e-05 -9.86463e-06 0 2.00247e-05 -4.35606e-06 0 1.81305e-05 -1.13134e-06 0 1.64865e-05 8.55973e-07 0 1.50369e-05 2.09367e-06 0 1.37403e-05 2.8478e-06 0 1.25678e-05 3.27661e-06 0 1.14984e-05 3.49656e-06 0 1.05177e-05 3.5733e-06 0 9.61431e-06 3.54678e-06 0 8.77989e-06 3.46297e-06 0 8.0076e-06 3.33841e-06 0 7.29152e-06 3.19129e-06 0 6.62668e-06 3.03369e-06 0 6.00852e-06 2.87257e-06 0 5.43282e-06 2.71379e-06 0 4.89578e-06 2.56092e-06 0 4.39372e-06 2.41714e-06 0 3.92323e-06 2.28275e-06 0 3.4811e-06 2.16005e-06 0 3.06419e-06 2.04902e-06 0 2.66961e-06 1.94905e-06 0 2.29453e-06 1.86255e-06 0 1.93626e-06 1.78723e-06 0 1.59223e-06 1.72366e-06 0 1.25991e-06 1.67258e-06 0 9.36875e-07 1.63226e-06 0 6.20775e-07 1.60408e-06 0 3.09237e-07 1.58722e-06 0 0 1.58086e-06 0 6.55235e-05 -6.37579e-05 0 3.00279e-05 -1.92591e-05 0 2.46275e-05 -8.81422e-06 0 2.13676e-05 -3.55698e-06 0 1.89452e-05 -4.79404e-07 0 1.69926e-05 1.40932e-06 0 1.5348e-05 2.57565e-06 0 1.39234e-05 3.27538e-06 0 1.26652e-05 3.66113e-06 0 1.15383e-05 3.84543e-06 0 1.05193e-05 3.8919e-06 0 9.59072e-06 3.83941e-06 0 8.7403e-06 3.73247e-06 0 7.95846e-06 3.58737e-06 0 7.23731e-06 3.42178e-06 0 6.57053e-06 3.24736e-06 0 5.95258e-06 3.07118e-06 0 5.37859e-06 2.89869e-06 0 4.84425e-06 2.73338e-06 0 4.34553e-06 2.57848e-06 0 3.8788e-06 2.43403e-06 0 3.44066e-06 2.30239e-06 0 3.02787e-06 2.18344e-06 0 2.63745e-06 2.07645e-06 0 2.26654e-06 1.98396e-06 0 1.9124e-06 1.90347e-06 0 1.57246e-06 1.83557e-06 0 1.24417e-06 1.78103e-06 0 9.25114e-07 1.73799e-06 0 6.12958e-07 1.70791e-06 0 3.05336e-07 1.68993e-06 0 0 1.68314e-06 0 </DataArray> 
</PointData> 
<Points> 
<DataArray type="Float32" NumberOfComponents="3"> 