<?xml version="1.0"?> 
<VTKFile type="StructuredGrid" version="0.1"> 
<StructuredGrid WholeExtent="0 31 0 31 0 0"> 
<Piece Extent="0 31 0 31 0 0"> 
<PointData>
<DataArray type="Float32" Name="B" format="ascii" NumberOfComponents="3"> 
2.89102e-05 2.40268e-05 0 7.44618e-06 -5.0097e-07 0 8.2137e-06 5.70622e-07 0 9.33746e-06 8.88904e-07 0 1.06265e-05 1.03938e-06 0 1.2009e-05 1.10224e-06 0 1.3405e-05 1.0959e-06 0 1.4734e-05 1.03332e-06 0 1.5934e-05 9.30937e-07 0 1.69704e-05 8.0679e-07 0 1.78328e-05 6.74007e-07 0 1.85253e-05 5.41229e-07 0 1.90591e-05 4.12721e-07 0 1.94467e-05 2.89724e-07 0 1.96987e-05 1.71633e-07 0 1.98227e-05 5.68251e-08 0 1.98227e-05 -5.68251e-08 0 1.96987e-05 -1.71633e-07 0 1.94467e-05 -2.89724e-07 0 1.90591e-05 -4.12721e-07 0 1.85253e-05 -5.41229e-07 0 1.78328e-05 -6.74007e-07 0 1.69704e-05 -8.0679e-07 0 1.5934e-05 -9.30937e-07 0 1.4734e-05 -1.03332e-06 0 1.3405e-05 -1.0959e-06 0 1.2009e-05 -1.10224e-06 0 1.06265e-05 -1.03938e-06 0 9.33746e-06 -8.88904e-07 0 8.2137e-06 -5.70622e-07 0 7.44618e-06 5.0097e-07 0 2.89102e-05 -2.40268e-05 0 7.53483e-06 1.55423e-06 0 8.01393e-06 -8.07449e-08 0 8.46517e-06 -2.70766e-07 0 9.44625e-06 -2.75207e-07 0 1.06765e-05 -2.80972e-07 0 1.20269e-05 -2.8089e-07 0 1.34008e-05 -2.63103e-07 0 1.47126e-05 -2.27665e-07 0 1.58994e-05 -1.83163e-07 0 1.69267e-05 -1.39e-07 0 1.77836e-05 -1.00706e-07 0 1.84735e-05 -7.01428e-08 0 1.90066e-05 -4.68596e-08 0 1.93943e-05 -2.93997e-08 0 1.96467e-05 -1.60377e-08 0 1.97711e-05 -5.0802e-09 0 1.97711e-05 5.0802e-09 0 1.96467e-05 1.60377e-08 0 1.93943e-05 2.93997e-08 0 1.90066e-05 4.68596e-08 0 1.84735e-05 7.01428e-08 0 1.77836e-05 1.00706e-07 0 1.69267e-05 1.39e-07 0 1.58994e-05 1.83163e-07 0 1.47126e-05 2.27665e-07 0 1.34008e-05 2.63103e-07 0 1.20269e-05 2.8089e-07 0 1.06765e-05 2.80972e-07 0 9.44625e-06 2.75207e-07 0 8.46517e-06 2.70766e-07 0 8.01393e-06 8.07449e-08 0 7.53483e-06 -1.55423e-06 0 6.32085e-06 6.2856e-08 0 7.35146e-06 -6.58478e-07 0 8.24942e-06 -1.14039e-06 0 9.32756e-06 -1.42693e-06 0 1.06089e-05 -1.60803e-06 0 1.20226e-05 -1.68411e-06 0 1.34626e-05 -1.64132e-06 0 1.48214e-05 -1.49768e-06 0 1.60283e-05 -1.29628e-06 0 1.70556e-05 -1.07824e-06 0 1.79021e-05 -8.67307e-07 0 1.85786e-05 -6.74087e-07 0 1.9099e-05 -5.00593e-07 0 1.94766e-05 -3.4445e-07 0 1.97221e-05 -2.01339e-07 0 1.9843e-05 -6.6211e-08 0 1.9843e-05 6.6211e-08 0 1.97221e-05 2.01339e-07 0 1.94766e-05 3.4445e-07 0 1.9099e-05 5.00593e-07 0 1.85786e-05 6.74087e-07 0 1.79021e-05 8.67307e-07 0 1.70556e-05 1.07824e-06 0 1.60283e-05 1.29628e-06 0 1.48214e-05 1.49768e-06 0 1.34626e-05 1.64132e-06 0 1.20226e-05 1.68411e-06 0 1.06089e-05 1.60803e-06 0 9.32756e-06 1.42693e-06 0 8.24942e-06 1.14039e-06 0 7.35146e-06 6.58478e-07 0 6.32085e-06 -6.2856e-08 0 5.74203e-06 -1.06446e-06 0 6.7593e-06 -1.62767e-06 0 7.80346e-06 -2.18468e-06 0 8.99634e-06 -2.66777e-06 0 1.04027e-05 -3.03832e-06 0 1.19914e-05 -3.21362e-06 0 1.36131e-05 -3.1253e-06 0 1.50895e-05 -2.8239e-06 0 1.63409e-05 -2.42369e-06 0 1.73667e-05 -2.00792e-06 0 1.8191e-05 -1.61479e-06 0 1.88394e-05 -1.25762e-06 0 1.93335e-05 -9.36699e-07 0 1.96902e-05 -6.46404e-07 0 1.99214e-05 -3.78685e-07 0 2.00352e-05 -1.24683e-07 0 2.00352e-05 1.24683e-07 0 1.99214e-05 3.78685e-07 0 1.96902e-05 6.46404e-07 0 1.93335e-05 9.36699e-07 0 1.88394e-05 1.25762e-06 0 1.8191e-05 1.61479e-06 0 1.73667e-05 2.00792e-06 0 1.63409e-05 2.42369e-06 0 1.50895e-05 2.8239e-06 0 1.36131e-05 3.1253e-06 0 1.19914e-05 3.21362e-06 0 1.04027e-05 3.03832e-06 0 8.99634e-06 2.66777e-06 0 7.80346e-06 2.18468e-06 0 6.7593e-06 1.62767e-06 0 5.74203e-06 1.06446e-06 0 5.21975e-06 -2.02703e-06 0 6.15235e-06 -2.62853e-06 0 7.19529e-06 -3.30619e-06 0 8.43742e-06 -4.01026e-06 0 9.99068e-06 -4.66152e-06 0 1.19194e-05 -5.03596e-06 0 1.39325e-05 -4.83269e-06 0 1.55951e-05 -4.23987e-06 0 1.68817e-05 -3.56025e-06 0 1.78793e-05 -2.91075e-06 0 1.8655e-05 -2.32425e-06 0 1.92536e-05 -1.80399e-06 0 1.97047e-05 -1.34187e-06 0 2.00284e-05 -9.25736e-07 0 2.02376e-05 -5.42387e-07 0 2.03403e-05 -1.78608e-07 0 2.03403e-05 1.78608e-07 0 2.02376e-05 5.42387e-07 0 2.00284e-05 9.25736e-07 0 1.97047e-05 1.34187e-06 0 1.92536e-05 1.80399e-06 0 1.8655e-05 2.32425e-06 0 1.78793e-05 2.91075e-06 0 1.68817e-05 3.56025e-06 0 1.55951e-05 4.23987e-06 0 1.39325e-05 4.83269e-06 0 1.19194e-05 5.03596e-06 0 9.99068e-06 4.66152e-06 0 8.43742e-06 4.01026e-06 0 7.19529e-06 3.30619e-06 0 6.15235e-06 2.62853e-06 0 5.21975e-06 2.02703e-06 0 4.63467e-06 -2.8549e-06 0 5.4443e-06 -3.55594e-06 0 6.3909e-06 -4.39857e-06 0 7.56627e-06 -5.38391e-06 0 9.14992e-06 -6.50787e-06 0 1.16501e-05 -7.62585e-06 0 1.47123e-05 -6.89586e-06 0 1.64857e-05 -5.70901e-06 0 1.77108e-05 -4.65574e-06 0 1.86141e-05 -3.74623e-06 0 1.92977e-05 -2.96582e-06 0 1.98176e-05 -2.29169e-06 0 2.02063e-05 -1.70096e-06 0 2.04842e-05 -1.17241e-06 0 2.06635e-05 -6.86707e-07 0 2.07515e-05 -2.26118e-07 0 2.07515e-05 2.26118e-07 0 2.06635e-05 6.86707e-07 0 2.04842e-05 1.17241e-06 0 2.02063e-05 1.70096e-06 0 1.98176e-05 2.29169e-06 0 1.92977e-05 2.96582e-06 0 1.86141e-05 3.74623e-06 0 1.77108e-05 4.65574e-06 0 1.64857e-05 5.70901e-06 0 1.47123e-05 6.89586e-06 0 1.16501e-05 7.62585e-06 0 9.14992e-06 6.50787e-06 0 7.56627e-06 5.38391e-06 0 6.3909e-06 4.39857e-06 0 5.4443e-06 3.55594e-06 0 4.63467e-06 2.8549e-06 0 3.96053e-06 -3.53753e-06 0 4.60739e-06 -4.3427e-06 0 5.36989e-06 -5.34838e-06 0 6.31949e-06 -6.61129e-06 0 7.58519e-06 -8.24676e-06 0 9.3371e-06 -1.05796e-05 0 1.12243e-05 -8.90311e-06 0 1.26085e-05 -7.0288e-06 0 1.35845e-05 -5.60233e-06 0 1.43002e-05 -4.45198e-06 0 1.48395e-05 -3.50119e-06 0 1.52493e-05 -2.69633e-06 0 1.55563e-05 -1.99832e-06 0 1.57764e-05 -1.37665e-06 0 1.59189e-05 -8.06262e-07 0 1.59889e-05 -2.65492e-07 0 1.59889e-05 2.65492e-07 0 1.59189e-05 8.06262e-07 0 1.57764e-05 1.37665e-06 0 1.55563e-05 1.99832e-06 0 1.52493e-05 2.69633e-06 0 1.48395e-05 3.50119e-06 0 1.43002e-05 4.45198e-06 0 1.35845e-05 5.60233e-06 0 1.26085e-05 7.0288e-06 0 1.12243e-05 8.90311e-06 0 9.3371e-06 1.05796e-05 0 7.58519e-06 8.24676e-06 0 6.31949e-06 6.61129e-06 0 5.36989e-06 5.34838e-06 0 4.60739e-06 4.3427e-06 0 3.96053e-06 3.53753e-06 0 3.20969e-06 -4.0542e-06 0 3.66077e-06 -4.93244e-06 0 4.17111e-06 -6.04859e-06 0 4.77154e-06 -7.48941e-06 0 5.50457e-06 -9.39671e-06 0 6.37871e-06 -1.19832e-05 0 7.27301e-06 -1.01403e-05 0 8.02641e-06 -7.94307e-06 0 8.60907e-06 -6.27776e-06 0 9.05833e-06 -4.96255e-06 0 9.40919e-06 -3.8929e-06 0 9.68351e-06 -2.99559e-06 0 9.89383e-06 -2.22036e-06 0 1.00472e-05 -1.53035e-06 0 1.01477e-05 -8.96719e-07 0 1.01975e-05 -2.95366e-07 0 1.01975e-05 2.95366e-07 0 1.01477e-05 8.96719e-07 0 1.00472e-05 1.53035e-06 0 9.89383e-06 2.22036e-06 0 9.68351e-06 2.99559e-06 0 9.40919e-06 3.8929e-06 0 9.05833e-06 4.96255e-06 0 8.60907e-06 6.27776e-06 0 8.02641e-06 7.94307e-06 0 7.27301e-06 1.01403e-05 0 6.37871e-06 1.19832e-05 0 5.50457e-06 9.39671e-06 0 4.77154e-06 7.48941e-06 0 4.17111e-06 6.04859e-06 0 3.66077e-06 4.93244e-06 0 3.20969e-06 4.0542e-06 0 2.4169e-06 -4.38999e-06 0 2.65771e-06 -5.28931e-06 0 2.88545e-06 -6.43282e-06 0 3.08899e-06 -7.91399e-06 0 3.25656e-06 -9.87383e-06 0 3.38473e-06 -1.24945e-05 0 3.49699e-06 -1.06151e-05 0 3.62216e-06 -8.34285e-06 0 3.76416e-06 -6.60693e-06 0 3.91175e-06 -5.2341e-06 0 4.0533e-06 -4.11594e-06 0 4.18038e-06 -3.17503e-06 0 4.28729e-06 -2.35864e-06 0 4.37023e-06 -1.62863e-06 0 4.42674e-06 -9.55535e-07 0 4.45535e-06 -3.14951e-07 0 4.45535e-06 3.14951e-07 0 4.42674e-06 9.55535e-07 0 4.37023e-06 1.62863e-06 0 4.28729e-06 2.35864e-06 0 4.18038e-06 3.17503e-06 0 4.0533e-06 4.11594e-06 0 3.91175e-06 5.2341e-06 0 3.76416e-06 6.60693e-06 0 3.62216e-06 8.34285e-06 0 3.49699e-06 1.06151e-05 0 3.38473e-06 1.24945e-05 0 3.25656e-06 9.87383e-06 0 3.08899e-06 7.91399e-06 0 2.88545e-06 6.43282e-06 0 2.65771e-06 5.28931e-06 0 2.4169e-06 4.38999e-06 0 1.6276e-06 -4.54507e-06 0 1.66742e-06 -5.40748e-06 0 1.62347e-06 -6.48766e-06 0 1.44283e-06 -7.86783e-06 0 1.05049e-06 -9.68879e-06 0 4.18131e-07 -1.22021e-05 0 -2.56138e-07 -1.03666e-05 0 -7.60765e-07 -8.21606e-06 0 -1.04638e-06 -6.57552e-06 0 -1.18875e-06 -5.25795e-06 0 -1.24831e-06 -4.16582e-06 0 -1.26298e-06 -3.23247e-06 0 -1.25583e-06 -2.41213e-06 0 -1.24098e-06 -1.67103e-06 0 -1.22704e-06 -9.82521e-07 0 -1.21894e-06 -3.24193e-07 0 -1.21894e-06 3.24193e-07 0 -1.22704e-06 9.82521e-07 0 -1.24098e-06 1.67103e-06 0 -1.25583e-06 2.41213e-06 0 -1.26298e-06 3.23247e-06 0 -1.24831e-06 4.16582e-06 0 -1.18875e-06 5.25795e-06 0 -1.04638e-06 6.57552e-06 0 -7.60765e-07 8.21606e-06 0 -2.56138e-07 1.03666e-05 0 4.18131e-07 1.22021e-05 0 1.05049e-06 9.68879e-06 0 1.44283e-06 7.86783e-06 0 1.62347e-06 6.48766e-06 0 1.66742e-06 5.40748e-06 0 1.6276e-06 4.54507e-06 0 8.84355e-07 -4.53687e-06 0 7.54614e-07 -5.31204e-06 0 4.88431e-07 -6.25043e-06 0 -7.78516e-10 -7.39744e-06 0 -8.76602e-07 -8.83418e-06 0 -2.49212e-06 -1.08368e-05 0 -4.45704e-06 -9.32168e-06 0 -5.55221e-06 -7.60473e-06 0 -6.18205e-06 -6.22557e-06 0 -6.5571e-06 -5.06208e-06 0 -6.78274e-06 -4.05995e-06 0 -6.91785e-06 -3.17874e-06 0 -6.99735e-06 -2.3876e-06 0 -7.0426e-06 -1.66164e-06 0 -7.06661e-06 -9.79872e-07 0 -7.07689e-06 -3.23787e-07 0 -7.07689e-06 3.23787e-07 0 -7.06661e-06 9.79872e-07 0 -7.0426e-06 1.66164e-06 0 -6.99735e-06 2.3876e-06 0 -6.91785e-06 3.17874e-06 0 -6.78274e-06 4.05995e-06 0 -6.5571e-06 5.06208e-06 0 -6.18205e-06 6.22557e-06 0 -5.55221e-06 7.60473e-06 0 -4.45704e-06 9.32168e-06 0 -2.49212e-06 1.08368e-05 0 -8.76602e-07 8.83418e-06 0 -7.78516e-10 7.39744e-06 0 4.88431e-07 6.25043e-06 0 7.54614e-07 5.31204e-06 0 8.84355e-07 4.53687e-06 0 2.29166e-07 -4.39849e-06 0 -1.87533e-08 -5.05568e-06 0 -4.21471e-07 -5.80933e-06 0 -1.06367e-06 -6.65399e-06 0 -2.09754e-06 -7.54152e-06 0 -3.85476e-06 -8.16896e-06 0 -5.97826e-06 -7.70408e-06 0 -7.22198e-06 -6.68925e-06 0 -7.9997e-06 -5.66317e-06 0 -8.50437e-06 -4.70805e-06 0 -8.83706e-06 -3.83492e-06 0 -9.05713e-06 -3.03612e-06 0 -9.20145e-06 -2.29874e-06 0 -9.29338e-06 -1.60869e-06 0 -9.34758e-06 -9.51982e-07 0 -9.37268e-06 -3.15113e-07 0 -9.37268e-06 3.15113e-07 0 -9.34758e-06 9.51982e-07 0 -9.29338e-06 1.60869e-06 0 -9.20145e-06 2.29874e-06 0 -9.05713e-06 3.03612e-06 0 -8.83706e-06 3.83492e-06 0 -8.50437e-06 4.70805e-06 0 -7.9997e-06 5.66317e-06 0 -7.22198e-06 6.68925e-06 0 -5.97826e-06 7.70408e-06 0 -3.85476e-06 8.16896e-06 0 -2.09754e-06 7.54152e-06 0 -1.06367e-06 6.65399e-06 0 -4.21471e-07 5.80933e-06 0 -1.87533e-08 5.05568e-06 0 2.29166e-07 4.39849e-06 0 -3.32939e-07 -4.16943e-06 0 -6.52424e-07 -4.7013e-06 0 -1.11692e-06 -5.272e-06 0 -1.78171e-06 -5.84618e-06 0 -2.70893e-06 -6.33571e-06 0 -3.90393e-06 -6.568e-06 0 -5.17063e-06 -6.32521e-06 0 -6.2054e-06 -5.7452e-06 0 -6.96863e-06 -5.02127e-06 0 -7.51444e-06 -4.26971e-06 0 -7.90129e-06 -3.53489e-06 0 -8.17324e-06 -2.832e-06 0 -8.3613e-06 -2.1627e-06 0 -8.48663e-06 -1.52258e-06 0 -8.56321e-06 -9.0447e-07 0 -8.5995e-06 -2.99946e-07 0 -8.5995e-06 2.99946e-07 0 -8.56321e-06 9.0447e-07 0 -8.48663e-06 1.52258e-06 0 -8.3613e-06 2.1627e-06 0 -8.17324e-06 2.832e-06 0 -7.90129e-06 3.53489e-06 0 -7.51444e-06 4.26971e-06 0 -6.96863e-06 5.02127e-06 0 -6.2054e-06 5.7452e-06 0 -5.17063e-06 6.32521e-06 0 -3.90393e-06 6.568e-06 0 -2.70893e-06 6.33571e-06 0 -1.78171e-06 5.84618e-06 0 -1.11692e-06 5.272e-06 0 -6.52424e-07 4.7013e-06 0 -3.32939e-07 4.16943e-06 0 -7.8873e-07 -3.88707e-06 0 -1.13745e-06 -4.30423e-06 0 -1.60558e-06 -4.72279e-06 0 -2.21944e-06 -5.10417e-06 0 -2.99139e-06 -5.38258e-06 0 -3.88866e-06 -5.46852e-06 0 -4.80242e-06 -5.30583e-06 0 -5.62919e-06 -4.92097e-06 0 -6.30447e-06 -4.39721e-06 0 -6.8286e-06 -3.80953e-06 0 -7.22409e-06 -3.20057e-06 0 -7.5162e-06 -2.59314e-06 0 -7.72634e-06 -1.99694e-06 0 -7.87082e-06 -1.41426e-06 0 -7.96113e-06 -8.43333e-07 0 -8.00454e-06 -2.80198e-07 0 -8.00454e-06 2.80198e-07 0 -7.96113e-06 8.43333e-07 0 -7.87082e-06 1.41426e-06 0 -7.72634e-06 1.99694e-06 0 -7.5162e-06 2.59314e-06 0 -7.22409e-06 3.20057e-06 0 -6.8286e-06 3.80953e-06 0 -6.30447e-06 4.39721e-06 0 -5.62919e-06 4.92097e-06 0 -4.80242e-06 5.30583e-06 0 -3.88866e-06 5.46852e-06 0 -2.99139e-06 5.38258e-06 0 -2.21944e-06 5.10417e-06 0 -1.60558e-06 4.72279e-06 0 -1.13745e-06 4.30423e-06 0 -7.8873e-07 3.88707e-06 0 -1.15183e-06 -3.58151e-06 0 -1.50305e-06 -3.90305e-06 0 -1.94652e-06 -4.20648e-06 0 -2.49155e-06 -4.46051e-06 0 -3.1336e-06 -4.62293e-06 0 -3.84295e-06 -4.64905e-06 0 -4.56422e-06 -4.51517e-06 0 -5.23476e-06 -4.23117e-06 0 -5.81501e-06 -3.83385e-06 0 -6.29193e-06 -3.36728e-06 0 -6.66998e-06 -2.86285e-06 0 -6.9607e-06 -2.34207e-06 0 -7.17668e-06 -1.81714e-06 0 -7.32891e-06 -1.29395e-06 0 -7.42575e-06 -7.74339e-07 0 -7.4728e-06 -2.5773e-07 0 -7.4728e-06 2.5773e-07 0 -7.42575e-06 7.74339e-07 0 -7.32891e-06 1.29395e-06 0 -7.17668e-06 1.81714e-06 0 -6.9607e-06 2.34207e-06 0 -6.66998e-06 2.86285e-06 0 -6.29193e-06 3.36728e-06 0 -5.81501e-06 3.83385e-06 0 -5.23476e-06 4.23117e-06 0 -4.56422e-06 4.51517e-06 0 -3.84295e-06 4.64905e-06 0 -3.1336e-06 4.62293e-06 0 -2.49155e-06 4.46051e-06 0 -1.94652e-06 4.20648e-06 0 -1.50305e-06 3.90305e-06 0 -1.15183e-06 3.58151e-06 0 -1.44235e-06 -3.27219e-06 0 -1.78204e-06 -3.51796e-06 0 -2.19078e-06 -3.73751e-06 0 -2.66935e-06 -3.90789e-06 0 -3.20864e-06 -4.00259e-06 0 -3.78627e-06 -3.9973e-06 0 -4.36952e-06 -3.87961e-06 0 -4.92235e-06 -3.65433e-06 0 -5.41789e-06 -3.33926e-06 0 -5.84181e-06 -2.96066e-06 0 -6.19073e-06 -2.53981e-06 0 -6.46789e-06 -2.09398e-06 0 -6.67932e-06 -1.63487e-06 0 -6.83141e-06 -1.16963e-06 0 -6.9296e-06 -7.02127e-07 0 -6.97771e-06 -2.34061e-07 0 -6.97771e-06 2.34061e-07 0 -6.9296e-06 7.02127e-07 0 -6.83141e-06 1.16963e-06 0 -6.67932e-06 1.63487e-06 0 -6.46789e-06 2.09398e-06 0 -6.19073e-06 2.53981e-06 0 -5.84181e-06 2.96066e-06 0 -5.41789e-06 3.33926e-06 0 -4.92235e-06 3.65433e-06 0 -4.36952e-06 3.87961e-06 0 -3.78627e-06 3.9973e-06 0 -3.20864e-06 4.00259e-06 0 -2.66935e-06 3.90789e-06 0 -2.19078e-06 3.73751e-06 0 -1.78204e-06 3.51796e-06 0 -1.44235e-06 3.27219e-06 0 -1.66268e-06 -2.97087e-06 0 -1.98297e-06 -3.15807e-06 0 -2.35496e-06 -3.31701e-06 0 -2.77624e-06 -3.43138e-06 0 -3.23784e-06 -3.48414e-06 0 -3.72343e-06 -3.46083e-06 0 -4.21089e-06 -3.35453e-06 0 -4.67726e-06 -3.16736e-06 0 -5.10336e-06 -2.90885e-06 0 -5.47685e-06 -2.59525e-06 0 -5.79211e-06 -2.24073e-06 0 -6.04843e-06 -1.85835e-06 0 -6.24791e-06 -1.45814e-06 0 -6.3937e-06 -1.0472e-06 0 -6.48891e-06 -6.30262e-07 0 -6.53588e-06 -2.10381e-07 0 -6.53588e-06 2.10381e-07 0 -6.48891e-06 6.30262e-07 0 -6.3937e-06 1.0472e-06 0 -6.24791e-06 1.45814e-06 0 -6.04843e-06 1.85835e-06 0 -5.79211e-06 2.24073e-06 0 -5.47685e-06 2.59525e-06 0 -5.10336e-06 2.90885e-06 0 -4.67726e-06 3.16736e-06 0 -4.21089e-06 3.35453e-06 0 -3.72343e-06 3.46083e-06 0 -3.23784e-06 3.48414e-06 0 -2.77624e-06 3.43138e-06 0 -2.35496e-06 3.31701e-06 0 -1.98297e-06 3.15807e-06 0 -1.66268e-06 2.97087e-06 0 -1.83667e-06 -2.68363e-06 0 -2.13538e-06 -2.82597e-06 0 -2.47263e-06 -2.94092e-06 0 -2.84485e-06 -3.0169e-06 0 -3.2442e-06 -3.04262e-06 0 -3.65851e-06 -3.00895e-06 0 -4.07259e-06 -2.91162e-06 0 -4.4706e-06 -2.75164e-06 0 -4.83871e-06 -2.53437e-06 0 -5.1668e-06 -2.27031e-06 0 -5.44886e-06 -1.96897e-06 0 -5.68227e-06 -1.64005e-06 0 -5.86677e-06 -1.29173e-06 0 -6.00334e-06 -9.3047e-07 0 -6.09335e-06 -5.61167e-07 0 -6.13801e-06 -1.87516e-07 0 -6.13801e-06 1.87516e-07 0 -6.09335e-06 5.61167e-07 0 -6.00334e-06 9.3047e-07 0 -5.86677e-06 1.29173e-06 0 -5.68227e-06 1.64005e-06 0 -5.44886e-06 1.96897e-06 0 -5.1668e-06 2.27031e-06 0 -4.83871e-06 2.53437e-06 0 -4.4706e-06 2.75164e-06 0 -4.07259e-06 2.91162e-06 0 -3.65851e-06 3.00895e-06 0 -3.2442e-06 3.04262e-06 0 -2.84485e-06 3.0169e-06 0 -2.47263e-06 2.94092e-06 0 -2.13538e-06 2.82597e-06 0 -1.83667e-06 2.68363e-06 0 -1.97214e-06 -2.41297e-06 0 -2.24923e-06 -2.52106e-06 0 -2.5551e-06 -2.60392e-06 0 -2.88597e-06 -2.65323e-06 0 -3.23525e-06 -2.66126e-06 0 -3.59371e-06 -2.62194e-06 0 -3.95042e-06 -2.53246e-06 0 -4.294e-06 -2.3933e-06 0 -4.61413e-06 -2.20762e-06 0 -4.90264e-06 -1.98253e-06 0 -5.15384e-06 -1.72452e-06 0 -5.36442e-06 -1.44081e-06 0 -5.53282e-06 -1.13794e-06 0 -5.65869e-06 -8.21537e-07 0 -5.74226e-06 -4.96252e-07 0 -5.78391e-06 -1.6596e-07 0 -5.78391e-06 1.6596e-07 0 -5.74226e-06 4.96252e-07 0 -5.65869e-06 8.21537e-07 0 -5.53282e-06 1.13794e-06 0 -5.36442e-06 1.44081e-06 0 -5.15384e-06 1.72452e-06 0 -4.90264e-06 1.98253e-06 0 -4.61413e-06 2.20762e-06 0 -4.294e-06 2.3933e-06 0 -3.95042e-06 2.53246e-06 0 -3.59371e-06 2.62194e-06 0 -3.23525e-06 2.66126e-06 0 -2.88597e-06 2.65323e-06 0 -2.5551e-06 2.60392e-06 0 -2.24923e-06 2.52106e-06 0 -1.97214e-06 2.41297e-06 0 -2.07507e-06 -2.15942e-06 0 -2.33182e-06 -2.24131e-06 0 -2.61028e-06 -2.30056e-06 0 -2.90687e-06 -2.33112e-06 0 -3.21607e-06 -2.32755e-06 0 -3.53072e-06 -2.28566e-06 0 -3.84252e-06 -2.20349e-06 0 -4.14289e-06 -2.08129e-06 0 -4.42388e-06 -1.92101e-06 0 -4.67879e-06 -1.72761e-06 0 -4.90258e-06 -1.50564e-06 0 -5.09181e-06 -1.26054e-06 0 -5.24438e-06 -9.97505e-07 0 -5.35922e-06 -7.21322e-07 0 -5.43587e-06 -4.36224e-07 0 -5.4742e-06 -1.45974e-07 0 -5.4742e-06 1.45974e-07 0 -5.43587e-06 4.36224e-07 0 -5.35922e-06 7.21322e-07 0 -5.24438e-06 9.97505e-07 0 -5.09181e-06 1.26054e-06 0 -4.90258e-06 1.50564e-06 0 -4.67879e-06 1.72761e-06 0 -4.42388e-06 1.92101e-06 0 -4.14289e-06 2.08129e-06 0 -3.84252e-06 2.20349e-06 0 -3.53072e-06 2.28566e-06 0 -3.21607e-06 2.32755e-06 0 -2.90687e-06 2.33112e-06 0 -2.61028e-06 2.30056e-06 0 -2.33182e-06 2.24131e-06 0 -2.07507e-06 2.15942e-06 0 -2.15608e-06 -1.92238e-06 0 -2.39413e-06 -1.98419e-06 0 -2.6485e-06 -2.02602e-06 0 -2.9159e-06 -2.04341e-06 0 -3.19174e-06 -2.03241e-06 0 -3.47033e-06 -1.99006e-06 0 -3.74525e-06 -1.91498e-06 0 -4.00987e-06 -1.80725e-06 0 -4.25792e-06 -1.66815e-06 0 -4.48392e-06 -1.50126e-06 0 -4.68345e-06 -1.30987e-06 0 -4.8532e-06 -1.09809e-06 0 -4.99091e-06 -8.70102e-07 0 -5.09511e-06 -6.29907e-07 0 -5.16493e-06 -3.81255e-07 0 -5.19994e-06 -1.27636e-07 0 -5.19994e-06 1.27636e-07 0 -5.16493e-06 3.81255e-07 0 -5.09511e-06 6.29907e-07 0 -4.99091e-06 8.70102e-07 0 -4.8532e-06 1.09809e-06 0 -4.68345e-06 1.30987e-06 0 -4.48392e-06 1.50126e-06 0 -4.25792e-06 1.66815e-06 0 -4.00987e-06 1.80725e-06 0 -3.74525e-06 1.91498e-06 0 -3.47033e-06 1.99006e-06 0 -3.19174e-06 2.03241e-06 0 -2.9159e-06 2.04341e-06 0 -2.6485e-06 2.02602e-06 0 -2.39413e-06 1.98419e-06 0 -2.15608e-06 1.92238e-06 0 -2.21764e-06 -1.70066e-06 0 -2.43906e-06 -1.74709e-06 0 -2.67277e-06 -1.77609e-06 0 -2.91583e-06 -1.7843e-06 0 -3.16437e-06 -1.76886e-06 0 -3.41376e-06 -1.72757e-06 0 -3.65887e-06 -1.65944e-06 0 -3.89442e-06 -1.56452e-06 0 -4.11534e-06 -1.44365e-06 0 -4.31707e-06 -1.2995e-06 0 -4.49577e-06 -1.13451e-06 0 -4.64843e-06 -9.51839e-07 0 -4.77275e-06 -7.54848e-07 0 -4.86716e-06 -5.46879e-07 0 -4.93061e-06 -3.31187e-07 0 -4.96247e-06 -1.10908e-07 0 -4.96247e-06 1.10908e-07 0 -4.93061e-06 3.31187e-07 0 -4.86716e-06 5.46879e-07 0 -4.77275e-06 7.54848e-07 0 -4.64843e-06 9.51839e-07 0 -4.49577e-06 1.13451e-06 0 -4.31707e-06 1.2995e-06 0 -4.11534e-06 1.44365e-06 0 -3.89442e-06 1.56452e-06 0 -3.65887e-06 1.65944e-06 0 -3.41376e-06 1.72757e-06 0 -3.16437e-06 1.76886e-06 0 -2.91583e-06 1.7843e-06 0 -2.67277e-06 1.77609e-06 0 -2.43906e-06 1.74709e-06 0 -2.21764e-06 1.70066e-06 0 -2.26481e-06 -1.49281e-06 0 -2.47158e-06 -1.52743e-06 0 -2.68758e-06 -1.547e-06 0 -2.91018e-06 -1.54897e-06 0 -3.13608e-06 -1.5312e-06 0 -3.36145e-06 -1.49207e-06 0 -3.58208e-06 -1.43085e-06 0 -3.79366e-06 -1.34757e-06 0 -3.99202e-06 -1.24281e-06 0 -4.17332e-06 -1.11862e-06 0 -4.33424e-06 -9.76811e-07 0 -4.47203e-06 -8.19883e-07 0 -4.58454e-06 -6.50526e-07 0 -4.67019e-06 -4.71521e-07 0 -4.72786e-06 -2.85654e-07 0 -4.75686e-06 -9.56783e-08 0 -4.75686e-06 9.56783e-08 0 -4.72786e-06 2.85654e-07 0 -4.67019e-06 4.71521e-07 0 -4.58454e-06 6.50526e-07 0 -4.47203e-06 8.19883e-07 0 -4.33424e-06 9.76811e-07 0 -4.17332e-06 1.11862e-06 0 -3.99202e-06 1.24281e-06 0 -3.79366e-06 1.34757e-06 0 -3.58208e-06 1.43085e-06 0 -3.36145e-06 1.49207e-06 0 -3.13608e-06 1.5312e-06 0 -2.91018e-06 1.54897e-06 0 -2.68758e-06 1.547e-06 0 -2.47158e-06 1.52743e-06 0 -2.26481e-06 1.49281e-06 0 -2.30149e-06 -1.29729e-06 0 -2.49538e-06 -1.32289e-06 0 -2.69611e-06 -1.33561e-06 0 -2.90133e-06 -1.33352e-06 0 -3.1082e-06 -1.315e-06 0 -3.31349e-06 -1.27884e-06 0 -3.51369e-06 -1.22451e-06 0 -3.70523e-06 -1.15202e-06 0 -3.88461e-06 -1.06179e-06 0 -4.04858e-06 -9.55419e-07 0 -4.19425e-06 -8.34291e-07 0 -4.31917e-06 -7.00375e-07 0 -4.42135e-06 -5.55847e-07 0 -4.49925e-06 -4.03002e-07 0 -4.55177e-06 -2.44197e-07 0 -4.5782e-06 -8.18024e-08 0 -4.5782e-06 8.18024e-08 0 -4.55177e-06 2.44197e-07 0 -4.49925e-06 4.03002e-07 0 -4.42135e-06 5.55847e-07 0 -4.31917e-06 7.00375e-07 0 -4.19425e-06 8.34291e-07 0 -4.04858e-06 9.55419e-07 0 -3.88461e-06 1.06179e-06 0 -3.70523e-06 1.15202e-06 0 -3.51369e-06 1.22451e-06 0 -3.31349e-06 1.27884e-06 0 -3.1082e-06 1.315e-06 0 -2.90133e-06 1.33352e-06 0 -2.69611e-06 1.33561e-06 0 -2.49538e-06 1.32289e-06 0 -2.30149e-06 1.29729e-06 0 -2.32836e-06 -1.11254e-06 0 -2.5114e-06 -1.13126e-06 0 -2.6995e-06 -1.1391e-06 0 -2.89055e-06 -1.13459e-06 0 -3.08204e-06 -1.1165e-06 0 -3.27119e-06 -1.08391e-06 0 -3.45501e-06 -1.03644e-06 0 -3.63045e-06 -9.74112e-07 0 -3.79452e-06 -8.97219e-07 0 -3.94441e-06 -8.07024e-07 0 -4.07759e-06 -7.04597e-07 0 -4.19186e-06 -5.91499e-07 0 -4.2854e-06 -4.69482e-07 0 -4.35677e-06 -3.40429e-07 0 -4.40493e-06 -2.06305e-07 0 -4.42918e-06 -6.91137e-08 0 -4.42918e-06 6.91137e-08 0 -4.40493e-06 2.06305e-07 0 -4.35677e-06 3.40429e-07 0 -4.2854e-06 4.69482e-07 0 -4.19186e-06 5.91499e-07 0 -4.07759e-06 7.04597e-07 0 -3.94441e-06 8.07024e-07 0 -3.79452e-06 8.97219e-07 0 -3.63045e-06 9.74112e-07 0 -3.45501e-06 1.03644e-06 0 -3.27119e-06 1.08391e-06 0 -3.08204e-06 1.1165e-06 0 -2.89055e-06 1.13459e-06 0 -2.6995e-06 1.1391e-06 0 -2.5114e-06 1.13126e-06 0 -2.32836e-06 1.11254e-06 0 -2.34893e-06 -9.37027e-07 0 -2.52271e-06 -9.50524e-07 0 -2.70016e-06 -9.54988e-07 0 -2.87935e-06 -9.49289e-07 0 -3.05806e-06 -9.32501e-07 0 -3.23385e-06 -9.03938e-07 0 -3.40412e-06 -8.63313e-07 0 -3.56625e-06 -8.10649e-07 0 -3.71763e-06 -7.46176e-07 0 -3.8558e-06 -6.70881e-07 0 -3.97852e-06 -5.85595e-07 0 -4.08383e-06 -4.91551e-07 0 -4.17007e-06 -3.90148e-07 0 -4.2359e-06 -2.82913e-07 0 -4.28033e-06 -1.71457e-07 0 -4.30271e-06 -5.74413e-08 0 -4.30271e-06 5.74413e-08 0 -4.28033e-06 1.71457e-07 0 -4.2359e-06 2.82913e-07 0 -4.17007e-06 3.90148e-07 0 -4.08383e-06 4.91551e-07 0 -3.97852e-06 5.85595e-07 0 -3.8558e-06 6.70881e-07 0 -3.71763e-06 7.46176e-07 0 -3.56625e-06 8.10649e-07 0 -3.40412e-06 8.63313e-07 0 -3.23385e-06 9.03938e-07 0 -3.05806e-06 9.32501e-07 0 -2.87935e-06 9.49289e-07 0 -2.70016e-06 9.54988e-07 0 -2.52271e-06 9.50524e-07 0 -2.34893e-06 9.37027e-07 0 -2.36421e-06 -7.69311e-07 0 -2.53032e-06 -7.78871e-07 0 -2.69903e-06 -7.81104e-07 0 -2.86857e-06 -7.75156e-07 0 -3.03693e-06 -7.60333e-07 0 -3.20194e-06 -7.36124e-07 0 -3.3613e-06 -7.02321e-07 0 -3.5127e-06 -6.58947e-07 0 -3.65382e-06 -6.06179e-07 0 -3.7825e-06 -5.44784e-07 0 -3.89673e-06 -4.75402e-07 0 -3.99472e-06 -3.98995e-07 0 -4.07496e-06 -3.16665e-07 0 -4.13623e-06 -2.29623e-07 0 -4.17759e-06 -1.39162e-07 0 -4.19842e-06 -4.66221e-08 0 -4.19842e-06 4.66221e-08 0 -4.17759e-06 1.39162e-07 0 -4.13623e-06 2.29623e-07 0 -4.07496e-06 3.16665e-07 0 -3.99472e-06 3.98995e-07 0 -3.89673e-06 4.75402e-07 0 -3.7825e-06 5.44784e-07 0 -3.65382e-06 6.06179e-07 0 -3.5127e-06 6.58947e-07 0 -3.3613e-06 7.02321e-07 0 -3.20194e-06 7.36124e-07 0 -3.03693e-06 7.60333e-07 0 -2.86857e-06 7.75156e-07 0 -2.69903e-06 7.81104e-07 0 -2.53032e-06 7.78871e-07 0 -2.36421e-06 7.69311e-07 0 -2.37507e-06 -6.0796e-07 0 -2.53512e-06 -6.14557e-07 0 -2.69698e-06 -6.15421e-07 0 -2.859e-06 -6.09923e-07 0 -3.01934e-06 -5.97553e-07 0 -3.17601e-06 -5.77939e-07 0 -3.32696e-06 -5.50933e-07 0 -3.47006e-06 -5.16559e-07 0 -3.60327e-06 -4.74949e-07 0 -3.72459e-06 -4.26684e-07 0 -3.83221e-06 -3.72248e-07 0 -3.9245e-06 -3.1237e-07 0 -4.00006e-06 -2.47891e-07 0 -4.05775e-06 -1.79745e-07 0 -4.09669e-06 -1.08932e-07 0 -4.11631e-06 -3.64941e-08 0 -4.11631e-06 3.64941e-08 0 -4.09669e-06 1.08932e-07 0 -4.05775e-06 1.79745e-07 0 -4.00006e-06 2.47891e-07 0 -3.9245e-06 3.1237e-07 0 -3.83221e-06 3.72248e-07 0 -3.72459e-06 4.26684e-07 0 -3.60327e-06 4.74949e-07 0 -3.47006e-06 5.16559e-07 0 -3.32696e-06 5.50933e-07 0 -3.17601e-06 5.77939e-07 0 -3.01934e-06 5.97553e-07 0 -2.859e-06 6.09923e-07 0 -2.69698e-06 6.15421e-07 0 -2.53512e-06 6.14557e-07 0 -2.37507e-06 6.0796e-07 0 -2.3829e-06 -4.51635e-07 0 -2.53821e-06 -4.55993e-07 0 -2.69476e-06 -4.56126e-07 0 -2.85096e-06 -4.51591e-07 0 -3.00512e-06 -4.4203e-07 0 -3.15539e-06 -4.27185e-07 0 -3.29986e-06 -4.06954e-07 0 -3.43661e-06 -3.81358e-07 0 -3.56372e-06 -3.50492e-07 0 -3.67938e-06 -3.14777e-07 0 -3.78192e-06 -2.74556e-07 0 -3.8698e-06 -2.30358e-07 0 -3.94173e-06 -1.82791e-07 0 -3.99664e-06 -1.32535e-07 0 -4.03371e-06 -8.03181e-08 0 -4.05238e-06 -2.69077e-08 0 -4.05238e-06 2.69077e-08 0 -4.03371e-06 8.03181e-08 0 -3.99664e-06 1.32535e-07 0 -3.94173e-06 1.82791e-07 0 -3.8698e-06 2.30358e-07 0 -3.78192e-06 2.74556e-07 0 -3.67938e-06 3.14777e-07 0 -3.56372e-06 3.50492e-07 0 -3.43661e-06 3.81358e-07 0 -3.29986e-06 4.06954e-07 0 -3.15539e-06 4.27185e-07 0 -3.00512e-06 4.4203e-07 0 -2.85096e-06 4.51591e-07 0 -2.69476e-06 4.56126e-07 0 -2.53821e-06 4.55993e-07 0 -2.3829e-06 4.51635e-07 0 -2.38794e-06 -2.99046e-07 0 -2.53998e-06 -3.0168e-07 0 -2.69286e-06 -3.01532e-07 0 -2.84507e-06 -2.98321e-07 0 -2.995e-06 -2.91818e-07 0 -3.14088e-06 -2.8186e-07 0 -3.28094e-06 -2.68385e-07 0 -3.41333e-06 -2.51407e-07 0 -3.53628e-06 -2.30989e-07 0 -3.64808e-06 -2.07402e-07 0 -3.74712e-06 -1.80871e-07 0 -3.83199e-06 -1.51736e-07 0 -3.90143e-06 -1.20395e-07 0 -3.95443e-06 -8.72894e-08 0 -3.99021e-06 -5.28974e-08 0 -4.00823e-06 -1.77212e-08 0 -4.00823e-06 1.77212e-08 0 -3.99021e-06 5.28974e-08 0 -3.95443e-06 8.72894e-08 0 -3.90143e-06 1.20395e-07 0 -3.83199e-06 1.51736e-07 0 -3.74712e-06 1.80871e-07 0 -3.64808e-06 2.07402e-07 0 -3.53628e-06 2.30989e-07 0 -3.41333e-06 2.51407e-07 0 -3.28094e-06 2.68385e-07 0 -3.14088e-06 2.8186e-07 0 -2.995e-06 2.91818e-07 0 -2.84507e-06 2.98321e-07 0 -2.69286e-06 3.01532e-07 0 -2.53998e-06 3.0168e-07 0 -2.38794e-06 2.99046e-07 0 -2.39079e-06 -1.48907e-07 0 -2.54088e-06 -1.50143e-07 0 -2.69159e-06 -1.49999e-07 0 -2.84145e-06 -1.48337e-07 0 -2.98887e-06 -1.45048e-07 0 -3.13217e-06 -1.40051e-07 0 -3.26962e-06 -1.33317e-07 0 -3.39945e-06 -1.24854e-07 0 -3.51995e-06 -1.14693e-07 0 -3.62946e-06 -1.02966e-07 0 -3.72645e-06 -8.9785e-08 0 -3.80952e-06 -7.53168e-08 0 -3.87749e-06 -5.9757e-08 0 -3.92936e-06 -4.33239e-08 0 -3.96437e-06 -2.62538e-08 0 -3.98201e-06 -8.79525e-09 0 -3.98201e-06 8.79525e-09 0 -3.96437e-06 2.62538e-08 0 -3.92936e-06 4.33239e-08 0 -3.87749e-06 5.9757e-08 0 -3.80952e-06 7.53168e-08 0 -3.72645e-06 8.9785e-08 0 -3.62946e-06 1.02966e-07 0 -3.51995e-06 1.14693e-07 0 -3.39945e-06 1.24854e-07 0 -3.26962e-06 1.33317e-07 0 -3.13217e-06 1.40051e-07 0 -2.98887e-06 1.45048e-07 0 -2.84145e-06 1.48337e-07 0 -2.69159e-06 1.49999e-07 0 -2.54088e-06 1.50143e-07 0 -2.39079e-06 1.48907e-07 0 -2.39184e-06 -0 0 -2.5412e-06 -0 0 -2.69109e-06 -0 0 -2.84006e-06 -0 0 -2.98654e-06 -0 0 -3.12888e-06 -0 0 -3.26534e-06 -0 0 -3.39422e-06 -0 0 -3.51379e-06 -0 0 -3.62245e-06 -0 0 -3.71866e-06 -0 0 -3.80107e-06 -0 0 -3.86849e-06 -0 0 -3.91994e-06 -0 0 -3.95466e-06 -0 0 -3.97215e-06 -0 0 -3.97215e-06 -0 0 -3.95466e-06 -0 0 -3.91994e-06 -0 0 -3.86849e-06 -0 0 -3.80107e-06 -0 0 -3.71866e-06 -0 0 -3.62245e-06 -0 0 -3.51379e-06 -0 0 -3.39422e-06 -0 0 -3.26534e-06 -0 0 -3.12888e-06 -0 0 -2.98654e-06 -0 0 -2.84006e-06 -0 0 -2.69109e-06 -0 0 -2.5412e-06 -0 0 -2.39184e-06 -0 0 </DataArray> 
</PointData> 
<Points> 
<DataArray type="Float32" NumberOfComponents="3"> 