<?xml version="1.0"?> 
<VTKFile type="StructuredGrid" version="0.1"> 
<StructuredGrid WholeExtent="0 31 0 31 0 0"> 
<Piece Extent="0 31 0 31 0 0"> 
<PointData>
<DataArray type="Float32" Name="B" format="ascii" NumberOfComponents="3"> 
-5.23282e-05 4.90362e-05 0 -6.21694e-05 -4.00685e-07 0 -6.55767e-05 3.9042e-07 0 -7.27143e-05 6.25692e-07 0 -8.13784e-05 7.35324e-07 0 -9.08169e-05 7.81084e-07 0 -0.00010042 7.7758e-07 0 -0.000109637 7.34331e-07 0 -0.000118046 6.62787e-07 0 -0.000125393 5.75485e-07 0 -0.000131579 4.81611e-07 0 -0.000136601 3.87314e-07 0 -0.000140508 2.95707e-07 0 -0.000143365 2.07767e-07 0 -0.000145233 1.23154e-07 0 -0.000146155 4.07866e-08 0 -0.000146155 -4.07866e-08 0 -0.000145233 -1.23154e-07 0 -0.000143365 -2.07767e-07 0 -0.000140508 -2.95707e-07 0 -0.000136601 -3.87314e-07 0 -0.000131579 -4.81611e-07 0 -0.000125393 -5.75485e-07 0 -0.000118046 -6.62787e-07 0 -0.000109637 -7.34331e-07 0 -0.00010042 -7.7758e-07 0 -9.08169e-05 -7.81084e-07 0 -8.13784e-05 -7.35324e-07 0 -7.27143e-05 -6.25692e-07 0 -6.55767e-05 -3.9042e-07 0 -6.21694e-05 4.00685e-07 0 -5.23282e-05 -4.90362e-05 0 4.19475e-06 -6.30617e-05 0 -2.47528e-06 6.18645e-08 0 -2.52911e-06 -1.33602e-08 0 -2.75395e-06 -1.99066e-08 0 -3.04352e-06 -2.30837e-08 0 -3.36372e-06 -2.44121e-08 0 -3.69185e-06 -2.42199e-08 0 -4.00919e-06 -2.27768e-08 0 -4.30141e-06 -2.04566e-08 0 -4.55942e-06 -1.76718e-08 0 -4.77887e-06 -1.47193e-08 0 -4.95867e-06 -1.17892e-08 0 -5.09966e-06 -8.97135e-09 0 -5.20339e-06 -6.28797e-09 0 -5.27149e-06 -3.72117e-09 0 -5.3052e-06 -1.23139e-09 0 -5.3052e-06 1.23139e-09 0 -5.27149e-06 3.72117e-09 0 -5.20339e-06 6.28797e-09 0 -5.09966e-06 8.97135e-09 0 -4.95867e-06 1.17892e-08 0 -4.77887e-06 1.47193e-08 0 -4.55942e-06 1.76718e-08 0 -4.30141e-06 2.04566e-08 0 -4.00919e-06 2.27768e-08 0 -3.69185e-06 2.42199e-08 0 -3.36372e-06 2.44121e-08 0 -3.04352e-06 2.30837e-08 0 -2.75395e-06 1.99066e-08 0 -2.52911e-06 1.33602e-08 0 -2.47528e-06 -6.18645e-08 0 4.19475e-06 6.30617e-05 0 3.80858e-06 -6.1151e-05 0 4.02592e-08 4.04522e-08 0 4.17233e-08 7.04274e-11 0 4.56788e-08 1.01578e-10 0 5.06725e-08 1.15875e-10 0 5.61678e-08 1.21883e-10 0 6.17862e-08 1.2042e-10 0 6.72066e-08 1.12658e-10 0 7.21832e-08 1.00562e-10 0 7.6563e-08 8.6319e-11 0 8.0276e-08 7.14682e-11 0 8.33098e-08 5.69456e-11 0 8.56828e-08 4.31532e-11 0 8.74255e-08 3.0151e-11 0 8.85681e-08 1.78059e-11 0 8.91333e-08 5.88605e-12 0 8.91333e-08 -5.88605e-12 0 8.85681e-08 -1.78059e-11 0 8.74255e-08 -3.0151e-11 0 8.56828e-08 -4.31532e-11 0 8.33098e-08 -5.69456e-11 0 8.0276e-08 -7.14682e-11 0 7.6563e-08 -8.6319e-11 0 7.21832e-08 -1.00562e-10 0 6.72066e-08 -1.12658e-10 0 6.17862e-08 -1.2042e-10 0 5.61678e-08 -1.21883e-10 0 5.06725e-08 -1.15875e-10 0 4.56788e-08 -1.01578e-10 0 4.17233e-08 -7.04274e-11 0 4.02592e-08 -4.04522e-08 0 3.80858e-06 6.1151e-05 0 2.9751e-06 -5.35496e-05 0 -8.84638e-11 3.1796e-08 0 1.16157e-11 -8.95804e-13 0 1.00713e-11 2.57313e-12 0 8.98737e-12 3.00538e-12 0 8.09903e-12 3.18584e-12 0 7.33694e-12 3.16647e-12 0 6.74876e-12 2.98449e-12 0 6.37521e-12 2.68752e-12 0 6.20795e-12 2.32793e-12 0 6.20012e-12 1.94381e-12 0 6.29159e-12 1.56017e-12 0 6.42688e-12 1.18927e-12 0 6.56262e-12 8.34606e-13 0 6.66852e-12 4.94324e-13 0 6.72588e-12 1.63647e-13 0 6.72588e-12 -1.63647e-13 0 6.66852e-12 -4.94324e-13 0 6.56262e-12 -8.34606e-13 0 6.42688e-12 -1.18927e-12 0 6.29159e-12 -1.56017e-12 0 6.20012e-12 -1.94381e-12 0 6.20795e-12 -2.32793e-12 0 6.37521e-12 -2.68752e-12 0 6.74876e-12 -2.98449e-12 0 7.33694e-12 -3.16647e-12 0 8.09903e-12 -3.18584e-12 0 8.98737e-12 -3.00538e-12 0 1.00713e-11 -2.57313e-12 0 1.16157e-11 8.95804e-13 0 -8.84638e-11 -3.1796e-08 0 2.9751e-06 5.35496e-05 0 2.31581e-06 -4.56154e-05 0 -7.60068e-11 2.574e-08 0 -8.03446e-12 -1.94863e-12 0 -8.6011e-12 -4.59702e-14 0 -9.51842e-12 -5.38709e-14 0 -1.05313e-11 -5.69277e-14 0 -1.15683e-11 -5.64489e-14 0 -1.25704e-11 -5.30503e-14 0 -1.34922e-11 -4.7609e-14 0 -1.43052e-11 -4.10942e-14 0 -1.49958e-11 -3.42018e-14 0 -1.55611e-11 -2.7375e-14 0 -1.6004e-11 -2.08203e-14 0 -1.63296e-11 -1.45868e-14 0 -1.65432e-11 -8.62997e-15 0 -1.66489e-11 -2.85538e-15 0 -1.66489e-11 2.85538e-15 0 -1.65432e-11 8.62997e-15 0 -1.63296e-11 1.45868e-14 0 -1.6004e-11 2.08203e-14 0 -1.55611e-11 2.7375e-14 0 -1.49958e-11 3.42018e-14 0 -1.43052e-11 4.10942e-14 0 -1.34922e-11 4.7609e-14 0 -1.25704e-11 5.30503e-14 0 -1.15683e-11 5.64489e-14 0 -1.05313e-11 5.69277e-14 0 -9.51842e-12 5.38709e-14 0 -8.6011e-12 4.59702e-14 0 -8.03446e-12 1.94863e-12 0 -7.60068e-11 -2.574e-08 0 2.31581e-06 4.56154e-05 0 1.84824e-06 -3.86465e-05 0 -4.90727e-11 2.12201e-08 0 -2.69995e-14 -1.51477e-12 0 9.00772e-14 5.26447e-16 0 1.00184e-13 3.46338e-17 0 1.11176e-13 3.66769e-17 0 1.22404e-13 3.49582e-17 0 1.33227e-13 3.12061e-17 0 1.43152e-13 2.62699e-17 0 1.51876e-13 2.11328e-17 0 1.59263e-13 1.63989e-17 0 1.65292e-13 1.23092e-17 0 1.70004e-13 8.86355e-18 0 1.73461e-13 5.9498e-18 0 1.75727e-13 3.41827e-18 0 1.76848e-13 1.11412e-18 0 1.76848e-13 -1.11412e-18 0 1.75727e-13 -3.41827e-18 0 1.73461e-13 -5.9498e-18 0 1.70004e-13 -8.86355e-18 0 1.65292e-13 -1.23092e-17 0 1.59263e-13 -1.63989e-17 0 1.51876e-13 -2.11328e-17 0 1.43152e-13 -2.62699e-17 0 1.33227e-13 -3.12061e-17 0 1.22404e-13 -3.49582e-17 0 1.11176e-13 -3.66769e-17 0 1.00184e-13 -3.46338e-17 0 9.00772e-14 -5.26447e-16 0 -2.69995e-14 1.51477e-12 0 -4.90727e-11 -2.12201e-08 0 1.84824e-06 3.86465e-05 0 1.51772e-06 -3.26984e-05 0 -3.79065e-11 1.76712e-08 0 -8.42605e-14 -1.22923e-12 0 4.71932e-16 4.21449e-16 0 6.05784e-16 7.99697e-18 0 6.66267e-16 1.00743e-17 0 7.2854e-16 1.00061e-17 0 7.89039e-16 9.42224e-18 0 8.4506e-16 8.47536e-18 0 8.94823e-16 7.33291e-18 0 9.3739e-16 6.1163e-18 0 9.72443e-16 4.90453e-18 0 1.00004e-15 3.73571e-18 0 1.02041e-15 2.62013e-18 0 1.03381e-15 1.55126e-18 0 1.04045e-15 5.1345e-19 0 1.04045e-15 -5.1345e-19 0 1.03381e-15 -1.55126e-18 0 1.02041e-15 -2.62013e-18 0 1.00004e-15 -3.73571e-18 0 9.72443e-16 -4.90453e-18 0 9.3739e-16 -6.1163e-18 0 8.94823e-16 -7.33291e-18 0 8.4506e-16 -8.47536e-18 0 7.89039e-16 -9.42224e-18 0 7.2854e-16 -1.00061e-17 0 6.66267e-16 -1.00743e-17 0 6.05784e-16 -7.99697e-18 0 4.71932e-16 -4.21449e-16 0 -8.42605e-14 1.22923e-12 0 -3.79065e-11 -1.76712e-08 0 1.51772e-06 3.26984e-05 0 1.28029e-06 -2.76007e-05 0 -3.07407e-11 1.47705e-08 0 -6.90563e-14 -1.01065e-12 0 -8.92656e-17 3.48001e-16 0 -2.51144e-17 -1.3689e-18 0 -2.78185e-17 -1.16476e-19 0 -3.05732e-17 -1.14857e-19 0 -3.32337e-17 -1.07835e-19 0 -3.56795e-17 -9.66626e-20 0 -3.7835e-17 -8.33351e-20 0 -3.9665e-17 -6.92802e-20 0 -4.11619e-17 -5.53978e-20 0 -4.23339e-17 -4.21005e-20 0 -4.31953e-17 -2.94786e-20 0 -4.37603e-17 -1.74336e-20 0 -4.40399e-17 -5.76711e-21 0 -4.40399e-17 5.76711e-21 0 -4.37603e-17 1.74336e-20 0 -4.31953e-17 2.94786e-20 0 -4.23339e-17 4.21005e-20 0 -4.11619e-17 5.53978e-20 0 -3.9665e-17 6.92802e-20 0 -3.7835e-17 8.33351e-20 0 -3.56795e-17 9.66626e-20 0 -3.32337e-17 1.07835e-19 0 -3.05732e-17 1.14857e-19 0 -2.78185e-17 1.16476e-19 0 -2.51144e-17 1.3689e-18 0 -8.92656e-17 -3.48001e-16 0 -6.90563e-14 1.01065e-12 0 -3.07407e-11 -1.47705e-08 0 1.28029e-06 2.76007e-05 0 1.10723e-06 -2.31708e-05 0 -2.59208e-11 1.23213e-08 0 -5.8366e-14 -8.33947e-13 0 -5.69595e-17 2.91806e-16 0 3.10532e-19 -1.0461e-18 0 3.32848e-19 -1.06408e-21 0 3.66311e-19 -6.02315e-22 0 3.9858e-19 -5.70825e-22 0 4.28191e-19 -5.17204e-22 0 4.54235e-19 -4.50785e-22 0 4.76301e-19 -3.78516e-22 0 4.94319e-19 -3.05239e-22 0 5.08406e-19 -2.33536e-22 0 5.18748e-19 -1.64335e-22 0 5.25526e-19 -9.75061e-23 0 5.28878e-19 -3.23081e-23 0 5.28878e-19 3.23081e-23 0 5.25526e-19 9.75061e-23 0 5.18748e-19 1.64335e-22 0 5.08406e-19 2.33536e-22 0 4.94319e-19 3.05239e-22 0 4.76301e-19 3.78516e-22 0 4.54235e-19 4.50785e-22 0 4.28191e-19 5.17204e-22 0 3.9858e-19 5.70825e-22 0 3.66311e-19 6.02315e-22 0 3.32848e-19 1.06408e-21 0 3.10532e-19 1.0461e-18 0 -5.69595e-17 -2.91806e-16 0 -5.8366e-14 8.33947e-13 0 -2.59208e-11 -1.23213e-08 0 1.10723e-06 2.31708e-05 0 9.7835e-07 -1.92562e-05 0 -2.25181e-11 1.01964e-08 0 -5.07924e-14 -6.85043e-13 0 -5.03515e-17 2.42272e-16 0 1.78909e-20 -8.62554e-19 0 9.78042e-21 -3.9796e-22 0 1.07231e-20 -1.64086e-23 0 1.16368e-20 -1.57179e-23 0 1.24796e-20 -1.43472e-23 0 1.32251e-20 -1.25978e-23 0 1.38601e-20 -1.06492e-23 0 1.43812e-20 -8.63585e-24 0 1.47902e-20 -6.63645e-24 0 1.50913e-20 -4.6851e-24 0 1.52891e-20 -2.78574e-24 0 1.53871e-20 -9.24018e-25 0 1.53871e-20 9.24018e-25 0 1.52891e-20 2.78574e-24 0 1.50913e-20 4.6851e-24 0 1.47902e-20 6.63645e-24 0 1.43812e-20 8.63585e-24 0 1.38601e-20 1.06492e-23 0 1.32251e-20 1.25978e-23 0 1.24796e-20 1.43472e-23 0 1.16368e-20 1.57179e-23 0 1.07231e-20 1.64086e-23 0 9.78042e-21 3.9796e-22 0 1.78909e-20 8.62554e-19 0 -5.03515e-17 -2.42272e-16 0 -5.07924e-14 6.85043e-13 0 -2.25181e-11 -1.01964e-08 0 9.7835e-07 1.92562e-05 0 8.82171e-07 -1.57368e-05 0 -2.00736e-11 8.30865e-09 0 -4.533e-14 -5.5537e-13 0 -4.52807e-17 1.97861e-16 0 8.46825e-21 -7.01332e-19 0 4.82764e-22 -3.07726e-22 0 5.27792e-22 3.38107e-24 0 5.72297e-22 3.09241e-24 0 6.13417e-22 2.74346e-24 0 6.4985e-22 2.33984e-24 0 6.80939e-22 1.92566e-24 0 7.06486e-22 1.52639e-24 0 7.26562e-22 1.15183e-24 0 7.4136e-22 8.02237e-25 0 7.51086e-22 4.72772e-25 0 7.55904e-22 1.56118e-25 0 7.55904e-22 -1.56118e-25 0 7.51086e-22 -4.72772e-25 0 7.4136e-22 -8.02237e-25 0 7.26562e-22 -1.15183e-24 0 7.06486e-22 -1.52639e-24 0 6.80939e-22 -1.92566e-24 0 6.4985e-22 -2.33984e-24 0 6.13417e-22 -2.74346e-24 0 5.72297e-22 -3.09241e-24 0 5.27792e-22 -3.38107e-24 0 4.82764e-22 3.07726e-22 0 8.46825e-21 7.01332e-19 0 -4.52807e-17 -1.97861e-16 0 -4.533e-14 5.5537e-13 0 -2.00736e-11 -8.30865e-09 0 8.82171e-07 1.57368e-05 0 8.10581e-07 -1.2518e-05 0 -1.83017e-11 6.59592e-09 0 -4.13595e-14 -4.39316e-13 0 -4.15261e-17 1.57317e-16 0 7.34667e-21 -5.55918e-19 0 4.20318e-23 -2.45652e-22 0 4.51901e-23 1.46166e-24 0 4.90167e-23 1.32792e-24 0 5.25521e-23 1.18936e-24 0 5.56819e-23 1.0245e-24 0 5.83505e-23 8.51024e-25 0 6.05417e-23 6.8002e-25 0 6.22627e-23 5.16501e-25 0 6.35306e-23 3.61498e-25 0 6.43637e-23 2.13729e-25 0 6.47764e-23 7.06925e-26 0 6.47764e-23 -7.06925e-26 0 6.43637e-23 -2.13729e-25 0 6.35306e-23 -3.61498e-25 0 6.22627e-23 -5.16501e-25 0 6.05417e-23 -6.8002e-25 0 5.83505e-23 -8.51024e-25 0 5.56819e-23 -1.0245e-24 0 5.25521e-23 -1.18936e-24 0 4.90167e-23 -1.32792e-24 0 4.51901e-23 -1.46166e-24 0 4.20318e-23 2.45652e-22 0 7.34667e-21 5.55918e-19 0 -4.15261e-17 -1.57317e-16 0 -4.13595e-14 4.39316e-13 0 -1.83017e-11 -6.59592e-09 0 8.10581e-07 1.2518e-05 0 7.58219e-07 -9.5242e-06 0 -1.70296e-11 5.01151e-09 0 -3.85033e-14 -3.32962e-13 0 -3.87924e-17 1.19655e-16 0 6.80218e-21 -4.21935e-19 0 1.12058e-23 -1.87517e-22 0 1.1497e-23 3.01767e-25 0 1.24878e-23 2.50611e-25 0 1.34023e-23 2.2493e-25 0 1.42092e-23 1.94165e-25 0 1.48949e-23 1.61607e-25 0 1.54564e-23 1.29353e-25 0 1.58963e-23 9.83819e-26 0 1.62199e-23 6.89269e-26 0 1.64322e-23 4.07791e-26 0 1.65373e-23 1.34925e-26 0 1.65373e-23 -1.34925e-26 0 1.64322e-23 -4.07791e-26 0 1.62199e-23 -6.89269e-26 0 1.58963e-23 -9.83819e-26 0 1.54564e-23 -1.29353e-25 0 1.48949e-23 -1.61607e-25 0 1.42092e-23 -1.94165e-25 0 1.34023e-23 -2.2493e-25 0 1.24878e-23 -2.50611e-25 0 1.1497e-23 -3.01767e-25 0 1.12058e-23 1.87517e-22 0 6.80218e-21 4.21935e-19 0 -3.87924e-17 -1.19655e-16 0 -3.85033e-14 3.32962e-13 0 -1.70296e-11 -5.01151e-09 0 7.58219e-07 9.5242e-06 0 7.21525e-07 -6.69355e-06 0 -1.61495e-11 3.5188e-09 0 -3.65245e-14 -2.33398e-13 0 -3.68827e-17 8.40749e-17 0 6.43829e-21 -2.96048e-19 0 3.13853e-24 -1.31843e-22 0 2.68022e-24 6.05531e-26 0 2.90869e-24 3.37927e-26 0 3.12157e-24 3.03723e-26 0 3.30942e-24 2.62539e-26 0 3.46908e-24 2.18791e-26 0 3.59982e-24 1.75312e-26 0 3.70228e-24 1.33452e-26 0 3.77763e-24 9.35571e-27 0 3.82709e-24 5.53744e-27 0 3.85156e-24 1.83255e-27 0 3.85156e-24 -1.83255e-27 0 3.82709e-24 -5.53744e-27 0 3.77763e-24 -9.35571e-27 0 3.70228e-24 -1.33452e-26 0 3.59982e-24 -1.75312e-26 0 3.46908e-24 -2.18791e-26 0 3.30942e-24 -2.62539e-26 0 3.12157e-24 -3.03723e-26 0 2.90869e-24 -3.37927e-26 0 2.68022e-24 -6.05531e-26 0 3.13853e-24 1.31843e-22 0 6.43829e-21 2.96048e-19 0 -3.68827e-17 -8.40749e-17 0 -3.65245e-14 2.33398e-13 0 -1.61495e-11 -3.5188e-09 0 7.21525e-07 6.69355e-06 0 6.98185e-07 -3.97348e-06 0 -1.55943e-11 2.08767e-09 0 -3.52751e-14 -1.38331e-13 0 -3.56706e-17 4.99027e-17 0 6.21179e-21 -1.75565e-19 0 1.04921e-24 -7.82483e-23 0 4.12601e-25 1.81962e-26 0 4.4496e-25 3.3787e-27 0 4.77294e-25 3.04249e-27 0 5.05871e-25 2.63384e-27 0 5.30197e-25 2.19796e-27 0 5.50143e-25 1.76324e-27 0 5.65791e-25 1.34347e-27 0 5.77309e-25 9.42502e-28 0 5.84872e-25 5.58102e-28 0 5.88617e-25 1.84739e-28 0 5.88617e-25 -1.84739e-28 0 5.84872e-25 -5.58102e-28 0 5.77309e-25 -9.42502e-28 0 5.65791e-25 -1.34347e-27 0 5.50143e-25 -1.76324e-27 0 5.30197e-25 -2.19796e-27 0 5.05871e-25 -2.63384e-27 0 4.77294e-25 -3.04249e-27 0 4.4496e-25 -3.3787e-27 0 4.12601e-25 -1.81962e-26 0 1.04921e-24 7.82483e-23 0 6.21179e-21 1.75565e-19 0 -3.56706e-17 -4.99027e-17 0 -3.52751e-14 1.38331e-13 0 -1.55943e-11 -2.08767e-09 0 6.98185e-07 3.97348e-06 0 6.86804e-07 -1.31749e-06 0 -1.53248e-11 6.92025e-10 0 -3.46685e-14 -4.58316e-14 0 -3.50802e-17 1.65453e-17 0 6.10254e-21 -5.81842e-20 0 6.91245e-25 -2.59403e-23 0 3.28879e-26 5.07147e-27 0 3.26788e-26 2.1702e-28 0 3.49692e-26 1.96337e-28 0 3.70104e-26 1.70387e-28 0 3.87611e-26 1.42513e-28 0 4.02062e-26 1.14548e-28 0 4.1346e-26 8.74131e-29 0 4.21885e-26 6.13941e-29 0 4.27434e-26 3.63819e-29 0 4.30186e-26 1.20475e-29 0 4.30186e-26 -1.20475e-29 0 4.27434e-26 -3.63819e-29 0 4.21885e-26 -6.13941e-29 0 4.1346e-26 -8.74131e-29 0 4.02062e-26 -1.14548e-28 0 3.87611e-26 -1.42513e-28 0 3.70104e-26 -1.70387e-28 0 3.49692e-26 -1.96337e-28 0 3.26788e-26 -2.1702e-28 0 3.28879e-26 -5.07147e-27 0 6.91245e-25 2.59403e-23 0 6.10254e-21 5.81842e-20 0 -3.50802e-17 -1.65453e-17 0 -3.46685e-14 4.58316e-14 0 -1.53248e-11 -6.92025e-10 0 6.86804e-07 1.31749e-06 0 6.86804e-07 1.31749e-06 0 -1.53248e-11 -6.92025e-10 0 -3.46685e-14 4.58316e-14 0 -3.50802e-17 -1.65453e-17 0 6.10254e-21 5.81842e-20 0 6.91245e-25 2.59403e-23 0 3.28879e-26 -5.07147e-27 0 3.26788e-26 -2.1702e-28 0 3.49692e-26 -1.96337e-28 0 3.70104e-26 -1.70387e-28 0 3.87611e-26 -1.42513e-28 0 4.02062e-26 -1.14548e-28 0 4.1346e-26 -8.74131e-29 0 4.21885e-26 -6.13941e-29 0 4.27434e-26 -3.63819e-29 0 4.30186e-26 -1.20475e-29 0 4.30186e-26 1.20475e-29 0 4.27434e-26 3.63819e-29 0 4.21885e-26 6.13941e-29 0 4.1346e-26 8.74131e-29 0 4.02062e-26 1.14548e-28 0 3.87611e-26 1.42513e-28 0 3.70104e-26 1.70387e-28 0 3.49692e-26 1.96337e-28 0 3.26788e-26 2.1702e-28 0 3.28879e-26 5.07147e-27 0 6.91245e-25 -2.59403e-23 0 6.10254e-21 -5.81842e-20 0 -3.50802e-17 1.65453e-17 0 -3.46685e-14 -4.58316e-14 0 -1.53248e-11 6.92025e-10 0 6.86804e-07 -1.31749e-06 0 6.98185e-07 3.97348e-06 0 -1.55943e-11 -2.08767e-09 0 -3.52751e-14 1.38331e-13 0 -3.56706e-17 -4.99027e-17 0 6.21179e-21 1.75565e-19 0 1.04921e-24 7.82483e-23 0 4.12601e-25 -1.81962e-26 0 4.4496e-25 -3.3787e-27 0 4.77294e-25 -3.04249e-27 0 5.05871e-25 -2.63384e-27 0 5.30197e-25 -2.19796e-27 0 5.50143e-25 -1.76324e-27 0 5.65791e-25 -1.34347e-27 0 5.77309e-25 -9.42502e-28 0 5.84872e-25 -5.58102e-28 0 5.88617e-25 -1.84739e-28 0 5.88617e-25 1.84739e-28 0 5.84872e-25 5.58102e-28 0 5.77309e-25 9.42502e-28 0 5.65791e-25 1.34347e-27 0 5.50143e-25 1.76324e-27 0 5.30197e-25 2.19796e-27 0 5.05871e-25 2.63384e-27 0 4.77294e-25 3.04249e-27 0 4.4496e-25 3.3787e-27 0 4.12601e-25 1.81962e-26 0 1.04921e-24 -7.82483e-23 0 6.21179e-21 -1.75565e-19 0 -3.56706e-17 4.99027e-17 0 -3.52751e-14 -1.38331e-13 0 -1.55943e-11 2.08767e-09 0 6.98185e-07 -3.97348e-06 0 7.21525e-07 6.69355e-06 0 -1.61495e-11 -3.5188e-09 0 -3.65245e-14 2.33398e-13 0 -3.68827e-17 -8.40749e-17 0 6.43829e-21 2.96048e-19 0 3.13853e-24 1.31843e-22 0 2.68022e-24 -6.05531e-26 0 2.90869e-24 -3.37927e-26 0 3.12157e-24 -3.03723e-26 0 3.30942e-24 -2.62539e-26 0 3.46908e-24 -2.18791e-26 0 3.59982e-24 -1.75312e-26 0 3.70228e-24 -1.33452e-26 0 3.77763e-24 -9.35571e-27 0 3.82709e-24 -5.53744e-27 0 3.85156e-24 -1.83255e-27 0 3.85156e-24 1.83255e-27 0 3.82709e-24 5.53744e-27 0 3.77763e-24 9.35571e-27 0 3.70228e-24 1.33452e-26 0 3.59982e-24 1.75312e-26 0 3.46908e-24 2.18791e-26 0 3.30942e-24 2.62539e-26 0 3.12157e-24 3.03723e-26 0 2.90869e-24 3.37927e-26 0 2.68022e-24 6.05531e-26 0 3.13853e-24 -1.31843e-22 0 6.43829e-21 -2.96048e-19 0 -3.68827e-17 8.40749e-17 0 -3.65245e-14 -2.33398e-13 0 -1.61495e-11 3.5188e-09 0 7.21525e-07 -6.69355e-06 0 7.58219e-07 9.5242e-06 0 -1.70296e-11 -5.01151e-09 0 -3.85033e-14 3.32962e-13 0 -3.87924e-17 -1.19655e-16 0 6.80218e-21 4.21935e-19 0 1.12058e-23 1.87517e-22 0 1.1497e-23 -3.01767e-25 0 1.24878e-23 -2.50611e-25 0 1.34023e-23 -2.2493e-25 0 1.42092e-23 -1.94165e-25 0 1.48949e-23 -1.61607e-25 0 1.54564e-23 -1.29353e-25 0 1.58963e-23 -9.83819e-26 0 1.62199e-23 -6.89269e-26 0 1.64322e-23 -4.07791e-26 0 1.65373e-23 -1.34925e-26 0 1.65373e-23 1.34925e-26 0 1.64322e-23 4.07791e-26 0 1.62199e-23 6.89269e-26 0 1.58963e-23 9.83819e-26 0 1.54564e-23 1.29353e-25 0 1.48949e-23 1.61607e-25 0 1.42092e-23 1.94165e-25 0 1.34023e-23 2.2493e-25 0 1.24878e-23 2.50611e-25 0 1.1497e-23 3.01767e-25 0 1.12058e-23 -1.87517e-22 0 6.80218e-21 -4.21935e-19 0 -3.87924e-17 1.19655e-16 0 -3.85033e-14 -3.32962e-13 0 -1.70296e-11 5.01151e-09 0 7.58219e-07 -9.5242e-06 0 8.10581e-07 1.2518e-05 0 -1.83017e-11 -6.59592e-09 0 -4.13595e-14 4.39316e-13 0 -4.15261e-17 -1.57317e-16 0 7.34667e-21 5.55918e-19 0 4.20318e-23 2.45652e-22 0 4.51901e-23 -1.46166e-24 0 4.90167e-23 -1.32792e-24 0 5.25521e-23 -1.18936e-24 0 5.56819e-23 -1.0245e-24 0 5.83505e-23 -8.51024e-25 0 6.05417e-23 -6.8002e-25 0 6.22627e-23 -5.16501e-25 0 6.35306e-23 -3.61498e-25 0 6.43637e-23 -2.13729e-25 0 6.47764e-23 -7.06925e-26 0 6.47764e-23 7.06925e-26 0 6.43637e-23 2.13729e-25 0 6.35306e-23 3.61498e-25 0 6.22627e-23 5.16501e-25 0 6.05417e-23 6.8002e-25 0 5.83505e-23 8.51024e-25 0 5.56819e-23 1.0245e-24 0 5.25521e-23 1.18936e-24 0 4.90167e-23 1.32792e-24 0 4.51901e-23 1.46166e-24 0 4.20318e-23 -2.45652e-22 0 7.34667e-21 -5.55918e-19 0 -4.15261e-17 1.57317e-16 0 -4.13595e-14 -4.39316e-13 0 -1.83017e-11 6.59592e-09 0 8.10581e-07 -1.2518e-05 0 8.82171e-07 1.57368e-05 0 -2.00736e-11 -8.30865e-09 0 -4.533e-14 5.5537e-13 0 -4.52807e-17 -1.97861e-16 0 8.46825e-21 7.01332e-19 0 4.82764e-22 3.07726e-22 0 5.27792e-22 -3.38107e-24 0 5.72297e-22 -3.09241e-24 0 6.13417e-22 -2.74346e-24 0 6.4985e-22 -2.33984e-24 0 6.80939e-22 -1.92566e-24 0 7.06486e-22 -1.52639e-24 0 7.26562e-22 -1.15183e-24 0 7.4136e-22 -8.02237e-25 0 7.51086e-22 -4.72772e-25 0 7.55904e-22 -1.56118e-25 0 7.55904e-22 1.56118e-25 0 7.51086e-22 4.72772e-25 0 7.4136e-22 8.02237e-25 0 7.26562e-22 1.15183e-24 0 7.06486e-22 1.52639e-24 0 6.80939e-22 1.92566e-24 0 6.4985e-22 2.33984e-24 0 6.13417e-22 2.74346e-24 0 5.72297e-22 3.09241e-24 0 5.27792e-22 3.38107e-24 0 4.82764e-22 -3.07726e-22 0 8.46825e-21 -7.01332e-19 0 -4.52807e-17 1.97861e-16 0 -4.533e-14 -5.5537e-13 0 -2.00736e-11 8.30865e-09 0 8.82171e-07 -1.57368e-05 0 9.7835e-07 1.92562e-05 0 -2.25181e-11 -1.01964e-08 0 -5.07924e-14 6.85043e-13 0 -5.03515e-17 -2.42272e-16 0 1.78909e-20 8.62554e-19 0 9.78042e-21 3.9796e-22 0 1.07231e-20 1.64086e-23 0 1.16368e-20 1.57179e-23 0 1.24796e-20 1.43472e-23 0 1.32251e-20 1.25978e-23 0 1.38601e-20 1.06492e-23 0 1.43812e-20 8.63585e-24 0 1.47902e-20 6.63645e-24 0 1.50913e-20 4.6851e-24 0 1.52891e-20 2.78574e-24 0 1.53871e-20 9.24018e-25 0 1.53871e-20 -9.24018e-25 0 1.52891e-20 -2.78574e-24 0 1.50913e-20 -4.6851e-24 0 1.47902e-20 -6.63645e-24 0 1.43812e-20 -8.63585e-24 0 1.38601e-20 -1.06492e-23 0 1.32251e-20 -1.25978e-23 0 1.24796e-20 -1.43472e-23 0 1.16368e-20 -1.57179e-23 0 1.07231e-20 -1.64086e-23 0 9.78042e-21 -3.9796e-22 0 1.78909e-20 -8.62554e-19 0 -5.03515e-17 2.42272e-16 0 -5.07924e-14 -6.85043e-13 0 -2.25181e-11 1.01964e-08 0 9.7835e-07 -1.92562e-05 0 1.10723e-06 2.31708e-05 0 -2.59208e-11 -1.23213e-08 0 -5.8366e-14 8.33947e-13 0 -5.69595e-17 -2.91806e-16 0 3.10532e-19 1.0461e-18 0 3.32848e-19 1.06408e-21 0 3.66311e-19 6.02315e-22 0 3.9858e-19 5.70825e-22 0 4.28191e-19 5.17204e-22 0 4.54235e-19 4.50785e-22 0 4.76301e-19 3.78516e-22 0 4.94319e-19 3.05239e-22 0 5.08406e-19 2.33536e-22 0 5.18748e-19 1.64335e-22 0 5.25526e-19 9.75061e-23 0 5.28878e-19 3.23081e-23 0 5.28878e-19 -3.23081e-23 0 5.25526e-19 -9.75061e-23 0 5.18748e-19 -1.64335e-22 0 5.08406e-19 -2.33536e-22 0 4.94319e-19 -3.05239e-22 0 4.76301e-19 -3.78516e-22 0 4.54235e-19 -4.50785e-22 0 4.28191e-19 -5.17204e-22 0 3.9858e-19 -5.70825e-22 0 3.66311e-19 -6.02315e-22 0 3.32848e-19 -1.06408e-21 0 3.10532e-19 -1.0461e-18 0 -5.69595e-17 2.91806e-16 0 -5.8366e-14 -8.33947e-13 0 -2.59208e-11 1.23213e-08 0 1.10723e-06 -2.31708e-05 0 1.28029e-06 2.76007e-05 0 -3.07407e-11 -1.47705e-08 0 -6.90563e-14 1.01065e-12 0 -8.92656e-17 -3.48001e-16 0 -2.51144e-17 1.3689e-18 0 -2.78185e-17 1.16476e-19 0 -3.05732e-17 1.14857e-19 0 -3.32337e-17 1.07835e-19 0 -3.56795e-17 9.66626e-20 0 -3.7835e-17 8.33351e-20 0 -3.9665e-17 6.92802e-20 0 -4.11619e-17 5.53978e-20 0 -4.23339e-17 4.21005e-20 0 -4.31953e-17 2.94786e-20 0 -4.37603e-17 1.74336e-20 0 -4.40399e-17 5.76711e-21 0 -4.40399e-17 -5.76711e-21 0 -4.37603e-17 -1.74336e-20 0 -4.31953e-17 -2.94786e-20 0 -4.23339e-17 -4.21005e-20 0 -4.11619e-17 -5.53978e-20 0 -3.9665e-17 -6.92802e-20 0 -3.7835e-17 -8.33351e-20 0 -3.56795e-17 -9.66626e-20 0 -3.32337e-17 -1.07835e-19 0 -3.05732e-17 -1.14857e-19 0 -2.78185e-17 -1.16476e-19 0 -2.51144e-17 -1.3689e-18 0 -8.92656e-17 3.48001e-16 0 -6.90563e-14 -1.01065e-12 0 -3.07407e-11 1.47705e-08 0 1.28029e-06 -2.76007e-05 0 1.51772e-06 3.26984e-05 0 -3.79065e-11 -1.76712e-08 0 -8.42605e-14 1.22923e-12 0 4.71932e-16 -4.21449e-16 0 6.05784e-16 -7.99697e-18 0 6.66267e-16 -1.00743e-17 0 7.2854e-16 -1.00061e-17 0 7.89039e-16 -9.42224e-18 0 8.4506e-16 -8.47536e-18 0 8.94823e-16 -7.33291e-18 0 9.3739e-16 -6.1163e-18 0 9.72443e-16 -4.90453e-18 0 1.00004e-15 -3.73571e-18 0 1.02041e-15 -2.62013e-18 0 1.03381e-15 -1.55126e-18 0 1.04045e-15 -5.1345e-19 0 1.04045e-15 5.1345e-19 0 1.03381e-15 1.55126e-18 0 1.02041e-15 2.62013e-18 0 1.00004e-15 3.73571e-18 0 9.72443e-16 4.90453e-18 0 9.3739e-16 6.1163e-18 0 8.94823e-16 7.33291e-18 0 8.4506e-16 8.47536e-18 0 7.89039e-16 9.42224e-18 0 7.2854e-16 1.00061e-17 0 6.66267e-16 1.00743e-17 0 6.05784e-16 7.99697e-18 0 4.71932e-16 4.21449e-16 0 -8.42605e-14 -1.22923e-12 0 -3.79065e-11 1.76712e-08 0 1.51772e-06 -3.26984e-05 0 1.84824e-06 3.86465e-05 0 -4.90727e-11 -2.12201e-08 0 -2.69995e-14 1.51477e-12 0 9.00772e-14 -5.26447e-16 0 1.00184e-13 -3.46338e-17 0 1.11176e-13 -3.66769e-17 0 1.22404e-13 -3.49582e-17 0 1.33227e-13 -3.12061e-17 0 1.43152e-13 -2.62699e-17 0 1.51876e-13 -2.11328e-17 0 1.59263e-13 -1.63989e-17 0 1.65292e-13 -1.23092e-17 0 1.70004e-13 -8.86355e-18 0 1.73461e-13 -5.9498e-18 0 1.75727e-13 -3.41827e-18 0 1.76848e-13 -1.11412e-18 0 1.76848e-13 1.11412e-18 0 1.75727e-13 3.41827e-18 0 1.73461e-13 5.9498e-18 0 1.70004e-13 8.86355e-18 0 1.65292e-13 1.23092e-17 0 1.59263e-13 1.63989e-17 0 1.51876e-13 2.11328e-17 0 1.43152e-13 2.62699e-17 0 1.33227e-13 3.12061e-17 0 1.22404e-13 3.49582e-17 0 1.11176e-13 3.66769e-17 0 1.00184e-13 3.46338e-17 0 9.00772e-14 5.26447e-16 0 -2.69995e-14 -1.51477e-12 0 -4.90727e-11 2.12201e-08 0 1.84824e-06 -3.86465e-05 0 2.31581e-06 4.56154e-05 0 -7.60068e-11 -2.574e-08 0 -8.03446e-12 1.94863e-12 0 -8.6011e-12 4.59702e-14 0 -9.51842e-12 5.38709e-14 0 -1.05313e-11 5.69277e-14 0 -1.15683e-11 5.64489e-14 0 -1.25704e-11 5.30503e-14 0 -1.34922e-11 4.7609e-14 0 -1.43052e-11 4.10942e-14 0 -1.49958e-11 3.42018e-14 0 -1.55611e-11 2.7375e-14 0 -1.6004e-11 2.08203e-14 0 -1.63296e-11 1.45868e-14 0 -1.65432e-11 8.62997e-15 0 -1.66489e-11 2.85538e-15 0 -1.66489e-11 -2.85538e-15 0 -1.65432e-11 -8.62997e-15 0 -1.63296e-11 -1.45868e-14 0 -1.6004e-11 -2.08203e-14 0 -1.55611e-11 -2.7375e-14 0 -1.49958e-11 -3.42018e-14 0 -1.43052e-11 -4.10942e-14 0 -1.34922e-11 -4.7609e-14 0 -1.25704e-11 -5.30503e-14 0 -1.15683e-11 -5.64489e-14 0 -1.05313e-11 -5.69277e-14 0 -9.51842e-12 -5.38709e-14 0 -8.6011e-12 -4.59702e-14 0 -8.03446e-12 -1.94863e-12 0 -7.60068e-11 2.574e-08 0 2.31581e-06 -4.56154e-05 0 2.9751e-06 5.35496e-05 0 -8.84638e-11 -3.1796e-08 0 1.16157e-11 8.95804e-13 0 1.00713e-11 -2.57313e-12 0 8.98737e-12 -3.00538e-12 0 8.09903e-12 -3.18584e-12 0 7.33694e-12 -3.16647e-12 0 6.74876e-12 -2.98449e-12 0 6.37521e-12 -2.68752e-12 0 6.20795e-12 -2.32793e-12 0 6.20012e-12 -1.94381e-12 0 6.29159e-12 -1.56017e-12 0 6.42688e-12 -1.18927e-12 0 6.56262e-12 -8.34606e-13 0 6.66852e-12 -4.94324e-13 0 6.72588e-12 -1.63647e-13 0 6.72588e-12 1.63647e-13 0 6.66852e-12 4.94324e-13 0 6.56262e-12 8.34606e-13 0 6.42688e-12 1.18927e-12 0 6.29159e-12 1.56017e-12 0 6.20012e-12 1.94381e-12 0 6.20795e-12 2.32793e-12 0 6.37521e-12 2.68752e-12 0 6.74876e-12 2.98449e-12 0 7.33694e-12 3.16647e-12 0 8.09903e-12 3.18584e-12 0 8.98737e-12 3.00538e-12 0 1.00713e-11 2.57313e-12 0 1.16157e-11 -8.95804e-13 0 -8.84638e-11 3.1796e-08 0 2.9751e-06 -5.35496e-05 0 3.80858e-06 6.1151e-05 0 4.02592e-08 -4.04522e-08 0 4.17233e-08 -7.04274e-11 0 4.56788e-08 -1.01578e-10 0 5.06725e-08 -1.15875e-10 0 5.61678e-08 -1.21883e-10 0 6.17862e-08 -1.2042e-10 0 6.72066e-08 -1.12658e-10 0 7.21832e-08 -1.00562e-10 0 7.6563e-08 -8.6319e-11 0 8.0276e-08 -7.14682e-11 0 8.33098e-08 -5.69456e-11 0 8.56828e-08 -4.31532e-11 0 8.74255e-08 -3.0151e-11 0 8.85681e-08 -1.78059e-11 0 8.91333e-08 -5.88605e-12 0 8.91333e-08 5.88605e-12 0 8.85681e-08 1.78059e-11 0 8.74255e-08 3.0151e-11 0 8.56828e-08 4.31532e-11 0 8.33098e-08 5.69456e-11 0 8.0276e-08 7.14682e-11 0 7.6563e-08 8.6319e-11 0 7.21832e-08 1.00562e-10 0 6.72066e-08 1.12658e-10 0 6.17862e-08 1.2042e-10 0 5.61678e-08 1.21883e-10 0 5.06725e-08 1.15875e-10 0 4.56788e-08 1.01578e-10 0 4.17233e-08 7.04274e-11 0 4.02592e-08 4.04522e-08 0 3.80858e-06 -6.1151e-05 0 4.19475e-06 6.30617e-05 0 -2.47528e-06 -6.18645e-08 0 -2.52911e-06 1.33602e-08 0 -2.75395e-06 1.99066e-08 0 -3.04352e-06 2.30837e-08 0 -3.36372e-06 2.44121e-08 0 -3.69185e-06 2.42199e-08 0 -4.00919e-06 2.27768e-08 0 -4.30141e-06 2.04566e-08 0 -4.55942e-06 1.76718e-08 0 -4.77887e-06 1.47193e-08 0 -4.95867e-06 1.17892e-08 0 -5.09966e-06 8.97135e-09 0 -5.20339e-06 6.28797e-09 0 -5.27149e-06 3.72117e-09 0 -5.3052e-06 1.23139e-09 0 -5.3052e-06 -1.23139e-09 0 -5.27149e-06 -3.72117e-09 0 -5.20339e-06 -6.28797e-09 0 -5.09966e-06 -8.97135e-09 0 -4.95867e-06 -1.17892e-08 0 -4.77887e-06 -1.47193e-08 0 -4.55942e-06 -1.76718e-08 0 -4.30141e-06 -2.04566e-08 0 -4.00919e-06 -2.27768e-08 0 -3.69185e-06 -2.42199e-08 0 -3.36372e-06 -2.44121e-08 0 -3.04352e-06 -2.30837e-08 0 -2.75395e-06 -1.99066e-08 0 -2.52911e-06 -1.33602e-08 0 -2.47528e-06 6.18645e-08 0 4.19475e-06 -6.30617e-05 0 -5.23282e-05 -4.90362e-05 0 -6.21694e-05 4.00685e-07 0 -6.55767e-05 -3.9042e-07 0 -7.27143e-05 -6.25692e-07 0 -8.13784e-05 -7.35324e-07 0 -9.08169e-05 -7.81084e-07 0 -0.00010042 -7.7758e-07 0 -0.000109637 -7.34331e-07 0 -0.000118046 -6.62787e-07 0 -0.000125393 -5.75485e-07 0 -0.000131579 -4.81611e-07 0 -0.000136601 -3.87314e-07 0 -0.000140508 -2.95707e-07 0 -0.000143365 -2.07767e-07 0 -0.000145233 -1.23154e-07 0 -0.000146155 -4.07866e-08 0 -0.000146155 4.07866e-08 0 -0.000145233 1.23154e-07 0 -0.000143365 2.07767e-07 0 -0.000140508 2.95707e-07 0 -0.000136601 3.87314e-07 0 -0.000131579 4.81611e-07 0 -0.000125393 5.75485e-07 0 -0.000118046 6.62787e-07 0 -0.000109637 7.34331e-07 0 -0.00010042 7.7758e-07 0 -9.08169e-05 7.81084e-07 0 -8.13784e-05 7.35324e-07 0 -7.27143e-05 6.25692e-07 0 -6.55767e-05 3.9042e-07 0 -6.21694e-05 -4.00685e-07 0 -5.23282e-05 4.90362e-05 0 </DataArray> 
</PointData> 
<Points> 
<DataArray type="Float32" NumberOfComponents="3"> 