<?xml version="1.0"?> 
<VTKFile type="StructuredGrid" version="0.1"> 
<StructuredGrid WholeExtent="0 31 0 31 0 0"> 
<Piece Extent="0 31 0 31 0 0"> 
<PointData>
<DataArray type="Float32" Name="B" format="ascii" NumberOfComponents="3"> 
2.3137e-05 -0 0 2.4534e-05 -0 0 2.59333e-05 -0 0 2.73216e-05 -0 0 2.86845e-05 -0 0 3.00068e-05 -0 0 3.12731e-05 -0 0 3.24675e-05 -0 0 3.35747e-05 -0 0 3.45799e-05 -0 0 3.54694e-05 -0 0 3.62308e-05 -0 0 3.68534e-05 -0 0 3.73283e-05 -0 0 3.76488e-05 -0 0 3.78102e-05 -0 0 3.78102e-05 -0 0 3.76488e-05 -0 0 3.73283e-05 -0 0 3.68534e-05 -0 0 3.62308e-05 -0 0 3.54694e-05 -0 0 3.45799e-05 -0 0 3.35747e-05 -0 0 3.24675e-05 -0 0 3.12731e-05 -0 0 3.00068e-05 -0 0 2.86845e-05 -0 0 2.73216e-05 -0 0 2.59333e-05 -0 0 2.4534e-05 -0 0 2.3137e-05 -0 0 2.31288e-05 -1.39423e-06 0 2.45326e-05 -1.40294e-06 0 2.59394e-05 -1.39898e-06 0 2.73358e-05 -1.38114e-06 0 2.87072e-05 -1.34845e-06 0 3.00384e-05 -1.30021e-06 0 3.13135e-05 -1.2362e-06 0 3.25166e-05 -1.15651e-06 0 3.36321e-05 -1.06141e-06 0 3.46451e-05 -9.52155e-07 0 3.55416e-05 -8.29728e-07 0 3.6309e-05 -6.95658e-07 0 3.69366e-05 -5.51713e-07 0 3.74154e-05 -3.99872e-07 0 3.77385e-05 -2.4227e-07 0 3.79012e-05 -8.11541e-08 0 3.79012e-05 8.11541e-08 0 3.77385e-05 2.4227e-07 0 3.74154e-05 3.99872e-07 0 3.69366e-05 5.51713e-07 0 3.6309e-05 6.95658e-07 0 3.55416e-05 8.29728e-07 0 3.46451e-05 9.52155e-07 0 3.36321e-05 1.06141e-06 0 3.25166e-05 1.15651e-06 0 3.13135e-05 1.2362e-06 0 3.00384e-05 1.30021e-06 0 2.87072e-05 1.34845e-06 0 2.73358e-05 1.38114e-06 0 2.59394e-05 1.39898e-06 0 2.45326e-05 1.40294e-06 0 2.31288e-05 1.39423e-06 0 2.31065e-05 -2.79983e-06 0 2.45283e-05 -2.81868e-06 0 2.59549e-05 -2.812e-06 0 2.73729e-05 -2.77729e-06 0 2.87671e-05 -2.71256e-06 0 3.01217e-05 -2.61639e-06 0 3.14205e-05 -2.48828e-06 0 3.26469e-05 -2.32841e-06 0 3.37846e-05 -2.13735e-06 0 3.48183e-05 -1.91761e-06 0 3.57334e-05 -1.67123e-06 0 3.6517e-05 -1.40129e-06 0 3.71579e-05 -1.11139e-06 0 3.76469e-05 -8.05545e-07 0 3.79769e-05 -4.88064e-07 0 3.81431e-05 -1.6349e-07 0 3.81431e-05 1.6349e-07 0 3.79769e-05 4.88064e-07 0 3.76469e-05 8.05545e-07 0 3.71579e-05 1.11139e-06 0 3.6517e-05 1.40129e-06 0 3.57334e-05 1.67123e-06 0 3.48183e-05 1.91761e-06 0 3.37846e-05 2.13735e-06 0 3.26469e-05 2.32841e-06 0 3.14205e-05 2.48828e-06 0 3.01217e-05 2.61639e-06 0 2.87671e-05 2.71256e-06 0 2.73729e-05 2.77729e-06 0 2.59549e-05 2.812e-06 0 2.45283e-05 2.81868e-06 0 2.31065e-05 2.79983e-06 0 2.30669e-05 -4.22803e-06 0 2.45188e-05 -4.25991e-06 0 2.5979e-05 -4.253e-06 0 2.74334e-05 -4.20341e-06 0 2.88661e-05 -4.10799e-06 0 3.02606e-05 -3.9645e-06 0 3.15995e-05 -3.77212e-06 0 3.28653e-05 -3.53109e-06 0 3.40407e-05 -3.24232e-06 0 3.51094e-05 -2.90966e-06 0 3.6056e-05 -2.53624e-06 0 3.6867e-05 -2.12684e-06 0 3.75304e-05 -1.68698e-06 0 3.80367e-05 -1.22279e-06 0 3.83783e-05 -7.40884e-07 0 3.85504e-05 -2.48182e-07 0 3.85504e-05 2.48182e-07 0 3.83783e-05 7.40884e-07 0 3.80367e-05 1.22279e-06 0 3.75304e-05 1.68698e-06 0 3.6867e-05 2.12684e-06 0 3.6056e-05 2.53624e-06 0 3.51094e-05 2.90966e-06 0 3.40407e-05 3.24232e-06 0 3.28653e-05 3.53109e-06 0 3.15995e-05 3.77212e-06 0 3.02606e-05 3.9645e-06 0 2.88661e-05 4.10799e-06 0 2.74334e-05 4.20341e-06 0 2.5979e-05 4.253e-06 0 2.45188e-05 4.25991e-06 0 2.30669e-05 4.22803e-06 0 2.30047e-05 -5.6907e-06 0 2.45001e-05 -5.74016e-06 0 2.6009e-05 -5.737e-06 0 2.75164e-05 -5.67568e-06 0 2.90055e-05 -5.55173e-06 0 3.04582e-05 -5.36191e-06 0 3.18558e-05 -5.10501e-06 0 3.31792e-05 -4.78133e-06 0 3.44098e-05 -4.39212e-06 0 3.55296e-05 -3.94271e-06 0 3.65223e-05 -3.43748e-06 0 3.73731e-05 -2.88304e-06 0 3.80693e-05 -2.287e-06 0 3.86007e-05 -1.65781e-06 0 3.89593e-05 -1.00449e-06 0 3.914e-05 -3.3649e-07 0 3.914e-05 3.3649e-07 0 3.89593e-05 1.00449e-06 0 3.86007e-05 1.65781e-06 0 3.80693e-05 2.287e-06 0 3.73731e-05 2.88304e-06 0 3.65223e-05 3.43748e-06 0 3.55296e-05 3.94271e-06 0 3.44098e-05 4.39212e-06 0 3.31792e-05 4.78133e-06 0 3.18558e-05 5.10501e-06 0 3.04582e-05 5.36191e-06 0 2.90055e-05 5.55173e-06 0 2.75164e-05 5.67568e-06 0 2.6009e-05 5.737e-06 0 2.45001e-05 5.74016e-06 0 2.30047e-05 5.6907e-06 0 2.29174e-05 -7.19976e-06 0 2.44686e-05 -7.27321e-06 0 2.60403e-05 -7.27941e-06 0 2.76163e-05 -7.21085e-06 0 2.91784e-05 -7.06144e-06 0 3.07068e-05 -6.82675e-06 0 3.21807e-05 -6.50504e-06 0 3.35792e-05 -6.09663e-06 0 3.48814e-05 -5.60322e-06 0 3.60678e-05 -5.03177e-06 0 3.71202e-05 -4.38812e-06 0 3.80225e-05 -3.68096e-06 0 3.87611e-05 -2.92025e-06 0 3.93248e-05 -2.11694e-06 0 3.97053e-05 -1.28272e-06 0 3.98969e-05 -4.29695e-07 0 3.98969e-05 4.29695e-07 0 3.97053e-05 1.28272e-06 0 3.93248e-05 2.11694e-06 0 3.87611e-05 2.92025e-06 0 3.80225e-05 3.68096e-06 0 3.71202e-05 4.38812e-06 0 3.60678e-05 5.03177e-06 0 3.48814e-05 5.60322e-06 0 3.35792e-05 6.09663e-06 0 3.21807e-05 6.50504e-06 0 3.07068e-05 6.82675e-06 0 2.91784e-05 7.06144e-06 0 2.76163e-05 7.21085e-06 0 2.60403e-05 7.27941e-06 0 2.44686e-05 7.27321e-06 0 2.29174e-05 7.19976e-06 0 2.27931e-05 -8.76757e-06 0 2.44149e-05 -8.8736e-06 0 2.60666e-05 -8.89675e-06 0 2.77307e-05 -8.82708e-06 0 2.93868e-05 -8.65645e-06 0 3.1013e-05 -8.37892e-06 0 3.25858e-05 -7.99206e-06 0 3.40814e-05 -7.49623e-06 0 3.54764e-05 -6.8936e-06 0 3.67486e-05 -6.19314e-06 0 3.78778e-05 -5.40239e-06 0 3.88463e-05 -4.53249e-06 0 3.9639e-05 -3.59607e-06 0 4.0244e-05 -2.60693e-06 0 4.06523e-05 -1.57962e-06 0 4.08579e-05 -5.29152e-07 0 4.08579e-05 5.29152e-07 0 4.06523e-05 1.57962e-06 0 4.0244e-05 2.60693e-06 0 3.9639e-05 3.59607e-06 0 3.88463e-05 4.53249e-06 0 3.78778e-05 5.40239e-06 0 3.67486e-05 6.19314e-06 0 3.54764e-05 6.8936e-06 0 3.40814e-05 7.49623e-06 0 3.25858e-05 7.99206e-06 0 3.1013e-05 8.37892e-06 0 2.93868e-05 8.65645e-06 0 2.77307e-05 8.82708e-06 0 2.60666e-05 8.89675e-06 0 2.44149e-05 8.8736e-06 0 2.27931e-05 8.76757e-06 0 2.26241e-05 -1.04073e-05 0 2.43311e-05 -1.05573e-05 0 2.60803e-05 -1.06075e-05 0 2.78523e-05 -1.0545e-05 0 2.96246e-05 -1.03588e-05 0 3.1372e-05 -1.00413e-05 0 3.30673e-05 -9.58894e-06 0 3.46833e-05 -9.00217e-06 0 3.6193e-05 -8.28382e-06 0 3.75711e-05 -7.44529e-06 0 3.87948e-05 -6.49627e-06 0 3.98442e-05 -5.45084e-06 0 4.0703e-05 -4.32479e-06 0 4.13581e-05 -3.13514e-06 0 4.18001e-05 -1.8996e-06 0 4.20226e-05 -6.36327e-07 0 4.20226e-05 6.36327e-07 0 4.18001e-05 1.8996e-06 0 4.13581e-05 3.13514e-06 0 4.0703e-05 4.32479e-06 0 3.98442e-05 5.45084e-06 0 3.87948e-05 6.49627e-06 0 3.75711e-05 7.44529e-06 0 3.6193e-05 8.28382e-06 0 3.46833e-05 9.00217e-06 0 3.30673e-05 9.58894e-06 0 3.1372e-05 1.00413e-05 0 2.96246e-05 1.03588e-05 0 2.78523e-05 1.0545e-05 0 2.60803e-05 1.06075e-05 0 2.43311e-05 1.05573e-05 0 2.26241e-05 1.04073e-05 0 2.24011e-05 -1.21324e-05 0 2.42079e-05 -1.2341e-05 0 2.60726e-05 -1.24314e-05 0 2.79738e-05 -1.23868e-05 0 2.98857e-05 -1.21928e-05 0 3.17792e-05 -1.1839e-05 0 3.36227e-05 -1.13209e-05 0 3.53842e-05 -1.06387e-05 0 3.70322e-05 -9.79626e-06 0 3.85374e-05 -8.80812e-06 0 3.98739e-05 -7.68675e-06 0 4.10196e-05 -6.44988e-06 0 4.19564e-05 -5.11709e-06 0 4.26706e-05 -3.70908e-06 0 4.3152e-05 -2.24714e-06 0 4.33943e-05 -7.52699e-07 0 4.33943e-05 7.52699e-07 0 4.3152e-05 2.24714e-06 0 4.26706e-05 3.70908e-06 0 4.19564e-05 5.11709e-06 0 4.10196e-05 6.44988e-06 0 3.98739e-05 7.68675e-06 0 3.85374e-05 8.80812e-06 0 3.70322e-05 9.79626e-06 0 3.53842e-05 1.06387e-05 0 3.36227e-05 1.13209e-05 0 3.17792e-05 1.1839e-05 0 2.98857e-05 1.21928e-05 0 2.79738e-05 1.23868e-05 0 2.60726e-05 1.24314e-05 0 2.42079e-05 1.2341e-05 0 2.24011e-05 1.21324e-05 0 2.20935e-05 -1.3957e-05 0 2.40188e-05 -1.42431e-05 0 2.60231e-05 -1.43911e-05 0 2.80824e-05 -1.43788e-05 0 3.01669e-05 -1.41872e-05 0 3.2242e-05 -1.38023e-05 0 3.42701e-05 -1.32179e-05 0 3.62125e-05 -1.24344e-05 0 3.80317e-05 -1.14572e-05 0 3.96933e-05 -1.03046e-05 0 4.11675e-05 -8.9931e-06 0 4.24294e-05 -7.54502e-06 0 4.34598e-05 -5.98458e-06 0 4.42441e-05 -4.33684e-06 0 4.47721e-05 -2.62695e-06 0 4.50377e-05 -8.79823e-07 0 4.50377e-05 8.79823e-07 0 4.47721e-05 2.62695e-06 0 4.42441e-05 4.33684e-06 0 4.34598e-05 5.98458e-06 0 4.24294e-05 7.54502e-06 0 4.11675e-05 8.9931e-06 0 3.96933e-05 1.03046e-05 0 3.80317e-05 1.14572e-05 0 3.62125e-05 1.24344e-05 0 3.42701e-05 1.32179e-05 0 3.2242e-05 1.38023e-05 0 3.01669e-05 1.41872e-05 0 2.80824e-05 1.43788e-05 0 2.60231e-05 1.43911e-05 0 2.40188e-05 1.42431e-05 0 2.20935e-05 1.3957e-05 0 2.16949e-05 -1.58956e-05 0 2.37551e-05 -1.62837e-05 0 2.59212e-05 -1.65121e-05 0 2.81665e-05 -1.65512e-05 0 3.0456e-05 -1.63757e-05 0 3.27482e-05 -1.59668e-05 0 3.49971e-05 -1.53157e-05 0 3.71556e-05 -1.44232e-05 0 3.91781e-05 -1.32968e-05 0 4.1024e-05 -1.19607e-05 0 4.26587e-05 -1.04365e-05 0 4.4055e-05 -8.7527e-06 0 4.51922e-05 -6.93934e-06 0 4.60559e-05 -5.02655e-06 0 4.66363e-05 -3.04371e-06 0 4.69279e-05 -1.01922e-06 0 4.69279e-05 1.01922e-06 0 4.66363e-05 3.04371e-06 0 4.60559e-05 5.02655e-06 0 4.51922e-05 6.93934e-06 0 4.4055e-05 8.7527e-06 0 4.26587e-05 1.04365e-05 0 4.1024e-05 1.19607e-05 0 3.91781e-05 1.32968e-05 0 3.71556e-05 1.44232e-05 0 3.49971e-05 1.53157e-05 0 3.27482e-05 1.59668e-05 0 3.0456e-05 1.63757e-05 0 2.81665e-05 1.65512e-05 0 2.59212e-05 1.65121e-05 0 2.37551e-05 1.62837e-05 0 2.16949e-05 1.58956e-05 0 2.1171e-05 -1.79625e-05 0 2.33845e-05 -1.84842e-05 0 2.57392e-05 -1.88228e-05 0 2.82054e-05 -1.8939e-05 0 3.07418e-05 -1.87983e-05 0 3.32974e-05 -1.83747e-05 0 3.58148e-05 -1.76563e-05 0 3.8235e-05 -1.66442e-05 0 4.05019e-05 -1.53498e-05 0 4.25665e-05 -1.38051e-05 0 4.43892e-05 -1.20395e-05 0 4.59401e-05 -1.00897e-05 0 4.71985e-05 -7.99314e-06 0 4.81509e-05 -5.78583e-06 0 4.87894e-05 -3.50164e-06 0 4.91095e-05 -1.17224e-06 0 4.91095e-05 1.17224e-06 0 4.87894e-05 3.50164e-06 0 4.81509e-05 5.78583e-06 0 4.71985e-05 7.99314e-06 0 4.59401e-05 1.00897e-05 0 4.43892e-05 1.20395e-05 0 4.25665e-05 1.38051e-05 0 4.05019e-05 1.53498e-05 0 3.8235e-05 1.66442e-05 0 3.58148e-05 1.76563e-05 0 3.32974e-05 1.83747e-05 0 3.07418e-05 1.87983e-05 0 2.82054e-05 1.8939e-05 0 2.57392e-05 1.88228e-05 0 2.33845e-05 1.84842e-05 0 2.1171e-05 1.79625e-05 0 2.04774e-05 -2.01717e-05 0 2.28632e-05 -2.08683e-05 0 2.54378e-05 -2.13575e-05 0 2.81685e-05 -2.15859e-05 0 3.10061e-05 -2.15058e-05 0 3.38863e-05 -2.10806e-05 0 3.67353e-05 -2.02936e-05 0 3.94769e-05 -1.91469e-05 0 4.204e-05 -1.76581e-05 0 4.43652e-05 -1.58712e-05 0 4.64068e-05 -1.38269e-05 0 4.81339e-05 -1.15733e-05 0 4.95272e-05 -9.15719e-06 0 5.05765e-05 -6.62139e-06 0 5.12772e-05 -4.00423e-06 0 5.16276e-05 -1.33993e-06 0 5.16276e-05 1.33993e-06 0 5.12772e-05 4.00423e-06 0 5.05765e-05 6.62139e-06 0 4.95272e-05 9.15719e-06 0 4.81339e-05 1.15733e-05 0 4.64068e-05 1.38269e-05 0 4.43652e-05 1.58712e-05 0 4.204e-05 1.76581e-05 0 3.94769e-05 1.91469e-05 0 3.67353e-05 2.02936e-05 0 3.38863e-05 2.10806e-05 0 3.10061e-05 2.15058e-05 0 2.81685e-05 2.15859e-05 0 2.54378e-05 2.13575e-05 0 2.28632e-05 2.08683e-05 0 2.04774e-05 2.01717e-05 0 1.95919e-05 -2.25344e-05 0 2.21656e-05 -2.346e-05 0 2.49902e-05 -2.4154e-05 0 2.80313e-05 -2.45434e-05 0 3.12298e-05 -2.45605e-05 0 3.45037e-05 -2.41523e-05 0 3.77558e-05 -2.32942e-05 0 4.08851e-05 -2.19907e-05 0 4.38e-05 -2.027e-05 0 4.64275e-05 -1.8195e-05 0 4.87168e-05 -1.58232e-05 0 5.06373e-05 -1.32187e-05 0 5.21747e-05 -1.04399e-05 0 5.33248e-05 -7.53733e-06 0 5.40889e-05 -4.55314e-06 0 5.44699e-05 -1.52274e-06 0 5.44699e-05 1.52274e-06 0 5.40889e-05 4.55314e-06 0 5.33248e-05 7.53733e-06 0 5.21747e-05 1.04399e-05 0 5.06373e-05 1.32187e-05 0 4.87168e-05 1.58232e-05 0 4.64275e-05 1.8195e-05 0 4.38e-05 2.027e-05 0 4.08851e-05 2.19907e-05 0 3.77558e-05 2.32942e-05 0 3.45037e-05 2.41523e-05 0 3.12298e-05 2.45605e-05 0 2.80313e-05 2.45434e-05 0 2.49902e-05 2.4154e-05 0 2.21656e-05 2.346e-05 0 1.95919e-05 2.25344e-05 0 1.84212e-05 -2.50572e-05 0 2.11953e-05 -2.62824e-05 0 2.43062e-05 -2.72558e-05 0 2.7721e-05 -2.78757e-05 0 3.13695e-05 -2.80433e-05 0 3.51438e-05 -2.76787e-05 0 3.89094e-05 -2.67446e-05 0 4.25262e-05 -2.52502e-05 0 4.58716e-05 -2.32427e-05 0 4.88555e-05 -2.08151e-05 0 5.14236e-05 -1.8051e-05 0 5.35519e-05 -1.50366e-05 0 5.52366e-05 -1.18448e-05 0 5.64853e-05 -8.53347e-06 0 5.73093e-05 -5.1472e-06 0 5.77184e-05 -1.72008e-06 0 5.77184e-05 1.72008e-06 0 5.73093e-05 5.1472e-06 0 5.64853e-05 8.53347e-06 0 5.52366e-05 1.18448e-05 0 5.35519e-05 1.50366e-05 0 5.14236e-05 1.8051e-05 0 4.88555e-05 2.08151e-05 0 4.58716e-05 2.32427e-05 0 4.25262e-05 2.52502e-05 0 3.89094e-05 2.67446e-05 0 3.51438e-05 2.76787e-05 0 3.13695e-05 2.80433e-05 0 2.7721e-05 2.78757e-05 0 2.43062e-05 2.72558e-05 0 2.11953e-05 2.62824e-05 0 1.84212e-05 2.50572e-05 0 1.69126e-05 -2.77369e-05 0 1.98883e-05 -2.93551e-05 0 2.33162e-05 -3.07122e-05 0 2.71736e-05 -3.16653e-05 0 3.13803e-05 -3.2065e-05 0 3.57916e-05 -3.17851e-05 0 4.02124e-05 -3.07649e-05 0 4.44401e-05 -2.90234e-05 0 4.8305e-05 -2.66441e-05 0 5.16975e-05 -2.37705e-05 0 5.45666e-05 -2.05269e-05 0 5.69044e-05 -1.70292e-05 0 5.87278e-05 -1.33663e-05 0 6.00631e-05 -9.6024e-06 0 6.09365e-05 -5.78063e-06 0 6.13678e-05 -1.92982e-06 0 6.13678e-05 1.92982e-06 0 6.09365e-05 5.78063e-06 0 6.00631e-05 9.6024e-06 0 5.87278e-05 1.33663e-05 0 5.69044e-05 1.70292e-05 0 5.45666e-05 2.05269e-05 0 5.16975e-05 2.37705e-05 0 4.8305e-05 2.66441e-05 0 4.44401e-05 2.90234e-05 0 4.02124e-05 3.07649e-05 0 3.57916e-05 3.17851e-05 0 3.13803e-05 3.2065e-05 0 2.71736e-05 3.16653e-05 0 2.33162e-05 3.07122e-05 0 1.98883e-05 2.93551e-05 0 1.69126e-05 2.77369e-05 0 1.49971e-05 -3.05532e-05 0 1.81569e-05 -3.26847e-05 0 2.19211e-05 -3.45712e-05 0 2.62947e-05 -3.60118e-05 0 3.1196e-05 -3.67741e-05 0 3.64276e-05 -3.66457e-05 0 4.17013e-05 -3.5518e-05 0 4.66998e-05 -3.34334e-05 0 5.11862e-05 -3.05477e-05 0 5.5033e-05 -2.70917e-05 0 5.82086e-05 -2.32524e-05 0 6.07392e-05 -1.91823e-05 0 6.2676e-05 -1.49856e-05 0 6.40732e-05 -1.07266e-05 0 6.49773e-05 -6.44158e-06 0 6.54209e-05 -2.14779e-06 0 6.54209e-05 2.14779e-06 0 6.49773e-05 6.44158e-06 0 6.40732e-05 1.07266e-05 0 6.2676e-05 1.49856e-05 0 6.07392e-05 1.91823e-05 0 5.82086e-05 2.32524e-05 0 5.5033e-05 2.70917e-05 0 5.11862e-05 3.05477e-05 0 4.66998e-05 3.34334e-05 0 4.17013e-05 3.5518e-05 0 3.64276e-05 3.66457e-05 0 3.1196e-05 3.67741e-05 0 2.62947e-05 3.60118e-05 0 2.19211e-05 3.45712e-05 0 1.81569e-05 3.26847e-05 0 1.49971e-05 3.05532e-05 0 1.24651e-05 -3.34544e-05 0 1.57421e-05 -3.62503e-05 0 1.9827e-05 -3.88703e-05 0 2.47992e-05 -4.10401e-05 0 3.06167e-05 -4.23906e-05 0 3.70175e-05 -4.25308e-05 0 4.35156e-05 -4.12534e-05 0 4.95607e-05 -3.8645e-05 0 5.48044e-05 -3.50274e-05 0 5.91304e-05 -3.07872e-05 0 6.2575e-05 -2.61999e-05 0 6.52369e-05 -2.14551e-05 0 6.72239e-05 -1.66618e-05 0 6.86304e-05 -1.18736e-05 0 6.95283e-05 -7.10939e-06 0 6.99654e-05 -2.36696e-06 0 6.99654e-05 2.36696e-06 0 6.95283e-05 7.10939e-06 0 6.86304e-05 1.18736e-05 0 6.72239e-05 1.66618e-05 0 6.52369e-05 2.14551e-05 0 6.2575e-05 2.61999e-05 0 5.91304e-05 3.07872e-05 0 5.48044e-05 3.50274e-05 0 4.95607e-05 3.8645e-05 0 4.35156e-05 4.12534e-05 0 3.70175e-05 4.25308e-05 0 3.06167e-05 4.23906e-05 0 2.47992e-05 4.10401e-05 0 1.9827e-05 3.88703e-05 0 1.57421e-05 3.62503e-05 0 1.24651e-05 3.34544e-05 0 9.2954e-06 -3.63398e-05 0 1.2569e-05 -3.99743e-05 0 1.68885e-05 -4.36014e-05 0 2.24817e-05 -4.6883e-05 0 2.94545e-05 -4.92438e-05 0 3.75182e-05 -4.99011e-05 0 4.5719e-05 -4.83635e-05 0 5.31496e-05 -4.48624e-05 0 5.92435e-05 -4.01258e-05 0 6.40003e-05 -3.48105e-05 0 6.7614e-05 -2.92902e-05 0 7.03025e-05 -2.37665e-05 0 7.22506e-05 -1.83264e-05 0 7.35987e-05 -1.29928e-05 0 7.44458e-05 -7.75354e-06 0 7.48543e-05 -2.57712e-06 0 7.48543e-05 2.57712e-06 0 7.44458e-05 7.75354e-06 0 7.35987e-05 1.29928e-05 0 7.22506e-05 1.83264e-05 0 7.03025e-05 2.37665e-05 0 6.7614e-05 2.92902e-05 0 6.40003e-05 3.48105e-05 0 5.92435e-05 4.01258e-05 0 5.31496e-05 4.48624e-05 0 4.5719e-05 4.83635e-05 0 3.75182e-05 4.99011e-05 0 2.94545e-05 4.92438e-05 0 2.24817e-05 4.6883e-05 0 1.68885e-05 4.36014e-05 0 1.2569e-05 3.99743e-05 0 9.2954e-06 3.63398e-05 0 5.3113e-06 -3.90415e-05 0 8.3499e-06 -4.36822e-05 0 1.26588e-05 -4.86405e-05 0 1.87188e-05 -5.36065e-05 0 2.70711e-05 -5.78095e-05 0 3.77598e-05 -5.97402e-05 0 4.90685e-05 -5.74943e-05 0 5.83401e-05 -5.22762e-05 0 6.52252e-05 -4.57752e-05 0 7.01929e-05 -3.90094e-05 0 7.37505e-05 -3.23678e-05 0 7.62799e-05 -2.59855e-05 0 7.8049e-05 -1.98799e-05 0 7.92406e-05 -1.40159e-05 0 7.99751e-05 -8.33419e-06 0 8.03252e-05 -2.76526e-06 0 8.03252e-05 2.76526e-06 0 7.99751e-05 8.33419e-06 0 7.92406e-05 1.40159e-05 0 7.8049e-05 1.98799e-05 0 7.62799e-05 2.59855e-05 0 7.37505e-05 3.23678e-05 0 7.01929e-05 3.90094e-05 0 6.52252e-05 4.57752e-05 0 5.83401e-05 5.22762e-05 0 4.90685e-05 5.74943e-05 0 3.77598e-05 5.97402e-05 0 2.70711e-05 5.78095e-05 0 1.87188e-05 5.36065e-05 0 1.26588e-05 4.86405e-05 0 8.3499e-06 4.36822e-05 0 5.3113e-06 3.90415e-05 0 3.92703e-07 -4.12987e-05 0 2.82868e-06 -4.7039e-05 0 6.6209e-06 -5.35981e-05 0 1.25076e-05 -6.09283e-05 0 2.18169e-05 -6.86075e-05 0 3.74451e-05 -7.3987e-05 0 5.62687e-05 -6.9792e-05 0 6.73935e-05 -6.0762e-05 0 7.44317e-05 -5.16044e-05 0 7.90648e-05 -4.30397e-05 0 8.2172e-05 -3.51656e-05 0 8.4268e-05 -2.79179e-05 0 8.56715e-05 -2.11873e-05 0 8.6584e-05 -1.48546e-05 0 8.71315e-05 -8.80179e-06 0 8.73881e-05 -2.91536e-06 0 8.73881e-05 2.91536e-06 0 8.71315e-05 8.80179e-06 0 8.6584e-05 1.48546e-05 0 8.56715e-05 2.11873e-05 0 8.4268e-05 2.79179e-05 0 8.2172e-05 3.51656e-05 0 7.90648e-05 4.30397e-05 0 7.44317e-05 5.16044e-05 0 6.73935e-05 6.0762e-05 0 5.62687e-05 6.9792e-05 0 3.74451e-05 7.3987e-05 0 2.18169e-05 6.86075e-05 0 1.25076e-05 6.09283e-05 0 6.6209e-06 5.35981e-05 0 2.82868e-06 4.7039e-05 0 3.92703e-07 4.12987e-05 0 -5.34459e-06 -4.27873e-05 0 -3.9165e-06 -4.9563e-05 0 -1.29252e-06 -5.77393e-05 0 3.28279e-06 -6.77129e-05 0 1.12379e-05 -8.01914e-05 0 2.56565e-05 -9.7586e-05 0 4.31243e-05 -8.4205e-05 0 5.2982e-05 -6.90269e-05 0 5.87583e-05 -5.67668e-05 0 6.22879e-05 -4.63592e-05 0 6.44862e-05 -3.73312e-05 0 6.58628e-05 -2.93326e-05 0 6.6719e-05 -2.20982e-05 0 6.72381e-05 -1.54151e-05 0 6.75316e-05 -9.10486e-06 0 6.76636e-05 -3.01106e-06 0 6.76636e-05 3.01106e-06 0 6.75316e-05 9.10486e-06 0 6.72381e-05 1.54151e-05 0 6.6719e-05 2.20982e-05 0 6.58628e-05 2.93326e-05 0 6.44862e-05 3.73312e-05 0 6.22879e-05 4.63592e-05 0 5.87583e-05 5.67668e-05 0 5.2982e-05 6.90269e-05 0 4.31243e-05 8.4205e-05 0 2.56565e-05 9.7586e-05 0 1.12379e-05 8.01914e-05 0 3.28279e-06 6.77129e-05 0 -1.29252e-06 5.77393e-05 0 -3.9165e-06 4.9563e-05 0 -5.34459e-06 4.27873e-05 0 -1.18572e-05 -4.31646e-05 0 -1.18838e-05 -5.07064e-05 0 -1.11758e-05 -6.01247e-05 0 -9.27051e-06 -7.21383e-05 0 -5.51175e-06 -8.7976e-05 0 3.46772e-07 -0.000109833 0 6.56998e-06 -9.3646e-05 0 1.13033e-05 -7.46677e-05 0 1.41082e-05 -6.01056e-05 0 1.56393e-05 -4.83273e-05 0 1.64181e-05 -3.84828e-05 0 1.67697e-05 -2.99936e-05 0 1.68911e-05 -2.24653e-05 0 1.69021e-05 -1.56081e-05 0 1.68753e-05 -9.19533e-06 0 1.68524e-05 -3.03718e-06 0 1.68524e-05 3.03718e-06 0 1.68753e-05 9.19533e-06 0 1.69021e-05 1.56081e-05 0 1.68911e-05 2.24653e-05 0 1.67697e-05 2.99936e-05 0 1.64181e-05 3.84828e-05 0 1.56393e-05 4.83273e-05 0 1.41082e-05 6.01056e-05 0 1.13033e-05 7.46677e-05 0 6.56998e-06 9.3646e-05 0 3.46772e-07 0.000109833 0 -5.51175e-06 8.7976e-05 0 -9.27051e-06 7.21383e-05 0 -1.11758e-05 6.01247e-05 0 -1.18838e-05 5.07064e-05 0 -1.18572e-05 4.31646e-05 0 -1.87756e-05 -4.21442e-05 0 -2.05304e-05 -5.00097e-05 0 -2.21714e-05 -5.99833e-05 0 -2.35975e-05 -7.2884e-05 0 -2.47019e-05 -8.99408e-05 0 -2.54543e-05 -0.000112739 0 -2.60641e-05 -9.61671e-05 0 -2.67911e-05 -7.61144e-05 0 -2.76791e-05 -6.07e-05 0 -2.86399e-05 -4.84119e-05 0 -2.95809e-05 -3.83056e-05 0 -3.04358e-05 -2.97102e-05 0 -3.11602e-05 -2.21717e-05 0 -3.17248e-05 -1.53637e-05 0 -3.21107e-05 -9.0359e-06 0 -3.23063e-05 -2.98199e-06 0 -3.23063e-05 2.98199e-06 0 -3.21107e-05 9.0359e-06 0 -3.17248e-05 1.53637e-05 0 -3.11602e-05 2.21717e-05 0 -3.04358e-05 2.97102e-05 0 -2.95809e-05 3.83056e-05 0 -2.86399e-05 4.84119e-05 0 -2.76791e-05 6.07e-05 0 -2.67911e-05 7.61144e-05 0 -2.60641e-05 9.61671e-05 0 -2.54543e-05 0.000112739 0 -2.47019e-05 8.99408e-05 0 -2.35975e-05 7.2884e-05 0 -2.21714e-05 5.99833e-05 0 -2.05304e-05 5.00097e-05 0 -1.87756e-05 4.21442e-05 0 -2.57229e-05 -3.95766e-05 0 -2.92873e-05 -4.7252e-05 0 -3.33773e-05 -5.69862e-05 0 -3.82502e-05 -6.95422e-05 0 -4.42669e-05 -8.61524e-05 0 -5.14988e-05 -0.000108662 0 -5.88945e-05 -9.24129e-05 0 -6.50582e-05 -7.30083e-05 0 -6.97433e-05 -5.81912e-05 0 -7.32897e-05 -4.63758e-05 0 -7.60149e-05 -3.66535e-05 0 -7.81189e-05 -2.83921e-05 0 -7.97172e-05 -2.11614e-05 0 -8.08758e-05 -1.4648e-05 0 -8.16319e-05 -8.60843e-06 0 -8.20055e-05 -2.83977e-06 0 -8.20055e-05 2.83977e-06 0 -8.16319e-05 8.60843e-06 0 -8.08758e-05 1.4648e-05 0 -7.97172e-05 2.11614e-05 0 -7.81189e-05 2.83921e-05 0 -7.60149e-05 3.66535e-05 0 -7.32897e-05 4.63758e-05 0 -6.97433e-05 5.81912e-05 0 -6.50582e-05 7.30083e-05 0 -5.88945e-05 9.24129e-05 0 -5.14988e-05 0.000108662 0 -4.42669e-05 8.61524e-05 0 -3.82502e-05 6.95422e-05 0 -3.33773e-05 5.69862e-05 0 -2.92873e-05 4.7252e-05 0 -2.57229e-05 3.95766e-05 0 -3.22893e-05 -3.5463e-05 0 -3.75419e-05 -4.24778e-05 0 -4.38287e-05 -5.12413e-05 0 -5.17434e-05 -6.22581e-05 0 -6.23887e-05 -7.65196e-05 0 -7.72456e-05 -9.68382e-05 0 -9.32573e-05 -8.20545e-05 0 -0.000104866 -6.54676e-05 0 -0.00011292 -5.27157e-05 0 -0.000118732 -4.23042e-05 0 -0.00012305 -3.35724e-05 0 -0.000126294 -2.6063e-05 0 -0.000128705 -1.94464e-05 0 -0.000130422 -1.34669e-05 0 -0.000131529 -7.91541e-06 0 -0.000132073 -2.61123e-06 0 -0.000132073 2.61123e-06 0 -0.000131529 7.91541e-06 0 -0.000130422 1.34669e-05 0 -0.000128705 1.94464e-05 0 -0.000126294 2.6063e-05 0 -0.00012305 3.35724e-05 0 -0.000118732 4.23042e-05 0 -0.00011292 5.27157e-05 0 -0.000104866 6.54676e-05 0 -9.32573e-05 8.20545e-05 0 -7.72456e-05 9.68382e-05 0 -6.23887e-05 7.65196e-05 0 -5.17434e-05 6.22581e-05 0 -4.38287e-05 5.12413e-05 0 -3.75419e-05 4.24778e-05 0 -3.22893e-05 3.5463e-05 0 -3.81415e-05 -2.99351e-05 0 -4.48108e-05 -3.59805e-05 0 -5.27355e-05 -4.33054e-05 0 -6.26398e-05 -5.19311e-05 0 -7.60425e-05 -6.17785e-05 0 -9.73803e-05 -7.15282e-05 0 -0.000123579 -6.50428e-05 0 -0.000138498 -5.44622e-05 0 -0.000148642 -4.49447e-05 0 -0.000156016 -3.65916e-05 0 -0.000161532 -2.92888e-05 0 -0.000165688 -2.28538e-05 0 -0.000168776 -1.71028e-05 0 -0.000170973 -1.18639e-05 0 -0.000172387 -6.97941e-06 0 -0.00017308 -2.30332e-06 0 -0.00017308 2.30332e-06 0 -0.000172387 6.97941e-06 0 -0.000170973 1.18639e-05 0 -0.000168776 1.71028e-05 0 -0.000165688 2.28538e-05 0 -0.000161532 2.92888e-05 0 -0.000156016 3.65916e-05 0 -0.000148642 4.49447e-05 0 -0.000138498 5.44622e-05 0 -0.000123579 6.50428e-05 0 -9.73803e-05 7.15282e-05 0 -7.60425e-05 6.17785e-05 0 -6.26398e-05 5.19311e-05 0 -5.27355e-05 4.33054e-05 0 -4.48108e-05 3.59805e-05 0 -3.81415e-05 2.99351e-05 0 -4.3099e-05 -2.31726e-05 0 -5.08893e-05 -2.81984e-05 0 -5.9775e-05 -3.40595e-05 0 -7.03317e-05 -4.03147e-05 0 -8.34487e-05 -4.61468e-05 0 -9.97058e-05 -4.94868e-05 0 -0.000116618 -4.76475e-05 0 -0.000130444 -4.22566e-05 0 -0.000141011 -3.59665e-05 0 -0.000149114 -2.98233e-05 0 -0.000155359 -2.41379e-05 0 -0.000160149 -1.89634e-05 0 -0.000163744 -1.42505e-05 0 -0.000166317 -9.90967e-06 0 -0.000167978 -5.83772e-06 0 -0.000168793 -1.92772e-06 0 -0.000168793 1.92772e-06 0 -0.000167978 5.83772e-06 0 -0.000166317 9.90967e-06 0 -0.000163744 1.42505e-05 0 -0.000160149 1.89634e-05 0 -0.000155359 2.41379e-05 0 -0.000149114 2.98233e-05 0 -0.000141011 3.59665e-05 0 -0.000130444 4.22566e-05 0 -0.000116618 4.76475e-05 0 -9.97058e-05 4.94868e-05 0 -8.34487e-05 4.61468e-05 0 -7.03317e-05 4.03147e-05 0 -5.9775e-05 3.40595e-05 0 -5.08893e-05 2.81984e-05 0 -4.3099e-05 2.31726e-05 0 -4.71923e-05 -1.5258e-05 0 -5.59421e-05 -1.95586e-05 0 -6.51958e-05 -2.43763e-05 0 -7.54727e-05 -2.89385e-05 0 -8.7255e-05 -3.25479e-05 0 -0.00010039 -3.4291e-05 0 -0.0001137 -3.35127e-05 0 -0.000125726 -3.06566e-05 0 -0.000135837 -2.67483e-05 0 -0.00014407 -2.25591e-05 0 -0.000150656 -1.84607e-05 0 -0.000155824 -1.46058e-05 0 -0.000159759 -1.10244e-05 0 -0.000162601 -7.68697e-06 0 -0.000164444 -4.53525e-06 0 -0.000165351 -1.49866e-06 0 -0.000165351 1.49866e-06 0 -0.000164444 4.53525e-06 0 -0.000162601 7.68697e-06 0 -0.000159759 1.10244e-05 0 -0.000155824 1.46058e-05 0 -0.000150656 1.84607e-05 0 -0.00014407 2.25591e-05 0 -0.000135837 2.67483e-05 0 -0.000125726 3.06566e-05 0 -0.0001137 3.35127e-05 0 -0.00010039 3.4291e-05 0 -8.7255e-05 3.25479e-05 0 -7.54727e-05 2.89385e-05 0 -6.51958e-05 2.43763e-05 0 -5.59421e-05 1.95586e-05 0 -4.71923e-05 1.5258e-05 0 -5.07978e-05 -5.8934e-06 0 -6.06225e-05 -1.04374e-05 0 -6.9577e-05 -1.49718e-05 0 -7.901e-05 -1.84587e-05 0 -8.95012e-05 -2.08152e-05 0 -0.000100824 -2.18811e-05 0 -0.000112269 -2.15502e-05 0 -0.000123027 -2.00296e-05 0 -0.00013256 -1.77575e-05 0 -0.000140669 -1.51659e-05 0 -0.000147361 -1.2521e-05 0 -0.000152723 -9.96511e-06 0 -0.000156862 -7.55044e-06 0 -0.000159876 -5.27715e-06 0 -0.000161841 -3.11771e-06 0 -0.000162811 -1.03088e-06 0 -0.000162811 1.03088e-06 0 -0.000161841 3.11771e-06 0 -0.000159876 5.27715e-06 0 -0.000156862 7.55044e-06 0 -0.000152723 9.96511e-06 0 -0.000147361 1.2521e-05 0 -0.000140669 1.51659e-05 0 -0.00013256 1.77575e-05 0 -0.000123027 2.00296e-05 0 -0.000112269 2.15502e-05 0 -0.000100824 2.18811e-05 0 -8.95012e-05 2.08152e-05 0 -7.901e-05 1.84587e-05 0 -6.9577e-05 1.49718e-05 0 -6.06225e-05 1.04374e-05 0 -5.07978e-05 5.8934e-06 0 -5.54326e-05 6.77332e-06 0 -6.64399e-05 -1.89131e-06 0 -7.32636e-05 -6.71584e-06 0 -8.13656e-05 -9.06699e-06 0 -9.08315e-05 -1.03749e-05 0 -0.000101118 -1.09375e-05 0 -0.000111583 -1.08225e-05 0 -0.000121612 -1.01393e-05 0 -0.000130737 -9.06757e-06 0 -0.000138698 -7.802e-06 0 -0.000145397 -6.47717e-06 0 -0.000150842 -5.17479e-06 0 -0.000155085 -3.93075e-06 0 -0.000158194 -2.7516e-06 0 -0.000160229 -1.62711e-06 0 -0.000161234 -5.38232e-07 0 -0.000161234 5.38232e-07 0 -0.000160229 1.62711e-06 0 -0.000158194 2.7516e-06 0 -0.000155085 3.93075e-06 0 -0.000150842 5.17479e-06 0 -0.000145397 6.47717e-06 0 -0.000138698 7.802e-06 0 -0.000130737 9.06757e-06 0 -0.000121612 1.01393e-05 0 -0.000111583 1.08225e-05 0 -0.000101118 1.09375e-05 0 -9.08315e-05 1.03749e-05 0 -8.13656e-05 9.06699e-06 0 -7.32636e-05 6.71584e-06 0 -6.64399e-05 1.89131e-06 0 -5.54326e-05 -6.77332e-06 0 -6.18533e-05 0.000118373 0 -7.28638e-05 1.21637e-07 0 -7.51887e-05 -4.13356e-07 0 -8.23225e-05 -5.71009e-07 0 -9.13264e-05 -6.52213e-07 0 -0.000101234 -6.86277e-07 0 -0.000111363 -6.78208e-07 0 -0.000121135 -6.34682e-07 0 -0.000130107 -5.66734e-07 0 -0.000138002 -4.86637e-07 0 -0.000144695 -4.03043e-07 0 -0.000150163 -3.2123e-07 0 -0.00015444 -2.4348e-07 0 -0.000157581 -1.70145e-07 0 -0.000159641 -1.00491e-07 0 -0.000160659 -3.32207e-08 0 -0.000160659 3.32207e-08 0 -0.000159641 1.00491e-07 0 -0.000157581 1.70145e-07 0 -0.00015444 2.4348e-07 0 -0.000150163 3.2123e-07 0 -0.000144695 4.03043e-07 0 -0.000138002 4.86637e-07 0 -0.000130107 5.66734e-07 0 -0.000121135 6.34682e-07 0 -0.000111363 6.78208e-07 0 -0.000101234 6.86277e-07 0 -9.13264e-05 6.52213e-07 0 -8.23225e-05 5.71009e-07 0 -7.51887e-05 4.13356e-07 0 -7.28638e-05 -1.21637e-07 0 -6.18533e-05 -0.000118373 0 </DataArray> 
</PointData> 
<Points> 
<DataArray type="Float32" NumberOfComponents="3"> 