<?xml version="1.0"?> 
<VTKFile type="StructuredGrid" version="0.1"> 
<StructuredGrid WholeExtent="0 31 0 31 0 0"> 
<Piece Extent="0 31 0 31 0 0"> 
<PointData>
<DataArray type="Float32" Name="B" format="ascii" NumberOfComponents="3"> 
6.55235e-05 -0.000118373 0 0.00021337 -1.21637e-07 0 0.000220309 4.13356e-07 0 0.000241267 5.71009e-07 0 0.000267696 6.52213e-07 0 0.000296771 6.86277e-07 0 0.000326494 6.78208e-07 0 0.000355166 6.34682e-07 0 0.000381485 5.66734e-07 0 0.000404644 4.86637e-07 0 0.000424275 4.03043e-07 0 0.000440311 3.2123e-07 0 0.000452853 2.4348e-07 0 0.000462063 1.70145e-07 0 0.000468101 1.00491e-07 0 0.000471087 3.32207e-08 0 0.000471087 -3.32207e-08 0 0.000468101 -1.00491e-07 0 0.000462063 -1.70145e-07 0 0.000452853 -2.4348e-07 0 0.000440311 -3.2123e-07 0 0.000424275 -4.03043e-07 0 0.000404644 -4.86637e-07 0 0.000381485 -5.66734e-07 0 0.000355166 -6.34682e-07 0 0.000326494 -6.78208e-07 0 0.000296771 -6.86277e-07 0 0.000267696 -6.52213e-07 0 0.000241267 -5.71009e-07 0 0.000220309 -4.13356e-07 0 0.00021337 1.21637e-07 0 6.55235e-05 0.000118373 0 1.0699e-05 -0.000219113 0 5.65779e-08 -2.37878e-08 0 3.32828e-08 8.84858e-09 0 2.12519e-08 1.36835e-08 0 1.18818e-08 1.59792e-08 0 3.15563e-09 1.69376e-08 0 -4.99367e-09 1.6834e-08 0 -1.20766e-08 1.58657e-08 0 -1.7697e-08 1.42861e-08 0 -2.17848e-08 1.23741e-08 0 -2.45355e-08 1.03321e-08 0 -2.62589e-08 8.29292e-09 0 -2.72646e-08 6.32151e-09 0 -2.78073e-08 4.43635e-09 0 -2.80719e-08 2.62761e-09 0 -2.8176e-08 8.6988e-10 0 -2.8176e-08 -8.6988e-10 0 -2.80719e-08 -2.62761e-09 0 -2.78073e-08 -4.43635e-09 0 -2.72646e-08 -6.32151e-09 0 -2.62589e-08 -8.29292e-09 0 -2.45355e-08 -1.03321e-08 0 -2.17848e-08 -1.23741e-08 0 -1.7697e-08 -1.42861e-08 0 -1.20766e-08 -1.58657e-08 0 -4.99367e-09 -1.6834e-08 0 3.15563e-09 -1.69376e-08 0 1.18818e-08 -1.59792e-08 0 2.12519e-08 -1.36835e-08 0 3.32828e-08 -8.84858e-09 0 5.65779e-08 2.37878e-08 0 1.0699e-05 0.000219113 0 4.38593e-06 -0.000145514 0 -4.03194e-08 -1.51033e-08 0 -4.15839e-08 -1.61647e-10 0 -4.53569e-08 -2.54088e-10 0 -5.01864e-08 -2.94014e-10 0 -5.55185e-08 -3.10713e-10 0 -6.09788e-08 -3.08099e-10 0 -6.62553e-08 -2.89546e-10 0 -7.11095e-08 -2.59844e-10 0 -7.53911e-08 -2.24285e-10 0 -7.90289e-08 -1.86668e-10 0 -8.20069e-08 -1.49409e-10 0 -8.43401e-08 -1.13636e-10 0 -8.60557e-08 -7.96146e-11 0 -8.71815e-08 -4.71025e-11 0 -8.77387e-08 -1.55848e-11 0 -8.77387e-08 1.55848e-11 0 -8.71815e-08 4.71025e-11 0 -8.60557e-08 7.96146e-11 0 -8.43401e-08 1.13636e-10 0 -8.20069e-08 1.49409e-10 0 -7.90289e-08 1.86668e-10 0 -7.53911e-08 2.24285e-10 0 -7.11095e-08 2.59844e-10 0 -6.62553e-08 2.89546e-10 0 -6.09788e-08 3.08099e-10 0 -5.55185e-08 3.10713e-10 0 -5.01864e-08 2.94014e-10 0 -4.53569e-08 2.54088e-10 0 -4.15839e-08 1.61647e-10 0 -4.03194e-08 1.51033e-08 0 4.38593e-06 0.000145514 0 2.26013e-06 -0.0001078 0 6.08845e-10 -1.28936e-08 0 4.49363e-10 8.39301e-12 0 4.92636e-10 2.29885e-13 0 5.47268e-10 2.36365e-13 0 6.07278e-10 2.39987e-13 0 6.68582e-10 2.30516e-13 0 7.27674e-10 2.07933e-13 0 7.81868e-10 1.7742e-13 0 8.29507e-10 1.44954e-13 0 8.69847e-10 1.14306e-13 0 9.02772e-10 8.71284e-14 0 9.28503e-10 6.35971e-14 0 9.47387e-10 4.31608e-14 0 9.59762e-10 2.49881e-14 0 9.65882e-10 8.17696e-15 0 9.65882e-10 -8.17696e-15 0 9.59762e-10 -2.49881e-14 0 9.47387e-10 -4.31608e-14 0 9.28503e-10 -6.35971e-14 0 9.02772e-10 -8.71284e-14 0 8.69847e-10 -1.14306e-13 0 8.29507e-10 -1.44954e-13 0 7.81868e-10 -1.7742e-13 0 7.27674e-10 -2.07933e-13 0 6.68582e-10 -2.30516e-13 0 6.07278e-10 -2.39987e-13 0 5.47268e-10 -2.36365e-13 0 4.92636e-10 -2.29885e-13 0 4.49363e-10 -8.39301e-12 0 6.08845e-10 1.28936e-08 0 2.26013e-06 0.0001078 0 1.38075e-06 -8.46183e-05 0 1.25768e-10 -1.0814e-08 0 3.37411e-12 6.51952e-12 0 3.40755e-12 4.47753e-14 0 3.74733e-12 5.14368e-14 0 4.12589e-12 5.44643e-14 0 4.51514e-12 5.40896e-14 0 4.89288e-12 5.09305e-14 0 5.24221e-12 4.58094e-14 0 5.55208e-12 3.96323e-14 0 5.81679e-12 3.30558e-14 0 6.03453e-12 2.65062e-14 0 6.20581e-12 2.01893e-14 0 6.33214e-12 1.41602e-14 0 6.41521e-12 8.38363e-15 0 6.45638e-12 2.77489e-15 0 6.45638e-12 -2.77489e-15 0 6.41521e-12 -8.38363e-15 0 6.33214e-12 -1.41602e-14 0 6.20581e-12 -2.01893e-14 0 6.03453e-12 -2.65062e-14 0 5.81679e-12 -3.30558e-14 0 5.55208e-12 -3.96323e-14 0 5.24221e-12 -4.58094e-14 0 4.89288e-12 -5.09305e-14 0 4.51514e-12 -5.40896e-14 0 4.12589e-12 -5.44643e-14 0 3.74733e-12 -5.14368e-14 0 3.40755e-12 -4.47753e-14 0 3.37411e-12 -6.51952e-12 0 1.25768e-10 1.0814e-08 0 1.38075e-06 8.46183e-05 0 9.49668e-07 -6.85597e-05 0 9.22398e-11 -9.0856e-09 0 5.39624e-14 5.30352e-12 0 -1.24315e-13 -3.52605e-17 0 -1.37704e-13 -6.00848e-16 0 -1.52455e-13 -6.37315e-16 0 -1.67551e-13 -6.31479e-16 0 -1.8213e-13 -5.92908e-16 0 -1.95532e-13 -5.31511e-16 0 -2.07344e-13 -4.58261e-16 0 -2.17371e-13 -3.80999e-16 0 -2.25573e-13 -3.04673e-16 0 -2.31995e-13 -2.31553e-16 0 -2.36715e-13 -1.62139e-16 0 -2.39811e-13 -9.58911e-17 0 -2.41343e-13 -3.17216e-17 0 -2.41343e-13 3.17216e-17 0 -2.39811e-13 9.58911e-17 0 -2.36715e-13 1.62139e-16 0 -2.31995e-13 2.31553e-16 0 -2.25573e-13 3.04673e-16 0 -2.17371e-13 3.80999e-16 0 -2.07344e-13 4.58261e-16 0 -1.95532e-13 5.31511e-16 0 -1.8213e-13 5.92908e-16 0 -1.67551e-13 6.31479e-16 0 -1.52455e-13 6.37315e-16 0 -1.37704e-13 6.00848e-16 0 -1.24315e-13 3.52605e-17 0 5.39624e-14 -5.30352e-12 0 9.22398e-11 9.0856e-09 0 9.49668e-07 6.85597e-05 0 7.09671e-07 -5.65048e-05 0 7.32882e-11 -7.64987e-09 0 1.34305e-13 4.39356e-12 0 8.25969e-16 3.96816e-16 0 9.0584e-16 -5.55386e-19 0 1.00723e-15 -3.08949e-18 0 1.1106e-15 -3.08476e-18 0 1.21009e-15 -2.92387e-18 0 1.30115e-15 -2.6501e-18 0 1.38102e-15 -2.31064e-18 0 1.44851e-15 -1.94093e-18 0 1.50348e-15 -1.56572e-18 0 1.54638e-15 -1.19826e-18 0 1.57782e-15 -8.43385e-19 0 1.59841e-15 -5.00486e-19 0 1.60858e-15 -1.65846e-19 0 1.60858e-15 1.65846e-19 0 1.59841e-15 5.00486e-19 0 1.57782e-15 8.43385e-19 0 1.54638e-15 1.19826e-18 0 1.50348e-15 1.56572e-18 0 1.44851e-15 1.94093e-18 0 1.38102e-15 2.31064e-18 0 1.30115e-15 2.6501e-18 0 1.21009e-15 2.92387e-18 0 1.1106e-15 3.08476e-18 0 1.00723e-15 3.08949e-18 0 9.0584e-16 5.55386e-19 0 8.25969e-16 -3.96816e-16 0 1.34305e-13 -4.39356e-12 0 7.32882e-11 7.64987e-09 0 7.09671e-07 5.65048e-05 0 5.63217e-07 -4.69241e-05 0 6.05316e-11 -6.43779e-09 0 1.10528e-13 3.66017e-12 0 2.58483e-17 3.30089e-16 0 1.56669e-17 2.09642e-18 0 1.73247e-17 1.51141e-19 0 1.89997e-17 1.50005e-19 0 2.06214e-17 1.41147e-19 0 2.21166e-17 1.26852e-19 0 2.34387e-17 1.09654e-19 0 2.45647e-17 9.13845e-20 0 2.54883e-17 7.32265e-20 0 2.62131e-17 5.57435e-20 0 2.67467e-17 3.90802e-20 0 2.70972e-17 2.31311e-20 0 2.72707e-17 7.65502e-21 0 2.72707e-17 -7.65502e-21 0 2.70972e-17 -2.31311e-20 0 2.67467e-17 -3.90802e-20 0 2.62131e-17 -5.57435e-20 0 2.54883e-17 -7.32265e-20 0 2.45647e-17 -9.13845e-20 0 2.34387e-17 -1.09654e-19 0 2.21166e-17 -1.26852e-19 0 2.06214e-17 -1.41147e-19 0 1.89997e-17 -1.50005e-19 0 1.73247e-17 -1.51141e-19 0 1.56669e-17 -2.09642e-18 0 2.58483e-17 -3.30089e-16 0 1.10528e-13 -3.66017e-12 0 6.05316e-11 6.43779e-09 0 5.63217e-07 4.69241e-05 0 4.68019e-07 -3.89784e-05 0 5.1652e-11 -5.39397e-09 0 9.44024e-14 3.0466e-12 0 1.0226e-17 2.73213e-16 0 -3.82057e-19 1.62672e-18 0 -3.99207e-19 -1.0354e-21 0 -4.38605e-19 -1.03524e-21 0 -4.76671e-19 -9.69994e-22 0 -5.1168e-19 -8.67574e-22 0 -5.4255e-19 -7.46254e-22 0 -5.68768e-19 -6.19086e-22 0 -5.90222e-19 -4.94137e-22 0 -6.07026e-19 -3.74982e-22 0 -6.1938e-19 -2.62277e-22 0 -6.27484e-19 -1.54999e-22 0 -6.31495e-19 -5.12559e-23 0 -6.31495e-19 5.12559e-23 0 -6.27484e-19 1.54999e-22 0 -6.1938e-19 2.62277e-22 0 -6.07026e-19 3.74982e-22 0 -5.90222e-19 4.94137e-22 0 -5.68768e-19 6.19086e-22 0 -5.4255e-19 7.46254e-22 0 -5.1168e-19 8.67574e-22 0 -4.76671e-19 9.69994e-22 0 -4.38605e-19 1.03524e-21 0 -3.99207e-19 1.0354e-21 0 -3.82057e-19 -1.62672e-18 0 1.0226e-17 -2.73213e-16 0 9.44024e-14 -3.0466e-12 0 5.1652e-11 5.39397e-09 0 4.68019e-07 3.89784e-05 0 4.02486e-07 -3.21648e-05 0 4.52332e-11 -4.47686e-09 0 8.27267e-14 2.51746e-12 0 9.61186e-18 2.24955e-16 0 -1.58284e-20 1.34581e-18 0 3.18069e-21 -5.51619e-23 0 3.53003e-21 -6.47063e-23 0 3.86208e-21 -6.05871e-23 0 4.16382e-21 -5.42581e-23 0 4.42638e-21 -4.67309e-23 0 4.64649e-21 -3.88136e-23 0 4.82452e-21 -3.10112e-23 0 4.96262e-21 -2.35523e-23 0 5.06337e-21 -1.64832e-23 0 5.12912e-21 -9.745e-24 0 5.16155e-21 -3.22316e-24 0 5.16155e-21 3.22316e-24 0 5.12912e-21 9.745e-24 0 5.06337e-21 1.64832e-23 0 4.96262e-21 2.35523e-23 0 4.82452e-21 3.10112e-23 0 4.64649e-21 3.88136e-23 0 4.42638e-21 4.67309e-23 0 4.16382e-21 5.42581e-23 0 3.86208e-21 6.05871e-23 0 3.53003e-21 6.47063e-23 0 3.18069e-21 5.51619e-23 0 -1.58284e-20 -1.34581e-18 0 9.61186e-18 -2.24955e-16 0 8.27267e-14 -2.51746e-12 0 4.52332e-11 4.47686e-09 0 4.02486e-07 3.21648e-05 0 3.56312e-07 -2.61592e-05 0 4.05423e-11 -3.65538e-09 0 7.4179e-14 2.0493e-12 0 8.83595e-18 1.82667e-16 0 -1.63755e-20 1.09605e-18 0 3.82891e-22 -5.31516e-24 0 4.25059e-22 -1.40798e-23 0 4.63605e-22 -1.31346e-23 0 4.98819e-22 -1.17831e-23 0 5.29645e-22 -1.01666e-23 0 5.55641e-22 -8.45821e-24 0 5.7678e-22 -6.76757e-24 0 5.93251e-22 -5.14569e-24 0 6.05309e-22 -3.60431e-24 0 6.13198e-22 -2.1321e-24 0 6.17095e-22 -7.05393e-25 0 6.17095e-22 7.05393e-25 0 6.13198e-22 2.1321e-24 0 6.05309e-22 3.60431e-24 0 5.93251e-22 5.14569e-24 0 5.7678e-22 6.76757e-24 0 5.55641e-22 8.45821e-24 0 5.29645e-22 1.01666e-23 0 4.98819e-22 1.17831e-23 0 4.63605e-22 1.31346e-23 0 4.25059e-22 1.40798e-23 0 3.82891e-22 5.31516e-24 0 -1.63755e-20 -1.09605e-18 0 8.83595e-18 -1.82667e-16 0 7.4179e-14 -2.0493e-12 0 4.05423e-11 3.65538e-09 0 3.56312e-07 2.61592e-05 0 3.23318e-07 -2.0739e-05 0 3.71007e-11 -2.90591e-09 0 6.79005e-14 1.6257e-12 0 8.22461e-18 1.44657e-16 0 -1.52722e-20 8.69756e-19 0 2.17414e-23 5.07525e-24 0 2.61176e-23 -2.28692e-24 0 2.85134e-23 -2.07699e-24 0 3.06959e-23 -1.86591e-24 0 3.26034e-23 -1.6123e-24 0 3.42094e-23 -1.34318e-24 0 3.55135e-23 -1.07595e-24 0 3.65283e-23 -8.18847e-25 0 3.72706e-23 -5.73957e-25 0 3.77559e-23 -3.39674e-25 0 3.79955e-23 -1.12405e-25 0 3.79955e-23 1.12405e-25 0 3.77559e-23 3.39674e-25 0 3.72706e-23 5.73957e-25 0 3.65283e-23 8.18847e-25 0 3.55135e-23 1.07595e-24 0 3.42094e-23 1.34318e-24 0 3.26034e-23 1.6123e-24 0 3.06959e-23 1.86591e-24 0 2.85134e-23 2.07699e-24 0 2.61176e-23 2.28692e-24 0 2.17414e-23 -5.07525e-24 0 -1.52722e-20 -8.69756e-19 0 8.22461e-18 -1.44657e-16 0 6.79005e-14 -1.6257e-12 0 3.71007e-11 2.90591e-09 0 3.23318e-07 2.0739e-05 0 2.99873e-07 -1.57427e-05 0 3.46084e-11 -2.21e-09 0 6.33505e-14 1.23458e-12 0 7.76018e-18 1.09722e-16 0 -1.42637e-20 6.60638e-19 0 -5.22515e-24 5.45621e-24 0 -3.79134e-24 -3.19726e-25 0 -4.10126e-24 -2.44677e-25 0 -4.39151e-24 -2.20099e-25 0 -4.64954e-24 -1.90446e-25 0 -4.87042e-24 -1.5886e-25 0 -5.05244e-24 -1.27392e-25 0 -5.19581e-24 -9.70355e-26 0 -5.30168e-24 -6.80594e-26 0 -5.37134e-24 -4.02954e-26 0 -5.40588e-24 -1.33374e-26 0 -5.40588e-24 1.33374e-26 0 -5.37134e-24 4.02954e-26 0 -5.30168e-24 6.80594e-26 0 -5.19581e-24 9.70355e-26 0 -5.05244e-24 1.27392e-25 0 -4.87042e-24 1.5886e-25 0 -4.64954e-24 1.90446e-25 0 -4.39151e-24 2.20099e-25 0 -4.10126e-24 2.44677e-25 0 -3.79134e-24 3.19726e-25 0 -5.22515e-24 -5.45621e-24 0 -1.42637e-20 -6.60638e-19 0 7.76018e-18 -1.09722e-16 0 6.33505e-14 -1.23458e-12 0 3.46084e-11 2.21e-09 0 2.99873e-07 1.57427e-05 0 2.8377e-07 -1.10468e-05 0 3.28738e-11 -1.55273e-09 0 6.0182e-14 8.66567e-13 0 7.42648e-18 7.69521e-17 0 -1.35428e-20 4.6377e-19 0 -2.38287e-24 4.07402e-24 0 -7.81313e-25 -6.34589e-26 0 -8.41956e-25 -2.01971e-26 0 -9.01128e-25 -1.82028e-26 0 -9.53813e-25 -1.57868e-26 0 -9.9898e-25 -1.31964e-26 0 -1.03625e-24 -1.06015e-26 0 -1.06563e-24 -8.08686e-27 0 -1.08735e-24 -5.67806e-27 0 -1.10165e-24 -3.36413e-27 0 -1.10874e-24 -1.11388e-27 0 -1.10874e-24 1.11388e-27 0 -1.10165e-24 3.36413e-27 0 -1.08735e-24 5.67806e-27 0 -1.06563e-24 8.08686e-27 0 -1.03625e-24 1.06015e-26 0 -9.9898e-25 1.31964e-26 0 -9.53813e-25 1.57868e-26 0 -9.01128e-25 1.82028e-26 0 -8.41956e-25 2.01971e-26 0 -7.81313e-25 6.34589e-26 0 -2.38287e-24 -4.07402e-24 0 -1.35428e-20 -4.6377e-19 0 7.42648e-18 -7.69521e-17 0 6.0182e-14 -8.66567e-13 0 3.28738e-11 1.55273e-09 0 2.8377e-07 1.10468e-05 0 2.7366e-07 -6.55151e-06 0 3.17753e-11 -9.21587e-10 0 5.81748e-14 5.1402e-13 0 7.21084e-18 4.56226e-17 0 -1.30873e-20 2.75116e-19 0 -1.56393e-24 2.45882e-24 0 5.28883e-26 -2.55876e-26 0 6.16029e-26 -6.12757e-28 0 6.6726e-26 -5.55479e-28 0 7.11293e-26 -4.88257e-28 0 7.47748e-26 -4.13134e-28 0 7.76896e-26 -3.35306e-28 0 7.99282e-26 -2.57846e-28 0 8.15487e-26 -1.8212e-28 0 8.26001e-26 -1.08323e-28 0 8.3117e-26 -3.5936e-29 0 8.3117e-26 3.5936e-29 0 8.26001e-26 1.08323e-28 0 8.15487e-26 1.8212e-28 0 7.99282e-26 2.57846e-28 0 7.76896e-26 3.35306e-28 0 7.47748e-26 4.13134e-28 0 7.11293e-26 4.88257e-28 0 6.6726e-26 5.55479e-28 0 6.16029e-26 6.12757e-28 0 5.28883e-26 2.55876e-26 0 -1.56393e-24 -2.45882e-24 0 -1.30873e-20 -2.75116e-19 0 7.21084e-18 -4.56226e-17 0 5.81748e-14 -5.1402e-13 0 3.17753e-11 9.21587e-10 0 2.7366e-07 6.55151e-06 0 2.68767e-07 -2.17132e-06 0 3.1241e-11 -3.05547e-10 0 5.71983e-14 1.70372e-13 0 7.10476e-18 1.51179e-17 0 -1.28662e-20 9.11906e-20 0 -1.52519e-24 8.20081e-25 0 6.45242e-26 -8.14802e-27 0 7.35062e-26 1.12299e-28 0 7.90177e-26 1.01425e-28 0 8.38564e-26 8.6841e-29 0 8.79481e-26 7.17294e-29 0 9.12836e-26 5.70359e-29 0 9.38877e-26 4.31494e-29 0 9.57973e-26 3.01106e-29 0 9.70479e-26 1.77672e-29 0 9.76661e-26 5.87081e-30 0 9.76661e-26 -5.87081e-30 0 9.70479e-26 -1.77672e-29 0 9.57973e-26 -3.01106e-29 0 9.38877e-26 -4.31494e-29 0 9.12836e-26 -5.70359e-29 0 8.79481e-26 -7.17294e-29 0 8.38564e-26 -8.6841e-29 0 7.90177e-26 -1.01425e-28 0 7.35062e-26 -1.12299e-28 0 6.45242e-26 8.14802e-27 0 -1.52519e-24 -8.20081e-25 0 -1.28662e-20 -9.11906e-20 0 7.10476e-18 -1.51179e-17 0 5.71983e-14 -1.70372e-13 0 3.1241e-11 3.05547e-10 0 2.68767e-07 2.17132e-06 0 2.68767e-07 2.17132e-06 0 3.1241e-11 3.05547e-10 0 5.71983e-14 -1.70372e-13 0 7.10476e-18 -1.51179e-17 0 -1.28662e-20 -9.11906e-20 0 -1.52519e-24 -8.20081e-25 0 6.45242e-26 8.14802e-27 0 7.35062e-26 -1.12299e-28 0 7.90177e-26 -1.01425e-28 0 8.38564e-26 -8.6841e-29 0 8.79481e-26 -7.17294e-29 0 9.12836e-26 -5.70359e-29 0 9.38877e-26 -4.31494e-29 0 9.57973e-26 -3.01106e-29 0 9.70479e-26 -1.77672e-29 0 9.76661e-26 -5.87081e-30 0 9.76661e-26 5.87081e-30 0 9.70479e-26 1.77672e-29 0 9.57973e-26 3.01106e-29 0 9.38877e-26 4.31494e-29 0 9.12836e-26 5.70359e-29 0 8.79481e-26 7.17294e-29 0 8.38564e-26 8.6841e-29 0 7.90177e-26 1.01425e-28 0 7.35062e-26 1.12299e-28 0 6.45242e-26 -8.14802e-27 0 -1.52519e-24 8.20081e-25 0 -1.28662e-20 9.11906e-20 0 7.10476e-18 1.51179e-17 0 5.71983e-14 1.70372e-13 0 3.1241e-11 -3.05547e-10 0 2.68767e-07 -2.17132e-06 0 2.7366e-07 6.55151e-06 0 3.17753e-11 9.21587e-10 0 5.81748e-14 -5.1402e-13 0 7.21084e-18 -4.56226e-17 0 -1.30873e-20 -2.75116e-19 0 -1.56393e-24 -2.45882e-24 0 5.28883e-26 2.55876e-26 0 6.16029e-26 6.12757e-28 0 6.6726e-26 5.55479e-28 0 7.11293e-26 4.88257e-28 0 7.47748e-26 4.13134e-28 0 7.76896e-26 3.35306e-28 0 7.99282e-26 2.57846e-28 0 8.15487e-26 1.8212e-28 0 8.26001e-26 1.08323e-28 0 8.3117e-26 3.5936e-29 0 8.3117e-26 -3.5936e-29 0 8.26001e-26 -1.08323e-28 0 8.15487e-26 -1.8212e-28 0 7.99282e-26 -2.57846e-28 0 7.76896e-26 -3.35306e-28 0 7.47748e-26 -4.13134e-28 0 7.11293e-26 -4.88257e-28 0 6.6726e-26 -5.55479e-28 0 6.16029e-26 -6.12757e-28 0 5.28883e-26 -2.55876e-26 0 -1.56393e-24 2.45882e-24 0 -1.30873e-20 2.75116e-19 0 7.21084e-18 4.56226e-17 0 5.81748e-14 5.1402e-13 0 3.17753e-11 -9.21587e-10 0 2.7366e-07 -6.55151e-06 0 2.8377e-07 1.10468e-05 0 3.28738e-11 1.55273e-09 0 6.0182e-14 -8.66567e-13 0 7.42648e-18 -7.69521e-17 0 -1.35428e-20 -4.6377e-19 0 -2.38287e-24 -4.07402e-24 0 -7.81313e-25 6.34589e-26 0 -8.41956e-25 2.01971e-26 0 -9.01128e-25 1.82028e-26 0 -9.53813e-25 1.57868e-26 0 -9.9898e-25 1.31964e-26 0 -1.03625e-24 1.06015e-26 0 -1.06563e-24 8.08686e-27 0 -1.08735e-24 5.67806e-27 0 -1.10165e-24 3.36413e-27 0 -1.10874e-24 1.11388e-27 0 -1.10874e-24 -1.11388e-27 0 -1.10165e-24 -3.36413e-27 0 -1.08735e-24 -5.67806e-27 0 -1.06563e-24 -8.08686e-27 0 -1.03625e-24 -1.06015e-26 0 -9.9898e-25 -1.31964e-26 0 -9.53813e-25 -1.57868e-26 0 -9.01128e-25 -1.82028e-26 0 -8.41956e-25 -2.01971e-26 0 -7.81313e-25 -6.34589e-26 0 -2.38287e-24 4.07402e-24 0 -1.35428e-20 4.6377e-19 0 7.42648e-18 7.69521e-17 0 6.0182e-14 8.66567e-13 0 3.28738e-11 -1.55273e-09 0 2.8377e-07 -1.10468e-05 0 2.99873e-07 1.57427e-05 0 3.46084e-11 2.21e-09 0 6.33505e-14 -1.23458e-12 0 7.76018e-18 -1.09722e-16 0 -1.42637e-20 -6.60638e-19 0 -5.22515e-24 -5.45621e-24 0 -3.79134e-24 3.19726e-25 0 -4.10126e-24 2.44677e-25 0 -4.39151e-24 2.20099e-25 0 -4.64954e-24 1.90446e-25 0 -4.87042e-24 1.5886e-25 0 -5.05244e-24 1.27392e-25 0 -5.19581e-24 9.70355e-26 0 -5.30168e-24 6.80594e-26 0 -5.37134e-24 4.02954e-26 0 -5.40588e-24 1.33374e-26 0 -5.40588e-24 -1.33374e-26 0 -5.37134e-24 -4.02954e-26 0 -5.30168e-24 -6.80594e-26 0 -5.19581e-24 -9.70355e-26 0 -5.05244e-24 -1.27392e-25 0 -4.87042e-24 -1.5886e-25 0 -4.64954e-24 -1.90446e-25 0 -4.39151e-24 -2.20099e-25 0 -4.10126e-24 -2.44677e-25 0 -3.79134e-24 -3.19726e-25 0 -5.22515e-24 5.45621e-24 0 -1.42637e-20 6.60638e-19 0 7.76018e-18 1.09722e-16 0 6.33505e-14 1.23458e-12 0 3.46084e-11 -2.21e-09 0 2.99873e-07 -1.57427e-05 0 3.23318e-07 2.0739e-05 0 3.71007e-11 2.90591e-09 0 6.79005e-14 -1.6257e-12 0 8.22461e-18 -1.44657e-16 0 -1.52722e-20 -8.69756e-19 0 2.17414e-23 -5.07525e-24 0 2.61176e-23 2.28692e-24 0 2.85134e-23 2.07699e-24 0 3.06959e-23 1.86591e-24 0 3.26034e-23 1.6123e-24 0 3.42094e-23 1.34318e-24 0 3.55135e-23 1.07595e-24 0 3.65283e-23 8.18847e-25 0 3.72706e-23 5.73957e-25 0 3.77559e-23 3.39674e-25 0 3.79955e-23 1.12405e-25 0 3.79955e-23 -1.12405e-25 0 3.77559e-23 -3.39674e-25 0 3.72706e-23 -5.73957e-25 0 3.65283e-23 -8.18847e-25 0 3.55135e-23 -1.07595e-24 0 3.42094e-23 -1.34318e-24 0 3.26034e-23 -1.6123e-24 0 3.06959e-23 -1.86591e-24 0 2.85134e-23 -2.07699e-24 0 2.61176e-23 -2.28692e-24 0 2.17414e-23 5.07525e-24 0 -1.52722e-20 8.69756e-19 0 8.22461e-18 1.44657e-16 0 6.79005e-14 1.6257e-12 0 3.71007e-11 -2.90591e-09 0 3.23318e-07 -2.0739e-05 0 3.56312e-07 2.61592e-05 0 4.05423e-11 3.65538e-09 0 7.4179e-14 -2.0493e-12 0 8.83595e-18 -1.82667e-16 0 -1.63755e-20 -1.09605e-18 0 3.82891e-22 5.31516e-24 0 4.25059e-22 1.40798e-23 0 4.63605e-22 1.31346e-23 0 4.98819e-22 1.17831e-23 0 5.29645e-22 1.01666e-23 0 5.55641e-22 8.45821e-24 0 5.7678e-22 6.76757e-24 0 5.93251e-22 5.14569e-24 0 6.05309e-22 3.60431e-24 0 6.13198e-22 2.1321e-24 0 6.17095e-22 7.05393e-25 0 6.17095e-22 -7.05393e-25 0 6.13198e-22 -2.1321e-24 0 6.05309e-22 -3.60431e-24 0 5.93251e-22 -5.14569e-24 0 5.7678e-22 -6.76757e-24 0 5.55641e-22 -8.45821e-24 0 5.29645e-22 -1.01666e-23 0 4.98819e-22 -1.17831e-23 0 4.63605e-22 -1.31346e-23 0 4.25059e-22 -1.40798e-23 0 3.82891e-22 -5.31516e-24 0 -1.63755e-20 1.09605e-18 0 8.83595e-18 1.82667e-16 0 7.4179e-14 2.0493e-12 0 4.05423e-11 -3.65538e-09 0 3.56312e-07 -2.61592e-05 0 4.02486e-07 3.21648e-05 0 4.52332e-11 4.47686e-09 0 8.27267e-14 -2.51746e-12 0 9.61186e-18 -2.24955e-16 0 -1.58284e-20 -1.34581e-18 0 3.18069e-21 5.51619e-23 0 3.53003e-21 6.47063e-23 0 3.86208e-21 6.05871e-23 0 4.16382e-21 5.42581e-23 0 4.42638e-21 4.67309e-23 0 4.64649e-21 3.88136e-23 0 4.82452e-21 3.10112e-23 0 4.96262e-21 2.35523e-23 0 5.06337e-21 1.64832e-23 0 5.12912e-21 9.745e-24 0 5.16155e-21 3.22316e-24 0 5.16155e-21 -3.22316e-24 0 5.12912e-21 -9.745e-24 0 5.06337e-21 -1.64832e-23 0 4.96262e-21 -2.35523e-23 0 4.82452e-21 -3.10112e-23 0 4.64649e-21 -3.88136e-23 0 4.42638e-21 -4.67309e-23 0 4.16382e-21 -5.42581e-23 0 3.86208e-21 -6.05871e-23 0 3.53003e-21 -6.47063e-23 0 3.18069e-21 -5.51619e-23 0 -1.58284e-20 1.34581e-18 0 9.61186e-18 2.24955e-16 0 8.27267e-14 2.51746e-12 0 4.52332e-11 -4.47686e-09 0 4.02486e-07 -3.21648e-05 0 4.68019e-07 3.89784e-05 0 5.1652e-11 5.39397e-09 0 9.44024e-14 -3.0466e-12 0 1.0226e-17 -2.73213e-16 0 -3.82057e-19 -1.62672e-18 0 -3.99207e-19 1.0354e-21 0 -4.38605e-19 1.03524e-21 0 -4.76671e-19 9.69994e-22 0 -5.1168e-19 8.67574e-22 0 -5.4255e-19 7.46254e-22 0 -5.68768e-19 6.19086e-22 0 -5.90222e-19 4.94137e-22 0 -6.07026e-19 3.74982e-22 0 -6.1938e-19 2.62277e-22 0 -6.27484e-19 1.54999e-22 0 -6.31495e-19 5.12559e-23 0 -6.31495e-19 -5.12559e-23 0 -6.27484e-19 -1.54999e-22 0 -6.1938e-19 -2.62277e-22 0 -6.07026e-19 -3.74982e-22 0 -5.90222e-19 -4.94137e-22 0 -5.68768e-19 -6.19086e-22 0 -5.4255e-19 -7.46254e-22 0 -5.1168e-19 -8.67574e-22 0 -4.76671e-19 -9.69994e-22 0 -4.38605e-19 -1.03524e-21 0 -3.99207e-19 -1.0354e-21 0 -3.82057e-19 1.62672e-18 0 1.0226e-17 2.73213e-16 0 9.44024e-14 3.0466e-12 0 5.1652e-11 -5.39397e-09 0 4.68019e-07 -3.89784e-05 0 5.63217e-07 4.69241e-05 0 6.05316e-11 6.43779e-09 0 1.10528e-13 -3.66017e-12 0 2.58483e-17 -3.30089e-16 0 1.56669e-17 -2.09642e-18 0 1.73247e-17 -1.51141e-19 0 1.89997e-17 -1.50005e-19 0 2.06214e-17 -1.41147e-19 0 2.21166e-17 -1.26852e-19 0 2.34387e-17 -1.09654e-19 0 2.45647e-17 -9.13845e-20 0 2.54883e-17 -7.32265e-20 0 2.62131e-17 -5.57435e-20 0 2.67467e-17 -3.90802e-20 0 2.70972e-17 -2.31311e-20 0 2.72707e-17 -7.65502e-21 0 2.72707e-17 7.65502e-21 0 2.70972e-17 2.31311e-20 0 2.67467e-17 3.90802e-20 0 2.62131e-17 5.57435e-20 0 2.54883e-17 7.32265e-20 0 2.45647e-17 9.13845e-20 0 2.34387e-17 1.09654e-19 0 2.21166e-17 1.26852e-19 0 2.06214e-17 1.41147e-19 0 1.89997e-17 1.50005e-19 0 1.73247e-17 1.51141e-19 0 1.56669e-17 2.09642e-18 0 2.58483e-17 3.30089e-16 0 1.10528e-13 3.66017e-12 0 6.05316e-11 -6.43779e-09 0 5.63217e-07 -4.69241e-05 0 7.09671e-07 5.65048e-05 0 7.32882e-11 7.64987e-09 0 1.34305e-13 -4.39356e-12 0 8.25969e-16 -3.96816e-16 0 9.0584e-16 5.55386e-19 0 1.00723e-15 3.08949e-18 0 1.1106e-15 3.08476e-18 0 1.21009e-15 2.92387e-18 0 1.30115e-15 2.6501e-18 0 1.38102e-15 2.31064e-18 0 1.44851e-15 1.94093e-18 0 1.50348e-15 1.56572e-18 0 1.54638e-15 1.19826e-18 0 1.57782e-15 8.43385e-19 0 1.59841e-15 5.00486e-19 0 1.60858e-15 1.65846e-19 0 1.60858e-15 -1.65846e-19 0 1.59841e-15 -5.00486e-19 0 1.57782e-15 -8.43385e-19 0 1.54638e-15 -1.19826e-18 0 1.50348e-15 -1.56572e-18 0 1.44851e-15 -1.94093e-18 0 1.38102e-15 -2.31064e-18 0 1.30115e-15 -2.6501e-18 0 1.21009e-15 -2.92387e-18 0 1.1106e-15 -3.08476e-18 0 1.00723e-15 -3.08949e-18 0 9.0584e-16 -5.55386e-19 0 8.25969e-16 3.96816e-16 0 1.34305e-13 4.39356e-12 0 7.32882e-11 -7.64987e-09 0 7.09671e-07 -5.65048e-05 0 9.49668e-07 6.85597e-05 0 9.22398e-11 9.0856e-09 0 5.39624e-14 -5.30352e-12 0 -1.24315e-13 3.52605e-17 0 -1.37704e-13 6.00848e-16 0 -1.52455e-13 6.37315e-16 0 -1.67551e-13 6.31479e-16 0 -1.8213e-13 5.92908e-16 0 -1.95532e-13 5.31511e-16 0 -2.07344e-13 4.58261e-16 0 -2.17371e-13 3.80999e-16 0 -2.25573e-13 3.04673e-16 0 -2.31995e-13 2.31553e-16 0 -2.36715e-13 1.62139e-16 0 -2.39811e-13 9.58911e-17 0 -2.41343e-13 3.17216e-17 0 -2.41343e-13 -3.17216e-17 0 -2.39811e-13 -9.58911e-17 0 -2.36715e-13 -1.62139e-16 0 -2.31995e-13 -2.31553e-16 0 -2.25573e-13 -3.04673e-16 0 -2.17371e-13 -3.80999e-16 0 -2.07344e-13 -4.58261e-16 0 -1.95532e-13 -5.31511e-16 0 -1.8213e-13 -5.92908e-16 0 -1.67551e-13 -6.31479e-16 0 -1.52455e-13 -6.37315e-16 0 -1.37704e-13 -6.00848e-16 0 -1.24315e-13 -3.52605e-17 0 5.39624e-14 5.30352e-12 0 9.22398e-11 -9.0856e-09 0 9.49668e-07 -6.85597e-05 0 1.38075e-06 8.46183e-05 0 1.25768e-10 1.0814e-08 0 3.37411e-12 -6.51952e-12 0 3.40755e-12 -4.47753e-14 0 3.74733e-12 -5.14368e-14 0 4.12589e-12 -5.44643e-14 0 4.51514e-12 -5.40896e-14 0 4.89288e-12 -5.09305e-14 0 5.24221e-12 -4.58094e-14 0 5.55208e-12 -3.96323e-14 0 5.81679e-12 -3.30558e-14 0 6.03453e-12 -2.65062e-14 0 6.20581e-12 -2.01893e-14 0 6.33214e-12 -1.41602e-14 0 6.41521e-12 -8.38363e-15 0 6.45638e-12 -2.77489e-15 0 6.45638e-12 2.77489e-15 0 6.41521e-12 8.38363e-15 0 6.33214e-12 1.41602e-14 0 6.20581e-12 2.01893e-14 0 6.03453e-12 2.65062e-14 0 5.81679e-12 3.30558e-14 0 5.55208e-12 3.96323e-14 0 5.24221e-12 4.58094e-14 0 4.89288e-12 5.09305e-14 0 4.51514e-12 5.40896e-14 0 4.12589e-12 5.44643e-14 0 3.74733e-12 5.14368e-14 0 3.40755e-12 4.47753e-14 0 3.37411e-12 6.51952e-12 0 1.25768e-10 -1.0814e-08 0 1.38075e-06 -8.46183e-05 0 2.26013e-06 0.0001078 0 6.08845e-10 1.28936e-08 0 4.49363e-10 -8.39301e-12 0 4.92636e-10 -2.29885e-13 0 5.47268e-10 -2.36365e-13 0 6.07278e-10 -2.39987e-13 0 6.68582e-10 -2.30516e-13 0 7.27674e-10 -2.07933e-13 0 7.81868e-10 -1.7742e-13 0 8.29507e-10 -1.44954e-13 0 8.69847e-10 -1.14306e-13 0 9.02772e-10 -8.71284e-14 0 9.28503e-10 -6.35971e-14 0 9.47387e-10 -4.31608e-14 0 9.59762e-10 -2.49881e-14 0 9.65882e-10 -8.17696e-15 0 9.65882e-10 8.17696e-15 0 9.59762e-10 2.49881e-14 0 9.47387e-10 4.31608e-14 0 9.28503e-10 6.35971e-14 0 9.02772e-10 8.71284e-14 0 8.69847e-10 1.14306e-13 0 8.29507e-10 1.44954e-13 0 7.81868e-10 1.7742e-13 0 7.27674e-10 2.07933e-13 0 6.68582e-10 2.30516e-13 0 6.07278e-10 2.39987e-13 0 5.47268e-10 2.36365e-13 0 4.92636e-10 2.29885e-13 0 4.49363e-10 8.39301e-12 0 6.08845e-10 -1.28936e-08 0 2.26013e-06 -0.0001078 0 4.38593e-06 0.000145514 0 -4.03194e-08 1.51033e-08 0 -4.15839e-08 1.61647e-10 0 -4.53569e-08 2.54088e-10 0 -5.01864e-08 2.94014e-10 0 -5.55185e-08 3.10713e-10 0 -6.09788e-08 3.08099e-10 0 -6.62553e-08 2.89546e-10 0 -7.11095e-08 2.59844e-10 0 -7.53911e-08 2.24285e-10 0 -7.90289e-08 1.86668e-10 0 -8.20069e-08 1.49409e-10 0 -8.43401e-08 1.13636e-10 0 -8.60557e-08 7.96146e-11 0 -8.71815e-08 4.71025e-11 0 -8.77387e-08 1.55848e-11 0 -8.77387e-08 -1.55848e-11 0 -8.71815e-08 -4.71025e-11 0 -8.60557e-08 -7.96146e-11 0 -8.43401e-08 -1.13636e-10 0 -8.20069e-08 -1.49409e-10 0 -7.90289e-08 -1.86668e-10 0 -7.53911e-08 -2.24285e-10 0 -7.11095e-08 -2.59844e-10 0 -6.62553e-08 -2.89546e-10 0 -6.09788e-08 -3.08099e-10 0 -5.55185e-08 -3.10713e-10 0 -5.01864e-08 -2.94014e-10 0 -4.53569e-08 -2.54088e-10 0 -4.15839e-08 -1.61647e-10 0 -4.03194e-08 -1.51033e-08 0 4.38593e-06 -0.000145514 0 1.0699e-05 0.000219113 0 5.65779e-08 2.37878e-08 0 3.32828e-08 -8.84858e-09 0 2.12519e-08 -1.36835e-08 0 1.18818e-08 -1.59792e-08 0 3.15563e-09 -1.69376e-08 0 -4.99367e-09 -1.6834e-08 0 -1.20766e-08 -1.58657e-08 0 -1.7697e-08 -1.42861e-08 0 -2.17848e-08 -1.23741e-08 0 -2.45355e-08 -1.03321e-08 0 -2.62589e-08 -8.29292e-09 0 -2.72646e-08 -6.32151e-09 0 -2.78073e-08 -4.43635e-09 0 -2.80719e-08 -2.62761e-09 0 -2.8176e-08 -8.6988e-10 0 -2.8176e-08 8.6988e-10 0 -2.80719e-08 2.62761e-09 0 -2.78073e-08 4.43635e-09 0 -2.72646e-08 6.32151e-09 0 -2.62589e-08 8.29292e-09 0 -2.45355e-08 1.03321e-08 0 -2.17848e-08 1.23741e-08 0 -1.7697e-08 1.42861e-08 0 -1.20766e-08 1.58657e-08 0 -4.99367e-09 1.6834e-08 0 3.15563e-09 1.69376e-08 0 1.18818e-08 1.59792e-08 0 2.12519e-08 1.36835e-08 0 3.32828e-08 8.84858e-09 0 5.65779e-08 -2.37878e-08 0 1.0699e-05 -0.000219113 0 6.55235e-05 0.000118373 0 0.00021337 1.21637e-07 0 0.000220309 -4.13356e-07 0 0.000241267 -5.71009e-07 0 0.000267696 -6.52213e-07 0 0.000296771 -6.86277e-07 0 0.000326494 -6.78208e-07 0 0.000355166 -6.34682e-07 0 0.000381485 -5.66734e-07 0 0.000404644 -4.86637e-07 0 0.000424275 -4.03043e-07 0 0.000440311 -3.2123e-07 0 0.000452853 -2.4348e-07 0 0.000462063 -1.70145e-07 0 0.000468101 -1.00491e-07 0 0.000471087 -3.32207e-08 0 0.000471087 3.32207e-08 0 0.000468101 1.00491e-07 0 0.000462063 1.70145e-07 0 0.000452853 2.4348e-07 0 0.000440311 3.2123e-07 0 0.000424275 4.03043e-07 0 0.000404644 4.86637e-07 0 0.000381485 5.66734e-07 0 0.000355166 6.34682e-07 0 0.000326494 6.78208e-07 0 0.000296771 6.86277e-07 0 0.000267696 6.52213e-07 0 0.000241267 5.71009e-07 0 0.000220309 4.13356e-07 0 0.00021337 -1.21637e-07 0 6.55235e-05 -0.000118373 0 </DataArray> 
</PointData> 
<Points> 
<DataArray type="Float32" NumberOfComponents="3"> 