<?xml version="1.0"?> 
<VTKFile type="StructuredGrid" version="0.1"> 
<StructuredGrid WholeExtent="0 31 0 31 0 0"> 
<Piece Extent="0 31 0 31 0 0"> 
<PointData>
<DataArray type="Float32" Name="B" format="ascii" NumberOfComponents="3"> 
-3.1106e-05 -2.03275e-06 0 3.72185e-05 -5.7936e-07 0 3.66556e-05 7.25885e-07 0 3.89922e-05 1.11327e-06 0 4.2369e-05 1.29802e-06 0 4.62032e-05 1.37522e-06 0 5.01815e-05 1.36632e-06 0 5.40782e-05 1.28715e-06 0 5.77223e-05 1.1584e-06 0 6.09942e-05 1.00283e-06 0 6.3822e-05 8.36945e-07 0 6.61722e-05 6.7149e-07 0 6.80365e-05 5.11698e-07 0 6.94206e-05 3.59018e-07 0 7.03349e-05 2.1261e-07 0 7.07892e-05 7.03799e-08 0 7.07892e-05 -7.03799e-08 0 7.03349e-05 -2.1261e-07 0 6.94206e-05 -3.59018e-07 0 6.80365e-05 -5.11698e-07 0 6.61722e-05 -6.7149e-07 0 6.3822e-05 -8.36945e-07 0 6.09942e-05 -1.00283e-06 0 5.77223e-05 -1.1584e-06 0 5.40782e-05 -1.28715e-06 0 5.01815e-05 -1.36632e-06 0 4.62032e-05 -1.37522e-06 0 4.2369e-05 -1.29802e-06 0 3.89922e-05 -1.11327e-06 0 3.66556e-05 -7.25885e-07 0 3.72185e-05 5.7936e-07 0 -3.1106e-05 2.03275e-06 0 1.12241e-05 -0.000200629 0 -3.13683e-06 6.6153e-08 0 -3.21847e-06 -1.2255e-08 0 -3.5128e-06 -1.79867e-08 0 -3.88851e-06 -2.07961e-08 0 -4.30307e-06 -2.19717e-08 0 -4.72747e-06 -2.17824e-08 0 -5.13746e-06 -2.04655e-08 0 -5.51451e-06 -1.83607e-08 0 -5.84695e-06 -1.58433e-08 0 -6.12929e-06 -1.31824e-08 0 -6.36035e-06 -1.05486e-08 0 -6.54133e-06 -8.02141e-09 0 -6.67438e-06 -5.61908e-09 0 -6.76167e-06 -3.32411e-09 0 -6.80487e-06 -1.0998e-09 0 -6.80487e-06 1.0998e-09 0 -6.76167e-06 3.32411e-09 0 -6.67438e-06 5.61908e-09 0 -6.54133e-06 8.02141e-09 0 -6.36035e-06 1.05486e-08 0 -6.12929e-06 1.31824e-08 0 -5.84695e-06 1.58433e-08 0 -5.51451e-06 1.83607e-08 0 -5.13746e-06 2.04655e-08 0 -4.72747e-06 2.17824e-08 0 -4.30307e-06 2.19717e-08 0 -3.88851e-06 2.07961e-08 0 -3.5128e-06 1.79867e-08 0 -3.21847e-06 1.2255e-08 0 -3.13683e-06 -6.6153e-08 0 1.12241e-05 0.000200629 0 7.27461e-06 -0.000157902 0 2.9455e-08 4.35033e-08 0 3.06367e-08 1.65852e-12 0 3.36338e-08 -9.07017e-12 0 3.73814e-08 -1.26261e-11 0 4.14957e-08 -1.40763e-11 0 4.56975e-08 -1.45175e-11 0 4.97464e-08 -1.42968e-11 0 5.34585e-08 -1.35206e-11 0 5.67202e-08 -1.22868e-11 0 5.94811e-08 -1.0704e-11 0 6.17337e-08 -8.89699e-12 0 6.34936e-08 -6.96872e-12 0 6.47849e-08 -4.98806e-12 0 6.5631e-08 -2.99256e-12 0 6.60493e-08 -9.97031e-13 0 6.60493e-08 9.97031e-13 0 6.5631e-08 2.99256e-12 0 6.47849e-08 4.98806e-12 0 6.34936e-08 6.96872e-12 0 6.17337e-08 8.89699e-12 0 5.94811e-08 1.0704e-11 0 5.67202e-08 1.22868e-11 0 5.34585e-08 1.35206e-11 0 4.97464e-08 1.42968e-11 0 4.56975e-08 1.45175e-11 0 4.14957e-08 1.40763e-11 0 3.73814e-08 1.26261e-11 0 3.36338e-08 9.07017e-12 0 3.06367e-08 -1.65852e-12 0 2.9455e-08 -4.35033e-08 0 7.27461e-06 0.000157902 0 5.04447e-06 -0.000127532 0 2.20018e-10 3.36348e-08 0 2.6081e-10 3.44722e-12 0 2.82518e-10 3.41884e-12 0 3.11031e-10 3.97557e-12 0 3.42739e-10 4.20849e-12 0 3.75317e-10 4.17853e-12 0 4.06906e-10 3.93328e-12 0 4.3609e-10 3.53652e-12 0 4.61949e-10 3.05855e-12 0 4.84018e-10 2.55019e-12 0 5.02155e-10 2.04435e-12 0 5.16412e-10 1.55681e-12 0 5.26921e-10 1.09173e-12 0 5.33829e-10 6.46299e-13 0 5.37252e-10 2.13906e-13 0 5.37252e-10 -2.13906e-13 0 5.33829e-10 -6.46299e-13 0 5.26921e-10 -1.09173e-12 0 5.16412e-10 -1.55681e-12 0 5.02155e-10 -2.04435e-12 0 4.84018e-10 -2.55019e-12 0 4.61949e-10 -3.05855e-12 0 4.3609e-10 -3.53652e-12 0 4.06906e-10 -3.93328e-12 0 3.75317e-10 -4.17853e-12 0 3.42739e-10 -4.20849e-12 0 3.11031e-10 -3.97557e-12 0 2.82518e-10 -3.41884e-12 0 2.6081e-10 -3.44722e-12 0 2.20018e-10 -3.36348e-08 0 5.04447e-06 0.000127532 0 3.71942e-06 -0.000104691 0 -2.84366e-11 2.70226e-08 0 -8.43557e-12 1.07445e-12 0 -9.14244e-12 -3.43251e-14 0 -1.01304e-11 -4.07902e-14 0 -1.12194e-11 -4.30452e-14 0 -1.23336e-11 -4.26375e-14 0 -1.34093e-11 -4.00171e-14 0 -1.43978e-11 -3.58564e-14 0 -1.52686e-11 -3.08998e-14 0 -1.60076e-11 -2.56786e-14 0 -1.66119e-11 -2.05264e-14 0 -1.70849e-11 -1.55953e-14 0 -1.74324e-11 -1.09177e-14 0 -1.76604e-11 -6.45588e-15 0 -1.77732e-11 -2.1355e-15 0 -1.77732e-11 2.1355e-15 0 -1.76604e-11 6.45588e-15 0 -1.74324e-11 1.09177e-14 0 -1.70849e-11 1.55953e-14 0 -1.66119e-11 2.05264e-14 0 -1.60076e-11 2.56786e-14 0 -1.52686e-11 3.08998e-14 0 -1.43978e-11 3.58564e-14 0 -1.34093e-11 4.00171e-14 0 -1.23336e-11 4.26375e-14 0 -1.12194e-11 4.30452e-14 0 -1.01304e-11 4.07902e-14 0 -9.14244e-12 3.43251e-14 0 -8.43557e-12 -1.07445e-12 0 -2.84366e-11 -2.70226e-08 0 3.71942e-06 0.000104691 0 2.8851e-06 -8.69827e-05 0 -1.23174e-11 2.21842e-08 0 -5.01866e-15 9.64149e-13 0 4.72385e-14 6.54434e-16 0 5.28444e-14 -2.84532e-16 0 5.88384e-14 -3.01876e-16 0 6.49457e-14 -3.00881e-16 0 7.08169e-14 -2.84573e-16 0 7.61838e-14 -2.57286e-16 0 8.08841e-14 -2.23769e-16 0 8.485e-14 -1.87541e-16 0 8.80764e-14 -1.51e-16 0 9.05912e-14 -1.1539e-16 0 9.24329e-14 -8.1127e-17 0 9.36379e-14 -4.81083e-17 0 9.42333e-14 -1.5936e-17 0 9.42333e-14 1.5936e-17 0 9.36379e-14 4.81083e-17 0 9.24329e-14 8.1127e-17 0 9.05912e-14 1.1539e-16 0 8.80764e-14 1.51e-16 0 8.485e-14 1.87541e-16 0 8.08841e-14 2.23769e-16 0 7.61838e-14 2.57286e-16 0 7.08169e-14 2.84573e-16 0 6.49457e-14 3.00881e-16 0 5.88384e-14 3.01876e-16 0 5.28444e-14 2.84532e-16 0 4.72385e-14 -6.54434e-16 0 -5.01866e-15 -9.64149e-13 0 -1.23174e-11 -2.21842e-08 0 2.8851e-06 8.69827e-05 0 2.33075e-06 -7.27727e-05 0 -8.39979e-12 1.84282e-08 0 -3.43266e-14 8.31542e-13 0 1.05603e-15 7.56543e-16 0 1.27105e-15 9.93033e-18 0 1.40394e-15 1.12019e-17 0 1.54022e-15 1.11172e-17 0 1.67209e-15 1.0458e-17 0 1.79363e-15 9.39609e-18 0 1.90103e-15 8.1198e-18 0 1.99244e-15 6.76517e-18 0 2.06739e-15 5.41973e-18 0 2.12619e-15 4.12503e-18 0 2.16946e-15 2.89157e-18 0 2.19788e-15 1.71134e-18 0 2.21195e-15 5.66328e-19 0 2.21195e-15 -5.66328e-19 0 2.19788e-15 -1.71134e-18 0 2.16946e-15 -2.89157e-18 0 2.12619e-15 -4.12503e-18 0 2.06739e-15 -5.41973e-18 0 1.99244e-15 -6.76517e-18 0 1.90103e-15 -8.1198e-18 0 1.79363e-15 -9.39609e-18 0 1.67209e-15 -1.0458e-17 0 1.54022e-15 -1.11172e-17 0 1.40394e-15 -1.12019e-17 0 1.27105e-15 -9.93033e-18 0 1.05603e-15 -7.56543e-16 0 -3.43266e-14 -8.31542e-13 0 -8.39979e-12 -1.84282e-08 0 2.33075e-06 7.27727e-05 0 1.94674e-06 -6.1005e-05 0 -6.21111e-12 1.53793e-08 0 -2.78825e-14 7.09868e-13 0 -1.00092e-16 6.26026e-16 0 -2.3566e-17 -6.04473e-19 0 -2.61193e-17 -6.63405e-20 0 -2.87279e-17 -6.489e-20 0 -3.12451e-17 -6.07522e-20 0 -3.35568e-17 -5.42778e-20 0 -3.55918e-17 -4.66346e-20 0 -3.73175e-17 -3.86466e-20 0 -3.87277e-17 -3.08184e-20 0 -3.98309e-17 -2.33697e-20 0 -4.06412e-17 -1.63366e-20 0 -4.11725e-17 -9.65101e-21 0 -4.14353e-17 -3.19086e-21 0 -4.14353e-17 3.19086e-21 0 -4.11725e-17 9.65101e-21 0 -4.06412e-17 1.63366e-20 0 -3.98309e-17 2.33697e-20 0 -3.87277e-17 3.08184e-20 0 -3.73175e-17 3.86466e-20 0 -3.55918e-17 4.66346e-20 0 -3.35568e-17 5.42778e-20 0 -3.12451e-17 6.07522e-20 0 -2.87279e-17 6.489e-20 0 -2.61193e-17 6.63405e-20 0 -2.3566e-17 6.04473e-19 0 -1.00092e-16 -6.26026e-16 0 -2.78825e-14 -7.09868e-13 0 -6.21111e-12 -1.53793e-08 0 1.94674e-06 6.1005e-05 0 1.67316e-06 -5.09869e-05 0 -4.90273e-12 1.28163e-08 0 -2.30271e-14 6.002e-13 0 -6.72983e-17 5.2298e-16 0 1.88304e-19 -4.48441e-19 0 2.07477e-19 -1.92847e-21 0 2.28738e-19 -1.33743e-21 0 2.49202e-19 -1.26142e-21 0 2.67936e-19 -1.13674e-21 0 2.84371e-19 -9.85341e-22 0 2.9826e-19 -8.23251e-22 0 3.09577e-19 -6.61087e-22 0 3.18408e-19 -5.04108e-22 0 3.24882e-19 -3.53861e-22 0 3.2912e-19 -2.09619e-22 0 3.31216e-19 -6.94004e-23 0 3.31216e-19 6.94004e-23 0 3.2912e-19 2.09619e-22 0 3.24882e-19 3.53861e-22 0 3.18408e-19 5.04108e-22 0 3.09577e-19 6.61087e-22 0 2.9826e-19 8.23251e-22 0 2.84371e-19 9.85341e-22 0 2.67936e-19 1.13674e-21 0 2.49202e-19 1.26142e-21 0 2.28738e-19 1.33743e-21 0 2.07477e-19 1.92847e-21 0 1.88304e-19 4.48441e-19 0 -6.72983e-17 -5.2298e-16 0 -2.30271e-14 -6.002e-13 0 -4.90273e-12 -1.28163e-08 0 1.67316e-06 5.09869e-05 0 1.47235e-06 -4.2248e-05 0 -4.06103e-12 1.05988e-08 0 -1.9725e-14 5.01154e-13 0 -5.91777e-17 4.33176e-16 0 1.4233e-20 -3.67285e-19 0 1.42576e-20 -5.3949e-22 0 1.56551e-20 -5.64142e-23 0 1.70063e-20 -5.32758e-23 0 1.825e-20 -4.80576e-23 0 1.93478e-20 -4.1699e-23 0 2.02809e-20 -3.48719e-23 0 2.10452e-20 -2.80249e-23 0 2.16442e-20 -2.13837e-23 0 2.20847e-20 -1.50174e-23 0 2.23739e-20 -8.89873e-24 0 2.2517e-20 -2.94663e-24 0 2.2517e-20 2.94663e-24 0 2.23739e-20 8.89873e-24 0 2.20847e-20 1.50174e-23 0 2.16442e-20 2.13837e-23 0 2.10452e-20 2.80249e-23 0 2.02809e-20 3.48719e-23 0 1.93478e-20 4.1699e-23 0 1.825e-20 4.80576e-23 0 1.70063e-20 5.32758e-23 0 1.56551e-20 5.64142e-23 0 1.42576e-20 5.3949e-22 0 1.4233e-20 3.67285e-19 0 -5.91777e-17 -4.33176e-16 0 -1.9725e-14 -5.01154e-13 0 -4.06103e-12 -1.05988e-08 0 1.47235e-06 4.2248e-05 0 1.32399e-06 -3.4457e-05 0 -3.50007e-12 8.63253e-09 0 -1.74125e-14 4.10871e-13 0 -5.3113e-17 3.53194e-16 0 1.87482e-21 -2.97658e-19 0 8.27392e-22 -3.96728e-22 0 9.08096e-22 -3.37915e-24 0 9.8615e-22 -3.23124e-24 0 1.05805e-21 -2.93807e-24 0 1.12155e-21 -2.56992e-24 0 1.17556e-21 -2.16492e-24 0 1.21982e-21 -1.75058e-24 0 1.25453e-21 -1.34225e-24 0 1.28007e-21 -9.46024e-25 0 1.29683e-21 -5.61896e-25 0 1.30513e-21 -1.86278e-25 0 1.30513e-21 1.86278e-25 0 1.29683e-21 5.61896e-25 0 1.28007e-21 9.46024e-25 0 1.25453e-21 1.34225e-24 0 1.21982e-21 1.75058e-24 0 1.17556e-21 2.16492e-24 0 1.12155e-21 2.56992e-24 0 1.05805e-21 2.93807e-24 0 9.8615e-22 3.23124e-24 0 9.08096e-22 3.37915e-24 0 8.27392e-22 3.96728e-22 0 1.87482e-21 2.97658e-19 0 -5.3113e-17 -3.53194e-16 0 -1.74125e-14 -4.10871e-13 0 -3.50007e-12 -8.63253e-09 0 1.32399e-06 3.4457e-05 0 1.21432e-06 -2.7371e-05 0 -3.1162e-12 6.85082e-09 0 -1.57676e-14 3.27552e-13 0 -4.86425e-17 2.80503e-16 0 1.04329e-21 -2.35416e-19 0 6.56906e-23 -3.11601e-22 0 7.21277e-23 6.18919e-25 0 7.83362e-23 5.6266e-25 0 8.40552e-23 5.00863e-25 0 8.91047e-23 4.28681e-25 0 9.33987e-23 3.53971e-25 0 9.69168e-23 2.81387e-25 0 9.96747e-23 2.12835e-25 0 1.01704e-22 1.48498e-25 0 1.03035e-22 8.76154e-26 0 1.03695e-22 2.89493e-26 0 1.03695e-22 -2.89493e-26 0 1.03035e-22 -8.76154e-26 0 1.01704e-22 -1.48498e-25 0 9.96747e-23 -2.12835e-25 0 9.69168e-23 -2.81387e-25 0 9.33987e-23 -3.53971e-25 0 8.91047e-23 -4.28681e-25 0 8.40552e-23 -5.00863e-25 0 7.83362e-23 -5.6266e-25 0 7.21277e-23 -6.18919e-25 0 6.56906e-23 3.11601e-22 0 1.04329e-21 2.35416e-19 0 -4.86425e-17 -2.80503e-16 0 -1.57676e-14 -3.27552e-13 0 -3.1162e-12 -6.85082e-09 0 1.21432e-06 2.7371e-05 0 1.13447e-06 -2.08051e-05 0 -2.85225e-12 5.20402e-09 0 -1.46027e-14 2.49594e-13 0 -4.53981e-17 2.13184e-16 0 8.98461e-22 -1.78402e-19 0 1.14811e-23 -2.36993e-22 0 1.26385e-23 2.11202e-25 0 1.37368e-23 1.86808e-25 0 1.47483e-23 1.67395e-25 0 1.56397e-23 1.44252e-25 0 1.63964e-23 1.19874e-25 0 1.70154e-23 9.58184e-26 0 1.74999e-23 7.27971e-26 0 1.7856e-23 5.09607e-26 0 1.80896e-23 3.01336e-26 0 1.82052e-23 9.96755e-27 0 1.82052e-23 -9.96755e-27 0 1.80896e-23 -3.01336e-26 0 1.7856e-23 -5.09607e-26 0 1.74999e-23 -7.27971e-26 0 1.70154e-23 -9.58184e-26 0 1.63964e-23 -1.19874e-25 0 1.56397e-23 -1.44252e-25 0 1.47483e-23 -1.67395e-25 0 1.37368e-23 -1.86808e-25 0 1.26385e-23 -2.11202e-25 0 1.14811e-23 2.36993e-22 0 8.98461e-22 1.78402e-19 0 -4.53981e-17 -2.13184e-16 0 -1.46027e-14 -2.49594e-13 0 -2.85225e-12 -5.20402e-09 0 1.13447e-06 2.08051e-05 0 1.0787e-06 -1.46124e-05 0 -2.67523e-12 3.65342e-09 0 -1.38044e-14 1.75591e-13 0 -4.31369e-17 1.49714e-16 0 8.27349e-22 -1.25044e-19 0 2.71241e-24 -1.66499e-22 0 3.00245e-24 4.2762e-26 0 3.26165e-24 3.21927e-26 0 3.50169e-24 2.89069e-26 0 3.71326e-24 2.49586e-26 0 3.89287e-24 2.07777e-26 0 4.0398e-24 1.66336e-26 0 4.15484e-24 1.26527e-26 0 4.23939e-24 8.86548e-27 0 4.29485e-24 5.24541e-27 0 4.32229e-24 1.7356e-27 0 4.32229e-24 -1.7356e-27 0 4.29485e-24 -5.24541e-27 0 4.23939e-24 -8.86548e-27 0 4.15484e-24 -1.26527e-26 0 4.0398e-24 -1.66336e-26 0 3.89287e-24 -2.07777e-26 0 3.71326e-24 -2.49586e-26 0 3.50169e-24 -2.89069e-26 0 3.26165e-24 -3.21927e-26 0 3.00245e-24 -4.2762e-26 0 2.71241e-24 1.66499e-22 0 8.27349e-22 1.25044e-19 0 -4.31369e-17 -1.49714e-16 0 -1.38044e-14 -1.75591e-13 0 -2.67523e-12 -3.65342e-09 0 1.0787e-06 1.46124e-05 0 1.0433e-06 -8.67091e-06 0 -2.56589e-12 2.16734e-09 0 -1.3304e-14 1.04301e-13 0 -4.17036e-17 8.88342e-17 0 7.86752e-22 -7.41069e-20 0 4.86786e-25 -9.87942e-23 0 5.56982e-25 9.2825e-27 0 6.03164e-25 3.98859e-27 0 6.47348e-25 3.58967e-27 0 6.8633e-25 3.10348e-27 0 7.19457e-25 2.58678e-27 0 7.46579e-25 2.07302e-27 0 7.6783e-25 1.57822e-27 0 7.83457e-25 1.10651e-27 0 7.93712e-25 6.54956e-28 0 7.98788e-25 2.16756e-28 0 7.98788e-25 -2.16756e-28 0 7.93712e-25 -6.54956e-28 0 7.83457e-25 -1.10651e-27 0 7.6783e-25 -1.57822e-27 0 7.46579e-25 -2.07302e-27 0 7.19457e-25 -2.58678e-27 0 6.8633e-25 -3.10348e-27 0 6.47348e-25 -3.58967e-27 0 6.03164e-25 -3.98859e-27 0 5.56982e-25 -9.2825e-27 0 4.86786e-25 9.87942e-23 0 7.86752e-22 7.41069e-20 0 -4.17036e-17 -8.88342e-17 0 -1.3304e-14 -1.04301e-13 0 -2.56589e-12 -2.16734e-09 0 1.0433e-06 8.67091e-06 0 1.02605e-06 -2.87449e-06 0 -2.51346e-12 7.18403e-10 0 -1.30621e-14 3.45935e-14 0 -4.10061e-17 2.94486e-17 0 7.67982e-22 -2.45523e-20 0 4.98749e-26 -3.27489e-23 0 7.74043e-26 2.03077e-27 0 8.20527e-26 3.39199e-28 0 8.80004e-26 3.06779e-28 0 9.3261e-26 2.65586e-28 0 9.7741e-26 2.21644e-28 0 1.01416e-25 1.77812e-28 0 1.043e-25 1.35485e-28 0 1.06423e-25 9.50506e-29 0 1.07818e-25 5.6285e-29 0 1.08508e-25 1.86312e-29 0 1.08508e-25 -1.86312e-29 0 1.07818e-25 -5.6285e-29 0 1.06423e-25 -9.50506e-29 0 1.043e-25 -1.35485e-28 0 1.01416e-25 -1.77812e-28 0 9.7741e-26 -2.21644e-28 0 9.3261e-26 -2.65586e-28 0 8.80004e-26 -3.06779e-28 0 8.20527e-26 -3.39199e-28 0 7.74043e-26 -2.03077e-27 0 4.98749e-26 3.27489e-23 0 7.67982e-22 2.45523e-20 0 -4.10061e-17 -2.94486e-17 0 -1.30621e-14 -3.45935e-14 0 -2.51346e-12 -7.18403e-10 0 1.02605e-06 2.87449e-06 0 1.02605e-06 2.87449e-06 0 -2.51346e-12 -7.18403e-10 0 -1.30621e-14 -3.45935e-14 0 -4.10061e-17 -2.94486e-17 0 7.67982e-22 2.45523e-20 0 4.98749e-26 3.27489e-23 0 7.74043e-26 -2.03077e-27 0 8.20527e-26 -3.39199e-28 0 8.80004e-26 -3.06779e-28 0 9.3261e-26 -2.65586e-28 0 9.7741e-26 -2.21644e-28 0 1.01416e-25 -1.77812e-28 0 1.043e-25 -1.35485e-28 0 1.06423e-25 -9.50506e-29 0 1.07818e-25 -5.6285e-29 0 1.08508e-25 -1.86312e-29 0 1.08508e-25 1.86312e-29 0 1.07818e-25 5.6285e-29 0 1.06423e-25 9.50506e-29 0 1.043e-25 1.35485e-28 0 1.01416e-25 1.77812e-28 0 9.7741e-26 2.21644e-28 0 9.3261e-26 2.65586e-28 0 8.80004e-26 3.06779e-28 0 8.20527e-26 3.39199e-28 0 7.74043e-26 2.03077e-27 0 4.98749e-26 -3.27489e-23 0 7.67982e-22 -2.45523e-20 0 -4.10061e-17 2.94486e-17 0 -1.30621e-14 3.45935e-14 0 -2.51346e-12 7.18403e-10 0 1.02605e-06 -2.87449e-06 0 1.0433e-06 8.67091e-06 0 -2.56589e-12 -2.16734e-09 0 -1.3304e-14 -1.04301e-13 0 -4.17036e-17 -8.88342e-17 0 7.86752e-22 7.41069e-20 0 4.86786e-25 9.87942e-23 0 5.56982e-25 -9.2825e-27 0 6.03164e-25 -3.98859e-27 0 6.47348e-25 -3.58967e-27 0 6.8633e-25 -3.10348e-27 0 7.19457e-25 -2.58678e-27 0 7.46579e-25 -2.07302e-27 0 7.6783e-25 -1.57822e-27 0 7.83457e-25 -1.10651e-27 0 7.93712e-25 -6.54956e-28 0 7.98788e-25 -2.16756e-28 0 7.98788e-25 2.16756e-28 0 7.93712e-25 6.54956e-28 0 7.83457e-25 1.10651e-27 0 7.6783e-25 1.57822e-27 0 7.46579e-25 2.07302e-27 0 7.19457e-25 2.58678e-27 0 6.8633e-25 3.10348e-27 0 6.47348e-25 3.58967e-27 0 6.03164e-25 3.98859e-27 0 5.56982e-25 9.2825e-27 0 4.86786e-25 -9.87942e-23 0 7.86752e-22 -7.41069e-20 0 -4.17036e-17 8.88342e-17 0 -1.3304e-14 1.04301e-13 0 -2.56589e-12 2.16734e-09 0 1.0433e-06 -8.67091e-06 0 1.0787e-06 1.46124e-05 0 -2.67523e-12 -3.65342e-09 0 -1.38044e-14 -1.75591e-13 0 -4.31369e-17 -1.49714e-16 0 8.27349e-22 1.25044e-19 0 2.71241e-24 1.66499e-22 0 3.00245e-24 -4.2762e-26 0 3.26165e-24 -3.21927e-26 0 3.50169e-24 -2.89069e-26 0 3.71326e-24 -2.49586e-26 0 3.89287e-24 -2.07777e-26 0 4.0398e-24 -1.66336e-26 0 4.15484e-24 -1.26527e-26 0 4.23939e-24 -8.86548e-27 0 4.29485e-24 -5.24541e-27 0 4.32229e-24 -1.7356e-27 0 4.32229e-24 1.7356e-27 0 4.29485e-24 5.24541e-27 0 4.23939e-24 8.86548e-27 0 4.15484e-24 1.26527e-26 0 4.0398e-24 1.66336e-26 0 3.89287e-24 2.07777e-26 0 3.71326e-24 2.49586e-26 0 3.50169e-24 2.89069e-26 0 3.26165e-24 3.21927e-26 0 3.00245e-24 4.2762e-26 0 2.71241e-24 -1.66499e-22 0 8.27349e-22 -1.25044e-19 0 -4.31369e-17 1.49714e-16 0 -1.38044e-14 1.75591e-13 0 -2.67523e-12 3.65342e-09 0 1.0787e-06 -1.46124e-05 0 1.13447e-06 2.08051e-05 0 -2.85225e-12 -5.20402e-09 0 -1.46027e-14 -2.49594e-13 0 -4.53981e-17 -2.13184e-16 0 8.98461e-22 1.78402e-19 0 1.14811e-23 2.36993e-22 0 1.26385e-23 -2.11202e-25 0 1.37368e-23 -1.86808e-25 0 1.47483e-23 -1.67395e-25 0 1.56397e-23 -1.44252e-25 0 1.63964e-23 -1.19874e-25 0 1.70154e-23 -9.58184e-26 0 1.74999e-23 -7.27971e-26 0 1.7856e-23 -5.09607e-26 0 1.80896e-23 -3.01336e-26 0 1.82052e-23 -9.96755e-27 0 1.82052e-23 9.96755e-27 0 1.80896e-23 3.01336e-26 0 1.7856e-23 5.09607e-26 0 1.74999e-23 7.27971e-26 0 1.70154e-23 9.58184e-26 0 1.63964e-23 1.19874e-25 0 1.56397e-23 1.44252e-25 0 1.47483e-23 1.67395e-25 0 1.37368e-23 1.86808e-25 0 1.26385e-23 2.11202e-25 0 1.14811e-23 -2.36993e-22 0 8.98461e-22 -1.78402e-19 0 -4.53981e-17 2.13184e-16 0 -1.46027e-14 2.49594e-13 0 -2.85225e-12 5.20402e-09 0 1.13447e-06 -2.08051e-05 0 1.21432e-06 2.7371e-05 0 -3.1162e-12 -6.85082e-09 0 -1.57676e-14 -3.27552e-13 0 -4.86425e-17 -2.80503e-16 0 1.04329e-21 2.35416e-19 0 6.56906e-23 3.11601e-22 0 7.21277e-23 -6.18919e-25 0 7.83362e-23 -5.6266e-25 0 8.40552e-23 -5.00863e-25 0 8.91047e-23 -4.28681e-25 0 9.33987e-23 -3.53971e-25 0 9.69168e-23 -2.81387e-25 0 9.96747e-23 -2.12835e-25 0 1.01704e-22 -1.48498e-25 0 1.03035e-22 -8.76154e-26 0 1.03695e-22 -2.89493e-26 0 1.03695e-22 2.89493e-26 0 1.03035e-22 8.76154e-26 0 1.01704e-22 1.48498e-25 0 9.96747e-23 2.12835e-25 0 9.69168e-23 2.81387e-25 0 9.33987e-23 3.53971e-25 0 8.91047e-23 4.28681e-25 0 8.40552e-23 5.00863e-25 0 7.83362e-23 5.6266e-25 0 7.21277e-23 6.18919e-25 0 6.56906e-23 -3.11601e-22 0 1.04329e-21 -2.35416e-19 0 -4.86425e-17 2.80503e-16 0 -1.57676e-14 3.27552e-13 0 -3.1162e-12 6.85082e-09 0 1.21432e-06 -2.7371e-05 0 1.32399e-06 3.4457e-05 0 -3.50007e-12 -8.63253e-09 0 -1.74125e-14 -4.10871e-13 0 -5.3113e-17 -3.53194e-16 0 1.87482e-21 2.97658e-19 0 8.27392e-22 3.96728e-22 0 9.08096e-22 3.37915e-24 0 9.8615e-22 3.23124e-24 0 1.05805e-21 2.93807e-24 0 1.12155e-21 2.56992e-24 0 1.17556e-21 2.16492e-24 0 1.21982e-21 1.75058e-24 0 1.25453e-21 1.34225e-24 0 1.28007e-21 9.46024e-25 0 1.29683e-21 5.61896e-25 0 1.30513e-21 1.86278e-25 0 1.30513e-21 -1.86278e-25 0 1.29683e-21 -5.61896e-25 0 1.28007e-21 -9.46024e-25 0 1.25453e-21 -1.34225e-24 0 1.21982e-21 -1.75058e-24 0 1.17556e-21 -2.16492e-24 0 1.12155e-21 -2.56992e-24 0 1.05805e-21 -2.93807e-24 0 9.8615e-22 -3.23124e-24 0 9.08096e-22 -3.37915e-24 0 8.27392e-22 -3.96728e-22 0 1.87482e-21 -2.97658e-19 0 -5.3113e-17 3.53194e-16 0 -1.74125e-14 4.10871e-13 0 -3.50007e-12 8.63253e-09 0 1.32399e-06 -3.4457e-05 0 1.47235e-06 4.2248e-05 0 -4.06103e-12 -1.05988e-08 0 -1.9725e-14 -5.01154e-13 0 -5.91777e-17 -4.33176e-16 0 1.4233e-20 3.67285e-19 0 1.42576e-20 5.3949e-22 0 1.56551e-20 5.64142e-23 0 1.70063e-20 5.32758e-23 0 1.825e-20 4.80576e-23 0 1.93478e-20 4.1699e-23 0 2.02809e-20 3.48719e-23 0 2.10452e-20 2.80249e-23 0 2.16442e-20 2.13837e-23 0 2.20847e-20 1.50174e-23 0 2.23739e-20 8.89873e-24 0 2.2517e-20 2.94663e-24 0 2.2517e-20 -2.94663e-24 0 2.23739e-20 -8.89873e-24 0 2.20847e-20 -1.50174e-23 0 2.16442e-20 -2.13837e-23 0 2.10452e-20 -2.80249e-23 0 2.02809e-20 -3.48719e-23 0 1.93478e-20 -4.1699e-23 0 1.825e-20 -4.80576e-23 0 1.70063e-20 -5.32758e-23 0 1.56551e-20 -5.64142e-23 0 1.42576e-20 -5.3949e-22 0 1.4233e-20 -3.67285e-19 0 -5.91777e-17 4.33176e-16 0 -1.9725e-14 5.01154e-13 0 -4.06103e-12 1.05988e-08 0 1.47235e-06 -4.2248e-05 0 1.67316e-06 5.09869e-05 0 -4.90273e-12 -1.28163e-08 0 -2.30271e-14 -6.002e-13 0 -6.72983e-17 -5.2298e-16 0 1.88304e-19 4.48441e-19 0 2.07477e-19 1.92847e-21 0 2.28738e-19 1.33743e-21 0 2.49202e-19 1.26142e-21 0 2.67936e-19 1.13674e-21 0 2.84371e-19 9.85341e-22 0 2.9826e-19 8.23251e-22 0 3.09577e-19 6.61087e-22 0 3.18408e-19 5.04108e-22 0 3.24882e-19 3.53861e-22 0 3.2912e-19 2.09619e-22 0 3.31216e-19 6.94004e-23 0 3.31216e-19 -6.94004e-23 0 3.2912e-19 -2.09619e-22 0 3.24882e-19 -3.53861e-22 0 3.18408e-19 -5.04108e-22 0 3.09577e-19 -6.61087e-22 0 2.9826e-19 -8.23251e-22 0 2.84371e-19 -9.85341e-22 0 2.67936e-19 -1.13674e-21 0 2.49202e-19 -1.26142e-21 0 2.28738e-19 -1.33743e-21 0 2.07477e-19 -1.92847e-21 0 1.88304e-19 -4.48441e-19 0 -6.72983e-17 5.2298e-16 0 -2.30271e-14 6.002e-13 0 -4.90273e-12 1.28163e-08 0 1.67316e-06 -5.09869e-05 0 1.94674e-06 6.1005e-05 0 -6.21111e-12 -1.53793e-08 0 -2.78825e-14 -7.09868e-13 0 -1.00092e-16 -6.26026e-16 0 -2.3566e-17 6.04473e-19 0 -2.61193e-17 6.63405e-20 0 -2.87279e-17 6.489e-20 0 -3.12451e-17 6.07522e-20 0 -3.35568e-17 5.42778e-20 0 -3.55918e-17 4.66346e-20 0 -3.73175e-17 3.86466e-20 0 -3.87277e-17 3.08184e-20 0 -3.98309e-17 2.33697e-20 0 -4.06412e-17 1.63366e-20 0 -4.11725e-17 9.65101e-21 0 -4.14353e-17 3.19086e-21 0 -4.14353e-17 -3.19086e-21 0 -4.11725e-17 -9.65101e-21 0 -4.06412e-17 -1.63366e-20 0 -3.98309e-17 -2.33697e-20 0 -3.87277e-17 -3.08184e-20 0 -3.73175e-17 -3.86466e-20 0 -3.55918e-17 -4.66346e-20 0 -3.35568e-17 -5.42778e-20 0 -3.12451e-17 -6.07522e-20 0 -2.87279e-17 -6.489e-20 0 -2.61193e-17 -6.63405e-20 0 -2.3566e-17 -6.04473e-19 0 -1.00092e-16 6.26026e-16 0 -2.78825e-14 7.09868e-13 0 -6.21111e-12 1.53793e-08 0 1.94674e-06 -6.1005e-05 0 2.33075e-06 7.27727e-05 0 -8.39979e-12 -1.84282e-08 0 -3.43266e-14 -8.31542e-13 0 1.05603e-15 -7.56543e-16 0 1.27105e-15 -9.93033e-18 0 1.40394e-15 -1.12019e-17 0 1.54022e-15 -1.11172e-17 0 1.67209e-15 -1.0458e-17 0 1.79363e-15 -9.39609e-18 0 1.90103e-15 -8.1198e-18 0 1.99244e-15 -6.76517e-18 0 2.06739e-15 -5.41973e-18 0 2.12619e-15 -4.12503e-18 0 2.16946e-15 -2.89157e-18 0 2.19788e-15 -1.71134e-18 0 2.21195e-15 -5.66328e-19 0 2.21195e-15 5.66328e-19 0 2.19788e-15 1.71134e-18 0 2.16946e-15 2.89157e-18 0 2.12619e-15 4.12503e-18 0 2.06739e-15 5.41973e-18 0 1.99244e-15 6.76517e-18 0 1.90103e-15 8.1198e-18 0 1.79363e-15 9.39609e-18 0 1.67209e-15 1.0458e-17 0 1.54022e-15 1.11172e-17 0 1.40394e-15 1.12019e-17 0 1.27105e-15 9.93033e-18 0 1.05603e-15 7.56543e-16 0 -3.43266e-14 8.31542e-13 0 -8.39979e-12 1.84282e-08 0 2.33075e-06 -7.27727e-05 0 2.8851e-06 8.69827e-05 0 -1.23174e-11 -2.21842e-08 0 -5.01866e-15 -9.64149e-13 0 4.72385e-14 -6.54434e-16 0 5.28444e-14 2.84532e-16 0 5.88384e-14 3.01876e-16 0 6.49457e-14 3.00881e-16 0 7.08169e-14 2.84573e-16 0 7.61838e-14 2.57286e-16 0 8.08841e-14 2.23769e-16 0 8.485e-14 1.87541e-16 0 8.80764e-14 1.51e-16 0 9.05912e-14 1.1539e-16 0 9.24329e-14 8.1127e-17 0 9.36379e-14 4.81083e-17 0 9.42333e-14 1.5936e-17 0 9.42333e-14 -1.5936e-17 0 9.36379e-14 -4.81083e-17 0 9.24329e-14 -8.1127e-17 0 9.05912e-14 -1.1539e-16 0 8.80764e-14 -1.51e-16 0 8.485e-14 -1.87541e-16 0 8.08841e-14 -2.23769e-16 0 7.61838e-14 -2.57286e-16 0 7.08169e-14 -2.84573e-16 0 6.49457e-14 -3.00881e-16 0 5.88384e-14 -3.01876e-16 0 5.28444e-14 -2.84532e-16 0 4.72385e-14 6.54434e-16 0 -5.01866e-15 9.64149e-13 0 -1.23174e-11 2.21842e-08 0 2.8851e-06 -8.69827e-05 0 3.71942e-06 0.000104691 0 -2.84366e-11 -2.70226e-08 0 -8.43557e-12 -1.07445e-12 0 -9.14244e-12 3.43251e-14 0 -1.01304e-11 4.07902e-14 0 -1.12194e-11 4.30452e-14 0 -1.23336e-11 4.26375e-14 0 -1.34093e-11 4.00171e-14 0 -1.43978e-11 3.58564e-14 0 -1.52686e-11 3.08998e-14 0 -1.60076e-11 2.56786e-14 0 -1.66119e-11 2.05264e-14 0 -1.70849e-11 1.55953e-14 0 -1.74324e-11 1.09177e-14 0 -1.76604e-11 6.45588e-15 0 -1.77732e-11 2.1355e-15 0 -1.77732e-11 -2.1355e-15 0 -1.76604e-11 -6.45588e-15 0 -1.74324e-11 -1.09177e-14 0 -1.70849e-11 -1.55953e-14 0 -1.66119e-11 -2.05264e-14 0 -1.60076e-11 -2.56786e-14 0 -1.52686e-11 -3.08998e-14 0 -1.43978e-11 -3.58564e-14 0 -1.34093e-11 -4.00171e-14 0 -1.23336e-11 -4.26375e-14 0 -1.12194e-11 -4.30452e-14 0 -1.01304e-11 -4.07902e-14 0 -9.14244e-12 -3.43251e-14 0 -8.43557e-12 1.07445e-12 0 -2.84366e-11 2.70226e-08 0 3.71942e-06 -0.000104691 0 5.04447e-06 0.000127532 0 2.20018e-10 -3.36348e-08 0 2.6081e-10 -3.44722e-12 0 2.82518e-10 -3.41884e-12 0 3.11031e-10 -3.97557e-12 0 3.42739e-10 -4.20849e-12 0 3.75317e-10 -4.17853e-12 0 4.06906e-10 -3.93328e-12 0 4.3609e-10 -3.53652e-12 0 4.61949e-10 -3.05855e-12 0 4.84018e-10 -2.55019e-12 0 5.02155e-10 -2.04435e-12 0 5.16412e-10 -1.55681e-12 0 5.26921e-10 -1.09173e-12 0 5.33829e-10 -6.46299e-13 0 5.37252e-10 -2.13906e-13 0 5.37252e-10 2.13906e-13 0 5.33829e-10 6.46299e-13 0 5.26921e-10 1.09173e-12 0 5.16412e-10 1.55681e-12 0 5.02155e-10 2.04435e-12 0 4.84018e-10 2.55019e-12 0 4.61949e-10 3.05855e-12 0 4.3609e-10 3.53652e-12 0 4.06906e-10 3.93328e-12 0 3.75317e-10 4.17853e-12 0 3.42739e-10 4.20849e-12 0 3.11031e-10 3.97557e-12 0 2.82518e-10 3.41884e-12 0 2.6081e-10 3.44722e-12 0 2.20018e-10 3.36348e-08 0 5.04447e-06 -0.000127532 0 7.27461e-06 0.000157902 0 2.9455e-08 -4.35033e-08 0 3.06367e-08 -1.65852e-12 0 3.36338e-08 9.07017e-12 0 3.73814e-08 1.26261e-11 0 4.14957e-08 1.40763e-11 0 4.56975e-08 1.45175e-11 0 4.97464e-08 1.42968e-11 0 5.34585e-08 1.35206e-11 0 5.67202e-08 1.22868e-11 0 5.94811e-08 1.0704e-11 0 6.17337e-08 8.89699e-12 0 6.34936e-08 6.96872e-12 0 6.47849e-08 4.98806e-12 0 6.5631e-08 2.99256e-12 0 6.60493e-08 9.97031e-13 0 6.60493e-08 -9.97031e-13 0 6.5631e-08 -2.99256e-12 0 6.47849e-08 -4.98806e-12 0 6.34936e-08 -6.96872e-12 0 6.17337e-08 -8.89699e-12 0 5.94811e-08 -1.0704e-11 0 5.67202e-08 -1.22868e-11 0 5.34585e-08 -1.35206e-11 0 4.97464e-08 -1.42968e-11 0 4.56975e-08 -1.45175e-11 0 4.14957e-08 -1.40763e-11 0 3.73814e-08 -1.26261e-11 0 3.36338e-08 -9.07017e-12 0 3.06367e-08 1.65852e-12 0 2.9455e-08 4.35033e-08 0 7.27461e-06 -0.000157902 0 1.12241e-05 0.000200629 0 -3.13683e-06 -6.6153e-08 0 -3.21847e-06 1.2255e-08 0 -3.5128e-06 1.79867e-08 0 -3.88851e-06 2.07961e-08 0 -4.30307e-06 2.19717e-08 0 -4.72747e-06 2.17824e-08 0 -5.13746e-06 2.04655e-08 0 -5.51451e-06 1.83607e-08 0 -5.84695e-06 1.58433e-08 0 -6.12929e-06 1.31824e-08 0 -6.36035e-06 1.05486e-08 0 -6.54133e-06 8.02141e-09 0 -6.67438e-06 5.61908e-09 0 -6.76167e-06 3.32411e-09 0 -6.80487e-06 1.0998e-09 0 -6.80487e-06 -1.0998e-09 0 -6.76167e-06 -3.32411e-09 0 -6.67438e-06 -5.61908e-09 0 -6.54133e-06 -8.02141e-09 0 -6.36035e-06 -1.05486e-08 0 -6.12929e-06 -1.31824e-08 0 -5.84695e-06 -1.58433e-08 0 -5.51451e-06 -1.83607e-08 0 -5.13746e-06 -2.04655e-08 0 -4.72747e-06 -2.17824e-08 0 -4.30307e-06 -2.19717e-08 0 -3.88851e-06 -2.07961e-08 0 -3.5128e-06 -1.79867e-08 0 -3.21847e-06 -1.2255e-08 0 -3.13683e-06 6.6153e-08 0 1.12241e-05 -0.000200629 0 -3.1106e-05 2.03275e-06 0 3.72185e-05 5.7936e-07 0 3.66556e-05 -7.25885e-07 0 3.89922e-05 -1.11327e-06 0 4.2369e-05 -1.29802e-06 0 4.62032e-05 -1.37522e-06 0 5.01815e-05 -1.36632e-06 0 5.40782e-05 -1.28715e-06 0 5.77223e-05 -1.1584e-06 0 6.09942e-05 -1.00283e-06 0 6.3822e-05 -8.36945e-07 0 6.61722e-05 -6.7149e-07 0 6.80365e-05 -5.11698e-07 0 6.94206e-05 -3.59018e-07 0 7.03349e-05 -2.1261e-07 0 7.07892e-05 -7.03799e-08 0 7.07892e-05 7.03799e-08 0 7.03349e-05 2.1261e-07 0 6.94206e-05 3.59018e-07 0 6.80365e-05 5.11698e-07 0 6.61722e-05 6.7149e-07 0 6.3822e-05 8.36945e-07 0 6.09942e-05 1.00283e-06 0 5.77223e-05 1.1584e-06 0 5.40782e-05 1.28715e-06 0 5.01815e-05 1.36632e-06 0 4.62032e-05 1.37522e-06 0 4.2369e-05 1.29802e-06 0 3.89922e-05 1.11327e-06 0 3.66556e-05 7.25885e-07 0 3.72185e-05 -5.7936e-07 0 -3.1106e-05 -2.03275e-06 0 </DataArray> 
</PointData> 
<Points> 
<DataArray type="Float32" NumberOfComponents="3"> 