<?xml version="1.0"?> 
<VTKFile type="StructuredGrid" version="0.1"> 
<StructuredGrid WholeExtent="0 31 0 31 0 0"> 
<Piece Extent="0 31 0 31 0 0"> 
<PointData>
<DataArray type="Float32" Name="B" format="ascii" NumberOfComponents="3"> 
2.39184e-06 -0 0 2.24431e-06 -0 0 2.09974e-06 -0 0 1.95909e-06 -0 0 1.82316e-06 -0 0 1.69256e-06 -0 0 1.56773e-06 -0 0 1.44898e-06 -0 0 1.33648e-06 -0 0 1.23029e-06 -0 0 1.13036e-06 -0 0 1.03655e-06 -0 0 9.48688e-07 -0 0 8.66521e-07 -0 0 7.89765e-07 -0 0 7.18115e-07 -0 0 6.51243e-07 -0 0 5.88809e-07 -0 0 5.30478e-07 -0 0 4.75904e-07 -0 0 4.24752e-07 -0 0 3.76696e-07 -0 0 3.31409e-07 -0 0 2.88583e-07 -0 0 2.47915e-07 -0 0 2.09109e-07 -0 0 1.71886e-07 -0 0 1.35963e-07 -0 0 1.01075e-07 -0 0 6.69588e-08 -0 0 3.33512e-08 -0 0 0 -0 0 2.39079e-06 1.48907e-07 0 2.24262e-06 1.46445e-07 0 2.09751e-06 1.42933e-07 0 1.95642e-06 1.38549e-07 0 1.82015e-06 1.33468e-07 0 1.68929e-06 1.27857e-07 0 1.56429e-06 1.21875e-07 0 1.44545e-06 1.15662e-07 0 1.33293e-06 1.09345e-07 0 1.22676e-06 1.0303e-07 0 1.1269e-06 9.68042e-08 0 1.03321e-06 9.07551e-08 0 9.45483e-07 8.49133e-08 0 8.63476e-07 7.93505e-08 0 7.86894e-07 7.40885e-08 0 7.15429e-07 6.91233e-08 0 6.48747e-07 6.45302e-08 0 5.86506e-07 6.02567e-08 0 5.28367e-07 5.63194e-08 0 4.73981e-07 5.27444e-08 0 4.23015e-07 4.94781e-08 0 3.7514e-07 4.65539e-08 0 3.30028e-07 4.39463e-08 0 2.87372e-07 4.16234e-08 0 2.46869e-07 3.96333e-08 0 2.08222e-07 3.79116e-08 0 1.71154e-07 3.64665e-08 0 1.35383e-07 3.53106e-08 0 1.00642e-07 3.44009e-08 0 6.6672e-08 3.37666e-08 0 3.32082e-08 3.33878e-08 0 0 3.3245e-08 0 2.38794e-06 2.99046e-07 0 2.23807e-06 2.93948e-07 0 2.09153e-06 2.86745e-07 0 1.94928e-06 2.778e-07 0 1.8121e-06 2.67467e-07 0 1.68058e-06 2.56086e-07 0 1.55514e-06 2.43978e-07 0 1.43607e-06 2.31427e-07 0 1.32348e-06 2.18685e-07 0 1.21739e-06 2.05965e-07 0 1.11773e-06 1.93439e-07 0 1.02434e-06 1.81283e-07 0 9.36982e-07 1.69555e-07 0 8.55403e-07 1.58398e-07 0 7.79289e-07 1.47852e-07 0 7.08316e-07 1.37908e-07 0 6.4214e-07 1.28716e-07 0 5.8041e-07 1.20168e-07 0 5.2278e-07 1.12297e-07 0 4.68897e-07 1.05153e-07 0 4.18422e-07 9.86278e-08 0 3.71025e-07 9.27888e-08 0 3.26377e-07 8.75832e-08 0 2.84172e-07 8.29471e-08 0 2.44104e-07 7.89763e-08 0 2.0588e-07 7.55414e-08 0 1.69221e-07 7.26589e-08 0 1.3385e-07 7.03536e-08 0 9.95005e-08 6.85393e-08 0 6.59144e-08 6.72745e-08 0 3.28305e-08 6.65192e-08 0 0 6.62343e-08 0 2.3829e-06 4.51635e-07 0 2.23019e-06 4.43548e-07 0 2.08126e-06 4.32292e-07 0 1.93707e-06 4.18427e-07 0 1.7984e-06 4.02501e-07 0 1.6658e-06 3.85035e-07 0 1.53966e-06 3.66516e-07 0 1.42021e-06 3.47378e-07 0 1.30755e-06 3.27997e-07 0 1.20162e-06 3.08694e-07 0 1.10233e-06 2.89723e-07 0 1.00945e-06 2.7135e-07 0 9.22743e-07 2.5365e-07 0 8.41897e-07 2.36836e-07 0 7.66576e-07 2.20967e-07 0 6.96437e-07 2.06018e-07 0 6.31115e-07 1.92217e-07 0 5.70245e-07 1.79393e-07 0 5.1347e-07 1.67594e-07 0 4.60428e-07 1.56894e-07 0 4.10775e-07 1.47128e-07 0 3.64178e-07 1.38392e-07 0 3.20305e-07 1.30609e-07 0 2.78849e-07 1.23679e-07 0 2.39507e-07 1.17746e-07 0 2.01985e-07 1.12616e-07 0 1.66009e-07 1.08311e-07 0 1.31302e-07 1.04869e-07 0 9.7603e-08 1.0216e-07 0 6.46557e-08 1.00273e-07 0 3.22031e-08 9.91453e-08 0 0 9.87201e-08 0 2.37507e-06 6.0796e-07 0 2.21828e-06 5.96331e-07 0 2.06593e-06 5.80457e-07 0 1.91901e-06 5.61117e-07 0 1.77825e-06 5.3907e-07 0 1.64416e-06 5.15032e-07 0 1.51709e-06 4.89667e-07 0 1.39718e-06 4.63561e-07 0 1.28447e-06 4.37222e-07 0 1.17885e-06 4.11069e-07 0 1.08013e-06 3.85438e-07 0 9.88056e-07 3.60683e-07 0 9.02309e-07 3.36885e-07 0 8.22548e-07 3.14329e-07 0 7.48394e-07 2.93077e-07 0 6.79471e-07 2.73091e-07 0 6.15389e-07 2.54667e-07 0 5.55761e-07 2.37571e-07 0 5.00217e-07 2.21858e-07 0 4.48383e-07 2.07624e-07 0 3.99907e-07 1.94642e-07 0 3.54452e-07 1.83041e-07 0 3.11685e-07 1.7271e-07 0 2.71297e-07 1.63517e-07 0 2.32987e-07 1.55652e-07 0 1.96464e-07 1.48852e-07 0 1.61457e-07 1.43149e-07 0 1.27693e-07 1.3859e-07 0 9.49146e-08 1.35003e-07 0 6.28725e-08 1.32504e-07 0 3.13143e-08 1.31011e-07 0 0 1.30448e-07 0 2.36421e-06 7.69311e-07 0 2.20222e-06 7.53367e-07 0 2.04557e-06 7.32089e-07 0 1.89523e-06 7.06506e-07 0 1.75189e-06 6.77615e-07 0 1.61602e-06 6.46344e-07 0 1.48786e-06 6.13548e-07 0 1.36749e-06 5.79967e-07 0 1.25482e-06 5.46245e-07 0 1.14968e-06 5.12893e-07 0 1.05178e-06 4.80322e-07 0 9.60797e-07 4.48976e-07 0 8.76338e-07 4.18923e-07 0 7.98007e-07 3.90515e-07 0 7.25375e-07 3.63815e-07 0 6.58026e-07 3.38753e-07 0 5.95539e-07 3.15698e-07 0 5.37504e-07 2.94338e-07 0 4.8353e-07 2.74734e-07 0 4.33232e-07 2.56999e-07 0 3.86249e-07 2.40841e-07 0 3.42239e-07 2.26416e-07 0 3.00867e-07 2.13582e-07 0 2.61825e-07 2.0217e-07 0 2.24813e-07 1.92411e-07 0 1.89545e-07 1.83979e-07 0 1.55753e-07 1.7691e-07 0 1.23171e-07 1.71261e-07 0 9.15479e-08 1.66817e-07 0 6.06397e-08 1.63722e-07 0 3.02014e-08 1.61873e-07 0 0 1.61176e-07 0 2.34893e-06 9.37027e-07 0 2.18042e-06 9.15737e-07 0 2.01845e-06 8.88016e-07 0 1.86396e-06 8.55187e-07 0 1.71758e-06 8.18515e-07 0 1.57966e-06 7.79166e-07 0 1.45035e-06 7.38195e-07 0 1.32959e-06 6.96506e-07 0 1.21717e-06 6.54875e-07 0 1.1128e-06 6.13897e-07 0 1.01609e-06 5.74052e-07 0 9.26601e-07 5.35867e-07 0 8.43865e-07 4.99377e-07 0 7.67412e-07 4.64999e-07 0 6.96751e-07 4.32779e-07 0 6.31422e-07 4.02607e-07 0 5.70966e-07 3.74921e-07 0 5.14942e-07 3.49317e-07 0 4.62942e-07 3.25858e-07 0 4.14565e-07 3.04671e-07 0 3.69442e-07 2.85392e-07 0 3.27226e-07 2.68202e-07 0 2.87581e-07 2.52922e-07 0 2.502e-07 2.39346e-07 0 2.14788e-07 2.27747e-07 0 1.81063e-07 2.1773e-07 0 1.48765e-07 2.09336e-07 0 1.17633e-07 2.02631e-07 0 8.74255e-08 1.97359e-07 0 5.79063e-08 1.93687e-07 0 2.88392e-08 1.91494e-07 0 0 1.90668e-07 0 2.32836e-06 1.11254e-06 0 2.15209e-06 1.08456e-06 0 1.98388e-06 1.04905e-06 0 1.82462e-06 1.0077e-06 0 1.67484e-06 9.62069e-07 0 1.53476e-06 9.13591e-07 0 1.40436e-06 8.63535e-07 0 1.28341e-06 8.12972e-07 0 1.17156e-06 7.62811e-07 0 1.06835e-06 7.13711e-07 0 9.7326e-07 6.66209e-07 0 8.85728e-07 6.20912e-07 0 8.0519e-07 5.7779e-07 0 7.31089e-07 5.37321e-07 0 6.62867e-07 4.99518e-07 0 6.00009e-07 4.64214e-07 0 5.42015e-07 4.31913e-07 0 4.88414e-07 4.02104e-07 0 4.38777e-07 3.74847e-07 0 3.92688e-07 3.50277e-07 0 3.49771e-07 3.27951e-07 0 3.09675e-07 3.08071e-07 0 2.72064e-07 2.90421e-07 0 2.36635e-07 2.74753e-07 0 2.03098e-07 2.61379e-07 0 1.71178e-07 2.49836e-07 0 1.40624e-07 2.40169e-07 0 1.11184e-07 2.32452e-07 0 8.26264e-08 2.26385e-07 0 5.47248e-08 2.2216e-07 0 2.72539e-08 2.19639e-07 0 0 2.18688e-07 0 2.30149e-06 1.29729e-06 0 2.11627e-06 1.2609e-06 0 1.941e-06 1.21593e-06 0 1.77648e-06 1.16446e-06 0 1.62309e-06 1.10843e-06 0 1.48086e-06 1.04957e-06 0 1.34957e-06 9.89354e-07 0 1.22878e-06 9.29033e-07 0 1.11792e-06 8.69635e-07 0 1.01635e-06 8.11863e-07 0 9.23398e-07 7.56292e-07 0 8.38352e-07 7.03598e-07 0 7.60534e-07 6.53652e-07 0 6.89294e-07 6.06984e-07 0 6.23997e-07 5.63552e-07 0 5.64071e-07 5.23117e-07 0 5.08973e-07 4.86242e-07 0 4.58202e-07 4.52293e-07 0 4.11307e-07 4.21321e-07 0 3.67859e-07 3.93459e-07 0 3.27476e-07 3.68182e-07 0 2.89806e-07 3.4571e-07 0 2.54516e-07 3.25783e-07 0 2.21308e-07 3.08112e-07 0 1.89899e-07 2.93044e-07 0 1.60025e-07 2.80048e-07 0 1.31443e-07 2.6917e-07 0 1.03914e-07 2.60491e-07 0 7.72177e-08 2.53671e-07 0 5.11398e-08 2.48923e-07 0 2.54678e-08 2.46089e-07 0 0 2.45021e-07 0 2.26481e-06 1.49281e-06 0 2.0692e-06 1.44582e-06 0 1.88598e-06 1.38927e-06 0 1.7158e-06 1.32575e-06 0 1.55879e-06 1.25759e-06 0 1.4147e-06 1.18685e-06 0 1.28302e-06 1.11524e-06 0 1.16302e-06 1.04417e-06 0 1.05388e-06 9.74757e-07 0 9.54728e-07 9.07727e-07 0 8.64691e-07 8.43666e-07 0 7.82898e-07 7.833e-07 0 7.08538e-07 7.26359e-07 0 6.40855e-07 6.73412e-07 0 5.79134e-07 6.24342e-07 0 5.22744e-07 5.78813e-07 0 4.711e-07 5.3744e-07 0 4.2367e-07 4.99451e-07 0 3.79986e-07 4.64877e-07 0 3.3961e-07 4.33846e-07 0 3.02158e-07 4.05743e-07 0 2.67279e-07 3.808e-07 0 2.34647e-07 3.58712e-07 0 2.03973e-07 3.39147e-07 0 1.74986e-07 3.2248e-07 0 1.47432e-07 3.08117e-07 0 1.21084e-07 2.96103e-07 0 9.57157e-08 2.86522e-07 0 7.11206e-08 2.78997e-07 0 4.70997e-08 2.73759e-07 0 2.34552e-08 2.70634e-07 0 0 2.69456e-07 0 2.21764e-06 1.70066e-06 0 2.0105e-06 1.64031e-06 0 1.81877e-06 1.56956e-06 0 1.64281e-06 1.49161e-06 0 1.48243e-06 1.40927e-06 0 1.33699e-06 1.32493e-06 0 1.20559e-06 1.24055e-06 0 1.08717e-06 1.15763e-06 0 9.80574e-07 1.07739e-06 0 8.84664e-07 1.00051e-06 0 7.98347e-07 9.27557e-07 0 7.20568e-07 8.59282e-07 0 6.50374e-07 7.95219e-07 0 5.86901e-07 7.35965e-07 0 5.29352e-07 6.81298e-07 0 4.77038e-07 6.30761e-07 0 4.29335e-07 5.85015e-07 0 3.85686e-07 5.4313e-07 0 3.45611e-07 5.05108e-07 0 3.08666e-07 4.71067e-07 0 2.7447e-07 4.40294e-07 0 2.42678e-07 4.13029e-07 0 2.12975e-07 3.88921e-07 0 1.85085e-07 3.67589e-07 0 1.58749e-07 3.49439e-07 0 1.33732e-07 3.33809e-07 0 1.0982e-07 3.20745e-07 0 8.68049e-08 3.10333e-07 0 6.4496e-08 3.02157e-07 0 4.27111e-08 2.96469e-07 0 2.12693e-08 2.93076e-07 0 0 2.91797e-07 0 2.15608e-06 1.92238e-06 0 1.93632e-06 1.84516e-06 0 1.73572e-06 1.75699e-06 0 1.55423e-06 1.66178e-06 0 1.39112e-06 1.56288e-06 0 1.24525e-06 1.46302e-06 0 1.11522e-06 1.36433e-06 0 9.99504e-07 1.26843e-06 0 8.96603e-07 1.17655e-06 0 8.05041e-07 1.08926e-06 0 7.23484e-07 1.00706e-06 0 6.50676e-07 9.30705e-07 0 5.85517e-07 8.59467e-07 0 5.27036e-07 7.93949e-07 0 4.74355e-07 7.33794e-07 0 4.26737e-07 6.78402e-07 0 3.83525e-07 6.28466e-07 0 3.44145e-07 5.82881e-07 0 3.0811e-07 5.41613e-07 0 2.74982e-07 5.04761e-07 0 2.44386e-07 4.7151e-07 0 2.15991e-07 4.42103e-07 0 1.89497e-07 4.16139e-07 0 1.64645e-07 3.93193e-07 0 1.41196e-07 3.73691e-07 0 1.18932e-07 3.56911e-07 0 9.76595e-08 3.42895e-07 0 7.71893e-08 3.3173e-07 0 5.73501e-08 3.22967e-07 0 3.79783e-08 3.16872e-07 0 1.89122e-08 3.13238e-07 0 0 3.11868e-07 0 2.07507e-06 2.15942e-06 0 1.84184e-06 2.0609e-06 0 1.63248e-06 1.95135e-06 0 1.44624e-06 1.83553e-06 0 1.28166e-06 1.71734e-06 0 1.13686e-06 1.59982e-06 0 1.00979e-06 1.48524e-06 0 8.98406e-07 1.37521e-06 0 8.00734e-07 1.27094e-06 0 7.1495e-07 1.17276e-06 0 6.39451e-07 1.08107e-06 0 5.72776e-07 9.96573e-07 0 5.13679e-07 9.18213e-07 0 4.61091e-07 8.46578e-07 0 4.14066e-07 7.81139e-07 0 3.71828e-07 7.21128e-07 0 3.33702e-07 6.6726e-07 0 2.99107e-07 6.18235e-07 0 2.67565e-07 5.73979e-07 0 2.38649e-07 5.34562e-07 0 2.12001e-07 4.99064e-07 0 1.87311e-07 4.67729e-07 0 1.64302e-07 4.40104e-07 0 1.42736e-07 4.15717e-07 0 1.22399e-07 3.95016e-07 0 1.03097e-07 3.77217e-07 0 8.46566e-08 3.6236e-07 0 6.69129e-08 3.50533e-07 0 4.97159e-08 3.41253e-07 0 3.29234e-08 3.34801e-07 0 1.63952e-08 3.30953e-07 0 0 3.29504e-07 0 1.97214e-06 2.41297e-06 0 1.72517e-06 2.28755e-06 0 1.50779e-06 2.15184e-06 0 1.31819e-06 2.01151e-06 0 1.15389e-06 1.871e-06 0 1.01206e-06 1.73357e-06 0 8.89884e-07 1.60151e-06 0 7.84643e-07 1.4763e-06 0 6.93879e-07 1.35899e-06 0 6.15379e-07 1.24961e-06 0 5.47268e-07 1.14834e-06 0 4.87883e-07 1.05579e-06 0 4.35846e-07 9.70508e-07 0 3.90004e-07 8.93031e-07 0 3.49364e-07 8.22625e-07 0 3.13127e-07 7.58332e-07 0 2.80614e-07 7.00872e-07 0 2.51257e-07 6.48742e-07 0 2.24593e-07 6.01815e-07 0 2.00221e-07 5.60129e-07 0 1.77809e-07 5.22659e-07 0 1.57076e-07 4.89644e-07 0 1.37774e-07 4.6058e-07 0 1.19693e-07 4.34952e-07 0 1.02646e-07 4.13221e-07 0 8.64671e-08 3.94551e-07 0 7.10086e-08 3.78976e-07 0 5.61312e-08 3.66584e-07 0 4.17089e-08 3.56865e-07 0 2.76228e-08 3.5011e-07 0 1.37563e-08 3.46082e-07 0 0 3.44564e-07 0 1.83667e-06 2.68363e-06 0 1.57668e-06 2.52432e-06 0 1.35329e-06 2.35674e-06 0 1.16309e-06 2.18751e-06 0 1.00212e-06 2.02144e-06 0 8.66341e-07 1.86185e-06 0 7.51948e-07 1.71084e-06 0 6.55497e-07 1.56958e-06 0 5.73982e-07 1.43883e-06 0 5.048e-07 1.31817e-06 0 4.45815e-07 1.20745e-06 0 3.95193e-07 1.10715e-06 0 3.51453e-07 1.01533e-06 0 3.13392e-07 9.32443e-07 0 2.79997e-07 8.57525e-07 0 2.50477e-07 7.89403e-07 0 2.24174e-07 7.28786e-07 0 2.00553e-07 6.73963e-07 0 1.79187e-07 6.24749e-07 0 1.59712e-07 5.81143e-07 0 1.41838e-07 5.4202e-07 0 1.2532e-07 5.07608e-07 0 1.09948e-07 4.77357e-07 0 9.55494e-08 4.50709e-07 0 8.19692e-08 4.28137e-07 0 6.90725e-08 4.08757e-07 0 5.67415e-08 3.926e-07 0 4.48655e-08 3.79751e-07 0 3.33452e-08 3.69677e-07 0 2.20874e-08 3.62676e-07 0 1.10007e-08 3.58503e-07 0 0 3.56931e-07 0 1.66268e-06 2.97087e-06 0 1.39193e-06 2.76901e-06 0 1.16603e-06 2.56295e-06 0 9.79223e-07 2.36003e-06 0 8.25606e-07 2.16516e-06 0 6.99655e-07 1.98138e-06 0 5.96449e-07 1.81026e-06 0 5.11755e-07 1.65245e-06 0 4.42022e-07 1.50823e-06 0 3.84287e-07 1.37653e-06 0 3.36198e-07 1.25682e-06 0 2.95792e-07 1.14933e-06 0 2.61539e-07 1.05158e-06 0 2.32225e-07 9.63912e-07 0 2.06861e-07 8.85096e-07 0 1.84695e-07 8.13731e-07 0 1.65121e-07 7.50499e-07 0 1.47658e-07 6.93482e-07 0 1.31935e-07 6.42435e-07 0 1.17644e-07 5.97314e-07 0 1.04546e-07 5.56901e-07 0 9.24453e-08 5.21411e-07 0 8.11769e-08 4.9025e-07 0 7.06086e-08 4.62827e-07 0 6.06253e-08 4.3962e-07 0 5.11275e-08 4.19706e-07 0 4.20299e-08 4.03112e-07 0 3.32531e-08 3.89921e-07 0 2.47264e-08 3.79582e-07 0 1.63841e-08 3.72398e-07 0 8.16193e-09 3.68116e-07 0 0 3.66503e-07 0 1.44235e-06 3.27219e-06 0 1.16533e-06 3.01746e-06 0 9.4234e-07 2.76564e-06 0 7.64437e-07 2.52424e-06 0 6.23332e-07 2.29765e-06 0 5.11788e-07 2.0881e-06 0 4.23708e-07 1.89627e-06 0 3.5408e-07 1.72196e-06 0 2.9886e-07 1.56471e-06 0 2.54797e-07 1.42267e-06 0 2.19396e-07 1.29479e-06 0 1.90642e-07 1.181e-06 0 1.67015e-07 1.07819e-06 0 1.4735e-07 9.86581e-07 0 1.3073e-07 9.0465e-07 0 1.16481e-07 8.30766e-07 0 1.04081e-07 7.65567e-07 0 9.31303e-08 7.06942e-07 0 8.33323e-08 6.54584e-07 0 7.44526e-08 6.08403e-07 0 6.6315e-08 5.67103e-07 0 5.87826e-08 5.30886e-07 0 5.17443e-08 4.99119e-07 0 4.51145e-08 4.71185e-07 0 3.88213e-08 4.47562e-07 0 3.28045e-08 4.27302e-07 0 2.70139e-08 4.10425e-07 0 2.14036e-08 3.97014e-07 0 1.59335e-08 3.86503e-07 0 1.05664e-08 3.79202e-07 0 5.2664e-09 3.74851e-07 0 0 3.73212e-07 0 1.15183e-06 3.58151e-06 0 8.78587e-07 3.26226e-06 0 6.68672e-07 2.95736e-06 0 5.08978e-07 2.67327e-06 0 3.88451e-07 2.41287e-06 0 2.98079e-07 2.17691e-06 0 2.30671e-07 1.96465e-06 0 1.80577e-07 1.77465e-06 0 1.43424e-07 1.60551e-06 0 1.15829e-07 1.45439e-06 0 9.52901e-08 1.31962e-06 0 7.98687e-08 1.20078e-06 0 6.81589e-08 1.0941e-06 0 5.91285e-08 9.99626e-07 0 5.20025e-08 9.15548e-07 0 4.62412e-08 8.40015e-07 0 4.14479e-08 7.73607e-07 0 3.73387e-08 7.14042e-07 0 3.37183e-08 6.60958e-07 0 3.04439e-08 6.14223e-07 0 2.74184e-08 5.72478e-07 0 2.45738e-08 5.35911e-07 0 2.18615e-08 5.03863e-07 0 1.92485e-08 4.75697e-07 0 1.6711e-08 4.51891e-07 0 1.42317e-08 4.31479e-07 0 1.17977e-08 4.1448e-07 0 9.39885e-09 4.00975e-07 0 7.0267e-09 3.90391e-07 0 4.67398e-09 3.8304e-07 0 2.33384e-09 3.78659e-07 0 0 3.77009e-07 0 7.8873e-07 3.88707e-06 0 5.33194e-07 3.49172e-06 0 3.4867e-07 3.12761e-06 0 2.17485e-07 2.79816e-06 0 1.25893e-07 2.50346e-06 0 6.33424e-08 2.24187e-06 0 2.18164e-08 2.01065e-06 0 -4.71239e-09 1.8068e-06 0 -2.07185e-08 1.62773e-06 0 -2.95168e-08 1.46946e-06 0 -3.34509e-08 1.32965e-06 0 -3.42486e-08 1.20741e-06 0 -3.30937e-08 1.09836e-06 0 -3.08007e-08 1.00234e-06 0 -2.79348e-08 9.17262e-07 0 -2.4853e-08 8.41089e-07 0 -2.17871e-08 7.74329e-07 0 -1.88761e-08 7.1457e-07 0 -1.61943e-08 6.61401e-07 0 -1.37766e-08 6.14655e-07 0 -1.163e-08 5.72937e-07 0 -9.74525e-09 5.36418e-07 0 -8.10285e-09 5.04428e-07 0 -6.67875e-09 4.76322e-07 0 -5.44606e-09 4.5257e-07 0 -4.37735e-09 4.32208e-07 0 -3.4464e-09 4.15252e-07 0 -2.62715e-09 4.0178e-07 0 -1.8955e-09 3.91224e-07 0 -1.22851e-09 3.83891e-07 0 -6.0368e-10 3.79521e-07 0 0 3.77875e-07 0 3.32939e-07 4.16943e-06 0 1.17317e-07 3.68919e-06 0 -2.4224e-08 3.26281e-06 0 -1.13244e-07 2.88812e-06 0 -1.65426e-07 2.56095e-06 0 -1.92202e-07 2.27643e-06 0 -2.01867e-07 2.0293e-06 0 -2.00389e-07 1.81467e-06 0 -1.91991e-07 1.62858e-06 0 -1.79635e-07 1.46584e-06 0 -1.65286e-07 1.32337e-06 0 -1.50282e-07 1.19981e-06 0 -1.35452e-07 1.09021e-06 0 -1.21291e-07 9.94177e-07 0 -1.08075e-07 9.09423e-07 0 -9.59244e-08 8.3374e-07 0 -8.48641e-08 7.67567e-07 0 -7.48594e-08 7.08418e-07 0 -6.58428e-08 6.55847e-07 0 -5.77265e-08 6.09661e-07 0 -5.04176e-08 5.68458e-07 0 -4.3823e-08 5.32399e-07 0 -3.78504e-08 5.00813e-07 0 -3.24159e-08 4.73061e-07 0 -2.74402e-08 4.49607e-07 0 -2.285e-08 4.29496e-07 0 -1.85796e-08 4.12748e-07 0 -1.45663e-08 3.99439e-07 0 -1.07538e-08 3.89008e-07 0 -7.08901e-09 3.81762e-07 0 -3.52039e-09 3.77444e-07 0 0 3.75817e-07 0 -2.29166e-07 4.39849e-06 0 -3.74373e-07 3.83183e-06 0 -4.50849e-07 3.34579e-06 0 -4.81626e-07 2.93032e-06 0 -4.82674e-07 2.5758e-06 0 -4.65161e-07 2.27355e-06 0 -4.36848e-07 2.01544e-06 0 -4.03034e-07 1.79454e-06 0 -3.67228e-07 1.60542e-06 0 -3.31682e-07 1.44169e-06 0 -2.97715e-07 1.29955e-06 0 -2.66068e-07 1.17716e-06 0 -2.37063e-07 1.06911e-06 0 -2.10764e-07 9.74833e-07 0 -1.87082e-07 8.91853e-07 0 -1.65844e-07 8.17886e-07 0 -1.4683e-07 7.53299e-07 0 -1.29807e-07 6.95602e-07 0 -1.14548e-07 6.44334e-07 0 -1.00832e-07 5.9929e-07 0 -8.846e-08 5.59098e-07 0 -7.72506e-08 5.2391e-07 0 -6.7037e-08 4.93074e-07 0 -5.76749e-08 4.65969e-07 0 -4.90322e-08 4.4305e-07 0 -4.09901e-08 4.2339e-07 0 -3.34443e-08 4.0701e-07 0 -2.62965e-08 3.9399e-07 0 -1.94586e-08 3.83783e-07 0 -1.28488e-08 3.7669e-07 0 -6.38722e-09 3.72463e-07 0 0 3.7087e-07 0 -8.84355e-07 4.53687e-06 0 -9.28503e-07 3.89374e-06 0 -9.19034e-07 3.35826e-06 0 -8.77037e-07 2.91168e-06 0 -8.16773e-07 2.5387e-06 0 -7.4789e-07 2.22663e-06 0 -6.76766e-07 1.9645e-06 0 -6.07414e-07 1.74332e-06 0 -5.42169e-07 1.55622e-06 0 -4.82219e-07 1.39574e-06 0 -4.27981e-07 1.25743e-06 0 -3.79404e-07 1.13906e-06 0 -3.36168e-07 1.03492e-06 0 -2.9782e-07 9.44287e-07 0 -2.63837e-07 8.64625e-07 0 -2.33714e-07 7.9365e-07 0 -2.06962e-07 7.3167e-07 0 -1.83132e-07 6.76274e-07 0 -1.61832e-07 6.27011e-07 0 -1.42701e-07 5.83686e-07 0 -1.25434e-07 5.44989e-07 0 -1.09761e-07 5.11072e-07 0 -9.54412e-08 4.8132e-07 0 -8.22722e-08 4.55144e-07 0 -7.00707e-08 4.32988e-07 0 -5.86745e-08 4.1397e-07 0 -4.79422e-08 3.98115e-07 0 -3.77415e-08 3.85503e-07 0 -2.79544e-08 3.75613e-07 0 -1.84714e-08 3.68738e-07 0 -9.18613e-09 3.64639e-07 0 0 3.63095e-07 0 -1.6276e-06 4.54508e-06 0 -1.53794e-06 3.84881e-06 0 -1.4207e-06 3.28241e-06 0 -1.29107e-06 2.81993e-06 0 -1.15941e-06 2.4412e-06 0 -1.03251e-06 2.13003e-06 0 -9.14417e-07 1.87284e-06 0 -8.07135e-07 1.6588e-06 0 -7.1127e-07 1.47975e-06 0 -6.26524e-07 1.32743e-06 0 -5.52111e-07 1.1969e-06 0 -4.86977e-07 1.08563e-06 0 -4.30022e-07 9.87897e-07 0 -3.80185e-07 9.0287e-07 0 -3.36458e-07 8.28088e-07 0 -2.97975e-07 7.61378e-07 0 -2.63965e-07 7.03005e-07 0 -2.33757e-07 6.50731e-07 0 -2.06793e-07 6.04148e-07 0 -1.8258e-07 5.63085e-07 0 -1.60706e-07 5.26341e-07 0 -1.40822e-07 4.94072e-07 0 -1.22617e-07 4.65715e-07 0 -1.05836e-07 4.40732e-07 0 -9.02476e-08 4.19554e-07 0 -7.56509e-08 4.01356e-07 0 -6.18709e-08 3.86169e-07 0 -4.87443e-08 3.74078e-07 0 -3.6126e-08 3.64591e-07 0 -2.38814e-08 3.57993e-07 0 -1.18798e-08 3.54059e-07 0 0 3.52576e-07 0 -2.4169e-06 4.38999e-06 0 -2.17257e-06 3.67515e-06 0 -1.93321e-06 3.10335e-06 0 -1.70608e-06 2.64497e-06 0 -1.49659e-06 2.27672e-06 0 -1.30789e-06 1.97976e-06 0 -1.14101e-06 1.73835e-06 0 -9.95337e-07 1.54013e-06 0 -8.69244e-07 1.37598e-06 0 -7.60559e-07 1.23719e-06 0 -6.67043e-07 1.11864e-06 0 -5.86471e-07 1.01764e-06 0 -5.16871e-07 9.28819e-07 0 -4.56528e-07 8.51324e-07 0 -4.03929e-07 7.8292e-07 0 -3.57847e-07 7.21672e-07 0 -3.17232e-07 6.6783e-07 0 -2.81205e-07 6.19432e-07 0 -2.49054e-07 5.76139e-07 0 -2.20163e-07 5.37831e-07 0 -1.9403e-07 5.03449e-07 0 -1.70232e-07 4.73163e-07 0 -1.484e-07 4.46483e-07 0 -1.28229e-07 4.22929e-07 0 -1.09451e-07 4.02919e-07 0 -9.18281e-08 3.857e-07 0 -7.51574e-08 3.71312e-07 0 -5.92484e-08 3.59844e-07 0 -4.39322e-08 3.50838e-07 0 -2.90518e-08 3.44571e-07 0 -1.44548e-08 3.40833e-07 0 0 3.39423e-07 0 -3.20969e-06 4.0542e-06 0 -2.80234e-06 3.36003e-06 0 -2.43367e-06 2.81182e-06 0 -2.10371e-06 2.38058e-06 0 -1.81333e-06 2.04173e-06 0 -1.56189e-06 1.7744e-06 0 -1.3469e-06 1.56108e-06 0 -1.1645e-06 1.38829e-06 0 -1.01031e-06 1.24633e-06 0 -8.79922e-07 1.12661e-06 0 -7.6944e-07 1.02423e-06 0 -6.75357e-07 9.36562e-07 0 -5.94793e-07 8.58992e-07 0 -5.25377e-07 7.90779e-07 0 -4.65114e-07 7.30086e-07 0 -4.12441e-07 6.75349e-07 0 -3.66062e-07 6.26838e-07 0 -3.24916e-07 5.82958e-07 0 -2.88161e-07 5.43473e-07 0 -2.55082e-07 5.08336e-07 0 -2.25102e-07 4.76665e-07 0 -1.97739e-07 4.48649e-07 0 -1.72578e-07 4.23884e-07 0 -1.49277e-07 4.0196e-07 0 -1.27535e-07 3.83285e-07 0 -1.07087e-07 3.67183e-07 0 -8.77056e-08 3.53706e-07 0 -6.91791e-08 3.4295e-07 0 -5.1318e-08 3.34495e-07 0 -3.39463e-08 3.28606e-07 0 -1.68933e-08 3.25092e-07 0 0 3.23766e-07 0 -3.96053e-06 3.53753e-06 0 -3.39412e-06 2.89995e-06 0 -2.89521e-06 2.40388e-06 0 -2.4611e-06 2.02436e-06 0 -2.09033e-06 1.736e-06 0 -1.77878e-06 1.51559e-06 0 -1.51967e-06 1.34382e-06 0 -1.30508e-06 1.20652e-06 0 -1.12725e-06 1.09406e-06 0 -9.79205e-07 9.98728e-07 0 -8.55248e-07 9.1631e-07 0 -7.50586e-07 8.44647e-07 0 -6.61474e-07 7.80308e-07 0 -5.84959e-07 7.22805e-07 0 -5.18637e-07 6.70882e-07 0 -4.60676e-07 6.23473e-07 0 -4.09591e-07 5.80903e-07 0 -3.64191e-07 5.42031e-07 0 -3.23543e-07 5.0675e-07 0 -2.86864e-07 4.75102e-07 0 -2.53526e-07 4.46409e-07 0 -2.23012e-07 4.20886e-07 0 -1.94874e-07 3.98223e-07 0 -1.68745e-07 3.78092e-07 0 -1.44304e-07 3.60884e-07 0 -1.21265e-07 3.46014e-07 0 -9.93855e-08 3.33542e-07 0 -7.84348e-08 3.23571e-07 0 -5.82086e-08 3.15724e-07 0 -3.85159e-08 3.10254e-07 0 -1.91708e-08 3.06987e-07 0 0 3.05755e-07 0 -4.63467e-06 2.8549e-06 0 -3.92006e-06 2.29803e-06 0 -3.29204e-06 1.87909e-06 0 -2.75462e-06 1.57735e-06 0 -2.3077e-06 1.36327e-06 0 -1.94309e-06 1.20889e-06 0 -1.64802e-06 1.09277e-06 0 -1.40911e-06 1.0008e-06 0 -1.21457e-06 9.24462e-07 0 -1.05466e-06 8.57997e-07 0 -9.21911e-07 7.9857e-07 0 -8.10403e-07 7.4488e-07 0 -7.157e-07 6.9516e-07 0 -6.34417e-07 6.49316e-07 0 -5.63879e-07 6.06842e-07 0 -5.02093e-07 5.6727e-07 0 -4.47471e-07 5.31021e-07 0 -3.98757e-07 4.9746e-07 0 -3.54978e-07 4.66631e-07 0 -3.15323e-07 4.38677e-07 0 -2.79147e-07 4.13139e-07 0 -2.45916e-07 3.90261e-07 0 -2.15172e-07 3.69834e-07 0 -1.86535e-07 3.51612e-07 0 -1.59674e-07 3.35972e-07 0 -1.34293e-07 3.22419e-07 0 -1.10139e-07 3.11025e-07 0 -8.6969e-08 3.01897e-07 0 -6.45693e-08 2.94705e-07 0 -4.27374e-08 2.89685e-07 0 -2.12758e-08 2.86686e-07 0 0 2.85554e-07 0 -5.21975e-06 2.02703e-06 0 -4.36145e-06 1.555e-06 0 -3.59727e-06 1.23544e-06 0 -2.95625e-06 1.04312e-06 0 -2.44215e-06 9.32277e-07 0 -2.03792e-06 8.65113e-07 0 -1.72055e-06 8.18418e-07 0 -1.46924e-06 7.80238e-07 0 -1.26761e-06 7.4499e-07 0 -1.10332e-06 7.10342e-07 0 -9.6755e-07 6.75631e-07 0 -8.53602e-07 6.40866e-07 0 -7.56676e-07 6.06342e-07 0 -6.73212e-07 5.72495e-07 0 -6.00461e-07 5.39677e-07 0 -5.36411e-07 5.0809e-07 0 -4.79481e-07 4.78267e-07 0 -4.28433e-07 4.5011e-07 0 -3.82312e-07 4.23817e-07 0 -3.40327e-07 3.99639e-07 0 -3.01845e-07 3.77337e-07 0 -2.66344e-07 3.57182e-07 0 -2.33374e-07 3.39066e-07 0 -2.02559e-07 3.22824e-07 0 -1.73568e-07 3.08816e-07 0 -1.46104e-07 2.96639e-07 0 -1.19908e-07 2.86375e-07 0 -9.47365e-08 2.78133e-07 0 -7.03661e-08 2.71629e-07 0 -4.6588e-08 2.67085e-07 0 -2.31968e-08 2.64367e-07 0 0 2.63341e-07 0 -5.74203e-06 1.06444e-06 0 -4.70924e-06 6.49252e-07 0 -3.77336e-06 4.61373e-07 0 -3.02707e-06 4.29528e-07 0 -2.46573e-06 4.60432e-07 0 -2.04622e-06 5.02642e-07 0 -1.72769e-06 5.36559e-07 0 -1.4803e-06 5.57269e-07 0 -1.28368e-06 5.65116e-07 0 -1.12389e-06 5.62866e-07 0 -9.9156e-07 5.52793e-07 0 -8.79941e-07 5.36602e-07 0 -7.84336e-07 5.1687e-07 0 -7.0135e-07 4.94643e-07 0 -6.28409e-07 4.71165e-07 0 -5.63653e-07 4.47309e-07 0 -5.05631e-07 4.23733e-07 0 -4.5321e-07 4.00852e-07 0 -4.05521e-07 3.79015e-07 0 -3.61835e-07 3.5857e-07 0 -3.21571e-07 3.39488e-07 0 -2.84243e-07 3.2206e-07 0 -2.49426e-07 3.06273e-07 0 -2.16762e-07 2.92037e-07 0 -1.85933e-07 2.79692e-07 0 -1.56649e-07 2.68924e-07 0 -1.28654e-07 2.59819e-07 0 -1.01703e-07 2.52491e-07 0 -7.55723e-08 2.46699e-07 0 -5.00498e-08 2.42646e-07 0 -2.49249e-08 2.40221e-07 0 0 2.39305e-07 0 -6.32085e-06 -6.29164e-08 0 -4.94853e-06 -5.17929e-07 0 -3.73984e-06 -4.6778e-07 0 -2.90809e-06 -2.3787e-07 0 -2.34876e-06 -1.74969e-08 0 -1.95562e-06 1.50622e-07 0 -1.66529e-06 2.68695e-07 0 -1.44171e-06 3.4718e-07 0 -1.26358e-06 3.95668e-07 0 -1.11754e-06 4.23265e-07 0 -9.95146e-07 4.35572e-07 0 -8.90483e-07 4.36131e-07 0 -7.99558e-07 4.29725e-07 0 -7.19529e-07 4.17996e-07 0 -6.48261e-07 4.03011e-07 0 -5.84221e-07 3.86239e-07 0 -5.26212e-07 3.68453e-07 0 -4.73296e-07 3.50512e-07 0 -4.24744e-07 3.32892e-07 0 -3.79939e-07 3.16024e-07 0 -3.3838e-07 3.00054e-07 0 -2.99638e-07 2.85291e-07 0 -2.63333e-07 2.71799e-07 0 -2.29139e-07 2.59555e-07 0 -1.96756e-07 2.48875e-07 0 -1.65911e-07 2.39522e-07 0 -1.36356e-07 2.3159e-07 0 -1.07851e-07 2.25189e-07 0 -8.01741e-08 2.20121e-07 0 -5.31127e-08 2.16571e-07 0 -2.64548e-08 2.14444e-07 0 0 2.1364e-07 0 -7.53483e-06 -1.55506e-06 0 -4.87356e-06 -2.29576e-06 0 -3.28937e-06 -1.52508e-06 0 -2.52426e-06 -8.73469e-07 0 -2.07343e-06 -4.37848e-07 0 -1.7666e-06 -1.50464e-07 0 -1.5385e-06 4.02421e-08 0 -1.35901e-06 1.66281e-07 0 -1.21206e-06 2.47467e-07 0 -1.08811e-06 2.98884e-07 0 -9.81266e-07 3.29064e-07 0 -8.87484e-07 3.43106e-07 0 -8.04045e-07 3.47554e-07 0 -7.29021e-07 3.44522e-07 0 -6.60959e-07 3.36705e-07 0 -5.98808e-07 3.26025e-07 0 -5.41729e-07 3.13331e-07 0 -4.89051e-07 2.99815e-07 0 -4.40236e-07 2.86042e-07 0 -3.94813e-07 2.72496e-07 0 -3.52385e-07 2.5946e-07 0 -3.12602e-07 2.47243e-07 0 -2.75139e-07 2.35971e-07 0 -2.3971e-07 2.2567e-07 0 -2.06045e-07 2.1663e-07 0 -1.73889e-07 2.08681e-07 0 -1.43009e-07 2.01919e-07 0 -1.13173e-07 1.96446e-07 0 -8.41639e-08 1.92106e-07 0 -5.57712e-08 1.89062e-07 0 -2.77835e-08 1.87236e-07 0 0 1.86546e-07 0 -2.89102e-05 -2.50246e-05 0 -2.76458e-06 -4.63528e-06 0 -2.15811e-06 -2.30582e-06 0 -1.87195e-06 -1.28842e-06 0 -1.66781e-06 -7.14832e-07 0 -1.50373e-06 -3.57845e-07 0 -1.36517e-06 -1.25332e-07 0 -1.24477e-06 2.85107e-08 0 -1.13803e-06 1.29348e-07 0 -1.04194e-06 1.95542e-07 0 -9.54504e-07 2.37221e-07 0 -8.74271e-07 2.60331e-07 0 -8.0022e-07 2.72374e-07 0 -7.31595e-07 2.75715e-07 0 -6.67796e-07 2.73386e-07 0 -6.08354e-07 2.67551e-07 0 -5.52862e-07 2.59076e-07 0 -5.00964e-07 2.49343e-07 0 -4.52345e-07 2.38953e-07 0 -4.06702e-07 2.28408e-07 0 -3.63758e-07 2.18072e-07 0 -3.23249e-07 2.08244e-07 0 -2.84918e-07 1.99083e-07 0 -2.48522e-07 1.90654e-07 0 -2.13826e-07 1.83209e-07 0 -1.80597e-07 1.76638e-07 0 -1.48619e-07 1.71029e-07 0 -1.1767e-07 1.66479e-07 0 -8.75404e-08 1.62864e-07 0 -5.80234e-08 1.60325e-07 0 -2.89098e-08 1.58801e-07 0 0 1.58225e-07 0 </DataArray> 
</PointData> 
<Points> 
<DataArray type="Float32" NumberOfComponents="3"> 