<?xml version="1.0"?> 
<VTKFile type="StructuredGrid" version="0.1"> 
<StructuredGrid WholeExtent="0 31 0 31 0 0"> 
<Piece Extent="0 31 0 31 0 0"> 
<PointData>
<DataArray type="Float32" Name="B" format="ascii" NumberOfComponents="3"> 
5.5215e-05 -0.000124653 0 0.000239039 -3.7497e-07 0 0.000246054 7.42685e-07 0 0.000268969 1.07321e-06 0 0.00029805 1.23714e-06 0 0.000330094 1.30578e-06 0 0.000362877 1.29354e-06 0 0.000394525 1.21416e-06 0 0.000423606 1.08805e-06 0 0.000449223 9.37757e-07 0 0.00047096 7.79398e-07 0 0.000488734 6.23086e-07 0 0.000502646 4.73444e-07 0 0.000512869 3.31462e-07 0 0.000519574 1.9601e-07 0 0.000522891 6.48383e-08 0 0.000522891 -6.48383e-08 0 0.000519574 -1.9601e-07 0 0.000512869 -3.31462e-07 0 0.000502646 -4.73444e-07 0 0.000488734 -6.23086e-07 0 0.00047096 -7.79398e-07 0 0.000449223 -9.37757e-07 0 0.000423606 -1.08805e-06 0 0.000394525 -1.21416e-06 0 0.000362877 -1.29354e-06 0 0.000330094 -1.30578e-06 0 0.00029805 -1.23714e-06 0 0.000268969 -1.07321e-06 0 0.000246054 -7.42685e-07 0 0.000239039 3.7497e-07 0 5.5215e-05 0.000124653 0 1.59881e-05 -0.00031493 0 -1.28236e-06 3.41654e-09 0 -1.34164e-06 4.01191e-09 0 -1.48009e-06 6.61652e-09 0 -1.65057e-06 7.81566e-09 0 -1.83699e-06 8.31512e-09 0 -2.02701e-06 8.28772e-09 0 -2.20976e-06 7.8383e-09 0 -2.37689e-06 7.08674e-09 0 -2.52334e-06 6.16394e-09 0 -2.64696e-06 5.16664e-09 0 -2.74758e-06 4.16061e-09 0 -2.82603e-06 3.17992e-09 0 -2.8835e-06 2.236e-09 0 -2.92111e-06 1.32608e-09 0 -2.93969e-06 4.39288e-10 0 -2.93969e-06 -4.39288e-10 0 -2.92111e-06 -1.32608e-09 0 -2.8835e-06 -2.236e-09 0 -2.82603e-06 -3.17992e-09 0 -2.74758e-06 -4.16061e-09 0 -2.64696e-06 -5.16664e-09 0 -2.52334e-06 -6.16394e-09 0 -2.37689e-06 -7.08674e-09 0 -2.20976e-06 -7.8383e-09 0 -2.02701e-06 -8.28772e-09 0 -1.83699e-06 -8.31512e-09 0 -1.65057e-06 -7.81566e-09 0 -1.48009e-06 -6.61652e-09 0 -1.34164e-06 -4.01191e-09 0 -1.28236e-06 -3.41654e-09 0 1.59881e-05 0.00031493 0 7.69749e-06 -0.000219694 0 -2.95651e-08 2.81139e-09 0 -3.0382e-08 -1.68326e-10 0 -3.30457e-08 -2.6958e-10 0 -3.64931e-08 -3.12851e-10 0 -4.03095e-08 -3.30933e-10 0 -4.42223e-08 -3.28388e-10 0 -4.80083e-08 -3.08893e-10 0 -5.14969e-08 -2.77501e-10 0 -5.45792e-08 -2.39791e-10 0 -5.72025e-08 -1.99777e-10 0 -5.93532e-08 -1.60043e-10 0 -6.10404e-08 -1.2181e-10 0 -6.22822e-08 -8.53864e-11 0 -6.30976e-08 -5.0535e-11 0 -6.35014e-08 -1.67234e-11 0 -6.35014e-08 1.67234e-11 0 -6.30976e-08 5.0535e-11 0 -6.22822e-08 8.53864e-11 0 -6.10404e-08 1.2181e-10 0 -5.93532e-08 1.60043e-10 0 -5.72025e-08 1.99777e-10 0 -5.45792e-08 2.39791e-10 0 -5.14969e-08 2.77501e-10 0 -4.80083e-08 3.08893e-10 0 -4.42223e-08 3.28388e-10 0 -4.03095e-08 3.30933e-10 0 -3.64931e-08 3.12851e-10 0 -3.30457e-08 2.6958e-10 0 -3.0382e-08 1.68326e-10 0 -2.95651e-08 -2.81139e-09 0 7.69749e-06 0.000219694 0 4.52079e-06 -0.000167268 0 7.30765e-10 9.01635e-10 0 5.8144e-10 1.02509e-11 0 6.35975e-10 1.70252e-12 0 7.05297e-10 1.94739e-12 0 7.81611e-10 2.05079e-12 0 8.59649e-10 2.02807e-12 0 9.34951e-10 1.89957e-12 0 1.0041e-09 1.69799e-12 0 1.06498e-09 1.45962e-12 0 1.1166e-09 1.21017e-12 0 1.15879e-09 9.65414e-13 0 1.19179e-09 7.32301e-13 0 1.21603e-09 5.12031e-13 0 1.23193e-09 3.02531e-13 0 1.23979e-09 1.00032e-13 0 1.23979e-09 -1.00032e-13 0 1.23193e-09 -3.02531e-13 0 1.21603e-09 -5.12031e-13 0 1.19179e-09 -7.32301e-13 0 1.15879e-09 -9.65414e-13 0 1.1166e-09 -1.21017e-12 0 1.06498e-09 -1.45962e-12 0 1.0041e-09 -1.69799e-12 0 9.34951e-10 -1.89957e-12 0 8.59649e-10 -2.02807e-12 0 7.81611e-10 -2.05079e-12 0 7.05297e-10 -1.94739e-12 0 6.35975e-10 -1.70252e-12 0 5.8144e-10 -1.02509e-11 0 7.30765e-10 -9.01635e-10 0 4.52079e-06 0.000167268 0 3.03453e-06 -0.000133258 0 1.19354e-10 2.48543e-10 0 -7.93118e-14 7.27699e-12 0 -3.46653e-13 3.21418e-14 0 -4.1387e-13 3.6343e-14 0 -4.83745e-13 3.85444e-14 0 -5.53209e-13 3.8327e-14 0 -6.18239e-13 3.61441e-14 0 -6.75698e-13 3.25683e-14 0 -7.2409e-13 2.82287e-14 0 -7.63312e-13 2.35846e-14 0 -7.94044e-13 1.89391e-14 0 -8.17226e-13 1.44423e-14 0 -8.33764e-13 1.01382e-14 0 -8.4438e-13 6.00581e-15 0 -8.49564e-13 1.98842e-15 0 -8.49564e-13 -1.98842e-15 0 -8.4438e-13 -6.00581e-15 0 -8.33764e-13 -1.01382e-14 0 -8.17226e-13 -1.44423e-14 0 -7.94044e-13 -1.89391e-14 0 -7.63312e-13 -2.35846e-14 0 -7.2409e-13 -2.82287e-14 0 -6.75698e-13 -3.25683e-14 0 -6.18239e-13 -3.61441e-14 0 -5.53209e-13 -3.8327e-14 0 -4.83745e-13 -3.85444e-14 0 -4.1387e-13 -3.6343e-14 0 -3.46653e-13 -3.21418e-14 0 -7.93118e-14 -7.27699e-12 0 1.19354e-10 -2.48543e-10 0 3.03453e-06 0.000133258 0 2.22693e-06 -0.000108893 0 9.11875e-11 -1.33494e-11 0 5.42823e-14 5.95824e-12 0 -1.09794e-13 2.43009e-16 0 -1.21398e-13 -7.49993e-16 0 -1.34259e-13 -7.95545e-16 0 -1.47433e-13 -7.89017e-16 0 -1.60168e-13 -7.41708e-16 0 -1.71887e-13 -6.65836e-16 0 -1.82228e-13 -5.74903e-16 0 -1.91017e-13 -4.78617e-16 0 -1.98215e-13 -3.83175e-16 0 -2.03855e-13 -2.91484e-16 0 -2.08003e-13 -2.04244e-16 0 -2.10725e-13 -1.20848e-16 0 -2.12072e-13 -3.99866e-17 0 -2.12072e-13 3.99866e-17 0 -2.10725e-13 1.20848e-16 0 -2.08003e-13 2.04244e-16 0 -2.03855e-13 2.91484e-16 0 -1.98215e-13 3.83175e-16 0 -1.91017e-13 4.78617e-16 0 -1.82228e-13 5.74903e-16 0 -1.71887e-13 6.65836e-16 0 -1.60168e-13 7.41708e-16 0 -1.47433e-13 7.89017e-16 0 -1.34259e-13 7.95545e-16 0 -1.21398e-13 7.49993e-16 0 -1.09794e-13 -2.43009e-16 0 5.42823e-14 -5.95824e-12 0 9.11875e-11 1.33494e-11 0 2.22693e-06 0.000108893 0 1.73889e-06 -9.02098e-05 0 7.30453e-11 -1.18346e-10 0 1.25763e-13 4.94998e-12 0 1.31535e-15 7.38501e-16 0 1.49083e-15 3.66612e-18 0 1.65368e-15 1.56001e-18 0 1.82006e-15 1.52872e-18 0 1.9805e-15 1.41507e-18 0 2.12769e-15 1.24719e-18 0 2.25715e-15 1.05634e-18 0 2.36681e-15 8.63616e-19 0 2.45635e-15 6.80574e-19 0 2.52636e-15 5.11118e-19 0 2.57774e-15 3.54702e-19 0 2.61142e-15 2.08526e-19 0 2.62808e-15 6.87747e-20 0 2.62808e-15 -6.87747e-20 0 2.61142e-15 -2.08526e-19 0 2.57774e-15 -3.54702e-19 0 2.52636e-15 -5.11118e-19 0 2.45635e-15 -6.80574e-19 0 2.36681e-15 -8.63616e-19 0 2.25715e-15 -1.05634e-18 0 2.12769e-15 -1.24719e-18 0 1.9805e-15 -1.41507e-18 0 1.82006e-15 -1.52872e-18 0 1.65368e-15 -1.56001e-18 0 1.49083e-15 -3.66612e-18 0 1.31535e-15 -7.38501e-16 0 1.25763e-13 -4.94998e-12 0 7.30453e-11 1.18346e-10 0 1.73889e-06 9.02098e-05 0 1.42151e-06 -7.51585e-05 0 6.06417e-11 -1.54758e-10 0 1.03655e-13 4.13103e-12 0 -1.57767e-17 6.12906e-16 0 6.30447e-18 1.93372e-18 0 6.94613e-18 1.29676e-19 0 7.58205e-18 1.29109e-19 0 8.20126e-18 1.21616e-19 0 8.77622e-18 1.09436e-19 0 9.28846e-18 9.47209e-20 0 9.72784e-18 7.9033e-20 0 1.00905e-17 6.33931e-20 0 1.03767e-17 4.82966e-20 0 1.05881e-17 3.38796e-20 0 1.07274e-17 2.00608e-20 0 1.07965e-17 6.64024e-21 0 1.07965e-17 -6.64024e-21 0 1.07274e-17 -2.00608e-20 0 1.05881e-17 -3.38796e-20 0 1.03767e-17 -4.82966e-20 0 1.00905e-17 -6.33931e-20 0 9.72784e-18 -7.9033e-20 0 9.28846e-18 -9.47209e-20 0 8.77622e-18 -1.09436e-19 0 8.20126e-18 -1.21616e-19 0 7.58205e-18 -1.29109e-19 0 6.94613e-18 -1.29676e-19 0 6.30447e-18 -1.93372e-18 0 -1.57767e-17 -6.12906e-16 0 1.03655e-13 -4.13103e-12 0 6.06417e-11 1.54758e-10 0 1.42151e-06 7.51585e-05 0 1.20497e-06 -6.25652e-05 0 5.19158e-11 -1.59375e-10 0 8.88689e-14 3.44253e-12 0 -1.80881e-17 5.09361e-16 0 -3.18987e-19 1.50928e-18 0 -3.2872e-19 -1.90746e-21 0 -3.60826e-19 -1.65454e-21 0 -3.9188e-19 -1.55379e-21 0 -4.20478e-19 -1.39337e-21 0 -4.45729e-19 -1.20176e-21 0 -4.67205e-19 -9.99458e-22 0 -4.84801e-19 -7.99446e-22 0 -4.98596e-19 -6.07711e-22 0 -5.08745e-19 -4.25598e-22 0 -5.15407e-19 -2.51731e-22 0 -5.18705e-19 -8.32788e-23 0 -5.18705e-19 8.32788e-23 0 -5.15407e-19 2.51731e-22 0 -5.08745e-19 4.25598e-22 0 -4.98596e-19 6.07711e-22 0 -4.84801e-19 7.99446e-22 0 -4.67205e-19 9.99458e-22 0 -4.45729e-19 1.20176e-21 0 -4.20478e-19 1.39337e-21 0 -3.9188e-19 1.55379e-21 0 -3.60826e-19 1.65454e-21 0 -3.2872e-19 1.90746e-21 0 -3.18987e-19 -1.50928e-18 0 -1.80881e-17 -5.09361e-16 0 8.88689e-14 -3.44253e-12 0 5.19158e-11 1.59375e-10 0 1.20497e-06 6.25652e-05 0 1.05056e-06 -5.1703e-05 0 4.55637e-11 -1.48706e-10 0 7.80717e-14 2.84684e-12 0 -1.52573e-17 4.20492e-16 0 -1.04648e-20 1.25024e-18 0 9.42356e-21 -2.88406e-22 0 1.03866e-20 -9.17901e-23 0 1.13116e-20 -8.61404e-23 0 1.21591e-20 -7.72905e-23 0 1.29031e-20 -6.66999e-23 0 1.35324e-20 -5.5501e-23 0 1.40454e-20 -4.44139e-23 0 1.44459e-20 -3.37738e-23 0 1.47397e-20 -2.3659e-23 0 1.49321e-20 -1.39961e-23 0 1.50272e-20 -4.63065e-24 0 1.50272e-20 4.63065e-24 0 1.49321e-20 1.39961e-23 0 1.47397e-20 2.3659e-23 0 1.44459e-20 3.37738e-23 0 1.40454e-20 4.44139e-23 0 1.35324e-20 5.5501e-23 0 1.29031e-20 6.66999e-23 0 1.21591e-20 7.72905e-23 0 1.13116e-20 8.61404e-23 0 1.03866e-20 9.17901e-23 0 9.42356e-21 2.88406e-22 0 -1.04648e-20 -1.25024e-18 0 -1.52573e-17 -4.20492e-16 0 7.80717e-14 -2.84684e-12 0 4.55637e-11 1.48706e-10 0 1.05056e-06 5.1703e-05 0 9.38827e-07 -4.20909e-05 0 4.08983e-11 -1.30577e-10 0 7.01224e-14 2.31867e-12 0 -1.3475e-17 3.42065e-16 0 -1.63221e-20 1.01884e-18 0 7.54239e-22 -1.75226e-22 0 8.32849e-22 -1.61685e-23 0 9.06537e-22 -1.51168e-23 0 9.74109e-22 -1.35781e-23 0 1.0335e-21 -1.17303e-23 0 1.08378e-21 -9.77063e-24 0 1.12482e-21 -7.82553e-24 0 1.15689e-21 -5.9549e-24 0 1.18042e-21 -4.17362e-24 0 1.19584e-21 -2.46985e-24 0 1.20346e-21 -8.17296e-25 0 1.20346e-21 8.17296e-25 0 1.19584e-21 2.46985e-24 0 1.18042e-21 4.17362e-24 0 1.15689e-21 5.9549e-24 0 1.12482e-21 7.82553e-24 0 1.08378e-21 9.77063e-24 0 1.0335e-21 1.17303e-23 0 9.74109e-22 1.35781e-23 0 9.06537e-22 1.51168e-23 0 8.32849e-22 1.61685e-23 0 7.54239e-22 1.75226e-22 0 -1.63221e-20 -1.01884e-18 0 -1.3475e-17 -3.42065e-16 0 7.01224e-14 -2.31867e-12 0 4.08983e-11 1.30577e-10 0 9.38827e-07 4.20909e-05 0 8.57419e-07 -3.33925e-05 0 3.74635e-11 -1.08837e-10 0 6.42604e-14 1.84009e-12 0 -1.22023e-17 2.71231e-16 0 -1.5524e-20 8.08825e-19 0 5.08288e-23 -1.27955e-22 0 5.8158e-23 -2.12675e-24 0 6.33184e-23 -1.93128e-24 0 6.80465e-23 -1.73698e-24 0 7.22006e-23 -1.50265e-24 0 7.57165e-23 -1.25318e-24 0 7.85847e-23 -1.00478e-24 0 8.08254e-23 -7.65247e-25 0 8.24694e-23 -5.36681e-25 0 8.35464e-23 -3.17728e-25 0 8.40789e-23 -1.05161e-25 0 8.40789e-23 1.05161e-25 0 8.35464e-23 3.17728e-25 0 8.24694e-23 5.36681e-25 0 8.08254e-23 7.65247e-25 0 7.85847e-23 1.00478e-24 0 7.57165e-23 1.25318e-24 0 7.22006e-23 1.50265e-24 0 6.80465e-23 1.73698e-24 0 6.33184e-23 1.93128e-24 0 5.8158e-23 2.12675e-24 0 5.08288e-23 1.27955e-22 0 -1.5524e-20 -8.08825e-19 0 -1.22023e-17 -2.71231e-16 0 6.42604e-14 -1.84009e-12 0 3.74635e-11 1.08837e-10 0 8.57419e-07 3.33925e-05 0 7.98756e-07 -2.53599e-05 0 3.49703e-11 -8.54072e-11 0 6.00006e-14 1.39775e-12 0 -1.13005e-17 2.05908e-16 0 -1.45313e-20 6.14534e-19 0 -5.53865e-25 -9.56486e-23 0 1.44048e-24 -2.44013e-25 0 1.58611e-24 -1.75967e-25 0 1.71519e-24 -1.58568e-25 0 1.82659e-24 -1.37458e-25 0 1.91922e-24 -1.14854e-25 0 1.99358e-24 -9.22355e-26 0 2.05089e-24 -7.03373e-26 0 2.09249e-24 -4.93755e-26 0 2.11953e-24 -2.92498e-26 0 2.13285e-24 -9.6841e-27 0 2.13285e-24 9.6841e-27 0 2.11953e-24 2.92498e-26 0 2.09249e-24 4.93755e-26 0 2.05089e-24 7.03373e-26 0 1.99358e-24 9.22355e-26 0 1.91922e-24 1.14854e-25 0 1.82659e-24 1.37458e-25 0 1.71519e-24 1.58568e-25 0 1.58611e-24 1.75967e-25 0 1.44048e-24 2.44013e-25 0 -5.53865e-25 9.56486e-23 0 -1.45313e-20 -6.14534e-19 0 -1.13005e-17 -2.05908e-16 0 6.00006e-14 -1.39775e-12 0 3.49703e-11 8.54072e-11 0 7.98756e-07 2.53599e-05 0 7.58064e-07 -1.78009e-05 0 3.32321e-11 -6.12444e-11 0 5.70287e-14 9.81265e-13 0 -1.06824e-17 1.44497e-16 0 -1.38079e-20 4.31488e-19 0 -1.33176e-24 -6.6946e-23 0 4.67031e-25 -4.80711e-26 0 5.14468e-25 -7.35235e-27 0 5.55251e-25 -6.67214e-27 0 5.90639e-25 -5.83429e-27 0 6.20222e-25 -4.91355e-27 0 6.44088e-25 -3.97232e-27 0 6.62558e-25 -3.04528e-27 0 6.7601e-25 -2.14608e-27 0 6.84777e-25 -1.27458e-27 0 6.89098e-25 -4.22532e-28 0 6.89098e-25 4.22532e-28 0 6.84777e-25 1.27458e-27 0 6.7601e-25 2.14608e-27 0 6.62558e-25 3.04528e-27 0 6.44088e-25 3.97232e-27 0 6.20222e-25 4.91355e-27 0 5.90639e-25 5.83429e-27 0 5.55251e-25 6.67214e-27 0 5.14468e-25 7.35235e-27 0 4.67031e-25 4.80711e-26 0 -1.33176e-24 6.6946e-23 0 -1.38079e-20 -4.31488e-19 0 -1.06824e-17 -1.44497e-16 0 5.70287e-14 -9.81265e-13 0 3.32321e-11 6.12444e-11 0 7.58064e-07 1.78009e-05 0 7.32352e-07 -1.05592e-05 0 3.21302e-11 -3.68017e-11 0 5.51438e-14 5.82119e-13 0 -1.02949e-17 8.56992e-17 0 -1.3349e-20 2.55996e-19 0 -1.42722e-24 -3.968e-23 0 2.93509e-25 -2.27872e-26 0 3.22372e-25 1.06503e-27 0 3.46625e-25 9.54323e-28 0 3.67902e-25 8.16689e-28 0 3.85881e-25 6.74267e-28 0 4.00528e-25 5.35935e-28 0 4.11958e-25 4.05323e-28 0 4.20335e-25 2.82776e-28 0 4.25821e-25 1.66831e-28 0 4.28532e-25 5.51213e-29 0 4.28532e-25 -5.51213e-29 0 4.25821e-25 -1.66831e-28 0 4.20335e-25 -2.82776e-28 0 4.11958e-25 -4.05323e-28 0 4.00528e-25 -5.35935e-28 0 3.85881e-25 -6.74267e-28 0 3.67902e-25 -8.16689e-28 0 3.46625e-25 -9.54323e-28 0 3.22372e-25 -1.06503e-27 0 2.93509e-25 2.27872e-26 0 -1.42722e-24 3.968e-23 0 -1.3349e-20 -2.55996e-19 0 -1.02949e-17 -8.56992e-17 0 5.51438e-14 -5.82119e-13 0 3.21302e-11 3.68017e-11 0 7.32352e-07 1.05592e-05 0 7.19861e-07 -3.49988e-06 0 3.15938e-11 -1.22727e-11 0 5.42261e-14 1.92953e-13 0 -1.01075e-17 2.84031e-17 0 -1.31257e-20 8.48579e-20 0 -1.57356e-24 -1.31481e-23 0 1.00576e-25 -7.6519e-27 0 1.11957e-25 2.62495e-28 0 1.20264e-25 2.3726e-28 0 1.27574e-25 2.04393e-28 0 1.33768e-25 1.69798e-28 0 1.38828e-25 1.35687e-28 0 1.42784e-25 1.03064e-28 0 1.45689e-25 7.21369e-29 0 1.47593e-25 4.26505e-29 0 1.48535e-25 1.41071e-29 0 1.48535e-25 -1.41071e-29 0 1.47593e-25 -4.26505e-29 0 1.45689e-25 -7.21369e-29 0 1.42784e-25 -1.03064e-28 0 1.38828e-25 -1.35687e-28 0 1.33768e-25 -1.69798e-28 0 1.27574e-25 -2.04393e-28 0 1.20264e-25 -2.3726e-28 0 1.11957e-25 -2.62495e-28 0 1.00576e-25 7.6519e-27 0 -1.57356e-24 1.31481e-23 0 -1.31257e-20 -8.48579e-20 0 -1.01075e-17 -2.84031e-17 0 5.42261e-14 -1.92953e-13 0 3.15938e-11 1.22727e-11 0 7.19861e-07 3.49988e-06 0 7.19861e-07 3.49988e-06 0 3.15938e-11 1.22727e-11 0 5.42261e-14 -1.92953e-13 0 -1.01075e-17 -2.84031e-17 0 -1.31257e-20 -8.48579e-20 0 -1.57356e-24 1.31481e-23 0 1.00576e-25 7.6519e-27 0 1.11957e-25 -2.62495e-28 0 1.20264e-25 -2.3726e-28 0 1.27574e-25 -2.04393e-28 0 1.33768e-25 -1.69798e-28 0 1.38828e-25 -1.35687e-28 0 1.42784e-25 -1.03064e-28 0 1.45689e-25 -7.21369e-29 0 1.47593e-25 -4.26505e-29 0 1.48535e-25 -1.41071e-29 0 1.48535e-25 1.41071e-29 0 1.47593e-25 4.26505e-29 0 1.45689e-25 7.21369e-29 0 1.42784e-25 1.03064e-28 0 1.38828e-25 1.35687e-28 0 1.33768e-25 1.69798e-28 0 1.27574e-25 2.04393e-28 0 1.20264e-25 2.3726e-28 0 1.11957e-25 2.62495e-28 0 1.00576e-25 -7.6519e-27 0 -1.57356e-24 -1.31481e-23 0 -1.31257e-20 8.48579e-20 0 -1.01075e-17 2.84031e-17 0 5.42261e-14 1.92953e-13 0 3.15938e-11 -1.22727e-11 0 7.19861e-07 -3.49988e-06 0 7.32352e-07 1.05592e-05 0 3.21302e-11 3.68017e-11 0 5.51438e-14 -5.82119e-13 0 -1.02949e-17 -8.56992e-17 0 -1.3349e-20 -2.55996e-19 0 -1.42722e-24 3.968e-23 0 2.93509e-25 2.27872e-26 0 3.22372e-25 -1.06503e-27 0 3.46625e-25 -9.54323e-28 0 3.67902e-25 -8.16689e-28 0 3.85881e-25 -6.74267e-28 0 4.00528e-25 -5.35935e-28 0 4.11958e-25 -4.05323e-28 0 4.20335e-25 -2.82776e-28 0 4.25821e-25 -1.66831e-28 0 4.28532e-25 -5.51213e-29 0 4.28532e-25 5.51213e-29 0 4.25821e-25 1.66831e-28 0 4.20335e-25 2.82776e-28 0 4.11958e-25 4.05323e-28 0 4.00528e-25 5.35935e-28 0 3.85881e-25 6.74267e-28 0 3.67902e-25 8.16689e-28 0 3.46625e-25 9.54323e-28 0 3.22372e-25 1.06503e-27 0 2.93509e-25 -2.27872e-26 0 -1.42722e-24 -3.968e-23 0 -1.3349e-20 2.55996e-19 0 -1.02949e-17 8.56992e-17 0 5.51438e-14 5.82119e-13 0 3.21302e-11 -3.68017e-11 0 7.32352e-07 -1.05592e-05 0 7.58064e-07 1.78009e-05 0 3.32321e-11 6.12444e-11 0 5.70287e-14 -9.81265e-13 0 -1.06824e-17 -1.44497e-16 0 -1.38079e-20 -4.31488e-19 0 -1.33176e-24 6.6946e-23 0 4.67031e-25 4.80711e-26 0 5.14468e-25 7.35235e-27 0 5.55251e-25 6.67214e-27 0 5.90639e-25 5.83429e-27 0 6.20222e-25 4.91355e-27 0 6.44088e-25 3.97232e-27 0 6.62558e-25 3.04528e-27 0 6.7601e-25 2.14608e-27 0 6.84777e-25 1.27458e-27 0 6.89098e-25 4.22532e-28 0 6.89098e-25 -4.22532e-28 0 6.84777e-25 -1.27458e-27 0 6.7601e-25 -2.14608e-27 0 6.62558e-25 -3.04528e-27 0 6.44088e-25 -3.97232e-27 0 6.20222e-25 -4.91355e-27 0 5.90639e-25 -5.83429e-27 0 5.55251e-25 -6.67214e-27 0 5.14468e-25 -7.35235e-27 0 4.67031e-25 -4.80711e-26 0 -1.33176e-24 -6.6946e-23 0 -1.38079e-20 4.31488e-19 0 -1.06824e-17 1.44497e-16 0 5.70287e-14 9.81265e-13 0 3.32321e-11 -6.12444e-11 0 7.58064e-07 -1.78009e-05 0 7.98756e-07 2.53599e-05 0 3.49703e-11 8.54072e-11 0 6.00006e-14 -1.39775e-12 0 -1.13005e-17 -2.05908e-16 0 -1.45313e-20 -6.14534e-19 0 -5.53865e-25 9.56486e-23 0 1.44048e-24 2.44013e-25 0 1.58611e-24 1.75967e-25 0 1.71519e-24 1.58568e-25 0 1.82659e-24 1.37458e-25 0 1.91922e-24 1.14854e-25 0 1.99358e-24 9.22355e-26 0 2.05089e-24 7.03373e-26 0 2.09249e-24 4.93755e-26 0 2.11953e-24 2.92498e-26 0 2.13285e-24 9.6841e-27 0 2.13285e-24 -9.6841e-27 0 2.11953e-24 -2.92498e-26 0 2.09249e-24 -4.93755e-26 0 2.05089e-24 -7.03373e-26 0 1.99358e-24 -9.22355e-26 0 1.91922e-24 -1.14854e-25 0 1.82659e-24 -1.37458e-25 0 1.71519e-24 -1.58568e-25 0 1.58611e-24 -1.75967e-25 0 1.44048e-24 -2.44013e-25 0 -5.53865e-25 -9.56486e-23 0 -1.45313e-20 6.14534e-19 0 -1.13005e-17 2.05908e-16 0 6.00006e-14 1.39775e-12 0 3.49703e-11 -8.54072e-11 0 7.98756e-07 -2.53599e-05 0 8.57419e-07 3.33925e-05 0 3.74635e-11 1.08837e-10 0 6.42604e-14 -1.84009e-12 0 -1.22023e-17 -2.71231e-16 0 -1.5524e-20 -8.08825e-19 0 5.08288e-23 1.27955e-22 0 5.8158e-23 2.12675e-24 0 6.33184e-23 1.93128e-24 0 6.80465e-23 1.73698e-24 0 7.22006e-23 1.50265e-24 0 7.57165e-23 1.25318e-24 0 7.85847e-23 1.00478e-24 0 8.08254e-23 7.65247e-25 0 8.24694e-23 5.36681e-25 0 8.35464e-23 3.17728e-25 0 8.40789e-23 1.05161e-25 0 8.40789e-23 -1.05161e-25 0 8.35464e-23 -3.17728e-25 0 8.24694e-23 -5.36681e-25 0 8.08254e-23 -7.65247e-25 0 7.85847e-23 -1.00478e-24 0 7.57165e-23 -1.25318e-24 0 7.22006e-23 -1.50265e-24 0 6.80465e-23 -1.73698e-24 0 6.33184e-23 -1.93128e-24 0 5.8158e-23 -2.12675e-24 0 5.08288e-23 -1.27955e-22 0 -1.5524e-20 8.08825e-19 0 -1.22023e-17 2.71231e-16 0 6.42604e-14 1.84009e-12 0 3.74635e-11 -1.08837e-10 0 8.57419e-07 -3.33925e-05 0 9.38827e-07 4.20909e-05 0 4.08983e-11 1.30577e-10 0 7.01224e-14 -2.31867e-12 0 -1.3475e-17 -3.42065e-16 0 -1.63221e-20 -1.01884e-18 0 7.54239e-22 1.75226e-22 0 8.32849e-22 1.61685e-23 0 9.06537e-22 1.51168e-23 0 9.74109e-22 1.35781e-23 0 1.0335e-21 1.17303e-23 0 1.08378e-21 9.77063e-24 0 1.12482e-21 7.82553e-24 0 1.15689e-21 5.9549e-24 0 1.18042e-21 4.17362e-24 0 1.19584e-21 2.46985e-24 0 1.20346e-21 8.17296e-25 0 1.20346e-21 -8.17296e-25 0 1.19584e-21 -2.46985e-24 0 1.18042e-21 -4.17362e-24 0 1.15689e-21 -5.9549e-24 0 1.12482e-21 -7.82553e-24 0 1.08378e-21 -9.77063e-24 0 1.0335e-21 -1.17303e-23 0 9.74109e-22 -1.35781e-23 0 9.06537e-22 -1.51168e-23 0 8.32849e-22 -1.61685e-23 0 7.54239e-22 -1.75226e-22 0 -1.63221e-20 1.01884e-18 0 -1.3475e-17 3.42065e-16 0 7.01224e-14 2.31867e-12 0 4.08983e-11 -1.30577e-10 0 9.38827e-07 -4.20909e-05 0 1.05056e-06 5.1703e-05 0 4.55637e-11 1.48706e-10 0 7.80717e-14 -2.84684e-12 0 -1.52573e-17 -4.20492e-16 0 -1.04648e-20 -1.25024e-18 0 9.42356e-21 2.88406e-22 0 1.03866e-20 9.17901e-23 0 1.13116e-20 8.61404e-23 0 1.21591e-20 7.72905e-23 0 1.29031e-20 6.66999e-23 0 1.35324e-20 5.5501e-23 0 1.40454e-20 4.44139e-23 0 1.44459e-20 3.37738e-23 0 1.47397e-20 2.3659e-23 0 1.49321e-20 1.39961e-23 0 1.50272e-20 4.63065e-24 0 1.50272e-20 -4.63065e-24 0 1.49321e-20 -1.39961e-23 0 1.47397e-20 -2.3659e-23 0 1.44459e-20 -3.37738e-23 0 1.40454e-20 -4.44139e-23 0 1.35324e-20 -5.5501e-23 0 1.29031e-20 -6.66999e-23 0 1.21591e-20 -7.72905e-23 0 1.13116e-20 -8.61404e-23 0 1.03866e-20 -9.17901e-23 0 9.42356e-21 -2.88406e-22 0 -1.04648e-20 1.25024e-18 0 -1.52573e-17 4.20492e-16 0 7.80717e-14 2.84684e-12 0 4.55637e-11 -1.48706e-10 0 1.05056e-06 -5.1703e-05 0 1.20497e-06 6.25652e-05 0 5.19158e-11 1.59375e-10 0 8.88689e-14 -3.44253e-12 0 -1.80881e-17 -5.09361e-16 0 -3.18987e-19 -1.50928e-18 0 -3.2872e-19 1.90746e-21 0 -3.60826e-19 1.65454e-21 0 -3.9188e-19 1.55379e-21 0 -4.20478e-19 1.39337e-21 0 -4.45729e-19 1.20176e-21 0 -4.67205e-19 9.99458e-22 0 -4.84801e-19 7.99446e-22 0 -4.98596e-19 6.07711e-22 0 -5.08745e-19 4.25598e-22 0 -5.15407e-19 2.51731e-22 0 -5.18705e-19 8.32788e-23 0 -5.18705e-19 -8.32788e-23 0 -5.15407e-19 -2.51731e-22 0 -5.08745e-19 -4.25598e-22 0 -4.98596e-19 -6.07711e-22 0 -4.84801e-19 -7.99446e-22 0 -4.67205e-19 -9.99458e-22 0 -4.45729e-19 -1.20176e-21 0 -4.20478e-19 -1.39337e-21 0 -3.9188e-19 -1.55379e-21 0 -3.60826e-19 -1.65454e-21 0 -3.2872e-19 -1.90746e-21 0 -3.18987e-19 1.50928e-18 0 -1.80881e-17 5.09361e-16 0 8.88689e-14 3.44253e-12 0 5.19158e-11 -1.59375e-10 0 1.20497e-06 -6.25652e-05 0 1.42151e-06 7.51585e-05 0 6.06417e-11 1.54758e-10 0 1.03655e-13 -4.13103e-12 0 -1.57767e-17 -6.12906e-16 0 6.30447e-18 -1.93372e-18 0 6.94613e-18 -1.29676e-19 0 7.58205e-18 -1.29109e-19 0 8.20126e-18 -1.21616e-19 0 8.77622e-18 -1.09436e-19 0 9.28846e-18 -9.47209e-20 0 9.72784e-18 -7.9033e-20 0 1.00905e-17 -6.33931e-20 0 1.03767e-17 -4.82966e-20 0 1.05881e-17 -3.38796e-20 0 1.07274e-17 -2.00608e-20 0 1.07965e-17 -6.64024e-21 0 1.07965e-17 6.64024e-21 0 1.07274e-17 2.00608e-20 0 1.05881e-17 3.38796e-20 0 1.03767e-17 4.82966e-20 0 1.00905e-17 6.33931e-20 0 9.72784e-18 7.9033e-20 0 9.28846e-18 9.47209e-20 0 8.77622e-18 1.09436e-19 0 8.20126e-18 1.21616e-19 0 7.58205e-18 1.29109e-19 0 6.94613e-18 1.29676e-19 0 6.30447e-18 1.93372e-18 0 -1.57767e-17 6.12906e-16 0 1.03655e-13 4.13103e-12 0 6.06417e-11 -1.54758e-10 0 1.42151e-06 -7.51585e-05 0 1.73889e-06 9.02098e-05 0 7.30453e-11 1.18346e-10 0 1.25763e-13 -4.94998e-12 0 1.31535e-15 -7.38501e-16 0 1.49083e-15 -3.66612e-18 0 1.65368e-15 -1.56001e-18 0 1.82006e-15 -1.52872e-18 0 1.9805e-15 -1.41507e-18 0 2.12769e-15 -1.24719e-18 0 2.25715e-15 -1.05634e-18 0 2.36681e-15 -8.63616e-19 0 2.45635e-15 -6.80574e-19 0 2.52636e-15 -5.11118e-19 0 2.57774e-15 -3.54702e-19 0 2.61142e-15 -2.08526e-19 0 2.62808e-15 -6.87747e-20 0 2.62808e-15 6.87747e-20 0 2.61142e-15 2.08526e-19 0 2.57774e-15 3.54702e-19 0 2.52636e-15 5.11118e-19 0 2.45635e-15 6.80574e-19 0 2.36681e-15 8.63616e-19 0 2.25715e-15 1.05634e-18 0 2.12769e-15 1.24719e-18 0 1.9805e-15 1.41507e-18 0 1.82006e-15 1.52872e-18 0 1.65368e-15 1.56001e-18 0 1.49083e-15 3.66612e-18 0 1.31535e-15 7.38501e-16 0 1.25763e-13 4.94998e-12 0 7.30453e-11 -1.18346e-10 0 1.73889e-06 -9.02098e-05 0 2.22693e-06 0.000108893 0 9.11875e-11 1.33494e-11 0 5.42823e-14 -5.95824e-12 0 -1.09794e-13 -2.43009e-16 0 -1.21398e-13 7.49993e-16 0 -1.34259e-13 7.95545e-16 0 -1.47433e-13 7.89017e-16 0 -1.60168e-13 7.41708e-16 0 -1.71887e-13 6.65836e-16 0 -1.82228e-13 5.74903e-16 0 -1.91017e-13 4.78617e-16 0 -1.98215e-13 3.83175e-16 0 -2.03855e-13 2.91484e-16 0 -2.08003e-13 2.04244e-16 0 -2.10725e-13 1.20848e-16 0 -2.12072e-13 3.99866e-17 0 -2.12072e-13 -3.99866e-17 0 -2.10725e-13 -1.20848e-16 0 -2.08003e-13 -2.04244e-16 0 -2.03855e-13 -2.91484e-16 0 -1.98215e-13 -3.83175e-16 0 -1.91017e-13 -4.78617e-16 0 -1.82228e-13 -5.74903e-16 0 -1.71887e-13 -6.65836e-16 0 -1.60168e-13 -7.41708e-16 0 -1.47433e-13 -7.89017e-16 0 -1.34259e-13 -7.95545e-16 0 -1.21398e-13 -7.49993e-16 0 -1.09794e-13 2.43009e-16 0 5.42823e-14 5.95824e-12 0 9.11875e-11 -1.33494e-11 0 2.22693e-06 -0.000108893 0 3.03453e-06 0.000133258 0 1.19354e-10 -2.48543e-10 0 -7.93118e-14 -7.27699e-12 0 -3.46653e-13 -3.21418e-14 0 -4.1387e-13 -3.6343e-14 0 -4.83745e-13 -3.85444e-14 0 -5.53209e-13 -3.8327e-14 0 -6.18239e-13 -3.61441e-14 0 -6.75698e-13 -3.25683e-14 0 -7.2409e-13 -2.82287e-14 0 -7.63312e-13 -2.35846e-14 0 -7.94044e-13 -1.89391e-14 0 -8.17226e-13 -1.44423e-14 0 -8.33764e-13 -1.01382e-14 0 -8.4438e-13 -6.00581e-15 0 -8.49564e-13 -1.98842e-15 0 -8.49564e-13 1.98842e-15 0 -8.4438e-13 6.00581e-15 0 -8.33764e-13 1.01382e-14 0 -8.17226e-13 1.44423e-14 0 -7.94044e-13 1.89391e-14 0 -7.63312e-13 2.35846e-14 0 -7.2409e-13 2.82287e-14 0 -6.75698e-13 3.25683e-14 0 -6.18239e-13 3.61441e-14 0 -5.53209e-13 3.8327e-14 0 -4.83745e-13 3.85444e-14 0 -4.1387e-13 3.6343e-14 0 -3.46653e-13 3.21418e-14 0 -7.93118e-14 7.27699e-12 0 1.19354e-10 2.48543e-10 0 3.03453e-06 -0.000133258 0 4.52079e-06 0.000167268 0 7.30765e-10 -9.01635e-10 0 5.8144e-10 -1.02509e-11 0 6.35975e-10 -1.70252e-12 0 7.05297e-10 -1.94739e-12 0 7.81611e-10 -2.05079e-12 0 8.59649e-10 -2.02807e-12 0 9.34951e-10 -1.89957e-12 0 1.0041e-09 -1.69799e-12 0 1.06498e-09 -1.45962e-12 0 1.1166e-09 -1.21017e-12 0 1.15879e-09 -9.65414e-13 0 1.19179e-09 -7.32301e-13 0 1.21603e-09 -5.12031e-13 0 1.23193e-09 -3.02531e-13 0 1.23979e-09 -1.00032e-13 0 1.23979e-09 1.00032e-13 0 1.23193e-09 3.02531e-13 0 1.21603e-09 5.12031e-13 0 1.19179e-09 7.32301e-13 0 1.15879e-09 9.65414e-13 0 1.1166e-09 1.21017e-12 0 1.06498e-09 1.45962e-12 0 1.0041e-09 1.69799e-12 0 9.34951e-10 1.89957e-12 0 8.59649e-10 2.02807e-12 0 7.81611e-10 2.05079e-12 0 7.05297e-10 1.94739e-12 0 6.35975e-10 1.70252e-12 0 5.8144e-10 1.02509e-11 0 7.30765e-10 9.01635e-10 0 4.52079e-06 -0.000167268 0 7.69749e-06 0.000219694 0 -2.95651e-08 -2.81139e-09 0 -3.0382e-08 1.68326e-10 0 -3.30457e-08 2.6958e-10 0 -3.64931e-08 3.12851e-10 0 -4.03095e-08 3.30933e-10 0 -4.42223e-08 3.28388e-10 0 -4.80083e-08 3.08893e-10 0 -5.14969e-08 2.77501e-10 0 -5.45792e-08 2.39791e-10 0 -5.72025e-08 1.99777e-10 0 -5.93532e-08 1.60043e-10 0 -6.10404e-08 1.2181e-10 0 -6.22822e-08 8.53864e-11 0 -6.30976e-08 5.0535e-11 0 -6.35014e-08 1.67234e-11 0 -6.35014e-08 -1.67234e-11 0 -6.30976e-08 -5.0535e-11 0 -6.22822e-08 -8.53864e-11 0 -6.10404e-08 -1.2181e-10 0 -5.93532e-08 -1.60043e-10 0 -5.72025e-08 -1.99777e-10 0 -5.45792e-08 -2.39791e-10 0 -5.14969e-08 -2.77501e-10 0 -4.80083e-08 -3.08893e-10 0 -4.42223e-08 -3.28388e-10 0 -4.03095e-08 -3.30933e-10 0 -3.64931e-08 -3.12851e-10 0 -3.30457e-08 -2.6958e-10 0 -3.0382e-08 -1.68326e-10 0 -2.95651e-08 2.81139e-09 0 7.69749e-06 -0.000219694 0 1.59881e-05 0.00031493 0 -1.28236e-06 -3.41654e-09 0 -1.34164e-06 -4.01191e-09 0 -1.48009e-06 -6.61652e-09 0 -1.65057e-06 -7.81566e-09 0 -1.83699e-06 -8.31512e-09 0 -2.02701e-06 -8.28772e-09 0 -2.20976e-06 -7.8383e-09 0 -2.37689e-06 -7.08674e-09 0 -2.52334e-06 -6.16394e-09 0 -2.64696e-06 -5.16664e-09 0 -2.74758e-06 -4.16061e-09 0 -2.82603e-06 -3.17992e-09 0 -2.8835e-06 -2.236e-09 0 -2.92111e-06 -1.32608e-09 0 -2.93969e-06 -4.39288e-10 0 -2.93969e-06 4.39288e-10 0 -2.92111e-06 1.32608e-09 0 -2.8835e-06 2.236e-09 0 -2.82603e-06 3.17992e-09 0 -2.74758e-06 4.16061e-09 0 -2.64696e-06 5.16664e-09 0 -2.52334e-06 6.16394e-09 0 -2.37689e-06 7.08674e-09 0 -2.20976e-06 7.8383e-09 0 -2.02701e-06 8.28772e-09 0 -1.83699e-06 8.31512e-09 0 -1.65057e-06 7.81566e-09 0 -1.48009e-06 6.61652e-09 0 -1.34164e-06 4.01191e-09 0 -1.28236e-06 3.41654e-09 0 1.59881e-05 -0.00031493 0 5.5215e-05 0.000124653 0 0.000239039 3.7497e-07 0 0.000246054 -7.42685e-07 0 0.000268969 -1.07321e-06 0 0.00029805 -1.23714e-06 0 0.000330094 -1.30578e-06 0 0.000362877 -1.29354e-06 0 0.000394525 -1.21416e-06 0 0.000423606 -1.08805e-06 0 0.000449223 -9.37757e-07 0 0.00047096 -7.79398e-07 0 0.000488734 -6.23086e-07 0 0.000502646 -4.73444e-07 0 0.000512869 -3.31462e-07 0 0.000519574 -1.9601e-07 0 0.000522891 -6.48383e-08 0 0.000522891 6.48383e-08 0 0.000519574 1.9601e-07 0 0.000512869 3.31462e-07 0 0.000502646 4.73444e-07 0 0.000488734 6.23086e-07 0 0.00047096 7.79398e-07 0 0.000449223 9.37757e-07 0 0.000423606 1.08805e-06 0 0.000394525 1.21416e-06 0 0.000362877 1.29354e-06 0 0.000330094 1.30578e-06 0 0.00029805 1.23714e-06 0 0.000268969 1.07321e-06 0 0.000246054 7.42685e-07 0 0.000239039 -3.7497e-07 0 5.5215e-05 -0.000124653 0 </DataArray> 
</PointData> 
<Points> 
<DataArray type="Float32" NumberOfComponents="3"> 