<?xml version="1.0"?> 
<VTKFile type="StructuredGrid" version="0.1"> 
<StructuredGrid WholeExtent="0 31 0 31 0 0"> 
<Piece Extent="0 31 0 31 0 0"> 
<PointData>
<DataArray type="Float32" Name="B" format="ascii" NumberOfComponents="3"> 
6.1718e-05 -0.000124228 0 0.000231258 -2.53851e-07 0 0.000238391 5.90934e-07 0 0.000260818 8.40478e-07 0 0.000289193 9.65782e-07 0 0.000320435 1.01828e-06 0 0.000352386 1.0079e-06 0 0.00038322 9.45073e-07 0 0.000411539 8.45874e-07 0 0.000436472 7.28108e-07 0 0.000457617 6.04428e-07 0 0.0004749 4.82707e-07 0 0.000488423 3.6647e-07 0 0.000498356 2.56407e-07 0 0.00050487 1.51563e-07 0 0.000508092 5.01248e-08 0 0.000508092 -5.01248e-08 0 0.00050487 -1.51563e-07 0 0.000498356 -2.56407e-07 0 0.000488423 -3.6647e-07 0 0.0004749 -4.82707e-07 0 0.000457617 -6.04428e-07 0 0.000436472 -7.28108e-07 0 0.000411539 -8.45874e-07 0 0.00038322 -9.45073e-07 0 0.000352386 -1.0079e-06 0 0.000320435 -1.01828e-06 0 0.000289193 -9.65782e-07 0 0.000260818 -8.40478e-07 0 0.000238391 -5.90934e-07 0 0.000231258 2.53851e-07 0 6.1718e-05 0.000124228 0 1.36416e-05 -0.000272987 0 -6.26584e-07 -1.04132e-08 0 -6.68791e-07 6.5739e-09 0 -7.45715e-07 1.03768e-08 0 -8.37647e-07 1.21632e-08 0 -9.37399e-07 1.29084e-08 0 -1.0387e-06 1.28415e-08 0 -1.13574e-06 1.21168e-08 0 -1.22404e-06 1.09252e-08 0 -1.30099e-06 9.47609e-09 0 -1.36559e-06 7.9225e-09 0 -1.4179e-06 6.36588e-09 0 -1.45852e-06 4.85685e-09 0 -1.48817e-06 3.41071e-09 0 -1.50753e-06 2.02101e-09 0 -1.51709e-06 6.69208e-10 0 -1.51709e-06 -6.69208e-10 0 -1.50753e-06 -2.02101e-09 0 -1.48817e-06 -3.41071e-09 0 -1.45852e-06 -4.85685e-09 0 -1.4179e-06 -6.36588e-09 0 -1.36559e-06 -7.9225e-09 0 -1.30099e-06 -9.47609e-09 0 -1.22404e-06 -1.09252e-08 0 -1.13574e-06 -1.21168e-08 0 -1.0387e-06 -1.28415e-08 0 -9.37399e-07 -1.29084e-08 0 -8.37647e-07 -1.21632e-08 0 -7.45715e-07 -1.03768e-08 0 -6.68791e-07 -6.5739e-09 0 -6.26584e-07 1.04132e-08 0 1.36416e-05 0.000272987 0 6.17668e-06 -0.000186684 0 -3.57229e-08 -6.28328e-09 0 -3.67868e-08 -1.68672e-10 0 -4.00771e-08 -2.67684e-10 0 -4.4308e-08 -3.10211e-10 0 -4.89844e-08 -3.2799e-10 0 -5.37757e-08 -3.25353e-10 0 -5.84081e-08 -3.05904e-10 0 -6.26727e-08 -2.74675e-10 0 -6.6437e-08 -2.37222e-10 0 -6.96374e-08 -1.9754e-10 0 -7.22591e-08 -1.58183e-10 0 -7.43142e-08 -1.20353e-10 0 -7.58259e-08 -8.43436e-11 0 -7.68182e-08 -4.99094e-11 0 -7.73094e-08 -1.6515e-11 0 -7.73094e-08 1.6515e-11 0 -7.68182e-08 4.99094e-11 0 -7.58259e-08 8.43436e-11 0 -7.43142e-08 1.20353e-10 0 -7.22591e-08 1.58183e-10 0 -6.96374e-08 1.9754e-10 0 -6.6437e-08 2.37222e-10 0 -6.26727e-08 2.74675e-10 0 -5.84081e-08 3.05904e-10 0 -5.37757e-08 3.25353e-10 0 -4.89844e-08 3.2799e-10 0 -4.4308e-08 3.10211e-10 0 -4.00771e-08 2.67684e-10 0 -3.67868e-08 1.68672e-10 0 -3.57229e-08 6.28328e-09 0 6.17668e-06 0.000186684 0 3.46621e-06 -0.000140606 0 6.84769e-10 -6.12995e-09 0 5.26916e-10 9.53019e-12 0 5.76912e-10 9.87789e-13 0 6.40274e-10 1.11627e-12 0 7.09959e-10 1.17098e-12 0 7.81186e-10 1.15452e-12 0 8.49884e-10 1.0773e-12 0 9.12936e-10 9.58652e-13 0 9.68405e-10 8.20212e-13 0 1.01541e-09 6.77031e-13 0 1.05381e-09 5.38028e-13 0 1.08383e-09 4.06839e-13 0 1.10588e-09 2.83798e-13 0 1.12033e-09 1.67418e-13 0 1.12747e-09 5.5313e-14 0 1.12747e-09 -5.5313e-14 0 1.12033e-09 -1.67418e-13 0 1.10588e-09 -2.83798e-13 0 1.08383e-09 -4.06839e-13 0 1.05381e-09 -5.38028e-13 0 1.01541e-09 -6.77031e-13 0 9.68405e-10 -8.20212e-13 0 9.12936e-10 -9.58652e-13 0 8.49884e-10 -1.0773e-12 0 7.81186e-10 -1.15452e-12 0 7.09959e-10 -1.17098e-12 0 6.40274e-10 -1.11627e-12 0 5.76912e-10 -9.87789e-13 0 5.26916e-10 -9.53019e-12 0 6.84769e-10 6.12995e-09 0 3.46621e-06 0.000140606 0 2.25696e-06 -0.000111372 0 1.25299e-10 -5.40072e-09 0 1.6842e-12 7.05237e-12 0 1.56464e-12 3.93178e-14 0 1.70397e-12 4.48704e-14 0 1.86176e-12 4.75433e-14 0 2.02522e-12 4.72406e-14 0 2.18507e-12 4.451e-14 0 2.33426e-12 4.00643e-14 0 2.46792e-12 3.46885e-14 0 2.58319e-12 2.89529e-14 0 2.67878e-12 2.32303e-14 0 2.75448e-12 1.77026e-14 0 2.81061e-12 1.24206e-14 0 2.84764e-12 7.35546e-15 0 2.86604e-12 2.43486e-15 0 2.86604e-12 -2.43486e-15 0 2.84764e-12 -7.35546e-15 0 2.81061e-12 -1.24206e-14 0 2.75448e-12 -1.77026e-14 0 2.67878e-12 -2.32303e-14 0 2.58319e-12 -2.89529e-14 0 2.46792e-12 -3.46885e-14 0 2.33426e-12 -4.00643e-14 0 2.18507e-12 -4.451e-14 0 2.02522e-12 -4.72406e-14 0 1.86176e-12 -4.75433e-14 0 1.70397e-12 -4.48704e-14 0 1.56464e-12 -3.93178e-14 0 1.6842e-12 -7.05237e-12 0 1.25299e-10 5.40072e-09 0 2.25696e-06 0.000111372 0 1.62378e-06 -9.07084e-05 0 9.37626e-11 -4.65111e-09 0 5.53315e-14 5.75668e-12 0 -1.1967e-13 1.06195e-16 0 -1.32445e-13 -6.9051e-16 0 -1.4656e-13 -7.32435e-16 0 -1.61011e-13 -7.26115e-16 0 -1.74972e-13 -6.82216e-16 0 -1.87814e-13 -6.12048e-16 0 -1.99138e-13 -5.28122e-16 0 -2.08756e-13 -4.3941e-16 0 -2.16628e-13 -3.51607e-16 0 -2.22793e-13 -2.67361e-16 0 -2.27327e-13 -1.87284e-16 0 -2.30301e-13 -1.10791e-16 0 -2.31773e-13 -3.66551e-17 0 -2.31773e-13 3.66551e-17 0 -2.30301e-13 1.10791e-16 0 -2.27327e-13 1.87284e-16 0 -2.22793e-13 2.67361e-16 0 -2.16628e-13 3.51607e-16 0 -2.08756e-13 4.3941e-16 0 -1.99138e-13 5.28122e-16 0 -1.87814e-13 6.12048e-16 0 -1.74972e-13 6.82216e-16 0 -1.61011e-13 7.26115e-16 0 -1.4656e-13 7.32435e-16 0 -1.32445e-13 6.9051e-16 0 -1.1967e-13 -1.06195e-16 0 5.53315e-14 -5.75668e-12 0 9.37626e-11 4.65111e-09 0 1.62378e-06 9.07084e-05 0 1.25163e-06 -7.49961e-05 0 7.48013e-11 -3.97088e-09 0 1.32939e-13 4.77614e-12 0 1.09458e-15 5.8034e-16 0 1.2251e-15 1.59011e-18 0 1.36018e-15 -7.81823e-19 0 1.49807e-15 -7.95403e-19 0 1.63093e-15 -7.71253e-19 0 1.75272e-15 -7.17129e-19 0 1.85972e-15 -6.41165e-19 0 1.95028e-15 -5.50691e-19 0 2.02415e-15 -4.52459e-19 0 2.08186e-15 -3.51249e-19 0 2.1242e-15 -2.498e-19 0 2.15194e-15 -1.49242e-19 0 2.16566e-15 -4.96201e-20 0 2.16566e-15 4.96201e-20 0 2.15194e-15 1.49242e-19 0 2.1242e-15 2.498e-19 0 2.08186e-15 3.51249e-19 0 2.02415e-15 4.52459e-19 0 1.95028e-15 5.50691e-19 0 1.85972e-15 6.41165e-19 0 1.75272e-15 7.17129e-19 0 1.63093e-15 7.71253e-19 0 1.49807e-15 7.95403e-19 0 1.36018e-15 7.81823e-19 0 1.2251e-15 -1.59011e-18 0 1.09458e-15 -5.8034e-16 0 1.32939e-13 -4.77614e-12 0 7.48013e-11 3.97088e-09 0 1.25163e-06 7.49961e-05 0 1.01454e-06 -6.2405e-05 0 6.19402e-11 -3.36991e-09 0 1.09484e-13 3.98263e-12 0 5.14832e-18 4.82031e-16 0 1.12311e-17 2.06009e-18 0 1.24065e-17 1.43545e-19 0 1.35878e-17 1.42675e-19 0 1.47333e-17 1.34317e-19 0 1.57915e-17 1.20784e-19 0 1.67292e-17 1.0447e-19 0 1.75293e-17 8.71124e-20 0 1.81868e-17 6.98359e-20 0 1.87036e-17 5.31822e-20 0 1.90845e-17 3.72948e-20 0 1.93348e-17 2.20784e-20 0 1.94588e-17 7.30731e-21 0 1.94588e-17 -7.30731e-21 0 1.93348e-17 -2.20784e-20 0 1.90845e-17 -3.72948e-20 0 1.87036e-17 -5.31822e-20 0 1.81868e-17 -6.98359e-20 0 1.75293e-17 -8.71124e-20 0 1.67292e-17 -1.0447e-19 0 1.57915e-17 -1.20784e-19 0 1.47333e-17 -1.34317e-19 0 1.35878e-17 -1.42675e-19 0 1.24065e-17 -1.43545e-19 0 1.12311e-17 -2.06009e-18 0 5.14832e-18 -4.82031e-16 0 1.09484e-13 -3.98263e-12 0 6.19402e-11 3.36991e-09 0 1.01454e-06 6.2405e-05 0 8.55181e-07 -5.19061e-05 0 5.29408e-11 -2.83871e-09 0 9.36828e-14 3.31705e-12 0 -4.01887e-18 4.00028e-16 0 -3.58353e-19 1.60303e-18 0 -3.72095e-19 -1.5043e-21 0 -4.08646e-19 -1.37494e-21 0 -4.43977e-19 -1.29009e-21 0 -4.76492e-19 -1.15573e-21 0 -5.05179e-19 -9.95766e-22 0 -5.29559e-19 -8.27351e-22 0 -5.4952e-19 -6.61241e-22 0 -5.65161e-19 -5.02324e-22 0 -5.76664e-19 -3.51621e-22 0 -5.84212e-19 -2.07908e-22 0 -5.87948e-19 -6.87701e-23 0 -5.87948e-19 6.87701e-23 0 -5.84212e-19 2.07908e-22 0 -5.76664e-19 3.51621e-22 0 -5.65161e-19 5.02324e-22 0 -5.4952e-19 6.61241e-22 0 -5.29559e-19 8.27351e-22 0 -5.05179e-19 9.95766e-22 0 -4.76492e-19 1.15573e-21 0 -4.43977e-19 1.29009e-21 0 -4.08646e-19 1.37494e-21 0 -3.72095e-19 1.5043e-21 0 -3.58353e-19 -1.60303e-18 0 -4.01887e-18 -4.00028e-16 0 9.36828e-14 -3.31705e-12 0 5.29408e-11 2.83871e-09 0 8.55181e-07 5.19061e-05 0 7.42754e-07 -4.28707e-05 0 4.64127e-11 -2.36445e-09 0 8.21953e-14 2.74207e-12 0 -2.88577e-18 3.29933e-16 0 -1.34403e-20 1.32703e-18 0 6.44292e-21 -1.75622e-22 0 7.11374e-21 -7.99963e-23 0 7.75634e-21 -7.50028e-23 0 8.34378e-21 -6.72437e-23 0 8.85832e-21 -5.79825e-23 0 9.29248e-21 -4.82108e-23 0 9.64573e-21 -3.85551e-23 0 9.92108e-21 -2.93034e-23 0 1.01227e-20 -2.05195e-23 0 1.02547e-20 -1.21357e-23 0 1.03199e-20 -4.01463e-24 0 1.03199e-20 4.01463e-24 0 1.02547e-20 1.21357e-23 0 1.01227e-20 2.05195e-23 0 9.92108e-21 2.93034e-23 0 9.64573e-21 3.85551e-23 0 9.29248e-21 4.82108e-23 0 8.85832e-21 5.79825e-23 0 8.34378e-21 6.72437e-23 0 7.75634e-21 7.50028e-23 0 7.11374e-21 7.99963e-23 0 6.44292e-21 1.75622e-22 0 -1.34403e-20 -1.32703e-18 0 -2.88577e-18 -3.29933e-16 0 8.21953e-14 -2.74207e-12 0 4.64127e-11 2.36445e-09 0 7.42754e-07 4.28707e-05 0 6.62037e-07 -3.48874e-05 0 4.16301e-11 -1.93527e-09 0 7.37626e-14 2.23278e-12 0 -2.37133e-18 2.68227e-16 0 -1.67141e-20 1.08107e-18 0 5.81267e-22 -9.22873e-23 0 6.43006e-22 -1.54621e-23 0 7.00376e-22 -1.44413e-23 0 7.52917e-22 -1.29639e-23 0 7.99033e-22 -1.11931e-23 0 8.38025e-22 -9.31804e-24 0 8.69807e-22 -7.45956e-24 0 8.94618e-22 -5.67429e-24 0 9.12811e-22 -3.97585e-24 0 9.24725e-22 -2.35238e-24 0 9.30614e-22 -7.78353e-25 0 9.30614e-22 7.78353e-25 0 9.24725e-22 2.35238e-24 0 9.12811e-22 3.97585e-24 0 8.94618e-22 5.67429e-24 0 8.69807e-22 7.45956e-24 0 8.38025e-22 9.31804e-24 0 7.99033e-22 1.11931e-23 0 7.52917e-22 1.29639e-23 0 7.00376e-22 1.44413e-23 0 6.43006e-22 1.54621e-23 0 5.81267e-22 9.22873e-23 0 -1.67141e-20 -1.08107e-18 0 -2.37133e-18 -2.68227e-16 0 7.37626e-14 -2.23278e-12 0 4.16301e-11 1.93527e-09 0 6.62037e-07 3.48874e-05 0 6.03557e-07 -2.76704e-05 0 3.8115e-11 -1.54105e-09 0 6.75567e-14 1.77161e-12 0 -2.0333e-18 2.1259e-16 0 -1.57421e-20 8.58041e-19 0 3.70957e-23 -6.28122e-23 0 4.30792e-23 -2.25614e-24 0 4.69417e-23 -2.04891e-24 0 5.04742e-23 -1.84169e-24 0 5.35727e-23 -1.59227e-24 0 5.61908e-23 -1.32718e-24 0 5.83236e-23 -1.0636e-24 0 5.99877e-23 -8.09742e-25 0 6.12075e-23 -5.67725e-25 0 6.20061e-23 -3.36044e-25 0 6.24008e-23 -1.11213e-25 0 6.24008e-23 1.11213e-25 0 6.20061e-23 3.36044e-25 0 6.12075e-23 5.67725e-25 0 5.99877e-23 8.09742e-25 0 5.83236e-23 1.0636e-24 0 5.61908e-23 1.32718e-24 0 5.35727e-23 1.59227e-24 0 5.04742e-23 1.84169e-24 0 4.69417e-23 2.04891e-24 0 4.30792e-23 2.25614e-24 0 3.70957e-23 6.28122e-23 0 -1.57421e-20 -8.58041e-19 0 -2.0333e-18 -2.1259e-16 0 6.75567e-14 -1.77161e-12 0 3.8115e-11 1.54105e-09 0 6.03557e-07 2.76704e-05 0 5.61587e-07 -2.10104e-05 0 3.55666e-11 -1.17334e-09 0 6.30534e-14 1.34557e-12 0 -1.80971e-18 1.61341e-16 0 -1.47192e-20 6.5183e-19 0 -2.95406e-24 -4.61037e-23 0 -1.20169e-24 -2.88167e-25 0 -1.28567e-24 -2.15021e-25 0 -1.36805e-24 -1.93563e-25 0 -1.44301e-24 -1.67615e-25 0 -1.50857e-24 -1.39914e-25 0 -1.5636e-24 -1.12267e-25 0 -1.60759e-24 -8.5556e-26 0 -1.64044e-24 -6.00292e-26 0 -1.66223e-24 -3.55494e-26 0 -1.67308e-24 -1.17679e-26 0 -1.67308e-24 1.17679e-26 0 -1.66223e-24 3.55494e-26 0 -1.64044e-24 6.00292e-26 0 -1.60759e-24 8.5556e-26 0 -1.5636e-24 1.12267e-25 0 -1.50857e-24 1.39914e-25 0 -1.44301e-24 1.67615e-25 0 -1.36805e-24 1.93563e-25 0 -1.28567e-24 2.15021e-25 0 -1.20169e-24 2.88167e-25 0 -2.95406e-24 4.61037e-23 0 -1.47192e-20 -6.5183e-19 0 -1.80971e-18 -1.61341e-16 0 6.30534e-14 -1.34557e-12 0 3.55666e-11 1.17334e-09 0 5.61587e-07 2.10104e-05 0 5.32555e-07 -1.47461e-05 0 3.37914e-11 -8.25018e-10 0 5.99146e-14 9.44557e-13 0 -1.66432e-18 1.13198e-16 0 -1.39808e-20 4.57629e-19 0 -1.89881e-24 -3.21383e-23 0 -1.60652e-25 -5.70108e-26 0 -1.67402e-25 -1.40825e-26 0 -1.76802e-25 -1.27153e-26 0 -1.85644e-25 -1.10521e-26 0 -1.9361e-25 -9.25726e-27 0 -2.0046e-25 -7.44969e-27 0 -2.0604e-25 -5.69042e-27 0 -2.10264e-25 -3.99947e-27 0 -2.13091e-25 -2.37117e-27 0 -2.14507e-25 -7.8537e-28 0 -2.14507e-25 7.8537e-28 0 -2.13091e-25 2.37117e-27 0 -2.10264e-25 3.99947e-27 0 -2.0604e-25 5.69042e-27 0 -2.0046e-25 7.44969e-27 0 -1.9361e-25 9.25726e-27 0 -1.85644e-25 1.10521e-26 0 -1.76802e-25 1.27153e-26 0 -1.67402e-25 1.40825e-26 0 -1.60652e-25 5.70108e-26 0 -1.89881e-24 3.21383e-23 0 -1.39808e-20 -4.57629e-19 0 -1.66432e-18 -1.13198e-16 0 5.99146e-14 -9.44557e-13 0 3.37914e-11 8.25018e-10 0 5.32555e-07 1.47461e-05 0 5.14244e-07 -8.74649e-06 0 3.26666e-11 -4.899e-10 0 5.79251e-14 5.60314e-13 0 -1.57649e-18 6.71278e-17 0 -1.35134e-20 2.71489e-19 0 -1.52899e-24 -1.90263e-23 0 1.77068e-25 -2.47277e-26 0 1.96277e-25 2.3119e-28 0 2.11293e-25 2.03877e-28 0 2.2442e-25 1.67885e-28 0 2.35474e-25 1.33483e-28 0 2.44451e-25 1.02556e-28 0 2.51437e-25 7.53862e-29 0 2.56548e-25 5.14527e-29 0 2.5989e-25 2.99074e-29 0 2.6154e-25 9.80698e-30 0 2.6154e-25 -9.80698e-30 0 2.5989e-25 -2.99074e-29 0 2.56548e-25 -5.14527e-29 0 2.51437e-25 -7.53862e-29 0 2.44451e-25 -1.02556e-28 0 2.35474e-25 -1.33483e-28 0 2.2442e-25 -1.67885e-28 0 2.11293e-25 -2.03877e-28 0 1.96277e-25 -2.3119e-28 0 1.77068e-25 2.47277e-26 0 -1.52899e-24 1.90263e-23 0 -1.35134e-20 -2.71489e-19 0 -1.57649e-18 -6.71278e-17 0 5.79251e-14 -5.60314e-13 0 3.26666e-11 4.899e-10 0 5.14244e-07 8.74649e-06 0 5.05357e-07 -2.89895e-06 0 3.21193e-11 -1.6246e-10 0 5.69569e-14 1.85721e-13 0 -1.53493e-18 2.22466e-17 0 -1.32863e-20 8.99908e-20 0 -1.58399e-24 -6.30172e-24 0 8.43946e-26 -8.07645e-27 0 9.48033e-26 1.91584e-28 0 1.01867e-25 1.73126e-28 0 1.08077e-25 1.4887e-28 0 1.13335e-25 1.23461e-28 0 1.17626e-25 9.85143e-29 0 1.2098e-25 7.47401e-29 0 1.23441e-25 5.22659e-29 0 1.25053e-25 3.08838e-29 0 1.25851e-25 1.02121e-29 0 1.25851e-25 -1.02121e-29 0 1.25053e-25 -3.08838e-29 0 1.23441e-25 -5.22659e-29 0 1.2098e-25 -7.47401e-29 0 1.17626e-25 -9.85143e-29 0 1.13335e-25 -1.23461e-28 0 1.08077e-25 -1.4887e-28 0 1.01867e-25 -1.73126e-28 0 9.48033e-26 -1.91584e-28 0 8.43946e-26 8.07645e-27 0 -1.58399e-24 6.30172e-24 0 -1.32863e-20 -8.99908e-20 0 -1.53493e-18 -2.22466e-17 0 5.69569e-14 -1.85721e-13 0 3.21193e-11 1.6246e-10 0 5.05357e-07 2.89895e-06 0 5.05357e-07 2.89895e-06 0 3.21193e-11 1.6246e-10 0 5.69569e-14 -1.85721e-13 0 -1.53493e-18 -2.22466e-17 0 -1.32863e-20 -8.99908e-20 0 -1.58399e-24 6.30172e-24 0 8.43946e-26 8.07645e-27 0 9.48033e-26 -1.91584e-28 0 1.01867e-25 -1.73126e-28 0 1.08077e-25 -1.4887e-28 0 1.13335e-25 -1.23461e-28 0 1.17626e-25 -9.85143e-29 0 1.2098e-25 -7.47401e-29 0 1.23441e-25 -5.22659e-29 0 1.25053e-25 -3.08838e-29 0 1.25851e-25 -1.02121e-29 0 1.25851e-25 1.02121e-29 0 1.25053e-25 3.08838e-29 0 1.23441e-25 5.22659e-29 0 1.2098e-25 7.47401e-29 0 1.17626e-25 9.85143e-29 0 1.13335e-25 1.23461e-28 0 1.08077e-25 1.4887e-28 0 1.01867e-25 1.73126e-28 0 9.48033e-26 1.91584e-28 0 8.43946e-26 -8.07645e-27 0 -1.58399e-24 -6.30172e-24 0 -1.32863e-20 8.99908e-20 0 -1.53493e-18 2.22466e-17 0 5.69569e-14 1.85721e-13 0 3.21193e-11 -1.6246e-10 0 5.05357e-07 -2.89895e-06 0 5.14244e-07 8.74649e-06 0 3.26666e-11 4.899e-10 0 5.79251e-14 -5.60314e-13 0 -1.57649e-18 -6.71278e-17 0 -1.35134e-20 -2.71489e-19 0 -1.52899e-24 1.90263e-23 0 1.77068e-25 2.47277e-26 0 1.96277e-25 -2.3119e-28 0 2.11293e-25 -2.03877e-28 0 2.2442e-25 -1.67885e-28 0 2.35474e-25 -1.33483e-28 0 2.44451e-25 -1.02556e-28 0 2.51437e-25 -7.53862e-29 0 2.56548e-25 -5.14527e-29 0 2.5989e-25 -2.99074e-29 0 2.6154e-25 -9.80698e-30 0 2.6154e-25 9.80698e-30 0 2.5989e-25 2.99074e-29 0 2.56548e-25 5.14527e-29 0 2.51437e-25 7.53862e-29 0 2.44451e-25 1.02556e-28 0 2.35474e-25 1.33483e-28 0 2.2442e-25 1.67885e-28 0 2.11293e-25 2.03877e-28 0 1.96277e-25 2.3119e-28 0 1.77068e-25 -2.47277e-26 0 -1.52899e-24 -1.90263e-23 0 -1.35134e-20 2.71489e-19 0 -1.57649e-18 6.71278e-17 0 5.79251e-14 5.60314e-13 0 3.26666e-11 -4.899e-10 0 5.14244e-07 -8.74649e-06 0 5.32555e-07 1.47461e-05 0 3.37914e-11 8.25018e-10 0 5.99146e-14 -9.44557e-13 0 -1.66432e-18 -1.13198e-16 0 -1.39808e-20 -4.57629e-19 0 -1.89881e-24 3.21383e-23 0 -1.60652e-25 5.70108e-26 0 -1.67402e-25 1.40825e-26 0 -1.76802e-25 1.27153e-26 0 -1.85644e-25 1.10521e-26 0 -1.9361e-25 9.25726e-27 0 -2.0046e-25 7.44969e-27 0 -2.0604e-25 5.69042e-27 0 -2.10264e-25 3.99947e-27 0 -2.13091e-25 2.37117e-27 0 -2.14507e-25 7.8537e-28 0 -2.14507e-25 -7.8537e-28 0 -2.13091e-25 -2.37117e-27 0 -2.10264e-25 -3.99947e-27 0 -2.0604e-25 -5.69042e-27 0 -2.0046e-25 -7.44969e-27 0 -1.9361e-25 -9.25726e-27 0 -1.85644e-25 -1.10521e-26 0 -1.76802e-25 -1.27153e-26 0 -1.67402e-25 -1.40825e-26 0 -1.60652e-25 -5.70108e-26 0 -1.89881e-24 -3.21383e-23 0 -1.39808e-20 4.57629e-19 0 -1.66432e-18 1.13198e-16 0 5.99146e-14 9.44557e-13 0 3.37914e-11 -8.25018e-10 0 5.32555e-07 -1.47461e-05 0 5.61587e-07 2.10104e-05 0 3.55666e-11 1.17334e-09 0 6.30534e-14 -1.34557e-12 0 -1.80971e-18 -1.61341e-16 0 -1.47192e-20 -6.5183e-19 0 -2.95406e-24 4.61037e-23 0 -1.20169e-24 2.88167e-25 0 -1.28567e-24 2.15021e-25 0 -1.36805e-24 1.93563e-25 0 -1.44301e-24 1.67615e-25 0 -1.50857e-24 1.39914e-25 0 -1.5636e-24 1.12267e-25 0 -1.60759e-24 8.5556e-26 0 -1.64044e-24 6.00292e-26 0 -1.66223e-24 3.55494e-26 0 -1.67308e-24 1.17679e-26 0 -1.67308e-24 -1.17679e-26 0 -1.66223e-24 -3.55494e-26 0 -1.64044e-24 -6.00292e-26 0 -1.60759e-24 -8.5556e-26 0 -1.5636e-24 -1.12267e-25 0 -1.50857e-24 -1.39914e-25 0 -1.44301e-24 -1.67615e-25 0 -1.36805e-24 -1.93563e-25 0 -1.28567e-24 -2.15021e-25 0 -1.20169e-24 -2.88167e-25 0 -2.95406e-24 -4.61037e-23 0 -1.47192e-20 6.5183e-19 0 -1.80971e-18 1.61341e-16 0 6.30534e-14 1.34557e-12 0 3.55666e-11 -1.17334e-09 0 5.61587e-07 -2.10104e-05 0 6.03557e-07 2.76704e-05 0 3.8115e-11 1.54105e-09 0 6.75567e-14 -1.77161e-12 0 -2.0333e-18 -2.1259e-16 0 -1.57421e-20 -8.58041e-19 0 3.70957e-23 6.28122e-23 0 4.30792e-23 2.25614e-24 0 4.69417e-23 2.04891e-24 0 5.04742e-23 1.84169e-24 0 5.35727e-23 1.59227e-24 0 5.61908e-23 1.32718e-24 0 5.83236e-23 1.0636e-24 0 5.99877e-23 8.09742e-25 0 6.12075e-23 5.67725e-25 0 6.20061e-23 3.36044e-25 0 6.24008e-23 1.11213e-25 0 6.24008e-23 -1.11213e-25 0 6.20061e-23 -3.36044e-25 0 6.12075e-23 -5.67725e-25 0 5.99877e-23 -8.09742e-25 0 5.83236e-23 -1.0636e-24 0 5.61908e-23 -1.32718e-24 0 5.35727e-23 -1.59227e-24 0 5.04742e-23 -1.84169e-24 0 4.69417e-23 -2.04891e-24 0 4.30792e-23 -2.25614e-24 0 3.70957e-23 -6.28122e-23 0 -1.57421e-20 8.58041e-19 0 -2.0333e-18 2.1259e-16 0 6.75567e-14 1.77161e-12 0 3.8115e-11 -1.54105e-09 0 6.03557e-07 -2.76704e-05 0 6.62037e-07 3.48874e-05 0 4.16301e-11 1.93527e-09 0 7.37626e-14 -2.23278e-12 0 -2.37133e-18 -2.68227e-16 0 -1.67141e-20 -1.08107e-18 0 5.81267e-22 9.22873e-23 0 6.43006e-22 1.54621e-23 0 7.00376e-22 1.44413e-23 0 7.52917e-22 1.29639e-23 0 7.99033e-22 1.11931e-23 0 8.38025e-22 9.31804e-24 0 8.69807e-22 7.45956e-24 0 8.94618e-22 5.67429e-24 0 9.12811e-22 3.97585e-24 0 9.24725e-22 2.35238e-24 0 9.30614e-22 7.78353e-25 0 9.30614e-22 -7.78353e-25 0 9.24725e-22 -2.35238e-24 0 9.12811e-22 -3.97585e-24 0 8.94618e-22 -5.67429e-24 0 8.69807e-22 -7.45956e-24 0 8.38025e-22 -9.31804e-24 0 7.99033e-22 -1.11931e-23 0 7.52917e-22 -1.29639e-23 0 7.00376e-22 -1.44413e-23 0 6.43006e-22 -1.54621e-23 0 5.81267e-22 -9.22873e-23 0 -1.67141e-20 1.08107e-18 0 -2.37133e-18 2.68227e-16 0 7.37626e-14 2.23278e-12 0 4.16301e-11 -1.93527e-09 0 6.62037e-07 -3.48874e-05 0 7.42754e-07 4.28707e-05 0 4.64127e-11 2.36445e-09 0 8.21953e-14 -2.74207e-12 0 -2.88577e-18 -3.29933e-16 0 -1.34403e-20 -1.32703e-18 0 6.44292e-21 1.75622e-22 0 7.11374e-21 7.99963e-23 0 7.75634e-21 7.50028e-23 0 8.34378e-21 6.72437e-23 0 8.85832e-21 5.79825e-23 0 9.29248e-21 4.82108e-23 0 9.64573e-21 3.85551e-23 0 9.92108e-21 2.93034e-23 0 1.01227e-20 2.05195e-23 0 1.02547e-20 1.21357e-23 0 1.03199e-20 4.01463e-24 0 1.03199e-20 -4.01463e-24 0 1.02547e-20 -1.21357e-23 0 1.01227e-20 -2.05195e-23 0 9.92108e-21 -2.93034e-23 0 9.64573e-21 -3.85551e-23 0 9.29248e-21 -4.82108e-23 0 8.85832e-21 -5.79825e-23 0 8.34378e-21 -6.72437e-23 0 7.75634e-21 -7.50028e-23 0 7.11374e-21 -7.99963e-23 0 6.44292e-21 -1.75622e-22 0 -1.34403e-20 1.32703e-18 0 -2.88577e-18 3.29933e-16 0 8.21953e-14 2.74207e-12 0 4.64127e-11 -2.36445e-09 0 7.42754e-07 -4.28707e-05 0 8.55181e-07 5.19061e-05 0 5.29408e-11 2.83871e-09 0 9.36828e-14 -3.31705e-12 0 -4.01887e-18 -4.00028e-16 0 -3.58353e-19 -1.60303e-18 0 -3.72095e-19 1.5043e-21 0 -4.08646e-19 1.37494e-21 0 -4.43977e-19 1.29009e-21 0 -4.76492e-19 1.15573e-21 0 -5.05179e-19 9.95766e-22 0 -5.29559e-19 8.27351e-22 0 -5.4952e-19 6.61241e-22 0 -5.65161e-19 5.02324e-22 0 -5.76664e-19 3.51621e-22 0 -5.84212e-19 2.07908e-22 0 -5.87948e-19 6.87701e-23 0 -5.87948e-19 -6.87701e-23 0 -5.84212e-19 -2.07908e-22 0 -5.76664e-19 -3.51621e-22 0 -5.65161e-19 -5.02324e-22 0 -5.4952e-19 -6.61241e-22 0 -5.29559e-19 -8.27351e-22 0 -5.05179e-19 -9.95766e-22 0 -4.76492e-19 -1.15573e-21 0 -4.43977e-19 -1.29009e-21 0 -4.08646e-19 -1.37494e-21 0 -3.72095e-19 -1.5043e-21 0 -3.58353e-19 1.60303e-18 0 -4.01887e-18 4.00028e-16 0 9.36828e-14 3.31705e-12 0 5.29408e-11 -2.83871e-09 0 8.55181e-07 -5.19061e-05 0 1.01454e-06 6.2405e-05 0 6.19402e-11 3.36991e-09 0 1.09484e-13 -3.98263e-12 0 5.14832e-18 -4.82031e-16 0 1.12311e-17 -2.06009e-18 0 1.24065e-17 -1.43545e-19 0 1.35878e-17 -1.42675e-19 0 1.47333e-17 -1.34317e-19 0 1.57915e-17 -1.20784e-19 0 1.67292e-17 -1.0447e-19 0 1.75293e-17 -8.71124e-20 0 1.81868e-17 -6.98359e-20 0 1.87036e-17 -5.31822e-20 0 1.90845e-17 -3.72948e-20 0 1.93348e-17 -2.20784e-20 0 1.94588e-17 -7.30731e-21 0 1.94588e-17 7.30731e-21 0 1.93348e-17 2.20784e-20 0 1.90845e-17 3.72948e-20 0 1.87036e-17 5.31822e-20 0 1.81868e-17 6.98359e-20 0 1.75293e-17 8.71124e-20 0 1.67292e-17 1.0447e-19 0 1.57915e-17 1.20784e-19 0 1.47333e-17 1.34317e-19 0 1.35878e-17 1.42675e-19 0 1.24065e-17 1.43545e-19 0 1.12311e-17 2.06009e-18 0 5.14832e-18 4.82031e-16 0 1.09484e-13 3.98263e-12 0 6.19402e-11 -3.36991e-09 0 1.01454e-06 -6.2405e-05 0 1.25163e-06 7.49961e-05 0 7.48013e-11 3.97088e-09 0 1.32939e-13 -4.77614e-12 0 1.09458e-15 -5.8034e-16 0 1.2251e-15 -1.59011e-18 0 1.36018e-15 7.81823e-19 0 1.49807e-15 7.95403e-19 0 1.63093e-15 7.71253e-19 0 1.75272e-15 7.17129e-19 0 1.85972e-15 6.41165e-19 0 1.95028e-15 5.50691e-19 0 2.02415e-15 4.52459e-19 0 2.08186e-15 3.51249e-19 0 2.1242e-15 2.498e-19 0 2.15194e-15 1.49242e-19 0 2.16566e-15 4.96201e-20 0 2.16566e-15 -4.96201e-20 0 2.15194e-15 -1.49242e-19 0 2.1242e-15 -2.498e-19 0 2.08186e-15 -3.51249e-19 0 2.02415e-15 -4.52459e-19 0 1.95028e-15 -5.50691e-19 0 1.85972e-15 -6.41165e-19 0 1.75272e-15 -7.17129e-19 0 1.63093e-15 -7.71253e-19 0 1.49807e-15 -7.95403e-19 0 1.36018e-15 -7.81823e-19 0 1.2251e-15 1.59011e-18 0 1.09458e-15 5.8034e-16 0 1.32939e-13 4.77614e-12 0 7.48013e-11 -3.97088e-09 0 1.25163e-06 -7.49961e-05 0 1.62378e-06 9.07084e-05 0 9.37626e-11 4.65111e-09 0 5.53315e-14 -5.75668e-12 0 -1.1967e-13 -1.06195e-16 0 -1.32445e-13 6.9051e-16 0 -1.4656e-13 7.32435e-16 0 -1.61011e-13 7.26115e-16 0 -1.74972e-13 6.82216e-16 0 -1.87814e-13 6.12048e-16 0 -1.99138e-13 5.28122e-16 0 -2.08756e-13 4.3941e-16 0 -2.16628e-13 3.51607e-16 0 -2.22793e-13 2.67361e-16 0 -2.27327e-13 1.87284e-16 0 -2.30301e-13 1.10791e-16 0 -2.31773e-13 3.66551e-17 0 -2.31773e-13 -3.66551e-17 0 -2.30301e-13 -1.10791e-16 0 -2.27327e-13 -1.87284e-16 0 -2.22793e-13 -2.67361e-16 0 -2.16628e-13 -3.51607e-16 0 -2.08756e-13 -4.3941e-16 0 -1.99138e-13 -5.28122e-16 0 -1.87814e-13 -6.12048e-16 0 -1.74972e-13 -6.82216e-16 0 -1.61011e-13 -7.26115e-16 0 -1.4656e-13 -7.32435e-16 0 -1.32445e-13 -6.9051e-16 0 -1.1967e-13 1.06195e-16 0 5.53315e-14 5.75668e-12 0 9.37626e-11 -4.65111e-09 0 1.62378e-06 -9.07084e-05 0 2.25696e-06 0.000111372 0 1.25299e-10 5.40072e-09 0 1.6842e-12 -7.05237e-12 0 1.56464e-12 -3.93178e-14 0 1.70397e-12 -4.48704e-14 0 1.86176e-12 -4.75433e-14 0 2.02522e-12 -4.72406e-14 0 2.18507e-12 -4.451e-14 0 2.33426e-12 -4.00643e-14 0 2.46792e-12 -3.46885e-14 0 2.58319e-12 -2.89529e-14 0 2.67878e-12 -2.32303e-14 0 2.75448e-12 -1.77026e-14 0 2.81061e-12 -1.24206e-14 0 2.84764e-12 -7.35546e-15 0 2.86604e-12 -2.43486e-15 0 2.86604e-12 2.43486e-15 0 2.84764e-12 7.35546e-15 0 2.81061e-12 1.24206e-14 0 2.75448e-12 1.77026e-14 0 2.67878e-12 2.32303e-14 0 2.58319e-12 2.89529e-14 0 2.46792e-12 3.46885e-14 0 2.33426e-12 4.00643e-14 0 2.18507e-12 4.451e-14 0 2.02522e-12 4.72406e-14 0 1.86176e-12 4.75433e-14 0 1.70397e-12 4.48704e-14 0 1.56464e-12 3.93178e-14 0 1.6842e-12 7.05237e-12 0 1.25299e-10 -5.40072e-09 0 2.25696e-06 -0.000111372 0 3.46621e-06 0.000140606 0 6.84769e-10 6.12995e-09 0 5.26916e-10 -9.53019e-12 0 5.76912e-10 -9.87789e-13 0 6.40274e-10 -1.11627e-12 0 7.09959e-10 -1.17098e-12 0 7.81186e-10 -1.15452e-12 0 8.49884e-10 -1.0773e-12 0 9.12936e-10 -9.58652e-13 0 9.68405e-10 -8.20212e-13 0 1.01541e-09 -6.77031e-13 0 1.05381e-09 -5.38028e-13 0 1.08383e-09 -4.06839e-13 0 1.10588e-09 -2.83798e-13 0 1.12033e-09 -1.67418e-13 0 1.12747e-09 -5.5313e-14 0 1.12747e-09 5.5313e-14 0 1.12033e-09 1.67418e-13 0 1.10588e-09 2.83798e-13 0 1.08383e-09 4.06839e-13 0 1.05381e-09 5.38028e-13 0 1.01541e-09 6.77031e-13 0 9.68405e-10 8.20212e-13 0 9.12936e-10 9.58652e-13 0 8.49884e-10 1.0773e-12 0 7.81186e-10 1.15452e-12 0 7.09959e-10 1.17098e-12 0 6.40274e-10 1.11627e-12 0 5.76912e-10 9.87789e-13 0 5.26916e-10 9.53019e-12 0 6.84769e-10 -6.12995e-09 0 3.46621e-06 -0.000140606 0 6.17668e-06 0.000186684 0 -3.57229e-08 6.28328e-09 0 -3.67868e-08 1.68672e-10 0 -4.00771e-08 2.67684e-10 0 -4.4308e-08 3.10211e-10 0 -4.89844e-08 3.2799e-10 0 -5.37757e-08 3.25353e-10 0 -5.84081e-08 3.05904e-10 0 -6.26727e-08 2.74675e-10 0 -6.6437e-08 2.37222e-10 0 -6.96374e-08 1.9754e-10 0 -7.22591e-08 1.58183e-10 0 -7.43142e-08 1.20353e-10 0 -7.58259e-08 8.43436e-11 0 -7.68182e-08 4.99094e-11 0 -7.73094e-08 1.6515e-11 0 -7.73094e-08 -1.6515e-11 0 -7.68182e-08 -4.99094e-11 0 -7.58259e-08 -8.43436e-11 0 -7.43142e-08 -1.20353e-10 0 -7.22591e-08 -1.58183e-10 0 -6.96374e-08 -1.9754e-10 0 -6.6437e-08 -2.37222e-10 0 -6.26727e-08 -2.74675e-10 0 -5.84081e-08 -3.05904e-10 0 -5.37757e-08 -3.25353e-10 0 -4.89844e-08 -3.2799e-10 0 -4.4308e-08 -3.10211e-10 0 -4.00771e-08 -2.67684e-10 0 -3.67868e-08 -1.68672e-10 0 -3.57229e-08 -6.28328e-09 0 6.17668e-06 -0.000186684 0 1.36416e-05 0.000272987 0 -6.26584e-07 1.04132e-08 0 -6.68791e-07 -6.5739e-09 0 -7.45715e-07 -1.03768e-08 0 -8.37647e-07 -1.21632e-08 0 -9.37399e-07 -1.29084e-08 0 -1.0387e-06 -1.28415e-08 0 -1.13574e-06 -1.21168e-08 0 -1.22404e-06 -1.09252e-08 0 -1.30099e-06 -9.47609e-09 0 -1.36559e-06 -7.9225e-09 0 -1.4179e-06 -6.36588e-09 0 -1.45852e-06 -4.85685e-09 0 -1.48817e-06 -3.41071e-09 0 -1.50753e-06 -2.02101e-09 0 -1.51709e-06 -6.69208e-10 0 -1.51709e-06 6.69208e-10 0 -1.50753e-06 2.02101e-09 0 -1.48817e-06 3.41071e-09 0 -1.45852e-06 4.85685e-09 0 -1.4179e-06 6.36588e-09 0 -1.36559e-06 7.9225e-09 0 -1.30099e-06 9.47609e-09 0 -1.22404e-06 1.09252e-08 0 -1.13574e-06 1.21168e-08 0 -1.0387e-06 1.28415e-08 0 -9.37399e-07 1.29084e-08 0 -8.37647e-07 1.21632e-08 0 -7.45715e-07 1.03768e-08 0 -6.68791e-07 6.5739e-09 0 -6.26584e-07 -1.04132e-08 0 1.36416e-05 -0.000272987 0 6.1718e-05 0.000124228 0 0.000231258 2.53851e-07 0 0.000238391 -5.90934e-07 0 0.000260818 -8.40478e-07 0 0.000289193 -9.65782e-07 0 0.000320435 -1.01828e-06 0 0.000352386 -1.0079e-06 0 0.00038322 -9.45073e-07 0 0.000411539 -8.45874e-07 0 0.000436472 -7.28108e-07 0 0.000457617 -6.04428e-07 0 0.0004749 -4.82707e-07 0 0.000488423 -3.6647e-07 0 0.000498356 -2.56407e-07 0 0.00050487 -1.51563e-07 0 0.000508092 -5.01248e-08 0 0.000508092 5.01248e-08 0 0.00050487 1.51563e-07 0 0.000498356 2.56407e-07 0 0.000488423 3.6647e-07 0 0.0004749 4.82707e-07 0 0.000457617 6.04428e-07 0 0.000436472 7.28108e-07 0 0.000411539 8.45874e-07 0 0.00038322 9.45073e-07 0 0.000352386 1.0079e-06 0 0.000320435 1.01828e-06 0 0.000289193 9.65782e-07 0 0.000260818 8.40478e-07 0 0.000238391 5.90934e-07 0 0.000231258 -2.53851e-07 0 6.1718e-05 -0.000124228 0 </DataArray> 
</PointData> 
<Points> 
<DataArray type="Float32" NumberOfComponents="3"> 