<?xml version="1.0"?> 
<VTKFile type="StructuredGrid" version="0.1"> 
<StructuredGrid WholeExtent="0 31 0 31 0 0"> 
<Piece Extent="0 31 0 31 0 0"> 
<PointData>
<DataArray type="Float32" Name="B" format="ascii" NumberOfComponents="3"> 
-4.62989e-05 -5.62334e-05 0 -3.26089e-05 -1.89706e-05 0 -2.68171e-05 -8.55704e-06 0 -2.32675e-05 -3.21028e-06 0 -2.06243e-05 -6.53674e-08 0 -1.84933e-05 1.8613e-06 0 -1.66987e-05 3.04288e-06 0 -1.51444e-05 3.74201e-06 0 -1.37721e-05 4.11655e-06 0 -1.25432e-05 4.28328e-06 0 -1.14322e-05 4.30835e-06 0 -1.04204e-05 4.23239e-06 0 -9.49403e-06 4.10142e-06 0 -8.64276e-06 3.93251e-06 0 -7.8579e-06 3.74393e-06 0 -7.13253e-06 3.5476e-06 0 -6.46057e-06 3.35103e-06 0 -5.83662e-06 3.15955e-06 0 -5.256e-06 2.97677e-06 0 -4.71427e-06 2.80604e-06 0 -4.20743e-06 2.64717e-06 0 -3.73178e-06 2.50267e-06 0 -3.28375e-06 2.37229e-06 0 -2.86011e-06 2.25515e-06 0 -2.45771e-06 2.15398e-06 0 -2.07358e-06 2.06601e-06 0 -1.7049e-06 1.99184e-06 0 -1.3489e-06 1.9323e-06 0 -1.00296e-06 1.88532e-06 0 -6.64525e-07 1.85251e-06 0 -3.31019e-07 1.83289e-06 0 0 1.82548e-06 0 -1.76358e-05 -5.39438e-05 0 -2.71696e-05 -2.07805e-05 0 -2.43796e-05 -9.72254e-06 0 -2.18933e-05 -4.09071e-06 0 -1.979e-05 -7.81028e-07 0 -1.79773e-05 1.25512e-06 0 -1.63844e-05 2.51554e-06 0 -1.49627e-05 3.27459e-06 0 -1.36789e-05 3.6965e-06 0 -1.25093e-05 3.90241e-06 0 -1.14377e-05 3.96075e-06 0 -1.04515e-05 3.91331e-06 0 -9.54128e-06 3.80772e-06 0 -8.69941e-06 3.66136e-06 0 -7.91932e-06 3.49303e-06 0 -7.1955e-06 3.31512e-06 0 -6.52285e-06 3.13503e-06 0 -5.89672e-06 2.95855e-06 0 -5.31291e-06 2.78936e-06 0 -4.76733e-06 2.63078e-06 0 -4.25626e-06 2.4829e-06 0 -3.77614e-06 2.34814e-06 0 -3.32354e-06 2.22639e-06 0 -2.8953e-06 2.11691e-06 0 -2.48832e-06 2.02227e-06 0 -2.09965e-06 1.93993e-06 0 -1.7265e-06 1.87047e-06 0 -1.36609e-06 1.8147e-06 0 -1.0158e-06 1.77068e-06 0 -6.73053e-07 1.73993e-06 0 -3.35274e-07 1.72154e-06 0 0 1.7146e-06 0 -8.88188e-06 -3.98702e-05 0 -2.19267e-05 -2.07755e-05 0 -2.18944e-05 -1.03604e-05 0 -2.04765e-05 -4.72823e-06 0 -1.89238e-05 -1.36032e-06 0 -1.74371e-05 7.33278e-07 0 -1.60513e-05 2.04294e-06 0 -1.47659e-05 2.84355e-06 0 -1.35731e-05 3.30092e-06 0 -1.24647e-05 3.53788e-06 0 -1.14338e-05 3.62387e-06 0 -1.04743e-05 3.60118e-06 0 -9.58095e-06 3.51828e-06 0 -8.7492e-06 3.39259e-06 0 -7.97451e-06 3.24322e-06 0 -7.25278e-06 3.08281e-06 0 -6.57997e-06 2.91861e-06 0 -5.95213e-06 2.75672e-06 0 -5.36557e-06 2.60083e-06 0 -4.81657e-06 2.45423e-06 0 -4.30165e-06 2.31723e-06 0 -3.81745e-06 2.19216e-06 0 -3.36064e-06 2.07903e-06 0 -2.92813e-06 1.97719e-06 0 -2.5169e-06 1.88909e-06 0 -2.12401e-06 1.81239e-06 0 -1.74668e-06 1.74768e-06 0 -1.38216e-06 1.69569e-06 0 -1.0278e-06 1.65465e-06 0 -6.81027e-07 1.62597e-06 0 -3.39253e-07 1.60882e-06 0 0 1.60234e-06 0 -5.37779e-06 -3.11995e-05 0 -1.7577e-05 -1.95394e-05 0 -1.95134e-05 -1.05105e-05 0 -1.90685e-05 -5.12693e-06 0 -1.8049e-05 -1.80285e-06 0 -1.68855e-05 2.96736e-07 0 -1.5707e-05 1.62595e-06 0 -1.45588e-05 2.44956e-06 0 -1.34579e-05 2.93029e-06 0 -1.24115e-05 3.19007e-06 0 -1.14219e-05 3.29803e-06 0 -1.04897e-05 3.29625e-06 0 -9.61381e-06 3.23329e-06 0 -8.79266e-06 3.1264e-06 0 -8.02383e-06 2.99468e-06 0 -7.30465e-06 2.85085e-06 0 -6.63209e-06 2.70191e-06 0 -6.00296e-06 2.55419e-06 0 -5.41406e-06 2.41132e-06 0 -4.86203e-06 2.27652e-06 0 -4.34365e-06 2.15029e-06 0 -3.85571e-06 2.03485e-06 0 -3.39504e-06 1.9303e-06 0 -2.95861e-06 1.8361e-06 0 -2.54344e-06 1.75455e-06 0 -2.14664e-06 1.68352e-06 0 -1.76544e-06 1.62355e-06 0 -1.3971e-06 1.57536e-06 0 -1.03896e-06 1.53731e-06 0 -6.88444e-07 1.51072e-06 0 -3.42955e-07 1.49481e-06 0 0 1.48881e-06 0 -3.67947e-06 -2.52109e-05 0 -1.42374e-05 -1.7723e-05 0 -1.73446e-05 -1.02626e-05 0 -1.77144e-05 -5.30497e-06 0 -1.71878e-05 -2.11329e-06 0 -1.63347e-05 -5.58117e-08 0 -1.53591e-05 1.26423e-06 0 -1.43463e-05 2.09258e-06 0 -1.33367e-05 2.58469e-06 0 -1.23519e-05 2.85907e-06 0 -1.14037e-05 2.98332e-06 0 -1.04988e-05 2.99863e-06 0 -9.64059e-06 2.95288e-06 0 -8.83029e-06 2.86291e-06 0 -8.06763e-06 2.74754e-06 0 -7.35133e-06 2.61936e-06 0 -6.67939e-06 2.48508e-06 0 -6.04933e-06 2.3511e-06 0 -5.45845e-06 2.22096e-06 0 -4.90375e-06 2.09778e-06 0 -4.38226e-06 1.9822e-06 0 -3.89095e-06 1.87633e-06 0 -3.42674e-06 1.78033e-06 0 -2.98672e-06 1.69376e-06 0 -2.56794e-06 1.61876e-06 0 -2.16754e-06 1.55339e-06 0 -1.78278e-06 1.49819e-06 0 -1.4109e-06 1.45381e-06 0 -1.04927e-06 1.41877e-06 0 -6.95301e-07 1.39427e-06 0 -3.46377e-07 1.37962e-06 0 0 1.37409e-06 0 -2.73276e-06 -2.07656e-05 0 -1.17465e-05 -1.5736e-05 0 -1.54435e-05 -9.72227e-06 0 -1.64497e-05 -5.29004e-06 0 -1.636e-05 -2.30052e-06 0 -1.57966e-05 -3.27723e-07 0 -1.5015e-05 9.5634e-07 0 -1.41332e-05 1.77194e-06 0 -1.32126e-05 2.26377e-06 0 -1.22882e-05 2.54471e-06 0 -1.13806e-05 2.67968e-06 0 -1.05027e-05 2.70832e-06 0 -9.66201e-06 2.67708e-06 0 -8.86261e-06 2.60218e-06 0 -8.10626e-06 2.50189e-06 0 -7.39306e-06 2.38844e-06 0 -6.72202e-06 2.26821e-06 0 -6.09134e-06 2.14755e-06 0 -5.4988e-06 2.02987e-06 0 -4.94178e-06 1.91813e-06 0 -4.41751e-06 1.81308e-06 0 -3.92316e-06 1.71671e-06 0 -3.45576e-06 1.62922e-06 0 -3.01247e-06 1.55027e-06 0 -2.59039e-06 1.48181e-06 0 -2.1867e-06 1.42212e-06 0 -1.79867e-06 1.3717e-06 0 -1.42356e-06 1.33115e-06 0 -1.05873e-06 1.29912e-06 0 -7.01593e-07 1.27673e-06 0 -3.49518e-07 1.26333e-06 0 0 1.25827e-06 0 -2.15015e-06 -1.72845e-05 0 -9.8932e-06 -1.37766e-05 0 -1.3821e-05 -8.98523e-06 0 -1.52976e-05 -5.11415e-06 0 -1.55814e-05 -2.37639e-06 0 -1.52815e-05 -5.24057e-07 0 -1.46815e-05 6.99831e-07 0 -1.39242e-05 1.4863e-06 0 -1.30888e-05 1.96675e-06 0 -1.22225e-05 2.24653e-06 0 -1.13541e-05 2.38683e-06 0 -1.05024e-05 2.42517e-06 0 -9.67883e-06 2.40584e-06 0 -8.89014e-06 2.34422e-06 0 -8.14009e-06 2.25775e-06 0 -7.43011e-06 2.15816e-06 0 -6.76016e-06 2.0514e-06 0 -6.12911e-06 1.94365e-06 0 -5.53521e-06 1.83814e-06 0 -4.97617e-06 1.73767e-06 0 -4.44945e-06 1.64304e-06 0 -3.95238e-06 1.5561e-06 0 -3.48211e-06 1.47708e-06 0 -3.03586e-06 1.40573e-06 0 -2.6108e-06 1.34382e-06 0 -2.20412e-06 1.28981e-06 0 -1.81314e-06 1.24417e-06 0 -1.43509e-06 1.20746e-06 0 -1.06735e-06 1.17845e-06 0 -7.0732e-07 1.15817e-06 0 -3.52377e-07 1.14604e-06 0 0 1.14146e-06 0 -1.76637e-06 -1.44435e-05 0 -8.50555e-06 -1.19232e-05 0 -1.24626e-05 -8.12646e-06 0 -1.42709e-05 -4.8093e-06 0 -1.48646e-05 -2.35445e-06 0 -1.47985e-05 -6.51157e-07 0 -1.43648e-05 4.91392e-07 0 -1.37236e-05 1.23378e-06 0 -1.29683e-05 1.69248e-06 0 -1.21569e-05 1.96382e-06 0 -1.13258e-05 2.10435e-06 0 -1.0499e-05 2.14891e-06 0 -9.69174e-06 2.13902e-06 0 -8.91336e-06 2.08897e-06 0 -8.16946e-06 2.01515e-06 0 -7.46271e-06 1.92856e-06 0 -6.79397e-06 1.83471e-06 0 -6.16276e-06 1.73948e-06 0 -5.56775e-06 1.64588e-06 0 -5.00696e-06 1.5565e-06 0 -4.4781e-06 1.47218e-06 0 -3.97862e-06 1.3946e-06 0 -3.50579e-06 1.32403e-06 0 -3.0569e-06 1.26025e-06 0 -2.62917e-06 1.20488e-06 0 -2.21981e-06 1.15656e-06 0 -1.82616e-06 1.11571e-06 0 -1.44547e-06 1.08284e-06 0 -1.07511e-06 1.05687e-06 0 -7.1248e-07 1.03871e-06 0 -3.54952e-07 1.02784e-06 0 0 1.02374e-06 0 -1.50209e-06 -1.20467e-05 0 -7.46114e-06 -1.01966e-05 0 -1.13445e-05 -7.19917e-06 0 -1.33761e-05 -4.40457e-06 0 -1.42195e-05 -2.24879e-06 0 -1.43555e-05 -7.16234e-07 0 -1.40708e-05 3.2702e-07 0 -1.35355e-05 1.012e-06 0 -1.28539e-05 1.43948e-06 0 -1.20934e-05 1.69562e-06 0 -1.12968e-05 1.83161e-06 0 -1.04933e-05 1.87918e-06 0 -9.70136e-06 1.87638e-06 0 -8.93269e-06 1.83632e-06 0 -8.19463e-06 1.77402e-06 0 -7.49103e-06 1.69965e-06 0 -6.82355e-06 1.61819e-06 0 -6.19233e-06 1.53511e-06 0 -5.59643e-06 1.45317e-06 0 -5.03417e-06 1.37472e-06 0 -4.50345e-06 1.30061e-06 0 -4.00186e-06 1.23232e-06 0 -3.52678e-06 1.17015e-06 0 -3.07556e-06 1.11393e-06 0 -2.64546e-06 1.0651e-06 0 -2.23374e-06 1.02246e-06 0 -1.83772e-06 9.86412e-07 0 -1.45469e-06 9.57397e-07 0 -1.082e-06 9.34469e-07 0 -7.17064e-07 9.18432e-07 0 -3.57241e-07 9.08836e-07 0 0 9.05213e-07 0 -1.31245e-06 -9.96812e-06 0 -6.66467e-06 -8.59221e-06 0 -1.04316e-05 -6.23843e-06 0 -1.26091e-05 -3.92466e-06 0 -1.36499e-05 -2.07318e-06 0 -1.39575e-05 -7.26972e-07 0 -1.38038e-05 2.02189e-07 0 -1.3363e-05 8.18152e-07 0 -1.27481e-05 1.20592e-06 0 -1.20337e-05 1.44075e-06 0 -1.12686e-05 1.56787e-06 0 -1.04863e-05 1.61546e-06 0 -9.70837e-06 1.61764e-06 0 -8.94864e-06 1.58609e-06 0 -8.21601e-06 1.5343e-06 0 -7.51537e-06 1.47142e-06 0 -6.84915e-06 1.40187e-06 0 -6.21802e-06 1.3306e-06 0 -5.62142e-06 1.26009e-06 0 -5.05792e-06 1.19242e-06 0 -4.5256e-06 1.12841e-06 0 -4.02219e-06 1.06937e-06 0 -3.54516e-06 1.01556e-06 0 -3.09191e-06 9.66884e-07 0 -2.65975e-06 9.24574e-07 0 -2.24595e-06 8.87628e-07 0 -1.84786e-06 8.56378e-07 0 -1.46277e-06 8.31222e-07 0 -1.08804e-06 8.1134e-07 0 -7.21084e-07 7.97433e-07 0 -3.59248e-07 7.8911e-07 0 0 7.85968e-07 0 -1.17459e-06 -8.12217e-06 0 -6.05935e-06 -7.09531e-06 0 -9.69912e-06 -5.26583e-06 0 -1.19672e-05 -3.38958e-06 0 -1.31604e-05 -1.84046e-06 0 -1.36099e-05 -6.91226e-07 0 -1.3568e-05 1.11994e-07 0 -1.32096e-05 6.49076e-07 0 -1.2653e-05 9.89738e-07 0 -1.19794e-05 1.19784e-06 0 -1.12422e-05 1.31221e-06 0 -1.04788e-05 1.35718e-06 0 -9.71329e-06 1.36242e-06 0 -8.96154e-06 1.33806e-06 0 -8.23379e-06 1.29587e-06 0 -7.53586e-06 1.24383e-06 0 -6.87084e-06 1.18575e-06 0 -6.23988e-06 1.12599e-06 0 -5.64272e-06 1.0667e-06 0 -5.07819e-06 1.00969e-06 0 -4.54453e-06 9.55682e-07 0 -4.03959e-06 9.05822e-07 0 -3.56089e-06 8.60356e-07 0 -3.10591e-06 8.19199e-07 0 -2.67199e-06 7.83411e-07 0 -2.25641e-06 7.52152e-07 0 -1.85656e-06 7.25706e-07 0 -1.4697e-06 7.04413e-07 0 -1.09323e-06 6.87583e-07 0 -7.24533e-07 6.75809e-07 0 -3.6097e-07 6.68762e-07 0 0 6.66102e-07 0 -1.07381e-06 -6.44764e-06 0 -5.60258e-06 -5.68812e-06 0 -9.12299e-06 -4.29353e-06 0 -1.14446e-05 -2.815e-06 0 -1.27525e-05 -1.56226e-06 0 -1.33159e-05 -6.16785e-07 0 -1.33668e-05 5.12886e-08 0 -1.30776e-05 5.01346e-07 0 -1.25708e-05 7.88618e-07 0 -1.19319e-05 9.65337e-07 0 -1.12186e-05 1.06361e-06 0 -1.04714e-05 1.10366e-06 0 -9.7166e-06 1.11029e-06 0 -8.97176e-06 1.09198e-06 0 -8.24824e-06 1.05859e-06 0 -7.55268e-06 1.01682e-06 0 -6.88874e-06 9.69834e-07 0 -6.25797e-06 9.21315e-07 0 -5.66039e-06 8.73062e-07 0 -5.09504e-06 8.26584e-07 0 -4.56028e-06 7.82512e-07 0 -4.05407e-06 7.41787e-07 0 -3.574e-06 7.0463e-07 0 -3.11758e-06 6.70979e-07 0 -2.68218e-06 6.41708e-07 0 -2.26513e-06 6.16135e-07 0 -1.8638e-06 5.94495e-07 0 -1.47548e-06 5.77069e-07 0 -1.09755e-06 5.63294e-07 0 -7.27409e-07 5.53656e-07 0 -3.62406e-07 5.47888e-07 0 0 5.4571e-07 0 -1.00102e-06 -4.89873e-06 0 -5.2651e-06 -4.35255e-06 0 -8.68384e-06 -3.32741e-06 0 -1.10352e-05 -2.21283e-06 0 -1.24267e-05 -1.24897e-06 0 -1.30783e-05 -5.11232e-07 0 -1.32028e-05 1.47805e-08 0 -1.29695e-05 3.71322e-07 0 -1.2503e-05 6.00065e-07 0 -1.18925e-05 7.41553e-07 0 -1.11987e-05 8.20938e-07 0 -1.04647e-05 8.54129e-07 0 -9.71874e-06 8.60768e-07 0 -8.97956e-06 8.47551e-07 0 -8.25955e-06 8.22293e-07 0 -7.56596e-06 7.9031e-07 0 -6.90294e-06 7.54103e-07 0 -6.27236e-06 7.16603e-07 0 -5.67448e-06 6.79236e-07 0 -5.10848e-06 6.43192e-07 0 -4.57287e-06 6.08985e-07 0 -4.06564e-06 5.77355e-07 0 -3.58448e-06 5.48481e-07 0 -3.12691e-06 5.22324e-07 0 -2.69035e-06 4.99563e-07 0 -2.27211e-06 4.79674e-07 0 -1.8696e-06 4.62842e-07 0 -1.48011e-06 4.49286e-07 0 -1.10101e-06 4.38569e-07 0 -7.29711e-07 4.3107e-07 0 -3.63556e-07 4.26582e-07 0 0 4.24888e-07 0 -9.50443e-07 -3.43957e-06 0 -5.02688e-06 -3.07125e-06 0 -8.36672e-06 -2.36927e-06 0 -1.07333e-05 -1.59209e-06 0 -1.21828e-05 -9.09737e-07 0 -1.28986e-05 -3.8188e-07 0 -1.3078e-05 -2.89134e-09 0 -1.28868e-05 2.5521e-07 0 -1.24509e-05 4.21436e-07 0 -1.1862e-05 5.24671e-07 0 -1.11831e-05 5.82966e-07 0 -1.04593e-05 6.07778e-07 0 -9.72003e-06 6.13321e-07 0 -8.98521e-06 6.04432e-07 0 -8.26788e-06 5.86776e-07 0 -7.57582e-06 5.64206e-07 0 -6.91353e-06 5.38526e-07 0 -6.28311e-06 5.1187e-07 0 -5.68502e-06 4.85267e-07 0 -5.11855e-06 4.59579e-07 0 -4.58229e-06 4.35184e-07 0 -4.07432e-06 4.12615e-07 0 -3.59233e-06 3.92005e-07 0 -3.13391e-06 3.73329e-07 0 -2.69647e-06 3.57075e-07 0 -2.27735e-06 3.4287e-07 0 -1.87396e-06 3.30847e-07 0 -1.48358e-06 3.21162e-07 0 -1.10361e-06 3.13505e-07 0 -7.3144e-07 3.08148e-07 0 -3.64419e-07 3.04941e-07 0 0 3.03731e-07 0 -9.18453e-07 -2.04064e-06 0 -4.87461e-06 -1.82784e-06 0 -8.16086e-06 -1.41831e-06 0 -1.05345e-05 -9.59564e-07 0 -1.20204e-05 -5.52735e-07 0 -1.27781e-05 -2.35763e-07 0 -1.29939e-05 -7.11212e-09 0 -1.28309e-05 1.49104e-07 0 -1.24156e-05 2.49974e-07 0 -1.18412e-05 3.12786e-07 0 -1.11725e-05 3.48402e-07 0 -1.04554e-05 3.63734e-07 0 -9.72075e-06 3.67382e-07 0 -8.98887e-06 3.62271e-07 0 -8.27338e-06 3.51833e-07 0 -7.58236e-06 3.38402e-07 0 -6.92056e-06 3.23067e-07 0 -6.29027e-06 3.07125e-07 0 -5.69203e-06 2.91199e-07 0 -5.12526e-06 2.75809e-07 0 -4.58858e-06 2.61188e-07 0 -4.08011e-06 2.47656e-07 0 -3.59758e-06 2.35296e-07 0 -3.13858e-06 2.24094e-07 0 -2.70056e-06 2.14343e-07 0 -2.28085e-06 2.0582e-07 0 -1.87686e-06 1.98606e-07 0 -1.4859e-06 1.92795e-07 0 -1.10534e-06 1.882e-07 0 -7.32594e-07 1.84985e-07 0 -3.64995e-07 1.83061e-07 0 0 1.82334e-07 0 -9.02903e-07 -6.76434e-07 0 -4.80014e-06 -6.06814e-07 0 -8.05928e-06 -4.72202e-07 0 -1.04355e-05 -3.20544e-07 0 -1.1939e-05 -1.85379e-07 0 -1.27175e-05 -7.96885e-08 0 -1.29515e-05 -3.26673e-09 0 -1.28026e-05 4.90298e-08 0 -1.23977e-05 8.28416e-08 0 -1.18307e-05 1.03924e-07 0 -1.1167e-05 1.15903e-07 0 -1.04534e-05 1.21089e-07 0 -9.72106e-06 1.22358e-07 0 -8.99068e-06 1.20692e-07 0 -8.27611e-06 1.17238e-07 0 -7.58562e-06 1.1278e-07 0 -6.92408e-06 1.07681e-07 0 -6.29385e-06 1.02375e-07 0 -5.69555e-06 9.70726e-08 0 -5.12863e-06 9.19466e-08 0 -4.59173e-06 8.70755e-08 0 -4.08301e-06 8.25665e-08 0 -3.60021e-06 7.84475e-08 0 -3.14093e-06 7.47141e-08 0 -2.70261e-06 7.1464e-08 0 -2.28261e-06 6.86231e-08 0 -1.87832e-06 6.62183e-08 0 -1.48707e-06 6.42811e-08 0 -1.10622e-06 6.27495e-08 0 -7.33173e-07 6.16777e-08 0 -3.65284e-07 6.10362e-08 0 0 6.0794e-08 0 -9.02903e-07 6.76434e-07 0 -4.80014e-06 6.06814e-07 0 -8.05928e-06 4.72202e-07 0 -1.04355e-05 3.20544e-07 0 -1.1939e-05 1.85379e-07 0 -1.27175e-05 7.96885e-08 0 -1.29515e-05 3.26673e-09 0 -1.28026e-05 -4.90298e-08 0 -1.23977e-05 -8.28416e-08 0 -1.18307e-05 -1.03924e-07 0 -1.1167e-05 -1.15903e-07 0 -1.04534e-05 -1.21089e-07 0 -9.72106e-06 -1.22358e-07 0 -8.99068e-06 -1.20692e-07 0 -8.27611e-06 -1.17238e-07 0 -7.58562e-06 -1.1278e-07 0 -6.92408e-06 -1.07681e-07 0 -6.29385e-06 -1.02375e-07 0 -5.69555e-06 -9.70726e-08 0 -5.12863e-06 -9.19466e-08 0 -4.59173e-06 -8.70755e-08 0 -4.08301e-06 -8.25665e-08 0 -3.60021e-06 -7.84475e-08 0 -3.14093e-06 -7.47141e-08 0 -2.70261e-06 -7.1464e-08 0 -2.28261e-06 -6.86231e-08 0 -1.87832e-06 -6.62183e-08 0 -1.48707e-06 -6.42811e-08 0 -1.10622e-06 -6.27495e-08 0 -7.33173e-07 -6.16777e-08 0 -3.65284e-07 -6.10362e-08 0 0 -6.0794e-08 0 -9.18453e-07 2.04064e-06 0 -4.87461e-06 1.82784e-06 0 -8.16086e-06 1.41831e-06 0 -1.05345e-05 9.59564e-07 0 -1.20204e-05 5.52735e-07 0 -1.27781e-05 2.35763e-07 0 -1.29939e-05 7.11212e-09 0 -1.28309e-05 -1.49104e-07 0 -1.24156e-05 -2.49974e-07 0 -1.18412e-05 -3.12786e-07 0 -1.11725e-05 -3.48402e-07 0 -1.04554e-05 -3.63734e-07 0 -9.72075e-06 -3.67382e-07 0 -8.98887e-06 -3.62271e-07 0 -8.27338e-06 -3.51833e-07 0 -7.58236e-06 -3.38402e-07 0 -6.92056e-06 -3.23067e-07 0 -6.29027e-06 -3.07125e-07 0 -5.69203e-06 -2.91199e-07 0 -5.12526e-06 -2.75809e-07 0 -4.58858e-06 -2.61188e-07 0 -4.08011e-06 -2.47656e-07 0 -3.59758e-06 -2.35296e-07 0 -3.13858e-06 -2.24094e-07 0 -2.70056e-06 -2.14343e-07 0 -2.28085e-06 -2.0582e-07 0 -1.87686e-06 -1.98606e-07 0 -1.4859e-06 -1.92795e-07 0 -1.10534e-06 -1.882e-07 0 -7.32594e-07 -1.84985e-07 0 -3.64995e-07 -1.83061e-07 0 0 -1.82334e-07 0 -9.50443e-07 3.43957e-06 0 -5.02688e-06 3.07125e-06 0 -8.36672e-06 2.36927e-06 0 -1.07333e-05 1.59209e-06 0 -1.21828e-05 9.09737e-07 0 -1.28986e-05 3.8188e-07 0 -1.3078e-05 2.89134e-09 0 -1.28868e-05 -2.5521e-07 0 -1.24509e-05 -4.21436e-07 0 -1.1862e-05 -5.24671e-07 0 -1.11831e-05 -5.82966e-07 0 -1.04593e-05 -6.07778e-07 0 -9.72003e-06 -6.13321e-07 0 -8.98521e-06 -6.04432e-07 0 -8.26788e-06 -5.86776e-07 0 -7.57582e-06 -5.64206e-07 0 -6.91353e-06 -5.38526e-07 0 -6.28311e-06 -5.1187e-07 0 -5.68502e-06 -4.85267e-07 0 -5.11855e-06 -4.59579e-07 0 -4.58229e-06 -4.35184e-07 0 -4.07432e-06 -4.12615e-07 0 -3.59233e-06 -3.92005e-07 0 -3.13391e-06 -3.73329e-07 0 -2.69647e-06 -3.57075e-07 0 -2.27735e-06 -3.4287e-07 0 -1.87396e-06 -3.30847e-07 0 -1.48358e-06 -3.21162e-07 0 -1.10361e-06 -3.13505e-07 0 -7.3144e-07 -3.08148e-07 0 -3.64419e-07 -3.04941e-07 0 0 -3.03731e-07 0 -1.00102e-06 4.89873e-06 0 -5.2651e-06 4.35255e-06 0 -8.68384e-06 3.32741e-06 0 -1.10352e-05 2.21283e-06 0 -1.24267e-05 1.24897e-06 0 -1.30783e-05 5.11232e-07 0 -1.32028e-05 -1.47805e-08 0 -1.29695e-05 -3.71322e-07 0 -1.2503e-05 -6.00065e-07 0 -1.18925e-05 -7.41553e-07 0 -1.11987e-05 -8.20938e-07 0 -1.04647e-05 -8.54129e-07 0 -9.71874e-06 -8.60768e-07 0 -8.97956e-06 -8.47551e-07 0 -8.25955e-06 -8.22293e-07 0 -7.56596e-06 -7.9031e-07 0 -6.90294e-06 -7.54103e-07 0 -6.27236e-06 -7.16603e-07 0 -5.67448e-06 -6.79236e-07 0 -5.10848e-06 -6.43192e-07 0 -4.57287e-06 -6.08985e-07 0 -4.06564e-06 -5.77355e-07 0 -3.58448e-06 -5.48481e-07 0 -3.12691e-06 -5.22324e-07 0 -2.69035e-06 -4.99563e-07 0 -2.27211e-06 -4.79674e-07 0 -1.8696e-06 -4.62842e-07 0 -1.48011e-06 -4.49286e-07 0 -1.10101e-06 -4.38569e-07 0 -7.29711e-07 -4.3107e-07 0 -3.63556e-07 -4.26582e-07 0 0 -4.24888e-07 0 -1.07381e-06 6.44764e-06 0 -5.60258e-06 5.68812e-06 0 -9.12299e-06 4.29353e-06 0 -1.14446e-05 2.815e-06 0 -1.27525e-05 1.56226e-06 0 -1.33159e-05 6.16785e-07 0 -1.33668e-05 -5.12886e-08 0 -1.30776e-05 -5.01346e-07 0 -1.25708e-05 -7.88618e-07 0 -1.19319e-05 -9.65337e-07 0 -1.12186e-05 -1.06361e-06 0 -1.04714e-05 -1.10366e-06 0 -9.7166e-06 -1.11029e-06 0 -8.97176e-06 -1.09198e-06 0 -8.24824e-06 -1.05859e-06 0 -7.55268e-06 -1.01682e-06 0 -6.88874e-06 -9.69834e-07 0 -6.25797e-06 -9.21315e-07 0 -5.66039e-06 -8.73062e-07 0 -5.09504e-06 -8.26584e-07 0 -4.56028e-06 -7.82512e-07 0 -4.05407e-06 -7.41787e-07 0 -3.574e-06 -7.0463e-07 0 -3.11758e-06 -6.70979e-07 0 -2.68218e-06 -6.41708e-07 0 -2.26513e-06 -6.16135e-07 0 -1.8638e-06 -5.94495e-07 0 -1.47548e-06 -5.77069e-07 0 -1.09755e-06 -5.63294e-07 0 -7.27409e-07 -5.53656e-07 0 -3.62406e-07 -5.47888e-07 0 0 -5.4571e-07 0 -1.17459e-06 8.12217e-06 0 -6.05935e-06 7.09531e-06 0 -9.69912e-06 5.26583e-06 0 -1.19672e-05 3.38958e-06 0 -1.31604e-05 1.84046e-06 0 -1.36099e-05 6.91226e-07 0 -1.3568e-05 -1.11994e-07 0 -1.32096e-05 -6.49076e-07 0 -1.2653e-05 -9.89738e-07 0 -1.19794e-05 -1.19784e-06 0 -1.12422e-05 -1.31221e-06 0 -1.04788e-05 -1.35718e-06 0 -9.71329e-06 -1.36242e-06 0 -8.96154e-06 -1.33806e-06 0 -8.23379e-06 -1.29587e-06 0 -7.53586e-06 -1.24383e-06 0 -6.87084e-06 -1.18575e-06 0 -6.23988e-06 -1.12599e-06 0 -5.64272e-06 -1.0667e-06 0 -5.07819e-06 -1.00969e-06 0 -4.54453e-06 -9.55682e-07 0 -4.03959e-06 -9.05822e-07 0 -3.56089e-06 -8.60356e-07 0 -3.10591e-06 -8.19199e-07 0 -2.67199e-06 -7.83411e-07 0 -2.25641e-06 -7.52152e-07 0 -1.85656e-06 -7.25706e-07 0 -1.4697e-06 -7.04413e-07 0 -1.09323e-06 -6.87583e-07 0 -7.24533e-07 -6.75809e-07 0 -3.6097e-07 -6.68762e-07 0 0 -6.66102e-07 0 -1.31245e-06 9.96812e-06 0 -6.66467e-06 8.59221e-06 0 -1.04316e-05 6.23843e-06 0 -1.26091e-05 3.92466e-06 0 -1.36499e-05 2.07318e-06 0 -1.39575e-05 7.26972e-07 0 -1.38038e-05 -2.02189e-07 0 -1.3363e-05 -8.18152e-07 0 -1.27481e-05 -1.20592e-06 0 -1.20337e-05 -1.44075e-06 0 -1.12686e-05 -1.56787e-06 0 -1.04863e-05 -1.61546e-06 0 -9.70837e-06 -1.61764e-06 0 -8.94864e-06 -1.58609e-06 0 -8.21601e-06 -1.5343e-06 0 -7.51537e-06 -1.47142e-06 0 -6.84915e-06 -1.40187e-06 0 -6.21802e-06 -1.3306e-06 0 -5.62142e-06 -1.26009e-06 0 -5.05792e-06 -1.19242e-06 0 -4.5256e-06 -1.12841e-06 0 -4.02219e-06 -1.06937e-06 0 -3.54516e-06 -1.01556e-06 0 -3.09191e-06 -9.66884e-07 0 -2.65975e-06 -9.24574e-07 0 -2.24595e-06 -8.87628e-07 0 -1.84786e-06 -8.56378e-07 0 -1.46277e-06 -8.31222e-07 0 -1.08804e-06 -8.1134e-07 0 -7.21084e-07 -7.97433e-07 0 -3.59248e-07 -7.8911e-07 0 0 -7.85968e-07 0 -1.50209e-06 1.20467e-05 0 -7.46114e-06 1.01966e-05 0 -1.13445e-05 7.19917e-06 0 -1.33761e-05 4.40457e-06 0 -1.42195e-05 2.24879e-06 0 -1.43555e-05 7.16234e-07 0 -1.40708e-05 -3.2702e-07 0 -1.35355e-05 -1.012e-06 0 -1.28539e-05 -1.43948e-06 0 -1.20934e-05 -1.69562e-06 0 -1.12968e-05 -1.83161e-06 0 -1.04933e-05 -1.87918e-06 0 -9.70136e-06 -1.87638e-06 0 -8.93269e-06 -1.83632e-06 0 -8.19463e-06 -1.77402e-06 0 -7.49103e-06 -1.69965e-06 0 -6.82355e-06 -1.61819e-06 0 -6.19233e-06 -1.53511e-06 0 -5.59643e-06 -1.45317e-06 0 -5.03417e-06 -1.37472e-06 0 -4.50345e-06 -1.30061e-06 0 -4.00186e-06 -1.23232e-06 0 -3.52678e-06 -1.17015e-06 0 -3.07556e-06 -1.11393e-06 0 -2.64546e-06 -1.0651e-06 0 -2.23374e-06 -1.02246e-06 0 -1.83772e-06 -9.86412e-07 0 -1.45469e-06 -9.57397e-07 0 -1.082e-06 -9.34469e-07 0 -7.17064e-07 -9.18432e-07 0 -3.57241e-07 -9.08836e-07 0 0 -9.05213e-07 0 -1.76637e-06 1.44435e-05 0 -8.50555e-06 1.19232e-05 0 -1.24626e-05 8.12646e-06 0 -1.42709e-05 4.8093e-06 0 -1.48646e-05 2.35445e-06 0 -1.47985e-05 6.51157e-07 0 -1.43648e-05 -4.91392e-07 0 -1.37236e-05 -1.23378e-06 0 -1.29683e-05 -1.69248e-06 0 -1.21569e-05 -1.96382e-06 0 -1.13258e-05 -2.10435e-06 0 -1.0499e-05 -2.14891e-06 0 -9.69174e-06 -2.13902e-06 0 -8.91336e-06 -2.08897e-06 0 -8.16946e-06 -2.01515e-06 0 -7.46271e-06 -1.92856e-06 0 -6.79397e-06 -1.83471e-06 0 -6.16276e-06 -1.73948e-06 0 -5.56775e-06 -1.64588e-06 0 -5.00696e-06 -1.5565e-06 0 -4.4781e-06 -1.47218e-06 0 -3.97862e-06 -1.3946e-06 0 -3.50579e-06 -1.32403e-06 0 -3.0569e-06 -1.26025e-06 0 -2.62917e-06 -1.20488e-06 0 -2.21981e-06 -1.15656e-06 0 -1.82616e-06 -1.11571e-06 0 -1.44547e-06 -1.08284e-06 0 -1.07511e-06 -1.05687e-06 0 -7.1248e-07 -1.03871e-06 0 -3.54952e-07 -1.02784e-06 0 0 -1.02374e-06 0 -2.15015e-06 1.72845e-05 0 -9.8932e-06 1.37766e-05 0 -1.3821e-05 8.98523e-06 0 -1.52976e-05 5.11415e-06 0 -1.55814e-05 2.37639e-06 0 -1.52815e-05 5.24057e-07 0 -1.46815e-05 -6.99831e-07 0 -1.39242e-05 -1.4863e-06 0 -1.30888e-05 -1.96675e-06 0 -1.22225e-05 -2.24653e-06 0 -1.13541e-05 -2.38683e-06 0 -1.05024e-05 -2.42517e-06 0 -9.67883e-06 -2.40584e-06 0 -8.89014e-06 -2.34422e-06 0 -8.14009e-06 -2.25775e-06 0 -7.43011e-06 -2.15816e-06 0 -6.76016e-06 -2.0514e-06 0 -6.12911e-06 -1.94365e-06 0 -5.53521e-06 -1.83814e-06 0 -4.97617e-06 -1.73767e-06 0 -4.44945e-06 -1.64304e-06 0 -3.95238e-06 -1.5561e-06 0 -3.48211e-06 -1.47708e-06 0 -3.03586e-06 -1.40573e-06 0 -2.6108e-06 -1.34382e-06 0 -2.20412e-06 -1.28981e-06 0 -1.81314e-06 -1.24417e-06 0 -1.43509e-06 -1.20746e-06 0 -1.06735e-06 -1.17845e-06 0 -7.0732e-07 -1.15817e-06 0 -3.52377e-07 -1.14604e-06 0 0 -1.14146e-06 0 -2.73276e-06 2.07656e-05 0 -1.17465e-05 1.5736e-05 0 -1.54435e-05 9.72227e-06 0 -1.64497e-05 5.29004e-06 0 -1.636e-05 2.30052e-06 0 -1.57966e-05 3.27723e-07 0 -1.5015e-05 -9.5634e-07 0 -1.41332e-05 -1.77194e-06 0 -1.32126e-05 -2.26377e-06 0 -1.22882e-05 -2.54471e-06 0 -1.13806e-05 -2.67968e-06 0 -1.05027e-05 -2.70832e-06 0 -9.66201e-06 -2.67708e-06 0 -8.86261e-06 -2.60218e-06 0 -8.10626e-06 -2.50189e-06 0 -7.39306e-06 -2.38844e-06 0 -6.72202e-06 -2.26821e-06 0 -6.09134e-06 -2.14755e-06 0 -5.4988e-06 -2.02987e-06 0 -4.94178e-06 -1.91813e-06 0 -4.41751e-06 -1.81308e-06 0 -3.92316e-06 -1.71671e-06 0 -3.45576e-06 -1.62922e-06 0 -3.01247e-06 -1.55027e-06 0 -2.59039e-06 -1.48181e-06 0 -2.1867e-06 -1.42212e-06 0 -1.79867e-06 -1.3717e-06 0 -1.42356e-06 -1.33115e-06 0 -1.05873e-06 -1.29912e-06 0 -7.01593e-07 -1.27673e-06 0 -3.49518e-07 -1.26333e-06 0 0 -1.25827e-06 0 -3.67947e-06 2.52109e-05 0 -1.42374e-05 1.7723e-05 0 -1.73446e-05 1.02626e-05 0 -1.77144e-05 5.30497e-06 0 -1.71878e-05 2.11329e-06 0 -1.63347e-05 5.58117e-08 0 -1.53591e-05 -1.26423e-06 0 -1.43463e-05 -2.09258e-06 0 -1.33367e-05 -2.58469e-06 0 -1.23519e-05 -2.85907e-06 0 -1.14037e-05 -2.98332e-06 0 -1.04988e-05 -2.99863e-06 0 -9.64059e-06 -2.95288e-06 0 -8.83029e-06 -2.86291e-06 0 -8.06763e-06 -2.74754e-06 0 -7.35133e-06 -2.61936e-06 0 -6.67939e-06 -2.48508e-06 0 -6.04933e-06 -2.3511e-06 0 -5.45845e-06 -2.22096e-06 0 -4.90375e-06 -2.09778e-06 0 -4.38226e-06 -1.9822e-06 0 -3.89095e-06 -1.87633e-06 0 -3.42674e-06 -1.78033e-06 0 -2.98672e-06 -1.69376e-06 0 -2.56794e-06 -1.61876e-06 0 -2.16754e-06 -1.55339e-06 0 -1.78278e-06 -1.49819e-06 0 -1.4109e-06 -1.45381e-06 0 -1.04927e-06 -1.41877e-06 0 -6.95301e-07 -1.39427e-06 0 -3.46377e-07 -1.37962e-06 0 0 -1.37409e-06 0 -5.37779e-06 3.11995e-05 0 -1.7577e-05 1.95394e-05 0 -1.95134e-05 1.05105e-05 0 -1.90685e-05 5.12693e-06 0 -1.8049e-05 1.80285e-06 0 -1.68855e-05 -2.96736e-07 0 -1.5707e-05 -1.62595e-06 0 -1.45588e-05 -2.44956e-06 0 -1.34579e-05 -2.93029e-06 0 -1.24115e-05 -3.19007e-06 0 -1.14219e-05 -3.29803e-06 0 -1.04897e-05 -3.29625e-06 0 -9.61381e-06 -3.23329e-06 0 -8.79266e-06 -3.1264e-06 0 -8.02383e-06 -2.99468e-06 0 -7.30465e-06 -2.85085e-06 0 -6.63209e-06 -2.70191e-06 0 -6.00296e-06 -2.55419e-06 0 -5.41406e-06 -2.41132e-06 0 -4.86203e-06 -2.27652e-06 0 -4.34365e-06 -2.15029e-06 0 -3.85571e-06 -2.03485e-06 0 -3.39504e-06 -1.9303e-06 0 -2.95861e-06 -1.8361e-06 0 -2.54344e-06 -1.75455e-06 0 -2.14664e-06 -1.68352e-06 0 -1.76544e-06 -1.62355e-06 0 -1.3971e-06 -1.57536e-06 0 -1.03896e-06 -1.53731e-06 0 -6.88444e-07 -1.51072e-06 0 -3.42955e-07 -1.49481e-06 0 0 -1.48881e-06 0 -8.88188e-06 3.98702e-05 0 -2.19267e-05 2.07755e-05 0 -2.18944e-05 1.03604e-05 0 -2.04765e-05 4.72823e-06 0 -1.89238e-05 1.36032e-06 0 -1.74371e-05 -7.33278e-07 0 -1.60513e-05 -2.04294e-06 0 -1.47659e-05 -2.84355e-06 0 -1.35731e-05 -3.30092e-06 0 -1.24647e-05 -3.53788e-06 0 -1.14338e-05 -3.62387e-06 0 -1.04743e-05 -3.60118e-06 0 -9.58095e-06 -3.51828e-06 0 -8.7492e-06 -3.39259e-06 0 -7.97451e-06 -3.24322e-06 0 -7.25278e-06 -3.08281e-06 0 -6.57997e-06 -2.91861e-06 0 -5.95213e-06 -2.75672e-06 0 -5.36557e-06 -2.60083e-06 0 -4.81657e-06 -2.45423e-06 0 -4.30165e-06 -2.31723e-06 0 -3.81745e-06 -2.19216e-06 0 -3.36064e-06 -2.07903e-06 0 -2.92813e-06 -1.97719e-06 0 -2.5169e-06 -1.88909e-06 0 -2.12401e-06 -1.81239e-06 0 -1.74668e-06 -1.74768e-06 0 -1.38216e-06 -1.69569e-06 0 -1.0278e-06 -1.65465e-06 0 -6.81027e-07 -1.62597e-06 0 -3.39253e-07 -1.60882e-06 0 0 -1.60234e-06 0 -1.76358e-05 5.39438e-05 0 -2.71696e-05 2.07805e-05 0 -2.43796e-05 9.72254e-06 0 -2.18933e-05 4.09071e-06 0 -1.979e-05 7.81028e-07 0 -1.79773e-05 -1.25512e-06 0 -1.63844e-05 -2.51554e-06 0 -1.49627e-05 -3.27459e-06 0 -1.36789e-05 -3.6965e-06 0 -1.25093e-05 -3.90241e-06 0 -1.14377e-05 -3.96075e-06 0 -1.04515e-05 -3.91331e-06 0 -9.54128e-06 -3.80772e-06 0 -8.69941e-06 -3.66136e-06 0 -7.91932e-06 -3.49303e-06 0 -7.1955e-06 -3.31512e-06 0 -6.52285e-06 -3.13503e-06 0 -5.89672e-06 -2.95855e-06 0 -5.31291e-06 -2.78936e-06 0 -4.76733e-06 -2.63078e-06 0 -4.25626e-06 -2.4829e-06 0 -3.77614e-06 -2.34814e-06 0 -3.32354e-06 -2.22639e-06 0 -2.8953e-06 -2.11691e-06 0 -2.48832e-06 -2.02227e-06 0 -2.09965e-06 -1.93993e-06 0 -1.7265e-06 -1.87047e-06 0 -1.36609e-06 -1.8147e-06 0 -1.0158e-06 -1.77068e-06 0 -6.73053e-07 -1.73993e-06 0 -3.35274e-07 -1.72154e-06 0 0 -1.7146e-06 0 -4.62989e-05 5.62334e-05 0 -3.26089e-05 1.89706e-05 0 -2.68171e-05 8.55704e-06 0 -2.32675e-05 3.21028e-06 0 -2.06243e-05 6.53674e-08 0 -1.84933e-05 -1.8613e-06 0 -1.66987e-05 -3.04288e-06 0 -1.51444e-05 -3.74201e-06 0 -1.37721e-05 -4.11655e-06 0 -1.25432e-05 -4.28328e-06 0 -1.14322e-05 -4.30835e-06 0 -1.04204e-05 -4.23239e-06 0 -9.49403e-06 -4.10142e-06 0 -8.64276e-06 -3.93251e-06 0 -7.8579e-06 -3.74393e-06 0 -7.13253e-06 -3.5476e-06 0 -6.46057e-06 -3.35103e-06 0 -5.83662e-06 -3.15955e-06 0 -5.256e-06 -2.97677e-06 0 -4.71427e-06 -2.80604e-06 0 -4.20743e-06 -2.64717e-06 0 -3.73178e-06 -2.50267e-06 0 -3.28375e-06 -2.37229e-06 0 -2.86011e-06 -2.25515e-06 0 -2.45771e-06 -2.15398e-06 0 -2.07358e-06 -2.06601e-06 0 -1.7049e-06 -1.99184e-06 0 -1.3489e-06 -1.9323e-06 0 -1.00296e-06 -1.88532e-06 0 -6.64525e-07 -1.85251e-06 0 -3.31019e-07 -1.83289e-06 0 0 -1.82548e-06 0 </DataArray> 
</PointData> 
<Points> 
<DataArray type="Float32" NumberOfComponents="3"> 