<?xml version="1.0"?> 
<VTKFile type="StructuredGrid" version="0.1"> 
<StructuredGrid WholeExtent="0 31 0 31 0 0"> 
<Piece Extent="0 31 0 31 0 0"> 
<PointData>
<DataArray type="Float32" Name="B" format="ascii" NumberOfComponents="3"> 
-1.68993e-05 2.03275e-06 0 9.31554e-06 5.7936e-07 0 9.03081e-06 -7.25885e-07 0 9.50938e-06 -1.11327e-06 0 1.02554e-05 -1.29802e-06 0 1.11157e-05 -1.37522e-06 0 1.20145e-05 -1.36632e-06 0 1.2901e-05 -1.28715e-06 0 1.3737e-05 -1.1584e-06 0 1.44942e-05 -1.00283e-06 0 1.5154e-05 -8.36945e-07 0 1.57063e-05 -6.7149e-07 0 1.61469e-05 -5.11698e-07 0 1.64754e-05 -3.59018e-07 0 1.6693e-05 -2.1261e-07 0 1.68014e-05 -7.03799e-08 0 1.68014e-05 7.03799e-08 0 1.6693e-05 2.1261e-07 0 1.64754e-05 3.59018e-07 0 1.61469e-05 5.11698e-07 0 1.57063e-05 6.7149e-07 0 1.5154e-05 8.36945e-07 0 1.44942e-05 1.00283e-06 0 1.3737e-05 1.1584e-06 0 1.2901e-05 1.28715e-06 0 1.20145e-05 1.36632e-06 0 1.11157e-05 1.37522e-06 0 1.02554e-05 1.29802e-06 0 9.50938e-06 1.11327e-06 0 9.03081e-06 7.25885e-07 0 9.31554e-06 -5.7936e-07 0 -1.68993e-05 -2.03275e-06 0 5.03338e-06 -8.07283e-08 0 7.14984e-06 -3.65386e-07 0 8.29249e-06 -1.31496e-06 0 9.16016e-06 -1.87454e-06 0 1.00816e-05 -2.18219e-06 0 1.10681e-05 -2.31736e-06 0 1.20719e-05 -2.30928e-06 0 1.30388e-05 -2.18418e-06 0 1.39263e-05 -1.97576e-06 0 1.47092e-05 -1.72042e-06 0 1.53767e-05 -1.44442e-06 0 1.59262e-05 -1.16531e-06 0 1.63594e-05 -8.92217e-07 0 1.66799e-05 -6.28307e-07 0 1.68913e-05 -3.73017e-07 0 1.69962e-05 -1.23637e-07 0 1.69962e-05 1.23637e-07 0 1.68913e-05 3.73017e-07 0 1.66799e-05 6.28307e-07 0 1.63594e-05 8.92217e-07 0 1.59262e-05 1.16531e-06 0 1.53767e-05 1.44442e-06 0 1.47092e-05 1.72042e-06 0 1.39263e-05 1.97576e-06 0 1.30388e-05 2.18418e-06 0 1.20719e-05 2.30928e-06 0 1.10681e-05 2.31736e-06 0 1.00816e-05 2.18219e-06 0 9.16016e-06 1.87454e-06 0 8.29249e-06 1.31496e-06 0 7.14984e-06 3.65386e-07 0 5.03338e-06 8.07283e-08 0 5.25386e-06 -1.48389e-06 0 6.48073e-06 -1.78263e-06 0 7.64434e-06 -2.342e-06 0 8.72499e-06 -2.86446e-06 0 9.83652e-06 -3.2313e-06 0 1.10024e-05 -3.40366e-06 0 1.21687e-05 -3.37119e-06 0 1.32591e-05 -3.1639e-06 0 1.42223e-05 -2.83959e-06 0 1.50412e-05 -2.45685e-06 0 1.5718e-05 -2.05352e-06 0 1.62624e-05 -1.65211e-06 0 1.66846e-05 -1.26293e-06 0 1.69934e-05 -8.88644e-07 0 1.71956e-05 -5.27379e-07 0 1.72956e-05 -1.74777e-07 0 1.72956e-05 1.74777e-07 0 1.71956e-05 5.27379e-07 0 1.69934e-05 8.88644e-07 0 1.66846e-05 1.26293e-06 0 1.62624e-05 1.65211e-06 0 1.5718e-05 2.05352e-06 0 1.50412e-05 2.45685e-06 0 1.42223e-05 2.83959e-06 0 1.32591e-05 3.1639e-06 0 1.21687e-05 3.37119e-06 0 1.10024e-05 3.40366e-06 0 9.83652e-06 3.2313e-06 0 8.72499e-06 2.86446e-06 0 7.64434e-06 2.342e-06 0 6.48073e-06 1.78263e-06 0 5.25386e-06 1.48389e-06 0 5.02391e-06 -2.49411e-06 0 6.00738e-06 -2.90806e-06 0 7.08229e-06 -3.45297e-06 0 8.23952e-06 -4.01773e-06 0 9.52373e-06 -4.47731e-06 0 1.09324e-05 -4.70329e-06 0 1.2347e-05 -4.61342e-06 0 1.36127e-05 -4.25875e-06 0 1.46658e-05 -3.75996e-06 0 1.55158e-05 -3.21081e-06 0 1.61917e-05 -2.65864e-06 0 1.67204e-05 -2.1254e-06 0 1.71226e-05 -1.61803e-06 0 1.7413e-05 -1.13558e-06 0 1.76016e-05 -6.72938e-07 0 1.76945e-05 -2.22866e-07 0 1.76945e-05 2.22866e-07 0 1.76016e-05 6.72938e-07 0 1.7413e-05 1.13558e-06 0 1.71226e-05 1.61803e-06 0 1.67204e-05 2.1254e-06 0 1.61917e-05 2.65864e-06 0 1.55158e-05 3.21081e-06 0 1.46658e-05 3.75996e-06 0 1.36127e-05 4.25875e-06 0 1.2347e-05 4.61342e-06 0 1.09324e-05 4.70329e-06 0 9.52373e-06 4.47731e-06 0 8.23952e-06 4.01773e-06 0 7.08229e-06 3.45297e-06 0 6.00738e-06 2.90806e-06 0 5.02391e-06 2.49411e-06 0 4.61477e-06 -3.33713e-06 0 5.46085e-06 -3.88313e-06 0 6.44875e-06 -4.54605e-06 0 7.61908e-06 -5.27458e-06 0 9.0624e-06 -5.95952e-06 0 1.08473e-05 -6.35017e-06 0 1.26967e-05 -6.13181e-06 0 1.41902e-05 -5.48861e-06 0 1.53142e-05 -4.72487e-06 0 1.61639e-05 -3.96331e-06 0 1.68114e-05 -3.24246e-06 0 1.73038e-05 -2.57154e-06 0 1.76715e-05 -1.94757e-06 0 1.79338e-05 -1.36244e-06 0 1.81028e-05 -8.05853e-07 0 1.81857e-05 -2.66654e-07 0 1.81857e-05 2.66654e-07 0 1.81028e-05 8.05853e-07 0 1.79338e-05 1.36244e-06 0 1.76715e-05 1.94757e-06 0 1.73038e-05 2.57154e-06 0 1.68114e-05 3.24246e-06 0 1.61639e-05 3.96331e-06 0 1.53142e-05 4.72487e-06 0 1.41902e-05 5.48861e-06 0 1.26967e-05 6.13181e-06 0 1.08473e-05 6.35017e-06 0 9.0624e-06 5.95952e-06 0 7.61908e-06 5.27458e-06 0 6.44875e-06 4.54605e-06 0 5.46085e-06 3.88313e-06 0 4.61477e-06 3.33713e-06 0 4.06712e-06 -4.05148e-06 0 4.77915e-06 -4.73297e-06 0 5.64212e-06 -5.56613e-06 0 6.72914e-06 -6.55487e-06 0 8.20766e-06 -7.68467e-06 0 1.05847e-05 -8.79759e-06 0 1.35116e-05 -8.04225e-06 0 1.51458e-05 -6.80549e-06 0 1.62357e-05 -5.67726e-06 0 1.7014e-05 -4.67069e-06 0 1.75874e-05 -3.77451e-06 0 1.80142e-05 -2.96996e-06 0 1.83286e-05 -2.238e-06 0 1.85509e-05 -1.56071e-06 0 1.86935e-05 -9.21455e-07 0 1.87632e-05 -3.04652e-07 0 1.87632e-05 3.04652e-07 0 1.86935e-05 9.21455e-07 0 1.85509e-05 1.56071e-06 0 1.83286e-05 2.238e-06 0 1.80142e-05 2.96996e-06 0 1.75874e-05 3.77451e-06 0 1.7014e-05 4.67069e-06 0 1.62357e-05 5.67726e-06 0 1.51458e-05 6.80549e-06 0 1.35116e-05 8.04225e-06 0 1.05847e-05 8.79759e-06 0 8.20766e-06 7.68467e-06 0 6.72914e-06 6.55487e-06 0 5.64212e-06 5.56613e-06 0 4.77915e-06 4.73297e-06 0 4.06712e-06 4.05148e-06 0 3.40248e-06 -4.62894e-06 0 3.95312e-06 -5.4288e-06 0 4.62508e-06 -6.42829e-06 0 5.48237e-06 -7.68623e-06 0 6.64807e-06 -9.31403e-06 0 8.29091e-06 -1.16301e-05 0 1.00625e-05 -9.92203e-06 0 1.13292e-05 -7.99825e-06 0 1.21911e-05 -6.50335e-06 0 1.28004e-05 -5.26711e-06 0 1.32449e-05 -4.21496e-06 0 1.35737e-05 -3.29603e-06 0 1.38151e-05 -2.47407e-06 0 1.39857e-05 -1.72126e-06 0 1.40951e-05 -1.01487e-06 0 1.41486e-05 -3.35333e-07 0 1.41486e-05 3.35333e-07 0 1.40951e-05 1.01487e-06 0 1.39857e-05 1.72126e-06 0 1.38151e-05 2.47407e-06 0 1.35737e-05 3.29603e-06 0 1.32449e-05 4.21496e-06 0 1.28004e-05 5.26711e-06 0 1.21911e-05 6.50335e-06 0 1.13292e-05 7.99825e-06 0 1.00625e-05 9.92203e-06 0 8.29091e-06 1.16301e-05 0 6.64807e-06 9.31403e-06 0 5.48237e-06 7.68623e-06 0 4.62508e-06 6.42829e-06 0 3.95312e-06 5.4288e-06 0 3.40248e-06 4.62894e-06 0 2.65061e-06 -5.04913e-06 0 3.01097e-06 -5.92733e-06 0 3.43243e-06 -7.03854e-06 0 3.94292e-06 -8.47063e-06 0 4.58237e-06 -1.03638e-05 0 5.3586e-06 -1.29275e-05 0 6.15203e-06 -1.10502e-05 0 6.80441e-06 -8.80457e-06 0 7.28931e-06 -7.07615e-06 0 7.64735e-06 -5.6839e-06 0 7.9163e-06 -4.52447e-06 0 8.12016e-06 -3.52654e-06 0 8.27291e-06 -2.64197e-06 0 8.3826e-06 -1.83603e-06 0 8.45374e-06 -1.08191e-06 0 8.48878e-06 -3.57393e-07 0 8.48878e-06 3.57393e-07 0 8.45374e-06 1.08191e-06 0 8.3826e-06 1.83603e-06 0 8.27291e-06 2.64197e-06 0 8.12016e-06 3.52654e-06 0 7.9163e-06 4.52447e-06 0 7.64735e-06 5.6839e-06 0 7.28931e-06 7.07615e-06 0 6.80441e-06 8.80457e-06 0 6.15203e-06 1.10502e-05 0 5.3586e-06 1.29275e-05 0 4.58237e-06 1.03638e-05 0 3.94292e-06 8.47063e-06 0 3.43243e-06 7.03854e-06 0 3.01097e-06 5.92733e-06 0 2.65061e-06 5.04913e-06 0 1.85336e-06 -5.29677e-06 0 2.01018e-06 -6.19747e-06 0 2.15406e-06 -7.33611e-06 0 2.27291e-06 -8.80665e-06 0 2.35403e-06 -1.07493e-05 0 2.39391e-06 -1.33446e-05 0 2.41703e-06 -1.143e-05 0 2.45408e-06 -9.11122e-06 0 2.51133e-06 -7.31696e-06 0 2.57992e-06 -5.87451e-06 0 2.65038e-06 -4.67618e-06 0 2.71605e-06 -3.64594e-06 0 2.77256e-06 -2.73266e-06 0 2.81703e-06 -1.89991e-06 0 2.84761e-06 -1.11995e-06 0 2.86317e-06 -3.70029e-07 0 2.86317e-06 3.70029e-07 0 2.84761e-06 1.11995e-06 0 2.81703e-06 1.89991e-06 0 2.77256e-06 2.73266e-06 0 2.71605e-06 3.64594e-06 0 2.65038e-06 4.67618e-06 0 2.57992e-06 5.87451e-06 0 2.51133e-06 7.31696e-06 0 2.45408e-06 9.11122e-06 0 2.41703e-06 1.143e-05 0 2.39391e-06 1.33446e-05 0 2.35403e-06 1.07493e-05 0 2.27291e-06 8.80665e-06 0 2.15406e-06 7.33611e-06 0 2.01018e-06 6.19747e-06 0 1.85336e-06 5.29677e-06 0 1.05921e-06 -5.37143e-06 0 1.02187e-06 -6.23497e-06 0 9.0018e-07 -7.30982e-06 0 6.41128e-07 -8.67832e-06 0 1.696e-07 -1.04808e-05 0 -5.42437e-07 -1.29681e-05 0 -1.296e-06 -1.10977e-05 0 -1.87818e-06 -8.90315e-06 0 -2.2379e-06 -7.20875e-06 0 -2.44915e-06 -5.82801e-06 0 -2.5707e-06 -4.66394e-06 0 -2.63902e-06 -3.6509e-06 0 -2.67601e-06 -2.7444e-06 0 -2.69495e-06 -1.91202e-06 0 -2.70384e-06 -1.12858e-06 0 -2.70724e-06 -3.73128e-07 0 -2.70724e-06 3.73128e-07 0 -2.70384e-06 1.12858e-06 0 -2.69495e-06 1.91202e-06 0 -2.67601e-06 2.7444e-06 0 -2.63902e-06 3.6509e-06 0 -2.5707e-06 4.66394e-06 0 -2.44915e-06 5.82801e-06 0 -2.2379e-06 7.20875e-06 0 -1.87818e-06 8.90315e-06 0 -1.296e-06 1.10977e-05 0 -5.42437e-07 1.29681e-05 0 1.696e-07 1.04808e-05 0 6.41128e-07 8.67832e-06 0 9.0018e-07 7.30982e-06 0 1.02187e-06 6.23497e-06 0 1.05921e-06 5.37143e-06 0 3.1192e-07 -5.28986e-06 0 1.11551e-07 -6.06527e-06 0 -2.26085e-07 -6.99769e-06 0 -7.87262e-07 -8.13247e-06 0 -1.73527e-06 -9.55043e-06 0 -3.4227e-06 -1.15272e-05 0 -5.45846e-06 -9.97864e-06 0 -6.62233e-06 -8.22028e-06 0 -7.31741e-06 -6.79151e-06 0 -7.7529e-06 -5.57063e-06 0 -8.03286e-06 -4.50374e-06 0 -8.21498e-06 -3.55121e-06 0 -8.33322e-06 -2.68322e-06 0 -8.40815e-06 -1.876e-06 0 -8.45224e-06 -1.10978e-06 0 -8.47265e-06 -3.67305e-07 0 -8.47265e-06 3.67305e-07 0 -8.45224e-06 1.10978e-06 0 -8.40815e-06 1.876e-06 0 -8.33322e-06 2.68322e-06 0 -8.21498e-06 3.55121e-06 0 -8.03286e-06 4.50374e-06 0 -7.7529e-06 5.57063e-06 0 -7.31741e-06 6.79151e-06 0 -6.62233e-06 8.22028e-06 0 -5.45846e-06 9.97864e-06 0 -3.4227e-06 1.15272e-05 0 -1.73527e-06 9.55043e-06 0 -7.87262e-07 8.13247e-06 0 -2.26085e-07 6.99769e-06 0 1.11551e-07 6.06527e-06 0 3.1192e-07 5.28986e-06 0 -3.45945e-07 -5.08447e-06 0 -6.58502e-07 -5.74084e-06 0 -1.12666e-06 -6.48789e-06 0 -1.83466e-06 -7.32008e-06 0 -2.93421e-06 -8.18902e-06 0 -4.75642e-06 -8.79145e-06 0 -6.94351e-06 -8.29486e-06 0 -8.24848e-06 -7.24143e-06 0 -9.08408e-06 -6.16976e-06 0 -9.64218e-06 -5.16248e-06 0 -1.00228e-05 -4.23096e-06 0 -1.02843e-05 -3.3682e-06 0 -1.04628e-05 -2.56212e-06 0 -1.05809e-05 -1.79959e-06 0 -1.06528e-05 -1.06764e-06 0 -1.06868e-05 -3.53856e-07 0 -1.06868e-05 3.53856e-07 0 -1.06528e-05 1.06764e-06 0 -1.05809e-05 1.79959e-06 0 -1.04628e-05 2.56212e-06 0 -1.02843e-05 3.3682e-06 0 -1.00228e-05 4.23096e-06 0 -9.64218e-06 5.16248e-06 0 -9.08408e-06 6.16976e-06 0 -8.24848e-06 7.24143e-06 0 -6.94351e-06 8.29486e-06 0 -4.75642e-06 8.79145e-06 0 -2.93421e-06 8.18902e-06 0 -1.83466e-06 7.32008e-06 0 -1.12666e-06 6.48789e-06 0 -6.58502e-07 5.74084e-06 0 -3.45945e-07 5.08447e-06 0 -9.09485e-07 -4.79412e-06 0 -1.28812e-06 -5.32415e-06 0 -1.81247e-06 -5.88775e-06 0 -2.53729e-06 -6.44943e-06 0 -3.5242e-06 -6.92088e-06 0 -4.77798e-06 -7.1293e-06 0 -6.10183e-06 -6.85673e-06 0 -7.19138e-06 -6.24094e-06 0 -8.00614e-06 -5.47524e-06 0 -8.59935e-06 -4.67628e-06 0 -9.02862e-06 -3.88876e-06 0 -9.33721e-06 -3.12843e-06 0 -9.55541e-06 -2.39764e-06 0 -9.70386e-06 -1.69279e-06 0 -9.79609e-06 -1.00756e-06 0 -9.84028e-06 -3.34474e-07 0 -9.84028e-06 3.34474e-07 0 -9.79609e-06 1.00756e-06 0 -9.70386e-06 1.69279e-06 0 -9.55541e-06 2.39764e-06 0 -9.33721e-06 3.12843e-06 0 -9.02862e-06 3.88876e-06 0 -8.59935e-06 4.67628e-06 0 -8.00614e-06 5.47524e-06 0 -7.19138e-06 6.24094e-06 0 -6.10183e-06 6.85673e-06 0 -4.77798e-06 7.1293e-06 0 -3.5242e-06 6.92088e-06 0 -2.53729e-06 6.44943e-06 0 -1.81247e-06 5.88775e-06 0 -1.28812e-06 5.32415e-06 0 -9.09485e-07 4.79412e-06 0 -1.36543e-06 -4.45559e-06 0 -1.76838e-06 -4.87003e-06 0 -2.29129e-06 -5.28114e-06 0 -2.95995e-06 -5.65016e-06 0 -3.78622e-06 -5.91118e-06 0 -4.73674e-06 -5.97458e-06 0 -5.70207e-06 -5.78411e-06 0 -6.57803e-06 -5.36624e-06 0 -7.29943e-06 -4.80429e-06 0 -7.86585e-06 -4.17359e-06 0 -8.29909e-06 -3.51706e-06 0 -8.62375e-06 -2.858e-06 0 -8.86066e-06 -2.20671e-06 0 -9.02565e-06 -1.56615e-06 0 -9.12984e-06 -9.353e-07 0 -9.18024e-06 -3.10995e-07 0 -9.18024e-06 3.10995e-07 0 -9.12984e-06 9.353e-07 0 -9.02565e-06 1.56615e-06 0 -8.86066e-06 2.20671e-06 0 -8.62375e-06 2.858e-06 0 -8.29909e-06 3.51706e-06 0 -7.86585e-06 4.17359e-06 0 -7.29943e-06 4.80429e-06 0 -6.57803e-06 5.36624e-06 0 -5.70207e-06 5.78411e-06 0 -4.73674e-06 5.97458e-06 0 -3.78622e-06 5.91118e-06 0 -2.95995e-06 5.65016e-06 0 -2.29129e-06 5.28114e-06 0 -1.76838e-06 4.87003e-06 0 -1.36543e-06 4.45559e-06 0 -1.72763e-06 -4.09843e-06 0 -2.12868e-06 -4.41655e-06 0 -2.62235e-06 -4.71231e-06 0 -3.2175e-06 -4.95428e-06 0 -3.90904e-06 -5.10013e-06 0 -4.66674e-06 -5.1051e-06 0 -5.43468e-06 -4.94545e-06 0 -6.14958e-06 -4.63111e-06 0 -6.77126e-06 -4.19895e-06 0 -7.28607e-06 -3.69337e-06 0 -7.69788e-06 -3.14602e-06 0 -8.01765e-06 -2.57883e-06 0 -8.2575e-06 -2.00453e-06 0 -8.42799e-06 -1.42957e-06 0 -8.5372e-06 -8.56424e-07 0 -8.59047e-06 -2.85213e-07 0 -8.59047e-06 2.85213e-07 0 -8.5372e-06 8.56424e-07 0 -8.42799e-06 1.42957e-06 0 -8.2575e-06 2.00453e-06 0 -8.01765e-06 2.57883e-06 0 -7.69788e-06 3.14602e-06 0 -7.28607e-06 3.69337e-06 0 -6.77126e-06 4.19895e-06 0 -6.14958e-06 4.63111e-06 0 -5.43468e-06 4.94545e-06 0 -4.66674e-06 5.1051e-06 0 -3.90904e-06 5.10013e-06 0 -3.2175e-06 4.95428e-06 0 -2.62235e-06 4.71231e-06 0 -2.12868e-06 4.41655e-06 0 -1.72763e-06 4.09843e-06 0 -2.01646e-06 -3.7416e-06 0 -2.40202e-06 -3.98343e-06 0 -2.85684e-06 -4.19523e-06 0 -3.38127e-06 -4.35397e-06 0 -3.96573e-06 -4.43299e-06 0 -4.58736e-06 -4.40796e-06 0 -5.21292e-06 -4.26648e-06 0 -5.80584e-06 -4.01341e-06 0 -6.33872e-06 -3.66663e-06 0 -6.7967e-06 -3.25271e-06 0 -7.1759e-06 -2.79316e-06 0 -7.47907e-06 -2.30564e-06 0 -7.71185e-06 -1.80228e-06 0 -7.88027e-06 -1.29073e-06 0 -7.98949e-06 -7.75401e-07 0 -8.04316e-06 -2.5859e-07 0 -8.04316e-06 2.5859e-07 0 -7.98949e-06 7.75401e-07 0 -7.88027e-06 1.29073e-06 0 -7.71185e-06 1.80228e-06 0 -7.47907e-06 2.30564e-06 0 -7.1759e-06 2.79316e-06 0 -6.7967e-06 3.25271e-06 0 -6.33872e-06 3.66663e-06 0 -5.80584e-06 4.01341e-06 0 -5.21292e-06 4.26648e-06 0 -4.58736e-06 4.40796e-06 0 -3.96573e-06 4.43299e-06 0 -3.38127e-06 4.35397e-06 0 -2.85684e-06 4.19523e-06 0 -2.40202e-06 3.98343e-06 0 -2.01646e-06 3.7416e-06 0 -2.23437e-06 -3.3964e-06 0 -2.59703e-06 -3.57929e-06 0 -3.01148e-06 -3.73056e-06 0 -3.4749e-06 -3.83377e-06 0 -3.9779e-06 -3.87181e-06 0 -4.50368e-06 -3.83019e-06 0 -5.02968e-06 -3.70201e-06 0 -5.53248e-06 -3.48946e-06 0 -5.99243e-06 -3.20216e-06 0 -6.39672e-06 -2.85665e-06 0 -6.7393e-06 -2.46728e-06 0 -7.01907e-06 -2.04748e-06 0 -7.23776e-06 -1.60763e-06 0 -7.39822e-06 -1.15529e-06 0 -7.50334e-06 -6.95646e-07 0 -7.55532e-06 -2.32266e-07 0 -7.55532e-06 2.32266e-07 0 -7.50334e-06 6.95646e-07 0 -7.39822e-06 1.15529e-06 0 -7.23776e-06 1.60763e-06 0 -7.01907e-06 2.04748e-06 0 -6.7393e-06 2.46728e-06 0 -6.39672e-06 2.85665e-06 0 -5.99243e-06 3.20216e-06 0 -5.53248e-06 3.48946e-06 0 -5.02968e-06 3.70201e-06 0 -4.50368e-06 3.83019e-06 0 -3.9779e-06 3.87181e-06 0 -3.4749e-06 3.83377e-06 0 -3.01148e-06 3.73056e-06 0 -2.59703e-06 3.57929e-06 0 -2.23437e-06 3.3964e-06 0 -2.40548e-06 -3.06851e-06 0 -2.74345e-06 -3.20633e-06 0 -3.11992e-06 -3.31378e-06 0 -3.53096e-06 -3.37917e-06 0 -3.96832e-06 -3.39115e-06 0 -4.41946e-06 -3.34059e-06 0 -4.86875e-06 -3.22322e-06 0 -5.29997e-06 -3.04014e-06 0 -5.69885e-06 -2.79681e-06 0 -6.0549e-06 -2.50397e-06 0 -6.36171e-06 -2.17132e-06 0 -6.61632e-06 -1.80885e-06 0 -6.81817e-06 -1.42508e-06 0 -6.96798e-06 -1.02685e-06 0 -7.06693e-06 -6.19452e-07 0 -7.1161e-06 -2.07022e-07 0 -7.1161e-06 2.07022e-07 0 -7.06693e-06 6.19452e-07 0 -6.96798e-06 1.02685e-06 0 -6.81817e-06 1.42508e-06 0 -6.61632e-06 1.80885e-06 0 -6.36171e-06 2.17132e-06 0 -6.0549e-06 2.50397e-06 0 -5.69885e-06 2.79681e-06 0 -5.29997e-06 3.04014e-06 0 -4.86875e-06 3.22322e-06 0 -4.41946e-06 3.34059e-06 0 -3.96832e-06 3.39115e-06 0 -3.53096e-06 3.37917e-06 0 -3.11992e-06 3.31378e-06 0 -2.74345e-06 3.20633e-06 0 -2.40548e-06 3.06851e-06 0 -2.53777e-06 -2.76008e-06 0 -2.85135e-06 -2.86357e-06 0 -3.19357e-06 -2.93919e-06 0 -3.56031e-06 -2.97853e-06 0 -3.94462e-06 -2.97383e-06 0 -4.33694e-06 -2.919e-06 0 -4.72595e-06 -2.81125e-06 0 -5.0999e-06 -2.65116e-06 0 -5.44814e-06 -2.44196e-06 0 -5.76212e-06 -2.191e-06 0 -6.03584e-06 -1.90492e-06 0 -6.26567e-06 -1.5912e-06 0 -6.44982e-06 -1.2567e-06 0 -6.5877e-06 -9.0733e-07 0 -6.67937e-06 -5.48121e-07 0 -6.7251e-06 -1.83317e-07 0 -6.7251e-06 1.83317e-07 0 -6.67937e-06 5.48121e-07 0 -6.5877e-06 9.0733e-07 0 -6.44982e-06 1.2567e-06 0 -6.26567e-06 1.5912e-06 0 -6.03584e-06 1.90492e-06 0 -5.76212e-06 2.191e-06 0 -5.44814e-06 2.44196e-06 0 -5.0999e-06 2.65116e-06 0 -4.72595e-06 2.81125e-06 0 -4.33694e-06 2.919e-06 0 -3.94462e-06 2.97383e-06 0 -3.56031e-06 2.97853e-06 0 -3.19357e-06 2.93919e-06 0 -2.85135e-06 2.86357e-06 0 -2.53777e-06 2.76008e-06 0 -2.63731e-06 -2.47129e-06 0 -2.92813e-06 -2.54861e-06 0 -3.24042e-06 -2.60096e-06 0 -3.57031e-06 -2.62223e-06 0 -3.91196e-06 -2.60694e-06 0 -4.25788e-06 -2.55088e-06 0 -4.59945e-06 -2.45216e-06 0 -4.92777e-06 -2.31107e-06 0 -5.23455e-06 -2.12965e-06 0 -5.51281e-06 -1.91306e-06 0 -5.75721e-06 -1.66602e-06 0 -5.96403e-06 -1.39417e-06 0 -6.13098e-06 -1.10297e-06 0 -6.25677e-06 -7.97491e-07 0 -6.34081e-06 -4.82264e-07 0 -6.38285e-06 -1.61379e-07 0 -6.38285e-06 1.61379e-07 0 -6.34081e-06 4.82264e-07 0 -6.25677e-06 7.97491e-07 0 -6.13098e-06 1.10297e-06 0 -5.96403e-06 1.39417e-06 0 -5.75721e-06 1.66602e-06 0 -5.51281e-06 1.91306e-06 0 -5.23455e-06 2.12965e-06 0 -4.92777e-06 2.31107e-06 0 -4.59945e-06 2.45216e-06 0 -4.25788e-06 2.55088e-06 0 -3.91196e-06 2.60694e-06 0 -3.57031e-06 2.62223e-06 0 -3.24042e-06 2.60096e-06 0 -2.92813e-06 2.54861e-06 0 -2.63731e-06 2.47129e-06 0 -2.71488e-06 -2.20125e-06 0 -2.98484e-06 -2.25861e-06 0 -3.27081e-06 -2.29396e-06 0 -3.56923e-06 -2.30276e-06 0 -3.87523e-06 -2.28105e-06 0 -4.18282e-06 -2.22586e-06 0 -4.48529e-06 -2.13585e-06 0 -4.77571e-06 -2.01117e-06 0 -5.04754e-06 -1.85317e-06 0 -5.29502e-06 -1.66561e-06 0 -5.51348e-06 -1.45191e-06 0 -5.69939e-06 -1.21638e-06 0 -5.85027e-06 -9.63424e-07 0 -5.9645e-06 -6.97283e-07 0 -6.04109e-06 -4.21972e-07 0 -6.0795e-06 -1.41257e-07 0 -6.0795e-06 1.41257e-07 0 -6.04109e-06 4.21972e-07 0 -5.9645e-06 6.97283e-07 0 -5.85027e-06 9.63424e-07 0 -5.69939e-06 1.21638e-06 0 -5.51348e-06 1.45191e-06 0 -5.29502e-06 1.66561e-06 0 -5.04754e-06 1.85317e-06 0 -4.77571e-06 2.01117e-06 0 -4.48529e-06 2.13585e-06 0 -4.18282e-06 2.22586e-06 0 -3.87523e-06 2.28105e-06 0 -3.56923e-06 2.30276e-06 0 -3.27081e-06 2.29396e-06 0 -2.98484e-06 2.25861e-06 0 -2.71488e-06 2.20125e-06 0 -2.77304e-06 -1.94851e-06 0 -3.02448e-06 -1.9907e-06 0 -3.28786e-06 -2.01367e-06 0 -3.55996e-06 -2.01404e-06 0 -3.83667e-06 -1.98888e-06 0 -4.1131e-06 -1.93604e-06 0 -4.38384e-06 -1.85456e-06 0 -4.64335e-06 -1.74452e-06 0 -4.88631e-06 -1.60685e-06 0 -5.10792e-06 -1.44438e-06 0 -5.30414e-06 -1.25965e-06 0 -5.47171e-06 -1.05601e-06 0 -5.60819e-06 -8.37004e-07 0 -5.71185e-06 -6.06177e-07 0 -5.78153e-06 -3.67015e-07 0 -5.81653e-06 -1.22893e-07 0 -5.81653e-06 1.22893e-07 0 -5.78153e-06 3.67015e-07 0 -5.71185e-06 6.06177e-07 0 -5.60819e-06 8.37004e-07 0 -5.47171e-06 1.05601e-06 0 -5.30414e-06 1.25965e-06 0 -5.10792e-06 1.44438e-06 0 -4.88631e-06 1.60685e-06 0 -4.64335e-06 1.74452e-06 0 -4.38384e-06 1.85456e-06 0 -4.1131e-06 1.93604e-06 0 -3.83667e-06 1.98888e-06 0 -3.55996e-06 2.01404e-06 0 -3.28786e-06 2.01367e-06 0 -3.02448e-06 1.9907e-06 0 -2.77304e-06 1.94851e-06 0 -2.81692e-06 -1.71135e-06 0 -3.05208e-06 -1.74201e-06 0 -3.29605e-06 -1.75606e-06 0 -3.54598e-06 -1.75093e-06 0 -3.79834e-06 -1.72446e-06 0 -4.04903e-06 -1.67503e-06 0 -4.29364e-06 -1.60196e-06 0 -4.5276e-06 -1.50532e-06 0 -4.74651e-06 -1.38575e-06 0 -4.94632e-06 -1.24544e-06 0 -5.12351e-06 -1.08631e-06 0 -5.27516e-06 -9.10992e-07 0 -5.39896e-06 -7.22354e-07 0 -5.49319e-06 -5.23352e-07 0 -5.55664e-06 -3.16965e-07 0 -5.58854e-06 -1.06152e-07 0 -5.58854e-06 1.06152e-07 0 -5.55664e-06 3.16965e-07 0 -5.49319e-06 5.23352e-07 0 -5.39896e-06 7.22354e-07 0 -5.27516e-06 9.10992e-07 0 -5.12351e-06 1.08631e-06 0 -4.94632e-06 1.24544e-06 0 -4.74651e-06 1.38575e-06 0 -4.5276e-06 1.50532e-06 0 -4.29364e-06 1.60196e-06 0 -4.04903e-06 1.67503e-06 0 -3.79834e-06 1.72446e-06 0 -3.54598e-06 1.75093e-06 0 -3.29605e-06 1.75606e-06 0 -3.05208e-06 1.74201e-06 0 -2.81692e-06 1.71135e-06 0 -2.85049e-06 -1.48803e-06 0 -3.07133e-06 -1.50999e-06 0 -3.29857e-06 -1.51774e-06 0 -3.52962e-06 -1.50932e-06 0 -3.76145e-06 -1.48309e-06 0 -3.99059e-06 -1.43786e-06 0 -4.21332e-06 -1.37313e-06 0 -4.42586e-06 -1.28895e-06 0 -4.6245e-06 -1.1858e-06 0 -4.8058e-06 -1.06539e-06 0 -4.96669e-06 -9.29197e-07 0 -5.10455e-06 -7.79318e-07 0 -5.21726e-06 -6.18065e-07 0 -5.30316e-06 -4.47889e-07 0 -5.36107e-06 -2.7131e-07 0 -5.39021e-06 -9.08706e-08 0 -5.39021e-06 9.08706e-08 0 -5.36107e-06 2.7131e-07 0 -5.30316e-06 4.47889e-07 0 -5.21726e-06 6.18065e-07 0 -5.10455e-06 7.79318e-07 0 -4.96669e-06 9.29197e-07 0 -4.8058e-06 1.06539e-06 0 -4.6245e-06 1.1858e-06 0 -4.42586e-06 1.28895e-06 0 -4.21332e-06 1.37313e-06 0 -3.99059e-06 1.43786e-06 0 -3.76145e-06 1.48309e-06 0 -3.52962e-06 1.50932e-06 0 -3.29857e-06 1.51774e-06 0 -3.07133e-06 1.50999e-06 0 -2.85049e-06 1.48803e-06 0 -2.87452e-06 -1.27678e-06 0 -3.08331e-06 -1.29222e-06 0 -3.29668e-06 -1.29566e-06 0 -3.51231e-06 -1.2856e-06 0 -3.72751e-06 -1.26079e-06 0 -3.93927e-06 -1.22033e-06 0 -4.14443e-06 -1.16386e-06 0 -4.33972e-06 -1.09145e-06 0 -4.52198e-06 -1.00343e-06 0 -4.68822e-06 -9.01172e-07 0 -4.83574e-06 -7.85819e-07 0 -4.96219e-06 -6.59039e-07 0 -5.06564e-06 -5.227e-07 0 -5.14454e-06 -3.78816e-07 0 -5.19776e-06 -2.29488e-07 0 -5.22456e-06 -7.68671e-08 0 -5.22456e-06 7.68671e-08 0 -5.19776e-06 2.29488e-07 0 -5.14454e-06 3.78816e-07 0 -5.06564e-06 5.227e-07 0 -4.96219e-06 6.59039e-07 0 -4.83574e-06 7.85819e-07 0 -4.68822e-06 9.01172e-07 0 -4.52198e-06 1.00343e-06 0 -4.33972e-06 1.09145e-06 0 -4.14443e-06 1.16386e-06 0 -3.93927e-06 1.22033e-06 0 -3.72751e-06 1.26079e-06 0 -3.51231e-06 1.2856e-06 0 -3.29668e-06 1.29566e-06 0 -3.08331e-06 1.29222e-06 0 -2.87452e-06 1.27678e-06 0 -2.89252e-06 -1.07585e-06 0 -3.09103e-06 -1.08648e-06 0 -3.29269e-06 -1.08714e-06 0 -3.4954e-06 -1.07667e-06 0 -3.69675e-06 -1.05414e-06 0 -3.89411e-06 -1.01888e-06 0 -4.08471e-06 -9.70621e-07 0 -4.26572e-06 -9.09419e-07 0 -4.43438e-06 -8.35546e-07 0 -4.58806e-06 -7.50071e-07 0 -4.72438e-06 -6.53891e-07 0 -4.84124e-06 -5.48327e-07 0 -4.93685e-06 -4.34875e-07 0 -5.00981e-06 -3.1517e-07 0 -5.05903e-06 -1.90936e-07 0 -5.08382e-06 -6.39555e-08 0 -5.08382e-06 6.39555e-08 0 -5.05903e-06 1.90936e-07 0 -5.00981e-06 3.1517e-07 0 -4.93685e-06 4.34875e-07 0 -4.84124e-06 5.48327e-07 0 -4.72438e-06 6.53891e-07 0 -4.58806e-06 7.50071e-07 0 -4.43438e-06 8.35546e-07 0 -4.26572e-06 9.09419e-07 0 -4.08471e-06 9.70621e-07 0 -3.89411e-06 1.01888e-06 0 -3.69675e-06 1.05414e-06 0 -3.4954e-06 1.07667e-06 0 -3.29269e-06 1.08714e-06 0 -3.09103e-06 1.08648e-06 0 -2.89252e-06 1.07585e-06 0 -2.90558e-06 -8.83642e-07 0 -3.09556e-06 -8.90776e-07 0 -3.28762e-06 -8.89812e-07 0 -3.47979e-06 -8.79885e-07 0 -3.66991e-06 -8.60294e-07 0 -3.85563e-06 -8.30536e-07 0 -4.03447e-06 -7.90423e-07 0 -4.20395e-06 -7.40008e-07 0 -4.36161e-06 -6.795e-07 0 -4.50511e-06 -6.09733e-07 0 -4.63232e-06 -5.31402e-07 0 -4.74134e-06 -4.45539e-07 0 -4.83053e-06 -3.53324e-07 0 -4.89859e-06 -2.56058e-07 0 -4.94451e-06 -1.55124e-07 0 -4.96764e-06 -5.19598e-08 0 -4.96764e-06 5.19598e-08 0 -4.94451e-06 1.55124e-07 0 -4.89859e-06 2.56058e-07 0 -4.83053e-06 3.53324e-07 0 -4.74134e-06 4.45539e-07 0 -4.63232e-06 5.31402e-07 0 -4.50511e-06 6.09733e-07 0 -4.36161e-06 6.795e-07 0 -4.20395e-06 7.40008e-07 0 -4.03447e-06 7.90423e-07 0 -3.85563e-06 8.30536e-07 0 -3.66991e-06 8.60294e-07 0 -3.47979e-06 8.79885e-07 0 -3.28762e-06 8.89812e-07 0 -3.09556e-06 8.90776e-07 0 -2.90558e-06 8.83642e-07 0 -2.91459e-06 -6.98547e-07 0 -3.09784e-06 -7.03177e-07 0 -3.28236e-06 -7.01469e-07 0 -3.46632e-06 -6.92785e-07 0 -3.64772e-06 -6.76611e-07 0 -3.82443e-06 -6.5258e-07 0 -3.99419e-06 -6.20562e-07 0 -4.15475e-06 -5.80603e-07 0 -4.3039e-06 -5.32861e-07 0 -4.43951e-06 -4.77972e-07 0 -4.55964e-06 -4.16459e-07 0 -4.66254e-06 -3.49108e-07 0 -4.74671e-06 -2.76824e-07 0 -4.81093e-06 -2.00606e-07 0 -4.85426e-06 -1.21527e-07 0 -4.87608e-06 -4.07058e-08 0 -4.87608e-06 4.07058e-08 0 -4.85426e-06 1.21527e-07 0 -4.81093e-06 2.00606e-07 0 -4.74671e-06 2.76824e-07 0 -4.66254e-06 3.49108e-07 0 -4.55964e-06 4.16459e-07 0 -4.43951e-06 4.77972e-07 0 -4.3039e-06 5.32861e-07 0 -4.15475e-06 5.80603e-07 0 -3.99419e-06 6.20562e-07 0 -3.82443e-06 6.5258e-07 0 -3.64772e-06 6.76611e-07 0 -3.46632e-06 6.92785e-07 0 -3.28236e-06 7.01469e-07 0 -3.09784e-06 7.03177e-07 0 -2.91459e-06 6.98547e-07 0 -2.92093e-06 -5.19068e-07 0 -3.09893e-06 -5.21936e-07 0 -3.27759e-06 -5.20132e-07 0 -3.4552e-06 -5.13206e-07 0 -3.62988e-06 -5.00798e-07 0 -3.79964e-06 -4.82653e-07 0 -3.96242e-06 -4.58684e-07 0 -4.11613e-06 -4.28927e-07 0 -4.25873e-06 -3.93498e-07 0 -4.38826e-06 -3.52855e-07 0 -4.50293e-06 -3.07375e-07 0 -4.6011e-06 -2.57626e-07 0 -4.68138e-06 -2.04263e-07 0 -4.74262e-06 -1.48015e-07 0 -4.78394e-06 -8.96642e-08 0 -4.80475e-06 -3.00329e-08 0 -4.80475e-06 3.00329e-08 0 -4.78394e-06 8.96642e-08 0 -4.74262e-06 1.48015e-07 0 -4.68138e-06 2.04263e-07 0 -4.6011e-06 2.57626e-07 0 -4.50293e-06 3.07375e-07 0 -4.38826e-06 3.52855e-07 0 -4.25873e-06 3.93498e-07 0 -4.11613e-06 4.28927e-07 0 -3.96242e-06 4.58684e-07 0 -3.79964e-06 4.82653e-07 0 -3.62988e-06 5.00798e-07 0 -3.4552e-06 5.13206e-07 0 -3.27759e-06 5.20132e-07 0 -3.09893e-06 5.21936e-07 0 -2.92093e-06 5.19068e-07 0 -2.92492e-06 -3.43762e-07 0 -3.09927e-06 -3.45397e-07 0 -3.2739e-06 -3.43954e-07 0 -3.44714e-06 -3.39147e-07 0 -3.61721e-06 -3.3075e-07 0 -3.78223e-06 -3.18598e-07 0 -3.94023e-06 -3.0264e-07 0 -4.08925e-06 -2.82902e-07 0 -4.22738e-06 -2.59457e-07 0 -4.35275e-06 -2.32606e-07 0 -4.46368e-06 -2.02591e-07 0 -4.55861e-06 -1.69781e-07 0 -4.63622e-06 -1.34603e-07 0 -4.69541e-06 -9.75319e-08 0 -4.73534e-06 -5.9081e-08 0 -4.75545e-06 -1.97889e-08 0 -4.75545e-06 1.97889e-08 0 -4.73534e-06 5.9081e-08 0 -4.69541e-06 9.75319e-08 0 -4.63622e-06 1.34603e-07 0 -4.55861e-06 1.69781e-07 0 -4.46368e-06 2.02591e-07 0 -4.35275e-06 2.32606e-07 0 -4.22738e-06 2.59457e-07 0 -4.08925e-06 2.82902e-07 0 -3.94023e-06 3.0264e-07 0 -3.78223e-06 3.18598e-07 0 -3.61721e-06 3.3075e-07 0 -3.44714e-06 3.39147e-07 0 -3.2739e-06 3.43954e-07 0 -3.09927e-06 3.45397e-07 0 -2.92492e-06 3.43762e-07 0 -2.92713e-06 -1.71193e-07 0 -3.09933e-06 -1.71927e-07 0 -3.27156e-06 -1.71135e-07 0 -3.44222e-06 -1.68675e-07 0 -3.60957e-06 -1.64439e-07 0 -3.77178e-06 -1.58348e-07 0 -3.92696e-06 -1.50375e-07 0 -4.07322e-06 -1.40536e-07 0 -4.2087e-06 -1.28866e-07 0 -4.33163e-06 -1.15513e-07 0 -4.44034e-06 -1.00597e-07 0 -4.53335e-06 -8.42987e-08 0 -4.60938e-06 -6.68287e-08 0 -4.66736e-06 -4.84218e-08 0 -4.70647e-06 -2.93315e-08 0 -4.72617e-06 -9.82432e-09 0 -4.72617e-06 9.82432e-09 0 -4.70647e-06 2.93315e-08 0 -4.66736e-06 4.84218e-08 0 -4.60938e-06 6.68287e-08 0 -4.53335e-06 8.42987e-08 0 -4.44034e-06 1.00597e-07 0 -4.33163e-06 1.15513e-07 0 -4.2087e-06 1.28866e-07 0 -4.07322e-06 1.40536e-07 0 -3.92696e-06 1.50375e-07 0 -3.77178e-06 1.58348e-07 0 -3.60957e-06 1.64439e-07 0 -3.44222e-06 1.68675e-07 0 -3.27156e-06 1.71135e-07 0 -3.09933e-06 1.71927e-07 0 -2.92713e-06 1.71193e-07 0 -2.92794e-06 -0 0 -3.09932e-06 -0 0 -3.27065e-06 -0 0 -3.44034e-06 -0 0 -3.60667e-06 -0 0 -3.76783e-06 -0 0 -3.92195e-06 -0 0 -4.06718e-06 -0 0 -4.20167e-06 -0 0 -4.32367e-06 -0 0 -4.43155e-06 -0 0 -4.52385e-06 -0 0 -4.59929e-06 -0 0 -4.65681e-06 -0 0 -4.69561e-06 -0 0 -4.71516e-06 -0 0 -4.71516e-06 -0 0 -4.69561e-06 -0 0 -4.65681e-06 -0 0 -4.59929e-06 -0 0 -4.52385e-06 -0 0 -4.43155e-06 -0 0 -4.32367e-06 -0 0 -4.20167e-06 -0 0 -4.06718e-06 -0 0 -3.92195e-06 -0 0 -3.76783e-06 -0 0 -3.60667e-06 -0 0 -3.44034e-06 -0 0 -3.27065e-06 -0 0 -3.09932e-06 -0 0 -2.92794e-06 -0 0 </DataArray> 
</PointData> 
<Points> 
<DataArray type="Float32" NumberOfComponents="3"> 