<?xml version="1.0"?> 
<VTKFile type="StructuredGrid" version="0.1"> 
<StructuredGrid WholeExtent="0 31 0 31 0 0"> 
<Piece Extent="0 31 0 31 0 0"> 
<PointData>
<DataArray type="Float32" Name="B" format="ascii" NumberOfComponents="3"> 
1.29567e-05 -0 0 1.37334e-05 -0 0 1.4511e-05 -0 0 1.52821e-05 -0 0 1.60389e-05 -0 0 1.6773e-05 -0 0 1.74757e-05 -0 0 1.81384e-05 -0 0 1.87525e-05 -0 0 1.931e-05 -0 0 1.98032e-05 -0 0 2.02254e-05 -0 0 2.05705e-05 -0 0 2.08338e-05 -0 0 2.10114e-05 -0 0 2.11009e-05 -0 0 2.11009e-05 -0 0 2.10114e-05 -0 0 2.08338e-05 -0 0 2.05705e-05 -0 0 2.02254e-05 -0 0 1.98032e-05 -0 0 1.931e-05 -0 0 1.87525e-05 -0 0 1.81384e-05 -0 0 1.74757e-05 -0 0 1.6773e-05 -0 0 1.60389e-05 -0 0 1.52821e-05 -0 0 1.4511e-05 -0 0 1.37334e-05 -0 0 1.29567e-05 -0 0 1.29524e-05 -7.75283e-07 0 1.37328e-05 -7.79777e-07 0 1.45145e-05 -7.77255e-07 0 1.52902e-05 -7.67053e-07 0 1.60517e-05 -7.48642e-07 0 1.67906e-05 -7.21645e-07 0 1.74982e-05 -6.85933e-07 0 1.81657e-05 -6.4156e-07 0 1.87844e-05 -5.88689e-07 0 1.93462e-05 -5.27999e-07 0 1.98433e-05 -4.60043e-07 0 2.02688e-05 -3.85662e-07 0 2.06167e-05 -3.05833e-07 0 2.0882e-05 -2.21647e-07 0 2.10611e-05 -1.34283e-07 0 2.11513e-05 -4.49803e-08 0 2.11513e-05 4.49803e-08 0 2.10611e-05 1.34283e-07 0 2.0882e-05 2.21647e-07 0 2.06167e-05 3.05833e-07 0 2.02688e-05 3.85662e-07 0 1.98433e-05 4.60043e-07 0 1.93462e-05 5.27999e-07 0 1.87844e-05 5.88689e-07 0 1.81657e-05 6.4156e-07 0 1.74982e-05 6.85933e-07 0 1.67906e-05 7.21645e-07 0 1.60517e-05 7.48642e-07 0 1.52902e-05 7.67053e-07 0 1.45145e-05 7.77255e-07 0 1.37328e-05 7.79777e-07 0 1.29524e-05 7.75283e-07 0 1.29405e-05 -1.55687e-06 0 1.37309e-05 -1.56664e-06 0 1.45236e-05 -1.56228e-06 0 1.53112e-05 -1.5424e-06 0 1.60853e-05 -1.50594e-06 0 1.68372e-05 -1.45211e-06 0 1.75579e-05 -1.38063e-06 0 1.82382e-05 -1.29162e-06 0 1.88692e-05 -1.18539e-06 0 1.94423e-05 -1.06334e-06 0 1.99497e-05 -9.2658e-07 0 2.03841e-05 -7.76828e-07 0 2.07394e-05 -6.16063e-07 0 2.10104e-05 -4.46495e-07 0 2.11933e-05 -2.7051e-07 0 2.12854e-05 -9.06128e-08 0 2.12854e-05 9.06128e-08 0 2.11933e-05 2.7051e-07 0 2.10104e-05 4.46495e-07 0 2.07394e-05 6.16063e-07 0 2.03841e-05 7.76828e-07 0 1.99497e-05 9.2658e-07 0 1.94423e-05 1.06334e-06 0 1.88692e-05 1.18539e-06 0 1.82382e-05 1.29162e-06 0 1.75579e-05 1.38063e-06 0 1.68372e-05 1.45211e-06 0 1.60853e-05 1.50594e-06 0 1.53112e-05 1.5424e-06 0 1.45236e-05 1.56228e-06 0 1.37309e-05 1.56664e-06 0 1.29405e-05 1.55687e-06 0 1.29194e-05 -2.35098e-06 0 1.37264e-05 -2.36762e-06 0 1.45378e-05 -2.36278e-06 0 1.53455e-05 -2.33432e-06 0 1.61409e-05 -2.28054e-06 0 1.69148e-05 -2.2002e-06 0 1.76576e-05 -2.09286e-06 0 1.83597e-05 -1.95867e-06 0 1.90115e-05 -1.79812e-06 0 1.9604e-05 -1.61335e-06 0 2.01287e-05 -1.40609e-06 0 2.05782e-05 -1.17898e-06 0 2.09459e-05 -9.35065e-07 0 2.12264e-05 -6.77728e-07 0 2.14158e-05 -4.10615e-07 0 2.15111e-05 -1.37545e-07 0 2.15111e-05 1.37545e-07 0 2.14158e-05 4.10615e-07 0 2.12264e-05 6.77728e-07 0 2.09459e-05 9.35065e-07 0 2.05782e-05 1.17898e-06 0 2.01287e-05 1.40609e-06 0 1.9604e-05 1.61335e-06 0 1.90115e-05 1.79812e-06 0 1.83597e-05 1.95867e-06 0 1.76576e-05 2.09286e-06 0 1.69148e-05 2.2002e-06 0 1.61409e-05 2.28054e-06 0 1.53455e-05 2.33432e-06 0 1.45378e-05 2.36278e-06 0 1.37264e-05 2.36762e-06 0 1.29194e-05 2.35098e-06 0 1.28862e-05 -3.16421e-06 0 1.37173e-05 -3.1902e-06 0 1.45556e-05 -3.18706e-06 0 1.53926e-05 -3.15175e-06 0 1.62192e-05 -3.08183e-06 0 1.70252e-05 -2.97552e-06 0 1.78004e-05 -2.83217e-06 0 1.85343e-05 -2.65196e-06 0 1.92166e-05 -2.43559e-06 0 1.98373e-05 -2.18599e-06 0 2.03875e-05 -1.90559e-06 0 2.08589e-05 -1.59805e-06 0 2.12447e-05 -1.26755e-06 0 2.15391e-05 -9.18766e-07 0 2.17378e-05 -5.5667e-07 0 2.18378e-05 -1.86472e-07 0 2.18378e-05 1.86472e-07 0 2.17378e-05 5.5667e-07 0 2.15391e-05 9.18766e-07 0 2.12447e-05 1.26755e-06 0 2.08589e-05 1.59805e-06 0 2.03875e-05 1.90559e-06 0 1.98373e-05 2.18599e-06 0 1.92166e-05 2.43559e-06 0 1.85343e-05 2.65196e-06 0 1.78004e-05 2.83217e-06 0 1.70252e-05 2.97552e-06 0 1.62192e-05 3.08183e-06 0 1.53926e-05 3.15175e-06 0 1.45556e-05 3.18706e-06 0 1.37173e-05 3.1902e-06 0 1.28862e-05 3.16421e-06 0 1.28394e-05 -4.00314e-06 0 1.37015e-05 -4.04201e-06 0 1.45745e-05 -4.04365e-06 0 1.54494e-05 -4.00395e-06 0 1.63163e-05 -3.91957e-06 0 1.71641e-05 -3.78808e-06 0 1.79815e-05 -3.60854e-06 0 1.87568e-05 -3.38116e-06 0 1.94786e-05 -3.10687e-06 0 2.01361e-05 -2.78953e-06 0 2.07191e-05 -2.43235e-06 0 2.1219e-05 -2.04013e-06 0 2.16282e-05 -1.61837e-06 0 2.19404e-05 -1.17311e-06 0 2.21512e-05 -7.10791e-07 0 2.22573e-05 -2.38102e-07 0 2.22573e-05 2.38102e-07 0 2.21512e-05 7.10791e-07 0 2.19404e-05 1.17311e-06 0 2.16282e-05 1.61837e-06 0 2.1219e-05 2.04013e-06 0 2.07191e-05 2.43235e-06 0 2.01361e-05 2.78953e-06 0 1.94786e-05 3.10687e-06 0 1.87568e-05 3.38116e-06 0 1.79815e-05 3.60854e-06 0 1.71641e-05 3.78808e-06 0 1.63163e-05 3.91957e-06 0 1.54494e-05 4.00395e-06 0 1.45745e-05 4.04365e-06 0 1.37015e-05 4.04201e-06 0 1.28394e-05 4.00314e-06 0 1.27726e-05 -4.87463e-06 0 1.36738e-05 -4.9311e-06 0 1.45911e-05 -4.94168e-06 0 1.55147e-05 -4.90094e-06 0 1.64335e-05 -4.80441e-06 0 1.73354e-05 -4.64884e-06 0 1.82073e-05 -4.43293e-06 0 1.90362e-05 -4.15688e-06 0 1.98092e-05 -3.8219e-06 0 2.05139e-05 -3.43296e-06 0 2.11394e-05 -2.99421e-06 0 2.16758e-05 -2.51179e-06 0 2.21148e-05 -1.99268e-06 0 2.24498e-05 -1.44448e-06 0 2.26759e-05 -8.75216e-07 0 2.27898e-05 -2.9318e-07 0 2.27898e-05 2.9318e-07 0 2.26759e-05 8.75216e-07 0 2.24498e-05 1.44448e-06 0 2.21148e-05 1.99268e-06 0 2.16758e-05 2.51179e-06 0 2.11394e-05 2.99421e-06 0 2.05139e-05 3.43296e-06 0 1.98092e-05 3.8219e-06 0 1.90362e-05 4.15688e-06 0 1.82073e-05 4.43293e-06 0 1.73354e-05 4.64884e-06 0 1.64335e-05 4.80441e-06 0 1.55147e-05 4.90094e-06 0 1.45911e-05 4.94168e-06 0 1.36738e-05 4.9311e-06 0 1.27726e-05 4.87463e-06 0 1.26815e-05 -5.78602e-06 0 1.36298e-05 -5.86631e-06 0 1.4601e-05 -5.89138e-06 0 1.55844e-05 -5.85409e-06 0 1.65674e-05 -5.74856e-06 0 1.75361e-05 -5.57044e-06 0 1.84757e-05 -5.31794e-06 0 1.9371e-05 -4.99127e-06 0 2.02073e-05 -4.59202e-06 0 2.09705e-05 -4.12647e-06 0 2.1648e-05 -3.59998e-06 0 2.22291e-05 -3.02031e-06 0 2.27045e-05 -2.39617e-06 0 2.30672e-05 -1.73693e-06 0 2.33119e-05 -1.05238e-06 0 2.34351e-05 -3.52517e-07 0 2.34351e-05 3.52517e-07 0 2.33119e-05 1.05238e-06 0 2.30672e-05 1.73693e-06 0 2.27045e-05 2.39617e-06 0 2.22291e-05 3.02031e-06 0 2.1648e-05 3.59998e-06 0 2.09705e-05 4.12647e-06 0 2.02073e-05 4.59202e-06 0 1.9371e-05 4.99127e-06 0 1.84757e-05 5.31794e-06 0 1.75361e-05 5.57044e-06 0 1.65674e-05 5.74856e-06 0 1.55844e-05 5.85409e-06 0 1.4601e-05 5.89138e-06 0 1.36298e-05 5.86631e-06 0 1.26815e-05 5.78602e-06 0 1.2561e-05 -6.74469e-06 0 1.35646e-05 -6.85684e-06 0 1.45997e-05 -6.90363e-06 0 1.56544e-05 -6.87573e-06 0 1.67145e-05 -6.76536e-06 0 1.77639e-05 -6.56676e-06 0 1.87853e-05 -6.27746e-06 0 1.97608e-05 -5.89768e-06 0 2.06733e-05 -5.42954e-06 0 2.15067e-05 -4.88103e-06 0 2.22465e-05 -4.25904e-06 0 2.28806e-05 -3.57334e-06 0 2.33991e-05 -2.83473e-06 0 2.37944e-05 -2.05462e-06 0 2.40608e-05 -1.24474e-06 0 2.41949e-05 -4.16929e-07 0 2.41949e-05 4.16929e-07 0 2.40608e-05 1.24474e-06 0 2.37944e-05 2.05462e-06 0 2.33991e-05 2.83473e-06 0 2.28806e-05 3.57334e-06 0 2.22465e-05 4.25904e-06 0 2.15067e-05 4.88103e-06 0 2.06733e-05 5.42954e-06 0 1.97608e-05 5.89768e-06 0 1.87853e-05 6.27746e-06 0 1.77639e-05 6.56676e-06 0 1.67145e-05 6.76536e-06 0 1.56544e-05 6.87573e-06 0 1.45997e-05 6.90363e-06 0 1.35646e-05 6.85684e-06 0 1.2561e-05 6.74469e-06 0 1.23943e-05 -7.75853e-06 0 1.34636e-05 -7.91293e-06 0 1.45759e-05 -7.99093e-06 0 1.5718e-05 -7.98029e-06 0 1.68733e-05 -7.87068e-06 0 1.8023e-05 -7.6544e-06 0 1.91461e-05 -7.32806e-06 0 2.02215e-05 -6.89194e-06 0 2.12284e-05 -6.34895e-06 0 2.21479e-05 -5.70932e-06 0 2.29637e-05 -4.98202e-06 0 2.3662e-05 -4.17939e-06 0 2.42321e-05 -3.31478e-06 0 2.4666e-05 -2.402e-06 0 2.49582e-05 -1.45491e-06 0 2.51051e-05 -4.87275e-07 0 2.51051e-05 4.87275e-07 0 2.49582e-05 1.45491e-06 0 2.4666e-05 2.402e-06 0 2.42321e-05 3.31478e-06 0 2.3662e-05 4.17939e-06 0 2.29637e-05 4.98202e-06 0 2.21479e-05 5.70932e-06 0 2.12284e-05 6.34895e-06 0 2.02215e-05 6.89194e-06 0 1.91461e-05 7.32806e-06 0 1.8023e-05 7.6544e-06 0 1.68733e-05 7.87068e-06 0 1.5718e-05 7.98029e-06 0 1.45759e-05 7.99093e-06 0 1.34636e-05 7.91293e-06 0 1.23943e-05 7.75853e-06 0 1.2178e-05 -8.83561e-06 0 1.3322e-05 -9.0457e-06 0 1.45238e-05 -9.16739e-06 0 1.57686e-05 -9.18449e-06 0 1.70371e-05 -9.08316e-06 0 1.83064e-05 -8.853e-06 0 1.95513e-05 -8.48935e-06 0 2.07458e-05 -7.9926e-06 0 2.18649e-05 -7.36691e-06 0 2.2886e-05 -6.62562e-06 0 2.37903e-05 -5.78058e-06 0 2.45627e-05 -4.84753e-06 0 2.51918e-05 -3.84299e-06 0 2.56695e-05 -2.78357e-06 0 2.59906e-05 -1.68549e-06 0 2.61519e-05 -5.64396e-07 0 2.61519e-05 5.64396e-07 0 2.59906e-05 1.68549e-06 0 2.56695e-05 2.78357e-06 0 2.51918e-05 3.84299e-06 0 2.45627e-05 4.84753e-06 0 2.37903e-05 5.78058e-06 0 2.2886e-05 6.62562e-06 0 2.18649e-05 7.36691e-06 0 2.07458e-05 7.9926e-06 0 1.95513e-05 8.48935e-06 0 1.83064e-05 8.853e-06 0 1.70371e-05 9.08316e-06 0 1.57686e-05 9.18449e-06 0 1.45238e-05 9.16739e-06 0 1.3322e-05 9.0457e-06 0 1.2178e-05 8.83561e-06 0 1.18931e-05 -9.98386e-06 0 1.31221e-05 -1.0267e-05 0 1.44281e-05 -1.04487e-05 0 1.57949e-05 -1.05076e-05 0 1.71996e-05 -1.04247e-05 0 1.86142e-05 -1.01859e-05 0 2.00071e-05 -9.78449e-06 0 2.13459e-05 -9.2213e-06 0 2.25996e-05 -8.50246e-06 0 2.37414e-05 -7.64574e-06 0 2.47493e-05 -6.66716e-06 0 2.5607e-05 -5.58702e-06 0 2.6303e-05 -4.42586e-06 0 2.68297e-05 -3.20356e-06 0 2.71828e-05 -1.9388e-06 0 2.73599e-05 -6.49041e-07 0 2.73599e-05 6.49041e-07 0 2.71828e-05 1.9388e-06 0 2.68297e-05 3.20356e-06 0 2.6303e-05 4.42586e-06 0 2.5607e-05 5.58702e-06 0 2.47493e-05 6.66716e-06 0 2.37414e-05 7.64574e-06 0 2.25996e-05 8.50246e-06 0 2.13459e-05 9.2213e-06 0 2.00071e-05 9.78449e-06 0 1.86142e-05 1.01859e-05 0 1.71996e-05 1.04247e-05 0 1.57949e-05 1.05076e-05 0 1.44281e-05 1.04487e-05 0 1.31221e-05 1.0267e-05 0 1.18931e-05 9.98386e-06 0 1.15154e-05 -1.1211e-05 0 1.28398e-05 -1.15898e-05 0 1.42675e-05 -1.18537e-05 0 1.57803e-05 -1.19737e-05 0 1.7351e-05 -1.19234e-05 0 1.89446e-05 -1.1683e-05 0 2.05202e-05 -1.12432e-05 0 2.2036e-05 -1.06052e-05 0 2.3453e-05 -9.77876e-06 0 2.47383e-05 -8.78811e-06 0 2.58671e-05 -7.65548e-06 0 2.68219e-05 -6.40742e-06 0 2.75924e-05 -5.06962e-06 0 2.81727e-05 -3.6657e-06 0 2.85602e-05 -2.21679e-06 0 2.87541e-05 -7.41801e-07 0 2.87541e-05 7.41801e-07 0 2.85602e-05 2.21679e-06 0 2.81727e-05 3.6657e-06 0 2.75924e-05 5.06962e-06 0 2.68219e-05 6.40742e-06 0 2.58671e-05 7.65548e-06 0 2.47383e-05 8.78811e-06 0 2.3453e-05 9.77876e-06 0 2.2036e-05 1.06052e-05 0 2.05202e-05 1.12432e-05 0 1.89446e-05 1.1683e-05 0 1.7351e-05 1.19234e-05 0 1.57803e-05 1.19737e-05 0 1.42675e-05 1.18537e-05 0 1.28398e-05 1.15898e-05 0 1.15154e-05 1.1211e-05 0 1.10326e-05 -1.25235e-05 0 1.24612e-05 -1.30275e-05 0 1.4027e-05 -1.34034e-05 0 1.57111e-05 -1.36111e-05 0 1.74809e-05 -1.36135e-05 0 1.92913e-05 -1.33816e-05 0 2.10889e-05 -1.29019e-05 0 2.28182e-05 -1.21771e-05 0 2.4429e-05 -1.12224e-05 0 2.5881e-05 -1.00726e-05 0 2.71463e-05 -8.75905e-06 0 2.8208e-05 -7.31713e-06 0 2.90581e-05 -5.77894e-06 0 2.96941e-05 -4.17227e-06 0 3.01167e-05 -2.5204e-06 0 3.03275e-05 -8.42921e-07 0 3.03275e-05 8.42921e-07 0 3.01167e-05 2.5204e-06 0 2.96941e-05 4.17227e-06 0 2.90581e-05 5.77894e-06 0 2.8208e-05 7.31713e-06 0 2.71463e-05 8.75905e-06 0 2.5881e-05 1.00726e-05 0 2.4429e-05 1.12224e-05 0 2.28182e-05 1.21771e-05 0 2.10889e-05 1.29019e-05 0 1.92913e-05 1.33816e-05 0 1.74809e-05 1.36135e-05 0 1.57111e-05 1.36111e-05 0 1.4027e-05 1.34034e-05 0 1.24612e-05 1.30275e-05 0 1.10326e-05 1.25235e-05 0 1.03936e-05 -1.39249e-05 0 1.19334e-05 -1.4593e-05 0 1.36575e-05 -1.51217e-05 0 1.55477e-05 -1.54552e-05 0 1.75654e-05 -1.55393e-05 0 1.96513e-05 -1.53305e-05 0 2.17316e-05 -1.48083e-05 0 2.37293e-05 -1.39778e-05 0 2.55771e-05 -1.28648e-05 0 2.72255e-05 -1.15204e-05 0 2.86447e-05 -9.99041e-06 0 2.98211e-05 -8.32221e-06 0 3.07527e-05 -6.55585e-06 0 3.14434e-05 -4.72327e-06 0 3.18993e-05 -2.84906e-06 0 3.21256e-05 -9.52108e-07 0 3.21256e-05 9.52108e-07 0 3.18993e-05 2.84906e-06 0 3.14434e-05 4.72327e-06 0 3.07527e-05 6.55585e-06 0 2.98211e-05 8.32221e-06 0 2.86447e-05 9.99041e-06 0 2.72255e-05 1.15204e-05 0 2.55771e-05 1.28648e-05 0 2.37293e-05 1.39778e-05 0 2.17316e-05 1.48083e-05 0 1.96513e-05 1.53305e-05 0 1.75654e-05 1.55393e-05 0 1.55477e-05 1.54552e-05 0 1.36575e-05 1.51217e-05 0 1.19334e-05 1.4593e-05 0 1.03936e-05 1.39249e-05 0 9.56945e-06 -1.54138e-05 0 1.12213e-05 -1.62971e-05 0 1.31207e-05 -1.70357e-05 0 1.5255e-05 -1.75512e-05 0 1.75801e-05 -1.7762e-05 0 2.00164e-05 -1.75987e-05 0 2.24571e-05 -1.70284e-05 0 2.47909e-05 -1.60613e-05 0 2.69248e-05 -1.47434e-05 0 2.87984e-05 -1.31531e-05 0 3.03837e-05 -1.13588e-05 0 3.16761e-05 -9.42388e-06 0 3.26846e-05 -7.39746e-06 0 3.34234e-05 -5.31472e-06 0 3.39069e-05 -3.19963e-06 0 3.41457e-05 -1.0682e-06 0 3.41457e-05 1.0682e-06 0 3.39069e-05 3.19963e-06 0 3.34234e-05 5.31472e-06 0 3.26846e-05 7.39746e-06 0 3.16761e-05 9.42388e-06 0 3.03837e-05 1.13588e-05 0 2.87984e-05 1.31531e-05 0 2.69248e-05 1.47434e-05 0 2.47909e-05 1.60613e-05 0 2.24571e-05 1.70284e-05 0 2.00164e-05 1.75987e-05 0 1.75801e-05 1.7762e-05 0 1.5255e-05 1.75512e-05 0 1.31207e-05 1.70357e-05 0 1.12213e-05 1.62971e-05 0 9.56945e-06 1.54138e-05 0 8.52238e-06 -1.69792e-05 0 1.02769e-05 -1.81437e-05 0 1.23623e-05 -1.9172e-05 0 1.47812e-05 -1.9954e-05 0 1.74885e-05 -2.03627e-05 0 2.03759e-05 -2.02816e-05 0 2.32855e-05 -1.96514e-05 0 2.60432e-05 -1.84952e-05 0 2.85191e-05 -1.68985e-05 0 3.06432e-05 -1.49876e-05 0 3.23978e-05 -1.28651e-05 0 3.37971e-05 -1.06147e-05 0 3.48688e-05 -8.29349e-06 0 3.56425e-05 -5.93715e-06 0 3.61433e-05 -3.5657e-06 0 3.63892e-05 -1.18895e-06 0 3.63892e-05 1.18895e-06 0 3.61433e-05 3.5657e-06 0 3.56425e-05 5.93715e-06 0 3.48688e-05 8.29349e-06 0 3.37971e-05 1.06147e-05 0 3.23978e-05 1.28651e-05 0 3.06432e-05 1.49876e-05 0 2.85191e-05 1.68985e-05 0 2.60432e-05 1.84952e-05 0 2.32855e-05 1.96514e-05 0 2.03759e-05 2.02816e-05 0 1.74885e-05 2.03627e-05 0 1.47812e-05 1.9954e-05 0 1.23623e-05 1.9172e-05 0 1.02769e-05 1.81437e-05 0 8.52238e-06 1.69792e-05 0 7.13751e-06 -1.85931e-05 0 8.95838e-06 -2.01215e-05 0 1.12216e-05 -2.15513e-05 0 1.39704e-05 -2.27323e-05 0 1.71815e-05 -2.34624e-05 0 2.07112e-05 -2.35275e-05 0 2.42933e-05 -2.28143e-05 0 2.76262e-05 -2.137e-05 0 3.05188e-05 -1.9371e-05 0 3.29073e-05 -1.70289e-05 0 3.4811e-05 -1.44947e-05 0 3.62838e-05 -1.18724e-05 0 3.73844e-05 -9.22185e-06 0 3.81642e-05 -6.57286e-06 0 3.86624e-05 -3.93602e-06 0 3.8905e-05 -1.31052e-06 0 3.8905e-05 1.31052e-06 0 3.86624e-05 3.93602e-06 0 3.81642e-05 6.57286e-06 0 3.73844e-05 9.22185e-06 0 3.62838e-05 1.18724e-05 0 3.4811e-05 1.44947e-05 0 3.29073e-05 1.70289e-05 0 3.05188e-05 1.9371e-05 0 2.76262e-05 2.137e-05 0 2.42933e-05 2.28143e-05 0 2.07112e-05 2.35275e-05 0 1.71815e-05 2.34624e-05 0 1.39704e-05 2.27323e-05 0 1.12216e-05 2.15513e-05 0 8.95838e-06 2.01215e-05 0 7.13751e-06 1.85931e-05 0 5.40318e-06 -2.02006e-05 0 7.22455e-06 -2.21883e-05 0 9.61866e-06 -2.41694e-05 0 1.27099e-05 -2.59588e-05 0 1.6556e-05 -2.72414e-05 0 2.09986e-05 -2.75887e-05 0 2.55152e-05 -2.6732e-05 0 2.96091e-05 -2.47977e-05 0 3.29696e-05 -2.21844e-05 0 3.55962e-05 -1.92517e-05 0 3.75947e-05 -1.62043e-05 0 3.9084e-05 -1.31528e-05 0 4.01649e-05 -1.01452e-05 0 4.0914e-05 -7.19435e-06 0 4.13852e-05 -4.29399e-06 0 4.16126e-05 -1.42736e-06 0 4.16126e-05 1.42736e-06 0 4.13852e-05 4.29399e-06 0 4.0914e-05 7.19435e-06 0 4.01649e-05 1.01452e-05 0 3.9084e-05 1.31528e-05 0 3.75947e-05 1.62043e-05 0 3.55962e-05 1.92517e-05 0 3.29696e-05 2.21844e-05 0 2.96091e-05 2.47977e-05 0 2.55152e-05 2.6732e-05 0 2.09986e-05 2.75887e-05 0 1.6556e-05 2.72414e-05 0 1.27099e-05 2.59588e-05 0 9.61866e-06 2.41694e-05 0 7.22455e-06 2.21883e-05 0 5.40318e-06 2.02006e-05 0 3.22252e-06 -2.171e-05 0 4.91798e-06 -2.4249e-05 0 7.30906e-06 -2.69588e-05 0 1.06587e-05 -2.967e-05 0 1.52627e-05 -3.19605e-05 0 2.1145e-05 -3.30041e-05 0 2.73657e-05 -3.17586e-05 0 3.24703e-05 -2.8883e-05 0 3.62668e-05 -2.53021e-05 0 3.90116e-05 -2.15731e-05 0 4.0982e-05 -1.79092e-05 0 4.23864e-05 -1.43846e-05 0 4.33712e-05 -1.10092e-05 0 4.40361e-05 -7.76429e-06 0 4.44466e-05 -4.61788e-06 0 4.46425e-05 -1.53237e-06 0 4.46425e-05 1.53237e-06 0 4.44466e-05 4.61788e-06 0 4.40361e-05 7.76429e-06 0 4.33712e-05 1.10092e-05 0 4.23864e-05 1.43846e-05 0 4.0982e-05 1.79092e-05 0 3.90116e-05 2.15731e-05 0 3.62668e-05 2.53021e-05 0 3.24703e-05 2.8883e-05 0 2.73657e-05 3.17586e-05 0 2.1145e-05 3.30041e-05 0 1.52627e-05 3.19605e-05 0 1.06587e-05 2.967e-05 0 7.30906e-06 2.69588e-05 0 4.91798e-06 2.4249e-05 0 3.22252e-06 2.171e-05 0 5.29703e-07 -2.2979e-05 0 1.89833e-06 -2.61203e-05 0 4.0097e-06 -2.97066e-05 0 7.2676e-06 -3.37117e-05 0 1.23987e-05 -3.79045e-05 0 2.09879e-05 -4.08351e-05 0 3.13252e-05 -3.85218e-05 0 3.74475e-05 -3.35583e-05 0 4.13313e-05 -2.85213e-05 0 4.38964e-05 -2.38051e-05 0 4.56232e-05 -1.94635e-05 0 4.67931e-05 -1.54617e-05 0 4.75799e-05 -1.17404e-05 0 4.80936e-05 -8.23466e-06 0 4.8403e-05 -4.88068e-06 0 4.85483e-05 -1.61684e-06 0 4.85483e-05 1.61684e-06 0 4.8403e-05 4.88068e-06 0 4.80936e-05 8.23466e-06 0 4.75799e-05 1.17404e-05 0 4.67931e-05 1.54617e-05 0 4.56232e-05 1.94635e-05 0 4.38964e-05 2.38051e-05 0 4.13313e-05 2.85213e-05 0 3.74475e-05 3.35583e-05 0 3.13252e-05 3.85218e-05 0 2.09879e-05 4.08351e-05 0 1.23987e-05 3.79045e-05 0 7.2676e-06 3.37117e-05 0 4.0097e-06 2.97066e-05 0 1.89833e-06 2.61203e-05 0 5.29703e-07 2.2979e-05 0 -2.61189e-06 -2.38304e-05 0 -1.79161e-06 -2.7539e-05 0 -3.16352e-07 -3.20108e-05 0 2.22718e-06 -3.74628e-05 0 6.62066e-06 -4.42822e-05 0 1.45516e-05 -5.37885e-05 0 2.41508e-05 -4.64465e-05 0 2.95837e-05 -3.81166e-05 0 3.27809e-05 -3.13793e-05 0 3.47458e-05 -2.56516e-05 0 3.59787e-05 -2.06749e-05 0 3.67578e-05 -1.62581e-05 0 3.72477e-05 -1.22566e-05 0 3.7548e-05 -8.55428e-06 0 3.77196e-05 -5.05435e-06 0 3.77975e-05 -1.67183e-06 0 3.77975e-05 1.67183e-06 0 3.77196e-05 5.05435e-06 0 3.7548e-05 8.55428e-06 0 3.72477e-05 1.22566e-05 0 3.67578e-05 1.62581e-05 0 3.59787e-05 2.06749e-05 0 3.47458e-05 2.56516e-05 0 3.27809e-05 3.13793e-05 0 2.95837e-05 3.81166e-05 0 2.41508e-05 4.64465e-05 0 1.45516e-05 5.37885e-05 0 6.62066e-06 4.42822e-05 0 2.22718e-06 3.74628e-05 0 -3.16352e-07 3.20108e-05 0 -1.79161e-06 2.7539e-05 0 -2.61189e-06 2.38304e-05 0 -6.17857e-06 -2.4077e-05 0 -6.15089e-06 -2.82054e-05 0 -5.72087e-06 -3.33573e-05 0 -4.63513e-06 -3.99262e-05 0 -2.53455e-06 -4.85844e-05 0 7.15531e-07 -6.05329e-05 0 4.16501e-06 -5.16544e-05 0 6.79807e-06 -4.12431e-05 0 8.37379e-06 -3.32435e-05 0 9.24951e-06 -2.67624e-05 0 9.70969e-06 -2.13349e-05 0 9.93151e-06 -1.66451e-05 0 1.00221e-05 -1.24775e-05 0 1.00466e-05 -8.67449e-06 0 1.00444e-05 -5.11271e-06 0 1.00382e-05 -1.68908e-06 0 1.00382e-05 1.68908e-06 0 1.00444e-05 5.11271e-06 0 1.00466e-05 8.67449e-06 0 1.00221e-05 1.24775e-05 0 9.93151e-06 1.66451e-05 0 9.70969e-06 2.13349e-05 0 9.24951e-06 2.67624e-05 0 8.37379e-06 3.32435e-05 0 6.79807e-06 4.12431e-05 0 4.16501e-06 5.16544e-05 0 7.15531e-07 6.05329e-05 0 -2.53455e-06 4.85844e-05 0 -4.63513e-06 3.99262e-05 0 -5.72087e-06 3.33573e-05 0 -6.15089e-06 2.82054e-05 0 -6.17857e-06 2.4077e-05 0 -9.9678e-06 -2.35626e-05 0 -1.08822e-05 -2.78683e-05 0 -1.17345e-05 -3.33244e-05 0 -1.24687e-05 -4.03793e-05 0 -1.30258e-05 -4.97054e-05 0 -1.33893e-05 -6.21694e-05 0 -1.36743e-05 -5.308e-05 0 -1.40239e-05 -4.20793e-05 0 -1.44636e-05 -3.36108e-05 0 -1.49462e-05 -2.68472e-05 0 -1.54223e-05 -2.1272e-05 0 -1.58566e-05 -1.65187e-05 0 -1.62255e-05 -1.23397e-05 0 -1.65135e-05 -8.5573e-06 0 -1.67105e-05 -5.0355e-06 0 -1.68104e-05 -1.66224e-06 0 -1.68104e-05 1.66224e-06 0 -1.67105e-05 5.0355e-06 0 -1.65135e-05 8.5573e-06 0 -1.62255e-05 1.23397e-05 0 -1.58566e-05 1.65187e-05 0 -1.54223e-05 2.1272e-05 0 -1.49462e-05 2.68472e-05 0 -1.44636e-05 3.36108e-05 0 -1.40239e-05 4.20793e-05 0 -1.36743e-05 5.308e-05 0 -1.33893e-05 6.21694e-05 0 -1.30258e-05 4.97054e-05 0 -1.24687e-05 4.03793e-05 0 -1.17345e-05 3.33244e-05 0 -1.08822e-05 2.78683e-05 0 -9.9678e-06 2.35626e-05 0 -1.37726e-05 -2.22055e-05 0 -1.56738e-05 -2.64064e-05 0 -1.78637e-05 -3.17314e-05 0 -2.04815e-05 -3.85987e-05 0 -2.37233e-05 -4.76821e-05 0 -2.76279e-05 -5.99898e-05 0 -3.16205e-05 -5.10772e-05 0 -3.49387e-05 -4.04303e-05 0 -3.74494e-05 -3.22861e-05 0 -3.93405e-05 -2.57771e-05 0 -4.07873e-05 -2.04068e-05 0 -4.19002e-05 -1.58301e-05 0 -4.27435e-05 -1.18128e-05 0 -4.33537e-05 -8.18445e-06 0 -4.37515e-05 -4.81291e-06 0 -4.39479e-05 -1.58821e-06 0 -4.39479e-05 1.58821e-06 0 -4.37515e-05 4.81291e-06 0 -4.33537e-05 8.18445e-06 0 -4.27435e-05 1.18128e-05 0 -4.19002e-05 1.58301e-05 0 -4.07873e-05 2.04068e-05 0 -3.93405e-05 2.57771e-05 0 -3.74494e-05 3.22861e-05 0 -3.49387e-05 4.04303e-05 0 -3.16205e-05 5.10772e-05 0 -2.76279e-05 5.99898e-05 0 -2.37233e-05 4.76821e-05 0 -2.04815e-05 3.85987e-05 0 -1.78637e-05 3.17314e-05 0 -1.56738e-05 2.64064e-05 0 -1.37726e-05 2.22055e-05 0 -1.73671e-05 -2.00069e-05 0 -2.01893e-05 -2.38433e-05 0 -2.35806e-05 -2.86364e-05 0 -2.78619e-05 -3.46633e-05 0 -3.36336e-05 -4.24647e-05 0 -4.17053e-05 -5.35762e-05 0 -5.04055e-05 -4.54676e-05 0 -5.66947e-05 -3.63622e-05 0 -6.10406e-05 -2.93454e-05 0 -6.41634e-05 -2.36e-05 0 -6.6475e-05 -1.87655e-05 0 -6.82061e-05 -1.4593e-05 0 -6.94894e-05 -1.09037e-05 0 -7.04023e-05 -7.55929e-06 0 -7.09902e-05 -4.44642e-06 0 -7.12785e-05 -1.4674e-06 0 -7.12785e-05 1.4674e-06 0 -7.09902e-05 4.44642e-06 0 -7.04023e-05 7.55929e-06 0 -6.94894e-05 1.09037e-05 0 -6.82061e-05 1.4593e-05 0 -6.6475e-05 1.87655e-05 0 -6.41634e-05 2.36e-05 0 -6.10406e-05 2.93454e-05 0 -5.66947e-05 3.63622e-05 0 -5.04055e-05 4.54676e-05 0 -4.17053e-05 5.35762e-05 0 -3.36336e-05 4.24647e-05 0 -2.78619e-05 3.46633e-05 0 -2.35806e-05 2.86364e-05 0 -2.01893e-05 2.38433e-05 0 -1.73671e-05 2.00069e-05 0 -2.05649e-05 -1.70389e-05 0 -2.41617e-05 -2.0337e-05 0 -2.84533e-05 -2.43409e-05 0 -3.38257e-05 -2.90637e-05 0 -4.11038e-05 -3.44566e-05 0 -5.27149e-05 -3.979e-05 0 -6.698e-05 -3.62265e-05 0 -7.50693e-05 -3.04083e-05 0 -8.05473e-05 -2.51581e-05 0 -8.45146e-05 -2.05332e-05 0 -8.74732e-05 -1.64729e-05 0 -8.96969e-05 -1.28796e-05 0 -9.13462e-05 -9.65462e-06 0 -9.25183e-05 -6.70586e-06 0 -9.32722e-05 -3.94844e-06 0 -9.36414e-05 -1.30363e-06 0 -9.36414e-05 1.30363e-06 0 -9.32722e-05 3.94844e-06 0 -9.25183e-05 6.70586e-06 0 -9.13462e-05 9.65462e-06 0 -8.96969e-05 1.28796e-05 0 -8.74732e-05 1.64729e-05 0 -8.45146e-05 2.05332e-05 0 -8.05473e-05 2.51581e-05 0 -7.50693e-05 3.04083e-05 0 -6.698e-05 3.62265e-05 0 -5.27149e-05 3.979e-05 0 -4.11038e-05 3.44566e-05 0 -3.38257e-05 2.90637e-05 0 -2.84533e-05 2.43409e-05 0 -2.41617e-05 2.0337e-05 0 -2.05649e-05 1.70389e-05 0 -2.32577e-05 -1.33998e-05 0 -2.74742e-05 -1.61201e-05 0 -3.23073e-05 -1.932e-05 0 -3.80459e-05 -2.2757e-05 0 -4.51649e-05 -2.59674e-05 0 -5.3984e-05 -2.78043e-05 0 -6.31508e-05 -2.67893e-05 0 -7.06257e-05 -2.38112e-05 0 -7.63202e-05 -2.03225e-05 0 -8.06738e-05 -1.68989e-05 0 -8.40219e-05 -1.37136e-05 0 -8.65851e-05 -1.07991e-05 0 -8.85073e-05 -8.13105e-06 0 -8.9882e-05 -5.66276e-06 0 -9.07691e-05 -3.33929e-06 0 -9.12044e-05 -1.10327e-06 0 -9.12044e-05 1.10327e-06 0 -9.07691e-05 3.33929e-06 0 -8.9882e-05 5.66276e-06 0 -8.85073e-05 8.13105e-06 0 -8.65851e-05 1.07991e-05 0 -8.40219e-05 1.37136e-05 0 -8.06738e-05 1.68989e-05 0 -7.63202e-05 2.03225e-05 0 -7.06257e-05 2.38112e-05 0 -6.31508e-05 2.67893e-05 0 -5.3984e-05 2.78043e-05 0 -4.51649e-05 2.59674e-05 0 -3.80459e-05 2.2757e-05 0 -3.23073e-05 1.932e-05 0 -2.74742e-05 1.61201e-05 0 -2.32577e-05 1.33998e-05 0 -2.54362e-05 -9.13346e-06 0 -3.02066e-05 -1.14056e-05 0 -3.52881e-05 -1.40357e-05 0 -4.08934e-05 -1.65774e-05 0 -4.72752e-05 -1.86016e-05 0 -5.43657e-05 -1.95834e-05 0 -6.15373e-05 -1.91566e-05 0 -6.80037e-05 -1.75643e-05 0 -7.3429e-05 -1.53712e-05 0 -7.78391e-05 -1.30054e-05 0 -8.13624e-05 -1.06752e-05 0 -8.41255e-05 -8.46896e-06 0 -8.62292e-05 -6.40678e-06 0 -8.7748e-05 -4.47496e-06 0 -8.87336e-05 -2.64328e-06 0 -8.92185e-05 -8.73981e-07 0 -8.92185e-05 8.73981e-07 0 -8.87336e-05 2.64328e-06 0 -8.7748e-05 4.47496e-06 0 -8.62292e-05 6.40678e-06 0 -8.41255e-05 8.46896e-06 0 -8.13624e-05 1.06752e-05 0 -7.78391e-05 1.30054e-05 0 -7.3429e-05 1.53712e-05 0 -6.80037e-05 1.75643e-05 0 -6.15373e-05 1.91566e-05 0 -5.43657e-05 1.95834e-05 0 -4.72752e-05 1.86016e-05 0 -4.08934e-05 1.65774e-05 0 -3.52881e-05 1.40357e-05 0 -3.02066e-05 1.14056e-05 0 -2.54362e-05 9.13346e-06 0 -2.72186e-05 -4.07213e-06 0 -3.27032e-05 -6.32782e-06 0 -3.77496e-05 -8.85199e-06 0 -4.29138e-05 -1.08896e-05 0 -4.85629e-05 -1.2281e-05 0 -5.46245e-05 -1.29171e-05 0 -6.07388e-05 -1.27416e-05 0 -6.64796e-05 -1.18745e-05 0 -7.15638e-05 -1.05637e-05 0 -7.58884e-05 -9.05508e-06 0 -7.94581e-05 -7.50219e-06 0 -8.23204e-05 -5.98938e-06 0 -8.45319e-05 -4.54973e-06 0 -8.61437e-05 -3.18612e-06 0 -8.71957e-05 -1.88483e-06 0 -8.77149e-05 -6.23639e-07 0 -8.77149e-05 6.23639e-07 0 -8.71957e-05 1.88483e-06 0 -8.61437e-05 3.18612e-06 0 -8.45319e-05 4.54973e-06 0 -8.23204e-05 5.98938e-06 0 -7.94581e-05 7.50219e-06 0 -7.58884e-05 9.05508e-06 0 -7.15638e-05 1.05637e-05 0 -6.64796e-05 1.18745e-05 0 -6.07388e-05 1.27416e-05 0 -5.46245e-05 1.29171e-05 0 -4.85629e-05 1.2281e-05 0 -4.29138e-05 1.08896e-05 0 -3.77496e-05 8.85199e-06 0 -3.27032e-05 6.32782e-06 0 -2.72186e-05 4.07213e-06 0 -2.89702e-05 2.81232e-06 0 -3.58908e-05 -1.19094e-06 0 -4.0004e-05 -4.24721e-06 0 -4.43763e-05 -5.83787e-06 0 -4.93881e-05 -6.71893e-06 0 -5.48187e-05 -7.10089e-06 0 -6.03443e-05 -7.04324e-06 0 -6.56441e-05 -6.62026e-06 0 -7.04748e-05 -5.94397e-06 0 -7.4698e-05 -5.13572e-06 0 -7.82613e-05 -4.28051e-06 0 -8.11643e-05 -3.43166e-06 0 -8.3432e-05 -2.61405e-06 0 -8.50966e-05 -1.8338e-06 0 -8.61879e-05 -1.08593e-06 0 -8.67278e-05 -3.59473e-07 0 -8.67278e-05 3.59473e-07 0 -8.61879e-05 1.08593e-06 0 -8.50966e-05 1.8338e-06 0 -8.3432e-05 2.61405e-06 0 -8.11643e-05 3.43166e-06 0 -7.82613e-05 4.28051e-06 0 -7.4698e-05 5.13572e-06 0 -7.04748e-05 5.94397e-06 0 -6.56441e-05 6.62026e-06 0 -6.03443e-05 7.04324e-06 0 -5.48187e-05 7.10089e-06 0 -4.93881e-05 6.71893e-06 0 -4.43763e-05 5.83787e-06 0 -4.0004e-05 4.24721e-06 0 -3.58908e-05 1.19094e-06 0 -2.89702e-05 -2.81232e-06 0 -8.78105e-06 5.27502e-05 0 -4.09028e-05 6.57859e-07 0 -4.15994e-05 -9.35839e-07 0 -4.51507e-05 -1.40835e-06 0 -4.97815e-05 -1.63627e-06 0 -5.49182e-05 -1.73157e-06 0 -6.01901e-05 -1.71881e-06 0 -6.52963e-05 -1.61741e-06 0 -7.00073e-05 -1.45372e-06 0 -7.41756e-05 -1.25679e-06 0 -7.77279e-05 -1.04756e-06 0 -8.0644e-05 -8.39558e-07 0 -8.2934e-05 -6.39213e-07 0 -8.46208e-05 -4.48192e-07 0 -8.57291e-05 -2.65303e-07 0 -8.62781e-05 -8.78039e-08 0 -8.62781e-05 8.78039e-08 0 -8.57291e-05 2.65303e-07 0 -8.46208e-05 4.48192e-07 0 -8.2934e-05 6.39213e-07 0 -8.0644e-05 8.39558e-07 0 -7.77279e-05 1.04756e-06 0 -7.41756e-05 1.25679e-06 0 -7.00073e-05 1.45372e-06 0 -6.52963e-05 1.61741e-06 0 -6.01901e-05 1.71881e-06 0 -5.49182e-05 1.73157e-06 0 -4.97815e-05 1.63627e-06 0 -4.51507e-05 1.40835e-06 0 -4.15994e-05 9.35839e-07 0 -4.09028e-05 -6.57859e-07 0 -8.78105e-06 -5.27502e-05 0 </DataArray> 
</PointData> 
<Points> 
<DataArray type="Float32" NumberOfComponents="3"> 