<?xml version="1.0"?> 
<VTKFile type="StructuredGrid" version="0.1"> 
<StructuredGrid WholeExtent="0 31 0 31 0 0"> 
<Piece Extent="0 31 0 31 0 0"> 
<PointData>
<DataArray type="Float32" Name="B" format="ascii" NumberOfComponents="3"> 
9.38973e-06 -7.51916e-05 0 0.000169088 -6.54536e-07 0 0.000172814 9.81353e-07 0 0.000188104 1.46617e-06 0 0.000207814 1.70111e-06 0 0.000229618 1.79936e-06 0 0.000251966 1.78548e-06 0 0.000273583 1.6794e-06 0 0.000293493 1.50866e-06 0 0.000311078 1.30359e-06 0 0.000326038 1.08604e-06 0 0.000338299 8.70021e-07 0 0.000347915 6.62177e-07 0 0.000354991 4.64174e-07 0 0.000359637 2.74717e-07 0 0.000361937 9.09115e-08 0 0.000361937 -9.09115e-08 0 0.000359637 -2.74717e-07 0 0.000354991 -4.64174e-07 0 0.000347915 -6.62177e-07 0 0.000338299 -8.70021e-07 0 0.000326038 -1.08604e-06 0 0.000311078 -1.30359e-06 0 0.000293493 -1.50866e-06 0 0.000273583 -1.6794e-06 0 0.000251966 -1.78548e-06 0 0.000229618 -1.79936e-06 0 0.000207814 -1.70111e-06 0 0.000188104 -1.46617e-06 0 0.000172814 -9.81353e-07 0 0.000169088 6.54536e-07 0 9.38973e-06 7.51916e-05 0 1.78364e-05 -0.000336049 0 -3.10187e-06 5.14513e-08 0 -3.1979e-06 -6.78628e-09 0 -3.49967e-06 -9.52984e-09 0 -3.88117e-06 -1.09204e-08 0 -4.30112e-06 -1.15036e-08 0 -4.73055e-06 -1.13784e-08 0 -5.14492e-06 -1.066e-08 0 -5.52545e-06 -9.53138e-09 0 -5.86041e-06 -8.19568e-09 0 -6.14445e-06 -6.79675e-09 0 -6.37658e-06 -5.42332e-09 0 -6.55818e-06 -4.1145e-09 0 -6.69156e-06 -2.87726e-09 0 -6.77902e-06 -1.70016e-09 0 -6.82229e-06 -5.6218e-10 0 -6.82229e-06 5.6218e-10 0 -6.77902e-06 1.70016e-09 0 -6.69156e-06 2.87726e-09 0 -6.55818e-06 4.1145e-09 0 -6.37658e-06 5.42332e-09 0 -6.14445e-06 6.79675e-09 0 -5.86041e-06 8.19568e-09 0 -5.52545e-06 9.53138e-09 0 -5.14492e-06 1.066e-08 0 -4.73055e-06 1.13784e-08 0 -4.30112e-06 1.15036e-08 0 -3.88117e-06 1.09204e-08 0 -3.49967e-06 9.52984e-09 0 -3.1979e-06 6.78628e-09 0 -3.10187e-06 -5.14513e-08 0 1.78364e-05 0.000336049 0 9.98526e-06 -0.000247835 0 4.53626e-09 3.4169e-08 0 4.93644e-09 -9.8245e-11 0 5.60167e-09 -1.66105e-10 0 6.36455e-09 -1.94337e-10 0 7.18336e-09 -2.06107e-10 0 8.01051e-09 -2.04933e-10 0 8.79843e-09 -1.93246e-10 0 9.51043e-09 -1.74113e-10 0 1.0126e-08 -1.50903e-10 0 1.06386e-08 -1.26071e-10 0 1.10507e-08 -1.01237e-10 0 1.13686e-08 -7.71997e-11 0 1.15996e-08 -5.41926e-11 0 1.17498e-08 -3.21035e-11 0 1.18238e-08 -1.0629e-11 0 1.18238e-08 1.0629e-11 0 1.17498e-08 3.21035e-11 0 1.15996e-08 5.41926e-11 0 1.13686e-08 7.71997e-11 0 1.10507e-08 1.01237e-10 0 1.06386e-08 1.26071e-10 0 1.0126e-08 1.50903e-10 0 9.51043e-09 1.74113e-10 0 8.79843e-09 1.93246e-10 0 8.01051e-09 2.04933e-10 0 7.18336e-09 2.06107e-10 0 6.36455e-09 1.94337e-10 0 5.60167e-09 1.66105e-10 0 4.93644e-09 9.8245e-11 0 4.53626e-09 -3.4169e-08 0 9.98526e-06 0.000247835 0 6.44131e-06 -0.000194156 0 5.96305e-10 2.56661e-08 0 5.38532e-10 8.63438e-12 0 5.86984e-10 3.56092e-12 0 6.49262e-10 4.12165e-12 0 7.18058e-10 4.35681e-12 0 7.88523e-10 4.321e-12 0 8.56633e-10 4.06179e-12 0 9.19311e-10 3.64617e-12 0 9.74613e-10 3.14814e-12 0 1.02161e-09 2.62084e-12 0 1.0601e-09 2.0982e-12 0 1.09026e-09 1.59611e-12 0 1.11244e-09 1.1184e-12 0 1.12699e-09 6.61742e-13 0 1.1342e-09 2.1896e-13 0 1.1342e-09 -2.1896e-13 0 1.12699e-09 -6.61742e-13 0 1.11244e-09 -1.1184e-12 0 1.09026e-09 -1.59611e-12 0 1.0601e-09 -2.0982e-12 0 1.02161e-09 -2.62084e-12 0 9.74613e-10 -3.14814e-12 0 9.19311e-10 -3.64617e-12 0 8.56633e-10 -4.06179e-12 0 7.88523e-10 -4.321e-12 0 7.18058e-10 -4.35681e-12 0 6.49262e-10 -4.12165e-12 0 5.86984e-10 -3.56092e-12 0 5.38532e-10 -8.63438e-12 0 5.96305e-10 -2.56661e-08 0 6.44131e-06 0.000194156 0 4.57277e-06 -0.000156987 0 4.92921e-11 2.03392e-08 0 -6.35026e-12 5.10374e-12 0 -7.03646e-12 -6.65247e-15 0 -7.81446e-12 -9.00045e-15 0 -8.6695e-12 -9.38443e-15 0 -9.54311e-12 -9.20826e-15 0 -1.03853e-11 -8.54031e-15 0 -1.1158e-11 -7.54462e-15 0 -1.18373e-11 -6.40566e-15 0 -1.24126e-11 -5.24898e-15 0 -1.28823e-11 -4.14467e-15 0 -1.32495e-11 -3.1177e-15 0 -1.35189e-11 -2.16621e-15 0 -1.36956e-11 -1.27451e-15 0 -1.37829e-11 -4.20522e-16 0 -1.37829e-11 4.20522e-16 0 -1.36956e-11 1.27451e-15 0 -1.35189e-11 2.16621e-15 0 -1.32495e-11 3.1177e-15 0 -1.28823e-11 4.14467e-15 0 -1.24126e-11 5.24898e-15 0 -1.18373e-11 6.40566e-15 0 -1.1158e-11 7.54462e-15 0 -1.03853e-11 8.54031e-15 0 -9.54311e-12 9.20826e-15 0 -8.6695e-12 9.38443e-15 0 -7.81446e-12 9.00045e-15 0 -7.03646e-12 6.65247e-15 0 -6.35026e-12 -5.10374e-12 0 4.92921e-11 -2.03392e-08 0 4.57277e-06 0.000156987 0 3.47202e-06 -0.000129355 0 4.46899e-11 1.6569e-08 0 2.8332e-14 4.2419e-12 0 -2.95924e-14 6.32642e-16 0 -3.22615e-14 -6.55876e-16 0 -3.53839e-14 -6.95758e-16 0 -3.86065e-14 -6.91157e-16 0 -4.17456e-14 -6.5101e-16 0 -4.46618e-14 -5.85778e-16 0 -4.72614e-14 -5.0699e-16 0 -4.94925e-14 -4.23011e-16 0 -5.13353e-14 -3.39298e-16 0 -5.27897e-14 -2.58498e-16 0 -5.38651e-14 -1.81334e-16 0 -5.45735e-14 -1.07372e-16 0 -5.49249e-14 -3.5541e-17 0 -5.49249e-14 3.5541e-17 0 -5.45735e-14 1.07372e-16 0 -5.38651e-14 1.81334e-16 0 -5.27897e-14 2.58498e-16 0 -5.13353e-14 3.39298e-16 0 -4.94925e-14 4.23011e-16 0 -4.72614e-14 5.0699e-16 0 -4.46618e-14 5.85778e-16 0 -4.17456e-14 6.5101e-16 0 -3.86065e-14 6.91157e-16 0 -3.53839e-14 6.95758e-16 0 -3.22615e-14 6.55876e-16 0 -2.95924e-14 -6.32642e-16 0 2.8332e-14 -4.2419e-12 0 4.46899e-11 -1.6569e-08 0 3.47202e-06 0.000129355 0 2.76935e-06 -0.000107695 0 3.68948e-11 1.37003e-08 0 4.86786e-14 3.54691e-12 0 1.56651e-15 1.00179e-15 0 1.83089e-15 9.58708e-18 0 2.02644e-15 9.29249e-18 0 2.22661e-15 9.21067e-18 0 2.41997e-15 8.65099e-18 0 2.59778e-15 7.75824e-18 0 2.75455e-15 6.69174e-18 0 2.88767e-15 5.56561e-18 0 2.99659e-15 4.45207e-18 0 3.0819e-15 3.38446e-18 0 3.14461e-15 2.37033e-18 0 3.18575e-15 1.40202e-18 0 3.20611e-15 4.63829e-19 0 3.20611e-15 -4.63829e-19 0 3.18575e-15 -1.40202e-18 0 3.14461e-15 -2.37033e-18 0 3.0819e-15 -3.38446e-18 0 2.99659e-15 -4.45207e-18 0 2.88767e-15 -5.56561e-18 0 2.75455e-15 -6.69174e-18 0 2.59778e-15 -7.75824e-18 0 2.41997e-15 -8.65099e-18 0 2.22661e-15 -9.21067e-18 0 2.02644e-15 -9.29249e-18 0 1.83089e-15 -9.58708e-18 0 1.56651e-15 -1.00179e-15 0 4.86786e-14 -3.54691e-12 0 3.68948e-11 -1.37003e-08 0 2.76935e-06 0.000107695 0 2.29483e-06 -9.00057e-05 0 3.11995e-11 1.14006e-08 0 4.04274e-14 2.97198e-12 0 -8.41173e-17 8.30032e-16 0 -1.38833e-17 6.91188e-19 0 -1.5412e-17 2.70695e-20 0 -1.69854e-17 2.78183e-20 0 -1.85004e-17 2.64816e-20 0 -1.9888e-17 2.41209e-20 0 -2.11059e-17 2.11351e-20 0 -2.21357e-17 1.78321e-20 0 -2.2975e-17 1.44381e-20 0 -2.36303e-17 1.10817e-20 0 -2.41108e-17 7.81625e-21 0 -2.44255e-17 4.64478e-21 0 -2.45811e-17 1.5402e-21 0 -2.45811e-17 -1.5402e-21 0 -2.44255e-17 -4.64478e-21 0 -2.41108e-17 -7.81625e-21 0 -2.36303e-17 -1.10817e-20 0 -2.2975e-17 -1.44381e-20 0 -2.21357e-17 -1.78321e-20 0 -2.11059e-17 -2.11351e-20 0 -1.9888e-17 -2.41209e-20 0 -1.85004e-17 -2.64816e-20 0 -1.69854e-17 -2.78183e-20 0 -1.5412e-17 -2.70695e-20 0 -1.38833e-17 -6.91188e-19 0 -8.41173e-17 -8.30032e-16 0 4.04274e-14 -2.97198e-12 0 3.11995e-11 -1.14006e-08 0 2.29483e-06 9.00057e-05 0 1.96241e-06 -7.50768e-05 0 2.70199e-11 9.48262e-09 0 3.53168e-14 2.48311e-12 0 -6.09784e-17 6.91835e-16 0 -4.78208e-20 5.56927e-19 0 -3.92467e-20 -2.56838e-21 0 -4.23348e-20 -1.97725e-21 0 -4.53968e-20 -1.86091e-21 0 -4.83e-20 -1.67293e-21 0 -5.09436e-20 -1.44655e-21 0 -5.32576e-20 -1.20587e-21 0 -5.5201e-20 -9.6648e-22 0 -5.67552e-20 -7.3586e-22 0 -5.7916e-20 -5.15957e-22 0 -5.8686e-20 -3.05414e-22 0 -5.90695e-20 -1.01078e-22 0 -5.90695e-20 1.01078e-22 0 -5.8686e-20 3.05414e-22 0 -5.7916e-20 5.15957e-22 0 -5.67552e-20 7.3586e-22 0 -5.5201e-20 9.6648e-22 0 -5.32576e-20 1.20587e-21 0 -5.09436e-20 1.44655e-21 0 -4.83e-20 1.67293e-21 0 -4.53968e-20 1.86091e-21 0 -4.23348e-20 1.97725e-21 0 -3.92467e-20 2.56838e-21 0 -4.78208e-20 -5.56927e-19 0 -6.09784e-17 -6.91835e-16 0 3.53168e-14 -2.48311e-12 0 2.70199e-11 -9.48262e-09 0 1.96241e-06 7.50768e-05 0 1.7211e-06 -6.2127e-05 0 2.38946e-11 7.83192e-09 0 3.14029e-14 2.05703e-12 0 -5.32372e-17 5.72206e-16 0 4.45051e-21 4.64473e-19 0 1.62233e-20 -5.73582e-22 0 1.78368e-20 -9.64049e-23 0 1.93932e-20 -9.07207e-23 0 2.08234e-20 -8.15909e-23 0 2.20834e-20 -7.05803e-23 0 2.31526e-20 -5.886e-23 0 2.40269e-20 -4.71909e-23 0 2.47112e-20 -3.59398e-23 0 2.52141e-20 -2.52046e-23 0 2.55438e-20 -1.49215e-23 0 2.5707e-20 -4.93865e-24 0 2.5707e-20 4.93865e-24 0 2.55438e-20 1.49215e-23 0 2.52141e-20 2.52046e-23 0 2.47112e-20 3.59398e-23 0 2.40269e-20 4.71909e-23 0 2.31526e-20 5.886e-23 0 2.20834e-20 7.05803e-23 0 2.08234e-20 8.15909e-23 0 1.93932e-20 9.07207e-23 0 1.78368e-20 9.64049e-23 0 1.62233e-20 5.73582e-22 0 4.45051e-21 -4.64473e-19 0 -5.32372e-17 -5.72206e-16 0 3.14029e-14 -2.05703e-12 0 2.38946e-11 -7.83192e-09 0 1.7211e-06 6.2127e-05 0 1.54421e-06 -5.06242e-05 0 2.15565e-11 6.37339e-09 0 2.84326e-14 1.67741e-12 0 -4.76521e-17 4.66088e-16 0 -8.24581e-21 3.79736e-19 0 1.06403e-21 -4.00013e-22 0 1.1708e-21 -1.2081e-23 0 1.27267e-21 -1.13489e-23 0 1.36633e-21 -1.02204e-23 0 1.44888e-21 -8.85324e-24 0 1.51896e-21 -7.39238e-24 0 1.57629e-21 -5.93317e-24 0 1.62118e-21 -4.52246e-24 0 1.65417e-21 -3.17361e-24 0 1.67581e-21 -1.87961e-24 0 1.68652e-21 -6.22235e-25 0 1.68652e-21 6.22235e-25 0 1.67581e-21 1.87961e-24 0 1.65417e-21 3.17361e-24 0 1.62118e-21 4.52246e-24 0 1.57629e-21 5.93317e-24 0 1.51896e-21 7.39238e-24 0 1.44888e-21 8.85324e-24 0 1.36633e-21 1.02204e-23 0 1.27267e-21 1.13489e-23 0 1.1708e-21 1.2081e-23 0 1.06403e-21 4.00013e-22 0 -8.24581e-21 -3.79736e-19 0 -4.76521e-17 -4.66088e-16 0 2.84326e-14 -1.67741e-12 0 2.15565e-11 -6.37339e-09 0 1.54421e-06 5.06242e-05 0 1.41414e-06 -4.01884e-05 0 1.98133e-11 5.05487e-09 0 2.61972e-14 1.33229e-12 0 -4.35594e-17 3.69907e-16 0 -8.39548e-21 3.02122e-19 0 7.91275e-23 -3.08464e-22 0 8.82693e-23 -7.94478e-25 0 9.59584e-23 -7.20988e-25 0 1.03026e-22 -6.52332e-25 0 1.09255e-22 -5.67774e-25 0 1.14541e-22 -4.76159e-25 0 1.18865e-22 -3.83584e-25 0 1.2225e-22 -2.9324e-25 0 1.24738e-22 -2.06227e-25 0 1.2637e-22 -1.22315e-25 0 1.27177e-22 -4.05206e-26 0 1.27177e-22 4.05206e-26 0 1.2637e-22 1.22315e-25 0 1.24738e-22 2.06227e-25 0 1.2225e-22 2.9324e-25 0 1.18865e-22 3.83584e-25 0 1.14541e-22 4.76159e-25 0 1.09255e-22 5.67774e-25 0 1.03026e-22 6.52332e-25 0 9.59584e-23 7.20988e-25 0 8.82693e-23 7.94478e-25 0 7.91275e-23 3.08464e-22 0 -8.39548e-21 -3.02122e-19 0 -4.35594e-17 -3.69907e-16 0 2.61972e-14 -1.33229e-12 0 1.98133e-11 -5.05487e-09 0 1.41414e-06 4.01884e-05 0 1.31981e-06 -3.05346e-05 0 1.85369e-11 3.83816e-09 0 2.45501e-14 1.01261e-12 0 -4.06021e-17 2.80996e-16 0 -7.91699e-21 2.29895e-19 0 8.25174e-24 -2.3362e-22 0 1.02953e-23 1.36007e-26 0 1.12021e-23 3.55898e-26 0 1.20342e-23 3.13664e-26 0 1.27662e-23 2.655e-26 0 1.33863e-23 2.1693e-26 0 1.38928e-23 1.70859e-26 0 1.42887e-23 1.28259e-26 0 1.45794e-23 8.89772e-27 0 1.477e-23 5.22965e-27 0 1.48642e-23 1.72461e-27 0 1.48642e-23 -1.72461e-27 0 1.477e-23 -5.22965e-27 0 1.45794e-23 -8.89772e-27 0 1.42887e-23 -1.28259e-26 0 1.38928e-23 -1.70859e-26 0 1.33863e-23 -2.1693e-26 0 1.27662e-23 -2.655e-26 0 1.20342e-23 -3.13664e-26 0 1.12021e-23 -3.55898e-26 0 1.02953e-23 -1.36007e-26 0 8.25174e-24 2.3362e-22 0 -7.91699e-21 -2.29895e-19 0 -4.06021e-17 -2.80996e-16 0 2.45501e-14 -1.01261e-12 0 1.85369e-11 -3.83816e-09 0 1.31981e-06 3.05346e-05 0 1.25408e-06 -2.14397e-05 0 1.76419e-11 2.69378e-09 0 2.33901e-14 7.11159e-13 0 -3.85471e-17 1.97273e-16 0 -7.54254e-21 1.61582e-19 0 1.23972e-24 -1.63981e-22 0 2.51957e-24 3.5423e-27 0 2.74129e-24 1.97102e-26 0 2.94476e-24 1.7657e-26 0 3.12377e-24 1.52018e-26 0 3.27547e-24 1.26218e-26 0 3.39936e-24 1.00815e-26 0 3.49624e-24 7.65477e-27 0 3.56737e-24 5.35624e-27 0 3.61399e-24 3.16626e-27 0 3.63706e-24 1.04718e-27 0 3.63706e-24 -1.04718e-27 0 3.61399e-24 -3.16626e-27 0 3.56737e-24 -5.35624e-27 0 3.49624e-24 -7.65477e-27 0 3.39936e-24 -1.00815e-26 0 3.27547e-24 -1.26218e-26 0 3.12377e-24 -1.52018e-26 0 2.94476e-24 -1.7657e-26 0 2.74129e-24 -1.97102e-26 0 2.51957e-24 -3.5423e-27 0 1.23972e-24 1.63981e-22 0 -7.54254e-21 -1.61582e-19 0 -3.85471e-17 -1.97273e-16 0 2.33901e-14 -7.11159e-13 0 1.76419e-11 -2.69378e-09 0 1.25408e-06 2.14397e-05 0 1.21243e-06 -1.272e-05 0 1.70723e-11 1.59777e-09 0 2.265e-14 4.21983e-13 0 -3.72471e-17 1.17031e-16 0 -7.30165e-21 9.59242e-20 0 -4.79776e-25 -9.72746e-23 0 5.89669e-25 -6.53151e-27 0 6.41236e-25 3.60989e-27 0 6.88587e-25 3.24637e-27 0 7.30291e-25 2.80172e-27 0 7.6567e-25 2.33145e-27 0 7.94594e-25 1.86579e-27 0 8.17229e-25 1.41886e-27 0 8.33857e-25 9.93955e-28 0 8.44762e-25 5.88009e-28 0 8.50157e-25 1.94546e-28 0 8.50157e-25 -1.94546e-28 0 8.44762e-25 -5.88009e-28 0 8.33857e-25 -9.93955e-28 0 8.17229e-25 -1.41886e-27 0 7.94594e-25 -1.86579e-27 0 7.6567e-25 -2.33145e-27 0 7.30291e-25 -2.80172e-27 0 6.88587e-25 -3.24637e-27 0 6.41236e-25 -3.60989e-27 0 5.89669e-25 6.53151e-27 0 -4.79776e-25 9.72746e-23 0 -7.30165e-21 -9.59242e-20 0 -3.72471e-17 -1.17031e-16 0 2.265e-14 -4.21983e-13 0 1.70723e-11 -1.59777e-09 0 1.21243e-06 1.272e-05 0 1.19216e-06 -4.21644e-06 0 1.67945e-11 5.29565e-10 0 2.22884e-14 1.39889e-13 0 -3.66151e-17 3.87919e-17 0 -7.18374e-21 3.18065e-20 0 -8.92742e-25 -3.22421e-23 0 1.17282e-25 -3.00498e-27 0 1.27482e-25 4.08603e-28 0 1.36836e-25 3.69463e-28 0 1.45087e-25 3.19257e-28 0 1.52096e-25 2.65975e-28 0 1.57832e-25 2.13062e-28 0 1.62326e-25 1.62153e-28 0 1.65629e-25 1.1366e-28 0 1.67797e-25 6.72657e-29 0 1.68869e-25 2.22596e-29 0 1.68869e-25 -2.22596e-29 0 1.67797e-25 -6.72657e-29 0 1.65629e-25 -1.1366e-28 0 1.62326e-25 -1.62153e-28 0 1.57832e-25 -2.13062e-28 0 1.52096e-25 -2.65975e-28 0 1.45087e-25 -3.19257e-28 0 1.36836e-25 -3.69463e-28 0 1.27482e-25 -4.08603e-28 0 1.17282e-25 3.00498e-27 0 -8.92742e-25 3.22421e-23 0 -7.18374e-21 -3.18065e-20 0 -3.66151e-17 -3.87919e-17 0 2.22884e-14 -1.39889e-13 0 1.67945e-11 -5.29565e-10 0 1.19216e-06 4.21644e-06 0 1.19216e-06 4.21644e-06 0 1.67945e-11 -5.29565e-10 0 2.22884e-14 -1.39889e-13 0 -3.66151e-17 -3.87919e-17 0 -7.18374e-21 -3.18065e-20 0 -8.92742e-25 3.22421e-23 0 1.17282e-25 3.00498e-27 0 1.27482e-25 -4.08603e-28 0 1.36836e-25 -3.69463e-28 0 1.45087e-25 -3.19257e-28 0 1.52096e-25 -2.65975e-28 0 1.57832e-25 -2.13062e-28 0 1.62326e-25 -1.62153e-28 0 1.65629e-25 -1.1366e-28 0 1.67797e-25 -6.72657e-29 0 1.68869e-25 -2.22596e-29 0 1.68869e-25 2.22596e-29 0 1.67797e-25 6.72657e-29 0 1.65629e-25 1.1366e-28 0 1.62326e-25 1.62153e-28 0 1.57832e-25 2.13062e-28 0 1.52096e-25 2.65975e-28 0 1.45087e-25 3.19257e-28 0 1.36836e-25 3.69463e-28 0 1.27482e-25 4.08603e-28 0 1.17282e-25 -3.00498e-27 0 -8.92742e-25 -3.22421e-23 0 -7.18374e-21 3.18065e-20 0 -3.66151e-17 3.87919e-17 0 2.22884e-14 1.39889e-13 0 1.67945e-11 5.29565e-10 0 1.19216e-06 -4.21644e-06 0 1.21243e-06 1.272e-05 0 1.70723e-11 -1.59777e-09 0 2.265e-14 -4.21983e-13 0 -3.72471e-17 -1.17031e-16 0 -7.30165e-21 -9.59242e-20 0 -4.79776e-25 9.72746e-23 0 5.89669e-25 6.53151e-27 0 6.41236e-25 -3.60989e-27 0 6.88587e-25 -3.24637e-27 0 7.30291e-25 -2.80172e-27 0 7.6567e-25 -2.33145e-27 0 7.94594e-25 -1.86579e-27 0 8.17229e-25 -1.41886e-27 0 8.33857e-25 -9.93955e-28 0 8.44762e-25 -5.88009e-28 0 8.50157e-25 -1.94546e-28 0 8.50157e-25 1.94546e-28 0 8.44762e-25 5.88009e-28 0 8.33857e-25 9.93955e-28 0 8.17229e-25 1.41886e-27 0 7.94594e-25 1.86579e-27 0 7.6567e-25 2.33145e-27 0 7.30291e-25 2.80172e-27 0 6.88587e-25 3.24637e-27 0 6.41236e-25 3.60989e-27 0 5.89669e-25 -6.53151e-27 0 -4.79776e-25 -9.72746e-23 0 -7.30165e-21 9.59242e-20 0 -3.72471e-17 1.17031e-16 0 2.265e-14 4.21983e-13 0 1.70723e-11 1.59777e-09 0 1.21243e-06 -1.272e-05 0 1.25408e-06 2.14397e-05 0 1.76419e-11 -2.69378e-09 0 2.33901e-14 -7.11159e-13 0 -3.85471e-17 -1.97273e-16 0 -7.54254e-21 -1.61582e-19 0 1.23972e-24 1.63981e-22 0 2.51957e-24 -3.5423e-27 0 2.74129e-24 -1.97102e-26 0 2.94476e-24 -1.7657e-26 0 3.12377e-24 -1.52018e-26 0 3.27547e-24 -1.26218e-26 0 3.39936e-24 -1.00815e-26 0 3.49624e-24 -7.65477e-27 0 3.56737e-24 -5.35624e-27 0 3.61399e-24 -3.16626e-27 0 3.63706e-24 -1.04718e-27 0 3.63706e-24 1.04718e-27 0 3.61399e-24 3.16626e-27 0 3.56737e-24 5.35624e-27 0 3.49624e-24 7.65477e-27 0 3.39936e-24 1.00815e-26 0 3.27547e-24 1.26218e-26 0 3.12377e-24 1.52018e-26 0 2.94476e-24 1.7657e-26 0 2.74129e-24 1.97102e-26 0 2.51957e-24 3.5423e-27 0 1.23972e-24 -1.63981e-22 0 -7.54254e-21 1.61582e-19 0 -3.85471e-17 1.97273e-16 0 2.33901e-14 7.11159e-13 0 1.76419e-11 2.69378e-09 0 1.25408e-06 -2.14397e-05 0 1.31981e-06 3.05346e-05 0 1.85369e-11 -3.83816e-09 0 2.45501e-14 -1.01261e-12 0 -4.06021e-17 -2.80996e-16 0 -7.91699e-21 -2.29895e-19 0 8.25174e-24 2.3362e-22 0 1.02953e-23 -1.36007e-26 0 1.12021e-23 -3.55898e-26 0 1.20342e-23 -3.13664e-26 0 1.27662e-23 -2.655e-26 0 1.33863e-23 -2.1693e-26 0 1.38928e-23 -1.70859e-26 0 1.42887e-23 -1.28259e-26 0 1.45794e-23 -8.89772e-27 0 1.477e-23 -5.22965e-27 0 1.48642e-23 -1.72461e-27 0 1.48642e-23 1.72461e-27 0 1.477e-23 5.22965e-27 0 1.45794e-23 8.89772e-27 0 1.42887e-23 1.28259e-26 0 1.38928e-23 1.70859e-26 0 1.33863e-23 2.1693e-26 0 1.27662e-23 2.655e-26 0 1.20342e-23 3.13664e-26 0 1.12021e-23 3.55898e-26 0 1.02953e-23 1.36007e-26 0 8.25174e-24 -2.3362e-22 0 -7.91699e-21 2.29895e-19 0 -4.06021e-17 2.80996e-16 0 2.45501e-14 1.01261e-12 0 1.85369e-11 3.83816e-09 0 1.31981e-06 -3.05346e-05 0 1.41414e-06 4.01884e-05 0 1.98133e-11 -5.05487e-09 0 2.61972e-14 -1.33229e-12 0 -4.35594e-17 -3.69907e-16 0 -8.39548e-21 -3.02122e-19 0 7.91275e-23 3.08464e-22 0 8.82693e-23 7.94478e-25 0 9.59584e-23 7.20988e-25 0 1.03026e-22 6.52332e-25 0 1.09255e-22 5.67774e-25 0 1.14541e-22 4.76159e-25 0 1.18865e-22 3.83584e-25 0 1.2225e-22 2.9324e-25 0 1.24738e-22 2.06227e-25 0 1.2637e-22 1.22315e-25 0 1.27177e-22 4.05206e-26 0 1.27177e-22 -4.05206e-26 0 1.2637e-22 -1.22315e-25 0 1.24738e-22 -2.06227e-25 0 1.2225e-22 -2.9324e-25 0 1.18865e-22 -3.83584e-25 0 1.14541e-22 -4.76159e-25 0 1.09255e-22 -5.67774e-25 0 1.03026e-22 -6.52332e-25 0 9.59584e-23 -7.20988e-25 0 8.82693e-23 -7.94478e-25 0 7.91275e-23 -3.08464e-22 0 -8.39548e-21 3.02122e-19 0 -4.35594e-17 3.69907e-16 0 2.61972e-14 1.33229e-12 0 1.98133e-11 5.05487e-09 0 1.41414e-06 -4.01884e-05 0 1.54421e-06 5.06242e-05 0 2.15565e-11 -6.37339e-09 0 2.84326e-14 -1.67741e-12 0 -4.76521e-17 -4.66088e-16 0 -8.24581e-21 -3.79736e-19 0 1.06403e-21 4.00013e-22 0 1.1708e-21 1.2081e-23 0 1.27267e-21 1.13489e-23 0 1.36633e-21 1.02204e-23 0 1.44888e-21 8.85324e-24 0 1.51896e-21 7.39238e-24 0 1.57629e-21 5.93317e-24 0 1.62118e-21 4.52246e-24 0 1.65417e-21 3.17361e-24 0 1.67581e-21 1.87961e-24 0 1.68652e-21 6.22235e-25 0 1.68652e-21 -6.22235e-25 0 1.67581e-21 -1.87961e-24 0 1.65417e-21 -3.17361e-24 0 1.62118e-21 -4.52246e-24 0 1.57629e-21 -5.93317e-24 0 1.51896e-21 -7.39238e-24 0 1.44888e-21 -8.85324e-24 0 1.36633e-21 -1.02204e-23 0 1.27267e-21 -1.13489e-23 0 1.1708e-21 -1.2081e-23 0 1.06403e-21 -4.00013e-22 0 -8.24581e-21 3.79736e-19 0 -4.76521e-17 4.66088e-16 0 2.84326e-14 1.67741e-12 0 2.15565e-11 6.37339e-09 0 1.54421e-06 -5.06242e-05 0 1.7211e-06 6.2127e-05 0 2.38946e-11 -7.83192e-09 0 3.14029e-14 -2.05703e-12 0 -5.32372e-17 -5.72206e-16 0 4.45051e-21 -4.64473e-19 0 1.62233e-20 5.73582e-22 0 1.78368e-20 9.64049e-23 0 1.93932e-20 9.07207e-23 0 2.08234e-20 8.15909e-23 0 2.20834e-20 7.05803e-23 0 2.31526e-20 5.886e-23 0 2.40269e-20 4.71909e-23 0 2.47112e-20 3.59398e-23 0 2.52141e-20 2.52046e-23 0 2.55438e-20 1.49215e-23 0 2.5707e-20 4.93865e-24 0 2.5707e-20 -4.93865e-24 0 2.55438e-20 -1.49215e-23 0 2.52141e-20 -2.52046e-23 0 2.47112e-20 -3.59398e-23 0 2.40269e-20 -4.71909e-23 0 2.31526e-20 -5.886e-23 0 2.20834e-20 -7.05803e-23 0 2.08234e-20 -8.15909e-23 0 1.93932e-20 -9.07207e-23 0 1.78368e-20 -9.64049e-23 0 1.62233e-20 -5.73582e-22 0 4.45051e-21 4.64473e-19 0 -5.32372e-17 5.72206e-16 0 3.14029e-14 2.05703e-12 0 2.38946e-11 7.83192e-09 0 1.7211e-06 -6.2127e-05 0 1.96241e-06 7.50768e-05 0 2.70199e-11 -9.48262e-09 0 3.53168e-14 -2.48311e-12 0 -6.09784e-17 -6.91835e-16 0 -4.78208e-20 -5.56927e-19 0 -3.92467e-20 2.56838e-21 0 -4.23348e-20 1.97725e-21 0 -4.53968e-20 1.86091e-21 0 -4.83e-20 1.67293e-21 0 -5.09436e-20 1.44655e-21 0 -5.32576e-20 1.20587e-21 0 -5.5201e-20 9.6648e-22 0 -5.67552e-20 7.3586e-22 0 -5.7916e-20 5.15957e-22 0 -5.8686e-20 3.05414e-22 0 -5.90695e-20 1.01078e-22 0 -5.90695e-20 -1.01078e-22 0 -5.8686e-20 -3.05414e-22 0 -5.7916e-20 -5.15957e-22 0 -5.67552e-20 -7.3586e-22 0 -5.5201e-20 -9.6648e-22 0 -5.32576e-20 -1.20587e-21 0 -5.09436e-20 -1.44655e-21 0 -4.83e-20 -1.67293e-21 0 -4.53968e-20 -1.86091e-21 0 -4.23348e-20 -1.97725e-21 0 -3.92467e-20 -2.56838e-21 0 -4.78208e-20 5.56927e-19 0 -6.09784e-17 6.91835e-16 0 3.53168e-14 2.48311e-12 0 2.70199e-11 9.48262e-09 0 1.96241e-06 -7.50768e-05 0 2.29483e-06 9.00057e-05 0 3.11995e-11 -1.14006e-08 0 4.04274e-14 -2.97198e-12 0 -8.41173e-17 -8.30032e-16 0 -1.38833e-17 -6.91188e-19 0 -1.5412e-17 -2.70695e-20 0 -1.69854e-17 -2.78183e-20 0 -1.85004e-17 -2.64816e-20 0 -1.9888e-17 -2.41209e-20 0 -2.11059e-17 -2.11351e-20 0 -2.21357e-17 -1.78321e-20 0 -2.2975e-17 -1.44381e-20 0 -2.36303e-17 -1.10817e-20 0 -2.41108e-17 -7.81625e-21 0 -2.44255e-17 -4.64478e-21 0 -2.45811e-17 -1.5402e-21 0 -2.45811e-17 1.5402e-21 0 -2.44255e-17 4.64478e-21 0 -2.41108e-17 7.81625e-21 0 -2.36303e-17 1.10817e-20 0 -2.2975e-17 1.44381e-20 0 -2.21357e-17 1.78321e-20 0 -2.11059e-17 2.11351e-20 0 -1.9888e-17 2.41209e-20 0 -1.85004e-17 2.64816e-20 0 -1.69854e-17 2.78183e-20 0 -1.5412e-17 2.70695e-20 0 -1.38833e-17 6.91188e-19 0 -8.41173e-17 8.30032e-16 0 4.04274e-14 2.97198e-12 0 3.11995e-11 1.14006e-08 0 2.29483e-06 -9.00057e-05 0 2.76935e-06 0.000107695 0 3.68948e-11 -1.37003e-08 0 4.86786e-14 -3.54691e-12 0 1.56651e-15 -1.00179e-15 0 1.83089e-15 -9.58708e-18 0 2.02644e-15 -9.29249e-18 0 2.22661e-15 -9.21067e-18 0 2.41997e-15 -8.65099e-18 0 2.59778e-15 -7.75824e-18 0 2.75455e-15 -6.69174e-18 0 2.88767e-15 -5.56561e-18 0 2.99659e-15 -4.45207e-18 0 3.0819e-15 -3.38446e-18 0 3.14461e-15 -2.37033e-18 0 3.18575e-15 -1.40202e-18 0 3.20611e-15 -4.63829e-19 0 3.20611e-15 4.63829e-19 0 3.18575e-15 1.40202e-18 0 3.14461e-15 2.37033e-18 0 3.0819e-15 3.38446e-18 0 2.99659e-15 4.45207e-18 0 2.88767e-15 5.56561e-18 0 2.75455e-15 6.69174e-18 0 2.59778e-15 7.75824e-18 0 2.41997e-15 8.65099e-18 0 2.22661e-15 9.21067e-18 0 2.02644e-15 9.29249e-18 0 1.83089e-15 9.58708e-18 0 1.56651e-15 1.00179e-15 0 4.86786e-14 3.54691e-12 0 3.68948e-11 1.37003e-08 0 2.76935e-06 -0.000107695 0 3.47202e-06 0.000129355 0 4.46899e-11 -1.6569e-08 0 2.8332e-14 -4.2419e-12 0 -2.95924e-14 -6.32642e-16 0 -3.22615e-14 6.55876e-16 0 -3.53839e-14 6.95758e-16 0 -3.86065e-14 6.91157e-16 0 -4.17456e-14 6.5101e-16 0 -4.46618e-14 5.85778e-16 0 -4.72614e-14 5.0699e-16 0 -4.94925e-14 4.23011e-16 0 -5.13353e-14 3.39298e-16 0 -5.27897e-14 2.58498e-16 0 -5.38651e-14 1.81334e-16 0 -5.45735e-14 1.07372e-16 0 -5.49249e-14 3.5541e-17 0 -5.49249e-14 -3.5541e-17 0 -5.45735e-14 -1.07372e-16 0 -5.38651e-14 -1.81334e-16 0 -5.27897e-14 -2.58498e-16 0 -5.13353e-14 -3.39298e-16 0 -4.94925e-14 -4.23011e-16 0 -4.72614e-14 -5.0699e-16 0 -4.46618e-14 -5.85778e-16 0 -4.17456e-14 -6.5101e-16 0 -3.86065e-14 -6.91157e-16 0 -3.53839e-14 -6.95758e-16 0 -3.22615e-14 -6.55876e-16 0 -2.95924e-14 6.32642e-16 0 2.8332e-14 4.2419e-12 0 4.46899e-11 1.6569e-08 0 3.47202e-06 -0.000129355 0 4.57277e-06 0.000156987 0 4.92921e-11 -2.03392e-08 0 -6.35026e-12 -5.10374e-12 0 -7.03646e-12 6.65247e-15 0 -7.81446e-12 9.00045e-15 0 -8.6695e-12 9.38443e-15 0 -9.54311e-12 9.20826e-15 0 -1.03853e-11 8.54031e-15 0 -1.1158e-11 7.54462e-15 0 -1.18373e-11 6.40566e-15 0 -1.24126e-11 5.24898e-15 0 -1.28823e-11 4.14467e-15 0 -1.32495e-11 3.1177e-15 0 -1.35189e-11 2.16621e-15 0 -1.36956e-11 1.27451e-15 0 -1.37829e-11 4.20522e-16 0 -1.37829e-11 -4.20522e-16 0 -1.36956e-11 -1.27451e-15 0 -1.35189e-11 -2.16621e-15 0 -1.32495e-11 -3.1177e-15 0 -1.28823e-11 -4.14467e-15 0 -1.24126e-11 -5.24898e-15 0 -1.18373e-11 -6.40566e-15 0 -1.1158e-11 -7.54462e-15 0 -1.03853e-11 -8.54031e-15 0 -9.54311e-12 -9.20826e-15 0 -8.6695e-12 -9.38443e-15 0 -7.81446e-12 -9.00045e-15 0 -7.03646e-12 -6.65247e-15 0 -6.35026e-12 5.10374e-12 0 4.92921e-11 2.03392e-08 0 4.57277e-06 -0.000156987 0 6.44131e-06 0.000194156 0 5.96305e-10 -2.56661e-08 0 5.38532e-10 -8.63438e-12 0 5.86984e-10 -3.56092e-12 0 6.49262e-10 -4.12165e-12 0 7.18058e-10 -4.35681e-12 0 7.88523e-10 -4.321e-12 0 8.56633e-10 -4.06179e-12 0 9.19311e-10 -3.64617e-12 0 9.74613e-10 -3.14814e-12 0 1.02161e-09 -2.62084e-12 0 1.0601e-09 -2.0982e-12 0 1.09026e-09 -1.59611e-12 0 1.11244e-09 -1.1184e-12 0 1.12699e-09 -6.61742e-13 0 1.1342e-09 -2.1896e-13 0 1.1342e-09 2.1896e-13 0 1.12699e-09 6.61742e-13 0 1.11244e-09 1.1184e-12 0 1.09026e-09 1.59611e-12 0 1.0601e-09 2.0982e-12 0 1.02161e-09 2.62084e-12 0 9.74613e-10 3.14814e-12 0 9.19311e-10 3.64617e-12 0 8.56633e-10 4.06179e-12 0 7.88523e-10 4.321e-12 0 7.18058e-10 4.35681e-12 0 6.49262e-10 4.12165e-12 0 5.86984e-10 3.56092e-12 0 5.38532e-10 8.63438e-12 0 5.96305e-10 2.56661e-08 0 6.44131e-06 -0.000194156 0 9.98526e-06 0.000247835 0 4.53626e-09 -3.4169e-08 0 4.93644e-09 9.8245e-11 0 5.60167e-09 1.66105e-10 0 6.36455e-09 1.94337e-10 0 7.18336e-09 2.06107e-10 0 8.01051e-09 2.04933e-10 0 8.79843e-09 1.93246e-10 0 9.51043e-09 1.74113e-10 0 1.0126e-08 1.50903e-10 0 1.06386e-08 1.26071e-10 0 1.10507e-08 1.01237e-10 0 1.13686e-08 7.71997e-11 0 1.15996e-08 5.41926e-11 0 1.17498e-08 3.21035e-11 0 1.18238e-08 1.0629e-11 0 1.18238e-08 -1.0629e-11 0 1.17498e-08 -3.21035e-11 0 1.15996e-08 -5.41926e-11 0 1.13686e-08 -7.71997e-11 0 1.10507e-08 -1.01237e-10 0 1.06386e-08 -1.26071e-10 0 1.0126e-08 -1.50903e-10 0 9.51043e-09 -1.74113e-10 0 8.79843e-09 -1.93246e-10 0 8.01051e-09 -2.04933e-10 0 7.18336e-09 -2.06107e-10 0 6.36455e-09 -1.94337e-10 0 5.60167e-09 -1.66105e-10 0 4.93644e-09 -9.8245e-11 0 4.53626e-09 3.4169e-08 0 9.98526e-06 -0.000247835 0 1.78364e-05 0.000336049 0 -3.10187e-06 -5.14513e-08 0 -3.1979e-06 6.78628e-09 0 -3.49967e-06 9.52984e-09 0 -3.88117e-06 1.09204e-08 0 -4.30112e-06 1.15036e-08 0 -4.73055e-06 1.13784e-08 0 -5.14492e-06 1.066e-08 0 -5.52545e-06 9.53138e-09 0 -5.86041e-06 8.19568e-09 0 -6.14445e-06 6.79675e-09 0 -6.37658e-06 5.42332e-09 0 -6.55818e-06 4.1145e-09 0 -6.69156e-06 2.87726e-09 0 -6.77902e-06 1.70016e-09 0 -6.82229e-06 5.6218e-10 0 -6.82229e-06 -5.6218e-10 0 -6.77902e-06 -1.70016e-09 0 -6.69156e-06 -2.87726e-09 0 -6.55818e-06 -4.1145e-09 0 -6.37658e-06 -5.42332e-09 0 -6.14445e-06 -6.79675e-09 0 -5.86041e-06 -8.19568e-09 0 -5.52545e-06 -9.53138e-09 0 -5.14492e-06 -1.066e-08 0 -4.73055e-06 -1.13784e-08 0 -4.30112e-06 -1.15036e-08 0 -3.88117e-06 -1.09204e-08 0 -3.49967e-06 -9.52984e-09 0 -3.1979e-06 -6.78628e-09 0 -3.10187e-06 5.14513e-08 0 1.78364e-05 -0.000336049 0 9.38973e-06 7.51916e-05 0 0.000169088 6.54536e-07 0 0.000172814 -9.81353e-07 0 0.000188104 -1.46617e-06 0 0.000207814 -1.70111e-06 0 0.000229618 -1.79936e-06 0 0.000251966 -1.78548e-06 0 0.000273583 -1.6794e-06 0 0.000293493 -1.50866e-06 0 0.000311078 -1.30359e-06 0 0.000326038 -1.08604e-06 0 0.000338299 -8.70021e-07 0 0.000347915 -6.62177e-07 0 0.000354991 -4.64174e-07 0 0.000359637 -2.74717e-07 0 0.000361937 -9.09115e-08 0 0.000361937 9.09115e-08 0 0.000359637 2.74717e-07 0 0.000354991 4.64174e-07 0 0.000347915 6.62177e-07 0 0.000338299 8.70021e-07 0 0.000326038 1.08604e-06 0 0.000311078 1.30359e-06 0 0.000293493 1.50866e-06 0 0.000273583 1.6794e-06 0 0.000251966 1.78548e-06 0 0.000229618 1.79936e-06 0 0.000207814 1.70111e-06 0 0.000188104 1.46617e-06 0 0.000172814 9.81353e-07 0 0.000169088 -6.54536e-07 0 9.38973e-06 -7.51916e-05 0 </DataArray> 
</PointData> 
<Points> 
<DataArray type="Float32" NumberOfComponents="3"> 