<?xml version="1.0"?> 
<VTKFile type="StructuredGrid" version="0.1"> 
<StructuredGrid WholeExtent="0 31 0 31 0 0"> 
<Piece Extent="0 31 0 31 0 0"> 
<PointData>
<DataArray type="Float32" Name="B" format="ascii" NumberOfComponents="3"> 
0 -0 0 3.05334e-07 -0 0 6.12885e-07 -0 0 9.24831e-07 -0 0 1.24345e-06 -0 0 1.57098e-06 -0 0 1.90973e-06 -0 0 2.26207e-06 -0 0 2.63038e-06 -0 0 3.01716e-06 -0 0 3.42493e-06 -0 0 3.85625e-06 -0 0 4.31381e-06 -0 0 4.80027e-06 -0 0 5.31835e-06 -0 0 5.87081e-06 -0 0 6.46033e-06 -0 0 7.08955e-06 -0 0 7.76103e-06 -0 0 8.47709e-06 -0 0 9.23987e-06 -0 0 1.00511e-05 -0 0 1.09121e-05 -0 0 1.18238e-05 -0 0 1.2786e-05 -0 0 1.37982e-05 -0 0 1.48587e-05 -0 0 1.59647e-05 -0 0 1.71122e-05 -0 0 1.82961e-05 -0 0 1.95098e-05 -0 0 2.07451e-05 -0 0 0 -3.04415e-07 0 3.04097e-07 -3.05651e-07 0 6.10406e-07 -3.08927e-07 0 9.21097e-07 -3.14409e-07 0 1.23844e-06 -3.22263e-07 0 1.56468e-06 -3.32229e-07 0 1.9021e-06 -3.44666e-07 0 2.25309e-06 -3.59453e-07 0 2.62002e-06 -3.76507e-07 0 3.00537e-06 -3.96354e-07 0 3.41169e-06 -4.18572e-07 0 3.84152e-06 -4.43407e-07 0 4.29756e-06 -4.71048e-07 0 4.7825e-06 -5.012e-07 0 5.29904e-06 -5.34269e-07 0 5.84998e-06 -5.7002e-07 0 6.438e-06 -6.08295e-07 0 7.06579e-06 -6.49472e-07 0 7.73594e-06 -6.9293e-07 0 8.4508e-06 -7.38661e-07 0 9.21257e-06 -7.86451e-07 0 1.00231e-05 -8.35714e-07 0 1.08836e-05 -8.86148e-07 0 1.17952e-05 -9.37034e-07 0 1.27578e-05 -9.87666e-07 0 1.3771e-05 -1.03715e-06 0 1.4833e-05 -1.08447e-06 0 1.59411e-05 -1.1285e-06 0 1.70916e-05 -1.16795e-06 0 1.82793e-05 -1.2015e-06 0 1.94974e-05 -1.22776e-06 0 2.0738e-05 -1.24532e-06 0 0 -6.06618e-07 0 3.00828e-07 -6.09084e-07 0 6.03853e-07 -6.1562e-07 0 9.11228e-07 -6.26558e-07 0 1.22521e-06 -6.4223e-07 0 1.54803e-06 -6.62117e-07 0 1.88195e-06 -6.86938e-07 0 2.22937e-06 -7.16453e-07 0 2.59263e-06 -7.50499e-07 0 2.97421e-06 -7.9013e-07 0 3.37667e-06 -8.34505e-07 0 3.80256e-06 -8.84121e-07 0 4.2546e-06 -9.39362e-07 0 4.73547e-06 -9.99641e-07 0 5.24792e-06 -1.06578e-06 0 5.79481e-06 -1.13732e-06 0 6.37885e-06 -1.21395e-06 0 7.00283e-06 -1.29645e-06 0 7.66942e-06 -1.38357e-06 0 8.38108e-06 -1.47532e-06 0 9.14014e-06 -1.57129e-06 0 9.94856e-06 -1.6703e-06 0 1.08079e-05 -1.77179e-06 0 1.17192e-05 -1.87431e-06 0 1.26828e-05 -1.97646e-06 0 1.36983e-05 -2.07645e-06 0 1.47643e-05 -2.17225e-06 0 1.58783e-05 -2.26157e-06 0 1.70365e-05 -2.34184e-06 0 1.82339e-05 -2.41035e-06 0 1.9464e-05 -2.46428e-06 0 2.07186e-05 -2.50078e-06 0 0 -9.0446e-07 0 2.95395e-07 -9.08144e-07 0 5.92958e-07 -9.17908e-07 0 8.9482e-07 -9.34249e-07 0 1.20321e-06 -9.57666e-07 0 1.52033e-06 -9.87385e-07 0 1.84844e-06 -1.02448e-06 0 2.18989e-06 -1.06861e-06 0 2.54703e-06 -1.11952e-06 0 2.92235e-06 -1.17881e-06 0 3.31837e-06 -1.24522e-06 0 3.73767e-06 -1.3195e-06 0 4.18299e-06 -1.40226e-06 0 4.65704e-06 -1.49261e-06 0 5.16264e-06 -1.59182e-06 0 5.70269e-06 -1.69921e-06 0 6.28003e-06 -1.81434e-06 0 6.89755e-06 -1.93842e-06 0 7.55807e-06 -2.0696e-06 0 8.26424e-06 -2.20793e-06 0 9.01862e-06 -2.35283e-06 0 9.82341e-06 -2.50255e-06 0 1.06805e-05 -2.65631e-06 0 1.15911e-05 -2.81194e-06 0 1.25561e-05 -2.96735e-06 0 1.35754e-05 -3.11987e-06 0 1.46478e-05 -3.26645e-06 0 1.57712e-05 -3.4036e-06 0 1.69423e-05 -3.5274e-06 0 1.8156e-05 -3.63372e-06 0 1.94059e-05 -3.71818e-06 0 2.0684e-05 -3.77639e-06 0 0 -1.19574e-06 0 2.87689e-07 -1.20062e-06 0 5.77507e-07 -1.21356e-06 0 8.71545e-07 -1.23523e-06 0 1.172e-06 -1.26627e-06 0 1.48103e-06 -1.30569e-06 0 1.80087e-06 -1.3549e-06 0 2.13384e-06 -1.41345e-06 0 2.48228e-06 -1.48103e-06 0 2.84865e-06 -1.55978e-06 0 3.23548e-06 -1.64802e-06 0 3.64536e-06 -1.74679e-06 0 4.08104e-06 -1.85691e-06 0 4.5453e-06 -1.97723e-06 0 5.04102e-06 -2.10949e-06 0 5.57119e-06 -2.2528e-06 0 6.13878e-06 -2.40662e-06 0 6.74686e-06 -2.57267e-06 0 7.39845e-06 -2.74846e-06 0 8.09647e-06 -2.93417e-06 0 8.84379e-06 -3.12911e-06 0 9.64297e-06 -3.33095e-06 0 1.04963e-05 -3.53879e-06 0 1.14055e-05 -3.74975e-06 0 1.2372e-05 -3.96105e-06 0 1.3396e-05 -4.16919e-06 0 1.44771e-05 -4.37005e-06 0 1.56137e-05 -4.55892e-06 0 1.68026e-05 -4.73047e-06 0 1.80394e-05 -4.879e-06 0 1.93178e-05 -4.99847e-06 0 2.06296e-05 -5.08274e-06 0 0 -1.47833e-06 0 2.78027e-07 -1.48439e-06 0 5.58133e-07 -1.50045e-06 0 8.42358e-07 -1.52732e-06 0 1.13285e-06 -1.56585e-06 0 1.43172e-06 -1.61477e-06 0 1.74117e-06 -1.67587e-06 0 2.06348e-06 -1.74859e-06 0 2.40095e-06 -1.83257e-06 0 2.75603e-06 -1.93048e-06 0 3.13125e-06 -2.04028e-06 0 3.5292e-06 -2.16327e-06 0 3.95266e-06 -2.30053e-06 0 4.40446e-06 -2.45064e-06 0 4.88754e-06 -2.61588e-06 0 5.40505e-06 -2.79517e-06 0 5.96008e-06 -2.98788e-06 0 6.55591e-06 -3.19631e-06 0 7.19584e-06 -3.41741e-06 0 7.88309e-06 -3.6515e-06 0 8.62093e-06 -3.89788e-06 0 9.41239e-06 -4.15366e-06 0 1.02603e-05 -4.41794e-06 0 1.1167e-05 -4.68713e-06 0 1.21344e-05 -4.95781e-06 0 1.31637e-05 -5.22568e-06 0 1.4255e-05 -5.48556e-06 0 1.54075e-05 -5.73145e-06 0 1.66185e-05 -5.95651e-06 0 1.78842e-05 -6.15334e-06 0 1.91984e-05 -6.31403e-06 0 2.05532e-05 -6.43045e-06 0 0 -1.75018e-06 0 2.66178e-07 -1.75738e-06 0 5.34368e-07 -1.77646e-06 0 8.0655e-07 -1.80841e-06 0 1.0848e-06 -1.85422e-06 0 1.3712e-06 -1.91239e-06 0 1.66785e-06 -1.98509e-06 0 1.97702e-06 -2.07166e-06 0 2.30096e-06 -2.17167e-06 0 2.64208e-06 -2.28837e-06 0 3.0029e-06 -2.41934e-06 0 3.38601e-06 -2.56619e-06 0 3.79421e-06 -2.73025e-06 0 4.2304e-06 -2.9099e-06 0 4.69759e-06 -3.10795e-06 0 5.19906e-06 -3.3232e-06 0 5.73808e-06 -3.55497e-06 0 6.31817e-06 -3.80625e-06 0 6.94295e-06 -4.07338e-06 0 7.616e-06 -4.357e-06 0 8.3411e-06 -4.65646e-06 0 9.12184e-06 -4.96833e-06 0 9.96166e-06 -5.2919e-06 0 1.08638e-05 -5.62287e-06 0 1.1831e-05 -5.95726e-06 0 1.28653e-05 -6.29005e-06 0 1.39678e-05 -6.61494e-06 0 1.51386e-05 -6.92464e-06 0 1.63761e-05 -7.21066e-06 0 1.76769e-05 -7.46375e-06 0 1.90356e-05 -7.67386e-06 0 2.04442e-05 -7.83054e-06 0 0 -2.00922e-06 0 2.52356e-07 -2.01752e-06 0 5.06646e-07 -2.03952e-06 0 7.64772e-07 -2.07636e-06 0 1.02874e-06 -2.1292e-06 0 1.30053e-06 -2.19633e-06 0 1.58222e-06 -2.28025e-06 0 1.87598e-06 -2.38024e-06 0 2.18402e-06 -2.49584e-06 0 2.50871e-06 -2.63084e-06 0 2.85254e-06 -2.78247e-06 0 3.21808e-06 -2.95267e-06 0 3.60816e-06 -3.14309e-06 0 4.02572e-06 -3.35187e-06 0 4.47385e-06 -3.58245e-06 0 4.95597e-06 -3.83353e-06 0 5.47554e-06 -4.10442e-06 0 6.03634e-06 -4.39893e-06 0 6.64232e-06 -4.71285e-06 0 7.29752e-06 -5.04719e-06 0 8.00627e-06 -5.40151e-06 0 8.77282e-06 -5.77189e-06 0 9.60142e-06 -6.15802e-06 0 1.04963e-05 -6.55495e-06 0 1.14611e-05 -6.95818e-06 0 1.24992e-05 -7.36211e-06 0 1.36129e-05 -7.75937e-06 0 1.48035e-05 -8.14129e-06 0 1.60707e-05 -8.49768e-06 0 1.74121e-05 -8.81717e-06 0 1.88229e-05 -9.08728e-06 0 2.02957e-05 -9.2948e-06 0 0 -2.25352e-06 0 2.36746e-07 -2.26287e-06 0 4.75333e-07 -2.28766e-06 0 7.17571e-07 -2.32919e-06 0 9.65372e-07 -2.38876e-06 0 1.22064e-06 -2.46447e-06 0 1.48536e-06 -2.55917e-06 0 1.76163e-06 -2.67208e-06 0 2.05158e-06 -2.80269e-06 0 2.35753e-06 -2.95536e-06 0 2.68193e-06 -3.12702e-06 0 3.02732e-06 -3.31994e-06 0 3.39654e-06 -3.53608e-06 0 3.79255e-06 -3.77343e-06 0 4.21853e-06 -4.03608e-06 0 4.67801e-06 -4.32268e-06 0 5.17464e-06 -4.63262e-06 0 5.7125e-06 -4.97061e-06 0 6.29588e-06 -5.33194e-06 0 6.9293e-06 -5.71815e-06 0 7.6177e-06 -6.12917e-06 0 8.36608e-06 -6.56062e-06 0 9.17963e-06 -7.01287e-06 0 1.00636e-05 -7.4804e-06 0 1.10231e-05 -7.95832e-06 0 1.20627e-05 -8.44064e-06 0 1.31865e-05 -8.91893e-06 0 1.43972e-05 -9.38319e-06 0 1.56962e-05 -9.8214e-06 0 1.70826e-05 -1.02199e-05 0 1.85527e-05 -1.05633e-05 0 2.00996e-05 -1.08351e-05 0 0 -2.4812e-06 0 2.19096e-07 -2.49154e-06 0 4.39921e-07 -2.51898e-06 0 6.64179e-07 -2.56494e-06 0 8.9367e-07 -2.63089e-06 0 1.1302e-06 -2.71474e-06 0 1.37563e-06 -2.81968e-06 0 1.63198e-06 -2.94488e-06 0 1.90129e-06 -3.08981e-06 0 2.18579e-06 -3.2594e-06 0 2.48786e-06 -3.45028e-06 0 2.81e-06 -3.66508e-06 0 3.15503e-06 -3.90613e-06 0 3.5259e-06 -4.17126e-06 0 3.92585e-06 -4.46529e-06 0 4.35852e-06 -4.78688e-06 0 4.82775e-06 -5.13551e-06 0 5.33784e-06 -5.51701e-06 0 5.89349e-06 -5.92616e-06 0 6.4997e-06 -6.36522e-06 0 7.16207e-06 -6.83466e-06 0 7.88646e-06 -7.32971e-06 0 8.67907e-06 -7.85181e-06 0 9.54654e-06 -8.39492e-06 0 1.04953e-05 -8.954e-06 0 1.1532e-05 -9.52287e-06 0 1.26625e-05 -1.00922e-05 0 1.38918e-05 -1.06508e-05 0 1.52234e-05 -1.11846e-05 0 1.66587e-05 -1.16775e-05 0 1.81957e-05 -1.21108e-05 0 1.98287e-05 -1.24642e-05 0 0 -2.69048e-06 0 1.99863e-07 -2.70176e-06 0 4.01328e-07 -2.73166e-06 0 6.05976e-07 -2.78176e-06 0 8.15482e-07 -2.85368e-06 0 1.03152e-06 -2.94516e-06 0 1.25586e-06 -3.0597e-06 0 1.49037e-06 -3.19645e-06 0 1.73699e-06 -3.35487e-06 0 1.99786e-06 -3.54047e-06 0 2.27525e-06 -3.74958e-06 0 2.5716e-06 -3.98523e-06 0 2.88966e-06 -4.25011e-06 0 3.23238e-06 -4.54198e-06 0 3.60301e-06 -4.86641e-06 0 4.00526e-06 -5.22212e-06 0 4.44311e-06 -5.60878e-06 0 4.92112e-06 -6.03344e-06 0 5.44431e-06 -6.49047e-06 0 6.01819e-06 -6.98302e-06 0 6.64904e-06 -7.51231e-06 0 7.3436e-06 -8.07331e-06 0 8.1092e-06 -8.6689e-06 0 8.95392e-06 -9.29272e-06 0 9.88597e-06 -9.9398e-06 0 1.0914e-05 -1.06042e-05 0 1.20464e-05 -1.12759e-05 0 1.32908e-05 -1.19425e-05 0 1.46538e-05 -1.25883e-05 0 1.61394e-05 -1.31944e-05 0 1.77485e-05 -1.37383e-05 0 1.94772e-05 -1.4195e-05 0 0 -2.87974e-06 0 1.7904e-07 -2.89187e-06 0 3.5954e-07 -2.92405e-06 0 5.4294e-07 -2.97796e-06 0 7.30769e-07 -3.05537e-06 0 9.24567e-07 -3.15388e-06 0 1.12594e-06 -3.2773e-06 0 1.33665e-06 -3.42474e-06 0 1.55849e-06 -3.59569e-06 0 1.79345e-06 -3.79619e-06 0 2.0437e-06 -4.02235e-06 0 2.31157e-06 -4.27757e-06 0 2.5997e-06 -4.56497e-06 0 2.91099e-06 -4.88221e-06 0 3.24867e-06 -5.23571e-06 0 3.61647e-06 -5.6243e-06 0 4.01845e-06 -6.04789e-06 0 4.45936e-06 -6.51491e-06 0 4.94454e-06 -7.01939e-06 0 5.47993e-06 -7.56557e-06 0 6.07249e-06 -8.15566e-06 0 6.72982e-06 -8.7845e-06 0 7.46047e-06 -9.45688e-06 0 8.27409e-06 -1.01664e-05 0 9.18082e-06 -1.09084e-05 0 1.01918e-05 -1.16778e-05 0 1.13182e-05 -1.24643e-05 0 1.25713e-05 -1.32545e-05 0 1.39613e-05 -1.40314e-05 0 1.54964e-05 -1.47729e-05 0 1.71811e-05 -1.54528e-05 0 1.9015e-05 -1.60402e-05 0 0 -3.04744e-06 0 1.56699e-07 -3.06034e-06 0 3.14697e-07 -3.09456e-06 0 4.75277e-07 -3.1519e-06 0 6.39803e-07 -3.23428e-06 0 8.09654e-07 -3.33913e-06 0 9.86279e-07 -3.47059e-06 0 1.17126e-06 -3.62775e-06 0 1.36624e-06 -3.8101e-06 0 1.57305e-06 -4.02421e-06 0 1.79369e-06 -4.26601e-06 0 2.03033e-06 -4.53928e-06 0 2.2855e-06 -4.84754e-06 0 2.56195e-06 -5.18845e-06 0 2.86284e-06 -5.56927e-06 0 3.19185e-06 -5.98901e-06 0 3.55305e-06 -6.44788e-06 0 3.95129e-06 -6.95583e-06 0 4.39213e-06 -7.50666e-06 0 4.88188e-06 -8.10586e-06 0 5.42808e-06 -8.75693e-06 0 6.03918e-06 -9.45473e-06 0 6.7249e-06 -1.02065e-05 0 7.49653e-06 -1.10061e-05 0 8.36633e-06 -1.18498e-05 0 9.34817e-06 -1.27338e-05 0 1.04568e-05 -1.3648e-05 0 1.17077e-05 -1.45791e-05 0 1.31159e-05 -1.55087e-05 0 1.4695e-05 -1.64124e-05 0 1.64556e-05 -1.72594e-05 0 1.84023e-05 -1.80123e-05 0 0 -3.19223e-06 0 1.33166e-07 -3.2058e-06 0 2.67455e-07 -3.24181e-06 0 4.03976e-07 -3.30217e-06 0 5.43914e-07 -3.38891e-06 0 6.88468e-07 -3.49936e-06 0 8.38906e-07 -3.63792e-06 0 9.9662e-07 -3.80367e-06 0 1.16306e-06 -3.99614e-06 0 1.33987e-06 -4.22239e-06 0 1.52886e-06 -4.47818e-06 0 1.732e-06 -4.76769e-06 0 1.95163e-06 -5.09485e-06 0 2.19033e-06 -5.45732e-06 0 2.45109e-06 -5.86324e-06 0 2.73747e-06 -6.31185e-06 0 3.05347e-06 -6.80374e-06 0 3.40393e-06 -7.35047e-06 0 3.79452e-06 -7.94569e-06 0 4.23179e-06 -8.59639e-06 0 4.72375e-06 -9.30758e-06 0 5.27959e-06 -1.00744e-05 0 5.91011e-06 -1.0907e-05 0 6.62823e-06 -1.18e-05 0 7.44837e-06 -1.27511e-05 0 8.38739e-06 -1.37588e-05 0 9.46395e-06 -1.4814e-05 0 1.06984e-05 -1.59043e-05 0 1.21119e-05 -1.70108e-05 0 1.37254e-05 -1.81075e-05 0 1.55571e-05 -1.91593e-05 0 1.76198e-05 -2.01215e-05 0 0 -3.31291e-06 0 1.08447e-07 -3.32705e-06 0 2.17824e-07 -3.36458e-06 0 3.29052e-07 -3.4275e-06 0 4.43114e-07 -3.51795e-06 0 5.61012e-07 -3.63317e-06 0 6.8381e-07 -3.77777e-06 0 8.12682e-07 -3.95087e-06 0 9.48867e-07 -4.15202e-06 0 1.09377e-06 -4.38874e-06 0 1.24896e-06 -4.65666e-06 0 1.41617e-06 -4.96029e-06 0 1.59749e-06 -5.30403e-06 0 1.79524e-06 -5.68554e-06 0 2.01217e-06 -6.11384e-06 0 2.25159e-06 -6.58843e-06 0 2.5173e-06 -7.11034e-06 0 2.814e-06 -7.69282e-06 0 3.14727e-06 -8.32949e-06 0 3.52371e-06 -9.02898e-06 0 3.95159e-06 -9.79809e-06 0 4.44059e-06 -1.06324e-05 0 5.00241e-06 -1.15458e-05 0 5.65139e-06 -1.25339e-05 0 6.40401e-06 -1.35965e-05 0 7.28019e-06 -1.47356e-05 0 8.30281e-06 -1.59442e-05 0 9.49788e-06 -1.7212e-05 0 1.08941e-05 -1.85215e-05 0 1.25217e-05 -1.98461e-05 0 1.44101e-05 -2.11475e-05 0 1.65845e-05 -2.23736e-05 0 0 -3.40845e-06 0 8.28267e-08 -3.42305e-06 0 1.66377e-07 -3.46181e-06 0 2.51367e-07 -3.5268e-06 0 3.38567e-07 -3.62024e-06 0 4.28764e-07 -3.7393e-06 0 5.22795e-07 -3.88882e-06 0 6.21597e-07 -4.06791e-06 0 7.26163e-07 -4.27615e-06 0 8.37632e-07 -4.52145e-06 0 9.57296e-07 -4.79937e-06 0 1.0866e-06 -5.11476e-06 0 1.22731e-06 -5.47236e-06 0 1.38142e-06 -5.86996e-06 0 1.55134e-06 -6.31735e-06 0 1.74002e-06 -6.81437e-06 0 1.95093e-06 -7.36249e-06 0 2.18843e-06 -7.97668e-06 0 2.45782e-06 -8.65066e-06 0 2.76552e-06 -9.3948e-06 0 3.11976e-06 -1.02179e-05 0 3.53042e-06 -1.11163e-05 0 4.00972e-06 -1.21081e-05 0 4.57309e-06 -1.31904e-05 0 5.23879e-06 -1.43661e-05 0 6.02959e-06 -1.56417e-05 0 6.97255e-06 -1.70139e-05 0 8.09981e-06 -1.84761e-05 0 9.44854e-06 -2.00148e-05 0 1.10604e-05 -2.16051e-05 0 1.29798e-05 -2.32082e-05 0 1.52499e-05 -2.4766e-05 0 0 -3.47804e-06 0 5.65284e-08 -3.49299e-06 0 1.13562e-07 -3.53266e-06 0 1.71604e-07 -3.59919e-06 0 2.31195e-07 -3.69486e-06 0 2.92892e-07 -3.81681e-06 0 3.57292e-07 -3.97001e-06 0 4.25072e-07 -4.1536e-06 0 4.96955e-07 -4.36721e-06 0 5.73788e-07 -4.61905e-06 0 6.56541e-07 -4.90463e-06 0 7.46329e-07 -5.22909e-06 0 8.44523e-07 -5.59753e-06 0 9.52733e-07 -6.00781e-06 0 1.07292e-06 -6.47047e-06 0 1.20757e-06 -6.98568e-06 0 1.35965e-06 -7.55539e-06 0 1.53301e-06 -8.19619e-06 0 1.73244e-06 -8.90203e-06 0 1.96389e-06 -9.68511e-06 0 2.23521e-06 -1.05564e-05 0 2.55606e-06 -1.15131e-05 0 2.93874e-06 -1.25782e-05 0 3.39924e-06 -1.37507e-05 0 3.95704e-06 -1.50373e-05 0 4.63721e-06 -1.64506e-05 0 5.47065e-06 -1.79924e-05 0 6.49546e-06 -1.96626e-05 0 7.75785e-06 -2.14543e-05 0 9.31257e-06 -2.33487e-05 0 1.12223e-05 -2.53107e-05 0 1.35547e-05 -2.7281e-05 0 0 -3.52109e-06 0 2.96735e-08 -3.53626e-06 0 5.96245e-08 -3.5765e-06 0 9.01299e-08 -3.64401e-06 0 1.2149e-07 -3.74112e-06 0 1.54018e-07 -3.86492e-06 0 1.88056e-07 -4.0205e-06 0 2.23996e-07 -4.20701e-06 0 2.62272e-07 -4.42413e-06 0 3.034e-07 -4.68031e-06 0 3.47994e-07 -4.97102e-06 0 3.96778e-07 -5.30162e-06 0 4.50675e-07 -5.67752e-06 0 5.10806e-07 -6.09667e-06 0 5.78584e-07 -6.57024e-06 0 6.55865e-07 -7.09871e-06 0 7.4495e-07 -7.6845e-06 0 8.48906e-07 -8.3457e-06 0 9.7172e-07 -9.07656e-06 0 1.11849e-06 -9.89108e-06 0 1.29615e-06 -1.08024e-05 0 1.51356e-06 -1.1809e-05 0 1.78237e-06 -1.29387e-05 0 2.11817e-06 -1.41932e-05 0 2.54065e-06 -1.55837e-05 0 3.07603e-06 -1.713e-05 0 3.75779e-06 -1.88411e-05 0 4.62891e-06 -2.07259e-05 0 5.74394e-06 -2.27882e-05 0 7.17114e-06 -2.50206e-05 0 8.99436e-06 -2.73992e-05 0 1.13132e-05 -2.98729e-05 0 0 -3.5372e-06 0 2.57118e-09 -3.55245e-06 0 5.18605e-09 -3.59294e-06 0 7.88998e-09 -3.66085e-06 0 1.0736e-08 -3.75855e-06 0 1.37854e-08 -3.88313e-06 0 1.71133e-08 -4.03974e-06 0 2.08184e-08 -4.22753e-06 0 2.50242e-08 -4.44621e-06 0 2.9899e-08 -4.70437e-06 0 3.56684e-08 -4.9975e-06 0 4.26307e-08 -5.33112e-06 0 5.12093e-08 -5.71081e-06 0 6.19698e-08 -6.13465e-06 0 7.56909e-08 -6.61427e-06 0 9.34774e-08 -7.15045e-06 0 1.16802e-07 -7.74601e-06 0 1.47758e-07 -8.42028e-06 0 1.8923e-07 -9.16791e-06 0 2.45109e-07 -1.00045e-05 0 3.20963e-07 -1.09454e-05 0 4.24227e-07 -1.19904e-05 0 5.65106e-07 -1.31721e-05 0 7.57847e-07 -1.44955e-05 0 1.02115e-06 -1.59767e-05 0 1.38086e-06 -1.76439e-05 0 1.87131e-06 -1.95148e-05 0 2.53835e-06 -2.16102e-05 0 3.44269e-06 -2.39488e-05 0 4.66425e-06 -2.65412e-05 0 6.30737e-06 -2.93851e-05 0 8.50667e-06 -3.24528e-05 0 0 -3.5262e-06 0 -2.45763e-08 -3.54142e-06 0 -4.93454e-08 -3.58179e-06 0 -7.44967e-08 -3.64953e-06 0 -1.00228e-07 -3.74697e-06 0 -1.26735e-07 -3.87124e-06 0 -1.54215e-07 -4.02747e-06 0 -1.82873e-07 -4.21484e-06 0 -2.12904e-07 -4.43308e-06 0 -2.44508e-07 -4.69079e-06 0 -2.77867e-07 -4.98352e-06 0 -3.1314e-07 -5.31684e-06 0 -3.50448e-07 -5.69645e-06 0 -3.89839e-07 -6.12052e-06 0 -4.31252e-07 -6.60094e-06 0 -4.74448e-07 -7.13873e-06 0 -5.1894e-07 -7.73703e-06 0 -5.63826e-07 -8.41605e-06 0 -6.07621e-07 -9.1709e-06 0 -6.48034e-07 -1.00185e-05 0 -6.81423e-07 -1.09761e-05 0 -7.02484e-07 -1.20449e-05 0 -7.03401e-07 -1.3262e-05 0 -6.72557e-07 -1.46356e-05 0 -5.93845e-07 -1.61873e-05 0 -4.43891e-07 -1.79542e-05 0 -1.90195e-07 -1.9964e-05 0 2.1253e-07 -2.22514e-05 0 8.26904e-07 -2.48541e-05 0 1.7392e-06 -2.78073e-05 0 3.06827e-06 -3.11415e-05 0 4.97836e-06 -3.48721e-05 0 0 -3.48819e-06 0 -5.15235e-08 -3.50323e-06 0 -1.03475e-07 -3.54315e-06 0 -1.56278e-07 -3.61011e-06 0 -2.10382e-07 -3.70644e-06 0 -2.66236e-07 -3.82929e-06 0 -3.24313e-07 -3.98373e-06 0 -3.85123e-07 -4.16897e-06 0 -4.49187e-07 -4.38472e-06 0 -5.17074e-07 -4.63952e-06 0 -5.8939e-07 -4.92896e-06 0 -6.66769e-07 -5.2586e-06 0 -7.49902e-07 -5.63411e-06 0 -8.39495e-07 -6.05375e-06 0 -9.36268e-07 -6.52943e-06 0 -1.04094e-06 -7.06232e-06 0 -1.15414e-06 -7.65577e-06 0 -1.27636e-06 -8.3304e-06 0 -1.40778e-06 -9.08175e-06 0 -1.54811e-06 -9.92771e-06 0 -1.69618e-06 -1.08868e-05 0 -1.84959e-06 -1.19616e-05 0 -2.00395e-06 -1.31931e-05 0 -2.15174e-06 -1.45925e-05 0 -2.28135e-06 -1.61868e-05 0 -2.3745e-06 -1.80216e-05 0 -2.40398e-06 -2.01353e-05 0 -2.32976e-06 -2.25775e-05 0 -2.09377e-06 -2.54071e-05 0 -1.61246e-06 -2.86886e-05 0 -7.65556e-07 -3.2494e-05 0 6.2187e-07 -3.69002e-05 0 0 -3.42346e-06 0 -7.80796e-08 -3.4382e-06 0 -1.56818e-07 -3.47731e-06 0 -2.36869e-07 -3.54291e-06 0 -3.18925e-07 -3.63729e-06 0 -4.0369e-07 -3.75763e-06 0 -4.91905e-07 -3.90889e-06 0 -5.84379e-07 -4.09029e-06 0 -6.81955e-07 -4.30154e-06 0 -7.85571e-07 -4.55096e-06 0 -8.96255e-07 -4.83424e-06 0 -1.01511e-06 -5.15678e-06 0 -1.14342e-06 -5.52415e-06 0 -1.28255e-06 -5.93463e-06 0 -1.43403e-06 -6.39992e-06 0 -1.59958e-06 -6.9212e-06 0 -1.78104e-06 -7.50188e-06 0 -1.98041e-06 -8.16242e-06 0 -2.19973e-06 -8.89876e-06 0 -2.44098e-06 -9.7291e-06 0 -2.70593e-06 -1.06727e-05 0 -2.99569e-06 -1.17333e-05 0 -3.31022e-06 -1.29542e-05 0 -3.64738e-06 -1.43496e-05 0 -4.00184e-06 -1.59508e-05 0 -4.3629e-06 -1.78112e-05 0 -4.71207e-06 -1.99789e-05 0 -5.01929e-06 -2.25184e-05 0 -5.23778e-06 -2.55095e-05 0 -5.29676e-06 -2.90464e-05 0 -5.0905e-06 -3.32452e-05 0 -4.46023e-06 -3.82504e-05 0 0 -3.33255e-06 0 -1.03935e-07 -3.34685e-06 0 -2.0875e-07 -3.38482e-06 0 -3.15318e-07 -3.44851e-06 0 -4.24569e-07 -3.54011e-06 0 -5.37446e-07 -3.65688e-06 0 -6.54946e-07 -3.80361e-06 0 -7.78169e-07 -3.97952e-06 0 -9.08261e-07 -4.1843e-06 0 -1.04651e-06 -4.42594e-06 0 -1.19436e-06 -4.70025e-06 0 -1.35336e-06 -5.01239e-06 0 -1.52535e-06 -5.36765e-06 0 -1.71236e-06 -5.76434e-06 0 -1.91672e-06 -6.21362e-06 0 -2.14117e-06 -6.71661e-06 0 -2.38875e-06 -7.27655e-06 0 -2.66303e-06 -7.91312e-06 0 -2.96806e-06 -8.62255e-06 0 -3.30829e-06 -9.42265e-06 0 -3.6888e-06 -1.03326e-05 0 -4.11478e-06 -1.13568e-05 0 -4.59143e-06 -1.25391e-05 0 -5.12338e-06 -1.3896e-05 0 -5.71351e-06 -1.54616e-05 0 -6.36154e-06 -1.72951e-05 0 -7.06159e-06 -1.9453e-05 0 -7.79891e-06 -2.20119e-05 0 -8.54553e-06 -2.507e-05 0 -9.25463e-06 -2.8747e-05 0 -9.85296e-06 -3.31965e-05 0 -1.02296e-05 -3.86195e-05 0 0 -3.21623e-06 0 -1.28929e-07 -3.22999e-06 0 -2.58949e-07 -3.26649e-06 0 -3.91137e-07 -3.32772e-06 0 -5.26646e-07 -3.41576e-06 0 -6.66645e-07 -3.52795e-06 0 -8.12373e-07 -3.66888e-06 0 -9.65194e-07 -3.83773e-06 0 -1.12654e-06 -4.03417e-06 0 -1.29803e-06 -4.26578e-06 0 -1.48147e-06 -4.52847e-06 0 -1.67885e-06 -4.82707e-06 0 -1.89251e-06 -5.16648e-06 0 -2.1251e-06 -5.54497e-06 0 -2.37969e-06 -5.97292e-06 0 -2.65997e-06 -6.45122e-06 0 -2.97016e-06 -6.98274e-06 0 -3.31536e-06 -7.58572e-06 0 -3.70159e-06 -8.25655e-06 0 -4.13584e-06 -9.01178e-06 0 -4.6266e-06 -9.86949e-06 0 -5.18346e-06 -1.08342e-05 0 -5.8174e-06 -1.19481e-05 0 -6.54081e-06 -1.32286e-05 0 -7.36626e-06 -1.4711e-05 0 -8.30615e-06 -1.64569e-05 0 -9.37038e-06 -1.85284e-05 0 -1.05638e-05 -2.1011e-05 0 -1.18826e-05 -2.40161e-05 0 -1.33109e-05 -2.76814e-05 0 -1.48182e-05 -3.21835e-05 0 -1.63587e-05 -3.77542e-05 0 0 -3.07546e-06 0 -1.52876e-07 -3.08856e-06 0 -3.07036e-07 -3.1233e-06 0 -4.6375e-07 -3.18157e-06 0 -6.24376e-07 -3.26531e-06 0 -7.90289e-07 -3.372e-06 0 -9.62948e-07 -3.50592e-06 0 -1.14396e-06 -3.66626e-06 0 -1.33501e-06 -3.85265e-06 0 -1.53801e-06 -4.07214e-06 0 -1.75509e-06 -4.32078e-06 0 -1.9886e-06 -4.60297e-06 0 -2.24136e-06 -4.9231e-06 0 -2.51654e-06 -5.27938e-06 0 -2.81785e-06 -5.68115e-06 0 -3.14985e-06 -6.12893e-06 0 -3.51776e-06 -6.62502e-06 0 -3.92808e-06 -7.18556e-06 0 -4.38866e-06 -7.80688e-06 0 -4.90885e-06 -8.50347e-06 0 -5.50047e-06 -9.29113e-06 0 -6.1775e-06 -1.01738e-05 0 -6.95686e-06 -1.11895e-05 0 -7.8592e-06 -1.23547e-05 0 -8.90781e-06 -1.37036e-05 0 -1.01296e-05 -1.52961e-05 0 -1.15529e-05 -1.71962e-05 0 -1.32056e-05 -1.94939e-05 0 -1.51117e-05 -2.23083e-05 0 -1.7289e-05 -2.57872e-05 0 -1.97501e-05 -3.01149e-05 0 -2.25132e-05 -3.55224e-05 0 0 -2.91143e-06 0 -1.75529e-07 -2.92376e-06 0 -3.52517e-07 -2.95647e-06 0 -5.32408e-07 -3.01131e-06 0 -7.16741e-07 -3.09011e-06 0 -9.07078e-07 -3.19043e-06 0 -1.10507e-06 -3.31627e-06 0 -1.31253e-06 -3.4668e-06 0 -1.53136e-06 -3.6416e-06 0 -1.76373e-06 -3.84712e-06 0 -2.01201e-06 -4.07956e-06 0 -2.27889e-06 -4.34282e-06 0 -2.56751e-06 -4.6407e-06 0 -2.88148e-06 -4.97132e-06 0 -3.22503e-06 -5.34275e-06 0 -3.60334e-06 -5.75501e-06 0 -4.02248e-06 -6.20971e-06 0 -4.49006e-06 -6.72022e-06 0 -5.01539e-06 -7.28269e-06 0 -5.60983e-06 -7.90865e-06 0 -6.28808e-06 -8.61054e-06 0 -7.06807e-06 -9.39092e-06 0 -7.97231e-06 -1.02807e-05 0 -9.02959e-06 -1.12936e-05 0 -1.02743e-05 -1.24592e-05 0 -1.17489e-05 -1.38311e-05 0 -1.35027e-05 -1.54703e-05 0 -1.559e-05 -1.74664e-05 0 -1.80662e-05 -1.9942e-05 0 -2.09821e-05 -2.30505e-05 0 -2.43836e-05 -2.69762e-05 0 -2.83288e-05 -3.19255e-05 0 0 -2.72548e-06 0 -1.96737e-07 -2.73696e-06 0 -3.95089e-07 -2.7674e-06 0 -5.96651e-07 -2.8184e-06 0 -8.03124e-07 -2.89166e-06 0 -1.01623e-06 -2.98487e-06 0 -1.23777e-06 -3.10168e-06 0 -1.46975e-06 -3.24125e-06 0 -1.71425e-06 -3.40313e-06 0 -1.9736e-06 -3.59309e-06 0 -2.25041e-06 -3.80752e-06 0 -2.54756e-06 -4.04975e-06 0 -2.86846e-06 -4.32295e-06 0 -3.21698e-06 -4.62512e-06 0 -3.59769e-06 -4.9629e-06 0 -4.01622e-06 -5.33577e-06 0 -4.47913e-06 -5.74443e-06 0 -4.99475e-06 -6.19913e-06 0 -5.57341e-06 -6.69558e-06 0 -6.22782e-06 -7.24171e-06 0 -6.97479e-06 -7.84552e-06 0 -7.83526e-06 -8.50738e-06 0 -8.83629e-06 -9.24827e-06 0 -1.00137e-05 -1.0077e-05 0 -1.14123e-05 -1.10148e-05 0 -1.30902e-05 -1.21026e-05 0 -1.51194e-05 -1.33924e-05 0 -1.75852e-05 -1.49666e-05 0 -2.05802e-05 -1.69477e-05 0 -2.4191e-05 -1.94995e-05 0 -2.84827e-05 -2.28157e-05 0 -3.35068e-05 -2.70802e-05 0 0 -2.51915e-06 0 -2.16348e-07 -2.52969e-06 0 -4.34444e-07 -2.55764e-06 0 -6.56015e-07 -2.60445e-06 0 -8.82898e-07 -2.67165e-06 0 -1.11695e-06 -2.7571e-06 0 -1.3601e-06 -2.86407e-06 0 -1.6145e-06 -2.99173e-06 0 -1.88234e-06 -3.13957e-06 0 -2.16611e-06 -3.31269e-06 0 -2.46853e-06 -3.50765e-06 0 -2.79262e-06 -3.72724e-06 0 -3.14192e-06 -3.97392e-06 0 -3.52043e-06 -4.24559e-06 0 -3.93285e-06 -4.54742e-06 0 -4.38494e-06 -4.87826e-06 0 -4.88347e-06 -5.2379e-06 0 -5.43699e-06 -5.63315e-06 0 -6.05618e-06 -6.0592e-06 0 -6.7543e-06 -6.51988e-06 0 -7.54911e-06 -7.01806e-06 0 -8.46313e-06 -7.55113e-06 0 -9.52615e-06 -8.1279e-06 0 -1.07788e-05 -8.74984e-06 0 -1.22737e-05 -9.4257e-06 0 -1.4083e-05 -1.01766e-05 0 -1.63016e-05 -1.10361e-05 0 -1.9051e-05 -1.20684e-05 0 -2.24752e-05 -1.33888e-05 0 -2.67159e-05 -1.51819e-05 0 -3.18572e-05 -1.76948e-05 0 -3.78792e-05 -2.11456e-05 0 0 -2.29409e-06 0 -2.34221e-07 -2.30362e-06 0 -4.70303e-07 -2.3289e-06 0 -7.10083e-07 -2.37122e-06 0 -9.55508e-07 -2.43193e-06 0 -1.20854e-06 -2.50907e-06 0 -1.47122e-06 -2.60554e-06 0 -1.74578e-06 -2.72051e-06 0 -2.03452e-06 -2.85344e-06 0 -2.33998e-06 -3.00872e-06 0 -2.66497e-06 -3.18315e-06 0 -3.01253e-06 -3.37893e-06 0 -3.38622e-06 -3.59788e-06 0 -3.79e-06 -3.83781e-06 0 -4.22849e-06 -4.10242e-06 0 -4.70734e-06 -4.38997e-06 0 -5.23307e-06 -4.69934e-06 0 -5.81396e-06 -5.03394e-06 0 -6.4603e-06 -5.38835e-06 0 -7.18492e-06 -5.76222e-06 0 -8.00512e-06 -6.15297e-06 0 -8.94307e-06 -6.55458e-06 0 -1.00287e-05 -6.9623e-06 0 -1.13036e-05 -7.36831e-06 0 -1.2824e-05 -7.76524e-06 0 -1.46704e-05 -8.14666e-06 0 -1.6956e-05 -8.51498e-06 0 -1.9841e-05 -8.89536e-06 0 -2.35426e-05 -9.37008e-06 0 -2.83168e-05 -1.01421e-05 0 -3.43383e-05 -1.16004e-05 0 -4.14503e-05 -1.41935e-05 0 0 -2.05209e-06 0 -2.5025e-07 -2.06056e-06 0 -5.02453e-07 -2.08301e-06 0 -7.58534e-07 -2.12059e-06 0 -1.02053e-06 -2.17446e-06 0 -1.29048e-06 -2.24286e-06 0 -1.57051e-06 -2.32829e-06 0 -1.86291e-06 -2.42997e-06 0 -2.17001e-06 -2.54734e-06 0 -2.49441e-06 -2.68408e-06 0 -2.83889e-06 -2.83726e-06 0 -3.20645e-06 -3.00855e-06 0 -3.60054e-06 -3.19915e-06 0 -4.02497e-06 -3.40685e-06 0 -4.48407e-06 -3.63399e-06 0 -4.98306e-06 -3.87835e-06 0 -5.5279e-06 -4.13797e-06 0 -6.12604e-06 -4.41315e-06 0 -6.78665e-06 -4.69797e-06 0 -7.5211e-06 -4.98816e-06 0 -8.34466e-06 -5.27599e-06 0 -9.27702e-06 -5.55204e-06 0 -1.03449e-05 -5.79814e-06 0 -1.15865e-05 -5.99635e-06 0 -1.30541e-05 -6.12122e-06 0 -1.48265e-05 -6.13319e-06 0 -1.70215e-05 -5.99018e-06 0 -1.98236e-05 -5.64754e-06 0 -2.353e-05 -5.08938e-06 0 -2.86114e-05 -4.4419e-06 0 -3.5644e-05 -4.28942e-06 0 -4.4477e-05 -5.95616e-06 0 0 -1.79504e-06 0 -2.64343e-07 -1.8024e-06 0 -5.30713e-07 -1.8219e-06 0 -8.01104e-07 -1.85454e-06 0 -1.07762e-06 -1.90129e-06 0 -1.36236e-06 -1.96061e-06 0 -1.65749e-06 -2.03462e-06 0 -1.96535e-06 -2.12256e-06 0 -2.28828e-06 -2.22391e-06 0 -2.62884e-06 -2.34167e-06 0 -2.98978e-06 -2.47321e-06 0 -3.37396e-06 -2.61974e-06 0 -3.78466e-06 -2.78192e-06 0 -4.22537e-06 -2.95758e-06 0 -4.70001e-06 -3.14791e-06 0 -5.21312e-06 -3.35036e-06 0 -5.76979e-06 -3.56234e-06 0 -6.37617e-06 -3.78159e-06 0 -7.03965e-06 -4.00188e-06 0 -7.76919e-06 -4.21578e-06 0 -8.57662e-06 -4.41133e-06 0 -9.47701e-06 -4.57629e-06 0 -1.04908e-05 -4.68111e-06 0 -1.1647e-05 -4.69879e-06 0 -1.29863e-05 -4.58711e-06 0 -1.4571e-05 -4.27414e-06 0 -1.64983e-05 -3.66846e-06 0 -1.89324e-05 -2.63257e-06 0 -2.21786e-05 -9.64963e-07 0 -2.68894e-05 1.57979e-06 0 -3.46696e-05 4.89334e-06 0 -4.78977e-05 5.21953e-06 0 0 -1.52491e-06 0 -2.76429e-07 -1.53112e-06 0 -5.5494e-07 -1.54759e-06 0 -8.37581e-07 -1.57512e-06 0 -1.12651e-06 -1.61455e-06 0 -1.42385e-06 -1.66454e-06 0 -1.73182e-06 -1.72683e-06 0 -2.05274e-06 -1.80075e-06 0 -2.38895e-06 -1.8858e-06 0 -2.74297e-06 -1.98436e-06 0 -3.11744e-06 -2.09414e-06 0 -3.51507e-06 -2.21596e-06 0 -3.93887e-06 -2.35007e-06 0 -4.39194e-06 -2.49443e-06 0 -4.87766e-06 -2.64934e-06 0 -5.39977e-06 -2.81211e-06 0 -5.96223e-06 -2.97981e-06 0 -6.56957e-06 -3.14839e-06 0 -7.22693e-06 -3.31165e-06 0 -7.94016e-06 -3.4601e-06 0 -8.71653e-06 -3.57908e-06 0 -9.56485e-06 -3.65468e-06 0 -1.04965e-05 -3.64989e-06 0 -1.15274e-05 -3.53178e-06 0 -1.26788e-05 -3.24687e-06 0 -1.3983e-05 -2.70099e-06 0 -1.54892e-05 -1.76716e-06 0 -1.72779e-05 -2.35428e-07 0 -1.94965e-05 2.26856e-06 0 -2.24715e-05 6.5084e-06 0 -2.72737e-05 1.46238e-05 0 -3.29431e-05 3.87333e-05 0 </DataArray> 
</PointData> 
<Points> 
<DataArray type="Float32" NumberOfComponents="3"> 