<?xml version="1.0"?> 
<VTKFile type="StructuredGrid" version="0.1"> 
<StructuredGrid WholeExtent="0 31 0 31 0 0"> 
<Piece Extent="0 31 0 31 0 0"> 
<PointData>
<DataArray type="Float32" Name="B" format="ascii" NumberOfComponents="3"> 
0 1.71262e-06 0 3.10508e-07 1.71958e-06 0 6.23352e-07 1.73803e-06 0 9.40828e-07 1.76888e-06 0 1.26535e-06 1.81304e-06 0 1.59932e-06 1.86903e-06 0 1.9452e-06 1.93878e-06 0 2.3056e-06 2.02154e-06 0 2.68315e-06 2.11673e-06 0 3.08067e-06 2.22699e-06 0 3.5011e-06 2.34975e-06 0 3.9475e-06 2.48589e-06 0 4.42321e-06 2.63565e-06 0 4.93173e-06 2.79672e-06 0 5.4768e-06 2.96933e-06 0 6.06263e-06 3.15041e-06 0 6.69363e-06 3.33662e-06 0 7.37487e-06 3.52315e-06 0 8.11208e-06 3.703e-06 0 8.9118e-06 3.86522e-06 0 9.78217e-06 3.99299e-06 0 1.0733e-05 4.07046e-06 0 1.17772e-05 4.0552e-06 0 1.29322e-05 3.9096e-06 0 1.42223e-05 3.57251e-06 0 1.56835e-05 2.93609e-06 0 1.73707e-05 1.85476e-06 0 1.93743e-05 8.693e-08 0 2.18593e-05 -2.80062e-06 0 2.51939e-05 -7.70101e-06 0 3.06063e-05 -1.71725e-05 0 3.53594e-05 -4.85441e-05 0 0 1.60861e-06 0 3.14508e-07 1.61513e-06 0 6.31369e-07 1.63242e-06 0 9.52895e-07 1.66133e-06 0 1.28151e-06 1.70272e-06 0 1.61963e-06 1.75517e-06 0 1.96972e-06 1.82049e-06 0 2.3344e-06 1.89796e-06 0 2.71627e-06 1.98701e-06 0 3.11813e-06 2.09008e-06 0 3.54289e-06 2.20473e-06 0 3.99351e-06 2.3317e-06 0 4.47326e-06 2.47114e-06 0 4.98544e-06 2.62077e-06 0 5.5336e-06 2.78061e-06 0 6.12159e-06 2.94758e-06 0 6.75337e-06 3.11827e-06 0 7.43335e-06 3.28746e-06 0 8.16632e-06 3.44824e-06 0 8.95754e-06 3.58923e-06 0 9.81322e-06 3.69308e-06 0 1.07406e-05 3.74368e-06 0 1.17485e-05 3.69707e-06 0 1.28489e-05 3.51454e-06 0 1.40574e-05 3.13279e-06 0 1.53962e-05 2.43986e-06 0 1.68973e-05 1.28409e-06 0 1.86076e-05 -5.87287e-07 0 2.05969e-05 -3.63112e-06 0 2.29619e-05 -8.80302e-06 0 2.56848e-05 -1.88958e-05 0 1.85128e-05 -4.929e-05 0 0 1.5033e-06 0 3.18249e-07 1.50939e-06 0 6.38866e-07 1.52552e-06 0 9.64176e-07 1.55248e-06 0 1.29662e-06 1.59107e-06 0 1.63861e-06 1.63997e-06 0 1.99263e-06 1.70084e-06 0 2.36129e-06 1.773e-06 0 2.74717e-06 1.8559e-06 0 3.15306e-06 1.95178e-06 0 3.5818e-06 2.05833e-06 0 4.03631e-06 2.17619e-06 0 4.5197e-06 2.30539e-06 0 5.03517e-06 2.44376e-06 0 5.58599e-06 2.59108e-06 0 6.17569e-06 2.7443e-06 0 6.80777e-06 2.90003e-06 0 7.48596e-06 3.05273e-06 0 8.2141e-06 3.19563e-06 0 8.99613e-06 3.31711e-06 0 9.83633e-06 3.39954e-06 0 1.07392e-05 3.42675e-06 0 1.17096e-05 3.35398e-06 0 1.27537e-05 3.14203e-06 0 1.38781e-05 2.72665e-06 0 1.5091e-05 1.99416e-06 0 1.64009e-05 7.91237e-07 0 1.78104e-05 -1.1359e-06 0 1.92929e-05 -4.23874e-06 0 2.06794e-05 -9.42486e-06 0 2.08978e-05 -1.89974e-05 0 9.67809e-06 -3.69992e-05 0 0 1.3968e-06 0 3.21729e-07 1.40244e-06 0 6.4584e-07 1.4174e-06 0 9.74669e-07 1.4424e-06 0 1.31067e-06 1.47818e-06 0 1.65626e-06 1.52351e-06 0 2.01392e-06 1.57991e-06 0 2.38626e-06 1.64675e-06 0 2.77586e-06 1.72351e-06 0 3.18545e-06 1.81219e-06 0 3.61785e-06 1.91068e-06 0 4.07589e-06 2.01948e-06 0 4.56259e-06 2.13854e-06 0 5.08096e-06 2.2658e-06 0 5.63407e-06 2.40085e-06 0 6.22508e-06 2.54073e-06 0 6.85705e-06 2.68207e-06 0 7.53302e-06 2.81912e-06 0 8.2559e-06 2.94535e-06 0 9.02828e-06 3.04905e-06 0 9.85248e-06 3.11259e-06 0 1.07303e-05 3.11997e-06 0 1.16626e-05 3.0263e-06 0 1.26495e-05 2.79257e-06 0 1.36889e-05 2.35473e-06 0 1.47751e-05 1.59985e-06 0 1.58932e-05 3.77196e-07 0 1.70041e-05 -1.5583e-06 0 1.79942e-05 -4.62651e-06 0 1.84839e-05 -9.5995e-06 0 1.68755e-05 -1.79643e-05 0 5.99975e-06 -2.91678e-05 0 0 1.28918e-06 0 3.24947e-07 1.29438e-06 0 6.52287e-07 1.30815e-06 0 9.84368e-07 1.33119e-06 0 1.32365e-06 1.36415e-06 0 1.67256e-06 1.40589e-06 0 2.03358e-06 1.45781e-06 0 2.40931e-06 1.51932e-06 0 2.80232e-06 1.58992e-06 0 3.21532e-06 1.67143e-06 0 3.65105e-06 1.76187e-06 0 4.1123e-06 1.86167e-06 0 4.60197e-06 1.97071e-06 0 5.1229e-06 2.08702e-06 0 5.67794e-06 2.21007e-06 0 6.26992e-06 2.33699e-06 0 6.90144e-06 2.46449e-06 0 7.57488e-06 2.58676e-06 0 8.29219e-06 2.69751e-06 0 9.05467e-06 2.78518e-06 0 9.86269e-06 2.83237e-06 0 1.07153e-05 2.82345e-06 0 1.16095e-05 2.71414e-06 0 1.25395e-05 2.46623e-06 0 1.34945e-05 2.01704e-06 0 1.44554e-05 1.25668e-06 0 1.53857e-05 4.08802e-08 0 1.6209e-05 -1.85849e-06 0 1.67425e-05 -4.81025e-06 0 1.64751e-05 -9.40537e-06 0 1.37495e-05 -1.63688e-05 0 4.16361e-06 -2.36577e-05 0 0 1.18053e-06 0 3.279e-07 1.18528e-06 0 6.58203e-07 1.19788e-06 0 9.93268e-07 1.21893e-06 0 1.33556e-06 1.24906e-06 0 1.68752e-06 1.2872e-06 0 2.05161e-06 1.33464e-06 0 2.43044e-06 1.39081e-06 0 2.82656e-06 1.45524e-06 0 3.24265e-06 1.5296e-06 0 3.68141e-06 1.61203e-06 0 4.14555e-06 1.70288e-06 0 4.63786e-06 1.802e-06 0 5.16103e-06 1.90753e-06 0 5.7177e-06 2.01884e-06 0 6.31036e-06 2.13318e-06 0 6.94116e-06 2.24741e-06 0 7.61185e-06 2.35572e-06 0 8.32344e-06 2.45219e-06 0 9.07597e-06 2.52553e-06 0 9.8679e-06 2.55885e-06 0 1.06956e-05 2.53711e-06 0 1.15524e-05 2.41733e-06 0 1.24266e-05 2.16269e-06 0 1.32993e-05 1.71297e-06 0 1.41388e-05 9.63366e-07 0 1.48892e-05 -2.20694e-07 0 1.54435e-05 -2.04439e-06 0 1.55705e-05 -4.81459e-06 0 1.47061e-05 -8.93654e-06 0 1.13943e-05 -1.45857e-05 0 3.11914e-06 -1.95269e-05 0 0 1.07094e-06 0 3.30588e-07 1.07524e-06 0 6.63589e-07 1.08665e-06 0 1.00137e-06 1.10573e-06 0 1.3464e-06 1.133e-06 0 1.70112e-06 1.16754e-06 0 2.06801e-06 1.21048e-06 0 2.44965e-06 1.2613e-06 0 2.84859e-06 1.31958e-06 0 3.26746e-06 1.38679e-06 0 3.70895e-06 1.46124e-06 0 4.17567e-06 1.54321e-06 0 4.67032e-06 1.63251e-06 0 5.19545e-06 1.72742e-06 0 5.75346e-06 1.82724e-06 0 6.34655e-06 1.92939e-06 0 6.97645e-06 2.03088e-06 0 7.64426e-06 2.12606e-06 0 8.35014e-06 2.20939e-06 0 9.09287e-06 2.27006e-06 0 9.86912e-06 2.29193e-06 0 1.06727e-05 2.26073e-06 0 1.14933e-05 2.13547e-06 0 1.23137e-05 1.88127e-06 0 1.31076e-05 1.44133e-06 0 1.38315e-05 7.17699e-07 0 1.44134e-05 -4.1209e-07 0 1.47225e-05 -2.12667e-06 0 1.45002e-05 -4.66841e-06 0 1.31899e-05 -8.27982e-06 0 9.62794e-06 -1.28046e-05 0 2.46744e-06 -1.62735e-05 0 0 9.60497e-07 0 3.3301e-07 9.64355e-07 0 6.68441e-07 9.74574e-07 0 1.00866e-06 9.91654e-07 0 1.35616e-06 1.01608e-06 0 1.71337e-06 1.047e-06 0 2.08277e-06 1.08543e-06 0 2.46694e-06 1.13091e-06 0 2.8684e-06 1.18304e-06 0 3.28977e-06 1.24311e-06 0 3.73368e-06 1.30961e-06 0 4.20269e-06 1.38277e-06 0 4.6994e-06 1.46235e-06 0 5.2262e-06 1.54679e-06 0 5.78532e-06 1.63537e-06 0 6.37865e-06 1.72568e-06 0 7.00752e-06 1.81494e-06 0 7.67243e-06 1.89778e-06 0 8.37273e-06 1.96906e-06 0 9.10602e-06 2.01863e-06 0 9.86725e-06 2.03135e-06 0 1.06479e-05 1.99391e-06 0 1.14341e-05 1.8679e-06 0 1.22037e-05 1.62092e-06 0 1.29233e-05 1.20039e-06 0 1.35395e-05 5.16659e-07 0 1.39666e-05 -5.39081e-07 0 1.40577e-05 -2.11764e-06 0 1.35443e-05 -4.40082e-06 0 1.19156e-05 -7.50425e-06 0 8.2974e-06 -1.11051e-05 0 2.03402e-06 -1.36091e-05 0 0 8.49295e-07 0 3.35162e-07 8.52702e-07 0 6.72752e-07 8.61726e-07 0 1.01515e-06 8.76808e-07 0 1.36483e-06 8.98374e-07 0 1.72425e-06 9.25669e-07 0 2.09588e-06 9.59591e-07 0 2.48228e-06 9.99717e-07 0 2.88597e-06 1.0457e-06 0 3.30955e-06 1.09865e-06 0 3.75559e-06 1.15724e-06 0 4.2266e-06 1.22164e-06 0 4.72509e-06 1.2916e-06 0 5.25333e-06 1.36573e-06 0 5.81334e-06 1.44329e-06 0 6.40675e-06 1.5221e-06 0 7.03452e-06 1.59962e-06 0 7.69662e-06 1.67083e-06 0 8.39159e-06 1.7311e-06 0 9.11598e-06 1.77105e-06 0 9.86316e-06 1.77676e-06 0 1.06224e-05 1.73609e-06 0 1.13766e-05 1.61375e-06 0 1.20991e-05 1.38025e-06 0 1.27503e-05 9.87961e-07 0 1.32682e-05 3.56578e-07 0 1.35565e-05 -6.08265e-07 0 1.34584e-05 -2.03021e-06 0 1.27094e-05 -4.03852e-06 0 1.08632e-05 -6.65954e-06 0 7.29134e-06 -9.51205e-06 0 1.73357e-06 -1.13564e-05 0 0 7.37419e-07 0 3.3705e-07 7.40374e-07 0 6.76533e-07 7.48201e-07 0 1.02083e-06 7.61281e-07 0 1.37244e-06 7.79982e-07 0 1.73379e-06 8.03648e-07 0 2.10737e-06 8.33054e-07 0 2.49573e-06 8.67828e-07 0 2.90137e-06 9.07665e-07 0 3.32686e-06 9.53521e-07 0 3.77476e-06 1.00423e-06 0 4.2475e-06 1.05991e-06 0 4.74752e-06 1.12035e-06 0 5.27696e-06 1.18429e-06 0 5.83768e-06 1.25105e-06 0 6.43108e-06 1.31868e-06 0 7.05775e-06 1.3849e-06 0 7.71717e-06 1.44516e-06 0 8.4072e-06 1.49536e-06 0 9.1234e-06 1.52704e-06 0 9.85769e-06 1.52773e-06 0 1.05973e-05 1.48656e-06 0 1.13224e-05 1.37193e-06 0 1.20022e-05 1.1576e-06 0 1.25916e-05 8.0146e-07 0 1.30216e-05 2.33289e-07 0 1.31878e-05 -6.26713e-07 0 1.29288e-05 -1.87703e-06 0 1.19924e-05 -3.60438e-06 0 1.00016e-05 -5.77903e-06 0 6.52151e-06 -8.02502e-06 0 1.51698e-06 -9.40012e-06 0 0 6.24959e-07 0 3.38669e-07 6.27461e-07 0 6.79776e-07 6.34088e-07 0 1.02571e-06 6.45162e-07 0 1.37896e-06 6.60994e-07 0 1.74197e-06 6.81026e-07 0 2.11721e-06 7.05912e-07 0 2.50725e-06 7.35335e-07 0 2.91456e-06 7.69032e-07 0 3.34169e-06 8.07804e-07 0 3.79116e-06 8.50657e-07 0 4.26537e-06 8.97686e-07 0 4.76667e-06 9.48673e-07 0 5.29711e-06 1.00256e-06 0 5.85839e-06 1.05871e-06 0 6.4517e-06 1.11543e-06 0 7.07731e-06 1.17075e-06 0 7.7343e-06 1.22067e-06 0 8.41988e-06 1.26163e-06 0 9.12875e-06 1.28627e-06 0 9.85156e-06 1.28371e-06 0 1.05738e-05 1.24451e-06 0 1.12731e-05 1.14118e-06 0 1.19151e-05 9.51064e-07 0 1.24503e-05 6.37974e-07 0 1.28037e-05 1.42263e-07 0 1.28654e-05 -6.01682e-07 0 1.24731e-05 -1.67001e-06 0 1.13915e-05 -3.11711e-06 0 9.30868e-06 -4.88362e-06 0 5.9349e-06 -6.633e-06 0 1.35901e-06 -7.66113e-06 0 0 5.12005e-07 0 3.40019e-07 5.14053e-07 0 6.82481e-07 5.19478e-07 0 1.02978e-06 5.28543e-07 0 1.3844e-06 5.41501e-07 0 1.74879e-06 5.57896e-07 0 2.12542e-06 5.78259e-07 0 2.51685e-06 6.02332e-07 0 2.92554e-06 6.29894e-07 0 3.35404e-06 6.61596e-07 0 3.80482e-06 6.9662e-07 0 4.28024e-06 7.35035e-07 0 4.78258e-06 7.76649e-07 0 5.31383e-06 8.20584e-07 0 5.87554e-06 8.66284e-07 0 6.46871e-06 9.12349e-07 0 7.09338e-06 9.57116e-07 0 7.74823e-06 9.97213e-07 0 8.42994e-06 1.02968e-06 0 9.13249e-06 1.04834e-06 0 9.84542e-06 1.04407e-06 0 1.05527e-05 1.00898e-06 0 1.12299e-05 9.20066e-07 0 1.18397e-05 7.58497e-07 0 1.23288e-05 4.94332e-07 0 1.26176e-05 7.87312e-08 0 1.25926e-05 -5.40398e-07 0 1.20929e-05 -1.41999e-06 0 1.09015e-05 -2.59145e-06 0 8.76268e-06 -3.98548e-06 0 5.49138e-06 -5.32116e-06 0 1.24326e-06 -6.08262e-06 0 0 3.98646e-07 0 3.41101e-07 4.0024e-07 0 6.84646e-07 4.04461e-07 0 1.03303e-06 4.11514e-07 0 1.38875e-06 4.21595e-07 0 1.75425e-06 4.3435e-07 0 2.13199e-06 4.5019e-07 0 2.52453e-06 4.68911e-07 0 2.93433e-06 4.90344e-07 0 3.36391e-06 5.14987e-07 0 3.81573e-06 5.42204e-07 0 4.29211e-06 5.72042e-07 0 4.79529e-06 6.04344e-07 0 5.32715e-06 6.38419e-07 0 5.88919e-06 6.73813e-07 0 6.48222e-06 7.09422e-07 0 7.10608e-06 7.4393e-07 0 7.75914e-06 7.74647e-07 0 8.43765e-06 7.99244e-07 0 9.13499e-06 8.12811e-07 0 9.83981e-06 8.08113e-07 0 1.05349e-05 7.78923e-07 0 1.1194e-05 7.07024e-07 0 1.17775e-05 5.77592e-07 0 1.22291e-05 3.67158e-07 0 1.24659e-05 3.778e-08 0 1.23719e-05 -4.49924e-07 0 1.17891e-05 -1.13667e-06 0 1.05172e-05 -2.03876e-06 0 8.34589e-06 -3.0908e-06 0 5.16323e-06 -4.07382e-06 0 1.15953e-06 -4.62191e-06 0 0 2.84972e-07 0 3.41912e-07 2.86111e-07 0 6.86272e-07 2.89127e-07 0 1.03547e-06 2.94166e-07 0 1.39202e-06 3.01369e-07 0 1.75834e-06 3.1048e-07 0 2.13692e-06 3.21796e-07 0 2.5303e-06 3.35168e-07 0 2.94093e-06 3.50473e-07 0 3.37132e-06 3.68069e-07 0 3.82391e-06 3.87497e-07 0 4.30101e-06 4.08788e-07 0 4.8048e-06 4.31824e-07 0 5.33713e-06 4.56111e-07 0 5.89939e-06 4.81312e-07 0 6.49229e-06 5.06629e-07 0 7.11551e-06 5.31109e-07 0 7.76719e-06 5.52795e-07 0 8.44324e-06 5.70008e-07 0 9.13659e-06 5.79187e-07 0 9.8352e-06 5.75089e-07 0 1.05209e-05 5.53213e-07 0 1.11663e-05 5.00376e-07 0 1.17297e-05 4.05898e-07 0 1.21528e-05 2.52928e-07 0 1.23504e-05 1.44185e-08 0 1.2205e-05 -3.37093e-07 0 1.15615e-05 -8.28695e-07 0 1.02336e-05 -1.46772e-06 0 8.04461e-06 -2.20188e-06 0 4.93135e-06 -2.87559e-06 0 1.10128e-06 -3.24544e-06 0 0 1.71074e-07 0 3.42454e-07 1.71757e-07 0 6.87358e-07 1.73567e-07 0 1.03711e-06 1.76591e-07 0 1.3942e-06 1.80913e-07 0 1.76108e-06 1.86381e-07 0 2.14022e-06 1.9317e-07 0 2.53415e-06 2.01193e-07 0 2.94533e-06 2.10375e-07 0 3.37626e-06 2.20929e-07 0 3.82937e-06 2.32581e-07 0 4.30694e-06 2.45347e-07 0 4.81114e-06 2.59154e-07 0 5.34377e-06 2.73705e-07 0 5.90617e-06 2.88793e-07 0 6.49898e-06 3.03935e-07 0 7.12176e-06 3.18556e-07 0 7.77249e-06 3.31465e-07 0 8.44688e-06 3.41649e-07 0 9.13752e-06 3.4695e-07 0 9.83193e-06 3.44193e-07 0 1.05113e-05 3.30654e-07 0 1.11473e-05 2.98357e-07 0 1.16973e-05 2.40857e-07 0 1.21013e-05 1.48013e-07 0 1.22725e-05 3.62487e-09 0 1.2093e-05 -2.08499e-07 0 1.14099e-05 -5.03793e-07 0 1.00467e-05 -8.84949e-07 0 7.84889e-06 -1.31853e-06 0 4.78302e-06 -1.71179e-06 0 1.06441e-06 -1.92556e-06 0 0 5.70395e-08 0 3.42726e-07 5.72673e-08 0 6.87902e-07 5.78707e-08 0 1.03793e-06 5.88788e-08 0 1.39529e-06 6.03196e-08 0 1.76245e-06 6.21422e-08 0 2.14187e-06 6.44054e-08 0 2.53608e-06 6.70797e-08 0 2.94754e-06 7.01402e-08 0 3.37874e-06 7.36578e-08 0 3.83211e-06 7.75407e-08 0 4.30991e-06 8.17945e-08 0 4.81432e-06 8.63947e-08 0 5.3471e-06 9.12415e-08 0 5.90957e-06 9.62653e-08 0 6.50232e-06 1.01305e-07 0 7.12488e-06 1.06167e-07 0 7.77513e-06 1.10453e-07 0 8.44867e-06 1.13824e-07 0 9.13794e-06 1.15556e-07 0 9.83022e-06 1.14587e-07 0 1.05064e-05 1.10005e-07 0 1.11377e-05 9.91395e-08 0 1.16809e-05 7.98371e-08 0 1.20752e-05 4.87121e-08 0 1.22332e-05 3.70625e-10 0 1.20367e-05 -7.05358e-08 0 1.13339e-05 -1.69013e-07 0 9.95362e-06 -2.95676e-07 0 7.75227e-06 -4.39052e-07 0 4.71046e-06 -5.68348e-07 0 1.04648e-06 -6.38299e-07 0 0 -5.70395e-08 0 3.42726e-07 -5.72673e-08 0 6.87902e-07 -5.78707e-08 0 1.03793e-06 -5.88788e-08 0 1.39529e-06 -6.03196e-08 0 1.76245e-06 -6.21422e-08 0 2.14187e-06 -6.44054e-08 0 2.53608e-06 -6.70797e-08 0 2.94754e-06 -7.01402e-08 0 3.37874e-06 -7.36578e-08 0 3.83211e-06 -7.75407e-08 0 4.30991e-06 -8.17945e-08 0 4.81432e-06 -8.63947e-08 0 5.3471e-06 -9.12415e-08 0 5.90957e-06 -9.62653e-08 0 6.50232e-06 -1.01305e-07 0 7.12488e-06 -1.06167e-07 0 7.77513e-06 -1.10453e-07 0 8.44867e-06 -1.13824e-07 0 9.13794e-06 -1.15556e-07 0 9.83022e-06 -1.14587e-07 0 1.05064e-05 -1.10005e-07 0 1.11377e-05 -9.91395e-08 0 1.16809e-05 -7.98371e-08 0 1.20752e-05 -4.87121e-08 0 1.22332e-05 -3.70625e-10 0 1.20367e-05 7.05358e-08 0 1.13339e-05 1.69013e-07 0 9.95362e-06 2.95676e-07 0 7.75227e-06 4.39052e-07 0 4.71046e-06 5.68348e-07 0 1.04648e-06 6.38299e-07 0 0 -1.71074e-07 0 3.42454e-07 -1.71757e-07 0 6.87358e-07 -1.73567e-07 0 1.03711e-06 -1.76591e-07 0 1.3942e-06 -1.80913e-07 0 1.76108e-06 -1.86381e-07 0 2.14022e-06 -1.9317e-07 0 2.53415e-06 -2.01193e-07 0 2.94533e-06 -2.10375e-07 0 3.37626e-06 -2.20929e-07 0 3.82937e-06 -2.32581e-07 0 4.30694e-06 -2.45347e-07 0 4.81114e-06 -2.59154e-07 0 5.34377e-06 -2.73705e-07 0 5.90617e-06 -2.88793e-07 0 6.49898e-06 -3.03935e-07 0 7.12176e-06 -3.18556e-07 0 7.77249e-06 -3.31465e-07 0 8.44688e-06 -3.41649e-07 0 9.13752e-06 -3.4695e-07 0 9.83193e-06 -3.44193e-07 0 1.05113e-05 -3.30654e-07 0 1.11473e-05 -2.98357e-07 0 1.16973e-05 -2.40857e-07 0 1.21013e-05 -1.48013e-07 0 1.22725e-05 -3.62487e-09 0 1.2093e-05 2.08499e-07 0 1.14099e-05 5.03793e-07 0 1.00467e-05 8.84949e-07 0 7.84889e-06 1.31853e-06 0 4.78302e-06 1.71179e-06 0 1.06441e-06 1.92556e-06 0 0 -2.84972e-07 0 3.41912e-07 -2.86111e-07 0 6.86272e-07 -2.89127e-07 0 1.03547e-06 -2.94166e-07 0 1.39202e-06 -3.01369e-07 0 1.75834e-06 -3.1048e-07 0 2.13692e-06 -3.21796e-07 0 2.5303e-06 -3.35168e-07 0 2.94093e-06 -3.50473e-07 0 3.37132e-06 -3.68069e-07 0 3.82391e-06 -3.87497e-07 0 4.30101e-06 -4.08788e-07 0 4.8048e-06 -4.31824e-07 0 5.33713e-06 -4.56111e-07 0 5.89939e-06 -4.81312e-07 0 6.49229e-06 -5.06629e-07 0 7.11551e-06 -5.31109e-07 0 7.76719e-06 -5.52795e-07 0 8.44324e-06 -5.70008e-07 0 9.13659e-06 -5.79187e-07 0 9.8352e-06 -5.75089e-07 0 1.05209e-05 -5.53213e-07 0 1.11663e-05 -5.00376e-07 0 1.17297e-05 -4.05898e-07 0 1.21528e-05 -2.52928e-07 0 1.23504e-05 -1.44185e-08 0 1.2205e-05 3.37093e-07 0 1.15615e-05 8.28695e-07 0 1.02336e-05 1.46772e-06 0 8.04461e-06 2.20188e-06 0 4.93135e-06 2.87559e-06 0 1.10128e-06 3.24544e-06 0 0 -3.98646e-07 0 3.41101e-07 -4.0024e-07 0 6.84646e-07 -4.04461e-07 0 1.03303e-06 -4.11514e-07 0 1.38875e-06 -4.21595e-07 0 1.75425e-06 -4.3435e-07 0 2.13199e-06 -4.5019e-07 0 2.52453e-06 -4.68911e-07 0 2.93433e-06 -4.90344e-07 0 3.36391e-06 -5.14987e-07 0 3.81573e-06 -5.42204e-07 0 4.29211e-06 -5.72042e-07 0 4.79529e-06 -6.04344e-07 0 5.32715e-06 -6.38419e-07 0 5.88919e-06 -6.73813e-07 0 6.48222e-06 -7.09422e-07 0 7.10608e-06 -7.4393e-07 0 7.75914e-06 -7.74647e-07 0 8.43765e-06 -7.99244e-07 0 9.13499e-06 -8.12811e-07 0 9.83981e-06 -8.08113e-07 0 1.05349e-05 -7.78923e-07 0 1.1194e-05 -7.07024e-07 0 1.17775e-05 -5.77592e-07 0 1.22291e-05 -3.67158e-07 0 1.24659e-05 -3.778e-08 0 1.23719e-05 4.49924e-07 0 1.17891e-05 1.13667e-06 0 1.05172e-05 2.03876e-06 0 8.34589e-06 3.0908e-06 0 5.16323e-06 4.07382e-06 0 1.15953e-06 4.62191e-06 0 0 -5.12005e-07 0 3.40019e-07 -5.14053e-07 0 6.82481e-07 -5.19478e-07 0 1.02978e-06 -5.28543e-07 0 1.3844e-06 -5.41501e-07 0 1.74879e-06 -5.57896e-07 0 2.12542e-06 -5.78259e-07 0 2.51685e-06 -6.02332e-07 0 2.92554e-06 -6.29894e-07 0 3.35404e-06 -6.61596e-07 0 3.80482e-06 -6.9662e-07 0 4.28024e-06 -7.35035e-07 0 4.78258e-06 -7.76649e-07 0 5.31383e-06 -8.20584e-07 0 5.87554e-06 -8.66284e-07 0 6.46871e-06 -9.12349e-07 0 7.09338e-06 -9.57116e-07 0 7.74823e-06 -9.97213e-07 0 8.42994e-06 -1.02968e-06 0 9.13249e-06 -1.04834e-06 0 9.84542e-06 -1.04407e-06 0 1.05527e-05 -1.00898e-06 0 1.12299e-05 -9.20066e-07 0 1.18397e-05 -7.58497e-07 0 1.23288e-05 -4.94332e-07 0 1.26176e-05 -7.87312e-08 0 1.25926e-05 5.40398e-07 0 1.20929e-05 1.41999e-06 0 1.09015e-05 2.59145e-06 0 8.76268e-06 3.98548e-06 0 5.49138e-06 5.32116e-06 0 1.24326e-06 6.08262e-06 0 0 -6.24959e-07 0 3.38669e-07 -6.27461e-07 0 6.79776e-07 -6.34088e-07 0 1.02571e-06 -6.45162e-07 0 1.37896e-06 -6.60994e-07 0 1.74197e-06 -6.81026e-07 0 2.11721e-06 -7.05912e-07 0 2.50725e-06 -7.35335e-07 0 2.91456e-06 -7.69032e-07 0 3.34169e-06 -8.07804e-07 0 3.79116e-06 -8.50657e-07 0 4.26537e-06 -8.97686e-07 0 4.76667e-06 -9.48673e-07 0 5.29711e-06 -1.00256e-06 0 5.85839e-06 -1.05871e-06 0 6.4517e-06 -1.11543e-06 0 7.07731e-06 -1.17075e-06 0 7.7343e-06 -1.22067e-06 0 8.41988e-06 -1.26163e-06 0 9.12875e-06 -1.28627e-06 0 9.85156e-06 -1.28371e-06 0 1.05738e-05 -1.24451e-06 0 1.12731e-05 -1.14118e-06 0 1.19151e-05 -9.51064e-07 0 1.24503e-05 -6.37974e-07 0 1.28037e-05 -1.42263e-07 0 1.28654e-05 6.01682e-07 0 1.24731e-05 1.67001e-06 0 1.13915e-05 3.11711e-06 0 9.30868e-06 4.88362e-06 0 5.9349e-06 6.633e-06 0 1.35901e-06 7.66113e-06 0 0 -7.37419e-07 0 3.3705e-07 -7.40374e-07 0 6.76533e-07 -7.48201e-07 0 1.02083e-06 -7.61281e-07 0 1.37244e-06 -7.79982e-07 0 1.73379e-06 -8.03648e-07 0 2.10737e-06 -8.33054e-07 0 2.49573e-06 -8.67828e-07 0 2.90137e-06 -9.07665e-07 0 3.32686e-06 -9.53521e-07 0 3.77476e-06 -1.00423e-06 0 4.2475e-06 -1.05991e-06 0 4.74752e-06 -1.12035e-06 0 5.27696e-06 -1.18429e-06 0 5.83768e-06 -1.25105e-06 0 6.43108e-06 -1.31868e-06 0 7.05775e-06 -1.3849e-06 0 7.71717e-06 -1.44516e-06 0 8.4072e-06 -1.49536e-06 0 9.1234e-06 -1.52704e-06 0 9.85769e-06 -1.52773e-06 0 1.05973e-05 -1.48656e-06 0 1.13224e-05 -1.37193e-06 0 1.20022e-05 -1.1576e-06 0 1.25916e-05 -8.0146e-07 0 1.30216e-05 -2.33289e-07 0 1.31878e-05 6.26713e-07 0 1.29288e-05 1.87703e-06 0 1.19924e-05 3.60438e-06 0 1.00016e-05 5.77903e-06 0 6.52151e-06 8.02502e-06 0 1.51698e-06 9.40012e-06 0 0 -8.49295e-07 0 3.35162e-07 -8.52702e-07 0 6.72752e-07 -8.61726e-07 0 1.01515e-06 -8.76808e-07 0 1.36483e-06 -8.98374e-07 0 1.72425e-06 -9.25669e-07 0 2.09588e-06 -9.59591e-07 0 2.48228e-06 -9.99717e-07 0 2.88597e-06 -1.0457e-06 0 3.30955e-06 -1.09865e-06 0 3.75559e-06 -1.15724e-06 0 4.2266e-06 -1.22164e-06 0 4.72509e-06 -1.2916e-06 0 5.25333e-06 -1.36573e-06 0 5.81334e-06 -1.44329e-06 0 6.40675e-06 -1.5221e-06 0 7.03452e-06 -1.59962e-06 0 7.69662e-06 -1.67083e-06 0 8.39159e-06 -1.7311e-06 0 9.11598e-06 -1.77105e-06 0 9.86316e-06 -1.77676e-06 0 1.06224e-05 -1.73609e-06 0 1.13766e-05 -1.61375e-06 0 1.20991e-05 -1.38025e-06 0 1.27503e-05 -9.87961e-07 0 1.32682e-05 -3.56578e-07 0 1.35565e-05 6.08265e-07 0 1.34584e-05 2.03021e-06 0 1.27094e-05 4.03852e-06 0 1.08632e-05 6.65954e-06 0 7.29134e-06 9.51205e-06 0 1.73357e-06 1.13564e-05 0 0 -9.60497e-07 0 3.3301e-07 -9.64355e-07 0 6.68441e-07 -9.74574e-07 0 1.00866e-06 -9.91654e-07 0 1.35616e-06 -1.01608e-06 0 1.71337e-06 -1.047e-06 0 2.08277e-06 -1.08543e-06 0 2.46694e-06 -1.13091e-06 0 2.8684e-06 -1.18304e-06 0 3.28977e-06 -1.24311e-06 0 3.73368e-06 -1.30961e-06 0 4.20269e-06 -1.38277e-06 0 4.6994e-06 -1.46235e-06 0 5.2262e-06 -1.54679e-06 0 5.78532e-06 -1.63537e-06 0 6.37865e-06 -1.72568e-06 0 7.00752e-06 -1.81494e-06 0 7.67243e-06 -1.89778e-06 0 8.37273e-06 -1.96906e-06 0 9.10602e-06 -2.01863e-06 0 9.86725e-06 -2.03135e-06 0 1.06479e-05 -1.99391e-06 0 1.14341e-05 -1.8679e-06 0 1.22037e-05 -1.62092e-06 0 1.29233e-05 -1.20039e-06 0 1.35395e-05 -5.16659e-07 0 1.39666e-05 5.39081e-07 0 1.40577e-05 2.11764e-06 0 1.35443e-05 4.40082e-06 0 1.19156e-05 7.50425e-06 0 8.2974e-06 1.11051e-05 0 2.03402e-06 1.36091e-05 0 0 -1.07094e-06 0 3.30588e-07 -1.07524e-06 0 6.63589e-07 -1.08665e-06 0 1.00137e-06 -1.10573e-06 0 1.3464e-06 -1.133e-06 0 1.70112e-06 -1.16754e-06 0 2.06801e-06 -1.21048e-06 0 2.44965e-06 -1.2613e-06 0 2.84859e-06 -1.31958e-06 0 3.26746e-06 -1.38679e-06 0 3.70895e-06 -1.46124e-06 0 4.17567e-06 -1.54321e-06 0 4.67032e-06 -1.63251e-06 0 5.19545e-06 -1.72742e-06 0 5.75346e-06 -1.82724e-06 0 6.34655e-06 -1.92939e-06 0 6.97645e-06 -2.03088e-06 0 7.64426e-06 -2.12606e-06 0 8.35014e-06 -2.20939e-06 0 9.09287e-06 -2.27006e-06 0 9.86912e-06 -2.29193e-06 0 1.06727e-05 -2.26073e-06 0 1.14933e-05 -2.13547e-06 0 1.23137e-05 -1.88127e-06 0 1.31076e-05 -1.44133e-06 0 1.38315e-05 -7.17699e-07 0 1.44134e-05 4.1209e-07 0 1.47225e-05 2.12667e-06 0 1.45002e-05 4.66841e-06 0 1.31899e-05 8.27982e-06 0 9.62794e-06 1.28046e-05 0 2.46744e-06 1.62735e-05 0 0 -1.18053e-06 0 3.279e-07 -1.18528e-06 0 6.58203e-07 -1.19788e-06 0 9.93268e-07 -1.21893e-06 0 1.33556e-06 -1.24906e-06 0 1.68752e-06 -1.2872e-06 0 2.05161e-06 -1.33464e-06 0 2.43044e-06 -1.39081e-06 0 2.82656e-06 -1.45524e-06 0 3.24265e-06 -1.5296e-06 0 3.68141e-06 -1.61203e-06 0 4.14555e-06 -1.70288e-06 0 4.63786e-06 -1.802e-06 0 5.16103e-06 -1.90753e-06 0 5.7177e-06 -2.01884e-06 0 6.31036e-06 -2.13318e-06 0 6.94116e-06 -2.24741e-06 0 7.61185e-06 -2.35572e-06 0 8.32344e-06 -2.45219e-06 0 9.07597e-06 -2.52553e-06 0 9.8679e-06 -2.55885e-06 0 1.06956e-05 -2.53711e-06 0 1.15524e-05 -2.41733e-06 0 1.24266e-05 -2.16269e-06 0 1.32993e-05 -1.71297e-06 0 1.41388e-05 -9.63366e-07 0 1.48892e-05 2.20694e-07 0 1.54435e-05 2.04439e-06 0 1.55705e-05 4.81459e-06 0 1.47061e-05 8.93654e-06 0 1.13943e-05 1.45857e-05 0 3.11914e-06 1.95269e-05 0 0 -1.28918e-06 0 3.24947e-07 -1.29438e-06 0 6.52287e-07 -1.30815e-06 0 9.84368e-07 -1.33119e-06 0 1.32365e-06 -1.36415e-06 0 1.67256e-06 -1.40589e-06 0 2.03358e-06 -1.45781e-06 0 2.40931e-06 -1.51932e-06 0 2.80232e-06 -1.58992e-06 0 3.21532e-06 -1.67143e-06 0 3.65105e-06 -1.76187e-06 0 4.1123e-06 -1.86167e-06 0 4.60197e-06 -1.97071e-06 0 5.1229e-06 -2.08702e-06 0 5.67794e-06 -2.21007e-06 0 6.26992e-06 -2.33699e-06 0 6.90144e-06 -2.46449e-06 0 7.57488e-06 -2.58676e-06 0 8.29219e-06 -2.69751e-06 0 9.05467e-06 -2.78518e-06 0 9.86269e-06 -2.83237e-06 0 1.07153e-05 -2.82345e-06 0 1.16095e-05 -2.71414e-06 0 1.25395e-05 -2.46623e-06 0 1.34945e-05 -2.01704e-06 0 1.44554e-05 -1.25668e-06 0 1.53857e-05 -4.08802e-08 0 1.6209e-05 1.85849e-06 0 1.67425e-05 4.81025e-06 0 1.64751e-05 9.40537e-06 0 1.37495e-05 1.63688e-05 0 4.16361e-06 2.36577e-05 0 0 -1.3968e-06 0 3.21729e-07 -1.40244e-06 0 6.4584e-07 -1.4174e-06 0 9.74669e-07 -1.4424e-06 0 1.31067e-06 -1.47818e-06 0 1.65626e-06 -1.52351e-06 0 2.01392e-06 -1.57991e-06 0 2.38626e-06 -1.64675e-06 0 2.77586e-06 -1.72351e-06 0 3.18545e-06 -1.81219e-06 0 3.61785e-06 -1.91068e-06 0 4.07589e-06 -2.01948e-06 0 4.56259e-06 -2.13854e-06 0 5.08096e-06 -2.2658e-06 0 5.63407e-06 -2.40085e-06 0 6.22508e-06 -2.54073e-06 0 6.85705e-06 -2.68207e-06 0 7.53302e-06 -2.81912e-06 0 8.2559e-06 -2.94535e-06 0 9.02828e-06 -3.04905e-06 0 9.85248e-06 -3.11259e-06 0 1.07303e-05 -3.11997e-06 0 1.16626e-05 -3.0263e-06 0 1.26495e-05 -2.79257e-06 0 1.36889e-05 -2.35473e-06 0 1.47751e-05 -1.59985e-06 0 1.58932e-05 -3.77196e-07 0 1.70041e-05 1.5583e-06 0 1.79942e-05 4.62651e-06 0 1.84839e-05 9.5995e-06 0 1.68755e-05 1.79643e-05 0 5.99975e-06 2.91678e-05 0 0 -1.5033e-06 0 3.18249e-07 -1.50939e-06 0 6.38866e-07 -1.52552e-06 0 9.64176e-07 -1.55248e-06 0 1.29662e-06 -1.59107e-06 0 1.63861e-06 -1.63997e-06 0 1.99263e-06 -1.70084e-06 0 2.36129e-06 -1.773e-06 0 2.74717e-06 -1.8559e-06 0 3.15306e-06 -1.95178e-06 0 3.5818e-06 -2.05833e-06 0 4.03631e-06 -2.17619e-06 0 4.5197e-06 -2.30539e-06 0 5.03517e-06 -2.44376e-06 0 5.58599e-06 -2.59108e-06 0 6.17569e-06 -2.7443e-06 0 6.80777e-06 -2.90003e-06 0 7.48596e-06 -3.05273e-06 0 8.2141e-06 -3.19563e-06 0 8.99613e-06 -3.31711e-06 0 9.83633e-06 -3.39954e-06 0 1.07392e-05 -3.42675e-06 0 1.17096e-05 -3.35398e-06 0 1.27537e-05 -3.14203e-06 0 1.38781e-05 -2.72665e-06 0 1.5091e-05 -1.99416e-06 0 1.64009e-05 -7.91237e-07 0 1.78104e-05 1.1359e-06 0 1.92929e-05 4.23874e-06 0 2.06794e-05 9.42486e-06 0 2.08978e-05 1.89974e-05 0 9.67809e-06 3.69992e-05 0 0 -1.60861e-06 0 3.14508e-07 -1.61513e-06 0 6.31369e-07 -1.63242e-06 0 9.52895e-07 -1.66133e-06 0 1.28151e-06 -1.70272e-06 0 1.61963e-06 -1.75517e-06 0 1.96972e-06 -1.82049e-06 0 2.3344e-06 -1.89796e-06 0 2.71627e-06 -1.98701e-06 0 3.11813e-06 -2.09008e-06 0 3.54289e-06 -2.20473e-06 0 3.99351e-06 -2.3317e-06 0 4.47326e-06 -2.47114e-06 0 4.98544e-06 -2.62077e-06 0 5.5336e-06 -2.78061e-06 0 6.12159e-06 -2.94758e-06 0 6.75337e-06 -3.11827e-06 0 7.43335e-06 -3.28746e-06 0 8.16632e-06 -3.44824e-06 0 8.95754e-06 -3.58923e-06 0 9.81322e-06 -3.69308e-06 0 1.07406e-05 -3.74368e-06 0 1.17485e-05 -3.69707e-06 0 1.28489e-05 -3.51454e-06 0 1.40574e-05 -3.13279e-06 0 1.53962e-05 -2.43986e-06 0 1.68973e-05 -1.28409e-06 0 1.86076e-05 5.87287e-07 0 2.05969e-05 3.63112e-06 0 2.29619e-05 8.80302e-06 0 2.56848e-05 1.88958e-05 0 1.85128e-05 4.929e-05 0 0 -1.71262e-06 0 3.10508e-07 -1.71958e-06 0 6.23352e-07 -1.73803e-06 0 9.40828e-07 -1.76888e-06 0 1.26535e-06 -1.81304e-06 0 1.59932e-06 -1.86903e-06 0 1.9452e-06 -1.93878e-06 0 2.3056e-06 -2.02154e-06 0 2.68315e-06 -2.11673e-06 0 3.08067e-06 -2.22699e-06 0 3.5011e-06 -2.34975e-06 0 3.9475e-06 -2.48589e-06 0 4.42321e-06 -2.63565e-06 0 4.93173e-06 -2.79672e-06 0 5.4768e-06 -2.96933e-06 0 6.06263e-06 -3.15041e-06 0 6.69363e-06 -3.33662e-06 0 7.37487e-06 -3.52315e-06 0 8.11208e-06 -3.703e-06 0 8.9118e-06 -3.86522e-06 0 9.78217e-06 -3.99299e-06 0 1.0733e-05 -4.07046e-06 0 1.17772e-05 -4.0552e-06 0 1.29322e-05 -3.9096e-06 0 1.42223e-05 -3.57251e-06 0 1.56835e-05 -2.93609e-06 0 1.73707e-05 -1.85476e-06 0 1.93743e-05 -8.693e-08 0 2.18593e-05 2.80062e-06 0 2.51939e-05 7.70101e-06 0 3.06063e-05 1.71725e-05 0 3.53594e-05 4.85441e-05 0 </DataArray> 
</PointData> 
<Points> 
<DataArray type="Float32" NumberOfComponents="3"> 