<?xml version="1.0"?> 
<VTKFile type="StructuredGrid" version="0.1"> 
<StructuredGrid WholeExtent="0 31 0 31 0 0"> 
<Piece Extent="0 31 0 31 0 0"> 
<PointData>
<DataArray type="Float32" Name="B" format="ascii" NumberOfComponents="3"> 
-4.26491e-05 2.40268e-05 0 -1.27542e-05 -5.0097e-07 0 -1.47836e-05 5.70622e-07 0 -1.72378e-05 8.88904e-07 0 -1.99404e-05 1.03938e-06 0 -2.28052e-05 1.10224e-06 0 -2.56804e-05 1.0959e-06 0 -2.84e-05 1.03332e-06 0 -3.08355e-05 9.30937e-07 0 -3.2919e-05 8.0679e-07 0 -3.46353e-05 6.74007e-07 0 -3.6001e-05 5.41229e-07 0 -3.70452e-05 4.12721e-07 0 -3.77983e-05 2.89724e-07 0 -3.82857e-05 1.71633e-07 0 -3.85249e-05 5.68251e-08 0 -3.85249e-05 -5.68251e-08 0 -3.82857e-05 -1.71633e-07 0 -3.77983e-05 -2.89724e-07 0 -3.70452e-05 -4.12721e-07 0 -3.6001e-05 -5.41229e-07 0 -3.46353e-05 -6.74007e-07 0 -3.2919e-05 -8.0679e-07 0 -3.08355e-05 -9.30937e-07 0 -2.84e-05 -1.03332e-06 0 -2.56804e-05 -1.0959e-06 0 -2.28052e-05 -1.10224e-06 0 -1.99404e-05 -1.03938e-06 0 -1.72378e-05 -8.88904e-07 0 -1.47836e-05 -5.70622e-07 0 -1.27542e-05 5.0097e-07 0 -4.26491e-05 -2.40268e-05 0 7.88164e-06 -0.000134791 0 -2.86875e-06 6.54387e-08 0 -2.938e-06 -1.30937e-08 0 -3.20338e-06 -1.93699e-08 0 -3.54345e-06 -2.24301e-08 0 -3.91903e-06 -2.371e-08 0 -4.30371e-06 -2.3515e-08 0 -4.6755e-06 -2.21042e-08 0 -5.0176e-06 -1.98422e-08 0 -5.31943e-06 -1.71319e-08 0 -5.57593e-06 -1.42625e-08 0 -5.78595e-06 -1.14184e-08 0 -5.95053e-06 -8.68619e-09 0 -6.07156e-06 -6.08653e-09 0 -6.15099e-06 -3.60134e-09 0 -6.19031e-06 -1.19163e-09 0 -6.19031e-06 1.19163e-09 0 -6.15099e-06 3.60134e-09 0 -6.07156e-06 6.08653e-09 0 -5.95053e-06 8.68619e-09 0 -5.78595e-06 1.14184e-08 0 -5.57593e-06 1.42625e-08 0 -5.31943e-06 1.71319e-08 0 -5.0176e-06 1.98422e-08 0 -4.6755e-06 2.21042e-08 0 -4.30371e-06 2.3515e-08 0 -3.91903e-06 2.371e-08 0 -3.54345e-06 2.24301e-08 0 -3.20338e-06 1.93699e-08 0 -2.938e-06 1.30937e-08 0 -2.86875e-06 -6.54387e-08 0 7.88164e-06 0.000134791 0 5.6654e-06 -0.000111973 0 3.56358e-08 4.29156e-08 0 3.69883e-08 3.68482e-11 0 4.05422e-08 4.72874e-11 0 4.50106e-08 5.27776e-11 0 4.99227e-08 5.51076e-11 0 5.49425e-08 5.41344e-11 0 5.97829e-08 5.02793e-11 0 6.42243e-08 4.4493e-11 0 6.81304e-08 3.7843e-11 0 7.14397e-08 3.10609e-11 0 7.41419e-08 2.4561e-11 0 7.62545e-08 1.84965e-11 0 7.78055e-08 1.28626e-11 0 7.8822e-08 7.57214e-12 0 7.93247e-08 2.49912e-12 0 7.93247e-08 -2.49912e-12 0 7.8822e-08 -7.57214e-12 0 7.78055e-08 -1.28626e-11 0 7.62545e-08 -1.84965e-11 0 7.41419e-08 -2.4561e-11 0 7.14397e-08 -3.10609e-11 0 6.81304e-08 -3.7843e-11 0 6.42243e-08 -4.4493e-11 0 5.97829e-08 -5.02793e-11 0 5.49425e-08 -5.41344e-11 0 4.99227e-08 -5.51076e-11 0 4.50106e-08 -5.27776e-11 0 4.05422e-08 -4.72874e-11 0 3.69883e-08 -3.68482e-11 0 3.56358e-08 -4.29156e-08 0 5.6654e-06 0.000111973 0 4.09937e-06 -9.25636e-05 0 6.72467e-11 3.34463e-08 0 1.39256e-10 1.30421e-12 0 1.49563e-10 3.06292e-12 0 1.63584e-10 3.56845e-12 0 1.79338e-10 3.77976e-12 0 1.95601e-10 3.75455e-12 0 2.11448e-10 3.53616e-12 0 2.26175e-10 3.18155e-12 0 2.39308e-10 2.75341e-12 0 2.50585e-10 2.2972e-12 0 2.59903e-10 1.84252e-12 0 2.67259e-10 1.40371e-12 0 2.72701e-10 9.84685e-13 0 2.76286e-10 5.83052e-13 0 2.78065e-10 1.92994e-13 0 2.78065e-10 -1.92994e-13 0 2.76286e-10 -5.83052e-13 0 2.72701e-10 -9.84685e-13 0 2.67259e-10 -1.40371e-12 0 2.59903e-10 -1.84252e-12 0 2.50585e-10 -2.2972e-12 0 2.39308e-10 -2.75341e-12 0 2.26175e-10 -3.18155e-12 0 2.11448e-10 -3.53616e-12 0 1.95601e-10 -3.75455e-12 0 1.79338e-10 -3.77976e-12 0 1.63584e-10 -3.56845e-12 0 1.49563e-10 -3.06292e-12 0 1.39256e-10 -1.30421e-12 0 6.72467e-11 -3.34463e-08 0 4.09937e-06 9.25636e-05 0 3.08503e-06 -7.68319e-05 0 -5.33883e-11 2.69707e-08 0 -8.41899e-12 -4.4685e-13 0 -9.06997e-12 -4.10446e-14 0 -1.00439e-11 -4.83879e-14 0 -1.11183e-11 -5.11032e-14 0 -1.2218e-11 -5.065e-14 0 -1.32801e-11 -4.75733e-14 0 -1.42566e-11 -4.2665e-14 0 -1.51173e-11 -3.68012e-14 0 -1.5848e-11 -3.06091e-14 0 -1.64459e-11 -2.44858e-14 0 -1.6914e-11 -1.86146e-14 0 -1.72581e-11 -1.30371e-14 0 -1.74838e-11 -7.71144e-15 0 -1.75955e-11 -2.55119e-15 0 -1.75955e-11 2.55119e-15 0 -1.74838e-11 7.71144e-15 0 -1.72581e-11 1.30371e-14 0 -1.6914e-11 1.86146e-14 0 -1.64459e-11 2.44858e-14 0 -1.5848e-11 3.06091e-14 0 -1.51173e-11 3.68012e-14 0 -1.42566e-11 4.2665e-14 0 -1.32801e-11 4.75733e-14 0 -1.2218e-11 5.065e-14 0 -1.11183e-11 5.11032e-14 0 -1.00439e-11 4.83879e-14 0 -9.06997e-12 4.10446e-14 0 -8.41899e-12 4.4685e-13 0 -5.33883e-11 -2.69707e-08 0 3.08503e-06 7.68319e-05 0 2.41954e-06 -6.42179e-05 0 -3.13808e-11 2.2187e-08 0 -1.63668e-14 -2.81462e-13 0 7.01917e-14 6.03632e-16 0 7.82235e-14 -1.2774e-16 0 8.69062e-14 -1.35562e-16 0 9.57677e-14 -1.35932e-16 0 1.04301e-13 -1.29513e-16 0 1.12118e-13 -1.18089e-16 0 1.1898e-13 -1.03582e-16 0 1.24784e-13 -8.74826e-17 0 1.29515e-13 -7.08946e-17 0 1.33208e-13 -5.44531e-17 0 1.35917e-13 -3.84284e-17 0 1.37691e-13 -2.28442e-17 0 1.38569e-13 -7.5765e-18 0 1.38569e-13 7.5765e-18 0 1.37691e-13 2.28442e-17 0 1.35917e-13 3.84284e-17 0 1.33208e-13 5.44531e-17 0 1.29515e-13 7.08946e-17 0 1.24784e-13 8.74826e-17 0 1.1898e-13 1.03582e-16 0 1.12118e-13 1.18089e-16 0 1.04301e-13 1.29513e-16 0 9.57677e-14 1.35932e-16 0 8.69062e-14 1.35562e-16 0 7.82235e-14 1.2774e-16 0 7.01917e-14 -6.03632e-16 0 -1.63668e-14 2.81462e-13 0 -3.13808e-11 -2.2187e-08 0 2.41954e-06 6.42179e-05 0 1.96722e-06 -5.39137e-05 0 -2.36704e-11 1.84529e-08 0 -6.06182e-14 -2.03285e-13 0 7.8105e-16 6.02154e-16 0 9.59381e-16 9.1639e-18 0 1.05823e-15 1.08758e-17 0 1.15972e-15 1.07976e-17 0 1.25806e-15 1.01622e-17 0 1.34882e-15 9.13536e-18 0 1.42916e-15 7.89896e-18 0 1.49764e-15 6.58463e-18 0 1.55387e-15 5.27746e-18 0 1.59803e-15 4.01818e-18 0 1.63057e-15 2.81741e-18 0 1.65194e-15 1.66775e-18 0 1.66253e-15 5.5195e-19 0 1.66253e-15 -5.5195e-19 0 1.65194e-15 -1.66775e-18 0 1.63057e-15 -2.81741e-18 0 1.59803e-15 -4.01818e-18 0 1.55387e-15 -5.27746e-18 0 1.49764e-15 -6.58463e-18 0 1.42916e-15 -7.89896e-18 0 1.34882e-15 -9.13536e-18 0 1.25806e-15 -1.01622e-17 0 1.15972e-15 -1.07976e-17 0 1.05823e-15 -1.08758e-17 0 9.59381e-16 -9.1639e-18 0 7.8105e-16 -6.02154e-16 0 -6.06182e-14 2.03285e-13 0 -2.36704e-11 -1.84529e-08 0 1.96722e-06 5.39137e-05 0 1.64956e-06 -4.52926e-05 0 -1.88887e-11 1.54117e-08 0 -4.95522e-14 -1.53753e-13 0 -9.67942e-17 4.97894e-16 0 -2.4884e-17 -1.00873e-18 0 -2.75714e-17 -9.34503e-20 0 -3.0313e-17 -9.18812e-20 0 -3.29596e-17 -8.61769e-20 0 -3.53915e-17 -7.71562e-20 0 -3.75336e-17 -6.64366e-20 0 -3.93511e-17 -5.5169e-20 0 -4.08372e-17 -4.40712e-20 0 -4.20002e-17 -3.34664e-20 0 -4.28547e-17 -2.34194e-20 0 -4.34151e-17 -1.38449e-20 0 -4.36924e-17 -4.57905e-21 0 -4.36924e-17 4.57905e-21 0 -4.34151e-17 1.38449e-20 0 -4.28547e-17 2.34194e-20 0 -4.20002e-17 3.34664e-20 0 -4.08372e-17 4.40712e-20 0 -3.93511e-17 5.5169e-20 0 -3.75336e-17 6.64366e-20 0 -3.53915e-17 7.71562e-20 0 -3.29596e-17 8.61769e-20 0 -3.0313e-17 9.18812e-20 0 -2.75714e-17 9.34503e-20 0 -2.4884e-17 1.00873e-18 0 -9.67942e-17 -4.97894e-16 0 -4.95522e-14 1.53753e-13 0 -1.88887e-11 -1.54117e-08 0 1.64956e-06 4.52926e-05 0 1.42126e-06 -3.79072e-05 0 -1.57561e-11 1.28496e-08 0 -4.16058e-14 -1.19485e-13 0 -6.35169e-17 4.16495e-16 0 2.5499e-19 -7.63966e-19 0 2.76198e-19 -1.5297e-21 0 3.04171e-19 -9.91542e-22 0 3.31127e-19 -9.3659e-22 0 3.5584e-19 -8.45448e-22 0 3.77553e-19 -7.34105e-22 0 3.95933e-19 -6.14308e-22 0 4.10928e-19 -4.93957e-22 0 4.22643e-19 -3.77062e-22 0 4.31238e-19 -2.64886e-22 0 4.3687e-19 -1.56993e-22 0 4.39655e-19 -5.19904e-23 0 4.39655e-19 5.19904e-23 0 4.3687e-19 1.56993e-22 0 4.31238e-19 2.64886e-22 0 4.22643e-19 3.77062e-22 0 4.10928e-19 4.93957e-22 0 3.95933e-19 6.14308e-22 0 3.77553e-19 7.34105e-22 0 3.5584e-19 8.45448e-22 0 3.31127e-19 9.3659e-22 0 3.04171e-19 9.91542e-22 0 2.76198e-19 1.5297e-21 0 2.5499e-19 7.63966e-19 0 -6.35169e-17 -4.16495e-16 0 -4.16058e-14 1.19485e-13 0 -1.57561e-11 -1.28496e-08 0 1.42126e-06 3.79072e-05 0 1.25273e-06 -3.14391e-05 0 -1.35864e-11 1.06299e-08 0 -3.60464e-14 -9.39985e-14 0 -5.5988e-17 3.45269e-16 0 1.64208e-20 -6.28657e-19 0 1.22875e-20 -4.79197e-22 0 1.34837e-20 -3.72248e-23 0 1.46415e-20 -3.52676e-23 0 1.57081e-20 -3.18995e-23 0 1.66503e-20 -2.77549e-23 0 1.74519e-20 -2.3269e-23 0 1.81089e-20 -1.87399e-23 0 1.86242e-20 -1.43231e-23 0 1.90033e-20 -1.00713e-23 0 1.92522e-20 -5.97276e-24 0 1.93754e-20 -1.97856e-24 0 1.93754e-20 1.97856e-24 0 1.92522e-20 5.97276e-24 0 1.90033e-20 1.00713e-23 0 1.86242e-20 1.43231e-23 0 1.81089e-20 1.87399e-23 0 1.74519e-20 2.3269e-23 0 1.66503e-20 2.77549e-23 0 1.57081e-20 3.18995e-23 0 1.46415e-20 3.52676e-23 0 1.34837e-20 3.72248e-23 0 1.22875e-20 4.79197e-22 0 1.64208e-20 6.28657e-19 0 -5.5988e-17 -3.45269e-16 0 -3.60464e-14 9.39985e-14 0 -1.35864e-11 -1.06299e-08 0 1.25273e-06 3.14391e-05 0 1.12773e-06 -2.56576e-05 0 -1.20501e-11 8.65983e-09 0 -3.20721e-14 -7.38632e-14 0 -5.0296e-17 2.81683e-16 0 5.28707e-21 -5.10654e-19 0 6.69713e-22 -3.60096e-22 0 7.33983e-22 9.80881e-28 0 7.96632e-22 -7.09687e-26 0 8.54403e-22 -9.94783e-26 0 9.05485e-22 -1.17611e-25 0 9.48987e-22 -1.223e-25 0 9.84672e-22 -1.14601e-25 0 1.01268e-21 -9.73406e-26 0 1.03329e-21 -7.34995e-26 0 1.04684e-21 -4.55575e-26 0 1.05354e-21 -1.54171e-26 0 1.05354e-21 1.54171e-26 0 1.04684e-21 4.55575e-26 0 1.03329e-21 7.34995e-26 0 1.01268e-21 9.73406e-26 0 9.84672e-22 1.14601e-25 0 9.48987e-22 1.223e-25 0 9.05485e-22 1.17611e-25 0 8.54403e-22 9.94783e-26 0 7.96632e-22 7.09687e-26 0 7.33983e-22 -9.80881e-28 0 6.69713e-22 3.60096e-22 0 5.28707e-21 5.10654e-19 0 -5.0296e-17 -2.81683e-16 0 -3.20721e-14 7.38632e-14 0 -1.20501e-11 -8.65983e-09 0 1.12773e-06 2.56576e-05 0 1.03507e-06 -2.03901e-05 0 -1.09482e-11 6.87358e-09 0 -2.92017e-14 -5.71301e-14 0 -4.60915e-17 2.23801e-16 0 4.2887e-21 -4.04507e-19 0 5.50645e-23 -2.84851e-22 0 5.99694e-23 1.06353e-24 0 6.5099e-23 9.66407e-25 0 6.98296e-23 8.63992e-25 0 7.40106e-23 7.42821e-25 0 7.75697e-23 6.15958e-25 0 8.04881e-23 4.91443e-25 0 8.27776e-23 3.72815e-25 0 8.44629e-23 2.60695e-25 0 8.55695e-23 1.54039e-25 0 8.61174e-23 5.09339e-26 0 8.61174e-23 -5.09339e-26 0 8.55695e-23 -1.54039e-25 0 8.44629e-23 -2.60695e-25 0 8.27776e-23 -3.72815e-25 0 8.04881e-23 -4.91443e-25 0 7.75697e-23 -6.15958e-25 0 7.40106e-23 -7.42821e-25 0 6.98296e-23 -8.63992e-25 0 6.5099e-23 -9.66407e-25 0 5.99694e-23 -1.06353e-24 0 5.50645e-23 2.84851e-22 0 4.2887e-21 4.04507e-19 0 -4.60915e-17 -2.23801e-16 0 -2.92017e-14 5.71301e-14 0 -1.09482e-11 -6.87358e-09 0 1.03507e-06 2.03901e-05 0 9.67489e-07 -1.55034e-05 0 -1.0163e-11 5.22187e-09 0 -2.71462e-14 -4.26151e-14 0 -4.30357e-17 1.70137e-16 0 3.93634e-21 -3.06874e-19 0 1.15968e-23 -2.16997e-22 0 1.23374e-23 2.62215e-25 0 1.34053e-23 2.23596e-25 0 1.43898e-23 2.00545e-25 0 1.52579e-23 1.72989e-25 0 1.59952e-23 1.43885e-25 0 1.65986e-23 1.15101e-25 0 1.70712e-23 8.75016e-26 0 1.74186e-23 6.1283e-26 0 1.76465e-23 3.62484e-26 0 1.77593e-23 1.19921e-26 0 1.77593e-23 -1.19921e-26 0 1.76465e-23 -3.62484e-26 0 1.74186e-23 -6.1283e-26 0 1.70712e-23 -8.75016e-26 0 1.65986e-23 -1.15101e-25 0 1.59952e-23 -1.43885e-25 0 1.52579e-23 -1.72989e-25 0 1.43898e-23 -2.00545e-25 0 1.34053e-23 -2.23596e-25 0 1.23374e-23 -2.62215e-25 0 1.15968e-23 2.16997e-22 0 3.93634e-21 3.06874e-19 0 -4.30357e-17 -1.70137e-16 0 -2.71462e-14 4.26151e-14 0 -1.0163e-11 -5.22187e-09 0 9.67489e-07 1.55034e-05 0 9.20222e-07 -1.08909e-05 0 -9.62263e-12 3.66623e-09 0 -2.57266e-14 -2.95491e-14 0 -4.09036e-17 1.19506e-16 0 3.71398e-21 -2.1525e-19 0 2.99083e-24 -1.52503e-22 0 2.90481e-24 5.28116e-26 0 3.15409e-24 3.37297e-26 0 3.38561e-24 3.03018e-26 0 3.58978e-24 2.61783e-26 0 3.76321e-24 2.18049e-26 0 3.90515e-24 1.7464e-26 0 4.01633e-24 1.32894e-26 0 4.09806e-24 9.31413e-27 0 4.15169e-24 5.51187e-27 0 4.17823e-24 1.82393e-27 0 4.17823e-24 -1.82393e-27 0 4.15169e-24 -5.51187e-27 0 4.09806e-24 -9.31413e-27 0 4.01633e-24 -1.32894e-26 0 3.90515e-24 -1.7464e-26 0 3.76321e-24 -2.18049e-26 0 3.58978e-24 -2.61783e-26 0 3.38561e-24 -3.03018e-26 0 3.15409e-24 -3.37297e-26 0 2.90481e-24 -5.28116e-26 0 2.99083e-24 1.52503e-22 0 3.71398e-21 2.1525e-19 0 -4.09036e-17 -1.19506e-16 0 -2.57266e-14 2.95491e-14 0 -9.62263e-12 -3.66623e-09 0 9.20222e-07 1.08909e-05 0 8.90194e-07 -6.46343e-06 0 -9.28293e-12 2.17504e-09 0 -2.48322e-14 -1.7395e-14 0 -3.95514e-17 7.09182e-17 0 3.57744e-21 -1.27625e-19 0 7.85156e-25 -9.04989e-23 0 4.95622e-25 1.40463e-26 0 5.3577e-25 3.76594e-27 0 5.74883e-25 3.39016e-27 0 6.09418e-25 2.93275e-27 0 6.38786e-25 2.44582e-27 0 6.62846e-25 1.96098e-27 0 6.81708e-25 1.49348e-27 0 6.95583e-25 1.04739e-27 0 7.04691e-25 6.20079e-28 0 7.092e-25 2.05233e-28 0 7.092e-25 -2.05233e-28 0 7.04691e-25 -6.20079e-28 0 6.95583e-25 -1.04739e-27 0 6.81708e-25 -1.49348e-27 0 6.62846e-25 -1.96098e-27 0 6.38786e-25 -2.44582e-27 0 6.09418e-25 -2.93275e-27 0 5.74883e-25 -3.39016e-27 0 5.3577e-25 -3.76594e-27 0 4.95622e-25 -1.40463e-26 0 7.85156e-25 9.04989e-23 0 3.57744e-21 1.27625e-19 0 -3.95514e-17 -7.09182e-17 0 -2.48322e-14 1.7395e-14 0 -9.28293e-12 -2.17504e-09 0 8.90194e-07 6.46343e-06 0 8.75562e-07 -2.14282e-06 0 -9.11838e-12 7.20969e-10 0 -2.43984e-14 -5.74457e-15 0 -3.8893e-17 2.35107e-17 0 3.512e-21 -4.22925e-20 0 3.78838e-25 -3.00002e-23 0 5.63781e-26 3.63046e-27 0 5.86473e-26 2.84322e-28 0 6.28584e-26 2.57178e-28 0 6.65909e-26 2.22857e-28 0 6.97758e-26 1.86146e-28 0 7.2393e-26 1.49446e-28 0 7.44499e-26 1.13939e-28 0 7.59659e-26 7.99699e-29 0 7.69624e-26 4.73686e-29 0 7.74561e-26 1.5682e-29 0 7.74561e-26 -1.5682e-29 0 7.69624e-26 -4.73686e-29 0 7.59659e-26 -7.99699e-29 0 7.44499e-26 -1.13939e-28 0 7.2393e-26 -1.49446e-28 0 6.97758e-26 -1.86146e-28 0 6.65909e-26 -2.22857e-28 0 6.28584e-26 -2.57178e-28 0 5.86473e-26 -2.84322e-28 0 5.63781e-26 -3.63046e-27 0 3.78838e-25 3.00002e-23 0 3.512e-21 4.22925e-20 0 -3.8893e-17 -2.35107e-17 0 -2.43984e-14 5.74457e-15 0 -9.11838e-12 -7.20969e-10 0 8.75562e-07 2.14282e-06 0 8.75562e-07 2.14282e-06 0 -9.11838e-12 -7.20969e-10 0 -2.43984e-14 5.74457e-15 0 -3.8893e-17 -2.35107e-17 0 3.512e-21 4.22925e-20 0 3.78838e-25 3.00002e-23 0 5.63781e-26 -3.63046e-27 0 5.86473e-26 -2.84322e-28 0 6.28584e-26 -2.57178e-28 0 6.65909e-26 -2.22857e-28 0 6.97758e-26 -1.86146e-28 0 7.2393e-26 -1.49446e-28 0 7.44499e-26 -1.13939e-28 0 7.59659e-26 -7.99699e-29 0 7.69624e-26 -4.73686e-29 0 7.74561e-26 -1.5682e-29 0 7.74561e-26 1.5682e-29 0 7.69624e-26 4.73686e-29 0 7.59659e-26 7.99699e-29 0 7.44499e-26 1.13939e-28 0 7.2393e-26 1.49446e-28 0 6.97758e-26 1.86146e-28 0 6.65909e-26 2.22857e-28 0 6.28584e-26 2.57178e-28 0 5.86473e-26 2.84322e-28 0 5.63781e-26 3.63046e-27 0 3.78838e-25 -3.00002e-23 0 3.512e-21 -4.22925e-20 0 -3.8893e-17 2.35107e-17 0 -2.43984e-14 -5.74457e-15 0 -9.11838e-12 7.20969e-10 0 8.75562e-07 -2.14282e-06 0 8.90194e-07 6.46343e-06 0 -9.28293e-12 -2.17504e-09 0 -2.48322e-14 1.7395e-14 0 -3.95514e-17 -7.09182e-17 0 3.57744e-21 1.27625e-19 0 7.85156e-25 9.04989e-23 0 4.95622e-25 -1.40463e-26 0 5.3577e-25 -3.76594e-27 0 5.74883e-25 -3.39016e-27 0 6.09418e-25 -2.93275e-27 0 6.38786e-25 -2.44582e-27 0 6.62846e-25 -1.96098e-27 0 6.81708e-25 -1.49348e-27 0 6.95583e-25 -1.04739e-27 0 7.04691e-25 -6.20079e-28 0 7.092e-25 -2.05233e-28 0 7.092e-25 2.05233e-28 0 7.04691e-25 6.20079e-28 0 6.95583e-25 1.04739e-27 0 6.81708e-25 1.49348e-27 0 6.62846e-25 1.96098e-27 0 6.38786e-25 2.44582e-27 0 6.09418e-25 2.93275e-27 0 5.74883e-25 3.39016e-27 0 5.3577e-25 3.76594e-27 0 4.95622e-25 1.40463e-26 0 7.85156e-25 -9.04989e-23 0 3.57744e-21 -1.27625e-19 0 -3.95514e-17 7.09182e-17 0 -2.48322e-14 -1.7395e-14 0 -9.28293e-12 2.17504e-09 0 8.90194e-07 -6.46343e-06 0 9.20222e-07 1.08909e-05 0 -9.62263e-12 -3.66623e-09 0 -2.57266e-14 2.95491e-14 0 -4.09036e-17 -1.19506e-16 0 3.71398e-21 2.1525e-19 0 2.99083e-24 1.52503e-22 0 2.90481e-24 -5.28116e-26 0 3.15409e-24 -3.37297e-26 0 3.38561e-24 -3.03018e-26 0 3.58978e-24 -2.61783e-26 0 3.76321e-24 -2.18049e-26 0 3.90515e-24 -1.7464e-26 0 4.01633e-24 -1.32894e-26 0 4.09806e-24 -9.31413e-27 0 4.15169e-24 -5.51187e-27 0 4.17823e-24 -1.82393e-27 0 4.17823e-24 1.82393e-27 0 4.15169e-24 5.51187e-27 0 4.09806e-24 9.31413e-27 0 4.01633e-24 1.32894e-26 0 3.90515e-24 1.7464e-26 0 3.76321e-24 2.18049e-26 0 3.58978e-24 2.61783e-26 0 3.38561e-24 3.03018e-26 0 3.15409e-24 3.37297e-26 0 2.90481e-24 5.28116e-26 0 2.99083e-24 -1.52503e-22 0 3.71398e-21 -2.1525e-19 0 -4.09036e-17 1.19506e-16 0 -2.57266e-14 -2.95491e-14 0 -9.62263e-12 3.66623e-09 0 9.20222e-07 -1.08909e-05 0 9.67489e-07 1.55034e-05 0 -1.0163e-11 -5.22187e-09 0 -2.71462e-14 4.26151e-14 0 -4.30357e-17 -1.70137e-16 0 3.93634e-21 3.06874e-19 0 1.15968e-23 2.16997e-22 0 1.23374e-23 -2.62215e-25 0 1.34053e-23 -2.23596e-25 0 1.43898e-23 -2.00545e-25 0 1.52579e-23 -1.72989e-25 0 1.59952e-23 -1.43885e-25 0 1.65986e-23 -1.15101e-25 0 1.70712e-23 -8.75016e-26 0 1.74186e-23 -6.1283e-26 0 1.76465e-23 -3.62484e-26 0 1.77593e-23 -1.19921e-26 0 1.77593e-23 1.19921e-26 0 1.76465e-23 3.62484e-26 0 1.74186e-23 6.1283e-26 0 1.70712e-23 8.75016e-26 0 1.65986e-23 1.15101e-25 0 1.59952e-23 1.43885e-25 0 1.52579e-23 1.72989e-25 0 1.43898e-23 2.00545e-25 0 1.34053e-23 2.23596e-25 0 1.23374e-23 2.62215e-25 0 1.15968e-23 -2.16997e-22 0 3.93634e-21 -3.06874e-19 0 -4.30357e-17 1.70137e-16 0 -2.71462e-14 -4.26151e-14 0 -1.0163e-11 5.22187e-09 0 9.67489e-07 -1.55034e-05 0 1.03507e-06 2.03901e-05 0 -1.09482e-11 -6.87358e-09 0 -2.92017e-14 5.71301e-14 0 -4.60915e-17 -2.23801e-16 0 4.2887e-21 4.04507e-19 0 5.50645e-23 2.84851e-22 0 5.99694e-23 -1.06353e-24 0 6.5099e-23 -9.66407e-25 0 6.98296e-23 -8.63992e-25 0 7.40106e-23 -7.42821e-25 0 7.75697e-23 -6.15958e-25 0 8.04881e-23 -4.91443e-25 0 8.27776e-23 -3.72815e-25 0 8.44629e-23 -2.60695e-25 0 8.55695e-23 -1.54039e-25 0 8.61174e-23 -5.09339e-26 0 8.61174e-23 5.09339e-26 0 8.55695e-23 1.54039e-25 0 8.44629e-23 2.60695e-25 0 8.27776e-23 3.72815e-25 0 8.04881e-23 4.91443e-25 0 7.75697e-23 6.15958e-25 0 7.40106e-23 7.42821e-25 0 6.98296e-23 8.63992e-25 0 6.5099e-23 9.66407e-25 0 5.99694e-23 1.06353e-24 0 5.50645e-23 -2.84851e-22 0 4.2887e-21 -4.04507e-19 0 -4.60915e-17 2.23801e-16 0 -2.92017e-14 -5.71301e-14 0 -1.09482e-11 6.87358e-09 0 1.03507e-06 -2.03901e-05 0 1.12773e-06 2.56576e-05 0 -1.20501e-11 -8.65983e-09 0 -3.20721e-14 7.38632e-14 0 -5.0296e-17 -2.81683e-16 0 5.28707e-21 5.10654e-19 0 6.69713e-22 3.60096e-22 0 7.33983e-22 -9.80881e-28 0 7.96632e-22 7.09687e-26 0 8.54403e-22 9.94783e-26 0 9.05485e-22 1.17611e-25 0 9.48987e-22 1.223e-25 0 9.84672e-22 1.14601e-25 0 1.01268e-21 9.73406e-26 0 1.03329e-21 7.34995e-26 0 1.04684e-21 4.55575e-26 0 1.05354e-21 1.54171e-26 0 1.05354e-21 -1.54171e-26 0 1.04684e-21 -4.55575e-26 0 1.03329e-21 -7.34995e-26 0 1.01268e-21 -9.73406e-26 0 9.84672e-22 -1.14601e-25 0 9.48987e-22 -1.223e-25 0 9.05485e-22 -1.17611e-25 0 8.54403e-22 -9.94783e-26 0 7.96632e-22 -7.09687e-26 0 7.33983e-22 9.80881e-28 0 6.69713e-22 -3.60096e-22 0 5.28707e-21 -5.10654e-19 0 -5.0296e-17 2.81683e-16 0 -3.20721e-14 -7.38632e-14 0 -1.20501e-11 8.65983e-09 0 1.12773e-06 -2.56576e-05 0 1.25273e-06 3.14391e-05 0 -1.35864e-11 -1.06299e-08 0 -3.60464e-14 9.39985e-14 0 -5.5988e-17 -3.45269e-16 0 1.64208e-20 6.28657e-19 0 1.22875e-20 4.79197e-22 0 1.34837e-20 3.72248e-23 0 1.46415e-20 3.52676e-23 0 1.57081e-20 3.18995e-23 0 1.66503e-20 2.77549e-23 0 1.74519e-20 2.3269e-23 0 1.81089e-20 1.87399e-23 0 1.86242e-20 1.43231e-23 0 1.90033e-20 1.00713e-23 0 1.92522e-20 5.97276e-24 0 1.93754e-20 1.97856e-24 0 1.93754e-20 -1.97856e-24 0 1.92522e-20 -5.97276e-24 0 1.90033e-20 -1.00713e-23 0 1.86242e-20 -1.43231e-23 0 1.81089e-20 -1.87399e-23 0 1.74519e-20 -2.3269e-23 0 1.66503e-20 -2.77549e-23 0 1.57081e-20 -3.18995e-23 0 1.46415e-20 -3.52676e-23 0 1.34837e-20 -3.72248e-23 0 1.22875e-20 -4.79197e-22 0 1.64208e-20 -6.28657e-19 0 -5.5988e-17 3.45269e-16 0 -3.60464e-14 -9.39985e-14 0 -1.35864e-11 1.06299e-08 0 1.25273e-06 -3.14391e-05 0 1.42126e-06 3.79072e-05 0 -1.57561e-11 -1.28496e-08 0 -4.16058e-14 1.19485e-13 0 -6.35169e-17 -4.16495e-16 0 2.5499e-19 7.63966e-19 0 2.76198e-19 1.5297e-21 0 3.04171e-19 9.91542e-22 0 3.31127e-19 9.3659e-22 0 3.5584e-19 8.45448e-22 0 3.77553e-19 7.34105e-22 0 3.95933e-19 6.14308e-22 0 4.10928e-19 4.93957e-22 0 4.22643e-19 3.77062e-22 0 4.31238e-19 2.64886e-22 0 4.3687e-19 1.56993e-22 0 4.39655e-19 5.19904e-23 0 4.39655e-19 -5.19904e-23 0 4.3687e-19 -1.56993e-22 0 4.31238e-19 -2.64886e-22 0 4.22643e-19 -3.77062e-22 0 4.10928e-19 -4.93957e-22 0 3.95933e-19 -6.14308e-22 0 3.77553e-19 -7.34105e-22 0 3.5584e-19 -8.45448e-22 0 3.31127e-19 -9.3659e-22 0 3.04171e-19 -9.91542e-22 0 2.76198e-19 -1.5297e-21 0 2.5499e-19 -7.63966e-19 0 -6.35169e-17 4.16495e-16 0 -4.16058e-14 -1.19485e-13 0 -1.57561e-11 1.28496e-08 0 1.42126e-06 -3.79072e-05 0 1.64956e-06 4.52926e-05 0 -1.88887e-11 -1.54117e-08 0 -4.95522e-14 1.53753e-13 0 -9.67942e-17 -4.97894e-16 0 -2.4884e-17 1.00873e-18 0 -2.75714e-17 9.34503e-20 0 -3.0313e-17 9.18812e-20 0 -3.29596e-17 8.61769e-20 0 -3.53915e-17 7.71562e-20 0 -3.75336e-17 6.64366e-20 0 -3.93511e-17 5.5169e-20 0 -4.08372e-17 4.40712e-20 0 -4.20002e-17 3.34664e-20 0 -4.28547e-17 2.34194e-20 0 -4.34151e-17 1.38449e-20 0 -4.36924e-17 4.57905e-21 0 -4.36924e-17 -4.57905e-21 0 -4.34151e-17 -1.38449e-20 0 -4.28547e-17 -2.34194e-20 0 -4.20002e-17 -3.34664e-20 0 -4.08372e-17 -4.40712e-20 0 -3.93511e-17 -5.5169e-20 0 -3.75336e-17 -6.64366e-20 0 -3.53915e-17 -7.71562e-20 0 -3.29596e-17 -8.61769e-20 0 -3.0313e-17 -9.18812e-20 0 -2.75714e-17 -9.34503e-20 0 -2.4884e-17 -1.00873e-18 0 -9.67942e-17 4.97894e-16 0 -4.95522e-14 -1.53753e-13 0 -1.88887e-11 1.54117e-08 0 1.64956e-06 -4.52926e-05 0 1.96722e-06 5.39137e-05 0 -2.36704e-11 -1.84529e-08 0 -6.06182e-14 2.03285e-13 0 7.8105e-16 -6.02154e-16 0 9.59381e-16 -9.1639e-18 0 1.05823e-15 -1.08758e-17 0 1.15972e-15 -1.07976e-17 0 1.25806e-15 -1.01622e-17 0 1.34882e-15 -9.13536e-18 0 1.42916e-15 -7.89896e-18 0 1.49764e-15 -6.58463e-18 0 1.55387e-15 -5.27746e-18 0 1.59803e-15 -4.01818e-18 0 1.63057e-15 -2.81741e-18 0 1.65194e-15 -1.66775e-18 0 1.66253e-15 -5.5195e-19 0 1.66253e-15 5.5195e-19 0 1.65194e-15 1.66775e-18 0 1.63057e-15 2.81741e-18 0 1.59803e-15 4.01818e-18 0 1.55387e-15 5.27746e-18 0 1.49764e-15 6.58463e-18 0 1.42916e-15 7.89896e-18 0 1.34882e-15 9.13536e-18 0 1.25806e-15 1.01622e-17 0 1.15972e-15 1.07976e-17 0 1.05823e-15 1.08758e-17 0 9.59381e-16 9.1639e-18 0 7.8105e-16 6.02154e-16 0 -6.06182e-14 -2.03285e-13 0 -2.36704e-11 1.84529e-08 0 1.96722e-06 -5.39137e-05 0 2.41954e-06 6.42179e-05 0 -3.13808e-11 -2.2187e-08 0 -1.63668e-14 2.81462e-13 0 7.01917e-14 -6.03632e-16 0 7.82235e-14 1.2774e-16 0 8.69062e-14 1.35562e-16 0 9.57677e-14 1.35932e-16 0 1.04301e-13 1.29513e-16 0 1.12118e-13 1.18089e-16 0 1.1898e-13 1.03582e-16 0 1.24784e-13 8.74826e-17 0 1.29515e-13 7.08946e-17 0 1.33208e-13 5.44531e-17 0 1.35917e-13 3.84284e-17 0 1.37691e-13 2.28442e-17 0 1.38569e-13 7.5765e-18 0 1.38569e-13 -7.5765e-18 0 1.37691e-13 -2.28442e-17 0 1.35917e-13 -3.84284e-17 0 1.33208e-13 -5.44531e-17 0 1.29515e-13 -7.08946e-17 0 1.24784e-13 -8.74826e-17 0 1.1898e-13 -1.03582e-16 0 1.12118e-13 -1.18089e-16 0 1.04301e-13 -1.29513e-16 0 9.57677e-14 -1.35932e-16 0 8.69062e-14 -1.35562e-16 0 7.82235e-14 -1.2774e-16 0 7.01917e-14 6.03632e-16 0 -1.63668e-14 -2.81462e-13 0 -3.13808e-11 2.2187e-08 0 2.41954e-06 -6.42179e-05 0 3.08503e-06 7.68319e-05 0 -5.33883e-11 -2.69707e-08 0 -8.41899e-12 4.4685e-13 0 -9.06997e-12 4.10446e-14 0 -1.00439e-11 4.83879e-14 0 -1.11183e-11 5.11032e-14 0 -1.2218e-11 5.065e-14 0 -1.32801e-11 4.75733e-14 0 -1.42566e-11 4.2665e-14 0 -1.51173e-11 3.68012e-14 0 -1.5848e-11 3.06091e-14 0 -1.64459e-11 2.44858e-14 0 -1.6914e-11 1.86146e-14 0 -1.72581e-11 1.30371e-14 0 -1.74838e-11 7.71144e-15 0 -1.75955e-11 2.55119e-15 0 -1.75955e-11 -2.55119e-15 0 -1.74838e-11 -7.71144e-15 0 -1.72581e-11 -1.30371e-14 0 -1.6914e-11 -1.86146e-14 0 -1.64459e-11 -2.44858e-14 0 -1.5848e-11 -3.06091e-14 0 -1.51173e-11 -3.68012e-14 0 -1.42566e-11 -4.2665e-14 0 -1.32801e-11 -4.75733e-14 0 -1.2218e-11 -5.065e-14 0 -1.11183e-11 -5.11032e-14 0 -1.00439e-11 -4.83879e-14 0 -9.06997e-12 -4.10446e-14 0 -8.41899e-12 -4.4685e-13 0 -5.33883e-11 2.69707e-08 0 3.08503e-06 -7.68319e-05 0 4.09937e-06 9.25636e-05 0 6.72467e-11 -3.34463e-08 0 1.39256e-10 -1.30421e-12 0 1.49563e-10 -3.06292e-12 0 1.63584e-10 -3.56845e-12 0 1.79338e-10 -3.77976e-12 0 1.95601e-10 -3.75455e-12 0 2.11448e-10 -3.53616e-12 0 2.26175e-10 -3.18155e-12 0 2.39308e-10 -2.75341e-12 0 2.50585e-10 -2.2972e-12 0 2.59903e-10 -1.84252e-12 0 2.67259e-10 -1.40371e-12 0 2.72701e-10 -9.84685e-13 0 2.76286e-10 -5.83052e-13 0 2.78065e-10 -1.92994e-13 0 2.78065e-10 1.92994e-13 0 2.76286e-10 5.83052e-13 0 2.72701e-10 9.84685e-13 0 2.67259e-10 1.40371e-12 0 2.59903e-10 1.84252e-12 0 2.50585e-10 2.2972e-12 0 2.39308e-10 2.75341e-12 0 2.26175e-10 3.18155e-12 0 2.11448e-10 3.53616e-12 0 1.95601e-10 3.75455e-12 0 1.79338e-10 3.77976e-12 0 1.63584e-10 3.56845e-12 0 1.49563e-10 3.06292e-12 0 1.39256e-10 1.30421e-12 0 6.72467e-11 3.34463e-08 0 4.09937e-06 -9.25636e-05 0 5.6654e-06 0.000111973 0 3.56358e-08 -4.29156e-08 0 3.69883e-08 -3.68482e-11 0 4.05422e-08 -4.72874e-11 0 4.50106e-08 -5.27776e-11 0 4.99227e-08 -5.51076e-11 0 5.49425e-08 -5.41344e-11 0 5.97829e-08 -5.02793e-11 0 6.42243e-08 -4.4493e-11 0 6.81304e-08 -3.7843e-11 0 7.14397e-08 -3.10609e-11 0 7.41419e-08 -2.4561e-11 0 7.62545e-08 -1.84965e-11 0 7.78055e-08 -1.28626e-11 0 7.8822e-08 -7.57214e-12 0 7.93247e-08 -2.49912e-12 0 7.93247e-08 2.49912e-12 0 7.8822e-08 7.57214e-12 0 7.78055e-08 1.28626e-11 0 7.62545e-08 1.84965e-11 0 7.41419e-08 2.4561e-11 0 7.14397e-08 3.10609e-11 0 6.81304e-08 3.7843e-11 0 6.42243e-08 4.4493e-11 0 5.97829e-08 5.02793e-11 0 5.49425e-08 5.41344e-11 0 4.99227e-08 5.51076e-11 0 4.50106e-08 5.27776e-11 0 4.05422e-08 4.72874e-11 0 3.69883e-08 3.68482e-11 0 3.56358e-08 4.29156e-08 0 5.6654e-06 -0.000111973 0 7.88164e-06 0.000134791 0 -2.86875e-06 -6.54387e-08 0 -2.938e-06 1.30937e-08 0 -3.20338e-06 1.93699e-08 0 -3.54345e-06 2.24301e-08 0 -3.91903e-06 2.371e-08 0 -4.30371e-06 2.3515e-08 0 -4.6755e-06 2.21042e-08 0 -5.0176e-06 1.98422e-08 0 -5.31943e-06 1.71319e-08 0 -5.57593e-06 1.42625e-08 0 -5.78595e-06 1.14184e-08 0 -5.95053e-06 8.68619e-09 0 -6.07156e-06 6.08653e-09 0 -6.15099e-06 3.60134e-09 0 -6.19031e-06 1.19163e-09 0 -6.19031e-06 -1.19163e-09 0 -6.15099e-06 -3.60134e-09 0 -6.07156e-06 -6.08653e-09 0 -5.95053e-06 -8.68619e-09 0 -5.78595e-06 -1.14184e-08 0 -5.57593e-06 -1.42625e-08 0 -5.31943e-06 -1.71319e-08 0 -5.0176e-06 -1.98422e-08 0 -4.6755e-06 -2.21042e-08 0 -4.30371e-06 -2.3515e-08 0 -3.91903e-06 -2.371e-08 0 -3.54345e-06 -2.24301e-08 0 -3.20338e-06 -1.93699e-08 0 -2.938e-06 -1.30937e-08 0 -2.86875e-06 6.54387e-08 0 7.88164e-06 -0.000134791 0 -4.26491e-05 -2.40268e-05 0 -1.27542e-05 5.0097e-07 0 -1.47836e-05 -5.70622e-07 0 -1.72378e-05 -8.88904e-07 0 -1.99404e-05 -1.03938e-06 0 -2.28052e-05 -1.10224e-06 0 -2.56804e-05 -1.0959e-06 0 -2.84e-05 -1.03332e-06 0 -3.08355e-05 -9.30937e-07 0 -3.2919e-05 -8.0679e-07 0 -3.46353e-05 -6.74007e-07 0 -3.6001e-05 -5.41229e-07 0 -3.70452e-05 -4.12721e-07 0 -3.77983e-05 -2.89724e-07 0 -3.82857e-05 -1.71633e-07 0 -3.85249e-05 -5.68251e-08 0 -3.85249e-05 5.68251e-08 0 -3.82857e-05 1.71633e-07 0 -3.77983e-05 2.89724e-07 0 -3.70452e-05 4.12721e-07 0 -3.6001e-05 5.41229e-07 0 -3.46353e-05 6.74007e-07 0 -3.2919e-05 8.0679e-07 0 -3.08355e-05 9.30937e-07 0 -2.84e-05 1.03332e-06 0 -2.56804e-05 1.0959e-06 0 -2.28052e-05 1.10224e-06 0 -1.99404e-05 1.03938e-06 0 -1.72378e-05 8.88904e-07 0 -1.47836e-05 5.70622e-07 0 -1.27542e-05 -5.0097e-07 0 -4.26491e-05 2.40268e-05 0 </DataArray> 
</PointData> 
<Points> 
<DataArray type="Float32" NumberOfComponents="3"> 