<?xml version="1.0"?> 
<VTKFile type="StructuredGrid" version="0.1"> 
<StructuredGrid WholeExtent="0 31 0 31 0 0"> 
<Piece Extent="0 31 0 31 0 0"> 
<PointData>
<DataArray type="Float32" Name="B" format="ascii" NumberOfComponents="3"> 
4.31183e-05 -4.85441e-05 0 3.06153e-05 -1.71725e-05 0 2.5196e-05 -7.70101e-06 0 2.18602e-05 -2.80062e-06 0 1.93748e-05 8.693e-08 0 1.7371e-05 1.85476e-06 0 1.56837e-05 2.93609e-06 0 1.42225e-05 3.57251e-06 0 1.29324e-05 3.9096e-06 0 1.17773e-05 4.0552e-06 0 1.07331e-05 4.07046e-06 0 9.78226e-06 3.99299e-06 0 8.91188e-06 3.86522e-06 0 8.11215e-06 3.703e-06 0 7.37493e-06 3.52315e-06 0 6.69368e-06 3.33662e-06 0 6.06268e-06 3.15041e-06 0 5.47685e-06 2.96933e-06 0 4.93177e-06 2.79672e-06 0 4.42324e-06 2.63565e-06 0 3.94753e-06 2.48589e-06 0 3.50113e-06 2.34975e-06 0 3.0807e-06 2.22699e-06 0 2.68317e-06 2.11673e-06 0 2.30562e-06 2.02154e-06 0 1.94521e-06 1.93878e-06 0 1.59933e-06 1.86903e-06 0 1.26536e-06 1.81304e-06 0 9.40836e-07 1.76888e-06 0 6.23357e-07 1.73803e-06 0 3.10511e-07 1.71958e-06 0 0 1.71262e-06 0 5.44095e-05 -6.10534e-06 0 3.92437e-05 -5.92495e-06 0 3.03192e-05 -2.10104e-06 0 2.49623e-05 8.5001e-07 0 2.12891e-05 2.78594e-06 0 1.85423e-05 3.99252e-06 0 1.6371e-05 4.70346e-06 0 1.45876e-05 5.07742e-06 0 1.30815e-05 5.21955e-06 0 1.1782e-05 5.21248e-06 0 1.06431e-05 5.10461e-06 0 9.63179e-06 4.92683e-06 0 8.72505e-06 4.71315e-06 0 7.90586e-06 4.47752e-06 0 7.1609e-06 4.23372e-06 0 6.48006e-06 3.99038e-06 0 5.85503e-06 3.75454e-06 0 5.27889e-06 3.52897e-06 0 4.74593e-06 3.31664e-06 0 4.25105e-06 3.12048e-06 0 3.78984e-06 2.93925e-06 0 3.35838e-06 2.7754e-06 0 2.95301e-06 2.62824e-06 0 2.5705e-06 2.49645e-06 0 2.20778e-06 2.38298e-06 0 1.86198e-06 2.28449e-06 0 1.53046e-06 2.20159e-06 0 1.2106e-06 2.13513e-06 0 8.99966e-07 2.08275e-06 0 5.96211e-07 2.04618e-06 0 2.96968e-07 2.02432e-06 0 0 2.01607e-06 0 5.03614e-05 6.52587e-06 0 4.03318e-05 4.58624e-06 0 3.23184e-05 4.76573e-06 0 2.65385e-05 5.53198e-06 0 2.23338e-05 6.19784e-06 0 1.91622e-05 6.61449e-06 0 1.6682e-05 6.79988e-06 0 1.4682e-05 6.80559e-06 0 1.30275e-05 6.6801e-06 0 1.16289e-05 6.46905e-06 0 1.04268e-05 6.20174e-06 0 9.37777e-06 5.89872e-06 0 8.45151e-06 5.5811e-06 0 7.62574e-06 5.25959e-06 0 6.88316e-06 4.94321e-06 0 6.21092e-06 4.63698e-06 0 5.59865e-06 4.3476e-06 0 5.03796e-06 4.07494e-06 0 4.52213e-06 3.82127e-06 0 4.04528e-06 3.58913e-06 0 3.60251e-06 3.37598e-06 0 3.18957e-06 3.18433e-06 0 2.80255e-06 3.01287e-06 0 2.43809e-06 2.85976e-06 0 2.09305e-06 2.72831e-06 0 1.76454e-06 2.6144e-06 0 1.44992e-06 2.51868e-06 0 1.14662e-06 2.44202e-06 0 8.52259e-07 2.38164e-06 0 5.64537e-07 2.33952e-06 0 2.81172e-07 2.31436e-06 0 0 2.30487e-06 0 4.68986e-05 1.58427e-05 0 3.88404e-05 1.28952e-05 0 3.2003e-05 1.12487e-05 0 2.65809e-05 1.03932e-05 0 2.23811e-05 9.87929e-06 0 1.91121e-05 9.4717e-06 0 1.65256e-05 9.07536e-06 0 1.44385e-05 8.66146e-06 0 1.27217e-05 8.22744e-06 0 1.12831e-05 7.78103e-06 0 1.00592e-05 7.33086e-06 0 9.00236e-06 6.88592e-06 0 8.07868e-06 6.45208e-06 0 7.26299e-06 6.03616e-06 0 6.53567e-06 5.64131e-06 0 5.8822e-06 5.26814e-06 0 5.29092e-06 4.92273e-06 0 4.75248e-06 4.60145e-06 0 4.25947e-06 4.30562e-06 0 3.80556e-06 4.03723e-06 0 3.38552e-06 3.7922e-06 0 2.99488e-06 3.57301e-06 0 2.62962e-06 3.37766e-06 0 2.28632e-06 3.20372e-06 0 1.96183e-06 3.05477e-06 0 1.65328e-06 2.92593e-06 0 1.35808e-06 2.8178e-06 0 1.07374e-06 2.73133e-06 0 7.97946e-07 2.66326e-06 0 5.28496e-07 2.61581e-06 0 2.63202e-07 2.58748e-06 0 0 2.57679e-06 0 4.28516e-05 2.37084e-05 0 3.60322e-05 1.98055e-05 0 3.02026e-05 1.69691e-05 0 2.53917e-05 1.49538e-05 0 2.15078e-05 1.34772e-05 0 1.83914e-05 1.23274e-05 0 1.58788e-05 1.13723e-05 0 1.38315e-05 1.05385e-05 0 1.21414e-05 9.7878e-06 0 1.07264e-05 9.09648e-06 0 9.52637e-06 8.45474e-06 0 8.49526e-06 7.86098e-06 0 7.59913e-06 7.3056e-06 0 6.81243e-06 6.79156e-06 0 6.11498e-06 6.31581e-06 0 5.49174e-06 5.87416e-06 0 4.93059e-06 5.47206e-06 0 4.42185e-06 5.10197e-06 0 3.95786e-06 4.7642e-06 0 3.53211e-06 4.46005e-06 0 3.13928e-06 4.18379e-06 0 2.77485e-06 3.9378e-06 0 2.43481e-06 3.71935e-06 0 2.11579e-06 3.52534e-06 0 1.81469e-06 3.35961e-06 0 1.52872e-06 3.21649e-06 0 1.2554e-06 3.09655e-06 0 9.9233e-07 3.00074e-06 0 7.3732e-07 2.92538e-06 0 4.88284e-07 2.87288e-06 0 2.43159e-07 2.84153e-06 0 0 2.82972e-06 0 3.79093e-05 3.04245e-05 0 3.22205e-05 2.56075e-05 0 2.73566e-05 2.18651e-05 0 2.32622e-05 1.89904e-05 0 1.98658e-05 1.67634e-05 0 1.70704e-05 1.49976e-05 0 1.47711e-05 1.35532e-05 0 1.28711e-05 1.23366e-05 0 1.12885e-05 1.12884e-05 0 9.95709e-06 1.03623e-05 0 8.82589e-06 9.5344e-06 0 7.85417e-06 8.79467e-06 0 7.01113e-06 8.11963e-06 0 6.27295e-06 7.50887e-06 0 5.62054e-06 6.95349e-06 0 5.03946e-06 6.44464e-06 0 4.51798e-06 5.98715e-06 0 4.04666e-06 5.56962e-06 0 3.61806e-06 5.19127e-06 0 3.2258e-06 4.85272e-06 0 2.86471e-06 4.54656e-06 0 2.53041e-06 4.27505e-06 0 2.21904e-06 4.03467e-06 0 1.92735e-06 3.82168e-06 0 1.6524e-06 3.64015e-06 0 1.39155e-06 3.48362e-06 0 1.14245e-06 3.35261e-06 0 9.02858e-07 3.24805e-06 0 6.70735e-07 3.16588e-06 0 4.44141e-07 3.10866e-06 0 2.21162e-07 3.07451e-06 0 0 3.06164e-06 0 3.20611e-05 3.59094e-05 0 2.75926e-05 3.03211e-05 0 2.37373e-05 2.58909e-05 0 2.04309e-05 2.2386e-05 0 1.76226e-05 1.95982e-05 0 1.52555e-05 1.73531e-05 0 1.32673e-05 1.55117e-05 0 1.15964e-05 1.39722e-05 0 1.01868e-05 1.26651e-05 0 8.99016e-06 1.15298e-05 0 7.96737e-06 1.0533e-05 0 7.08568e-06 9.65875e-06 0 6.31944e-06 8.8725e-06 0 5.64826e-06 8.17127e-06 0 5.05543e-06 7.54111e-06 0 4.52803e-06 6.96909e-06 0 4.05547e-06 6.45953e-06 0 3.62911e-06 5.99746e-06 0 3.24208e-06 5.58109e-06 0 2.88848e-06 5.21041e-06 0 2.56351e-06 4.87639e-06 0 2.2631e-06 4.58116e-06 0 1.98368e-06 4.32045e-06 0 1.72223e-06 4.08992e-06 0 1.47604e-06 3.89383e-06 0 1.24268e-06 3.72495e-06 0 1.02e-06 3.58376e-06 0 8.05945e-07 3.47119e-06 0 5.98657e-07 3.38278e-06 0 3.96376e-07 3.32124e-06 0 1.97366e-07 3.28453e-06 0 0 3.27069e-06 0 2.54943e-05 3.99835e-05 0 2.23621e-05 3.38784e-05 0 1.95708e-05 2.89942e-05 0 1.71005e-05 2.50702e-05 0 1.49375e-05 2.18981e-05 0 1.30622e-05 1.93106e-05 0 1.14475e-05 1.71727e-05 0 1.0062e-05 1.53824e-05 0 8.87341e-06 1.3867e-05 0 7.85117e-06 1.25586e-05 0 6.96876e-06 1.14186e-05 0 6.20267e-06 1.04282e-05 0 5.53362e-06 9.54461e-06 0 4.94569e-06 8.76325e-06 0 4.42542e-06 8.06635e-06 0 3.96217e-06 7.43764e-06 0 3.547e-06 6.88119e-06 0 3.17253e-06 6.37891e-06 0 2.8328e-06 5.92822e-06 0 2.52267e-06 5.52851e-06 0 2.2379e-06 5.16935e-06 0 1.97488e-06 4.85273e-06 0 1.73045e-06 4.57373e-06 0 1.50193e-06 4.32743e-06 0 1.2869e-06 4.11825e-06 0 1.0832e-06 3.93831e-06 0 8.8894e-07 3.788e-06 0 7.02289e-07 3.66825e-06 0 5.21604e-07 3.57425e-06 0 3.45332e-07 3.50886e-06 0 1.71942e-07 3.46985e-06 0 0 3.45515e-06 0 1.85451e-05 4.25151e-05 0 1.67947e-05 3.62257e-05 0 1.5082e-05 3.11443e-05 0 1.34589e-05 2.70091e-05 0 1.19603e-05 2.36206e-05 0 1.06044e-05 2.08229e-05 0 9.39562e-06 1.84901e-05 0 8.32847e-06 1.65252e-05 0 7.39171e-06 1.48578e-05 0 6.57118e-06 1.34183e-05 0 5.85254e-06 1.21665e-05 0 5.22166e-06 1.10828e-05 0 4.666e-06 1.01196e-05 0 4.17464e-06 9.27161e-06 0 3.73785e-06 8.51849e-06 0 3.3477e-06 7.8416e-06 0 2.9973e-06 7.24496e-06 0 2.68085e-06 6.70808e-06 0 2.39354e-06 6.22772e-06 0 2.13118e-06 5.80287e-06 0 1.89027e-06 5.42188e-06 0 1.6678e-06 5.0867e-06 0 1.46111e-06 4.79181e-06 0 1.26794e-06 4.5318e-06 0 1.08624e-06 4.31127e-06 0 9.14182e-07 4.12171e-06 0 7.50143e-07 3.96349e-06 0 5.92579e-07 3.83752e-06 0 4.40088e-07 3.73868e-06 0 2.91348e-07 3.66994e-06 0 1.45059e-07 3.62895e-06 0 0 3.6135e-06 0 1.16247e-05 4.35026e-05 0 1.11896e-05 3.73799e-05 0 1.05044e-05 3.23576e-05 0 9.69454e-06 2.82085e-05 0 8.843e-06 2.47592e-05 0 8.00282e-06 2.18743e-05 0 7.20569e-06 1.94429e-05 0 6.46827e-06 1.7378e-05 0 5.79718e-06 1.56156e-05 0 5.19265e-06 1.4089e-05 0 4.65134e-06 1.27592e-05 0 4.1679e-06 1.16078e-05 0 3.73636e-06 1.0585e-05 0 3.35075e-06 9.68592e-06 0 3.00527e-06 8.88887e-06 0 2.69483e-06 8.17379e-06 0 2.41478e-06 7.54486e-06 0 2.16104e-06 6.97994e-06 0 1.93014e-06 6.47536e-06 0 1.71895e-06 6.02986e-06 0 1.52482e-06 5.6309e-06 0 1.34543e-06 5.28036e-06 0 1.1787e-06 4.97231e-06 0 1.02285e-06 4.70094e-06 0 8.7624e-07 4.47097e-06 0 7.37415e-07 4.27343e-06 0 6.05069e-07 4.10864e-06 0 4.77958e-07 3.9775e-06 0 3.54951e-07 3.87463e-06 0 2.3498e-07 3.80311e-06 0 1.16992e-07 3.76047e-06 0 0 3.7444e-06 0 5.11048e-06 4.30953e-05 0 5.81323e-06 3.74442e-05 0 6.03747e-06 3.27045e-05 0 5.96261e-06 2.87132e-05 0 5.7082e-06 2.53388e-05 0 5.35428e-06 2.24751e-05 0 4.95375e-06 2.00316e-05 0 4.54059e-06 1.79355e-05 0 4.13566e-06 1.61322e-05 0 3.751e-06 1.45612e-05 0 3.39257e-06 1.31873e-05 0 3.0627e-06 1.19941e-05 0 2.76135e-06 1.09328e-05 0 2.48721e-06 9.99919e-06 0 2.23819e-06 9.17142e-06 0 2.01203e-06 8.42899e-06 0 1.80633e-06 7.77642e-06 0 1.61879e-06 7.19065e-06 0 1.44733e-06 6.66786e-06 0 1.28994e-06 6.20667e-06 0 1.1449e-06 5.79394e-06 0 1.0106e-06 5.43158e-06 0 8.85616e-07 5.11335e-06 0 7.68665e-07 4.83316e-06 0 6.58579e-07 4.59585e-06 0 5.54289e-07 4.39207e-06 0 4.54836e-07 4.22215e-06 0 3.593e-07 4.08697e-06 0 2.66837e-07 3.98095e-06 0 1.7665e-07 3.90725e-06 0 8.79513e-08 3.86332e-06 0 0 3.84676e-06 0 -6.27911e-07 4.15793e-05 0 9.30601e-07 3.66044e-05 0 1.87902e-06 3.23086e-05 0 2.41498e-06 2.86052e-05 0 2.67439e-06 2.54126e-05 0 2.75169e-06 2.26581e-05 0 2.71251e-06 2.02749e-05 0 2.60211e-06 1.82069e-05 0 2.45118e-06 1.64107e-05 0 2.28034e-06 1.48345e-05 0 2.10267e-06 1.34481e-05 0 1.9266e-06 1.22384e-05 0 1.75702e-06 1.11591e-05 0 1.59661e-06 1.02075e-05 0 1.44659e-06 9.36244e-06 0 1.30728e-06 8.60381e-06 0 1.1784e-06 7.93659e-06 0 1.05936e-06 7.33752e-06 0 9.49422e-07 6.80282e-06 0 8.47739e-07 6.33117e-06 0 7.53473e-07 5.90914e-06 0 6.65806e-07 5.5387e-06 0 5.83937e-07 5.21343e-06 0 5.07137e-07 4.92711e-06 0 4.34708e-07 4.68466e-06 0 3.65997e-07 4.47652e-06 0 3.00406e-07 4.30298e-06 0 2.37351e-07 4.16495e-06 0 1.76294e-07 4.0567e-06 0 1.1672e-07 3.98147e-06 0 5.81158e-08 3.93662e-06 0 0 3.91971e-06 0 -5.54709e-06 3.9297e-05 0 -3.3977e-06 3.50848e-05 0 -1.90415e-06 3.13209e-05 0 -8.80907e-07 2.79878e-05 0 -1.93683e-07 2.5051e-05 0 2.55013e-07 2.24707e-05 0 5.35939e-07 2.02042e-05 0 7.0026e-07 1.82123e-05 0 7.84685e-07 1.64636e-05 0 8.15591e-07 1.4916e-05 0 8.11139e-07 1.35452e-05 0 7.84408e-07 1.23419e-05 0 7.44181e-07 1.1264e-05 0 6.96399e-07 1.031e-05 0 6.45132e-07 9.46072e-06 0 5.92921e-07 8.69685e-06 0 5.41406e-07 8.02392e-06 0 4.91566e-07 7.41913e-06 0 4.43922e-07 6.87892e-06 0 3.98716e-07 6.40212e-06 0 3.5599e-07 5.97535e-06 0 3.15671e-07 5.60065e-06 0 2.77602e-07 5.27159e-06 0 2.41591e-07 4.98191e-06 0 2.07416e-07 4.73661e-06 0 1.74842e-07 4.52602e-06 0 1.43639e-07 4.35043e-06 0 1.13566e-07 4.21077e-06 0 8.43929e-08 4.10125e-06 0 5.58923e-08 4.02513e-06 0 2.78345e-08 3.97975e-06 0 0 3.96265e-06 0 -9.53126e-06 3.65723e-05 0 -7.05467e-06 3.31086e-05 0 -5.20591e-06 2.9898e-05 0 -3.83292e-06 2.69719e-05 0 -2.8178e-06 2.4333e-05 0 -2.07026e-06 2.19691e-05 0 -1.52168e-06 1.9859e-05 0 -1.12028e-06 1.79791e-05 0 -8.27283e-07 1.63095e-05 0 -6.13505e-07 1.48182e-05 0 -4.57849e-07 1.34869e-05 0 -3.44254e-07 1.231e-05 0 -2.6123e-07 1.12505e-05 0 -2.00416e-07 1.03087e-05 0 -1.5556e-07 9.46724e-06 0 -1.22304e-07 8.70848e-06 0 -9.74249e-08 8.03842e-06 0 -7.8591e-08 7.43525e-06 0 -6.41665e-08 6.89577e-06 0 -5.29299e-08 6.41909e-06 0 -4.40243e-08 5.9921e-06 0 -3.68309e-08 5.61697e-06 0 -3.08894e-08 5.28738e-06 0 -2.58778e-08 4.99712e-06 0 -2.1555e-08 4.75126e-06 0 -1.77427e-08 4.54014e-06 0 -1.43115e-08 4.36409e-06 0 -1.11594e-08 4.22405e-06 0 -8.20959e-09 4.11422e-06 0 -5.40031e-09 4.03787e-06 0 -2.6787e-09 3.99236e-06 0 0 3.97521e-06 0 -1.27006e-05 3.36658e-05 0 -1.00884e-05 3.08726e-05 0 -8.03577e-06 2.81873e-05 0 -6.4301e-06 2.56675e-05 0 -5.17666e-06 2.33402e-05 0 -4.19831e-06 2.12137e-05 0 -3.43343e-06 1.92836e-05 0 -2.83346e-06 1.75398e-05 0 -2.36058e-06 1.59722e-05 0 -1.98518e-06 1.45583e-05 0 -1.68505e-06 1.32853e-05 0 -1.44259e-06 1.21513e-05 0 -1.24467e-06 1.11249e-05 0 -1.08132e-06 1.02077e-05 0 -9.44741e-07 9.38493e-06 0 -8.29194e-07 8.64067e-06 0 -7.30212e-07 7.98143e-06 0 -6.44357e-07 7.38676e-06 0 -5.69054e-07 6.85395e-06 0 -5.02234e-07 6.38243e-06 0 -4.42318e-07 5.9596e-06 0 -3.88062e-07 5.58776e-06 0 -3.38438e-07 5.26081e-06 0 -2.92644e-07 4.97272e-06 0 -2.50001e-07 4.72857e-06 0 -2.09937e-07 4.51884e-06 0 -1.71973e-07 4.3439e-06 0 -1.35675e-07 4.20471e-06 0 -1.00666e-07 4.09553e-06 0 -6.66009e-08 4.01962e-06 0 -3.31473e-08 3.97437e-06 0 0 3.95732e-06 0 -1.52319e-05 3.07451e-05 0 -1.2604e-05 2.85202e-05 0 -1.04532e-05 2.63052e-05 0 -8.70308e-06 2.41668e-05 0 -7.28287e-06 2.21448e-05 0 -6.13065e-06 2.02603e-05 0 -5.19424e-06 1.8521e-05 0 -4.43057e-06 1.69271e-05 0 -3.80475e-06 1.54765e-05 0 -3.28846e-06 1.41547e-05 0 -2.85969e-06 1.29544e-05 0 -2.50044e-06 1.18764e-05 0 -2.19681e-06 1.08949e-05 0 -1.93791e-06 1.00129e-05 0 -1.71491e-06 9.21812e-06 0 -1.52112e-06 8.49666e-06 0 -1.35112e-06 7.85537e-06 0 -1.20062e-06 7.27549e-06 0 -1.06628e-06 6.75483e-06 0 -9.45317e-07 6.29319e-06 0 -8.35528e-07 5.87866e-06 0 -7.35116e-07 5.51365e-06 0 -6.42548e-07 5.1924e-06 0 -5.5658e-07 4.90912e-06 0 -4.76128e-07 4.66887e-06 0 -4.00249e-07 4.46239e-06 0 -3.28135e-07 4.2901e-06 0 -2.59034e-07 4.15296e-06 0 -1.92279e-07 4.04536e-06 0 -1.27249e-07 3.97055e-06 0 -6.3343e-08 3.92595e-06 0 0 3.90914e-06 0 -1.71464e-05 2.79109e-05 0 -1.45884e-05 2.61517e-05 0 -1.24263e-05 2.43418e-05 0 -1.06113e-05 2.25465e-05 0 -9.0933e-06 2.081e-05 0 -7.82512e-06 1.91601e-05 0 -6.7648e-06 1.76121e-05 0 -5.87603e-06 1.61733e-05 0 -5.12822e-06 1.48476e-05 0 -4.49568e-06 1.36275e-05 0 -3.95777e-06 1.25095e-05 0 -3.49709e-06 1.14971e-05 0 -3.09985e-06 1.05697e-05 0 -2.75489e-06 9.73144e-06 0 -2.45296e-06 8.97237e-06 0 -2.18683e-06 8.28074e-06 0 -1.95051e-06 7.66362e-06 0 -1.73911e-06 7.10411e-06 0 -1.54873e-06 6.60053e-06 0 -1.37606e-06 6.15307e-06 0 -1.21839e-06 5.75065e-06 0 -1.07348e-06 5.39578e-06 0 -9.39364e-07 5.08309e-06 0 -8.14413e-07 4.80712e-06 0 -6.97184e-07 4.57286e-06 0 -5.864e-07 4.37141e-06 0 -4.80952e-07 4.20323e-06 0 -3.79793e-07 4.0693e-06 0 -2.81984e-07 3.9642e-06 0 -1.86646e-07 3.89111e-06 0 -9.29186e-08 3.84752e-06 0 0 3.83109e-06 0 -1.86538e-05 2.52146e-05 0 -1.62035e-05 2.38299e-05 0 -1.4076e-05 2.23605e-05 0 -1.2243e-05 2.08652e-05 0 -1.0671e-05 1.93872e-05 0 -9.32601e-06 1.79567e-05 0 -8.17553e-06 1.65931e-05 0 -7.19015e-06 1.53083e-05 0 -6.34407e-06 1.411e-05 0 -5.61477e-06 1.29959e-05 0 -4.98363e-06 1.19662e-05 0 -4.43446e-06 1.10259e-05 0 -3.95406e-06 1.01593e-05 0 -3.53152e-06 9.37118e-06 0 -3.15751e-06 8.65401e-06 0 -2.8246e-06 7.99799e-06 0 -2.52648e-06 7.41028e-06 0 -2.25788e-06 6.87593e-06 0 -2.01452e-06 6.39377e-06 0 -1.79268e-06 5.96432e-06 0 -1.58927e-06 5.57745e-06 0 -1.40167e-06 5.23574e-06 0 -1.22756e-06 4.93425e-06 0 -1.06497e-06 4.6679e-06 0 -9.12155e-07 4.44158e-06 0 -7.67533e-07 4.24683e-06 0 -6.29718e-07 4.08414e-06 0 -4.97392e-07 3.95453e-06 0 -3.69365e-07 3.85279e-06 0 -2.44514e-07 3.782e-06 0 -1.21736e-07 3.73979e-06 0 0 3.72388e-06 0 -1.98233e-05 2.26764e-05 0 -1.74988e-05 2.15897e-05 0 -1.5435e-05 2.0402e-05 0 -1.36176e-05 1.9164e-05 0 -1.20258e-05 1.7915e-05 0 -1.06361e-05 1.66847e-05 0 -9.42455e-06 1.54942e-05 0 -8.36806e-06 1.43575e-05 0 -7.44561e-06 1.32849e-05 0 -6.63813e-06 1.2278e-05 0 -5.92935e-06 1.13392e-05 0 -5.30468e-06 1.04749e-05 0 -4.75192e-06 9.67343e-06 0 -4.26072e-06 8.94024e-06 0 -3.82202e-06 8.26967e-06 0 -3.42845e-06 7.65382e-06 0 -3.07361e-06 7.09984e-06 0 -2.75207e-06 6.59467e-06 0 -2.45931e-06 6.13763e-06 0 -2.19132e-06 5.72956e-06 0 -1.94474e-06 5.36128e-06 0 -1.71668e-06 5.03543e-06 0 -1.50451e-06 4.74754e-06 0 -1.306e-06 4.49292e-06 0 -1.11912e-06 4.27634e-06 0 -9.42033e-07 4.08983e-06 0 -7.73113e-07 3.93393e-06 0 -6.10794e-07 3.80966e-06 0 -4.53654e-07 3.71207e-06 0 -3.00347e-07 3.64416e-06 0 -1.49544e-07 3.60365e-06 0 0 3.58838e-06 0 -2.07073e-05 2.02993e-05 0 -1.85135e-05 1.94488e-05 0 -1.65298e-05 1.84924e-05 0 -1.47508e-05 1.74721e-05 0 -1.31649e-05 1.64229e-05 0 -1.17565e-05 1.53721e-05 0 -1.05085e-05 1.43406e-05 0 -9.40347e-06 1.33434e-05 0 -8.42482e-06 1.23918e-05 0 -7.55683e-06 1.14902e-05 0 -6.78565e-06 1.06426e-05 0 -6.09854e-06 9.85599e-06 0 -5.48453e-06 9.12218e-06 0 -4.93407e-06 8.44695e-06 0 -4.43866e-06 7.82633e-06 0 -3.99118e-06 7.25409e-06 0 -3.58535e-06 6.73723e-06 0 -3.21574e-06 6.26451e-06 0 -2.87774e-06 5.83568e-06 0 -2.56719e-06 5.45184e-06 0 -2.28057e-06 5.10478e-06 0 -2.01477e-06 4.79716e-06 0 -1.76694e-06 4.52499e-06 0 -1.53465e-06 4.284e-06 0 -1.31565e-06 4.07877e-06 0 -1.10787e-06 3.90192e-06 0 -9.09474e-07 3.75398e-06 0 -7.18686e-07 3.63599e-06 0 -5.33878e-07 3.5433e-06 0 -3.535e-07 3.47878e-06 0 -1.76021e-07 3.44028e-06 0 0 3.42576e-06 0 -2.13996e-05 1.80766e-05 0 -1.93329e-05 1.7413e-05 0 -1.74346e-05 1.66452e-05 0 -1.57053e-05 1.5808e-05 0 -1.41396e-05 1.49312e-05 0 -1.27284e-05 1.40393e-05 0 -1.14602e-05 1.3152e-05 0 -1.03222e-05 1.2284e-05 0 -9.30174e-06 1.1447e-05 0 -8.38626e-06 1.06469e-05 0 -7.56429e-06 9.88878e-06 0 -6.82493e-06 9.17987e-06 0 -6.15855e-06 8.51473e-06 0 -5.55655e-06 7.8992e-06 0 -5.01109e-06 7.33074e-06 0 -4.51545e-06 6.80457e-06 0 -4.06363e-06 6.32741e-06 0 -3.65026e-06 5.88972e-06 0 -3.27078e-06 5.4916e-06 0 -2.92097e-06 5.13437e-06 0 -2.5972e-06 4.81077e-06 0 -2.29622e-06 4.52342e-06 0 -2.01504e-06 4.26882e-06 0 -1.75104e-06 4.04313e-06 0 -1.50179e-06 3.85071e-06 0 -1.26505e-06 3.68477e-06 0 -1.03879e-06 3.54586e-06 0 -8.21051e-07 3.43501e-06 0 -6.10017e-07 3.34788e-06 0 -4.03959e-07 3.28722e-06 0 -2.0116e-07 3.25101e-06 0 0 3.23737e-06 0 -2.1922e-05 1.5997e-05 0 -1.99738e-05 1.5481e-05 0 -1.81607e-05 1.48667e-05 0 -1.6487e-05 1.41824e-05 0 -1.49517e-05 1.34534e-05 0 -1.35501e-05 1.27011e-05 0 -1.2275e-05 1.19432e-05 0 -1.11176e-05 1.11937e-05 0 -1.00685e-05 1.04638e-05 0 -9.11779e-06 9.76026e-06 0 -8.25629e-06 9.08868e-06 0 -7.47487e-06 8.45621e-06 0 -6.76523e-06 7.85956e-06 0 -6.11977e-06 7.30443e-06 0 -5.53138e-06 6.7894e-06 0 -4.99389e-06 6.31091e-06 0 -4.50159e-06 5.8753e-06 0 -4.04936e-06 5.47461e-06 0 -3.63272e-06 5.1092e-06 0 -3.24749e-06 4.7805e-06 0 -2.88999e-06 4.48222e-06 0 -2.55691e-06 4.21689e-06 0 -2.24515e-06 3.98146e-06 0 -1.95197e-06 3.77252e-06 0 -1.67481e-06 3.59419e-06 0 -1.41127e-06 3.44026e-06 0 -1.15917e-06 3.31133e-06 0 -9.1639e-07 3.20838e-06 0 -6.80958e-07 3.12743e-06 0 -4.50986e-07 3.07105e-06 0 -2.24592e-07 3.03739e-06 0 0 3.0247e-06 0 -2.23193e-05 1.40464e-05 0 -2.0479e-05 1.3647e-05 0 -1.87471e-05 1.31576e-05 0 -1.71301e-05 1.2601e-05 0 -1.563e-05 1.19984e-05 0 -1.42454e-05 1.13681e-05 0 -1.29723e-05 1.07256e-05 0 -1.1805e-05 1.00838e-05 0 -1.07369e-05 9.4532e-06 0 -9.76044e-06 8.84066e-06 0 -8.86838e-06 8.25193e-06 0 -8.05324e-06 7.69377e-06 0 -7.30797e-06 7.16457e-06 0 -6.626e-06 6.66969e-06 0 -6.00098e-06 6.20859e-06 0 -5.42726e-06 5.7787e-06 0 -4.89957e-06 5.38591e-06 0 -4.41302e-06 5.02362e-06 0 -3.96331e-06 4.69242e-06 0 -3.54634e-06 4.39381e-06 0 -3.15845e-06 4.12235e-06 0 -2.7963e-06 3.88047e-06 0 -2.45674e-06 3.66555e-06 0 -2.13694e-06 3.4746e-06 0 -1.83423e-06 3.31144e-06 0 -1.54609e-06 3.17051e-06 0 -1.27024e-06 3.05238e-06 0 -1.00439e-06 2.958e-06 0 -7.46466e-07 2.88376e-06 0 -4.94422e-07 2.83203e-06 0 -2.46239e-07 2.80115e-06 0 0 2.7895e-06 0 -2.26256e-05 1.22104e-05 0 -2.08824e-05 1.19031e-05 0 -1.92258e-05 1.15152e-05 0 -1.76639e-05 1.10653e-05 0 -1.62005e-05 1.05706e-05 0 -1.48367e-05 1.00466e-05 0 -1.35711e-05 9.5069e-06 0 -1.24004e-05 8.96275e-06 0 -1.13201e-05 8.42364e-06 0 -1.03249e-05 7.89634e-06 0 -9.4092e-06 7.38634e-06 0 -8.56691e-06 6.89988e-06 0 -7.79224e-06 6.43651e-06 0 -7.07952e-06 6.00118e-06 0 -6.42319e-06 5.59395e-06 0 -5.81814e-06 5.21306e-06 0 -5.25951e-06 4.86384e-06 0 -4.74273e-06 4.54094e-06 0 -4.26367e-06 4.24507e-06 0 -3.81835e-06 3.97773e-06 0 -3.40318e-06 3.7343e-06 0 -3.01483e-06 3.51704e-06 0 -2.65011e-06 3.32375e-06 0 -2.30615e-06 3.15184e-06 0 -1.98018e-06 3.00479e-06 0 -1.66962e-06 2.87768e-06 0 -1.37205e-06 2.77107e-06 0 -1.08511e-06 2.68584e-06 0 -8.06564e-07 2.61878e-06 0 -5.34281e-07 2.57204e-06 0 -2.66105e-07 2.54413e-06 0 0 2.5336e-06 0 -2.28474e-05 1.04745e-05 0 -2.11877e-05 1.02399e-05 0 -1.9598e-05 9.93474e-06 0 -1.80866e-05 9.57396e-06 0 -1.66591e-05 9.17162e-06 0 -1.53179e-05 8.74056e-06 0 -1.40636e-05 8.29228e-06 0 -1.28945e-05 7.83655e-06 0 -1.18081e-05 7.38168e-06 0 -1.08006e-05 6.93399e-06 0 -9.86783e-06 6.49855e-06 0 -9.00501e-06 6.08093e-06 0 -8.20734e-06 5.68146e-06 0 -7.47002e-06 5.30458e-06 0 -6.78816e-06 4.95077e-06 0 -6.1572e-06 4.61886e-06 0 -5.5727e-06 4.31361e-06 0 -5.03038e-06 4.03073e-06 0 -4.52632e-06 3.77097e-06 0 -4.05671e-06 3.53579e-06 0 -3.61802e-06 3.32132e-06 0 -3.20696e-06 3.12963e-06 0 -2.82034e-06 2.95887e-06 0 -2.45527e-06 2.80686e-06 0 -2.10893e-06 2.6767e-06 0 -1.77866e-06 2.56412e-06 0 -1.46199e-06 2.46963e-06 0 -1.15644e-06 2.39406e-06 0 -8.59698e-07 2.33458e-06 0 -5.6953e-07 2.29311e-06 0 -2.83677e-07 2.26834e-06 0 0 2.25899e-06 0 -2.30155e-05 8.82434e-06 0 -2.14281e-05 8.64716e-06 0 -1.98972e-05 8.40977e-06 0 -1.84315e-05 8.12396e-06 0 -1.70374e-05 7.80104e-06 0 -1.57185e-05 7.45149e-06 0 -1.44767e-05 7.08486e-06 0 -1.33118e-05 6.70939e-06 0 -1.22227e-05 6.33218e-06 0 -1.12069e-05 5.95886e-06 0 -1.02614e-05 5.59396e-06 0 -9.38253e-06 5.2423e-06 0 -8.56638e-06 4.90468e-06 0 -7.80888e-06 4.58497e-06 0 -7.1058e-06 4.28386e-06 0 -6.45306e-06 4.00067e-06 0 -5.8466e-06 3.7395e-06 0 -5.28245e-06 3.49697e-06 0 -4.7569e-06 3.27384e-06 0 -4.26628e-06 3.07147e-06 0 -3.80716e-06 2.88667e-06 0 -3.3763e-06 2.72127e-06 0 -2.97053e-06 2.57378e-06 0 -2.58695e-06 2.44236e-06 0 -2.2227e-06 2.32974e-06 0 -1.87508e-06 2.23227e-06 0 -1.54154e-06 2.15042e-06 0 -1.21956e-06 2.08492e-06 0 -9.06731e-07 2.03335e-06 0 -6.00737e-07 1.99739e-06 0 -2.99236e-07 1.9759e-06 0 0 1.9678e-06 0 -2.31388e-05 7.24652e-06 0 -2.16121e-05 7.11484e-06 0 -2.01312e-05 6.93326e-06 0 -1.87052e-05 6.71097e-06 0 -1.73408e-05 6.45688e-06 0 -1.60427e-05 6.17934e-06 0 -1.48134e-05 5.88607e-06 0 -1.36541e-05 5.58383e-06 0 -1.25647e-05 5.27847e-06 0 -1.15437e-05 4.97485e-06 0 -1.05891e-05 4.6768e-06 0 -9.69804e-06 4.38838e-06 0 -8.86748e-06 4.1106e-06 0 -8.09395e-06 3.8467e-06 0 -7.37375e-06 3.59749e-06 0 -6.70325e-06 3.36257e-06 0 -6.07872e-06 3.1454e-06 0 -5.49647e-06 2.94338e-06 0 -4.95299e-06 2.75722e-06 0 -4.44476e-06 2.5881e-06 0 -3.96844e-06 2.43349e-06 0 -3.52086e-06 2.29496e-06 0 -3.09887e-06 2.1713e-06 0 -2.69955e-06 2.06104e-06 0 -2.32005e-06 1.96647e-06 0 -1.95763e-06 1.88458e-06 0 -1.60969e-06 1.81578e-06 0 -1.27365e-06 1.76071e-06 0 -9.47044e-07 1.71733e-06 0 -6.27492e-07 1.68707e-06 0 -3.12576e-07 1.669e-06 0 0 1.66218e-06 0 -2.32253e-05 5.72775e-06 0 -2.1747e-05 5.63242e-06 0 -2.03066e-05 5.4974e-06 0 -1.89131e-05 5.32965e-06 0 -1.75736e-05 5.13596e-06 0 -1.62933e-05 4.92277e-06 0 -1.50755e-05 4.6961e-06 0 -1.39221e-05 4.46126e-06 0 -1.28338e-05 4.22289e-06 0 -1.18099e-05 3.98494e-06 0 -1.08491e-05 3.75054e-06 0 -9.94932e-06 3.52293e-06 0 -9.10805e-06 3.30314e-06 0 -8.32234e-06 3.09378e-06 0 -7.58897e-06 2.89562e-06 0 -6.90464e-06 2.70848e-06 0 -6.26594e-06 2.53514e-06 0 -5.66939e-06 2.37364e-06 0 -5.11168e-06 2.22463e-06 0 -4.58938e-06 2.08908e-06 0 -4.09929e-06 1.96503e-06 0 -3.63825e-06 1.85377e-06 0 -3.20317e-06 1.75439e-06 0 -2.79114e-06 1.66571e-06 0 -2.39929e-06 1.5896e-06 0 -2.02485e-06 1.52367e-06 0 -1.66521e-06 1.46825e-06 0 -1.31772e-06 1.42388e-06 0 -9.79905e-07 1.38892e-06 0 -6.49304e-07 1.36453e-06 0 -3.23453e-07 1.34995e-06 0 0 1.34446e-06 0 -2.32869e-05 4.25561e-06 0 -2.18467e-05 4.18974e-06 0 -2.04383e-05 4.09428e-06 0 -1.90708e-05 3.9742e-06 0 -1.77515e-05 3.83441e-06 0 -1.64859e-05 3.6796e-06 0 -1.52779e-05 3.51419e-06 0 -1.41299e-05 3.3421e-06 0 -1.30431e-05 3.16678e-06 0 -1.20176e-05 2.99123e-06 0 -1.10526e-05 2.81782e-06 0 -1.01465e-05 2.64899e-06 0 -9.29719e-06 2.48561e-06 0 -8.50228e-06 2.32967e-06 0 -7.75882e-06 2.1818e-06 0 -7.06384e-06 2.04194e-06 0 -6.41413e-06 1.9122e-06 0 -5.80644e-06 1.79118e-06 0 -5.23757e-06 1.67939e-06 0 -4.70423e-06 1.5776e-06 0 -4.20327e-06 1.48438e-06 0 -3.73162e-06 1.4007e-06 0 -3.28618e-06 1.32591e-06 0 -2.86406e-06 1.25913e-06 0 -2.4624e-06 1.2018e-06 0 -2.07842e-06 1.15211e-06 0 -1.70946e-06 1.11034e-06 0 -1.35287e-06 1.07687e-06 0 -1.00611e-06 1.05051e-06 0 -6.66701e-07 1.03211e-06 0 -3.32129e-07 1.02111e-06 0 0 1.01697e-06 0 -2.33261e-05 2.81812e-06 0 -2.19123e-05 2.77681e-06 0 -2.05264e-05 2.71585e-06 0 -1.91772e-05 2.63847e-06 0 -1.78723e-05 2.54784e-06 0 -1.66174e-05 2.44701e-06 0 -1.54166e-05 2.3389e-06 0 -1.42728e-05 2.22608e-06 0 -1.31876e-05 2.11085e-06 0 -1.21613e-05 1.9952e-06 0 -1.11937e-05 1.88074e-06 0 -1.02835e-05 1.76909e-06 0 -9.42892e-06 1.66088e-06 0 -8.62781e-06 1.55744e-06 0 -7.8775e-06 1.45924e-06 0 -7.17521e-06 1.36625e-06 0 -6.51793e-06 1.27989e-06 0 -5.90254e-06 1.19928e-06 0 -5.32593e-06 1.12475e-06 0 -4.78491e-06 1.05684e-06 0 -4.27637e-06 9.94607e-07 0 -3.79729e-06 9.38718e-07 0 -3.34459e-06 8.88736e-07 0 -2.91541e-06 8.441e-07 0 -2.50686e-06 8.05759e-07 0 -2.11616e-06 7.72521e-07 0 -1.74065e-06 7.44571e-07 0 -1.37764e-06 7.22178e-07 0 -1.02459e-06 7.04531e-07 0 -6.78967e-07 6.92216e-07 0 -3.38247e-07 6.84856e-07 0 0 6.8208e-07 0 -2.33482e-05 1.40334e-06 0 -2.19501e-05 1.38346e-06 0 -2.05776e-05 1.35379e-06 0 -1.92395e-05 1.31589e-06 0 -1.79433e-05 1.27134e-06 0 -1.66949e-05 1.22165e-06 0 -1.54986e-05 1.16824e-06 0 -1.43575e-05 1.11241e-06 0 -1.32733e-05 1.05529e-06 0 -1.22468e-05 9.9789e-07 0 -1.12777e-05 9.41009e-07 0 -1.03652e-05 8.85457e-07 0 -9.50754e-06 8.31573e-07 0 -8.7028e-06 7.80016e-07 0 -7.94846e-06 7.31028e-07 0 -7.24187e-06 6.84616e-07 0 -6.58011e-06 6.4148e-07 0 -5.96013e-06 6.01193e-07 0 -5.37892e-06 5.63931e-07 0 -4.83331e-06 5.29961e-07 0 -4.32025e-06 4.98822e-07 0 -3.83673e-06 4.70846e-07 0 -3.37969e-06 4.4582e-07 0 -2.94626e-06 4.23467e-07 0 -2.53358e-06 4.04261e-07 0 -2.13885e-06 3.87609e-07 0 -1.7594e-06 3.73604e-07 0 -1.39254e-06 3.62382e-07 0 -1.0357e-06 3.53538e-07 0 -6.86345e-07 3.47366e-07 0 -3.41927e-07 3.43677e-07 0 0 3.42285e-07 0 -2.33562e-05 -0 0 -2.19641e-05 -0 0 -2.05966e-05 -0 0 -1.92627e-05 -0 0 -1.79699e-05 -0 0 -1.67239e-05 -0 0 -1.55294e-05 -0 0 -1.43893e-05 -0 0 -1.33055e-05 -0 0 -1.22789e-05 -0 0 -1.13094e-05 -0 0 -1.03959e-05 -0 0 -9.53717e-06 -0 0 -8.73108e-06 -0 0 -7.97525e-06 -0 0 -7.26704e-06 -0 0 -6.60359e-06 -0 0 -5.98189e-06 -0 0 -5.39894e-06 -0 0 -4.85161e-06 -0 0 -4.33685e-06 -0 0 -3.85164e-06 -0 0 -3.39296e-06 -0 0 -2.95793e-06 -0 0 -2.54369e-06 -0 0 -2.14743e-06 -0 0 -1.7665e-06 -0 0 -1.39818e-06 -0 0 -1.0399e-06 -0 0 -6.89137e-07 -0 0 -3.4332e-07 -0 0 0 -0 0 </DataArray> 
</PointData> 
<Points> 
<DataArray type="Float32" NumberOfComponents="3"> 