<?xml version="1.0"?> 
<VTKFile type="StructuredGrid" version="0.1"> 
<StructuredGrid WholeExtent="0 31 0 31 0 0"> 
<Piece Extent="0 31 0 31 0 0"> 
<PointData>
<DataArray type="Float32" Name="B" format="ascii" NumberOfComponents="3"> 
-4.62989e-05 0.00011963 0 -0.000236372 4.79701e-07 0 -0.000242963 -8.61978e-07 0 -0.000265366 -1.25905e-06 0 -0.000293881 -1.45443e-06 0 -0.000325326 -1.53621e-06 0 -0.000357508 -1.52264e-06 0 -0.000388588 -1.43018e-06 0 -0.00041716 -1.28266e-06 0 -0.000442341 -1.10642e-06 0 -0.000463719 -9.20303e-07 0 -0.000481207 -7.36234e-07 0 -0.000494902 -5.59727e-07 0 -0.000504967 -3.92031e-07 0 -0.00051157 -2.31891e-07 0 -0.000514838 -7.67179e-08 0 -0.000514838 7.67179e-08 0 -0.00051157 2.31891e-07 0 -0.000504967 3.92031e-07 0 -0.000494902 5.59727e-07 0 -0.000481207 7.36234e-07 0 -0.000463719 9.20303e-07 0 -0.000442341 1.10642e-06 0 -0.00041716 1.28266e-06 0 -0.000388588 1.43018e-06 0 -0.000357508 1.52264e-06 0 -0.000325326 1.53621e-06 0 -0.000293881 1.45443e-06 0 -0.000265366 1.25905e-06 0 -0.000242963 8.61978e-07 0 -0.000236372 -4.79701e-07 0 -4.62989e-05 -0.00011963 0 -1.76358e-05 0.000343109 0 1.88209e-06 -1.7097e-08 0 1.95584e-06 -1.27458e-09 0 2.14978e-06 -2.5671e-09 0 2.39135e-06 -3.1265e-09 0 2.65629e-06 -3.35838e-09 0 2.92673e-06 -3.37173e-09 0 3.1872e-06 -3.21726e-09 0 3.42585e-06 -2.93859e-09 0 3.6354e-06 -2.5824e-09 0 3.81265e-06 -2.18497e-09 0 3.95717e-06 -1.77351e-09 0 4.07003e-06 -1.36401e-09 0 4.1528e-06 -9.63571e-10 0 4.20701e-06 -5.73193e-10 0 4.23382e-06 -1.90169e-10 0 4.23382e-06 1.90169e-10 0 4.20701e-06 5.73193e-10 0 4.1528e-06 9.63571e-10 0 4.07003e-06 1.36401e-09 0 3.95717e-06 1.77351e-09 0 3.81265e-06 2.18497e-09 0 3.6354e-06 2.5824e-09 0 3.42585e-06 2.93859e-09 0 3.1872e-06 3.21726e-09 0 2.92673e-06 3.37173e-09 0 2.65629e-06 3.35838e-09 0 2.39135e-06 3.1265e-09 0 2.14978e-06 2.5671e-09 0 1.95584e-06 1.27458e-09 0 1.88209e-06 1.7097e-08 0 -1.76358e-05 -0.000343109 0 -8.88188e-06 0.000243103 0 2.21152e-08 -1.17832e-08 0 2.26494e-08 1.60622e-10 0 2.45701e-08 2.59694e-10 0 2.70834e-08 3.01818e-10 0 2.98728e-08 3.19412e-10 0 3.27362e-08 3.17071e-10 0 3.55103e-08 2.98382e-10 0 3.80703e-08 2.682e-10 0 4.03361e-08 2.31879e-10 0 4.22675e-08 1.93284e-10 0 4.38534e-08 1.54908e-10 0 4.50989e-08 1.17943e-10 0 4.60164e-08 8.26974e-11 0 4.66193e-08 4.8952e-11 0 4.6918e-08 1.6201e-11 0 4.6918e-08 -1.6201e-11 0 4.66193e-08 -4.8952e-11 0 4.60164e-08 -8.26974e-11 0 4.50989e-08 -1.17943e-10 0 4.38534e-08 -1.54908e-10 0 4.22675e-08 -1.93284e-10 0 4.03361e-08 -2.31879e-10 0 3.80703e-08 -2.682e-10 0 3.55103e-08 -2.98382e-10 0 3.27362e-08 -3.17071e-10 0 2.98728e-08 -3.19412e-10 0 2.70834e-08 -3.01818e-10 0 2.45701e-08 -2.59694e-10 0 2.26494e-08 -1.60622e-10 0 2.21152e-08 1.17832e-08 0 -8.88188e-06 -0.000243103 0 -5.37779e-06 0.000186619 0 -7.44824e-10 -7.89382e-09 0 -6.10553e-10 -1.05235e-11 0 -6.67242e-10 -2.34285e-12 0 -7.39496e-10 -2.6934e-12 0 -8.19103e-10 -2.84098e-12 0 -9.00541e-10 -2.81299e-12 0 -9.79155e-10 -2.63883e-12 0 -1.05139e-09 -2.36311e-12 0 -1.11501e-09 -2.03524e-12 0 -1.16899e-09 -1.69041e-12 0 -1.21312e-09 -1.35061e-12 0 -1.24766e-09 -1.02576e-12 0 -1.27304e-09 -7.17886e-13 0 -1.28969e-09 -4.24423e-13 0 -1.29792e-09 -1.40378e-13 0 -1.29792e-09 1.40378e-13 0 -1.28969e-09 4.24423e-13 0 -1.27304e-09 7.17886e-13 0 -1.24766e-09 1.02576e-12 0 -1.21312e-09 1.35061e-12 0 -1.16899e-09 1.69041e-12 0 -1.11501e-09 2.03524e-12 0 -1.05139e-09 2.36311e-12 0 -9.79155e-10 2.63883e-12 0 -9.00541e-10 2.81299e-12 0 -8.19103e-10 2.84098e-12 0 -7.39496e-10 2.6934e-12 0 -6.67242e-10 2.34285e-12 0 -6.10553e-10 1.05235e-11 0 -7.44824e-10 7.89382e-09 0 -5.37779e-06 -0.000186619 0 -3.67947e-06 0.000149321 0 -1.08193e-10 -5.88695e-09 0 1.83936e-12 -7.18357e-12 0 2.24279e-12 -2.35612e-14 0 2.51362e-12 -2.62271e-14 0 2.8081e-12 -2.78609e-14 0 3.10746e-12 -2.77382e-14 0 3.39453e-12 -2.61986e-14 0 3.65613e-12 -2.36489e-14 0 3.88446e-12 -2.05352e-14 0 4.07645e-12 -1.71855e-14 0 4.23217e-12 -1.38202e-14 0 4.35322e-12 -1.05508e-14 0 4.44169e-12 -7.41268e-15 0 4.4995e-12 -4.39368e-15 0 4.52804e-12 -1.45508e-15 0 4.52804e-12 1.45508e-15 0 4.4995e-12 4.39368e-15 0 4.44169e-12 7.41268e-15 0 4.35322e-12 1.05508e-14 0 4.23217e-12 1.38202e-14 0 4.07645e-12 1.71855e-14 0 3.88446e-12 2.05352e-14 0 3.65613e-12 2.36489e-14 0 3.39453e-12 2.61986e-14 0 3.10746e-12 2.77382e-14 0 2.8081e-12 2.78609e-14 0 2.51362e-12 2.62271e-14 0 2.24279e-12 2.35612e-14 0 1.83936e-12 7.18357e-12 0 -1.08193e-10 5.88695e-09 0 -3.67947e-06 -0.000149321 0 -2.73276e-06 0.000122318 0 -8.46272e-11 -4.625e-09 0 -5.08607e-14 -5.8994e-12 0 9.51199e-14 -3.69202e-16 0 1.05045e-13 7.76698e-16 0 1.16091e-13 8.23885e-16 0 1.27412e-13 8.17434e-16 0 1.38363e-13 7.68783e-16 0 1.48448e-13 6.90523e-16 0 1.57355e-13 5.96557e-16 0 1.64931e-13 4.96905e-16 0 1.71139e-13 3.97996e-16 0 1.76007e-13 3.02868e-16 0 1.79588e-13 2.12278e-16 0 1.8194e-13 1.25624e-16 0 1.83104e-13 4.15706e-17 0 1.83104e-13 -4.15706e-17 0 1.8194e-13 -1.25624e-16 0 1.79588e-13 -2.12278e-16 0 1.76007e-13 -3.02868e-16 0 1.71139e-13 -3.97996e-16 0 1.64931e-13 -4.96905e-16 0 1.57355e-13 -5.96557e-16 0 1.48448e-13 -6.90523e-16 0 1.38363e-13 -7.68783e-16 0 1.27412e-13 -8.17434e-16 0 1.16091e-13 -8.23885e-16 0 1.05045e-13 -7.76698e-16 0 9.51199e-14 3.69202e-16 0 -5.08607e-14 5.8994e-12 0 -8.46272e-11 4.625e-09 0 -2.73276e-06 -0.000122318 0 -2.15015e-06 0.000101481 0 -6.80968e-11 -3.73936e-09 0 -1.1309e-13 -4.90748e-12 0 -1.47863e-15 -8.64386e-16 0 -1.69139e-15 -5.58189e-18 0 -1.87491e-15 -3.83366e-18 0 -2.06251e-15 -3.78602e-18 0 -2.2435e-15 -3.53955e-18 0 -2.40967e-15 -3.157e-18 0 -2.55592e-15 -2.70767e-18 0 -2.6799e-15 -2.24018e-18 0 -2.7812e-15 -1.78386e-18 0 -2.86044e-15 -1.35115e-18 0 -2.91862e-15 -9.43702e-19 0 -2.95677e-15 -5.57179e-19 0 -2.97564e-15 -1.84164e-19 0 -2.97564e-15 1.84164e-19 0 -2.95677e-15 5.57179e-19 0 -2.91862e-15 9.43702e-19 0 -2.86044e-15 1.35115e-18 0 -2.7812e-15 1.78386e-18 0 -2.6799e-15 2.24018e-18 0 -2.55592e-15 2.70767e-18 0 -2.40967e-15 3.157e-18 0 -2.2435e-15 3.53955e-18 0 -2.06251e-15 3.78602e-18 0 -1.87491e-15 3.83366e-18 0 -1.69139e-15 5.58189e-18 0 -1.47863e-15 8.64386e-16 0 -1.1309e-13 4.90748e-12 0 -6.80968e-11 3.73936e-09 0 -2.15015e-06 -0.000101481 0 -1.76637e-06 8.46272e-05 0 -5.66929e-11 -3.06716e-09 0 -9.32954e-14 -4.09889e-12 0 3.60122e-17 -7.16995e-16 0 -1.1023e-18 -1.72284e-18 0 -1.18214e-18 -1.1014e-19 0 -1.24491e-18 -1.09901e-19 0 -1.31082e-18 -1.036e-19 0 -1.37738e-18 -9.33063e-20 0 -1.44179e-18 -8.08319e-20 0 -1.50121e-18 -6.74996e-20 0 -1.55325e-18 -5.41797e-20 0 -1.59622e-18 -4.13002e-20 0 -1.62906e-18 -2.89836e-20 0 -1.65118e-18 -1.71664e-20 0 -1.6623e-18 -5.68296e-21 0 -1.6623e-18 5.68296e-21 0 -1.65118e-18 1.71664e-20 0 -1.62906e-18 2.89836e-20 0 -1.59622e-18 4.13002e-20 0 -1.55325e-18 5.41797e-20 0 -1.50121e-18 6.74996e-20 0 -1.44179e-18 8.08319e-20 0 -1.37738e-18 9.33063e-20 0 -1.31082e-18 1.036e-19 0 -1.24491e-18 1.09901e-19 0 -1.18214e-18 1.1014e-19 0 -1.1023e-18 1.72284e-18 0 3.60122e-17 7.16995e-16 0 -9.32954e-14 4.09889e-12 0 -5.66929e-11 3.06716e-09 0 -1.76637e-06 -8.46272e-05 0 -1.50209e-06 7.049e-05 0 -4.86219e-11 -2.52692e-09 0 -8.01709e-14 -3.41755e-12 0 3.13667e-17 -5.96432e-16 0 2.65679e-19 -1.34957e-18 0 2.70979e-19 2.22726e-21 0 2.97237e-19 1.86182e-21 0 3.22656e-19 1.7496e-21 0 3.46087e-19 1.57012e-21 0 3.66799e-19 1.35523e-21 0 3.84433e-19 1.12788e-21 0 3.98894e-19 9.02711e-22 0 4.1024e-19 6.86538e-22 0 4.18592e-19 4.80975e-22 0 4.24076e-19 2.84551e-22 0 4.26792e-19 9.41477e-23 0 4.26792e-19 -9.41477e-23 0 4.24076e-19 -2.84551e-22 0 4.18592e-19 -4.80975e-22 0 4.1024e-19 -6.86538e-22 0 3.98894e-19 -9.02711e-22 0 3.84433e-19 -1.12788e-21 0 3.66799e-19 -1.35523e-21 0 3.46087e-19 -1.57012e-21 0 3.22656e-19 -1.7496e-21 0 2.97237e-19 -1.86182e-21 0 2.70979e-19 -2.22726e-21 0 2.65679e-19 1.34957e-18 0 3.13667e-17 5.96432e-16 0 -8.01709e-14 3.41755e-12 0 -4.86219e-11 2.52692e-09 0 -1.50209e-06 -7.049e-05 0 -1.31245e-06 5.82755e-05 0 -4.27234e-11 -2.07354e-09 0 -7.05359e-14 -2.82719e-12 0 2.6962e-17 -4.92672e-16 0 7.03195e-21 -1.11882e-18 0 -1.19923e-20 3.88585e-22 0 -1.32054e-20 9.95722e-23 0 -1.43725e-20 9.35134e-23 0 -1.5443e-20 8.39593e-23 0 -1.6384e-20 7.25023e-23 0 -1.71808e-20 6.03656e-23 0 -1.78312e-20 4.83316e-23 0 -1.83395e-20 3.67681e-23 0 -1.87125e-20 2.57644e-23 0 -1.89569e-20 1.52447e-23 0 -1.90778e-20 5.04428e-24 0 -1.90778e-20 -5.04428e-24 0 -1.89569e-20 -1.52447e-23 0 -1.87125e-20 -2.57644e-23 0 -1.83395e-20 -3.67681e-23 0 -1.78312e-20 -4.83316e-23 0 -1.71808e-20 -6.03656e-23 0 -1.6384e-20 -7.25023e-23 0 -1.5443e-20 -8.39593e-23 0 -1.43725e-20 -9.35134e-23 0 -1.32054e-20 -9.95722e-23 0 -1.19923e-20 -3.88585e-22 0 7.03195e-21 1.11882e-18 0 2.6962e-17 4.92672e-16 0 -7.05359e-14 2.82719e-12 0 -4.27234e-11 2.07354e-09 0 -1.31245e-06 -5.82755e-05 0 -1.17459e-06 4.74548e-05 0 -3.83792e-11 -1.67982e-09 0 -6.34175e-14 -2.30323e-12 0 2.39897e-17 -4.00953e-16 0 1.52168e-20 -9.12084e-19 0 -8.94247e-22 2.50507e-22 0 -9.86294e-22 1.61683e-23 0 -1.07308e-21 1.51317e-23 0 -1.15273e-21 1.35989e-23 0 -1.2228e-21 1.17549e-23 0 -1.28218e-21 9.7962e-24 0 -1.33067e-21 7.84949e-24 0 -1.36859e-21 5.97525e-24 0 -1.39644e-21 4.18899e-24 0 -1.41468e-21 2.47937e-24 0 -1.42371e-21 8.20519e-25 0 -1.42371e-21 -8.20519e-25 0 -1.41468e-21 -2.47937e-24 0 -1.39644e-21 -4.18899e-24 0 -1.36859e-21 -5.97525e-24 0 -1.33067e-21 -7.84949e-24 0 -1.28218e-21 -9.7962e-24 0 -1.2228e-21 -1.17549e-23 0 -1.15273e-21 -1.35989e-23 0 -1.07308e-21 -1.51317e-23 0 -9.86294e-22 -1.61683e-23 0 -8.94247e-22 -2.50507e-22 0 1.52168e-20 9.12084e-19 0 2.39897e-17 4.00953e-16 0 -6.34175e-14 2.30323e-12 0 -3.83792e-11 1.67982e-09 0 -1.17459e-06 -4.74548e-05 0 -1.07381e-06 3.76552e-05 0 -3.51747e-11 -1.32813e-09 0 -5.81556e-14 -1.82814e-12 0 2.18381e-17 -3.18018e-16 0 1.46275e-20 -7.2426e-19 0 -6.23404e-23 1.87505e-22 0 -7.0695e-23 1.90441e-24 0 -7.69278e-23 1.72924e-24 0 -8.26449e-23 1.55636e-24 0 -8.76731e-23 1.34736e-24 0 -9.19329e-23 1.12441e-24 0 -9.54113e-23 9.02039e-25 0 -9.81307e-23 6.87308e-25 0 -1.00127e-22 4.8218e-25 0 -1.01435e-22 2.85525e-25 0 -1.02082e-22 9.4513e-26 0 -1.02082e-22 -9.4513e-26 0 -1.01435e-22 -2.85525e-25 0 -1.00127e-22 -4.8218e-25 0 -9.81307e-23 -6.87308e-25 0 -9.54113e-23 -9.02039e-25 0 -9.19329e-23 -1.12441e-24 0 -8.76731e-23 -1.34736e-24 0 -8.26449e-23 -1.55636e-24 0 -7.69278e-23 -1.72924e-24 0 -7.0695e-23 -1.90441e-24 0 -6.23404e-23 -1.87505e-22 0 1.46275e-20 7.2426e-19 0 2.18381e-17 3.18018e-16 0 -5.81556e-14 1.82814e-12 0 -3.51747e-11 1.32813e-09 0 -1.07381e-06 -3.76552e-05 0 -1.00102e-06 2.8601e-05 0 -3.28456e-11 -1.00626e-09 0 -5.43255e-14 -1.38884e-12 0 2.02974e-17 -2.41477e-16 0 1.37084e-20 -5.50379e-19 0 -1.87054e-24 1.41013e-22 0 -4.01969e-24 1.89196e-25 0 -4.38857e-24 1.29223e-25 0 -4.72347e-24 1.16643e-25 0 -5.01636e-24 1.01293e-25 0 -5.26313e-24 8.47736e-26 0 -5.46363e-24 6.81728e-26 0 -5.61974e-24 5.20444e-26 0 -5.73397e-24 3.65639e-26 0 -5.80866e-24 2.16718e-26 0 -5.84556e-24 7.17707e-27 0 -5.84556e-24 -7.17707e-27 0 -5.80866e-24 -2.16718e-26 0 -5.73397e-24 -3.65639e-26 0 -5.61974e-24 -5.20444e-26 0 -5.46363e-24 -6.81728e-26 0 -5.26313e-24 -8.47736e-26 0 -5.01636e-24 -1.01293e-25 0 -4.72347e-24 -1.16643e-25 0 -4.38857e-24 -1.29223e-25 0 -4.01969e-24 -1.89196e-25 0 -1.87054e-24 -1.41013e-22 0 1.37084e-20 5.50379e-19 0 2.02974e-17 2.41477e-16 0 -5.43255e-14 1.38884e-12 0 -3.28456e-11 1.00626e-09 0 -1.00102e-06 -2.8601e-05 0 -9.50443e-07 2.00778e-05 0 -3.12204e-11 -7.05206e-10 0 -5.16504e-14 -9.75088e-13 0 1.92336e-17 -1.69481e-16 0 1.30314e-20 -3.86489e-19 0 7.06505e-25 9.88279e-23 0 -1.0743e-24 3.70305e-26 0 -1.17385e-24 3.00913e-28 0 -1.26304e-24 3.3734e-28 0 -1.34111e-24 3.61534e-28 0 -1.40695e-24 3.55086e-28 0 -1.46049e-24 3.21347e-28 0 -1.5022e-24 2.67046e-28 0 -1.53274e-24 1.98896e-28 0 -1.55272e-24 1.2229e-28 0 -1.56259e-24 4.1227e-29 0 -1.56259e-24 -4.1227e-29 0 -1.55272e-24 -1.2229e-28 0 -1.53274e-24 -1.98896e-28 0 -1.5022e-24 -2.67046e-28 0 -1.46049e-24 -3.21347e-28 0 -1.40695e-24 -3.55086e-28 0 -1.34111e-24 -3.61534e-28 0 -1.26304e-24 -3.3734e-28 0 -1.17385e-24 -3.00913e-28 0 -1.0743e-24 -3.70305e-26 0 7.06505e-25 -9.88279e-23 0 1.30314e-20 3.86489e-19 0 1.92336e-17 1.69481e-16 0 -5.16504e-14 9.75088e-13 0 -3.12204e-11 7.05206e-10 0 -9.50443e-07 -2.00778e-05 0 -9.18453e-07 1.19104e-05 0 -3.01895e-11 -4.17905e-10 0 -4.99525e-14 -5.78482e-13 0 1.85634e-17 -1.00525e-16 0 1.26011e-20 -2.29316e-19 0 1.26308e-24 5.85994e-23 0 -3.97122e-25 1.98507e-26 0 -4.34379e-25 -1.85233e-27 0 -4.66809e-25 -1.66306e-27 0 -4.95305e-25 -1.4298e-27 0 -5.19424e-25 -1.18558e-27 0 -5.39101e-25 -9.45892e-28 0 -5.54473e-25 -7.17546e-28 0 -5.65752e-25 -5.01742e-28 0 -5.73141e-25 -2.96462e-28 0 -5.76795e-25 -9.80266e-29 0 -5.76795e-25 9.80266e-29 0 -5.73141e-25 2.96462e-28 0 -5.65752e-25 5.01742e-28 0 -5.54473e-25 7.17546e-28 0 -5.39101e-25 9.45892e-28 0 -5.19424e-25 1.18558e-27 0 -4.95305e-25 1.4298e-27 0 -4.66809e-25 1.66306e-27 0 -4.34379e-25 1.85233e-27 0 -3.97122e-25 -1.98507e-26 0 1.26308e-24 -5.85994e-23 0 1.26011e-20 2.29316e-19 0 1.85634e-17 1.00525e-16 0 -4.99525e-14 5.78482e-13 0 -3.01895e-11 4.17905e-10 0 -9.18453e-07 -1.19104e-05 0 -9.02903e-07 3.94785e-06 0 -2.96876e-11 -1.38451e-10 0 -4.91255e-14 -1.91752e-13 0 1.82384e-17 -3.33181e-17 0 1.23915e-20 -7.60164e-20 0 1.49436e-24 1.94198e-23 0 -1.12363e-25 6.89293e-27 0 -1.24218e-25 -3.21935e-28 0 -1.33405e-25 -2.91025e-28 0 -1.41495e-25 -2.50982e-28 0 -1.48355e-25 -2.08713e-28 0 -1.53962e-25 -1.6693e-28 0 -1.58349e-25 -1.26884e-28 0 -1.6157e-25 -8.88551e-29 0 -1.63683e-25 -5.25533e-29 0 -1.64728e-25 -1.73856e-29 0 -1.64728e-25 1.73856e-29 0 -1.63683e-25 5.25533e-29 0 -1.6157e-25 8.88551e-29 0 -1.58349e-25 1.26884e-28 0 -1.53962e-25 1.6693e-28 0 -1.48355e-25 2.08713e-28 0 -1.41495e-25 2.50982e-28 0 -1.33405e-25 2.91025e-28 0 -1.24218e-25 3.21935e-28 0 -1.12363e-25 -6.89293e-27 0 1.49436e-24 -1.94198e-23 0 1.23915e-20 7.60164e-20 0 1.82384e-17 3.33181e-17 0 -4.91255e-14 1.91752e-13 0 -2.96876e-11 1.38451e-10 0 -9.02903e-07 -3.94785e-06 0 -9.02903e-07 -3.94785e-06 0 -2.96876e-11 1.38451e-10 0 -4.91255e-14 1.91752e-13 0 1.82384e-17 3.33181e-17 0 1.23915e-20 7.60164e-20 0 1.49436e-24 -1.94198e-23 0 -1.12363e-25 -6.89293e-27 0 -1.24218e-25 3.21935e-28 0 -1.33405e-25 2.91025e-28 0 -1.41495e-25 2.50982e-28 0 -1.48355e-25 2.08713e-28 0 -1.53962e-25 1.6693e-28 0 -1.58349e-25 1.26884e-28 0 -1.6157e-25 8.88551e-29 0 -1.63683e-25 5.25533e-29 0 -1.64728e-25 1.73856e-29 0 -1.64728e-25 -1.73856e-29 0 -1.63683e-25 -5.25533e-29 0 -1.6157e-25 -8.88551e-29 0 -1.58349e-25 -1.26884e-28 0 -1.53962e-25 -1.6693e-28 0 -1.48355e-25 -2.08713e-28 0 -1.41495e-25 -2.50982e-28 0 -1.33405e-25 -2.91025e-28 0 -1.24218e-25 -3.21935e-28 0 -1.12363e-25 6.89293e-27 0 1.49436e-24 1.94198e-23 0 1.23915e-20 -7.60164e-20 0 1.82384e-17 -3.33181e-17 0 -4.91255e-14 -1.91752e-13 0 -2.96876e-11 -1.38451e-10 0 -9.02903e-07 3.94785e-06 0 -9.18453e-07 -1.19104e-05 0 -3.01895e-11 4.17905e-10 0 -4.99525e-14 5.78482e-13 0 1.85634e-17 1.00525e-16 0 1.26011e-20 2.29316e-19 0 1.26308e-24 -5.85994e-23 0 -3.97122e-25 -1.98507e-26 0 -4.34379e-25 1.85233e-27 0 -4.66809e-25 1.66306e-27 0 -4.95305e-25 1.4298e-27 0 -5.19424e-25 1.18558e-27 0 -5.39101e-25 9.45892e-28 0 -5.54473e-25 7.17546e-28 0 -5.65752e-25 5.01742e-28 0 -5.73141e-25 2.96462e-28 0 -5.76795e-25 9.80266e-29 0 -5.76795e-25 -9.80266e-29 0 -5.73141e-25 -2.96462e-28 0 -5.65752e-25 -5.01742e-28 0 -5.54473e-25 -7.17546e-28 0 -5.39101e-25 -9.45892e-28 0 -5.19424e-25 -1.18558e-27 0 -4.95305e-25 -1.4298e-27 0 -4.66809e-25 -1.66306e-27 0 -4.34379e-25 -1.85233e-27 0 -3.97122e-25 1.98507e-26 0 1.26308e-24 5.85994e-23 0 1.26011e-20 -2.29316e-19 0 1.85634e-17 -1.00525e-16 0 -4.99525e-14 -5.78482e-13 0 -3.01895e-11 -4.17905e-10 0 -9.18453e-07 1.19104e-05 0 -9.50443e-07 -2.00778e-05 0 -3.12204e-11 7.05206e-10 0 -5.16504e-14 9.75088e-13 0 1.92336e-17 1.69481e-16 0 1.30314e-20 3.86489e-19 0 7.06505e-25 -9.88279e-23 0 -1.0743e-24 -3.70305e-26 0 -1.17385e-24 -3.00913e-28 0 -1.26304e-24 -3.3734e-28 0 -1.34111e-24 -3.61534e-28 0 -1.40695e-24 -3.55086e-28 0 -1.46049e-24 -3.21347e-28 0 -1.5022e-24 -2.67046e-28 0 -1.53274e-24 -1.98896e-28 0 -1.55272e-24 -1.2229e-28 0 -1.56259e-24 -4.1227e-29 0 -1.56259e-24 4.1227e-29 0 -1.55272e-24 1.2229e-28 0 -1.53274e-24 1.98896e-28 0 -1.5022e-24 2.67046e-28 0 -1.46049e-24 3.21347e-28 0 -1.40695e-24 3.55086e-28 0 -1.34111e-24 3.61534e-28 0 -1.26304e-24 3.3734e-28 0 -1.17385e-24 3.00913e-28 0 -1.0743e-24 3.70305e-26 0 7.06505e-25 9.88279e-23 0 1.30314e-20 -3.86489e-19 0 1.92336e-17 -1.69481e-16 0 -5.16504e-14 -9.75088e-13 0 -3.12204e-11 -7.05206e-10 0 -9.50443e-07 2.00778e-05 0 -1.00102e-06 -2.8601e-05 0 -3.28456e-11 1.00626e-09 0 -5.43255e-14 1.38884e-12 0 2.02974e-17 2.41477e-16 0 1.37084e-20 5.50379e-19 0 -1.87054e-24 -1.41013e-22 0 -4.01969e-24 -1.89196e-25 0 -4.38857e-24 -1.29223e-25 0 -4.72347e-24 -1.16643e-25 0 -5.01636e-24 -1.01293e-25 0 -5.26313e-24 -8.47736e-26 0 -5.46363e-24 -6.81728e-26 0 -5.61974e-24 -5.20444e-26 0 -5.73397e-24 -3.65639e-26 0 -5.80866e-24 -2.16718e-26 0 -5.84556e-24 -7.17707e-27 0 -5.84556e-24 7.17707e-27 0 -5.80866e-24 2.16718e-26 0 -5.73397e-24 3.65639e-26 0 -5.61974e-24 5.20444e-26 0 -5.46363e-24 6.81728e-26 0 -5.26313e-24 8.47736e-26 0 -5.01636e-24 1.01293e-25 0 -4.72347e-24 1.16643e-25 0 -4.38857e-24 1.29223e-25 0 -4.01969e-24 1.89196e-25 0 -1.87054e-24 1.41013e-22 0 1.37084e-20 -5.50379e-19 0 2.02974e-17 -2.41477e-16 0 -5.43255e-14 -1.38884e-12 0 -3.28456e-11 -1.00626e-09 0 -1.00102e-06 2.8601e-05 0 -1.07381e-06 -3.76552e-05 0 -3.51747e-11 1.32813e-09 0 -5.81556e-14 1.82814e-12 0 2.18381e-17 3.18018e-16 0 1.46275e-20 7.2426e-19 0 -6.23404e-23 -1.87505e-22 0 -7.0695e-23 -1.90441e-24 0 -7.69278e-23 -1.72924e-24 0 -8.26449e-23 -1.55636e-24 0 -8.76731e-23 -1.34736e-24 0 -9.19329e-23 -1.12441e-24 0 -9.54113e-23 -9.02039e-25 0 -9.81307e-23 -6.87308e-25 0 -1.00127e-22 -4.8218e-25 0 -1.01435e-22 -2.85525e-25 0 -1.02082e-22 -9.4513e-26 0 -1.02082e-22 9.4513e-26 0 -1.01435e-22 2.85525e-25 0 -1.00127e-22 4.8218e-25 0 -9.81307e-23 6.87308e-25 0 -9.54113e-23 9.02039e-25 0 -9.19329e-23 1.12441e-24 0 -8.76731e-23 1.34736e-24 0 -8.26449e-23 1.55636e-24 0 -7.69278e-23 1.72924e-24 0 -7.0695e-23 1.90441e-24 0 -6.23404e-23 1.87505e-22 0 1.46275e-20 -7.2426e-19 0 2.18381e-17 -3.18018e-16 0 -5.81556e-14 -1.82814e-12 0 -3.51747e-11 -1.32813e-09 0 -1.07381e-06 3.76552e-05 0 -1.17459e-06 -4.74548e-05 0 -3.83792e-11 1.67982e-09 0 -6.34175e-14 2.30323e-12 0 2.39897e-17 4.00953e-16 0 1.52168e-20 9.12084e-19 0 -8.94247e-22 -2.50507e-22 0 -9.86294e-22 -1.61683e-23 0 -1.07308e-21 -1.51317e-23 0 -1.15273e-21 -1.35989e-23 0 -1.2228e-21 -1.17549e-23 0 -1.28218e-21 -9.7962e-24 0 -1.33067e-21 -7.84949e-24 0 -1.36859e-21 -5.97525e-24 0 -1.39644e-21 -4.18899e-24 0 -1.41468e-21 -2.47937e-24 0 -1.42371e-21 -8.20519e-25 0 -1.42371e-21 8.20519e-25 0 -1.41468e-21 2.47937e-24 0 -1.39644e-21 4.18899e-24 0 -1.36859e-21 5.97525e-24 0 -1.33067e-21 7.84949e-24 0 -1.28218e-21 9.7962e-24 0 -1.2228e-21 1.17549e-23 0 -1.15273e-21 1.35989e-23 0 -1.07308e-21 1.51317e-23 0 -9.86294e-22 1.61683e-23 0 -8.94247e-22 2.50507e-22 0 1.52168e-20 -9.12084e-19 0 2.39897e-17 -4.00953e-16 0 -6.34175e-14 -2.30323e-12 0 -3.83792e-11 -1.67982e-09 0 -1.17459e-06 4.74548e-05 0 -1.31245e-06 -5.82755e-05 0 -4.27234e-11 2.07354e-09 0 -7.05359e-14 2.82719e-12 0 2.6962e-17 4.92672e-16 0 7.03195e-21 1.11882e-18 0 -1.19923e-20 -3.88585e-22 0 -1.32054e-20 -9.95722e-23 0 -1.43725e-20 -9.35134e-23 0 -1.5443e-20 -8.39593e-23 0 -1.6384e-20 -7.25023e-23 0 -1.71808e-20 -6.03656e-23 0 -1.78312e-20 -4.83316e-23 0 -1.83395e-20 -3.67681e-23 0 -1.87125e-20 -2.57644e-23 0 -1.89569e-20 -1.52447e-23 0 -1.90778e-20 -5.04428e-24 0 -1.90778e-20 5.04428e-24 0 -1.89569e-20 1.52447e-23 0 -1.87125e-20 2.57644e-23 0 -1.83395e-20 3.67681e-23 0 -1.78312e-20 4.83316e-23 0 -1.71808e-20 6.03656e-23 0 -1.6384e-20 7.25023e-23 0 -1.5443e-20 8.39593e-23 0 -1.43725e-20 9.35134e-23 0 -1.32054e-20 9.95722e-23 0 -1.19923e-20 3.88585e-22 0 7.03195e-21 -1.11882e-18 0 2.6962e-17 -4.92672e-16 0 -7.05359e-14 -2.82719e-12 0 -4.27234e-11 -2.07354e-09 0 -1.31245e-06 5.82755e-05 0 -1.50209e-06 -7.049e-05 0 -4.86219e-11 2.52692e-09 0 -8.01709e-14 3.41755e-12 0 3.13667e-17 5.96432e-16 0 2.65679e-19 1.34957e-18 0 2.70979e-19 -2.22726e-21 0 2.97237e-19 -1.86182e-21 0 3.22656e-19 -1.7496e-21 0 3.46087e-19 -1.57012e-21 0 3.66799e-19 -1.35523e-21 0 3.84433e-19 -1.12788e-21 0 3.98894e-19 -9.02711e-22 0 4.1024e-19 -6.86538e-22 0 4.18592e-19 -4.80975e-22 0 4.24076e-19 -2.84551e-22 0 4.26792e-19 -9.41477e-23 0 4.26792e-19 9.41477e-23 0 4.24076e-19 2.84551e-22 0 4.18592e-19 4.80975e-22 0 4.1024e-19 6.86538e-22 0 3.98894e-19 9.02711e-22 0 3.84433e-19 1.12788e-21 0 3.66799e-19 1.35523e-21 0 3.46087e-19 1.57012e-21 0 3.22656e-19 1.7496e-21 0 2.97237e-19 1.86182e-21 0 2.70979e-19 2.22726e-21 0 2.65679e-19 -1.34957e-18 0 3.13667e-17 -5.96432e-16 0 -8.01709e-14 -3.41755e-12 0 -4.86219e-11 -2.52692e-09 0 -1.50209e-06 7.049e-05 0 -1.76637e-06 -8.46272e-05 0 -5.66929e-11 3.06716e-09 0 -9.32954e-14 4.09889e-12 0 3.60122e-17 7.16995e-16 0 -1.1023e-18 1.72284e-18 0 -1.18214e-18 1.1014e-19 0 -1.24491e-18 1.09901e-19 0 -1.31082e-18 1.036e-19 0 -1.37738e-18 9.33063e-20 0 -1.44179e-18 8.08319e-20 0 -1.50121e-18 6.74996e-20 0 -1.55325e-18 5.41797e-20 0 -1.59622e-18 4.13002e-20 0 -1.62906e-18 2.89836e-20 0 -1.65118e-18 1.71664e-20 0 -1.6623e-18 5.68296e-21 0 -1.6623e-18 -5.68296e-21 0 -1.65118e-18 -1.71664e-20 0 -1.62906e-18 -2.89836e-20 0 -1.59622e-18 -4.13002e-20 0 -1.55325e-18 -5.41797e-20 0 -1.50121e-18 -6.74996e-20 0 -1.44179e-18 -8.08319e-20 0 -1.37738e-18 -9.33063e-20 0 -1.31082e-18 -1.036e-19 0 -1.24491e-18 -1.09901e-19 0 -1.18214e-18 -1.1014e-19 0 -1.1023e-18 -1.72284e-18 0 3.60122e-17 -7.16995e-16 0 -9.32954e-14 -4.09889e-12 0 -5.66929e-11 -3.06716e-09 0 -1.76637e-06 8.46272e-05 0 -2.15015e-06 -0.000101481 0 -6.80968e-11 3.73936e-09 0 -1.1309e-13 4.90748e-12 0 -1.47863e-15 8.64386e-16 0 -1.69139e-15 5.58189e-18 0 -1.87491e-15 3.83366e-18 0 -2.06251e-15 3.78602e-18 0 -2.2435e-15 3.53955e-18 0 -2.40967e-15 3.157e-18 0 -2.55592e-15 2.70767e-18 0 -2.6799e-15 2.24018e-18 0 -2.7812e-15 1.78386e-18 0 -2.86044e-15 1.35115e-18 0 -2.91862e-15 9.43702e-19 0 -2.95677e-15 5.57179e-19 0 -2.97564e-15 1.84164e-19 0 -2.97564e-15 -1.84164e-19 0 -2.95677e-15 -5.57179e-19 0 -2.91862e-15 -9.43702e-19 0 -2.86044e-15 -1.35115e-18 0 -2.7812e-15 -1.78386e-18 0 -2.6799e-15 -2.24018e-18 0 -2.55592e-15 -2.70767e-18 0 -2.40967e-15 -3.157e-18 0 -2.2435e-15 -3.53955e-18 0 -2.06251e-15 -3.78602e-18 0 -1.87491e-15 -3.83366e-18 0 -1.69139e-15 -5.58189e-18 0 -1.47863e-15 -8.64386e-16 0 -1.1309e-13 -4.90748e-12 0 -6.80968e-11 -3.73936e-09 0 -2.15015e-06 0.000101481 0 -2.73276e-06 -0.000122318 0 -8.46272e-11 4.625e-09 0 -5.08607e-14 5.8994e-12 0 9.51199e-14 3.69202e-16 0 1.05045e-13 -7.76698e-16 0 1.16091e-13 -8.23885e-16 0 1.27412e-13 -8.17434e-16 0 1.38363e-13 -7.68783e-16 0 1.48448e-13 -6.90523e-16 0 1.57355e-13 -5.96557e-16 0 1.64931e-13 -4.96905e-16 0 1.71139e-13 -3.97996e-16 0 1.76007e-13 -3.02868e-16 0 1.79588e-13 -2.12278e-16 0 1.8194e-13 -1.25624e-16 0 1.83104e-13 -4.15706e-17 0 1.83104e-13 4.15706e-17 0 1.8194e-13 1.25624e-16 0 1.79588e-13 2.12278e-16 0 1.76007e-13 3.02868e-16 0 1.71139e-13 3.97996e-16 0 1.64931e-13 4.96905e-16 0 1.57355e-13 5.96557e-16 0 1.48448e-13 6.90523e-16 0 1.38363e-13 7.68783e-16 0 1.27412e-13 8.17434e-16 0 1.16091e-13 8.23885e-16 0 1.05045e-13 7.76698e-16 0 9.51199e-14 -3.69202e-16 0 -5.08607e-14 -5.8994e-12 0 -8.46272e-11 -4.625e-09 0 -2.73276e-06 0.000122318 0 -3.67947e-06 -0.000149321 0 -1.08193e-10 5.88695e-09 0 1.83936e-12 7.18357e-12 0 2.24279e-12 2.35612e-14 0 2.51362e-12 2.62271e-14 0 2.8081e-12 2.78609e-14 0 3.10746e-12 2.77382e-14 0 3.39453e-12 2.61986e-14 0 3.65613e-12 2.36489e-14 0 3.88446e-12 2.05352e-14 0 4.07645e-12 1.71855e-14 0 4.23217e-12 1.38202e-14 0 4.35322e-12 1.05508e-14 0 4.44169e-12 7.41268e-15 0 4.4995e-12 4.39368e-15 0 4.52804e-12 1.45508e-15 0 4.52804e-12 -1.45508e-15 0 4.4995e-12 -4.39368e-15 0 4.44169e-12 -7.41268e-15 0 4.35322e-12 -1.05508e-14 0 4.23217e-12 -1.38202e-14 0 4.07645e-12 -1.71855e-14 0 3.88446e-12 -2.05352e-14 0 3.65613e-12 -2.36489e-14 0 3.39453e-12 -2.61986e-14 0 3.10746e-12 -2.77382e-14 0 2.8081e-12 -2.78609e-14 0 2.51362e-12 -2.62271e-14 0 2.24279e-12 -2.35612e-14 0 1.83936e-12 -7.18357e-12 0 -1.08193e-10 -5.88695e-09 0 -3.67947e-06 0.000149321 0 -5.37779e-06 -0.000186619 0 -7.44824e-10 7.89382e-09 0 -6.10553e-10 1.05235e-11 0 -6.67242e-10 2.34285e-12 0 -7.39496e-10 2.6934e-12 0 -8.19103e-10 2.84098e-12 0 -9.00541e-10 2.81299e-12 0 -9.79155e-10 2.63883e-12 0 -1.05139e-09 2.36311e-12 0 -1.11501e-09 2.03524e-12 0 -1.16899e-09 1.69041e-12 0 -1.21312e-09 1.35061e-12 0 -1.24766e-09 1.02576e-12 0 -1.27304e-09 7.17886e-13 0 -1.28969e-09 4.24423e-13 0 -1.29792e-09 1.40378e-13 0 -1.29792e-09 -1.40378e-13 0 -1.28969e-09 -4.24423e-13 0 -1.27304e-09 -7.17886e-13 0 -1.24766e-09 -1.02576e-12 0 -1.21312e-09 -1.35061e-12 0 -1.16899e-09 -1.69041e-12 0 -1.11501e-09 -2.03524e-12 0 -1.05139e-09 -2.36311e-12 0 -9.79155e-10 -2.63883e-12 0 -9.00541e-10 -2.81299e-12 0 -8.19103e-10 -2.84098e-12 0 -7.39496e-10 -2.6934e-12 0 -6.67242e-10 -2.34285e-12 0 -6.10553e-10 -1.05235e-11 0 -7.44824e-10 -7.89382e-09 0 -5.37779e-06 0.000186619 0 -8.88188e-06 -0.000243103 0 2.21152e-08 1.17832e-08 0 2.26494e-08 -1.60622e-10 0 2.45701e-08 -2.59694e-10 0 2.70834e-08 -3.01818e-10 0 2.98728e-08 -3.19412e-10 0 3.27362e-08 -3.17071e-10 0 3.55103e-08 -2.98382e-10 0 3.80703e-08 -2.682e-10 0 4.03361e-08 -2.31879e-10 0 4.22675e-08 -1.93284e-10 0 4.38534e-08 -1.54908e-10 0 4.50989e-08 -1.17943e-10 0 4.60164e-08 -8.26974e-11 0 4.66193e-08 -4.8952e-11 0 4.6918e-08 -1.6201e-11 0 4.6918e-08 1.6201e-11 0 4.66193e-08 4.8952e-11 0 4.60164e-08 8.26974e-11 0 4.50989e-08 1.17943e-10 0 4.38534e-08 1.54908e-10 0 4.22675e-08 1.93284e-10 0 4.03361e-08 2.31879e-10 0 3.80703e-08 2.682e-10 0 3.55103e-08 2.98382e-10 0 3.27362e-08 3.17071e-10 0 2.98728e-08 3.19412e-10 0 2.70834e-08 3.01818e-10 0 2.45701e-08 2.59694e-10 0 2.26494e-08 1.60622e-10 0 2.21152e-08 -1.17832e-08 0 -8.88188e-06 0.000243103 0 -1.76358e-05 -0.000343109 0 1.88209e-06 1.7097e-08 0 1.95584e-06 1.27458e-09 0 2.14978e-06 2.5671e-09 0 2.39135e-06 3.1265e-09 0 2.65629e-06 3.35838e-09 0 2.92673e-06 3.37173e-09 0 3.1872e-06 3.21726e-09 0 3.42585e-06 2.93859e-09 0 3.6354e-06 2.5824e-09 0 3.81265e-06 2.18497e-09 0 3.95717e-06 1.77351e-09 0 4.07003e-06 1.36401e-09 0 4.1528e-06 9.63571e-10 0 4.20701e-06 5.73193e-10 0 4.23382e-06 1.90169e-10 0 4.23382e-06 -1.90169e-10 0 4.20701e-06 -5.73193e-10 0 4.1528e-06 -9.63571e-10 0 4.07003e-06 -1.36401e-09 0 3.95717e-06 -1.77351e-09 0 3.81265e-06 -2.18497e-09 0 3.6354e-06 -2.5824e-09 0 3.42585e-06 -2.93859e-09 0 3.1872e-06 -3.21726e-09 0 2.92673e-06 -3.37173e-09 0 2.65629e-06 -3.35838e-09 0 2.39135e-06 -3.1265e-09 0 2.14978e-06 -2.5671e-09 0 1.95584e-06 -1.27458e-09 0 1.88209e-06 -1.7097e-08 0 -1.76358e-05 0.000343109 0 -4.62989e-05 -0.00011963 0 -0.000236372 -4.79701e-07 0 -0.000242963 8.61978e-07 0 -0.000265366 1.25905e-06 0 -0.000293881 1.45443e-06 0 -0.000325326 1.53621e-06 0 -0.000357508 1.52264e-06 0 -0.000388588 1.43018e-06 0 -0.00041716 1.28266e-06 0 -0.000442341 1.10642e-06 0 -0.000463719 9.20303e-07 0 -0.000481207 7.36234e-07 0 -0.000494902 5.59727e-07 0 -0.000504967 3.92031e-07 0 -0.00051157 2.31891e-07 0 -0.000514838 7.67179e-08 0 -0.000514838 -7.67179e-08 0 -0.00051157 -2.31891e-07 0 -0.000504967 -3.92031e-07 0 -0.000494902 -5.59727e-07 0 -0.000481207 -7.36234e-07 0 -0.000463719 -9.20303e-07 0 -0.000442341 -1.10642e-06 0 -0.00041716 -1.28266e-06 0 -0.000388588 -1.43018e-06 0 -0.000357508 -1.52264e-06 0 -0.000325326 -1.53621e-06 0 -0.000293881 -1.45443e-06 0 -0.000265366 -1.25905e-06 0 -0.000242963 -8.61978e-07 0 -0.000236372 4.79701e-07 0 -4.62989e-05 0.00011963 0 </DataArray> 
</PointData> 
<Points> 
<DataArray type="Float32" NumberOfComponents="3"> 