<?xml version="1.0"?> 
<VTKFile type="StructuredGrid" version="0.1"> 
<StructuredGrid WholeExtent="0 31 0 31 0 0"> 
<Piece Extent="0 31 0 31 0 0"> 
<PointData>
<DataArray type="Float32" Name="B" format="ascii" NumberOfComponents="3"> 
-1.72274e-05 -0 0 -1.62027e-05 -0 0 -1.5196e-05 -0 0 -1.42138e-05 -0 0 -1.32617e-05 -0 0 -1.2344e-05 -0 0 -1.1464e-05 -0 0 -1.06239e-05 -0 0 -9.82522e-06 -0 0 -9.06846e-06 -0 0 -8.35359e-06 -0 0 -7.67997e-06 -0 0 -7.04652e-06 -0 0 -6.45179e-06 -0 0 -5.89401e-06 -0 0 -5.37127e-06 -0 0 -4.88146e-06 -0 0 -4.42237e-06 -0 0 -3.99181e-06 -0 0 -3.58747e-06 -0 0 -3.20711e-06 -0 0 -2.84853e-06 -0 0 -2.50949e-06 -0 0 -2.18788e-06 -0 0 -1.88159e-06 -0 0 -1.58855e-06 -0 0 -1.30681e-06 -0 0 -1.03437e-06 -0 0 -7.69341e-07 -0 0 -5.09848e-07 -0 0 -2.54003e-07 -0 0 0 -0 0 -1.72215e-05 -1.03287e-06 0 -1.61925e-05 -1.01839e-06 0 -1.5182e-05 -9.96705e-07 0 -1.41968e-05 -9.68968e-07 0 -1.32423e-05 -9.36332e-07 0 -1.23227e-05 -8.99901e-07 0 -1.14414e-05 -8.60728e-07 0 -1.06006e-05 -8.19758e-07 0 -9.80156e-06 -7.77827e-07 0 -9.04485e-06 -7.35677e-07 0 -8.33034e-06 -6.93894e-07 0 -7.65735e-06 -6.53073e-07 0 -7.02473e-06 -6.13467e-07 0 -6.43099e-06 -5.7556e-07 0 -5.87431e-06 -5.39532e-07 0 -5.35275e-06 -5.05389e-07 0 -4.86417e-06 -4.73648e-07 0 -4.40635e-06 -4.43995e-07 0 -3.97706e-06 -4.16563e-07 0 -3.57399e-06 -3.91548e-07 0 -3.19489e-06 -3.68613e-07 0 -2.83754e-06 -3.48004e-07 0 -2.49971e-06 -3.29565e-07 0 -2.17927e-06 -3.13091e-07 0 -1.87413e-06 -2.98935e-07 0 -1.58222e-06 -2.8666e-07 0 -1.30158e-06 -2.76335e-07 0 -1.03022e-06 -2.6806e-07 0 -7.6624e-07 -2.61539e-07 0 -5.07789e-07 -2.56987e-07 0 -2.52976e-07 -2.54266e-07 0 0 -2.5324e-07 0 -1.72055e-05 -2.07415e-06 0 -1.61649e-05 -2.04405e-06 0 -1.51446e-05 -1.99951e-06 0 -1.41512e-05 -1.94286e-06 0 -1.31903e-05 -1.87646e-06 0 -1.22659e-05 -1.80255e-06 0 -1.13813e-05 -1.72325e-06 0 -1.05385e-05 -1.64046e-06 0 -9.73862e-06 -1.55587e-06 0 -8.9821e-06 -1.47094e-06 0 -8.26862e-06 -1.38686e-06 0 -7.59733e-06 -1.30482e-06 0 -6.96694e-06 -1.22528e-06 0 -6.37584e-06 -1.14923e-06 0 -5.82211e-06 -1.077e-06 0 -5.30371e-06 -1.0086e-06 0 -4.81842e-06 -9.45046e-07 0 -4.36395e-06 -8.8571e-07 0 -3.93804e-06 -8.30842e-07 0 -3.53834e-06 -7.80831e-07 0 -3.16256e-06 -7.34995e-07 0 -2.80848e-06 -6.93821e-07 0 -2.47385e-06 -6.56991e-07 0 -2.15653e-06 -6.24097e-07 0 -1.85444e-06 -5.95835e-07 0 -1.56549e-06 -5.71332e-07 0 -1.28775e-06 -5.50726e-07 0 -1.01923e-06 -5.34213e-07 0 -7.58046e-07 -5.21201e-07 0 -5.02348e-07 -5.12119e-07 0 -2.50262e-07 -5.06691e-07 0 0 -5.04643e-07 0 -1.71771e-05 -3.13213e-06 0 -1.6117e-05 -3.08412e-06 0 -1.50801e-05 -3.01434e-06 0 -1.40733e-05 -2.92644e-06 0 -1.31017e-05 -2.82403e-06 0 -1.21695e-05 -2.71053e-06 0 -1.12795e-05 -2.5892e-06 0 -1.04336e-05 -2.46292e-06 0 -9.63255e-06 -2.33421e-06 0 -8.87652e-06 -2.2053e-06 0 -8.16492e-06 -2.07791e-06 0 -7.49662e-06 -1.95384e-06 0 -6.87009e-06 -1.83375e-06 0 -6.28353e-06 -1.71909e-06 0 -5.73482e-06 -1.61033e-06 0 -5.22176e-06 -1.50744e-06 0 -4.74202e-06 -1.41196e-06 0 -4.29321e-06 -1.32289e-06 0 -3.87298e-06 -1.24058e-06 0 -3.47892e-06 -1.16562e-06 0 -3.10872e-06 -1.09696e-06 0 -2.7601e-06 -1.03531e-06 0 -2.4308e-06 -9.80191e-07 0 -2.11869e-06 -9.3098e-07 0 -1.82167e-06 -8.88717e-07 0 -1.53767e-06 -8.52083e-07 0 -1.26476e-06 -8.21282e-07 0 -1.00096e-06 -7.96606e-07 0 -7.44421e-07 -7.77162e-07 0 -4.93301e-07 -7.63593e-07 0 -2.4575e-07 -7.55485e-07 0 0 -7.52426e-07 0 -1.71323e-05 -4.2156e-06 0 -1.60442e-05 -4.14607e-06 0 -1.49838e-05 -4.04736e-06 0 -1.39578e-05 -3.92455e-06 0 -1.29713e-05 -3.78264e-06 0 -1.20282e-05 -3.62634e-06 0 -1.1131e-05 -3.46006e-06 0 -1.02811e-05 -3.28772e-06 0 -9.47884e-06 -3.11273e-06 0 -8.72394e-06 -2.93799e-06 0 -8.01541e-06 -2.76579e-06 0 -7.35173e-06 -2.59853e-06 0 -6.73104e-06 -2.43696e-06 0 -6.15121e-06 -2.28302e-06 0 -5.60987e-06 -2.13727e-06 0 -5.10462e-06 -1.99959e-06 0 -4.63295e-06 -1.87201e-06 0 -4.19232e-06 -1.75314e-06 0 -3.78028e-06 -1.64342e-06 0 -3.39433e-06 -1.54359e-06 0 -3.03211e-06 -1.45221e-06 0 -2.6913e-06 -1.37024e-06 0 -2.36962e-06 -1.29699e-06 0 -2.06494e-06 -1.23163e-06 0 -1.77514e-06 -1.17553e-06 0 -1.49817e-06 -1.12692e-06 0 -1.23212e-06 -1.08606e-06 0 -9.75045e-07 -1.05333e-06 0 -7.25095e-07 -1.02755e-06 0 -4.8047e-07 -1.00956e-06 0 -2.39351e-07 -9.9881e-07 0 0 -9.94755e-07 0 -1.70693e-05 -5.33334e-06 0 -1.59457e-05 -5.23727e-06 0 -1.48555e-05 -5.10448e-06 0 -1.38055e-05 -4.94173e-06 0 -1.28007e-05 -4.75554e-06 0 -1.18444e-05 -4.55204e-06 0 -1.09387e-05 -4.33691e-06 0 -1.00844e-05 -4.11511e-06 0 -9.28124e-06 -3.89093e-06 0 -8.52841e-06 -3.66794e-06 0 -7.82435e-06 -3.44898e-06 0 -7.16704e-06 -3.23702e-06 0 -6.55417e-06 -3.03281e-06 0 -5.98324e-06 -2.83876e-06 0 -5.45154e-06 -2.65544e-06 0 -4.95642e-06 -2.4826e-06 0 -4.49515e-06 -2.32277e-06 0 -4.06501e-06 -2.17404e-06 0 -3.66342e-06 -2.03697e-06 0 -3.2878e-06 -1.9124e-06 0 -2.93571e-06 -1.7985e-06 0 -2.6048e-06 -1.69642e-06 0 -2.29275e-06 -1.60529e-06 0 -1.99742e-06 -1.52401e-06 0 -1.71672e-06 -1.45429e-06 0 -1.44861e-06 -1.39391e-06 0 -1.19118e-06 -1.34317e-06 0 -9.42537e-07 -1.30255e-06 0 -7.00857e-07 -1.27056e-06 0 -4.64381e-07 -1.24824e-06 0 -2.31327e-07 -1.23491e-06 0 0 -1.22988e-06 0 -1.69795e-05 -6.4945e-06 0 -1.58112e-05 -6.36517e-06 0 -1.46842e-05 -6.19152e-06 0 -1.3605e-05 -5.98223e-06 0 -1.25783e-05 -5.74559e-06 0 -1.16067e-05 -5.48928e-06 0 -1.06916e-05 -5.22033e-06 0 -9.83309e-06 -4.94477e-06 0 -9.03014e-06 -4.66782e-06 0 -8.28104e-06 -4.39365e-06 0 -7.5836e-06 -4.12555e-06 0 -6.93513e-06 -3.8671e-06 0 -6.33277e-06 -3.6189e-06 0 -5.77357e-06 -3.38378e-06 0 -5.25441e-06 -3.16228e-06 0 -4.77231e-06 -2.9539e-06 0 -4.32429e-06 -2.76166e-06 0 -3.90742e-06 -2.5831e-06 0 -3.519e-06 -2.41879e-06 0 -3.15632e-06 -2.26971e-06 0 -2.81687e-06 -2.13355e-06 0 -2.49826e-06 -2.01167e-06 0 -2.19815e-06 -1.90295e-06 0 -1.91441e-06 -1.80607e-06 0 -1.64493e-06 -1.72303e-06 0 -1.38773e-06 -1.65115e-06 0 -1.14092e-06 -1.59079e-06 0 -9.0264e-07 -1.54247e-06 0 -6.7112e-07 -1.50443e-06 0 -4.44645e-07 -1.4779e-06 0 -2.21486e-07 -1.46205e-06 0 0 -1.45607e-06 0 -1.6857e-05 -7.70887e-06 0 -1.56355e-05 -7.5375e-06 0 -1.44652e-05 -7.31425e-06 0 -1.33524e-05 -7.05002e-06 0 -1.23009e-05 -6.75515e-06 0 -1.13129e-05 -6.43906e-06 0 -1.03885e-05 -6.11019e-06 0 -9.52676e-06 -5.77571e-06 0 -8.72568e-06 -5.44173e-06 0 -7.98258e-06 -5.11291e-06 0 -7.29438e-06 -4.79298e-06 0 -6.65762e-06 -4.48603e-06 0 -6.06877e-06 -4.19233e-06 0 -5.52432e-06 -3.91514e-06 0 -5.0207e-06 -3.65485e-06 0 -4.55456e-06 -3.4106e-06 0 -4.12264e-06 -3.18589e-06 0 -3.7218e-06 -2.9776e-06 0 -3.34917e-06 -2.78628e-06 0 -3.00192e-06 -2.61302e-06 0 -2.67749e-06 -2.45499e-06 0 -2.37344e-06 -2.3137e-06 0 -2.08743e-06 -2.18782e-06 0 -1.81732e-06 -2.07574e-06 0 -1.56104e-06 -1.97976e-06 0 -1.31662e-06 -1.89673e-06 0 -1.08224e-06 -1.82703e-06 0 -8.56076e-07 -1.77128e-06 0 -6.36422e-07 -1.7274e-06 0 -4.2162e-07 -1.6968e-06 0 -2.10006e-07 -1.67852e-06 0 0 -1.67163e-06 0 -1.66951e-05 -8.98628e-06 0 -1.54122e-05 -8.76173e-06 0 -1.41928e-05 -8.47785e-06 0 -1.30426e-05 -8.14828e-06 0 -1.19647e-05 -7.7857e-06 0 -1.09599e-05 -7.40144e-06 0 -1.00272e-05 -7.00547e-06 0 -9.16404e-06 -6.60608e-06 0 -8.36733e-06 -6.21022e-06 0 -7.63313e-06 -5.8229e-06 0 -6.95733e-06 -5.44816e-06 0 -6.33555e-06 -5.09059e-06 0 -5.76351e-06 -4.74987e-06 0 -5.23707e-06 -4.42966e-06 0 -4.75214e-06 -4.13003e-06 0 -4.30499e-06 -3.8497e-06 0 -3.89205e-06 -3.5926e-06 0 -3.50996e-06 -3.35481e-06 0 -3.15568e-06 -3.13687e-06 0 -2.82629e-06 -2.93988e-06 0 -2.51916e-06 -2.76048e-06 0 -2.23182e-06 -2.60033e-06 0 -1.96192e-06 -2.45781e-06 0 -1.70735e-06 -2.33104e-06 0 -1.46608e-06 -2.22258e-06 0 -1.23618e-06 -2.12882e-06 0 -1.01589e-06 -2.05017e-06 0 -8.03448e-07 -1.98728e-06 0 -5.97217e-07 -1.9378e-06 0 -3.9561e-07 -1.90331e-06 0 -1.9704e-07 -1.88271e-06 0 0 -1.87494e-06 0 -1.64714e-05 -1.03372e-05 0 -1.51171e-05 -1.00453e-05 0 -1.38422e-05 -9.68702e-06 0 -1.26514e-05 -9.27933e-06 0 -1.15464e-05 -8.8376e-06 0 -1.05261e-05 -8.3753e-06 0 -9.58769e-06 -7.90393e-06 0 -8.72694e-06 -7.43283e-06 0 -7.93897e-06 -6.96975e-06 0 -7.21839e-06 -6.51979e-06 0 -6.55985e-06 -6.08715e-06 0 -5.95789e-06 -5.67684e-06 0 -5.40735e-06 -5.28767e-06 0 -4.90341e-06 -4.92362e-06 0 -4.44142e-06 -4.58431e-06 0 -4.01724e-06 -4.26787e-06 0 -3.62699e-06 -3.97864e-06 0 -3.2671e-06 -3.7118e-06 0 -2.93438e-06 -3.46779e-06 0 -2.62583e-06 -3.24773e-06 0 -2.33875e-06 -3.04763e-06 0 -2.07069e-06 -2.8693e-06 0 -1.81932e-06 -2.71081e-06 0 -1.58255e-06 -2.56997e-06 0 -1.35841e-06 -2.44961e-06 0 -1.14505e-06 -2.34563e-06 0 -9.40764e-07 -2.25846e-06 0 -7.43888e-07 -2.18881e-06 0 -5.52864e-07 -2.13402e-06 0 -3.66193e-07 -2.09584e-06 0 -1.82377e-07 -2.07305e-06 0 0 -2.06445e-06 0 -1.61812e-05 -1.17725e-05 0 -1.47475e-05 -1.13952e-05 0 -1.34128e-05 -1.09454e-05 0 -1.21802e-05 -1.04441e-05 0 -1.10491e-05 -9.90967e-06 0 -1.00161e-05 -9.35789e-06 0 -9.07597e-06 -8.80175e-06 0 -8.22225e-06 -8.25152e-06 0 -7.44803e-06 -7.71552e-06 0 -6.7462e-06 -7.19867e-06 0 -6.10995e-06 -6.70511e-06 0 -5.53262e-06 -6.2401e-06 0 -5.00813e-06 -5.80128e-06 0 -4.53092e-06 -5.39285e-06 0 -4.09577e-06 -5.01379e-06 0 -3.69815e-06 -4.66152e-06 0 -3.33388e-06 -4.3407e-06 0 -2.99918e-06 -4.04552e-06 0 -2.69076e-06 -3.77625e-06 0 -2.40554e-06 -3.53397e-06 0 -2.14082e-06 -3.31406e-06 0 -1.89415e-06 -3.11839e-06 0 -1.66325e-06 -2.94474e-06 0 -1.4461e-06 -2.7906e-06 0 -1.24079e-06 -2.65901e-06 0 -1.04556e-06 -2.54542e-06 0 -8.58796e-07 -2.45026e-06 0 -6.78933e-07 -2.37427e-06 0 -5.0451e-07 -2.31452e-06 0 -3.34129e-07 -2.27289e-06 0 -1.66398e-07 -2.24804e-06 0 0 -2.23867e-06 0 -1.57993e-05 -1.33027e-05 0 -1.42784e-05 -1.28172e-05 0 -1.28809e-05 -1.2255e-05 0 -1.16072e-05 -1.16415e-05 0 -1.04536e-05 -1.09986e-05 0 -9.41331e-06 -1.03445e-05 0 -8.47791e-06 -9.69333e-06 0 -7.63819e-06 -9.05611e-06 0 -6.88482e-06 -8.44141e-06 0 -6.20863e-06 -7.85354e-06 0 -5.60124e-06 -7.29629e-06 0 -5.05465e-06 -6.77501e-06 0 -4.56181e-06 -6.28575e-06 0 -4.11643e-06 -5.8328e-06 0 -3.71274e-06 -5.41434e-06 0 -3.34582e-06 -5.02689e-06 0 -3.01125e-06 -4.67539e-06 0 -2.70509e-06 -4.35288e-06 0 -2.42398e-06 -4.05945e-06 0 -2.16481e-06 -3.79606e-06 0 -1.92491e-06 -3.55743e-06 0 -1.70187e-06 -3.34548e-06 0 -1.49348e-06 -3.15764e-06 0 -1.29783e-06 -2.9911e-06 0 -1.1131e-06 -2.84909e-06 0 -9.37631e-07 -2.7266e-06 0 -7.69934e-07 -2.62405e-06 0 -6.08549e-07 -2.54221e-06 0 -4.52134e-07 -2.47788e-06 0 -2.99407e-07 -2.43308e-06 0 -1.49096e-07 -2.40634e-06 0 0 -2.39626e-06 0 -1.5293e-05 -1.49381e-05 0 -1.36785e-05 -1.43157e-05 0 -1.2218e-05 -1.36152e-05 0 -1.09076e-05 -1.28675e-05 0 -9.73877e-06 -1.20982e-05 0 -8.70018e-06 -1.13274e-05 0 -7.77933e-06 -1.05704e-05 0 -6.96354e-06 -9.83823e-06 0 -6.24061e-06 -9.13931e-06 0 -5.59906e-06 -8.47676e-06 0 -5.02876e-06 -7.85365e-06 0 -4.52038e-06 -7.27515e-06 0 -4.06586e-06 -6.73528e-06 0 -3.65824e-06 -6.23829e-06 0 -3.29123e-06 -5.78134e-06 0 -2.95964e-06 -5.35986e-06 0 -2.65884e-06 -4.97903e-06 0 -2.38482e-06 -4.63062e-06 0 -2.1342e-06 -4.31446e-06 0 -1.90391e-06 -4.03139e-06 0 -1.69135e-06 -3.77539e-06 0 -1.49421e-06 -3.54841e-06 0 -1.3104e-06 -3.34755e-06 0 -1.13812e-06 -3.16968e-06 0 -9.75685e-07 -3.01817e-06 0 -8.21584e-07 -2.88759e-06 0 -6.74448e-07 -2.77835e-06 0 -5.32957e-07 -2.69121e-06 0 -3.95904e-07 -2.62275e-06 0 -2.62141e-07 -2.57509e-06 0 -1.30529e-07 -2.54666e-06 0 0 -2.53594e-06 0 -1.46462e-05 -1.66871e-05 0 -1.29355e-05 -1.58916e-05 0 -1.14159e-05 -1.50216e-05 0 -1.00769e-05 -1.41143e-05 0 -8.90336e-06 -1.31984e-05 0 -7.87813e-06 -1.22959e-05 0 -6.98366e-06 -1.14221e-05 0 -6.20314e-06 -1.05874e-05 0 -5.52117e-06 -9.79946e-06 0 -4.92379e-06 -9.05944e-06 0 -4.39908e-06 -8.36921e-06 0 -3.93637e-06 -7.73345e-06 0 -3.5267e-06 -7.14365e-06 0 -3.16248e-06 -6.60388e-06 0 -2.83707e-06 -6.11002e-06 0 -2.54504e-06 -5.6563e-06 0 -2.28168e-06 -5.248e-06 0 -2.04298e-06 -4.87556e-06 0 -1.82562e-06 -4.5385e-06 0 -1.62664e-06 -4.23747e-06 0 -1.44356e-06 -3.96572e-06 0 -1.27422e-06 -3.72522e-06 0 -1.11668e-06 -3.5127e-06 0 -9.69301e-07 -3.3247e-06 0 -8.30567e-07 -3.16476e-06 0 -6.99115e-07 -3.02701e-06 0 -5.73734e-07 -2.91186e-06 0 -4.53262e-07 -2.82005e-06 0 -3.36643e-07 -2.74795e-06 0 -2.22874e-07 -2.69778e-06 0 -1.10969e-07 -2.66784e-06 0 0 -2.65656e-06 0 -1.37904e-05 -1.85547e-05 0 -1.19869e-05 -1.75408e-05 0 -1.04201e-05 -1.64643e-05 0 -9.0691e-06 -1.53683e-05 0 -7.90964e-06 -1.42845e-05 0 -6.91673e-06 -1.32349e-05 0 -6.06668e-06 -1.2234e-05 0 -5.33797e-06 -1.12905e-05 0 -4.71171e-06 -1.041e-05 0 -4.17143e-06 -9.59114e-06 0 -3.70349e-06 -8.83387e-06 0 -3.29602e-06 -8.14203e-06 0 -2.93936e-06 -7.5041e-06 0 -2.62546e-06 -6.92376e-06 0 -2.3475e-06 -6.39541e-06 0 -2.09999e-06 -5.91194e-06 0 -1.87829e-06 -5.47863e-06 0 -1.67851e-06 -5.08454e-06 0 -1.49749e-06 -4.72883e-06 0 -1.33248e-06 -4.41192e-06 0 -1.18118e-06 -4.12635e-06 0 -1.04165e-06 -3.87406e-06 0 -9.12177e-07 -3.65142e-06 0 -7.91293e-07 -3.45469e-06 0 -6.77692e-07 -3.2875e-06 0 -5.70201e-07 -3.14361e-06 0 -4.67788e-07 -3.0234e-06 0 -3.69469e-07 -2.92762e-06 0 -2.74357e-07 -2.85242e-06 0 -1.81614e-07 -2.80011e-06 0 -9.04187e-08 -2.76891e-06 0 0 -2.75715e-06 0 -1.26869e-05 -2.05388e-05 0 -1.0804e-05 -1.92504e-05 0 -9.21113e-06 -1.79243e-05 0 -7.8728e-06 -1.66083e-05 0 -6.75231e-06 -1.53347e-05 0 -5.81524e-06 -1.41241e-05 0 -5.03085e-06 -1.29877e-05 0 -4.3726e-06 -1.1931e-05 0 -3.8181e-06 -1.09568e-05 0 -3.34852e-06 -1.00596e-05 0 -2.94877e-06 -9.23728e-06 0 -2.60609e-06 -8.49217e-06 0 -2.31033e-06 -7.80931e-06 0 -2.05333e-06 -7.1918e-06 0 -1.82825e-06 -6.63238e-06 0 -1.62978e-06 -6.12247e-06 0 -1.45349e-06 -5.6673e-06 0 -1.29577e-06 -5.25449e-06 0 -1.15374e-06 -4.88283e-06 0 -1.02492e-06 -4.55249e-06 0 -9.07326e-07 -4.25532e-06 0 -7.99271e-07 -3.99321e-06 0 -6.99292e-07 -3.76221e-06 0 -6.06176e-07 -3.55829e-06 0 -5.18844e-07 -3.38517e-06 0 -4.36341e-07 -3.23628e-06 0 -3.57836e-07 -3.11196e-06 0 -2.82545e-07 -3.01295e-06 0 -2.09764e-07 -2.93525e-06 0 -1.38836e-07 -2.88121e-06 0 -6.91149e-08 -2.84898e-06 0 0 -2.83683e-06 0 -1.12852e-05 -2.26245e-05 0 -9.35021e-06 -2.09949e-05 0 -7.76498e-06 -1.93718e-05 0 -6.47356e-06 -1.78041e-05 0 -5.42417e-06 -1.63211e-05 0 -4.57155e-06 -1.49381e-05 0 -3.87751e-06 -1.36611e-05 0 -3.31057e-06 -1.24902e-05 0 -2.84517e-06 -1.1424e-05 0 -2.46059e-06 -1.04519e-05 0 -2.1407e-06 -9.56869e-06 0 -1.87229e-06 -8.77501e-06 0 -1.64514e-06 -8.05204e-06 0 -1.45124e-06 -7.40206e-06 0 -1.2841e-06 -6.81605e-06 0 -1.13877e-06 -6.2839e-06 0 -1.01124e-06 -5.81069e-06 0 -8.98326e-07 -5.38265e-06 0 -7.97544e-07 -4.99821e-06 0 -7.06819e-07 -4.65723e-06 0 -6.24511e-07 -4.35099e-06 0 -5.49272e-07 -4.08126e-06 0 -4.7995e-07 -3.84382e-06 0 -4.15611e-07 -3.63442e-06 0 -3.55438e-07 -3.45679e-06 0 -2.9872e-07 -3.30412e-06 0 -2.44848e-07 -3.17671e-06 0 -1.93252e-07 -3.07528e-06 0 -1.4343e-07 -2.99571e-06 0 -9.49122e-08 -2.94037e-06 0 -4.72432e-08 -2.90738e-06 0 0 -2.89495e-06 0 -9.43147e-06 -2.47744e-05 0 -7.50722e-06 -2.27284e-05 0 -5.99309e-06 -2.07605e-05 0 -4.80673e-06 -1.8913e-05 0 -3.87886e-06 -1.72058e-05 0 -3.15303e-06 -1.56451e-05 0 -2.58419e-06 -1.42278e-05 0 -2.13681e-06 -1.29465e-05 0 -1.78319e-06 -1.17939e-05 0 -1.50166e-06 -1.07537e-05 0 -1.27593e-06 -9.81665e-06 0 -1.09307e-06 -8.98138e-06 0 -9.43421e-07 -8.22497e-06 0 -8.19647e-07 -7.5487e-06 0 -7.1597e-07 -6.94173e-06 0 -6.28147e-07 -6.39248e-06 0 -5.52854e-07 -5.90575e-06 0 -4.87525e-07 -5.46656e-06 0 -4.30232e-07 -5.07293e-06 0 -3.7942e-07 -4.72447e-06 0 -3.33896e-07 -4.41194e-06 0 -2.92718e-07 -4.13702e-06 0 -2.55102e-07 -3.89525e-06 0 -2.20437e-07 -3.68219e-06 0 -1.88201e-07 -3.50159e-06 0 -1.57956e-07 -3.34644e-06 0 -1.29332e-07 -3.21702e-06 0 -1.01995e-07 -3.11403e-06 0 -7.56544e-08 -3.03324e-06 0 -5.00422e-08 -2.97707e-06 0 -2.49028e-08 -2.94359e-06 0 0 -2.93097e-06 0 -7.1103e-06 -2.69148e-05 0 -5.28441e-06 -2.43774e-05 0 -3.91873e-06 -2.20244e-05 0 -2.90199e-06 -1.98789e-05 0 -2.14796e-06 -1.79429e-05 0 -1.59059e-06 -1.62077e-05 0 -1.17969e-06 -1.46577e-05 0 -8.7739e-07 -1.3276e-05 0 -6.5529e-07 -1.20479e-05 0 -4.92009e-07 -1.09504e-05 0 -3.72064e-07 -9.96987e-06 0 -2.83643e-07 -9.10251e-06 0 -2.18275e-07 -8.3213e-06 0 -1.69775e-07 -7.62644e-06 0 -1.33499e-07 -7.00531e-06 0 -1.06196e-07 -6.445e-06 0 -8.54444e-08 -5.94997e-06 0 -6.94828e-08 -5.50422e-06 0 -5.70648e-08 -5.10542e-06 0 -4.72506e-08 -4.75294e-06 0 -3.93739e-08 -4.43713e-06 0 -3.2947e-08 -4.15962e-06 0 -2.76019e-08 -3.91577e-06 0 -2.30769e-08 -3.70099e-06 0 -1.91719e-08 -3.51903e-06 0 -1.5736e-08 -3.36277e-06 0 -1.26567e-08 -3.23246e-06 0 -9.8434e-09 -3.12879e-06 0 -7.22553e-09 -3.04749e-06 0 -4.74514e-09 -2.99097e-06 0 -2.35128e-09 -2.95728e-06 0 0 -2.94458e-06 0 -4.19205e-06 -2.89231e-05 0 -2.60475e-06 -2.58371e-05 0 -1.49824e-06 -2.30784e-05 0 -7.36761e-07 -2.06342e-05 0 -2.22089e-07 -1.84793e-05 0 1.17066e-07 -1.65848e-05 0 3.32444e-07 -1.49195e-05 0 4.61475e-07 -1.34548e-05 0 5.31036e-07 -1.21679e-05 0 5.6047e-07 -1.10283e-05 0 5.63127e-07 -1.00181e-05 0 5.48656e-07 -9.13068e-06 0 5.23566e-07 -8.33528e-06 0 4.92286e-07 -7.63096e-06 0 4.57878e-07 -7.00357e-06 0 4.22278e-07 -6.43906e-06 0 3.86755e-07 -5.94154e-06 0 3.52089e-07 -5.49426e-06 0 3.18717e-07 -5.09462e-06 0 2.86864e-07 -4.74182e-06 0 2.56605e-07 -4.42596e-06 0 2.2792e-07 -4.14859e-06 0 2.00728e-07 -3.90498e-06 0 1.74913e-07 -3.6905e-06 0 1.50337e-07 -3.50885e-06 0 1.26848e-07 -3.3529e-06 0 1.04292e-07 -3.22286e-06 0 8.25097e-08 -3.11942e-06 0 6.13446e-08 -3.0383e-06 0 4.06419e-08 -2.98192e-06 0 2.0244e-08 -2.94831e-06 0 0 -2.93564e-06 0 -5.88649e-07 -3.06085e-05 0 5.67053e-07 -2.69635e-05 0 1.27543e-06 -2.38147e-05 0 1.68106e-06 -2.10986e-05 0 1.88331e-06 -1.87555e-05 0 1.9512e-06 -1.67324e-05 0 1.9327e-06 -1.49806e-05 0 1.86089e-06 -1.34592e-05 0 1.75827e-06 -1.21366e-05 0 1.63998e-06 -1.0975e-05 0 1.51568e-06 -9.95241e-06 0 1.39163e-06 -9.05948e-06 0 1.27153e-06 -8.26239e-06 0 1.15743e-06 -7.55911e-06 0 1.05034e-06 -6.93428e-06 0 9.50566e-07 -6.37313e-06 0 8.57991e-07 -5.8794e-06 0 7.72257e-07 -5.43597e-06 0 6.92879e-07 -5.04009e-06 0 6.19291e-07 -4.69081e-06 0 5.50924e-07 -4.37823e-06 0 4.87216e-07 -4.10381e-06 0 4.27612e-07 -3.86284e-06 0 3.71605e-07 -3.65071e-06 0 3.18706e-07 -3.47107e-06 0 2.68456e-07 -3.31683e-06 0 2.20431e-07 -3.18824e-06 0 1.74217e-07 -3.08595e-06 0 1.29433e-07 -3.00573e-06 0 8.57085e-08 -2.94997e-06 0 4.26794e-08 -2.91674e-06 0 0 -2.90421e-06 0 3.61506e-06 -3.17339e-05 0 4.1453e-06 -2.75932e-05 0 4.32457e-06 -2.41187e-05 0 4.28403e-06 -2.11909e-05 0 4.11102e-06 -1.87138e-05 0 3.86393e-06 -1.66095e-05 0 3.58137e-06 -1.48123e-05 0 3.28819e-06 -1.3269e-05 0 2.99969e-06 -1.194e-05 0 2.72476e-06 -1.0781e-05 0 2.46789e-06 -9.76662e-06 0 2.2309e-06 -8.88493e-06 0 2.01392e-06 -8.10017e-06 0 1.81611e-06 -7.40941e-06 0 1.63606e-06 -6.79667e-06 0 1.47222e-06 -6.2469e-06 0 1.32293e-06 -5.7635e-06 0 1.18659e-06 -5.32947e-06 0 1.06171e-06 -4.94204e-06 0 9.46919e-07 -4.6002e-06 0 8.40964e-07 -4.29425e-06 0 7.42734e-07 -4.02561e-06 0 6.51193e-07 -3.78967e-06 0 5.65441e-07 -3.58192e-06 0 4.84639e-07 -3.40597e-06 0 4.08022e-07 -3.25488e-06 0 3.34901e-07 -3.12888e-06 0 2.64612e-07 -3.02864e-06 0 1.96548e-07 -2.95003e-06 0 1.30133e-07 -2.89539e-06 0 6.47955e-08 -2.86281e-06 0 0 -2.85053e-06 0 8.38736e-06 -3.20486e-05 0 8.0857e-06 -2.75622e-05 0 7.60041e-06 -2.38801e-05 0 7.02305e-06 -2.08358e-05 0 6.41397e-06 -1.83025e-05 0 5.81174e-06 -1.61814e-05 0 5.23937e-06 -1.43915e-05 0 4.70905e-06 -1.28695e-05 0 4.22566e-06 -1.1569e-05 0 3.78954e-06 -1.04413e-05 0 3.39839e-06 -9.45802e-06 0 3.04849e-06 -8.60588e-06 0 2.73564e-06 -7.8485e-06 0 2.45565e-06 -7.18234e-06 0 2.20439e-06 -6.59152e-06 0 1.97827e-06 -6.06129e-06 0 1.77399e-06 -5.59482e-06 0 1.58864e-06 -5.17575e-06 0 1.41975e-06 -4.8014e-06 0 1.26508e-06 -4.47085e-06 0 1.12275e-06 -4.17482e-06 0 9.91082e-07 -3.91472e-06 0 8.68586e-07 -3.68614e-06 0 7.53979e-07 -3.48478e-06 0 6.46088e-07 -3.31414e-06 0 5.43854e-07 -3.16756e-06 0 4.46334e-07 -3.04529e-06 0 3.52624e-07 -2.94799e-06 0 2.61905e-07 -2.87167e-06 0 1.73397e-07 -2.8186e-06 0 8.63354e-08 -2.78697e-06 0 0 -2.77505e-06 0 1.34573e-05 -3.13433e-05 0 1.2194e-05 -2.67346e-05 0 1.09581e-05 -2.30086e-05 0 9.78697e-06 -1.99734e-05 0 8.70559e-06 -1.74832e-05 0 7.72682e-06 -1.54241e-05 0 6.85366e-06 -1.37045e-05 0 6.0821e-06 -1.22539e-05 0 5.40405e-06 -1.10212e-05 0 4.80938e-06 -9.95579e-06 0 4.28784e-06 -9.02836e-06 0 3.82933e-06 -8.2248e-06 0 3.42491e-06 -7.51011e-06 0 3.06677e-06 -6.88064e-06 0 2.74797e-06 -6.32142e-06 0 2.46281e-06 -5.8187e-06 0 2.20639e-06 -5.37552e-06 0 1.97452e-06 -4.97671e-06 0 1.76377e-06 -4.61987e-06 0 1.57112e-06 -4.30428e-06 0 1.39405e-06 -4.02129e-06 0 1.2304e-06 -3.77233e-06 0 1.07823e-06 -3.55332e-06 0 9.35912e-07 -3.36023e-06 0 8.01966e-07 -3.19646e-06 0 6.75059e-07 -3.0557e-06 0 5.54011e-07 -2.93823e-06 0 4.37696e-07 -2.8447e-06 0 3.25091e-07 -2.77132e-06 0 2.15232e-07 -2.72029e-06 0 1.07165e-07 -2.68986e-06 0 0 -2.67839e-06 0 1.85483e-05 -2.95088e-05 0 1.6275e-05 -2.50352e-05 0 1.42516e-05 -2.14532e-05 0 1.24625e-05 -1.85715e-05 0 1.08965e-05 -1.62377e-05 0 9.53867e-06 -1.43302e-05 0 8.36894e-06 -1.27509e-05 0 7.36431e-06 -1.14259e-05 0 6.50151e-06 -1.03025e-05 0 5.7585e-06 -9.33135e-06 0 5.11625e-06 -8.48436e-06 0 4.55787e-06 -7.74796e-06 0 4.06953e-06 -7.09068e-06 0 3.63982e-06 -6.50931e-06 0 3.25906e-06 -5.99072e-06 0 2.91961e-06 -5.52286e-06 0 2.61503e-06 -5.1088e-06 0 2.34002e-06 -4.7351e-06 0 2.09028e-06 -4.39982e-06 0 1.8621e-06 -4.10252e-06 0 1.6524e-06 -3.83541e-06 0 1.45858e-06 -3.6e-06 0 1.27835e-06 -3.39258e-06 0 1.10975e-06 -3.2095e-06 0 9.51024e-07 -3.05404e-06 0 8.00606e-07 -2.92031e-06 0 6.57098e-07 -2.80863e-06 0 5.19175e-07 -2.71966e-06 0 3.85629e-07 -2.64983e-06 0 2.55321e-07 -2.60125e-06 0 1.27129e-07 -2.57227e-06 0 0 -2.56135e-06 0 2.33584e-05 -2.65463e-05 0 2.0109e-05 -2.24523e-05 0 1.73099e-05 -1.92028e-05 0 1.4912e-05 -1.66264e-05 0 1.28761e-05 -1.45714e-05 0 1.11597e-05 -1.29114e-05 0 9.717e-06 -1.15459e-05 0 8.50312e-06 -1.04017e-05 0 7.47776e-06 -9.42848e-06 0 6.60604e-06 -8.58216e-06 0 5.85985e-06 -7.83846e-06 0 5.21567e-06 -7.18601e-06 0 4.65504e-06 -6.59916e-06 0 4.16332e-06 -6.07582e-06 0 3.72845e-06 -5.60563e-06 0 3.34114e-06 -5.17893e-06 0 2.99373e-06 -4.79897e-06 0 2.67999e-06 -4.45454e-06 0 2.39495e-06 -4.14428e-06 0 2.13434e-06 -3.86817e-06 0 1.89467e-06 -3.61944e-06 0 1.67299e-06 -3.39966e-06 0 1.46669e-06 -3.20565e-06 0 1.27357e-06 -3.03412e-06 0 1.09165e-06 -2.88826e-06 0 9.19157e-07 -2.76266e-06 0 7.54512e-07 -2.65767e-06 0 5.96212e-07 -2.57397e-06 0 4.4289e-07 -2.50824e-06 0 2.93252e-07 -2.4625e-06 0 1.46021e-07 -2.43521e-06 0 0 -2.42492e-06 0 2.76398e-05 -2.25524e-05 0 2.35002e-05 -1.90266e-05 0 1.99682e-05 -1.62815e-05 0 1.69988e-05 -1.41643e-05 0 1.4536e-05 -1.25157e-05 0 1.25076e-05 -1.12019e-05 0 1.08372e-05 -1.0123e-05 0 9.45467e-06 -9.21163e-06 0 8.30129e-06 -8.42525e-06 0 7.32931e-06 -7.73005e-06 0 6.50218e-06 -7.10855e-06 0 5.79058e-06 -6.55349e-06 0 5.17233e-06 -6.04729e-06 0 4.63029e-06 -5.58966e-06 0 4.15067e-06 -5.17385e-06 0 3.72305e-06 -4.79317e-06 0 3.33893e-06 -4.45119e-06 0 2.99148e-06 -4.13929e-06 0 2.6753e-06 -3.85683e-06 0 2.38575e-06 -3.60425e-06 0 2.11907e-06 -3.37595e-06 0 1.87206e-06 -3.17357e-06 0 1.64191e-06 -2.99448e-06 0 1.42623e-06 -2.83584e-06 0 1.22288e-06 -2.70069e-06 0 1.0299e-06 -2.58417e-06 0 8.45592e-07 -2.48667e-06 0 6.68289e-07 -2.40888e-06 0 4.96491e-07 -2.34775e-06 0 3.2877e-07 -2.30518e-06 0 1.63714e-07 -2.27978e-06 0 0 -2.27021e-06 0 3.12514e-05 -1.76586e-05 0 2.62899e-05 -1.48108e-05 0 2.20615e-05 -1.27311e-05 0 1.85765e-05 -1.12386e-05 0 1.57615e-05 -1.01322e-05 0 1.34993e-05 -9.26252e-06 0 1.16717e-05 -8.53617e-06 0 1.01794e-05 -7.90097e-06 0 8.94506e-06 -7.32947e-06 0 7.9096e-06 -6.8041e-06 0 7.03001e-06 -6.3175e-06 0 6.27304e-06 -5.86841e-06 0 5.61427e-06 -5.4492e-06 0 5.03524e-06 -5.06201e-06 0 4.52138e-06 -4.7043e-06 0 4.06178e-06 -4.37271e-06 0 3.64765e-06 -4.07127e-06 0 3.27196e-06 -3.79413e-06 0 2.92913e-06 -3.54144e-06 0 2.61441e-06 -3.31412e-06 0 2.32391e-06 -3.10779e-06 0 2.05433e-06 -2.9242e-06 0 1.80273e-06 -2.76125e-06 0 1.56662e-06 -2.6166e-06 0 1.34375e-06 -2.49309e-06 0 1.13204e-06 -2.38647e-06 0 9.29674e-07 -2.29714e-06 0 7.3488e-07 -2.22579e-06 0 5.4604e-07 -2.16969e-06 0 3.61616e-07 -2.13061e-06 0 1.80081e-07 -2.10728e-06 0 0 -2.09848e-06 0 3.41904e-05 -1.19241e-05 0 2.83355e-05 -9.79854e-06 0 2.3393e-05 -8.59226e-06 0 1.94754e-05 -7.93744e-06 0 1.64338e-05 -7.52265e-06 0 1.40589e-05 -7.18612e-06 0 1.2174e-05 -6.86192e-06 0 1.0649e-05 -6.52964e-06 0 9.39157e-06 -6.18714e-06 0 8.33587e-06 -5.83929e-06 0 7.43609e-06 -5.49184e-06 0 6.65802e-06 -5.1511e-06 0 5.97715e-06 -4.82053e-06 0 5.37527e-06 -4.50504e-06 0 4.83815e-06 -4.20656e-06 0 4.35523e-06 -3.92516e-06 0 3.91802e-06 -3.66535e-06 0 3.51971e-06 -3.42409e-06 0 3.15488e-06 -3.20227e-06 0 2.81888e-06 -3.00129e-06 0 2.50788e-06 -2.81799e-06 0 2.2186e-06 -2.65417e-06 0 1.94808e-06 -2.50828e-06 0 1.6938e-06 -2.37845e-06 0 1.45343e-06 -2.26735e-06 0 1.22486e-06 -2.17128e-06 0 1.00617e-06 -2.09068e-06 0 7.95514e-07 -2.02624e-06 0 5.91186e-07 -1.97554e-06 0 3.91556e-07 -1.94019e-06 0 1.95003e-07 -1.91909e-06 0 0 -1.91113e-06 0 3.66486e-05 -5.12614e-06 0 2.93985e-05 -3.80514e-06 0 2.36538e-05 -3.92394e-06 0 1.94932e-05 -4.42436e-06 0 1.64469e-05 -4.85041e-06 0 1.41368e-05 -5.10407e-06 0 1.2323e-05 -5.19844e-06 0 1.08557e-05 -5.16933e-06 0 9.63912e-06 -5.05054e-06 0 8.60879e-06 -4.87383e-06 0 7.72179e-06 -4.65969e-06 0 6.94685e-06 -4.42267e-06 0 6.26197e-06 -4.17723e-06 0 5.65095e-06 -3.93102e-06 0 5.10118e-06 -3.69021e-06 0 4.60329e-06 -3.4581e-06 0 4.14968e-06 -3.23959e-06 0 3.73419e-06 -3.03421e-06 0 3.35189e-06 -2.84353e-06 0 2.99845e-06 -2.66936e-06 0 2.67025e-06 -2.50963e-06 0 2.36414e-06 -2.36619e-06 0 2.07726e-06 -2.23798e-06 0 1.8071e-06 -2.12358e-06 0 1.55134e-06 -2.02543e-06 0 1.30784e-06 -1.94043e-06 0 1.07464e-06 -1.86902e-06 0 8.49835e-07 -1.81186e-06 0 6.31658e-07 -1.76685e-06 0 4.18408e-07 -1.73546e-06 0 2.0839e-07 -1.7167e-06 0 0 -1.70963e-06 0 3.92926e-05 4.1056e-06 0 2.85803e-05 3.64787e-06 0 2.22843e-05 9.89499e-07 0 1.84257e-05 -1.03774e-06 0 1.57483e-05 -2.36415e-06 0 1.37332e-05 -3.18406e-06 0 1.21341e-05 -3.65802e-06 0 1.08174e-05 -3.89632e-06 0 9.70339e-06 -3.97266e-06 0 8.74099e-06 -3.94515e-06 0 7.89674e-06 -3.84796e-06 0 7.14662e-06 -3.70303e-06 0 6.47379e-06 -3.53417e-06 0 5.86577e-06 -3.35134e-06 0 5.31277e-06 -3.16418e-06 0 4.80735e-06 -2.97861e-06 0 4.34337e-06 -2.79975e-06 0 3.91571e-06 -2.62928e-06 0 3.52014e-06 -2.46925e-06 0 3.15287e-06 -2.32177e-06 0 2.81063e-06 -2.18573e-06 0 2.49051e-06 -2.06293e-06 0 2.18978e-06 -1.95276e-06 0 1.90604e-06 -1.85418e-06 0 1.63702e-06 -1.76939e-06 0 1.38057e-06 -1.69583e-06 0 1.13472e-06 -1.63395e-06 0 8.97546e-07 -1.58436e-06 0 6.67229e-07 -1.54528e-06 0 4.42021e-07 -1.518e-06 0 2.20165e-07 -1.50171e-06 0 0 -1.49556e-06 0 2.13281e-05 2.72296e-05 0 2.27401e-05 1.1436e-05 0 1.87649e-05 5.03135e-06 0 1.62807e-05 1.63736e-06 0 1.4426e-05 -3.73637e-07 0 1.29304e-05 -1.60233e-06 0 1.16712e-05 -2.34783e-06 0 1.05809e-05 -2.77932e-06 0 9.61852e-06 -2.9996e-06 0 8.75703e-06 -3.08506e-06 0 7.97854e-06 -3.07916e-06 0 7.26985e-06 -3.00874e-06 0 6.62141e-06 -2.90376e-06 0 6.02586e-06 -2.77557e-06 0 5.47709e-06 -2.63603e-06 0 4.97019e-06 -2.49277e-06 0 4.50087e-06 -2.3509e-06 0 4.0653e-06 -2.21357e-06 0 3.66017e-06 -2.08313e-06 0 3.28234e-06 -1.96179e-06 0 2.92899e-06 -1.84918e-06 0 2.5975e-06 -1.74701e-06 0 2.28537e-06 -1.655e-06 0 1.99032e-06 -1.57245e-06 0 1.71014e-06 -1.50126e-06 0 1.44273e-06 -1.4394e-06 0 1.18614e-06 -1.3873e-06 0 9.38415e-07 -1.34549e-06 0 6.9772e-07 -1.31253e-06 0 4.62269e-07 -1.28951e-06 0 2.30266e-07 -1.27575e-06 0 0 -1.27056e-06 0 </DataArray> 
</PointData> 
<Points> 
<DataArray type="Float32" NumberOfComponents="3"> 