<?xml version="1.0"?> 
<VTKFile type="StructuredGrid" version="0.1"> 
<StructuredGrid WholeExtent="0 31 0 31 0 0"> 
<Piece Extent="0 31 0 31 0 0"> 
<PointData>
<DataArray type="Float32" Name="B" format="ascii" NumberOfComponents="3"> 
4.14981e-06 -2.80034e-05 0 -2.56701e-05 -6.3243e-07 0 -2.58806e-05 8.49424e-07 0 -2.79406e-05 1.28897e-06 0 -3.06891e-05 1.49992e-06 0 -3.37546e-05 1.5881e-06 0 -3.69088e-05 1.57703e-06 0 -3.99721e-05 1.48472e-06 0 -4.28076e-05 1.33524e-06 0 -4.53254e-05 1.15505e-06 0 -4.74785e-05 9.63305e-07 0 -4.92514e-05 7.72403e-07 0 -5.06472e-05 5.88311e-07 0 -5.16774e-05 4.12622e-07 0 -5.23552e-05 2.44295e-07 0 -5.26912e-05 8.08589e-08 0 -5.26912e-05 -8.08589e-08 0 -5.23552e-05 -2.44295e-07 0 -5.16774e-05 -4.12622e-07 0 -5.06472e-05 -5.88311e-07 0 -4.92514e-05 -7.72403e-07 0 -4.74785e-05 -9.63305e-07 0 -4.53254e-05 -1.15505e-06 0 -4.28076e-05 -1.33524e-06 0 -3.99721e-05 -1.48472e-06 0 -3.69088e-05 -1.57703e-06 0 -3.37546e-05 -1.5881e-06 0 -3.06891e-05 -1.49992e-06 0 -2.79406e-05 -1.28897e-06 0 -2.58806e-05 -8.49424e-07 0 -2.56701e-05 6.3243e-07 0 4.14981e-06 2.80034e-05 0 -1.73816e-05 -1.39631e-06 0 -2.20011e-05 7.95547e-07 0 -2.46877e-05 2.84321e-06 0 -2.73662e-05 3.94235e-06 0 -3.03992e-05 4.54999e-06 0 -3.36793e-05 4.81433e-06 0 -3.7017e-05 4.78073e-06 0 -4.02203e-05 4.50057e-06 0 -4.31433e-05 4.04833e-06 0 -4.57023e-05 3.50466e-06 0 -4.78649e-05 2.92641e-06 0 -4.96298e-05 2.34984e-06 0 -5.10104e-05 1.7923e-06 0 -5.20251e-05 1.25855e-06 0 -5.2691e-05 7.4577e-07 0 -5.30206e-05 2.46951e-07 0 -5.30206e-05 -2.46951e-07 0 -5.2691e-05 -7.4577e-07 0 -5.20251e-05 -1.25855e-06 0 -5.10104e-05 -1.7923e-06 0 -4.96298e-05 -2.34984e-06 0 -4.78649e-05 -2.92641e-06 0 -4.57023e-05 -3.50466e-06 0 -4.31433e-05 -4.04833e-06 0 -4.02203e-05 -4.50057e-06 0 -3.7017e-05 -4.78073e-06 0 -3.36793e-05 -4.81433e-06 0 -3.03992e-05 -4.54999e-06 0 -2.73662e-05 -3.94235e-06 0 -2.46877e-05 -2.84321e-06 0 -2.20011e-05 -7.95547e-07 0 -1.73816e-05 1.39631e-06 0 -1.65989e-05 2.84007e-06 0 -2.00297e-05 4.14582e-06 0 -2.3204e-05 5.72204e-06 0 -2.63962e-05 7.03066e-06 0 -2.98521e-05 7.92942e-06 0 -3.35465e-05 8.34267e-06 0 -3.72681e-05 8.23637e-06 0 -4.076e-05 7.6872e-06 0 -4.38513e-05 6.85136e-06 0 -4.64805e-05 5.88456e-06 0 -4.86512e-05 4.88459e-06 0 -5.03926e-05 3.9061e-06 0 -5.17389e-05 2.97126e-06 0 -5.27206e-05 2.0829e-06 0 -5.33617e-05 1.23305e-06 0 -5.36782e-05 4.08126e-07 0 -5.36782e-05 -4.08126e-07 0 -5.33617e-05 -1.23305e-06 0 -5.27206e-05 -2.0829e-06 0 -5.17389e-05 -2.97126e-06 0 -5.03926e-05 -3.9061e-06 0 -4.86512e-05 -4.88459e-06 0 -4.64805e-05 -5.88456e-06 0 -4.38513e-05 -6.85136e-06 0 -4.076e-05 -7.6872e-06 0 -3.72681e-05 -8.23637e-06 0 -3.35465e-05 -8.34267e-06 0 -2.98521e-05 -7.92942e-06 0 -2.63962e-05 -7.03066e-06 0 -2.3204e-05 -5.72204e-06 0 -2.00297e-05 -4.14582e-06 0 -1.65989e-05 -2.84007e-06 0 -1.55703e-05 5.94367e-06 0 -1.85115e-05 7.3167e-06 0 -2.16585e-05 8.9397e-06 0 -2.51153e-05 1.05276e-05 0 -2.90339e-05 1.17973e-05 0 -3.33785e-05 1.24146e-05 0 -3.77675e-05 1.21505e-05 0 -4.17198e-05 1.11553e-05 0 -4.50314e-05 9.77929e-06 0 -4.77203e-05 8.28922e-06 0 -4.98668e-05 6.81588e-06 0 -5.15494e-05 5.41552e-06 0 -5.28303e-05 4.10205e-06 0 -5.37552e-05 2.86794e-06 0 -5.43554e-05 1.69515e-06 0 -5.46508e-05 5.60676e-07 0 -5.46508e-05 -5.60676e-07 0 -5.43554e-05 -1.69515e-06 0 -5.37552e-05 -2.86794e-06 0 -5.28303e-05 -4.10205e-06 0 -5.15494e-05 -5.41552e-06 0 -4.98668e-05 -6.81588e-06 0 -4.77203e-05 -8.28922e-06 0 -4.50314e-05 -9.77929e-06 0 -4.17198e-05 -1.11553e-05 0 -3.77675e-05 -1.21505e-05 0 -3.33785e-05 -1.24146e-05 0 -2.90339e-05 -1.17973e-05 0 -2.51153e-05 -1.05276e-05 0 -2.16585e-05 -8.9397e-06 0 -1.85115e-05 -7.3167e-06 0 -1.55703e-05 -5.94367e-06 0 -1.42476e-05 8.55544e-06 0 -1.68354e-05 1.02251e-05 0 -1.9811e-05 1.21996e-05 0 -2.33426e-05 1.43289e-05 0 -2.77194e-05 1.63201e-05 0 -3.31398e-05 1.74588e-05 0 -3.8771e-05 1.68283e-05 0 -4.33554e-05 1.49772e-05 0 -4.68408e-05 1.28035e-05 0 -4.95005e-05 1.06641e-05 0 -5.1543e-05 8.66745e-06 0 -5.31049e-05 6.83468e-06 0 -5.42754e-05 5.15189e-06 0 -5.51122e-05 3.59107e-06 0 -5.56521e-05 2.11887e-06 0 -5.5917e-05 7.00263e-07 0 -5.5917e-05 -7.00263e-07 0 -5.56521e-05 -2.11887e-06 0 -5.51122e-05 -3.59107e-06 0 -5.42754e-05 -5.15189e-06 0 -5.31049e-05 -6.83468e-06 0 -5.1543e-05 -8.66745e-06 0 -4.95005e-05 -1.06641e-05 0 -4.68408e-05 -1.28035e-05 0 -4.33554e-05 -1.49772e-05 0 -3.8771e-05 -1.68283e-05 0 -3.31398e-05 -1.74588e-05 0 -2.77194e-05 -1.63201e-05 0 -2.33426e-05 -1.43289e-05 0 -1.9811e-05 -1.21996e-05 0 -1.68354e-05 -1.02251e-05 0 -1.42476e-05 -8.55544e-06 0 -1.25911e-05 1.07808e-05 0 -1.47937e-05 1.2815e-05 0 -1.74286e-05 1.52876e-05 0 -2.07304e-05 1.82072e-05 0 -2.52065e-05 2.15413e-05 0 -3.23569e-05 2.48365e-05 0 -4.11449e-05 2.26289e-05 0 -4.61153e-05 1.90226e-05 0 -4.94726e-05 1.57621e-05 0 -5.18984e-05 1.28835e-05 0 -5.37039e-05 1.03499e-05 0 -5.50587e-05 8.1018e-06 0 -5.60625e-05 6.07915e-06 0 -5.67753e-05 4.22563e-06 0 -5.72335e-05 2.48934e-06 0 -5.74579e-05 8.22108e-07 0 -5.74579e-05 -8.22108e-07 0 -5.72335e-05 -2.48934e-06 0 -5.67753e-05 -4.22563e-06 0 -5.60625e-05 -6.07915e-06 0 -5.50587e-05 -8.1018e-06 0 -5.37039e-05 -1.03499e-05 0 -5.18984e-05 -1.28835e-05 0 -4.94726e-05 -1.57621e-05 0 -4.61153e-05 -1.90226e-05 0 -4.11449e-05 -2.26289e-05 0 -3.23569e-05 -2.48365e-05 0 -2.52065e-05 -2.15413e-05 0 -2.07304e-05 -1.82072e-05 0 -1.74286e-05 -1.52876e-05 0 -1.47937e-05 -1.2815e-05 0 -1.25911e-05 -1.07808e-05 0 -1.06168e-05 1.25931e-05 0 -1.23409e-05 1.4963e-05 0 -1.44179e-05 1.7924e-05 0 -1.70446e-05 2.16478e-05 0 -2.05908e-05 2.64678e-05 0 -2.55566e-05 3.33315e-05 0 -3.09095e-05 2.83135e-05 0 -3.47718e-05 2.26757e-05 0 -3.74338e-05 1.83248e-05 0 -3.93416e-05 1.4756e-05 0 -4.07504e-05 1.17469e-05 0 -4.18034e-05 9.14434e-06 0 -4.25828e-05 6.83834e-06 0 -4.31366e-05 4.74394e-06 0 -4.34931e-05 2.79165e-06 0 -4.36678e-05 9.21502e-07 0 -4.36678e-05 -9.21502e-07 0 -4.34931e-05 -2.79165e-06 0 -4.31366e-05 -4.74394e-06 0 -4.25828e-05 -6.83834e-06 0 -4.18034e-05 -9.14434e-06 0 -4.07504e-05 -1.17469e-05 0 -3.93416e-05 -1.4756e-05 0 -3.74338e-05 -1.83248e-05 0 -3.47718e-05 -2.26757e-05 0 -3.09095e-05 -2.83135e-05 0 -2.55566e-05 -3.33315e-05 0 -2.05908e-05 -2.64678e-05 0 -1.70446e-05 -2.16478e-05 0 -1.44179e-05 -1.7924e-05 0 -1.23409e-05 -1.4963e-05 0 -1.06168e-05 -1.25931e-05 0 -8.39507e-06 1.39318e-05 0 -9.55111e-06 1.6528e-05 0 -1.0886e-05 1.9818e-05 0 -1.24851e-05 2.40605e-05 0 -1.4469e-05 2.96713e-05 0 -1.68617e-05 3.72731e-05 0 -1.93082e-05 3.17577e-05 0 -2.13378e-05 2.51674e-05 0 -2.28691e-05 2.01208e-05 0 -2.40188e-05 1.60819e-05 0 -2.48958e-05 1.27441e-05 0 -2.55689e-05 9.89455e-06 0 -2.60781e-05 7.38884e-06 0 -2.64461e-05 5.12217e-06 0 -2.66858e-05 3.01325e-06 0 -2.68041e-05 9.94533e-07 0 -2.68041e-05 -9.94533e-07 0 -2.66858e-05 -3.01325e-06 0 -2.64461e-05 -5.12217e-06 0 -2.60781e-05 -7.38884e-06 0 -2.55689e-05 -9.89455e-06 0 -2.48958e-05 -1.27441e-05 0 -2.40188e-05 -1.60819e-05 0 -2.28691e-05 -2.01208e-05 0 -2.13378e-05 -2.51674e-05 0 -1.93082e-05 -3.17577e-05 0 -1.68617e-05 -3.72731e-05 0 -1.4469e-05 -2.96713e-05 0 -1.24851e-05 -2.40605e-05 0 -1.0886e-05 -1.9818e-05 0 -9.55111e-06 -1.6528e-05 0 -8.39507e-06 -1.39318e-05 0 -6.04263e-06 1.4752e-05 0 -6.59022e-06 1.74134e-05 0 -7.09943e-06 2.07844e-05 0 -7.53548e-06 2.51424e-05 0 -7.86174e-06 3.09026e-05 0 -8.06793e-06 3.86005e-05 0 -8.22541e-06 3.29756e-05 0 -8.42307e-06 2.61671e-05 0 -8.67707e-06 2.09211e-05 0 -8.95883e-06 1.67264e-05 0 -9.23823e-06 1.32639e-05 0 -9.49378e-06 1.03076e-05 0 -9.71123e-06 7.70452e-06 0 -9.88118e-06 5.34541e-06 0 -9.99752e-06 3.14648e-06 0 -1.00566e-05 1.03884e-06 0 -1.00566e-05 -1.03884e-06 0 -9.99752e-06 -3.14648e-06 0 -9.88118e-06 -5.34541e-06 0 -9.71123e-06 -7.70452e-06 0 -9.49378e-06 -1.03076e-05 0 -9.23823e-06 -1.32639e-05 0 -8.95883e-06 -1.67264e-05 0 -8.67707e-06 -2.09211e-05 0 -8.42307e-06 -2.61671e-05 0 -8.22541e-06 -3.29756e-05 0 -8.06793e-06 -3.86005e-05 0 -7.86174e-06 -3.09026e-05 0 -7.53548e-06 -2.51424e-05 0 -7.09943e-06 -2.07844e-05 0 -6.59022e-06 -1.74134e-05 0 -6.04263e-06 -1.4752e-05 0 -3.69974e-06 1.50532e-05 0 -3.6665e-06 1.76049e-05 0 -3.38448e-06 2.07878e-05 0 -2.69707e-06 2.48452e-05 0 -1.38228e-06 3.01924e-05 0 6.43036e-07 3.75715e-05 0 2.79151e-06 3.2077e-05 0 4.43504e-06 2.56332e-05 0 5.42438e-06 2.0678e-05 0 5.98001e-06 1.66593e-05 0 6.27737e-06 1.32899e-05 0 6.42568e-06 1.03747e-05 0 6.4909e-06 7.78098e-06 0 6.51311e-06 5.41151e-06 0 6.51655e-06 3.19037e-06 0 6.51509e-06 1.05414e-06 0 6.51509e-06 -1.05414e-06 0 6.51655e-06 -3.19037e-06 0 6.51311e-06 -5.41151e-06 0 6.4909e-06 -7.78098e-06 0 6.42568e-06 -1.03747e-05 0 6.27737e-06 -1.32899e-05 0 5.98001e-06 -1.66593e-05 0 5.42438e-06 -2.0678e-05 0 4.43504e-06 -2.56332e-05 0 2.79151e-06 -3.2077e-05 0 6.43036e-07 -3.75715e-05 0 -1.38228e-06 -3.01924e-05 0 -2.69707e-06 -2.48452e-05 0 -3.38448e-06 -2.07878e-05 0 -3.6665e-06 -1.76049e-05 0 -3.69974e-06 -1.50532e-05 0 -1.49456e-06 1.48854e-05 0 -9.72842e-07 1.71775e-05 0 -4.61422e-08 1.994e-05 0 1.5409e-06 2.3307e-05 0 4.2713e-06 2.75177e-05 0 9.18794e-06 3.33874e-05 0 1.51354e-05 2.88429e-05 0 1.85074e-05 2.3686e-05 0 2.04971e-05 1.95118e-05 0 2.17241e-05 1.59599e-05 0 2.24974e-05 1.28706e-05 0 2.29888e-05 1.0126e-05 0 2.32996e-05 7.63677e-06 0 2.34914e-05 5.33165e-06 0 2.36017e-05 3.15092e-06 0 2.36519e-05 1.04234e-06 0 2.36519e-05 -1.04234e-06 0 2.36017e-05 -3.15092e-06 0 2.34914e-05 -5.33165e-06 0 2.32996e-05 -7.63677e-06 0 2.29888e-05 -1.0126e-05 0 2.24974e-05 -1.28706e-05 0 2.17241e-05 -1.59599e-05 0 2.04971e-05 -1.95118e-05 0 1.85074e-05 -2.3686e-05 0 1.51354e-05 -2.88429e-05 0 9.18794e-06 -3.33874e-05 0 4.2713e-06 -2.75177e-05 0 1.5409e-06 -2.3307e-05 0 -4.61422e-08 -1.994e-05 0 -9.72842e-07 -1.71775e-05 0 -1.49456e-06 -1.48854e-05 0 4.47605e-07 1.43452e-05 0 1.30698e-06 1.62865e-05 0 2.62556e-06 1.85016e-05 0 4.6528e-06 2.09742e-05 0 7.83772e-06 2.35617e-05 0 1.31597e-05 2.53676e-05 0 1.95618e-05 2.39313e-05 0 2.33584e-05 2.08556e-05 0 2.57708e-05 1.7733e-05 0 2.73673e-05 1.48074e-05 0 2.84446e-05 1.21119e-05 0 2.91763e-05 9.6253e-06 0 2.96697e-05 7.31101e-06 0 2.99927e-05 5.12921e-06 0 3.01876e-05 3.04061e-06 0 3.02793e-05 1.00736e-06 0 3.02793e-05 -1.00736e-06 0 3.01876e-05 -3.04061e-06 0 2.99927e-05 -5.12921e-06 0 2.96697e-05 -7.31101e-06 0 2.91763e-05 -9.6253e-06 0 2.84446e-05 -1.21119e-05 0 2.73673e-05 -1.48074e-05 0 2.57708e-05 -1.7733e-05 0 2.33584e-05 -2.08556e-05 0 1.95618e-05 -2.39313e-05 0 1.31597e-05 -2.53676e-05 0 7.83772e-06 -2.35617e-05 0 4.6528e-06 -2.09742e-05 0 2.62556e-06 -1.85016e-05 0 1.30698e-06 -1.62865e-05 0 4.47605e-07 -1.43452e-05 0 2.11216e-06 1.35481e-05 0 3.17238e-06 1.51169e-05 0 4.66266e-06 1.67902e-05 0 6.74539e-06 1.84632e-05 0 9.60331e-06 1.9875e-05 0 1.32511e-05 2.0515e-05 0 1.71076e-05 1.9739e-05 0 2.02738e-05 1.79543e-05 0 2.2631e-05 1.57325e-05 0 2.43373e-05 1.34179e-05 0 2.55639e-05 1.11425e-05 0 2.64396e-05 8.95213e-06 0 2.70545e-05 6.8532e-06 0 2.74703e-05 4.83418e-06 0 2.77273e-05 2.87556e-06 0 2.785e-05 9.54276e-07 0 2.785e-05 -9.54276e-07 0 2.77273e-05 -2.87556e-06 0 2.74703e-05 -4.83418e-06 0 2.70545e-05 -6.8532e-06 0 2.64396e-05 -8.95213e-06 0 2.55639e-05 -1.11425e-05 0 2.43373e-05 -1.34179e-05 0 2.2631e-05 -1.57325e-05 0 2.02738e-05 -1.79543e-05 0 1.71076e-05 -1.9739e-05 0 1.32511e-05 -2.0515e-05 0 9.60331e-06 -1.9875e-05 0 6.74539e-06 -1.84632e-05 0 4.66266e-06 -1.67902e-05 0 3.17238e-06 -1.51169e-05 0 2.11216e-06 -1.35481e-05 0 3.45991e-06 1.26035e-05 0 4.59692e-06 1.38314e-05 0 6.08801e-06 1.50543e-05 0 8.00998e-06 1.61575e-05 0 1.03983e-05 1.69466e-05 0 1.31551e-05 1.71566e-05 0 1.59573e-05 1.66213e-05 0 1.84978e-05 1.54189e-05 0 2.05843e-05 1.37958e-05 0 2.22165e-05 1.19743e-05 0 2.34596e-05 1.0081e-05 0 2.43868e-05 8.18424e-06 0 2.50604e-05 6.31391e-06 0 2.55277e-05 4.47811e-06 0 2.58218e-05 2.67306e-06 0 2.59638e-05 8.88597e-07 0 2.59638e-05 -8.88597e-07 0 2.58218e-05 -2.67306e-06 0 2.55277e-05 -4.47811e-06 0 2.50604e-05 -6.31391e-06 0 2.43868e-05 -8.18424e-06 0 2.34596e-05 -1.0081e-05 0 2.22165e-05 -1.19743e-05 0 2.05843e-05 -1.37958e-05 0 1.84978e-05 -1.54189e-05 0 1.59573e-05 -1.66213e-05 0 1.31551e-05 -1.71566e-05 0 1.03983e-05 -1.69466e-05 0 8.00998e-06 -1.61575e-05 0 6.08801e-06 -1.50543e-05 0 4.59692e-06 -1.38314e-05 0 3.45991e-06 -1.26035e-05 0 4.5316e-06 1.15993e-05 0 5.66737e-06 1.25431e-05 0 7.07661e-06 1.34252e-05 0 8.78593e-06 1.41525e-05 0 1.07808e-05 1.46003e-05 0 1.29725e-05 1.46361e-05 0 1.51961e-05 1.41899e-05 0 1.72652e-05 1.3291e-05 0 1.90616e-05 1.20482e-05 0 2.05456e-05 1.05926e-05 0 2.17293e-05 9.0174e-06 0 2.26456e-05 7.38703e-06 0 2.33308e-05 5.73859e-06 0 2.38165e-05 4.0906e-06 0 2.4127e-05 2.44976e-06 0 2.42783e-05 8.15691e-07 0 2.42783e-05 -8.15691e-07 0 2.4127e-05 -2.44976e-06 0 2.38165e-05 -4.0906e-06 0 2.33308e-05 -5.73859e-06 0 2.26456e-05 -7.38703e-06 0 2.17293e-05 -9.0174e-06 0 2.05456e-05 -1.05926e-05 0 1.90616e-05 -1.20482e-05 0 1.72652e-05 -1.3291e-05 0 1.51961e-05 -1.41899e-05 0 1.29725e-05 -1.46361e-05 0 1.07808e-05 -1.46003e-05 0 8.78593e-06 -1.41525e-05 0 7.07661e-06 -1.34252e-05 0 5.66737e-06 -1.25431e-05 0 4.5316e-06 -1.15993e-05 0 5.38714e-06 1.05919e-05 0 6.4811e-06 1.13107e-05 0 7.77959e-06 1.19446e-05 0 9.28411e-06 1.24255e-05 0 1.09668e-05 1.26748e-05 0 1.27605e-05 1.26206e-05 0 1.45675e-05 1.22261e-05 0 1.62803e-05 1.15058e-05 0 1.78183e-05 1.05123e-05 0 1.91382e-05 9.32393e-06 0 2.02289e-05 8.00405e-06 0 2.10992e-05 6.60449e-06 0 2.1766e-05 5.16066e-06 0 2.22475e-05 3.69468e-06 0 2.25594e-05 2.21904e-06 0 2.27125e-05 7.3994e-07 0 2.27125e-05 -7.3994e-07 0 2.25594e-05 -2.21904e-06 0 2.22475e-05 -3.69468e-06 0 2.1766e-05 -5.16066e-06 0 2.10992e-05 -6.60449e-06 0 2.02289e-05 -8.00405e-06 0 1.91382e-05 -9.32393e-06 0 1.78183e-05 -1.05123e-05 0 1.62803e-05 -1.15058e-05 0 1.45675e-05 -1.22261e-05 0 1.27605e-05 -1.26206e-05 0 1.09668e-05 -1.26748e-05 0 9.28411e-06 -1.24255e-05 0 7.77959e-06 -1.19446e-05 0 6.4811e-06 -1.13107e-05 0 5.38714e-06 -1.05919e-05 0 6.03376e-06 9.61523e-06 0 7.06354e-06 1.01602e-05 0 8.2463e-06 1.06151e-05 0 9.57416e-06 1.09314e-05 0 1.10198e-05 1.10585e-05 0 1.2534e-05 1.09538e-05 0 1.40504e-05 1.05968e-05 0 1.55004e-05 9.99378e-06 0 1.68263e-05 9.17322e-06 0 1.79907e-05 8.1837e-06 0 1.89762e-05 7.06746e-06 0 1.97798e-05 5.86381e-06 0 2.04071e-05 4.60314e-06 0 2.08668e-05 3.30728e-06 0 2.11677e-05 1.99115e-06 0 2.13163e-05 6.64762e-07 0 2.13163e-05 -6.64762e-07 0 2.11677e-05 -1.99115e-06 0 2.08668e-05 -3.30728e-06 0 2.04071e-05 -4.60314e-06 0 1.97798e-05 -5.86381e-06 0 1.89762e-05 -7.06746e-06 0 1.79907e-05 -8.1837e-06 0 1.68263e-05 -9.17322e-06 0 1.55004e-05 -9.99378e-06 0 1.40504e-05 -1.05968e-05 0 1.2534e-05 -1.09538e-05 0 1.10198e-05 -1.10585e-05 0 9.57416e-06 -1.09314e-05 0 8.2463e-06 -1.06151e-05 0 7.06354e-06 -1.01602e-05 0 6.03376e-06 -9.61523e-06 0 6.5425e-06 8.68655e-06 0 7.50237e-06 9.09851e-06 0 8.57612e-06 9.42365e-06 0 9.75245e-06 9.62756e-06 0 1.10074e-05 9.67671e-06 0 1.23043e-05 9.54413e-06 0 1.35973e-05 9.21719e-06 0 1.48389e-05 8.69906e-06 0 1.59873e-05 8.00575e-06 0 1.7012e-05 7.16882e-06 0 1.78942e-05 6.21672e-06 0 1.86257e-05 5.1787e-06 0 1.92051e-05 4.07961e-06 0 1.96348e-05 2.93929e-06 0 1.99184e-05 1.773e-06 0 2.00592e-05 5.92513e-07 0 2.00592e-05 -5.92513e-07 0 1.99184e-05 -1.773e-06 0 1.96348e-05 -2.93929e-06 0 1.92051e-05 -4.07961e-06 0 1.86257e-05 -5.1787e-06 0 1.78942e-05 -6.21672e-06 0 1.7012e-05 -7.16882e-06 0 1.59873e-05 -8.00575e-06 0 1.48389e-05 -8.69906e-06 0 1.35973e-05 -9.21719e-06 0 1.23043e-05 -9.54413e-06 0 1.10074e-05 -9.67671e-06 0 9.75245e-06 -9.62756e-06 0 8.57612e-06 -9.42365e-06 0 7.50237e-06 -9.09851e-06 0 6.5425e-06 -8.68655e-06 0 6.93677e-06 7.81251e-06 0 7.8273e-06 8.12306e-06 0 8.80266e-06 8.35384e-06 0 9.85098e-06 8.48013e-06 0 1.09521e-05 8.47894e-06 0 1.2078e-05 8.33236e-06 0 1.31958e-05 8.0321e-06 0 1.42709e-05 7.57974e-06 0 1.52723e-05 6.98482e-06 0 1.6175e-05 6.26877e-06 0 1.69617e-05 5.45111e-06 0 1.76219e-05 4.55367e-06 0 1.81506e-05 3.59641e-06 0 1.85462e-05 2.59654e-06 0 1.88091e-05 1.56854e-06 0 1.89402e-05 5.24583e-07 0 1.89402e-05 -5.24583e-07 0 1.88091e-05 -1.56854e-06 0 1.85462e-05 -2.59654e-06 0 1.81506e-05 -3.59641e-06 0 1.76219e-05 -4.55367e-06 0 1.69617e-05 -5.45111e-06 0 1.6175e-05 -6.26877e-06 0 1.52723e-05 -6.98482e-06 0 1.42709e-05 -7.57974e-06 0 1.31958e-05 -8.0321e-06 0 1.2078e-05 -8.33236e-06 0 1.09521e-05 -8.47894e-06 0 9.85098e-06 -8.48013e-06 0 8.80266e-06 -8.35384e-06 0 7.8273e-06 -8.12306e-06 0 6.93677e-06 -7.81251e-06 0 7.23443e-06 6.994e-06 0 8.0601e-06 7.22714e-06 0 8.94951e-06 7.38882e-06 0 9.89144e-06 7.46099e-06 0 1.0869e-05 7.42749e-06 0 1.18604e-05 7.27593e-06 0 1.28404e-05 7.00064e-06 0 1.37831e-05 6.60243e-06 0 1.46642e-05 6.08723e-06 0 1.54635e-05 5.47012e-06 0 1.61654e-05 4.76487e-06 0 1.67592e-05 3.98794e-06 0 1.72384e-05 3.15525e-06 0 1.75993e-05 2.28145e-06 0 1.78404e-05 1.37968e-06 0 1.79609e-05 4.61679e-07 0 1.79609e-05 -4.61679e-07 0 1.78404e-05 -1.37968e-06 0 1.75993e-05 -2.28145e-06 0 1.72384e-05 -3.15525e-06 0 1.67592e-05 -3.98794e-06 0 1.61654e-05 -4.76487e-06 0 1.54635e-05 -5.47012e-06 0 1.46642e-05 -6.08723e-06 0 1.37831e-05 -6.60243e-06 0 1.28404e-05 -7.00064e-06 0 1.18604e-05 -7.27593e-06 0 1.0869e-05 -7.42749e-06 0 9.89144e-06 -7.46099e-06 0 8.94951e-06 -7.38882e-06 0 8.0601e-06 -7.22714e-06 0 7.23443e-06 -6.994e-06 0 7.46719e-06 6.22866e-06 0 8.23337e-06 6.4027e-06 0 9.04717e-06 6.51369e-06 0 9.89836e-06 6.54828e-06 0 1.07728e-05 6.49483e-06 0 1.16532e-05 6.34451e-06 0 1.25198e-05 6.09332e-06 0 1.33526e-05 5.74171e-06 0 1.41324e-05 5.29349e-06 0 1.48425e-05 4.75968e-06 0 1.54694e-05 4.15023e-06 0 1.60029e-05 3.4777e-06 0 1.64358e-05 2.75484e-06 0 1.67634e-05 1.994e-06 0 1.69831e-05 1.20676e-06 0 1.70932e-05 4.03977e-07 0 1.70932e-05 -4.03977e-07 0 1.69831e-05 -1.20676e-06 0 1.67634e-05 -1.994e-06 0 1.64358e-05 -2.75484e-06 0 1.60029e-05 -3.4777e-06 0 1.54694e-05 -4.15023e-06 0 1.48425e-05 -4.75968e-06 0 1.41324e-05 -5.29349e-06 0 1.33526e-05 -5.74171e-06 0 1.25198e-05 -6.09332e-06 0 1.16532e-05 -6.34451e-06 0 1.07728e-05 -6.49483e-06 0 9.89836e-06 -6.54828e-06 0 9.04717e-06 -6.51369e-06 0 8.23337e-06 -6.4027e-06 0 7.46719e-06 -6.22866e-06 0 7.64252e-06 5.51252e-06 0 8.35584e-06 5.64148e-06 0 9.10479e-06 5.71542e-06 0 9.88016e-06 5.72435e-06 0 1.067e-05 5.6597e-06 0 1.14602e-05 5.51504e-06 0 1.2235e-05 5.2875e-06 0 1.29782e-05 4.97733e-06 0 1.36744e-05 4.58712e-06 0 1.43097e-05 4.12514e-06 0 1.48722e-05 3.59876e-06 0 1.53527e-05 3.01771e-06 0 1.5744e-05 2.39227e-06 0 1.60412e-05 1.73274e-06 0 1.6241e-05 1.04918e-06 0 1.63413e-05 3.51322e-07 0 1.63413e-05 -3.51322e-07 0 1.6241e-05 -1.04918e-06 0 1.60412e-05 -1.73274e-06 0 1.5744e-05 -2.39227e-06 0 1.53527e-05 -3.01771e-06 0 1.48722e-05 -3.59876e-06 0 1.43097e-05 -4.12514e-06 0 1.36744e-05 -4.58712e-06 0 1.29782e-05 -4.97733e-06 0 1.2235e-05 -5.2875e-06 0 1.14602e-05 -5.51504e-06 0 1.067e-05 -5.6597e-06 0 9.88016e-06 -5.72435e-06 0 9.10479e-06 -5.71542e-06 0 8.35584e-06 -5.64148e-06 0 7.64252e-06 -5.51252e-06 0 7.77555e-06 4.84072e-06 0 8.44234e-06 4.93532e-06 0 9.13562e-06 4.98237e-06 0 9.84716e-06 4.97431e-06 0 1.05667e-05 4.90475e-06 0 1.12826e-05 4.76893e-06 0 1.19817e-05 4.56476e-06 0 1.2651e-05 4.29243e-06 0 1.32776e-05 3.95375e-06 0 1.38498e-05 3.55506e-06 0 1.43573e-05 3.10195e-06 0 1.47918e-05 2.60205e-06 0 1.51465e-05 2.06366e-06 0 1.54165e-05 1.49535e-06 0 1.55983e-05 9.05732e-07 0 1.56897e-05 3.03342e-07 0 1.56897e-05 -3.03342e-07 0 1.55983e-05 -9.05732e-07 0 1.54165e-05 -1.49535e-06 0 1.51465e-05 -2.06366e-06 0 1.47918e-05 -2.60205e-06 0 1.43573e-05 -3.10195e-06 0 1.38498e-05 -3.55506e-06 0 1.32776e-05 -3.95375e-06 0 1.2651e-05 -4.29243e-06 0 1.19817e-05 -4.56476e-06 0 1.12826e-05 -4.76893e-06 0 1.05667e-05 -4.90475e-06 0 9.84716e-06 -4.97431e-06 0 9.13562e-06 -4.98237e-06 0 8.44234e-06 -4.93532e-06 0 7.77555e-06 -4.84072e-06 0 7.8779e-06 4.20832e-06 0 8.50382e-06 4.27687e-06 0 9.14908e-06 4.30475e-06 0 9.80632e-06 4.28619e-06 0 1.04667e-05 4.21637e-06 0 1.11203e-05 4.09173e-06 0 1.17562e-05 3.91075e-06 0 1.23635e-05 3.67359e-06 0 1.29315e-05 3.38157e-06 0 1.34502e-05 3.03963e-06 0 1.39106e-05 2.65207e-06 0 1.43052e-05 2.22495e-06 0 1.46278e-05 1.76496e-06 0 1.48738e-05 1.27921e-06 0 1.50396e-05 7.74959e-07 0 1.5123e-05 2.59572e-07 0 1.5123e-05 -2.59572e-07 0 1.50396e-05 -7.74959e-07 0 1.48738e-05 -1.27921e-06 0 1.46278e-05 -1.76496e-06 0 1.43052e-05 -2.22495e-06 0 1.39106e-05 -2.65207e-06 0 1.34502e-05 -3.03963e-06 0 1.29315e-05 -3.38157e-06 0 1.23635e-05 -3.67359e-06 0 1.17562e-05 -3.91075e-06 0 1.11203e-05 -4.09173e-06 0 1.04667e-05 -4.21637e-06 0 9.80632e-06 -4.28619e-06 0 9.14908e-06 -4.30475e-06 0 8.50382e-06 -4.27687e-06 0 7.8779e-06 -4.20832e-06 0 7.95177e-06 3.61029e-06 0 8.54327e-06 3.65923e-06 0 9.14879e-06 3.6738e-06 0 9.76167e-06 3.6496e-06 0 1.03741e-05 3.58297e-06 0 1.09776e-05 3.47124e-06 0 1.15627e-05 3.31331e-06 0 1.21202e-05 3.1093e-06 0 1.26409e-05 2.86023e-06 0 1.3116e-05 2.56998e-06 0 1.35377e-05 2.24189e-06 0 1.38994e-05 1.88077e-06 0 1.41953e-05 1.49204e-06 0 1.4421e-05 1.0815e-06 0 1.45733e-05 6.55251e-07 0 1.465e-05 2.19488e-07 0 1.465e-05 -2.19488e-07 0 1.45733e-05 -6.55251e-07 0 1.4421e-05 -1.0815e-06 0 1.41953e-05 -1.49204e-06 0 1.38994e-05 -1.88077e-06 0 1.35377e-05 -2.24189e-06 0 1.3116e-05 -2.56998e-06 0 1.26409e-05 -2.86023e-06 0 1.21202e-05 -3.1093e-06 0 1.15627e-05 -3.31331e-06 0 1.09776e-05 -3.47124e-06 0 1.03741e-05 -3.58297e-06 0 9.76167e-06 -3.6496e-06 0 9.14879e-06 -3.6738e-06 0 8.54327e-06 -3.65923e-06 0 7.95177e-06 -3.61029e-06 0 8.00755e-06 3.04171e-06 0 8.56967e-06 3.07601e-06 0 9.14164e-06 3.08175e-06 0 9.71739e-06 3.05558e-06 0 1.029e-05 2.99472e-06 0 1.08519e-05 2.89717e-06 0 1.1395e-05 2.76213e-06 0 1.19113e-05 2.58974e-06 0 1.23926e-05 2.38075e-06 0 1.28314e-05 2.13824e-06 0 1.32208e-05 1.8648e-06 0 1.35547e-05 1.56424e-06 0 1.3828e-05 1.24089e-06 0 1.40366e-05 8.99479e-07 0 1.41773e-05 5.44985e-07 0 1.42482e-05 1.82557e-07 0 1.42482e-05 -1.82557e-07 0 1.41773e-05 -5.44985e-07 0 1.40366e-05 -8.99479e-07 0 1.3828e-05 -1.24089e-06 0 1.35547e-05 -1.56424e-06 0 1.32208e-05 -1.8648e-06 0 1.28314e-05 -2.13824e-06 0 1.23926e-05 -2.38075e-06 0 1.19113e-05 -2.58974e-06 0 1.1395e-05 -2.76213e-06 0 1.08519e-05 -2.89717e-06 0 1.029e-05 -2.99472e-06 0 9.71739e-06 -3.05558e-06 0 9.14164e-06 -3.08175e-06 0 8.56967e-06 -3.07601e-06 0 8.00755e-06 -3.04171e-06 0 8.04837e-06 2.49798e-06 0 8.58615e-06 2.52149e-06 0 9.13058e-06 2.52184e-06 0 9.67606e-06 2.49647e-06 0 1.02164e-05 2.44332e-06 0 1.07447e-05 2.3609e-06 0 1.12539e-05 2.24862e-06 0 1.17369e-05 2.10662e-06 0 1.21864e-05 1.93548e-06 0 1.25958e-05 1.7376e-06 0 1.29589e-05 1.51498e-06 0 1.32702e-05 1.2706e-06 0 1.35249e-05 1.00787e-06 0 1.37193e-05 7.30548e-07 0 1.38505e-05 4.4263e-07 0 1.39166e-05 1.48271e-07 0 1.39166e-05 -1.48271e-07 0 1.38505e-05 -4.4263e-07 0 1.37193e-05 -7.30548e-07 0 1.35249e-05 -1.00787e-06 0 1.32702e-05 -1.2706e-06 0 1.29589e-05 -1.51498e-06 0 1.25958e-05 -1.7376e-06 0 1.21864e-05 -1.93548e-06 0 1.17369e-05 -2.10662e-06 0 1.12539e-05 -2.24862e-06 0 1.07447e-05 -2.3609e-06 0 1.02164e-05 -2.44332e-06 0 9.67606e-06 -2.49647e-06 0 9.13058e-06 -2.52184e-06 0 8.58615e-06 -2.52149e-06 0 8.04837e-06 -2.49798e-06 0 8.07687e-06 1.97452e-06 0 8.59541e-06 1.99018e-06 0 9.11824e-06 1.9877e-06 0 9.64014e-06 1.96521e-06 0 1.01554e-05 1.9212e-06 0 1.06577e-05 1.85458e-06 0 1.11408e-05 1.76494e-06 0 1.1598e-05 1.65239e-06 0 1.2023e-05 1.51738e-06 0 1.24096e-05 1.36174e-06 0 1.27522e-05 1.18696e-06 0 1.30458e-05 9.95328e-07 0 1.3286e-05 7.8944e-07 0 1.34693e-05 5.7219e-07 0 1.35931e-05 3.46674e-07 0 1.36554e-05 1.16127e-07 0 1.36554e-05 -1.16127e-07 0 1.35931e-05 -3.46674e-07 0 1.34693e-05 -5.7219e-07 0 1.3286e-05 -7.8944e-07 0 1.30458e-05 -9.95328e-07 0 1.27522e-05 -1.18696e-06 0 1.24096e-05 -1.36174e-06 0 1.2023e-05 -1.51738e-06 0 1.1598e-05 -1.65239e-06 0 1.11408e-05 -1.76494e-06 0 1.06577e-05 -1.85458e-06 0 1.01554e-05 -1.9212e-06 0 9.64014e-06 -1.96521e-06 0 9.11824e-06 -1.9877e-06 0 8.59541e-06 -1.99018e-06 0 8.07687e-06 -1.97452e-06 0 8.09711e-06 1.46708e-06 0 8.60063e-06 1.47705e-06 0 9.10669e-06 1.47366e-06 0 9.61035e-06 1.45557e-06 0 1.01062e-05 1.42174e-06 0 1.05886e-05 1.3714e-06 0 1.10515e-05 1.30427e-06 0 1.1489e-05 1.22047e-06 0 1.1895e-05 1.12029e-06 0 1.22641e-05 1.00507e-06 0 1.2591e-05 8.75873e-07 0 1.28709e-05 7.34351e-07 0 1.30999e-05 5.82391e-07 0 1.32746e-05 4.22095e-07 0 1.33925e-05 2.55728e-07 0 1.34519e-05 8.5661e-08 0 1.34519e-05 -8.5661e-08 0 1.33925e-05 -2.55728e-07 0 1.32746e-05 -4.22095e-07 0 1.30999e-05 -5.82391e-07 0 1.28709e-05 -7.34351e-07 0 1.2591e-05 -8.75873e-07 0 1.22641e-05 -1.00507e-06 0 1.1895e-05 -1.12029e-06 0 1.1489e-05 -1.22047e-06 0 1.10515e-05 -1.30427e-06 0 1.05886e-05 -1.3714e-06 0 1.01062e-05 -1.42174e-06 0 9.61035e-06 -1.45557e-06 0 9.10669e-06 -1.47366e-06 0 8.60063e-06 -1.47705e-06 0 8.09711e-06 -1.46708e-06 0 8.10994e-06 9.71547e-07 0 8.60307e-06 9.77378e-07 0 9.09756e-06 9.74408e-07 0 9.5887e-06 9.61793e-07 0 1.00713e-05 9.38862e-07 0 1.054e-05 9.05132e-07 0 1.09892e-05 8.60438e-07 0 1.14131e-05 8.04847e-07 0 1.18063e-05 7.38564e-07 0 1.21633e-05 6.62448e-07 0 1.24794e-05 5.77199e-07 0 1.275e-05 4.83878e-07 0 1.29712e-05 3.83718e-07 0 1.314e-05 2.78091e-07 0 1.32539e-05 1.68477e-07 0 1.33113e-05 5.64341e-08 0 1.33113e-05 -5.64341e-08 0 1.32539e-05 -1.68477e-07 0 1.314e-05 -2.78091e-07 0 1.29712e-05 -3.83718e-07 0 1.275e-05 -4.83878e-07 0 1.24794e-05 -5.77199e-07 0 1.21633e-05 -6.62448e-07 0 1.18063e-05 -7.38564e-07 0 1.14131e-05 -8.04847e-07 0 1.09892e-05 -8.60438e-07 0 1.054e-05 -9.05132e-07 0 1.00713e-05 -9.38862e-07 0 9.5887e-06 -9.61793e-07 0 9.09756e-06 -9.74408e-07 0 8.60307e-06 -9.77378e-07 0 8.10994e-06 -9.71547e-07 0 8.11713e-06 4.8381e-07 0 8.60408e-06 4.86483e-07 0 9.09172e-06 4.84789e-07 0 9.57544e-06 4.78317e-07 0 1.00502e-05 4.6674e-07 0 1.05109e-05 4.49826e-07 0 1.09519e-05 4.27496e-07 0 1.13679e-05 3.99784e-07 0 1.17534e-05 3.66793e-07 0 1.21034e-05 3.28944e-07 0 1.24131e-05 2.86582e-07 0 1.26781e-05 2.4023e-07 0 1.28948e-05 1.90494e-07 0 1.30601e-05 1.38051e-07 0 1.31716e-05 8.36348e-08 0 1.32278e-05 2.80145e-08 0 1.32278e-05 -2.80145e-08 0 1.31716e-05 -8.36348e-08 0 1.30601e-05 -1.38051e-07 0 1.28948e-05 -1.90494e-07 0 1.26781e-05 -2.4023e-07 0 1.24131e-05 -2.86582e-07 0 1.21034e-05 -3.28944e-07 0 1.17534e-05 -3.66793e-07 0 1.13679e-05 -3.99784e-07 0 1.09519e-05 -4.27496e-07 0 1.05109e-05 -4.49826e-07 0 1.00502e-05 -4.6674e-07 0 9.57544e-06 -4.78317e-07 0 9.09172e-06 -4.84789e-07 0 8.60408e-06 -4.86483e-07 0 8.11713e-06 -4.8381e-07 0 8.11975e-06 -0 0 8.60438e-06 -0 0 9.08945e-06 -0 0 9.57038e-06 -0 0 1.00423e-05 -0 0 1.04999e-05 -0 0 1.09378e-05 -0 0 1.13508e-05 -0 0 1.17335e-05 -0 0 1.20808e-05 -0 0 1.23881e-05 -0 0 1.26511e-05 -0 0 1.28661e-05 -0 0 1.303e-05 -0 0 1.31407e-05 -0 0 1.31964e-05 -0 0 1.31964e-05 -0 0 1.31407e-05 -0 0 1.303e-05 -0 0 1.28661e-05 -0 0 1.26511e-05 -0 0 1.23881e-05 -0 0 1.20808e-05 -0 0 1.17335e-05 -0 0 1.13508e-05 -0 0 1.09378e-05 -0 0 1.04999e-05 -0 0 1.00423e-05 -0 0 9.57038e-06 -0 0 9.08945e-06 -0 0 8.60438e-06 -0 0 8.11975e-06 -0 0 </DataArray> 
</PointData> 
<Points> 
<DataArray type="Float32" NumberOfComponents="3"> 