<?xml version="1.0"?> 
<VTKFile type="StructuredGrid" version="0.1"> 
<StructuredGrid WholeExtent="0 31 0 31 0 0"> 
<Piece Extent="0 31 0 31 0 0"> 
<PointData>
<DataArray type="Float32" Name="B" format="ascii" NumberOfComponents="3"> 
0 -0 0 1.91571e-07 -0 0 3.84527e-07 -0 0 5.80227e-07 -0 0 7.80092e-07 -0 0 9.85524e-07 -0 0 1.19795e-06 -0 0 1.41887e-06 -0 0 1.64975e-06 -0 0 1.89214e-06 -0 0 2.14763e-06 -0 0 2.41781e-06 -0 0 2.70434e-06 -0 0 3.00888e-06 -0 0 3.33311e-06 -0 0 3.67875e-06 -0 0 4.04746e-06 -0 0 4.44087e-06 -0 0 4.86057e-06 -0 0 5.30798e-06 -0 0 5.78442e-06 -0 0 6.29097e-06 -0 0 6.82843e-06 -0 0 7.39728e-06 -0 0 7.99755e-06 -0 0 8.62877e-06 -0 0 9.2899e-06 -0 0 9.97921e-06 -0 0 1.06942e-05 -0 0 1.14317e-05 -0 0 1.21875e-05 -0 0 1.29567e-05 -0 0 0 -1.90997e-07 0 1.90799e-07 -1.91769e-07 0 3.82979e-07 -1.93815e-07 0 5.77896e-07 -1.97238e-07 0 7.76967e-07 -2.02141e-07 0 9.81591e-07 -2.08363e-07 0 1.19319e-06 -2.16125e-07 0 1.41327e-06 -2.25352e-07 0 1.64328e-06 -2.35992e-07 0 1.88479e-06 -2.48372e-07 0 2.13938e-06 -2.62227e-07 0 2.40863e-06 -2.7771e-07 0 2.69422e-06 -2.94936e-07 0 2.99781e-06 -3.13721e-07 0 3.32108e-06 -3.34317e-07 0 3.66578e-06 -3.56575e-07 0 4.03356e-06 -3.80395e-07 0 4.42609e-06 -4.06011e-07 0 4.84497e-06 -4.33035e-07 0 5.29164e-06 -4.61461e-07 0 5.76747e-06 -4.91153e-07 0 6.27355e-06 -5.21748e-07 0 6.81074e-06 -5.53054e-07 0 7.37956e-06 -5.84625e-07 0 7.98008e-06 -6.16023e-07 0 8.61188e-06 -6.4669e-07 0 9.27397e-06 -6.75999e-07 0 9.96466e-06 -7.03245e-07 0 1.06815e-05 -7.27636e-07 0 1.14213e-05 -7.48348e-07 0 1.21799e-05 -7.64519e-07 0 1.29524e-05 -7.75283e-07 0 0 -3.80614e-07 0 1.88758e-07 -3.82153e-07 0 3.78887e-07 -3.86235e-07 0 5.71734e-07 -3.93065e-07 0 7.68706e-07 -4.02849e-07 0 9.71195e-07 -4.15265e-07 0 1.18062e-06 -4.30757e-07 0 1.39846e-06 -4.49176e-07 0 1.62619e-06 -4.70418e-07 0 1.86536e-06 -4.95139e-07 0 2.11755e-06 -5.22813e-07 0 2.38434e-06 -5.53746e-07 0 2.66744e-06 -5.88174e-07 0 2.96851e-06 -6.25731e-07 0 3.28925e-06 -6.66926e-07 0 3.63144e-06 -7.11467e-07 0 3.99676e-06 -7.59159e-07 0 4.38693e-06 -8.1048e-07 0 4.80361e-06 -8.64657e-07 0 5.24831e-06 -9.2169e-07 0 5.72247e-06 -9.81317e-07 0 6.2273e-06 -1.04281e-06 0 6.76374e-06 -1.10581e-06 0 7.33242e-06 -1.16942e-06 0 7.93357e-06 -1.23276e-06 0 8.56687e-06 -1.29473e-06 0 9.23146e-06 -1.35407e-06 0 9.92577e-06 -1.40935e-06 0 1.06475e-05 -1.45897e-06 0 1.13933e-05 -1.50127e-06 0 1.21594e-05 -1.53449e-06 0 1.29405e-05 -1.55687e-06 0 0 -5.67507e-07 0 1.85365e-07 -5.69807e-07 0 3.72084e-07 -5.75905e-07 0 5.61488e-07 -5.86109e-07 0 7.5497e-07 -6.00731e-07 0 9.53905e-07 -6.19285e-07 0 1.1597e-06 -6.42443e-07 0 1.37383e-06 -6.69982e-07 0 1.59775e-06 -7.0175e-07 0 1.83301e-06 -7.38735e-07 0 2.08119e-06 -7.80152e-07 0 2.34389e-06 -8.26468e-07 0 2.62282e-06 -8.78047e-07 0 2.91965e-06 -9.34344e-07 0 3.23615e-06 -9.9614e-07 0 3.5741e-06 -1.06301e-06 0 3.93527e-06 -1.13466e-06 0 4.32145e-06 -1.21186e-06 0 4.73438e-06 -1.29344e-06 0 5.1757e-06 -1.37943e-06 0 5.64698e-06 -1.46946e-06 0 6.14958e-06 -1.56245e-06 0 6.68464e-06 -1.6579e-06 0 7.25298e-06 -1.75446e-06 0 7.85502e-06 -1.85084e-06 0 8.49069e-06 -1.94537e-06 0 9.15932e-06 -2.03616e-06 0 9.85955e-06 -2.12104e-06 0 1.05892e-05 -2.19759e-06 0 1.13453e-05 -2.26323e-06 0 1.21237e-05 -2.31527e-06 0 1.29194e-05 -2.35098e-06 0 0 -7.50299e-07 0 1.80552e-07 -7.53349e-07 0 3.62435e-07 -7.61433e-07 0 5.46954e-07 -7.74962e-07 0 7.3548e-07 -7.94351e-07 0 9.29369e-07 -8.1896e-07 0 1.13e-06 -8.49682e-07 0 1.33885e-06 -8.8623e-07 0 1.55735e-06 -9.28405e-07 0 1.78704e-06 -9.7753e-07 0 2.0295e-06 -1.03257e-06 0 2.28634e-06 -1.09416e-06 0 2.55928e-06 -1.1628e-06 0 2.85004e-06 -1.23778e-06 0 3.1604e-06 -1.32017e-06 0 3.49223e-06 -1.40941e-06 0 3.84737e-06 -1.50515e-06 0 4.22771e-06 -1.60846e-06 0 4.63513e-06 -1.7178e-06 0 5.07142e-06 -1.83325e-06 0 5.53837e-06 -1.95438e-06 0 6.03754e-06 -2.07975e-06 0 6.57033e-06 -2.20877e-06 0 7.13786e-06 -2.33967e-06 0 7.74085e-06 -2.47071e-06 0 8.37957e-06 -2.59972e-06 0 9.05366e-06 -2.72413e-06 0 9.76208e-06 -2.84104e-06 0 1.05029e-05 -2.94711e-06 0 1.12733e-05 -3.03884e-06 0 1.20694e-05 -3.11247e-06 0 1.28862e-05 -3.16421e-06 0 0 -9.27671e-07 0 1.74517e-07 -9.31454e-07 0 3.50334e-07 -9.41484e-07 0 5.28726e-07 -9.5827e-07 0 7.11033e-07 -9.82332e-07 0 8.98583e-07 -1.01288e-06 0 1.09274e-06 -1.05103e-06 0 1.29493e-06 -1.09643e-06 0 1.5066e-06 -1.14884e-06 0 1.72926e-06 -1.20994e-06 0 1.9645e-06 -1.27843e-06 0 2.21392e-06 -1.35513e-06 0 2.47926e-06 -1.4407e-06 0 2.76228e-06 -1.53426e-06 0 3.06481e-06 -1.6372e-06 0 3.38879e-06 -1.74885e-06 0 3.73615e-06 -1.86882e-06 0 4.10892e-06 -1.99852e-06 0 4.50914e-06 -2.13604e-06 0 4.9388e-06 -2.28158e-06 0 5.39991e-06 -2.43469e-06 0 5.89436e-06 -2.59357e-06 0 6.42384e-06 -2.75764e-06 0 6.98987e-06 -2.92468e-06 0 7.59356e-06 -3.09256e-06 0 8.23562e-06 -3.2586e-06 0 8.91615e-06 -3.41958e-06 0 9.63449e-06 -3.57178e-06 0 1.03892e-05 -3.71096e-06 0 1.11776e-05 -3.83254e-06 0 1.1996e-05 -3.93161e-06 0 1.28394e-05 -4.00314e-06 0 0 -1.09833e-06 0 1.67114e-07 -1.10282e-06 0 3.35488e-07 -1.11475e-06 0 5.06358e-07 -1.1347e-06 0 6.81027e-07 -1.16332e-06 0 8.60784e-07 -1.19965e-06 0 1.04696e-06 -1.24505e-06 0 1.24096e-06 -1.2991e-06 0 1.44419e-06 -1.36154e-06 0 1.65816e-06 -1.43437e-06 0 1.88443e-06 -1.51608e-06 0 2.12462e-06 -1.60768e-06 0 2.38049e-06 -1.70997e-06 0 2.65381e-06 -1.82196e-06 0 2.94648e-06 -1.94536e-06 0 3.26052e-06 -2.07942e-06 0 3.59797e-06 -2.22372e-06 0 3.96101e-06 -2.3801e-06 0 4.35187e-06 -2.54628e-06 0 4.77277e-06 -2.72263e-06 0 5.22605e-06 -2.90874e-06 0 5.71392e-06 -3.10247e-06 0 6.2385e-06 -3.30337e-06 0 6.80179e-06 -3.50877e-06 0 7.40544e-06 -3.71617e-06 0 8.0507e-06 -3.92245e-06 0 8.73829e-06 -4.12372e-06 0 9.46815e-06 -4.31544e-06 0 1.02393e-05 -4.49235e-06 0 1.10496e-05 -4.6487e-06 0 1.18957e-05 -4.77828e-06 0 1.27726e-05 -4.87463e-06 0 0 -1.26098e-06 0 1.58478e-07 -1.26616e-06 0 3.18167e-07 -1.27991e-06 0 4.80257e-07 -1.30293e-06 0 6.46001e-07 -1.33595e-06 0 8.16647e-07 -1.37789e-06 0 9.93481e-07 -1.4303e-06 0 1.17787e-06 -1.49275e-06 0 1.37119e-06 -1.56493e-06 0 1.57492e-06 -1.64919e-06 0 1.79062e-06 -1.74382e-06 0 2.01989e-06 -1.85e-06 0 2.26449e-06 -1.96875e-06 0 2.52624e-06 -2.09892e-06 0 2.80709e-06 -2.24261e-06 0 3.10913e-06 -2.39902e-06 0 3.43453e-06 -2.56772e-06 0 3.78564e-06 -2.75102e-06 0 4.16489e-06 -2.94633e-06 0 4.57478e-06 -3.15424e-06 0 5.01799e-06 -3.37448e-06 0 5.49715e-06 -3.60458e-06 0 6.01487e-06 -3.84435e-06 0 6.57375e-06 -4.09069e-06 0 7.17606e-06 -4.34081e-06 0 7.82382e-06 -4.59122e-06 0 8.51848e-06 -4.83733e-06 0 9.26077e-06 -5.07378e-06 0 1.00505e-05 -5.29424e-06 0 1.08861e-05 -5.49166e-06 0 1.17647e-05 -5.65831e-06 0 1.26815e-05 -5.78602e-06 0 0 -1.41442e-06 0 1.48722e-07 -1.42027e-06 0 2.98598e-07 -1.43577e-06 0 4.50761e-07 -1.46172e-06 0 6.06409e-07 -1.49895e-06 0 7.66737e-07 -1.54626e-06 0 9.3298e-07 -1.60542e-06 0 1.10646e-06 -1.67595e-06 0 1.2885e-06 -1.75752e-06 0 1.48056e-06 -1.85284e-06 0 1.68416e-06 -1.95999e-06 0 1.90089e-06 -2.08037e-06 0 2.13252e-06 -2.2152e-06 0 2.38089e-06 -2.36321e-06 0 2.64798e-06 -2.52693e-06 0 2.93599e-06 -2.7055e-06 0 3.24719e-06 -2.89854e-06 0 3.5841e-06 -3.10896e-06 0 3.94938e-06 -3.33379e-06 0 4.34583e-06 -3.57401e-06 0 4.77651e-06 -3.82952e-06 0 5.24451e-06 -4.09759e-06 0 5.75302e-06 -4.37845e-06 0 6.30532e-06 -4.66863e-06 0 6.90446e-06 -4.96511e-06 0 7.55334e-06 -5.26414e-06 0 8.25439e-06 -5.56048e-06 0 9.00934e-06 -5.84793e-06 0 9.81894e-06 -6.11904e-06 0 1.06826e-05 -6.36531e-06 0 1.15981e-05 -6.57726e-06 0 1.2561e-05 -6.74469e-06 0 0 -1.55748e-06 0 1.37688e-07 -1.56394e-06 0 2.76461e-07 -1.5811e-06 0 4.17386e-07 -1.60983e-06 0 5.61595e-07 -1.65106e-06 0 7.10215e-07 -1.70347e-06 0 8.64419e-07 -1.76905e-06 0 1.02547e-06 -1.84728e-06 0 1.19464e-06 -1.93782e-06 0 1.37333e-06 -2.04374e-06 0 1.56302e-06 -2.16291e-06 0 1.76528e-06 -2.29699e-06 0 1.98187e-06 -2.44739e-06 0 2.21462e-06 -2.61277e-06 0 2.46556e-06 -2.79609e-06 0 2.73694e-06 -2.99652e-06 0 3.03116e-06 -3.21371e-06 0 3.35088e-06 -3.45125e-06 0 3.69902e-06 -3.7059e-06 0 4.07868e-06 -3.97903e-06 0 4.49332e-06 -4.27091e-06 0 4.94655e-06 -4.57856e-06 0 5.44223e-06 -4.90282e-06 0 5.98442e-06 -5.23996e-06 0 6.57713e-06 -5.58682e-06 0 7.22437e-06 -5.93954e-06 0 7.92978e-06 -6.29234e-06 0 8.69646e-06 -6.6382e-06 0 9.52653e-06 -6.96851e-06 0 1.04207e-05 -7.2732e-06 0 1.13779e-05 -7.54076e-06 0 1.23943e-05 -7.75853e-06 0 0 -1.68903e-06 0 1.25661e-07 -1.69608e-06 0 2.52328e-07 -1.71478e-06 0 3.80995e-07 -1.74611e-06 0 5.12712e-07 -1.79109e-06 0 6.48534e-07 -1.84828e-06 0 7.89561e-07 -1.91989e-06 0 9.36978e-07 -2.00536e-06 0 1.092e-06 -2.10436e-06 0 1.25595e-06 -2.22031e-06 0 1.43027e-06 -2.35092e-06 0 1.61648e-06 -2.49805e-06 0 1.81629e-06 -2.66338e-06 0 2.03155e-06 -2.84548e-06 0 2.26428e-06 -3.04782e-06 0 2.51679e-06 -3.26958e-06 0 2.79157e-06 -3.51053e-06 0 3.09142e-06 -3.77501e-06 0 3.4195e-06 -4.05953e-06 0 3.77919e-06 -4.366e-06 0 4.17439e-06 -4.69516e-06 0 4.60926e-06 -5.04385e-06 0 5.08835e-06 -5.41382e-06 0 5.61663e-06 -5.80111e-06 0 6.19917e-06 -6.20261e-06 0 6.84128e-06 -6.61461e-06 0 7.54813e-06 -7.03087e-06 0 8.32447e-06 -7.44371e-06 0 9.17422e-06 -7.84337e-06 0 1.00999e-05 -8.21807e-06 0 1.11019e-05 -8.55402e-06 0 1.2178e-05 -8.83561e-06 0 0 -1.80806e-06 0 1.12635e-07 -1.81565e-06 0 2.26189e-07 -1.83578e-06 0 3.41567e-07 -1.8695e-06 0 4.59732e-07 -1.91793e-06 0 5.81651e-07 -1.97954e-06 0 7.08339e-07 -2.05673e-06 0 8.40892e-07 -2.14892e-06 0 9.80444e-07 -2.25579e-06 0 1.12825e-06 -2.38109e-06 0 1.28565e-06 -2.52239e-06 0 1.45412e-06 -2.68181e-06 0 1.63531e-06 -2.86125e-06 0 1.83103e-06 -3.05926e-06 0 2.04329e-06 -3.27981e-06 0 2.27443e-06 -3.52214e-06 0 2.52697e-06 -3.78618e-06 0 2.80385e-06 -4.07714e-06 0 3.10841e-06 -4.39129e-06 0 3.44432e-06 -4.73121e-06 0 3.8159e-06 -5.09826e-06 0 4.22785e-06 -5.4892e-06 0 4.68545e-06 -5.90695e-06 0 5.19466e-06 -6.3475e-06 0 5.76174e-06 -6.80799e-06 0 6.39354e-06 -7.28517e-06 0 7.097e-06 -7.77258e-06 0 7.87901e-06 -8.26205e-06 0 8.74582e-06 -8.74283e-06 0 9.70243e-06 -9.20143e-06 0 1.07517e-05 -9.62148e-06 0 1.18931e-05 -9.98386e-06 0 0 -1.91359e-06 0 9.86542e-08 -1.92167e-06 0 1.98127e-07 -1.94308e-06 0 2.99228e-07 -1.97897e-06 0 4.02818e-07 -2.03053e-06 0 5.09765e-07 -2.09614e-06 0 6.20983e-07 -2.17838e-06 0 7.37467e-07 -2.27669e-06 0 8.60251e-07 -2.39073e-06 0 9.90486e-07 -2.5246e-06 0 1.12943e-06 -2.67574e-06 0 1.27845e-06 -2.84649e-06 0 1.43912e-06 -3.03904e-06 0 1.61317e-06 -3.25191e-06 0 1.80258e-06 -3.48959e-06 0 2.00963e-06 -3.75145e-06 0 2.23688e-06 -4.0376e-06 0 2.48733e-06 -4.35417e-06 0 2.76446e-06 -4.69729e-06 0 3.07215e-06 -5.07033e-06 0 3.41511e-06 -5.47542e-06 0 3.79856e-06 -5.90934e-06 0 4.22851e-06 -6.37653e-06 0 4.71194e-06 -6.8731e-06 0 5.25642e-06 -7.39674e-06 0 5.8705e-06 -7.94506e-06 0 6.56328e-06 -8.51175e-06 0 7.34424e-06 -9.08852e-06 0 8.2227e-06 -9.66394e-06 0 9.20705e-06 -1.02229e-05 0 1.03037e-05 -1.07463e-05 0 1.15154e-05 -1.1211e-05 0 0 -2.00479e-06 0 8.39214e-08 -2.01329e-06 0 1.68553e-07 -2.03584e-06 0 2.54596e-07 -2.07363e-06 0 3.42801e-07 -2.12794e-06 0 4.33925e-07 -2.19708e-06 0 5.28769e-07 -2.28381e-06 0 6.28213e-07 -2.38754e-06 0 7.33175e-07 -2.50796e-06 0 8.44687e-07 -2.64949e-06 0 9.63888e-07 -2.80945e-06 0 1.09203e-06 -2.99043e-06 0 1.23056e-06 -3.19489e-06 0 1.38113e-06 -3.42132e-06 0 1.54559e-06 -3.67479e-06 0 1.72617e-06 -3.95478e-06 0 1.92537e-06 -4.26165e-06 0 2.14622e-06 -4.60253e-06 0 2.39223e-06 -4.97345e-06 0 2.66748e-06 -5.3787e-06 0 2.97695e-06 -5.82134e-06 0 3.32631e-06 -6.2983e-06 0 3.72227e-06 -6.8159e-06 0 4.1728e-06 -7.37061e-06 0 4.68681e-06 -7.96101e-06 0 5.27471e-06 -8.58615e-06 0 5.94801e-06 -9.24033e-06 0 6.71923e-06 -9.91574e-06 0 7.60145e-06 -1.06008e-05 0 8.60749e-06 -1.12792e-05 0 9.74862e-06 -1.19294e-05 0 1.10326e-05 -1.25235e-05 0 0 -2.08089e-06 0 6.84384e-08 -2.08975e-06 0 1.37467e-07 -2.11326e-06 0 2.07672e-07 -2.15268e-06 0 2.79677e-07 -2.20934e-06 0 3.54119e-07 -2.2815e-06 0 4.31672e-07 -2.37206e-06 0 5.13083e-07 -2.48044e-06 0 5.99135e-07 -2.60637e-06 0 6.90719e-07 -2.75451e-06 0 7.88829e-07 -2.92214e-06 0 8.94563e-07 -3.11207e-06 0 1.00923e-06 -3.32699e-06 0 1.1343e-06 -3.56545e-06 0 1.2715e-06 -3.83303e-06 0 1.4229e-06 -4.12939e-06 0 1.5909e-06 -4.45515e-06 0 1.7784e-06 -4.81849e-06 0 1.98891e-06 -5.21543e-06 0 2.22654e-06 -5.65126e-06 0 2.4964e-06 -6.13013e-06 0 2.80452e-06 -6.64928e-06 0 3.15813e-06 -7.21726e-06 0 3.56611e-06 -7.83119e-06 0 4.03864e-06 -8.49098e-06 0 4.58802e-06 -9.19777e-06 0 5.22836e-06 -9.94716e-06 0 5.97571e-06 -1.07326e-05 0 6.84774e-06 -1.15435e-05 0 7.86306e-06 -1.2363e-05 0 9.03987e-06 -1.31675e-05 0 1.03936e-05 -1.39249e-05 0 0 -2.14123e-06 0 5.23825e-08 -2.15039e-06 0 1.05228e-07 -2.17468e-06 0 1.58994e-07 -2.21542e-06 0 2.14174e-07 -2.27398e-06 0 2.71269e-07 -2.3486e-06 0 3.30817e-07 -2.44229e-06 0 3.93415e-07 -2.55448e-06 0 4.59696e-07 -2.68492e-06 0 5.30389e-07 -2.83853e-06 0 6.06314e-07 -3.01253e-06 0 6.88394e-07 -3.20991e-06 0 7.77741e-07 -3.43365e-06 0 8.75628e-07 -3.68231e-06 0 9.83569e-07 -3.96198e-06 0 1.10343e-06 -4.27254e-06 0 1.23739e-06 -4.61487e-06 0 1.38817e-06 -4.99821e-06 0 1.55909e-06 -5.41863e-06 0 1.75417e-06 -5.88252e-06 0 1.97851e-06 -6.39527e-06 0 2.23825e-06 -6.95454e-06 0 2.54098e-06 -7.57149e-06 0 2.89623e-06 -8.24421e-06 0 3.3153e-06 -8.97441e-06 0 3.81225e-06 -9.76607e-06 0 4.40378e-06 -1.0617e-05 0 5.10971e-06 -1.15231e-05 0 5.95297e-06 -1.2476e-05 0 6.95926e-06 -1.346e-05 0 8.1559e-06 -1.44513e-05 0 9.56945e-06 -1.54138e-05 0 0 -2.18532e-06 0 3.58933e-08 -2.1947e-06 0 7.21139e-08 -2.21958e-06 0 1.08987e-07 -2.2613e-06 0 1.46864e-07 -2.3213e-06 0 1.86103e-07 -2.39777e-06 0 2.27093e-07 -2.49382e-06 0 2.7027e-07 -2.60891e-06 0 3.16103e-07 -2.7428e-06 0 3.65137e-07 -2.90061e-06 0 4.17997e-07 -3.07952e-06 0 4.754e-07 -3.28272e-06 0 5.38224e-07 -3.51339e-06 0 6.07497e-07 -3.77016e-06 0 6.84469e-07 -4.05959e-06 0 7.70714e-07 -4.38174e-06 0 8.68112e-07 -4.73778e-06 0 9.79078e-07 -5.13801e-06 0 1.10663e-06 -5.57859e-06 0 1.25448e-06 -6.06706e-06 0 1.42753e-06 -6.61012e-06 0 1.63179e-06 -7.20604e-06 0 1.87491e-06 -7.86885e-06 0 2.16676e-06 -8.59794e-06 0 2.51941e-06 -9.39731e-06 0 2.94835e-06 -1.02747e-05 0 3.47265e-06 -1.1231e-05 0 4.11582e-06 -1.22662e-05 0 4.90635e-06 -1.33759e-05 0 5.87801e-06 -1.45482e-05 0 7.06946e-06 -1.57616e-05 0 8.52238e-06 -1.69792e-05 0 0 -2.21275e-06 0 1.90438e-08 -2.22227e-06 0 3.82729e-08 -2.24753e-06 0 5.78724e-08 -2.2899e-06 0 7.8043e-08 -2.35084e-06 0 9.89936e-08 -2.42852e-06 0 1.20952e-07 -2.52613e-06 0 1.44181e-07 -2.64313e-06 0 1.68968e-07 -2.77932e-06 0 1.95655e-07 -2.93996e-06 0 2.24648e-07 -3.12221e-06 0 2.56422e-07 -3.32943e-06 0 2.91582e-07 -3.56495e-06 0 3.30856e-07 -3.82748e-06 0 3.75158e-07 -4.12397e-06 0 4.2568e-07 -4.45468e-06 0 4.83892e-07 -4.82107e-06 0 5.51743e-07 -5.23437e-06 0 6.31751e-07 -5.69092e-06 0 7.27124e-07 -6.19938e-06 0 8.42208e-07 -6.76782e-06 0 9.82527e-07 -7.39521e-06 0 1.15532e-06 -8.09863e-06 0 1.37028e-06 -8.87911e-06 0 1.63957e-06 -9.74341e-06 0 1.97941e-06 -1.07037e-05 0 2.41048e-06 -1.17654e-05 0 2.95928e-06 -1.29338e-05 0 3.65945e-06 -1.42112e-05 0 4.55312e-06 -1.55929e-05 0 5.69198e-06 -1.70641e-05 0 7.13751e-06 -1.85931e-05 0 0 -2.22328e-06 0 2.02862e-09 -2.23286e-06 0 4.09684e-09 -2.25829e-06 0 6.24529e-09 -2.30094e-06 0 8.52057e-09 -2.36229e-06 0 1.0975e-08 -2.44052e-06 0 1.36709e-08 -2.53884e-06 0 1.66876e-08 -2.65674e-06 0 2.01211e-08 -2.79401e-06 0 2.40985e-08 -2.95602e-06 0 2.87856e-08 -3.13995e-06 0 3.43962e-08 -3.34923e-06 0 4.12269e-08 -3.58734e-06 0 4.96657e-08 -3.85305e-06 0 6.0238e-08 -4.15361e-06 0 7.36771e-08 -4.48945e-06 0 9.09478e-08 -4.86231e-06 0 1.13406e-07 -5.28418e-06 0 1.42899e-07 -5.75165e-06 0 1.81902e-07 -6.27438e-06 0 2.33928e-07 -6.86177e-06 0 3.0364e-07 -7.5136e-06 0 3.97409e-07 -8.24999e-06 0 5.24094e-07 -9.07383e-06 0 6.95284e-07 -9.99503e-06 0 9.26966e-07 -1.10309e-05 0 1.24034e-06 -1.21921e-05 0 1.66369e-06 -1.34914e-05 0 2.23446e-06 -1.49402e-05 0 3.00194e-06 -1.6545e-05 0 4.0305e-06 -1.83042e-05 0 5.40318e-06 -2.02006e-05 0 0 -2.21678e-06 0 -1.50269e-08 -2.22635e-06 0 -3.01621e-08 -2.25172e-06 0 -4.55115e-08 -2.29429e-06 0 -6.11852e-08 -2.35553e-06 0 -7.7291e-08 -2.43362e-06 0 -9.39365e-08 -2.53179e-06 0 -1.11231e-07 -2.64952e-06 0 -1.29277e-07 -2.78662e-06 0 -1.48175e-07 -2.9485e-06 0 -1.68011e-07 -3.13235e-06 0 -1.88854e-07 -3.34164e-06 0 -2.10743e-07 -3.57994e-06 0 -2.33666e-07 -3.84607e-06 0 -2.57539e-07 -4.14745e-06 0 -2.82158e-07 -4.48467e-06 0 -3.07161e-07 -4.85967e-06 0 -3.31919e-07 -5.28499e-06 0 -3.55436e-07 -5.75751e-06 0 -3.76215e-07 -6.28772e-06 0 -3.91911e-07 -6.88617e-06 0 -3.99159e-07 -7.55352e-06 0 -3.93043e-07 -8.31265e-06 0 -3.66305e-07 -9.16852e-06 0 -3.08937e-07 -1.01343e-05 0 -2.06467e-07 -1.12327e-05 0 -3.88193e-08 -1.24808e-05 0 2.21942e-07 -1.38996e-05 0 6.14419e-07 -1.55124e-05 0 1.1918e-06 -1.73408e-05 0 2.02739e-06 -1.94035e-05 0 3.22252e-06 -2.171e-05 0 0 -2.19331e-06 0 -3.197e-08 -2.20277e-06 0 -6.41958e-08 -2.22787e-06 0 -9.69298e-08 -2.26999e-06 0 -1.30439e-07 -2.33058e-06 0 -1.64991e-07 -2.40784e-06 0 -2.00865e-07 -2.50497e-06 0 -2.38361e-07 -2.62146e-06 0 -2.77783e-07 -2.75713e-06 0 -3.19462e-07 -2.91734e-06 0 -3.63747e-07 -3.09931e-06 0 -4.11e-07 -3.30651e-06 0 -4.61614e-07 -3.5425e-06 0 -5.1598e-07 -3.80616e-06 0 -5.74495e-07 -4.10493e-06 0 -6.37543e-07 -4.43952e-06 0 -7.05445e-07 -4.81196e-06 0 -7.78421e-07 -5.23511e-06 0 -8.56497e-07 -5.70609e-06 0 -9.39387e-07 -6.23597e-06 0 -1.02626e-06 -6.8362e-06 0 -1.11552e-06 -7.50821e-06 0 -1.20434e-06 -8.27723e-06 0 -1.28795e-06 -9.15018e-06 0 -1.3591e-06 -1.01434e-05 0 -1.40644e-06 -1.1285e-05 0 -1.41315e-06 -1.25983e-05 0 -1.35455e-06 -1.41139e-05 0 -1.19488e-06 -1.58679e-05 0 -8.82657e-07 -1.79e-05 0 -3.43768e-07 -2.02546e-05 0 5.29703e-07 -2.2979e-05 0 0 -2.15302e-06 0 -4.86795e-08 -2.1623e-06 0 -9.776e-08 -2.18692e-06 0 -1.47638e-07 -2.22822e-06 0 -1.98734e-07 -2.28763e-06 0 -2.51474e-07 -2.36338e-06 0 -3.06307e-07 -2.4586e-06 0 -3.63718e-07 -2.57279e-06 0 -4.24214e-07 -2.70576e-06 0 -4.88355e-07 -2.86275e-06 0 -5.56752e-07 -3.04104e-06 0 -6.30062e-07 -3.24403e-06 0 -7.09035e-07 -3.4752e-06 0 -7.94479e-07 -3.73345e-06 0 -8.87286e-07 -4.02611e-06 0 -9.88462e-07 -4.3539e-06 0 -1.09906e-06 -4.7189e-06 0 -1.22022e-06 -5.13388e-06 0 -1.35312e-06 -5.59624e-06 0 -1.49885e-06 -6.11723e-06 0 -1.65837e-06 -6.70879e-06 0 -1.83222e-06 -7.37304e-06 0 -2.02022e-06 -8.13671e-06 0 -2.2209e-06 -9.00843e-06 0 -2.43083e-06 -1.00073e-05 0 -2.64332e-06 -1.11661e-05 0 -2.84691e-06 -1.25143e-05 0 -3.02307e-06 -1.40913e-05 0 -3.14306e-06 -1.59462e-05 0 -3.16336e-06 -1.8137e-05 0 -3.01893e-06 -2.07353e-05 0 -2.61189e-06 -2.38304e-05 0 0 -2.09626e-06 0 -6.49627e-08 -2.10528e-06 0 -1.30466e-07 -2.1292e-06 0 -1.97045e-07 -2.16932e-06 0 -2.65268e-07 -2.22704e-06 0 -3.35715e-07 -2.30061e-06 0 -4.08992e-07 -2.39307e-06 0 -4.8577e-07 -2.50392e-06 0 -5.66744e-07 -2.63295e-06 0 -6.52697e-07 -2.78523e-06 0 -7.44491e-07 -2.95809e-06 0 -8.43069e-07 -3.15479e-06 0 -9.49529e-07 -3.37865e-06 0 -1.06509e-06 -3.62861e-06 0 -1.19112e-06 -3.91166e-06 0 -1.32927e-06 -4.2285e-06 0 -1.48133e-06 -4.58112e-06 0 -1.64942e-06 -4.98184e-06 0 -1.83591e-06 -5.42822e-06 0 -2.04343e-06 -5.93133e-06 0 -2.27494e-06 -6.50303e-06 0 -2.53347e-06 -7.1459e-06 0 -2.82202e-06 -7.88706e-06 0 -3.14327e-06 -8.73643e-06 0 -3.49878e-06 -9.71498e-06 0 -3.88822e-06 -1.08589e-05 0 -4.30788e-06 -1.22026e-05 0 -4.74871e-06 -1.37933e-05 0 -5.19363e-06 -1.5691e-05 0 -5.61402e-06 -1.79695e-05 0 -5.96505e-06 -2.07233e-05 0 -6.17857e-06 -2.4077e-05 0 0 -2.02349e-06 0 -8.07176e-08 -2.03217e-06 0 -1.62108e-07 -2.05519e-06 0 -2.44838e-07 -2.0938e-06 0 -3.29616e-07 -2.14932e-06 0 -4.17164e-07 -2.22009e-06 0 -5.08242e-07 -2.30898e-06 0 -6.03688e-07 -2.41549e-06 0 -7.04378e-07 -2.53942e-06 0 -8.11299e-07 -2.68556e-06 0 -9.25548e-07 -2.85132e-06 0 -1.04833e-06 -3.03976e-06 0 -1.18107e-06 -3.25397e-06 0 -1.32537e-06 -3.49287e-06 0 -1.48306e-06 -3.76299e-06 0 -1.65638e-06 -4.06489e-06 0 -1.84783e-06 -4.40036e-06 0 -2.06048e-06 -4.78085e-06 0 -2.29792e-06 -5.20402e-06 0 -2.56431e-06 -5.68021e-06 0 -2.8647e-06 -6.22064e-06 0 -3.20481e-06 -6.82795e-06 0 -3.59116e-06 -7.52833e-06 0 -4.03111e-06 -8.33221e-06 0 -4.53213e-06 -9.26127e-06 0 -5.10163e-06 -1.03532e-05 0 -5.74556e-06 -1.16457e-05 0 -6.46692e-06 -1.31912e-05 0 -7.26362e-06 -1.50579e-05 0 -8.12637e-06 -1.73303e-05 0 -9.03696e-06 -2.01174e-05 0 -9.9678e-06 -2.35626e-05 0 0 -1.9353e-06 0 -9.58253e-08 -1.94357e-06 0 -1.92447e-07 -1.9655e-06 0 -2.90653e-07 -2.00228e-06 0 -3.91283e-07 -2.05515e-06 0 -4.9519e-07 -2.12251e-06 0 -6.03274e-07 -2.20707e-06 0 -7.16525e-07 -2.30834e-06 0 -8.35983e-07 -2.42607e-06 0 -9.62818e-07 -2.56475e-06 0 -1.09833e-06 -2.72187e-06 0 -1.24397e-06 -2.90024e-06 0 -1.40145e-06 -3.10264e-06 0 -1.57268e-06 -3.32796e-06 0 -1.75992e-06 -3.5821e-06 0 -1.96593e-06 -3.8654e-06 0 -2.19385e-06 -4.17933e-06 0 -2.44761e-06 -4.53406e-06 0 -2.73191e-06 -4.92726e-06 0 -3.05236e-06 -5.368e-06 0 -3.41607e-06 -5.86617e-06 0 -3.83139e-06 -6.42409e-06 0 -4.30847e-06 -7.06537e-06 0 -4.85967e-06 -7.80001e-06 0 -5.49896e-06 -8.64882e-06 0 -6.24253e-06 -9.64851e-06 0 -7.10757e-06 -1.0838e-05 0 -8.11118e-06 -1.22719e-05 0 -9.26854e-06 -1.4023e-05 0 -1.05913e-05 -1.61816e-05 0 -1.20886e-05 -1.88614e-05 0 -1.37726e-05 -2.22056e-05 0 0 -1.83243e-06 0 -1.10131e-07 -1.84022e-06 0 -2.2117e-07 -1.86089e-06 0 -3.34016e-07 -1.89554e-06 0 -4.49626e-07 -1.94534e-06 0 -5.68971e-07 -2.00875e-06 0 -6.93074e-07 -2.0883e-06 0 -8.23061e-07 -2.18348e-06 0 -9.60109e-07 -2.29404e-06 0 -1.10554e-06 -2.42407e-06 0 -1.26085e-06 -2.57119e-06 0 -1.42765e-06 -2.73788e-06 0 -1.60789e-06 -2.92658e-06 0 -1.80375e-06 -3.13612e-06 0 -2.01783e-06 -3.37164e-06 0 -2.25328e-06 -3.63319e-06 0 -2.51376e-06 -3.92181e-06 0 -2.80389e-06 -4.24604e-06 0 -3.12929e-06 -4.6034e-06 0 -3.49681e-06 -5.00125e-06 0 -3.9153e-06 -5.44742e-06 0 -4.39553e-06 -5.94341e-06 0 -4.95104e-06 -6.50859e-06 0 -5.59911e-06 -7.15131e-06 0 -6.36036e-06 -7.8896e-06 0 -7.26043e-06 -8.75622e-06 0 -8.32907e-06 -9.78815e-06 0 -9.59947e-06 -1.10394e-05 0 -1.1106e-05 -1.25842e-05 0 -1.28811e-05 -1.45158e-05 0 -1.49555e-05 -1.69472e-05 0 -1.73671e-05 -2.00069e-05 0 0 -1.71572e-06 0 -1.23536e-07 -1.72297e-06 0 -2.48081e-07 -1.74222e-06 0 -3.74631e-07 -1.77448e-06 0 -5.04247e-07 -1.82082e-06 0 -6.38001e-07 -1.8798e-06 0 -7.77024e-07 -1.95373e-06 0 -9.22554e-07 -2.0421e-06 0 -1.07588e-06 -2.14462e-06 0 -1.23846e-06 -2.26499e-06 0 -1.41189e-06 -2.40093e-06 0 -1.59796e-06 -2.5546e-06 0 -1.79877e-06 -2.72803e-06 0 -2.01669e-06 -2.91999e-06 0 -2.25453e-06 -3.13477e-06 0 -2.51571e-06 -3.37207e-06 0 -2.80424e-06 -3.63241e-06 0 -3.12519e-06 -3.92244e-06 0 -3.4848e-06 -4.23944e-06 0 -3.89079e-06 -4.58857e-06 0 -4.35329e-06 -4.97504e-06 0 -4.88493e-06 -5.39904e-06 0 -5.502e-06 -5.87398e-06 0 -6.22605e-06 -6.40526e-06 0 -7.08387e-06 -7.00588e-06 0 -8.11052e-06 -7.701e-06 0 -9.34919e-06 -8.52186e-06 0 -1.08515e-05 -9.51778e-06 0 -1.26744e-05 -1.07619e-05 0 -1.48727e-05 -1.23521e-05 0 -1.74906e-05 -1.44061e-05 0 -2.05649e-05 -1.70389e-05 0 0 -1.58611e-06 0 -1.35944e-07 -1.59278e-06 0 -2.72983e-07 -1.61047e-06 0 -4.122e-07 -1.64011e-06 0 -5.54743e-07 -1.68266e-06 0 -7.01772e-07 -1.73679e-06 0 -8.54505e-07 -1.80457e-06 0 -1.01427e-06 -1.8855e-06 0 -1.18244e-06 -1.97926e-06 0 -1.36056e-06 -2.08913e-06 0 -1.55034e-06 -2.21295e-06 0 -1.75363e-06 -2.35252e-06 0 -1.97263e-06 -2.50947e-06 0 -2.20981e-06 -2.6825e-06 0 -2.46807e-06 -2.87501e-06 0 -2.75094e-06 -3.08633e-06 0 -3.06256e-06 -3.31642e-06 0 -3.40816e-06 -3.56985e-06 0 -3.79425e-06 -3.8436e-06 0 -4.22887e-06 -4.14037e-06 0 -4.7228e-06 -4.46228e-06 0 -5.28964e-06 -4.80776e-06 0 -5.94736e-06 -5.18292e-06 0 -6.72039e-06 -5.58877e-06 0 -7.6403e-06 -6.03093e-06 0 -8.7503e-06 -6.52266e-06 0 -1.0107e-05 -7.08409e-06 0 -1.17832e-05 -7.75318e-06 0 -1.38658e-05 -8.59726e-06 0 -1.6443e-05 -9.72395e-06 0 -1.95736e-05 -1.12794e-05 0 -2.32577e-05 -1.33998e-05 0 0 -1.44464e-06 0 -1.47263e-07 -1.45068e-06 0 -2.95696e-07 -1.4667e-06 0 -4.46451e-07 -1.49352e-06 0 -6.00753e-07 -1.532e-06 0 -7.5983e-07 -1.58092e-06 0 -9.24968e-07 -1.64212e-06 0 -1.09756e-06 -1.71509e-06 0 -1.27905e-06 -1.79952e-06 0 -1.47104e-06 -1.89822e-06 0 -1.67526e-06 -2.00919e-06 0 -1.89363e-06 -2.13389e-06 0 -2.12834e-06 -2.27353e-06 0 -2.38187e-06 -2.42677e-06 0 -2.65709e-06 -2.59611e-06 0 -2.95747e-06 -2.78054e-06 0 -3.28705e-06 -2.97943e-06 0 -3.65089e-06 -3.19533e-06 0 -4.05531e-06 -3.42485e-06 0 -4.50815e-06 -3.66816e-06 0 -5.01993e-06 -3.9241e-06 0 -5.60411e-06 -4.18907e-06 0 -6.27876e-06 -4.46107e-06 0 -7.06906e-06 -4.73558e-06 0 -8.00862e-06 -5.00866e-06 0 -9.14561e-06 -5.27727e-06 0 -1.05473e-05 -5.54318e-06 0 -1.23083e-05 -5.82117e-06 0 -1.45571e-05 -6.15789e-06 0 -1.74469e-05 -6.66691e-06 0 -2.10942e-05 -7.56844e-06 0 -2.54362e-05 -9.13344e-06 0 0 -1.29245e-06 0 -1.57424e-07 -1.29782e-06 0 -3.16078e-07 -1.31206e-06 0 -4.77175e-07 -1.33589e-06 0 -6.41997e-07 -1.37008e-06 0 -8.1183e-07 -1.4135e-06 0 -9.88009e-07 -1.46776e-06 0 -1.17198e-06 -1.53237e-06 0 -1.36521e-06 -1.60702e-06 0 -1.56932e-06 -1.69407e-06 0 -1.78607e-06 -1.7917e-06 0 -2.01735e-06 -1.90103e-06 0 -2.26531e-06 -2.02289e-06 0 -2.53232e-06 -2.15594e-06 0 -2.82112e-06 -2.30182e-06 0 -3.13494e-06 -2.45925e-06 0 -3.47749e-06 -2.6271e-06 0 -3.85338e-06 -2.806e-06 0 -4.26828e-06 -2.99227e-06 0 -4.72917e-06 -3.18372e-06 0 -5.24543e-06 -3.37606e-06 0 -5.82908e-06 -3.56369e-06 0 -6.49641e-06 -3.7365e-06 0 -7.27048e-06 -3.88399e-06 0 -8.18292e-06 -3.99151e-06 0 -9.28086e-06 -4.0365e-06 0 -1.06343e-05 -3.99489e-06 0 -1.23514e-05 -3.84129e-06 0 -1.46044e-05 -3.56596e-06 0 -1.76625e-05 -3.23449e-06 0 -2.18681e-05 -3.15455e-06 0 -2.72186e-05 -4.07209e-06 0 0 -1.13071e-06 0 -1.66365e-07 -1.13538e-06 0 -3.3401e-07 -1.14776e-06 0 -5.04194e-07 -1.16848e-06 0 -6.78245e-07 -1.19817e-06 0 -8.5749e-07 -1.23587e-06 0 -1.0433e-06 -1.28292e-06 0 -1.23714e-06 -1.33888e-06 0 -1.44051e-06 -1.40342e-06 0 -1.65501e-06 -1.4785e-06 0 -1.88239e-06 -1.56249e-06 0 -2.12446e-06 -1.6562e-06 0 -2.38328e-06 -1.76015e-06 0 -2.66107e-06 -1.87301e-06 0 -2.96028e-06 -1.99573e-06 0 -3.2838e-06 -2.12678e-06 0 -3.63481e-06 -2.26469e-06 0 -4.01718e-06 -2.40849e-06 0 -4.43553e-06 -2.55433e-06 0 -4.89545e-06 -2.69809e-06 0 -5.40428e-06 -2.8329e-06 0 -5.97134e-06 -2.95145e-06 0 -6.6092e-06 -3.03677e-06 0 -7.33573e-06 -3.07292e-06 0 -8.17572e-06 -3.03525e-06 0 -9.16697e-06 -2.88203e-06 0 -1.0368e-05 -2.56051e-06 0 -1.18759e-05 -1.99241e-06 0 -1.38675e-05 -1.06517e-06 0 -1.67054e-05 3.55962e-07 0 -2.12419e-05 2.24297e-06 0 -2.89702e-05 2.81223e-06 0 0 -9.60671e-07 0 -1.74039e-07 -9.64616e-07 0 -3.49395e-07 -9.75074e-07 0 -5.27366e-07 -9.9257e-07 0 -7.09312e-07 -1.01763e-06 0 -8.9659e-07 -1.04942e-06 0 -1.09059e-06 -1.08907e-06 0 -1.2928e-06 -1.13615e-06 0 -1.5047e-06 -1.19038e-06 0 -1.72789e-06 -1.25331e-06 0 -1.96404e-06 -1.32353e-06 0 -2.21489e-06 -1.40159e-06 0 -2.48236e-06 -1.48776e-06 0 -2.76843e-06 -1.58078e-06 0 -3.07527e-06 -1.68105e-06 0 -3.40525e-06 -1.78694e-06 0 -3.76094e-06 -1.89679e-06 0 -4.14523e-06 -2.00847e-06 0 -4.56143e-06 -2.11818e-06 0 -5.01328e-06 -2.2205e-06 0 -5.50544e-06 -2.30691e-06 0 -6.04352e-06 -2.36907e-06 0 -6.63481e-06 -2.3854e-06 0 -7.28932e-06 -2.33632e-06 0 -8.02068e-06 -2.19031e-06 0 -8.84934e-06 -1.89206e-06 0 -9.80652e-06 -1.36747e-06 0 -1.09435e-05 -4.95516e-07 0 -1.23534e-05 9.3459e-07 0 -1.42382e-05 3.33441e-06 0 -1.72127e-05 7.74841e-06 0 -8.78105e-06 1.45358e-05 0 </DataArray> 
</PointData> 
<Points> 
<DataArray type="Float32" NumberOfComponents="3"> 