<?xml version="1.0"?> 
<VTKFile type="StructuredGrid" version="0.1"> 
<StructuredGrid WholeExtent="0 31 0 31 0 0"> 
<Piece Extent="0 31 0 31 0 0"> 
<PointData>
<DataArray type="Float32" Name="B" format="ascii" NumberOfComponents="3"> 
-9.38973e-06 -2.72296e-05 0 -2.27343e-05 -1.1436e-05 0 -1.87634e-05 -5.03135e-06 0 -1.62801e-05 -1.63736e-06 0 -1.44256e-05 3.73637e-07 0 -1.29302e-05 1.60233e-06 0 -1.1671e-05 2.34783e-06 0 -1.05808e-05 2.77932e-06 0 -9.61841e-06 2.9996e-06 0 -8.75694e-06 3.08506e-06 0 -7.97846e-06 3.07916e-06 0 -7.26978e-06 3.00874e-06 0 -6.62136e-06 2.90376e-06 0 -6.02581e-06 2.77557e-06 0 -5.47704e-06 2.63603e-06 0 -4.97015e-06 2.49277e-06 0 -4.50083e-06 2.3509e-06 0 -4.06527e-06 2.21357e-06 0 -3.66014e-06 2.08313e-06 0 -3.28231e-06 1.96179e-06 0 -2.92896e-06 1.84918e-06 0 -2.59748e-06 1.74701e-06 0 -2.28535e-06 1.655e-06 0 -1.9903e-06 1.57245e-06 0 -1.71012e-06 1.50126e-06 0 -1.44272e-06 1.4394e-06 0 -1.18613e-06 1.3873e-06 0 -9.38408e-07 1.34549e-06 0 -6.97715e-07 1.31253e-06 0 -4.62266e-07 1.28951e-06 0 -2.30264e-07 1.27575e-06 0 0 1.27056e-06 0 -1.78364e-05 -3.38173e-05 0 -1.94614e-05 -1.27672e-05 0 -1.72216e-05 -5.86678e-06 0 -1.53994e-05 -2.26286e-06 0 -1.38904e-05 -1.32393e-07 0 -1.26013e-05 1.17486e-06 0 -1.14736e-05 1.97656e-06 0 -1.04699e-05 2.45061e-06 0 -9.56514e-06 2.70446e-06 0 -8.74213e-06 2.81768e-06 0 -7.98897e-06 2.83533e-06 0 -7.2966e-06 2.78509e-06 0 -6.65822e-06 2.69806e-06 0 -6.06833e-06 2.58579e-06 0 -5.52221e-06 2.46055e-06 0 -5.01587e-06 2.33028e-06 0 -4.54567e-06 2.20002e-06 0 -4.10828e-06 2.07325e-06 0 -3.70068e-06 1.95236e-06 0 -3.31999e-06 1.83955e-06 0 -2.96354e-06 1.73466e-06 0 -2.62882e-06 1.63932e-06 0 -2.31342e-06 1.55336e-06 0 -2.01509e-06 1.47617e-06 0 -1.73166e-06 1.40955e-06 0 -1.46105e-06 1.35164e-06 0 -1.2013e-06 1.30283e-06 0 -9.50473e-07 1.26366e-06 0 -7.0672e-07 1.23277e-06 0 -4.68248e-07 1.21119e-06 0 -2.33248e-07 1.19829e-06 0 0 1.19342e-06 0 -9.98526e-06 -2.66021e-05 0 -1.61848e-05 -1.30641e-05 0 -1.56306e-05 -6.37698e-06 0 -1.44846e-05 -2.7335e-06 0 -1.33312e-05 -5.50108e-07 0 -1.22547e-05 8.0239e-07 0 -1.12626e-05 1.64107e-06 0 -1.03481e-05 2.14565e-06 0 -9.50284e-06 2.42525e-06 0 -8.71961e-06 2.56087e-06 0 -7.99275e-06 2.59838e-06 0 -7.31744e-06 2.56583e-06 0 -6.68971e-06 2.49498e-06 0 -6.106e-06 2.39743e-06 0 -5.56298e-06 2.28564e-06 0 -5.05759e-06 2.16777e-06 0 -4.58688e-06 2.04873e-06 0 -4.14798e-06 1.93225e-06 0 -3.73824e-06 1.82074e-06 0 -3.35497e-06 1.71636e-06 0 -2.9957e-06 1.61911e-06 0 -2.65802e-06 1.53059e-06 0 -2.33959e-06 1.45067e-06 0 -2.03822e-06 1.37885e-06 0 -1.75177e-06 1.31681e-06 0 -1.47817e-06 1.26285e-06 0 -1.21548e-06 1.21736e-06 0 -9.61753e-07 1.18084e-06 0 -7.15141e-07 1.15202e-06 0 -4.73843e-07 1.1319e-06 0 -2.3604e-07 1.11986e-06 0 0 1.11532e-06 0 -6.44131e-06 -2.14244e-05 0 -1.33228e-05 -1.2562e-05 0 -1.40817e-05 -6.57707e-06 0 -1.35677e-05 -3.04979e-06 0 -1.27629e-05 -8.78538e-07 0 -1.18987e-05 4.85865e-07 0 -1.1043e-05 1.34208e-06 0 -1.02186e-05 1.86498e-06 0 -9.43366e-06 2.16234e-06 0 -8.69085e-06 2.31492e-06 0 -7.9908e-06 2.36853e-06 0 -7.33301e-06 2.35116e-06 0 -6.71632e-06 2.29468e-06 0 -6.13915e-06 2.2106e-06 0 -5.59956e-06 2.11142e-06 0 -5.09545e-06 2.00534e-06 0 -4.62455e-06 1.89713e-06 0 -4.18446e-06 1.79068e-06 0 -3.77285e-06 1.68837e-06 0 -3.3873e-06 1.59231e-06 0 -3.02547e-06 1.50265e-06 0 -2.68509e-06 1.42089e-06 0 -2.36387e-06 1.347e-06 0 -2.0597e-06 1.28054e-06 0 -1.77045e-06 1.2231e-06 0 -1.49409e-06 1.17311e-06 0 -1.22867e-06 1.13094e-06 0 -9.72245e-07 1.09708e-06 0 -7.22975e-07 1.07037e-06 0 -4.79048e-07 1.0517e-06 0 -2.38637e-07 1.04054e-06 0 0 1.03632e-06 0 -4.57277e-06 -1.75624e-05 0 -1.10185e-05 -1.16046e-05 0 -1.26454e-05 -6.51313e-06 0 -1.26778e-05 -3.22092e-06 0 -1.21999e-05 -1.11991e-06 0 -1.15413e-05 2.24756e-07 0 -1.08198e-05 1.07954e-06 0 -1.00847e-05 1.60865e-06 0 -9.35977e-06 1.91584e-06 0 -8.65733e-06 2.07993e-06 0 -7.98416e-06 2.14588e-06 0 -7.344e-06 2.14116e-06 0 -6.73853e-06 2.09726e-06 0 -6.16812e-06 2.02542e-06 0 -5.63221e-06 1.93799e-06 0 -5.12963e-06 1.84311e-06 0 -4.65879e-06 1.74533e-06 0 -4.21777e-06 1.64863e-06 0 -3.80457e-06 1.55534e-06 0 -3.41699e-06 1.46749e-06 0 -3.05286e-06 1.38534e-06 0 -2.71002e-06 1.31032e-06 0 -2.38627e-06 1.24245e-06 0 -2.07952e-06 1.18135e-06 0 -1.7877e-06 1.12849e-06 0 -1.50879e-06 1.08248e-06 0 -1.24085e-06 1.04366e-06 0 -9.81942e-07 1.01248e-06 0 -7.30217e-07 9.87863e-07 0 -4.83861e-07 9.70664e-07 0 -2.41038e-07 9.60378e-07 0 0 9.56496e-07 0 -3.47202e-06 -1.45805e-05 0 -9.23291e-06 -1.04509e-05 0 -1.13635e-05 -6.24476e-06 0 -1.18385e-05 -3.26242e-06 0 -1.16552e-05 -1.27918e-06 0 -1.11903e-05 1.7202e-08 0 -1.05978e-05 8.52641e-07 0 -9.94962e-06 1.3763e-06 0 -9.28333e-06 1.68554e-06 0 -8.62051e-06 1.8558e-06 0 -7.97382e-06 1.9304e-06 0 -7.35112e-06 1.93585e-06 0 -6.75684e-06 1.90275e-06 0 -6.19324e-06 1.84194e-06 0 -5.66114e-06 1.76542e-06 0 -5.16028e-06 1.68113e-06 0 -4.68971e-06 1.5934e-06 0 -4.24799e-06 1.50619e-06 0 -3.83343e-06 1.42173e-06 0 -3.44406e-06 1.34198e-06 0 -3.07788e-06 1.26728e-06 0 -2.73282e-06 1.19895e-06 0 -2.40677e-06 1.13707e-06 0 -2.09768e-06 1.08133e-06 0 -1.80352e-06 1.03308e-06 0 -1.52227e-06 9.9105e-07 0 -1.25202e-06 9.5558e-07 0 -9.90839e-07 9.27078e-07 0 -7.36863e-07 9.04579e-07 0 -4.88278e-07 8.88854e-07 0 -2.43243e-07 8.7945e-07 0 0 8.75901e-07 0 -2.76935e-06 -1.21929e-05 0 -7.86503e-06 -9.24867e-06 0 -1.02511e-05 -5.83005e-06 0 -1.10668e-05 -3.19324e-06 0 -1.11399e-05 -1.36337e-06 0 -1.08527e-05 -1.39806e-07 0 -1.03817e-05 6.59926e-07 0 -9.81636e-06 1.16714e-06 0 -9.20643e-06 1.471e-06 0 -8.58185e-06 1.64228e-06 0 -7.96079e-06 1.72195e-06 0 -7.35506e-06 1.73514e-06 0 -6.77172e-06 1.71112e-06 0 -6.21486e-06 1.66016e-06 0 -5.68659e-06 1.59374e-06 0 -5.18755e-06 1.51948e-06 0 -4.71742e-06 1.44142e-06 0 -4.2752e-06 1.36343e-06 0 -3.85949e-06 1.28763e-06 0 -3.46857e-06 1.21587e-06 0 -3.10056e-06 1.14853e-06 0 -2.75352e-06 1.08687e-06 0 -2.42539e-06 1.03096e-06 0 -2.11418e-06 9.80566e-07 0 -1.8179e-06 9.36914e-07 0 -1.53453e-06 8.9888e-07 0 -1.26219e-06 8.66769e-07 0 -9.98937e-07 8.4096e-07 0 -7.42913e-07 8.20582e-07 0 -4.92299e-07 8.06339e-07 0 -2.4525e-07 7.97819e-07 0 0 7.94604e-07 0 -2.29483e-06 -1.02184e-05 0 -6.81816e-06 -8.06983e-06 0 -9.30594e-06 -5.31744e-06 0 -1.03729e-05 -3.03311e-06 0 -1.06627e-05 -1.38078e-06 0 -1.05347e-05 -2.50174e-07 0 -1.01757e-05 4.99336e-07 0 -9.68785e-06 9.79967e-07 0 -9.13107e-06 1.27148e-06 0 -8.5427e-06 1.43891e-06 0 -7.94603e-06 1.52024e-06 0 -7.35649e-06 1.53889e-06 0 -6.78364e-06 1.5223e-06 0 -6.23329e-06 1.48008e-06 0 -5.70879e-06 1.42297e-06 0 -5.21161e-06 1.35818e-06 0 -4.74203e-06 1.28942e-06 0 -4.29946e-06 1.2204e-06 0 -3.8828e-06 1.1531e-06 0 -3.49053e-06 1.08922e-06 0 -3.12091e-06 1.02919e-06 0 -2.77211e-06 9.74139e-07 0 -2.44213e-06 9.24188e-07 0 -2.12903e-06 8.79131e-07 0 -1.83084e-06 8.40081e-07 0 -1.54558e-06 8.06044e-07 0 -1.27135e-06 7.77299e-07 0 -1.00623e-06 7.54189e-07 0 -7.48363e-07 7.3594e-07 0 -4.95923e-07 7.23183e-07 0 -2.47058e-07 7.15552e-07 0 0 7.12671e-07 0 -1.96241e-06 -8.53878e-06 0 -6.01711e-06 -6.94382e-06 0 -8.51807e-06 -4.74343e-06 0 -9.76313e-06 -2.80063e-06 0 -1.02308e-05 -1.34029e-06 0 -1.0242e-05 -3.18456e-07 0 -9.9838e-06 3.68331e-07 0 -9.56687e-06 8.13278e-07 0 -9.05916e-06 1.08604e-06 0 -8.5044e-06 1.24508e-06 0 -7.93042e-06 1.3249e-06 0 -7.35601e-06 1.34685e-06 0 -6.793e-06 1.33616e-06 0 -6.2488e-06 1.30161e-06 0 -5.72791e-06 1.25309e-06 0 -5.23257e-06 1.19726e-06 0 -4.76359e-06 1.13746e-06 0 -4.32081e-06 1.07718e-06 0 -3.90336e-06 1.01821e-06 0 -3.50994e-06 9.62103e-07 0 -3.13893e-06 9.0931e-07 0 -2.78858e-06 8.60842e-07 0 -2.45697e-06 8.16826e-07 0 -2.14221e-06 7.77098e-07 0 -1.84233e-06 7.42649e-07 0 -1.55538e-06 7.12612e-07 0 -1.27949e-06 6.87239e-07 0 -1.01271e-06 6.66835e-07 0 -7.53206e-07 6.5072e-07 0 -4.99142e-07 6.39454e-07 0 -2.48665e-07 6.32714e-07 0 0 6.3017e-07 0 -1.7211e-06 -7.07442e-06 0 -5.39884e-06 -5.87856e-06 0 -7.86811e-06 -4.13361e-06 0 -9.23668e-06 -2.51213e-06 0 -9.84767e-06 -1.25079e-06 0 -9.97802e-06 -3.49604e-07 0 -9.80894e-06 2.63988e-07 0 -9.45563e-06 6.65253e-07 0 -8.99231e-06 9.13509e-07 0 -8.4681e-06 1.06004e-06 0 -7.91481e-06 1.13544e-06 0 -7.35424e-06 1.15872e-06 0 -6.80026e-06 1.15251e-06 0 -6.26174e-06 1.12466e-06 0 -5.74422e-06 1.08407e-06 0 -5.25062e-06 1.03671e-06 0 -4.78228e-06 9.85567e-07 0 -4.33937e-06 9.33794e-07 0 -3.92129e-06 8.83008e-07 0 -3.52688e-06 8.34591e-07 0 -3.15468e-06 7.88973e-07 0 -2.80299e-06 7.47049e-07 0 -2.46997e-06 7.08947e-07 0 -2.15375e-06 6.7454e-07 0 -1.8524e-06 6.4469e-07 0 -1.56398e-06 6.18656e-07 0 -1.28662e-06 5.96658e-07 0 -1.0184e-06 5.78965e-07 0 -7.57454e-07 5.6499e-07 0 -5.01966e-07 5.55218e-07 0 -2.50075e-07 5.49372e-07 0 0 5.47166e-07 0 -1.54421e-06 -5.76934e-06 0 -4.92462e-06 -4.87157e-06 0 -7.34215e-06 -3.50493e-06 0 -8.79338e-06 -2.18132e-06 0 -9.51692e-06 -1.1208e-06 0 -9.74668e-06 -3.48767e-07 0 -9.65413e-06 1.83096e-07 0 -9.35634e-06 5.33828e-07 0 -8.93208e-06 7.52524e-07 0 -8.43488e-06 8.82893e-07 0 -7.89996e-06 9.51272e-07 0 -7.35168e-06 9.7411e-07 0 -6.80576e-06 9.71115e-07 0 -6.27233e-06 9.491e-07 0 -5.75784e-06 9.15827e-07 0 -5.26585e-06 8.76515e-07 0 -4.79813e-06 8.33747e-07 0 -4.35517e-06 7.90291e-07 0 -3.93658e-06 7.47556e-07 0 -3.54136e-06 7.06742e-07 0 -3.16815e-06 6.68244e-07 0 -2.81533e-06 6.3283e-07 0 -2.4811e-06 6.00624e-07 0 -2.16363e-06 5.71528e-07 0 -1.86103e-06 5.46275e-07 0 -1.57135e-06 5.24245e-07 0 -1.29274e-06 5.05627e-07 0 -1.02327e-06 4.90649e-07 0 -7.61097e-07 4.78817e-07 0 -5.04389e-07 4.70544e-07 0 -2.51284e-07 4.65594e-07 0 0 4.63725e-07 0 -1.41414e-06 -4.58263e-06 0 -4.56434e-06 -3.91576e-06 0 -6.92563e-06 -2.8679e-06 0 -8.43055e-06 -1.81929e-06 0 -9.24026e-06 -9.58184e-07 0 -9.55054e-06 -3.21141e-07 0 -9.52172e-06 1.22245e-07 0 -9.27082e-06 4.16741e-07 0 -8.8798e-06 6.01571e-07 0 -8.40569e-06 7.12625e-07 0 -7.88651e-06 7.71735e-07 0 -7.34881e-06 7.92594e-07 0 -6.80983e-06 7.91707e-07 0 -6.2808e-06 7.74768e-07 0 -5.76895e-06 7.48289e-07 0 -5.27837e-06 7.16653e-07 0 -4.81123e-06 6.8201e-07 0 -4.36826e-06 6.46699e-07 0 -3.94928e-06 6.11901e-07 0 -3.5534e-06 5.78613e-07 0 -3.17935e-06 5.47185e-07 0 -2.8256e-06 5.18253e-07 0 -2.49037e-06 4.91927e-07 0 -2.17187e-06 4.68134e-07 0 -1.86822e-06 4.47476e-07 0 -1.57749e-06 4.29451e-07 0 -1.29784e-06 4.14214e-07 0 -1.02734e-06 4.01955e-07 0 -7.64136e-07 3.9227e-07 0 -5.06409e-07 3.85497e-07 0 -2.52293e-07 3.81445e-07 0 0 3.79916e-07 0 -1.31981e-06 -3.48319e-06 0 -4.29681e-06 -3.00217e-06 0 -6.60646e-06 -2.22857e-06 0 -8.14505e-06 -1.43482e-06 0 -9.0186e-06 -7.70118e-07 0 -9.39158e-06 -2.71855e-07 0 -9.41358e-06 7.78924e-08 0 -9.20057e-06 3.11573e-07 0 -8.8366e-06 4.59e-07 0 -8.38134e-06 5.48125e-07 0 -7.87505e-06 5.96088e-07 0 -7.34601e-06 6.1368e-07 0 -6.81274e-06 6.13974e-07 0 -6.28733e-06 6.01477e-07 0 -5.77767e-06 5.81351e-07 0 -5.28828e-06 5.57079e-07 0 -4.82163e-06 5.30354e-07 0 -4.37869e-06 5.03044e-07 0 -3.9594e-06 4.76083e-07 0 -3.56301e-06 4.5026e-07 0 -3.18831e-06 4.25861e-07 0 -2.83381e-06 4.03385e-07 0 -2.49779e-06 3.82924e-07 0 -2.17847e-06 3.64427e-07 0 -1.87398e-06 3.48362e-07 0 -1.58241e-06 3.34342e-07 0 -1.30192e-06 3.2249e-07 0 -1.03059e-06 3.12952e-07 0 -7.66568e-07 3.05417e-07 0 -5.08027e-07 3.00147e-07 0 -2.53101e-07 2.96994e-07 0 0 2.95804e-07 0 -1.25408e-06 -2.44634e-06 0 -4.1073e-06 -2.12129e-06 0 -6.37507e-06 -1.58993e-06 0 -7.93386e-06 -1.03478e-06 0 -8.85228e-06 -5.63082e-07 0 -9.2712e-06 -2.05923e-07 0 -9.3312e-06 4.64187e-08 0 -9.14679e-06 2.15785e-07 0 -8.80337e-06 3.23056e-07 0 -8.36249e-06 3.88197e-07 0 -7.86603e-06 4.2353e-07 0 -7.34362e-06 4.36835e-07 0 -6.81472e-06 4.37578e-07 0 -6.29209e-06 4.29017e-07 0 -5.78412e-06 4.14895e-07 0 -5.29564e-06 3.97739e-07 0 -4.82939e-06 3.78769e-07 0 -4.38648e-06 3.59345e-07 0 -3.96697e-06 3.40144e-07 0 -3.5702e-06 3.21735e-07 0 -3.19502e-06 3.04331e-07 0 -2.83997e-06 2.88292e-07 0 -2.50335e-06 2.73686e-07 0 -2.18341e-06 2.60478e-07 0 -1.87829e-06 2.49004e-07 0 -1.5861e-06 2.3899e-07 0 -1.30499e-06 2.30523e-07 0 -1.03303e-06 2.23709e-07 0 -7.68395e-07 2.18325e-07 0 -5.09242e-07 2.1456e-07 0 -2.53707e-07 2.12307e-07 0 0 2.11456e-07 0 -1.21243e-06 -1.45162e-06 0 -3.98587e-06 -1.26357e-06 0 -6.22446e-06 -9.52971e-07 0 -7.79443e-06 -6.24641e-07 0 -8.74134e-06 -3.42954e-07 0 -9.19036e-06 -1.28224e-07 0 -9.27562e-06 2.41612e-08 0 -9.1104e-06 1.26753e-07 0 -8.78081e-06 1.91902e-07 0 -8.34962e-06 2.31581e-07 0 -7.85981e-06 2.53212e-07 0 -7.34189e-06 2.61493e-07 0 -6.81594e-06 2.62153e-07 0 -6.2952e-06 2.57164e-07 0 -5.78837e-06 2.48793e-07 0 -5.30053e-06 2.38572e-07 0 -4.83454e-06 2.27238e-07 0 -4.39166e-06 2.15618e-07 0 -3.97202e-06 2.0412e-07 0 -3.575e-06 1.93089e-07 0 -3.19949e-06 1.82657e-07 0 -2.84407e-06 1.73039e-07 0 -2.50706e-06 1.64279e-07 0 -2.18671e-06 1.56356e-07 0 -1.88118e-06 1.49472e-07 0 -1.58857e-06 1.43464e-07 0 -1.30703e-06 1.38383e-07 0 -1.03466e-06 1.34294e-07 0 -7.69614e-07 1.31063e-07 0 -5.10053e-07 1.28804e-07 0 -2.54112e-07 1.27452e-07 0 0 1.26941e-07 0 -1.19216e-06 -4.81224e-07 0 -3.92641e-06 -4.19664e-07 0 -6.15002e-06 -3.17472e-07 0 -7.72492e-06 -2.08823e-07 0 -8.68569e-06 -1.15159e-07 0 -9.14964e-06 -4.35169e-08 0 -9.24755e-06 7.43848e-09 0 -9.09198e-06 4.17968e-08 0 -8.76937e-06 6.36441e-08 0 -8.34307e-06 7.69697e-08 0 -7.85662e-06 8.42522e-08 0 -7.34097e-06 8.70623e-08 0 -6.81652e-06 8.73184e-08 0 -6.29674e-06 8.56801e-08 0 -5.79049e-06 8.2907e-08 0 -5.30297e-06 7.9512e-08 0 -4.83712e-06 7.57422e-08 0 -4.39426e-06 7.18742e-08 0 -3.97455e-06 6.80454e-08 0 -3.57741e-06 6.43711e-08 0 -3.20174e-06 6.08952e-08 0 -2.84613e-06 5.76902e-08 0 -2.50892e-06 5.47707e-08 0 -2.18837e-06 5.213e-08 0 -1.88263e-06 4.98357e-08 0 -1.5898e-06 4.78328e-08 0 -1.30806e-06 4.61392e-08 0 -1.03548e-06 4.47762e-08 0 -7.70226e-07 4.36991e-08 0 -5.1046e-07 4.29458e-08 0 -2.54315e-07 4.24951e-08 0 0 4.23249e-08 0 -1.19216e-06 4.81224e-07 0 -3.92641e-06 4.19664e-07 0 -6.15002e-06 3.17472e-07 0 -7.72492e-06 2.08823e-07 0 -8.68569e-06 1.15159e-07 0 -9.14964e-06 4.35169e-08 0 -9.24755e-06 -7.43848e-09 0 -9.09198e-06 -4.17968e-08 0 -8.76937e-06 -6.36441e-08 0 -8.34307e-06 -7.69697e-08 0 -7.85662e-06 -8.42522e-08 0 -7.34097e-06 -8.70623e-08 0 -6.81652e-06 -8.73184e-08 0 -6.29674e-06 -8.56801e-08 0 -5.79049e-06 -8.2907e-08 0 -5.30297e-06 -7.9512e-08 0 -4.83712e-06 -7.57422e-08 0 -4.39426e-06 -7.18742e-08 0 -3.97455e-06 -6.80454e-08 0 -3.57741e-06 -6.43711e-08 0 -3.20174e-06 -6.08952e-08 0 -2.84613e-06 -5.76902e-08 0 -2.50892e-06 -5.47707e-08 0 -2.18837e-06 -5.213e-08 0 -1.88263e-06 -4.98357e-08 0 -1.5898e-06 -4.78328e-08 0 -1.30806e-06 -4.61392e-08 0 -1.03548e-06 -4.47762e-08 0 -7.70226e-07 -4.36991e-08 0 -5.1046e-07 -4.29458e-08 0 -2.54315e-07 -4.24951e-08 0 0 -4.23249e-08 0 -1.21243e-06 1.45162e-06 0 -3.98587e-06 1.26357e-06 0 -6.22446e-06 9.52971e-07 0 -7.79443e-06 6.24641e-07 0 -8.74134e-06 3.42954e-07 0 -9.19036e-06 1.28224e-07 0 -9.27562e-06 -2.41612e-08 0 -9.1104e-06 -1.26753e-07 0 -8.78081e-06 -1.91902e-07 0 -8.34962e-06 -2.31581e-07 0 -7.85981e-06 -2.53212e-07 0 -7.34189e-06 -2.61493e-07 0 -6.81594e-06 -2.62153e-07 0 -6.2952e-06 -2.57164e-07 0 -5.78837e-06 -2.48793e-07 0 -5.30053e-06 -2.38572e-07 0 -4.83454e-06 -2.27238e-07 0 -4.39166e-06 -2.15618e-07 0 -3.97202e-06 -2.0412e-07 0 -3.575e-06 -1.93089e-07 0 -3.19949e-06 -1.82657e-07 0 -2.84407e-06 -1.73039e-07 0 -2.50706e-06 -1.64279e-07 0 -2.18671e-06 -1.56356e-07 0 -1.88118e-06 -1.49472e-07 0 -1.58857e-06 -1.43464e-07 0 -1.30703e-06 -1.38383e-07 0 -1.03466e-06 -1.34294e-07 0 -7.69614e-07 -1.31063e-07 0 -5.10053e-07 -1.28804e-07 0 -2.54112e-07 -1.27452e-07 0 0 -1.26941e-07 0 -1.25408e-06 2.44634e-06 0 -4.1073e-06 2.12129e-06 0 -6.37507e-06 1.58993e-06 0 -7.93386e-06 1.03478e-06 0 -8.85228e-06 5.63082e-07 0 -9.2712e-06 2.05923e-07 0 -9.3312e-06 -4.64187e-08 0 -9.14679e-06 -2.15785e-07 0 -8.80337e-06 -3.23056e-07 0 -8.36249e-06 -3.88197e-07 0 -7.86603e-06 -4.2353e-07 0 -7.34362e-06 -4.36835e-07 0 -6.81472e-06 -4.37578e-07 0 -6.29209e-06 -4.29017e-07 0 -5.78412e-06 -4.14895e-07 0 -5.29564e-06 -3.97739e-07 0 -4.82939e-06 -3.78769e-07 0 -4.38648e-06 -3.59345e-07 0 -3.96697e-06 -3.40144e-07 0 -3.5702e-06 -3.21735e-07 0 -3.19502e-06 -3.04331e-07 0 -2.83997e-06 -2.88292e-07 0 -2.50335e-06 -2.73686e-07 0 -2.18341e-06 -2.60478e-07 0 -1.87829e-06 -2.49004e-07 0 -1.5861e-06 -2.3899e-07 0 -1.30499e-06 -2.30523e-07 0 -1.03303e-06 -2.23709e-07 0 -7.68395e-07 -2.18325e-07 0 -5.09242e-07 -2.1456e-07 0 -2.53707e-07 -2.12307e-07 0 0 -2.11456e-07 0 -1.31981e-06 3.48319e-06 0 -4.29681e-06 3.00217e-06 0 -6.60646e-06 2.22857e-06 0 -8.14505e-06 1.43482e-06 0 -9.0186e-06 7.70118e-07 0 -9.39158e-06 2.71855e-07 0 -9.41358e-06 -7.78924e-08 0 -9.20057e-06 -3.11573e-07 0 -8.8366e-06 -4.59e-07 0 -8.38134e-06 -5.48125e-07 0 -7.87505e-06 -5.96088e-07 0 -7.34601e-06 -6.1368e-07 0 -6.81274e-06 -6.13974e-07 0 -6.28733e-06 -6.01477e-07 0 -5.77767e-06 -5.81351e-07 0 -5.28828e-06 -5.57079e-07 0 -4.82163e-06 -5.30354e-07 0 -4.37869e-06 -5.03044e-07 0 -3.9594e-06 -4.76083e-07 0 -3.56301e-06 -4.5026e-07 0 -3.18831e-06 -4.25861e-07 0 -2.83381e-06 -4.03385e-07 0 -2.49779e-06 -3.82924e-07 0 -2.17847e-06 -3.64427e-07 0 -1.87398e-06 -3.48362e-07 0 -1.58241e-06 -3.34342e-07 0 -1.30192e-06 -3.2249e-07 0 -1.03059e-06 -3.12952e-07 0 -7.66568e-07 -3.05417e-07 0 -5.08027e-07 -3.00147e-07 0 -2.53101e-07 -2.96994e-07 0 0 -2.95804e-07 0 -1.41414e-06 4.58263e-06 0 -4.56434e-06 3.91576e-06 0 -6.92563e-06 2.8679e-06 0 -8.43055e-06 1.81929e-06 0 -9.24026e-06 9.58184e-07 0 -9.55054e-06 3.21141e-07 0 -9.52172e-06 -1.22245e-07 0 -9.27082e-06 -4.16741e-07 0 -8.8798e-06 -6.01571e-07 0 -8.40569e-06 -7.12625e-07 0 -7.88651e-06 -7.71735e-07 0 -7.34881e-06 -7.92594e-07 0 -6.80983e-06 -7.91707e-07 0 -6.2808e-06 -7.74768e-07 0 -5.76895e-06 -7.48289e-07 0 -5.27837e-06 -7.16653e-07 0 -4.81123e-06 -6.8201e-07 0 -4.36826e-06 -6.46699e-07 0 -3.94928e-06 -6.11901e-07 0 -3.5534e-06 -5.78613e-07 0 -3.17935e-06 -5.47185e-07 0 -2.8256e-06 -5.18253e-07 0 -2.49037e-06 -4.91927e-07 0 -2.17187e-06 -4.68134e-07 0 -1.86822e-06 -4.47476e-07 0 -1.57749e-06 -4.29451e-07 0 -1.29784e-06 -4.14214e-07 0 -1.02734e-06 -4.01955e-07 0 -7.64136e-07 -3.9227e-07 0 -5.06409e-07 -3.85497e-07 0 -2.52293e-07 -3.81445e-07 0 0 -3.79916e-07 0 -1.54421e-06 5.76934e-06 0 -4.92462e-06 4.87157e-06 0 -7.34215e-06 3.50493e-06 0 -8.79338e-06 2.18132e-06 0 -9.51692e-06 1.1208e-06 0 -9.74668e-06 3.48767e-07 0 -9.65413e-06 -1.83096e-07 0 -9.35634e-06 -5.33828e-07 0 -8.93208e-06 -7.52524e-07 0 -8.43488e-06 -8.82893e-07 0 -7.89996e-06 -9.51272e-07 0 -7.35168e-06 -9.7411e-07 0 -6.80576e-06 -9.71115e-07 0 -6.27233e-06 -9.491e-07 0 -5.75784e-06 -9.15827e-07 0 -5.26585e-06 -8.76515e-07 0 -4.79813e-06 -8.33747e-07 0 -4.35517e-06 -7.90291e-07 0 -3.93658e-06 -7.47556e-07 0 -3.54136e-06 -7.06742e-07 0 -3.16815e-06 -6.68244e-07 0 -2.81533e-06 -6.3283e-07 0 -2.4811e-06 -6.00624e-07 0 -2.16363e-06 -5.71528e-07 0 -1.86103e-06 -5.46275e-07 0 -1.57135e-06 -5.24245e-07 0 -1.29274e-06 -5.05627e-07 0 -1.02327e-06 -4.90649e-07 0 -7.61097e-07 -4.78817e-07 0 -5.04389e-07 -4.70544e-07 0 -2.51284e-07 -4.65594e-07 0 0 -4.63725e-07 0 -1.7211e-06 7.07442e-06 0 -5.39884e-06 5.87856e-06 0 -7.86811e-06 4.13361e-06 0 -9.23668e-06 2.51213e-06 0 -9.84767e-06 1.25079e-06 0 -9.97802e-06 3.49604e-07 0 -9.80894e-06 -2.63988e-07 0 -9.45563e-06 -6.65253e-07 0 -8.99231e-06 -9.13509e-07 0 -8.4681e-06 -1.06004e-06 0 -7.91481e-06 -1.13544e-06 0 -7.35424e-06 -1.15872e-06 0 -6.80026e-06 -1.15251e-06 0 -6.26174e-06 -1.12466e-06 0 -5.74422e-06 -1.08407e-06 0 -5.25062e-06 -1.03671e-06 0 -4.78228e-06 -9.85567e-07 0 -4.33937e-06 -9.33794e-07 0 -3.92129e-06 -8.83008e-07 0 -3.52688e-06 -8.34591e-07 0 -3.15468e-06 -7.88973e-07 0 -2.80299e-06 -7.47049e-07 0 -2.46997e-06 -7.08947e-07 0 -2.15375e-06 -6.7454e-07 0 -1.8524e-06 -6.4469e-07 0 -1.56398e-06 -6.18656e-07 0 -1.28662e-06 -5.96658e-07 0 -1.0184e-06 -5.78965e-07 0 -7.57454e-07 -5.6499e-07 0 -5.01966e-07 -5.55218e-07 0 -2.50075e-07 -5.49372e-07 0 0 -5.47166e-07 0 -1.96241e-06 8.53878e-06 0 -6.01711e-06 6.94382e-06 0 -8.51807e-06 4.74343e-06 0 -9.76313e-06 2.80063e-06 0 -1.02308e-05 1.34029e-06 0 -1.0242e-05 3.18456e-07 0 -9.9838e-06 -3.68331e-07 0 -9.56687e-06 -8.13278e-07 0 -9.05916e-06 -1.08604e-06 0 -8.5044e-06 -1.24508e-06 0 -7.93042e-06 -1.3249e-06 0 -7.35601e-06 -1.34685e-06 0 -6.793e-06 -1.33616e-06 0 -6.2488e-06 -1.30161e-06 0 -5.72791e-06 -1.25309e-06 0 -5.23257e-06 -1.19726e-06 0 -4.76359e-06 -1.13746e-06 0 -4.32081e-06 -1.07718e-06 0 -3.90336e-06 -1.01821e-06 0 -3.50994e-06 -9.62103e-07 0 -3.13893e-06 -9.0931e-07 0 -2.78858e-06 -8.60842e-07 0 -2.45697e-06 -8.16826e-07 0 -2.14221e-06 -7.77098e-07 0 -1.84233e-06 -7.42649e-07 0 -1.55538e-06 -7.12612e-07 0 -1.27949e-06 -6.87239e-07 0 -1.01271e-06 -6.66835e-07 0 -7.53206e-07 -6.5072e-07 0 -4.99142e-07 -6.39454e-07 0 -2.48665e-07 -6.32714e-07 0 0 -6.3017e-07 0 -2.29483e-06 1.02184e-05 0 -6.81816e-06 8.06983e-06 0 -9.30594e-06 5.31744e-06 0 -1.03729e-05 3.03311e-06 0 -1.06627e-05 1.38078e-06 0 -1.05347e-05 2.50174e-07 0 -1.01757e-05 -4.99336e-07 0 -9.68785e-06 -9.79967e-07 0 -9.13107e-06 -1.27148e-06 0 -8.5427e-06 -1.43891e-06 0 -7.94603e-06 -1.52024e-06 0 -7.35649e-06 -1.53889e-06 0 -6.78364e-06 -1.5223e-06 0 -6.23329e-06 -1.48008e-06 0 -5.70879e-06 -1.42297e-06 0 -5.21161e-06 -1.35818e-06 0 -4.74203e-06 -1.28942e-06 0 -4.29946e-06 -1.2204e-06 0 -3.8828e-06 -1.1531e-06 0 -3.49053e-06 -1.08922e-06 0 -3.12091e-06 -1.02919e-06 0 -2.77211e-06 -9.74139e-07 0 -2.44213e-06 -9.24188e-07 0 -2.12903e-06 -8.79131e-07 0 -1.83084e-06 -8.40081e-07 0 -1.54558e-06 -8.06044e-07 0 -1.27135e-06 -7.77299e-07 0 -1.00623e-06 -7.54189e-07 0 -7.48363e-07 -7.3594e-07 0 -4.95923e-07 -7.23183e-07 0 -2.47058e-07 -7.15552e-07 0 0 -7.12671e-07 0 -2.76935e-06 1.21929e-05 0 -7.86503e-06 9.24867e-06 0 -1.02511e-05 5.83005e-06 0 -1.10668e-05 3.19324e-06 0 -1.11399e-05 1.36337e-06 0 -1.08527e-05 1.39806e-07 0 -1.03817e-05 -6.59926e-07 0 -9.81636e-06 -1.16714e-06 0 -9.20643e-06 -1.471e-06 0 -8.58185e-06 -1.64228e-06 0 -7.96079e-06 -1.72195e-06 0 -7.35506e-06 -1.73514e-06 0 -6.77172e-06 -1.71112e-06 0 -6.21486e-06 -1.66016e-06 0 -5.68659e-06 -1.59374e-06 0 -5.18755e-06 -1.51948e-06 0 -4.71742e-06 -1.44142e-06 0 -4.2752e-06 -1.36343e-06 0 -3.85949e-06 -1.28763e-06 0 -3.46857e-06 -1.21587e-06 0 -3.10056e-06 -1.14853e-06 0 -2.75352e-06 -1.08687e-06 0 -2.42539e-06 -1.03096e-06 0 -2.11418e-06 -9.80566e-07 0 -1.8179e-06 -9.36914e-07 0 -1.53453e-06 -8.9888e-07 0 -1.26219e-06 -8.66769e-07 0 -9.98937e-07 -8.4096e-07 0 -7.42913e-07 -8.20582e-07 0 -4.92299e-07 -8.06339e-07 0 -2.4525e-07 -7.97819e-07 0 0 -7.94604e-07 0 -3.47202e-06 1.45805e-05 0 -9.23291e-06 1.04509e-05 0 -1.13635e-05 6.24476e-06 0 -1.18385e-05 3.26242e-06 0 -1.16552e-05 1.27918e-06 0 -1.11903e-05 -1.7202e-08 0 -1.05978e-05 -8.52641e-07 0 -9.94962e-06 -1.3763e-06 0 -9.28333e-06 -1.68554e-06 0 -8.62051e-06 -1.8558e-06 0 -7.97382e-06 -1.9304e-06 0 -7.35112e-06 -1.93585e-06 0 -6.75684e-06 -1.90275e-06 0 -6.19324e-06 -1.84194e-06 0 -5.66114e-06 -1.76542e-06 0 -5.16028e-06 -1.68113e-06 0 -4.68971e-06 -1.5934e-06 0 -4.24799e-06 -1.50619e-06 0 -3.83343e-06 -1.42173e-06 0 -3.44406e-06 -1.34198e-06 0 -3.07788e-06 -1.26728e-06 0 -2.73282e-06 -1.19895e-06 0 -2.40677e-06 -1.13707e-06 0 -2.09768e-06 -1.08133e-06 0 -1.80352e-06 -1.03308e-06 0 -1.52227e-06 -9.9105e-07 0 -1.25202e-06 -9.5558e-07 0 -9.90839e-07 -9.27078e-07 0 -7.36863e-07 -9.04579e-07 0 -4.88278e-07 -8.88854e-07 0 -2.43243e-07 -8.7945e-07 0 0 -8.75901e-07 0 -4.57277e-06 1.75624e-05 0 -1.10185e-05 1.16046e-05 0 -1.26454e-05 6.51313e-06 0 -1.26778e-05 3.22092e-06 0 -1.21999e-05 1.11991e-06 0 -1.15413e-05 -2.24756e-07 0 -1.08198e-05 -1.07954e-06 0 -1.00847e-05 -1.60865e-06 0 -9.35977e-06 -1.91584e-06 0 -8.65733e-06 -2.07993e-06 0 -7.98416e-06 -2.14588e-06 0 -7.344e-06 -2.14116e-06 0 -6.73853e-06 -2.09726e-06 0 -6.16812e-06 -2.02542e-06 0 -5.63221e-06 -1.93799e-06 0 -5.12963e-06 -1.84311e-06 0 -4.65879e-06 -1.74533e-06 0 -4.21777e-06 -1.64863e-06 0 -3.80457e-06 -1.55534e-06 0 -3.41699e-06 -1.46749e-06 0 -3.05286e-06 -1.38534e-06 0 -2.71002e-06 -1.31032e-06 0 -2.38627e-06 -1.24245e-06 0 -2.07952e-06 -1.18135e-06 0 -1.7877e-06 -1.12849e-06 0 -1.50879e-06 -1.08248e-06 0 -1.24085e-06 -1.04366e-06 0 -9.81942e-07 -1.01248e-06 0 -7.30217e-07 -9.87863e-07 0 -4.83861e-07 -9.70664e-07 0 -2.41038e-07 -9.60378e-07 0 0 -9.56496e-07 0 -6.44131e-06 2.14244e-05 0 -1.33228e-05 1.2562e-05 0 -1.40817e-05 6.57707e-06 0 -1.35677e-05 3.04979e-06 0 -1.27629e-05 8.78538e-07 0 -1.18987e-05 -4.85865e-07 0 -1.1043e-05 -1.34208e-06 0 -1.02186e-05 -1.86498e-06 0 -9.43366e-06 -2.16234e-06 0 -8.69085e-06 -2.31492e-06 0 -7.9908e-06 -2.36853e-06 0 -7.33301e-06 -2.35116e-06 0 -6.71632e-06 -2.29468e-06 0 -6.13915e-06 -2.2106e-06 0 -5.59956e-06 -2.11142e-06 0 -5.09545e-06 -2.00534e-06 0 -4.62455e-06 -1.89713e-06 0 -4.18446e-06 -1.79068e-06 0 -3.77285e-06 -1.68837e-06 0 -3.3873e-06 -1.59231e-06 0 -3.02547e-06 -1.50265e-06 0 -2.68509e-06 -1.42089e-06 0 -2.36387e-06 -1.347e-06 0 -2.0597e-06 -1.28054e-06 0 -1.77045e-06 -1.2231e-06 0 -1.49409e-06 -1.17311e-06 0 -1.22867e-06 -1.13094e-06 0 -9.72245e-07 -1.09708e-06 0 -7.22975e-07 -1.07037e-06 0 -4.79048e-07 -1.0517e-06 0 -2.38637e-07 -1.04054e-06 0 0 -1.03632e-06 0 -9.98526e-06 2.66021e-05 0 -1.61848e-05 1.30641e-05 0 -1.56306e-05 6.37698e-06 0 -1.44846e-05 2.7335e-06 0 -1.33312e-05 5.50108e-07 0 -1.22547e-05 -8.0239e-07 0 -1.12626e-05 -1.64107e-06 0 -1.03481e-05 -2.14565e-06 0 -9.50284e-06 -2.42525e-06 0 -8.71961e-06 -2.56087e-06 0 -7.99275e-06 -2.59838e-06 0 -7.31744e-06 -2.56583e-06 0 -6.68971e-06 -2.49498e-06 0 -6.106e-06 -2.39743e-06 0 -5.56298e-06 -2.28564e-06 0 -5.05759e-06 -2.16777e-06 0 -4.58688e-06 -2.04873e-06 0 -4.14798e-06 -1.93225e-06 0 -3.73824e-06 -1.82074e-06 0 -3.35497e-06 -1.71636e-06 0 -2.9957e-06 -1.61911e-06 0 -2.65802e-06 -1.53059e-06 0 -2.33959e-06 -1.45067e-06 0 -2.03822e-06 -1.37885e-06 0 -1.75177e-06 -1.31681e-06 0 -1.47817e-06 -1.26285e-06 0 -1.21548e-06 -1.21736e-06 0 -9.61753e-07 -1.18084e-06 0 -7.15141e-07 -1.15202e-06 0 -4.73843e-07 -1.1319e-06 0 -2.3604e-07 -1.11986e-06 0 0 -1.11532e-06 0 -1.78364e-05 3.38173e-05 0 -1.94614e-05 1.27672e-05 0 -1.72216e-05 5.86678e-06 0 -1.53994e-05 2.26286e-06 0 -1.38904e-05 1.32393e-07 0 -1.26013e-05 -1.17486e-06 0 -1.14736e-05 -1.97656e-06 0 -1.04699e-05 -2.45061e-06 0 -9.56514e-06 -2.70446e-06 0 -8.74213e-06 -2.81768e-06 0 -7.98897e-06 -2.83533e-06 0 -7.2966e-06 -2.78509e-06 0 -6.65822e-06 -2.69806e-06 0 -6.06833e-06 -2.58579e-06 0 -5.52221e-06 -2.46055e-06 0 -5.01587e-06 -2.33028e-06 0 -4.54567e-06 -2.20002e-06 0 -4.10828e-06 -2.07325e-06 0 -3.70068e-06 -1.95236e-06 0 -3.31999e-06 -1.83955e-06 0 -2.96354e-06 -1.73466e-06 0 -2.62882e-06 -1.63932e-06 0 -2.31342e-06 -1.55336e-06 0 -2.01509e-06 -1.47617e-06 0 -1.73166e-06 -1.40955e-06 0 -1.46105e-06 -1.35164e-06 0 -1.2013e-06 -1.30283e-06 0 -9.50473e-07 -1.26366e-06 0 -7.0672e-07 -1.23277e-06 0 -4.68248e-07 -1.21119e-06 0 -2.33248e-07 -1.19829e-06 0 0 -1.19342e-06 0 -9.38973e-06 2.72296e-05 0 -2.27343e-05 1.1436e-05 0 -1.87634e-05 5.03135e-06 0 -1.62801e-05 1.63736e-06 0 -1.44256e-05 -3.73637e-07 0 -1.29302e-05 -1.60233e-06 0 -1.1671e-05 -2.34783e-06 0 -1.05808e-05 -2.77932e-06 0 -9.61841e-06 -2.9996e-06 0 -8.75694e-06 -3.08506e-06 0 -7.97846e-06 -3.07916e-06 0 -7.26978e-06 -3.00874e-06 0 -6.62136e-06 -2.90376e-06 0 -6.02581e-06 -2.77557e-06 0 -5.47704e-06 -2.63603e-06 0 -4.97015e-06 -2.49277e-06 0 -4.50083e-06 -2.3509e-06 0 -4.06527e-06 -2.21357e-06 0 -3.66014e-06 -2.08313e-06 0 -3.28231e-06 -1.96179e-06 0 -2.92896e-06 -1.84918e-06 0 -2.59748e-06 -1.74701e-06 0 -2.28535e-06 -1.655e-06 0 -1.9903e-06 -1.57245e-06 0 -1.71012e-06 -1.50126e-06 0 -1.44272e-06 -1.4394e-06 0 -1.18613e-06 -1.3873e-06 0 -9.38408e-07 -1.34549e-06 0 -6.97715e-07 -1.31253e-06 0 -4.62266e-07 -1.28951e-06 0 -2.30264e-07 -1.27575e-06 0 0 -1.27056e-06 0 </DataArray> 
</PointData> 
<Points> 
<DataArray type="Float32" NumberOfComponents="3"> 