<?xml version="1.0"?> 
<VTKFile type="StructuredGrid" version="0.1"> 
<StructuredGrid WholeExtent="0 31 0 31 0 0"> 
<Piece Extent="0 31 0 31 0 0"> 
<PointData>
<DataArray type="Float32" Name="B" format="ascii" NumberOfComponents="3"> 
-4.50532e-06 -5.27502e-05 0 0.000130171 -6.57859e-07 0 0.00013255 9.35839e-07 0 0.000143957 1.40835e-06 0 0.00015879 1.63627e-06 0 0.000175234 1.73157e-06 0 0.000192106 1.71881e-06 0 0.000208443 1.61741e-06 0 0.00022351 1.45372e-06 0 0.000236835 1.25679e-06 0 0.000248188 1.04756e-06 0 0.000257503 8.39558e-07 0 0.000264817 6.39213e-07 0 0.000270203 4.48192e-07 0 0.000273741 2.65303e-07 0 0.000275494 8.78039e-08 0 0.000275494 -8.78039e-08 0 0.000273741 -2.65303e-07 0 0.000270203 -4.48192e-07 0 0.000264817 -6.39213e-07 0 0.000257503 -8.39558e-07 0 0.000248188 -1.04756e-06 0 0.000236835 -1.25679e-06 0 0.00022351 -1.45372e-06 0 0.000208443 -1.61741e-06 0 0.000192106 -1.71881e-06 0 0.000175234 -1.73157e-06 0 0.00015879 -1.63627e-06 0 0.000143957 -1.40835e-06 0 0.00013255 -9.35839e-07 0 0.000130171 6.57859e-07 0 -4.50532e-06 5.27502e-05 0 1.63126e-05 -0.000303506 0 -3.256e-06 5.9003e-08 0 -3.35133e-06 -9.03083e-09 0 -3.66426e-06 -1.29567e-08 0 -4.06114e-06 -1.49128e-08 0 -4.49838e-06 -1.57321e-08 0 -4.94566e-06 -1.55786e-08 0 -5.37742e-06 -1.46156e-08 0 -5.7741e-06 -1.30901e-08 0 -6.12349e-06 -1.12754e-08 0 -6.41991e-06 -9.3661e-09 0 -6.66226e-06 -7.4841e-09 0 -6.85194e-06 -5.68449e-09 0 -6.9913e-06 -3.9786e-09 0 -7.0827e-06 -2.35229e-09 0 -7.12792e-06 -7.78039e-10 0 -7.12792e-06 7.78039e-10 0 -7.0827e-06 2.35229e-09 0 -6.9913e-06 3.9786e-09 0 -6.85194e-06 5.68449e-09 0 -6.66226e-06 7.4841e-09 0 -6.41991e-06 9.3661e-09 0 -6.12349e-06 1.12754e-08 0 -5.7741e-06 1.30901e-08 0 -5.37742e-06 1.46156e-08 0 -4.94566e-06 1.55786e-08 0 -4.49838e-06 1.57321e-08 0 -4.06114e-06 1.49128e-08 0 -3.66426e-06 1.29567e-08 0 -3.35133e-06 9.03083e-09 0 -3.256e-06 -5.9003e-08 0 1.63126e-05 0.000303506 0 9.4828e-06 -0.00022735 0 1.35579e-08 3.90323e-08 0 1.42528e-08 -6.73971e-11 0 1.57732e-08 -1.1815e-10 0 1.76267e-08 -1.38944e-10 0 1.96486e-08 -1.47602e-10 0 2.17073e-08 -1.46945e-10 0 2.36847e-08 -1.3878e-10 0 2.54904e-08 -1.25265e-10 0 2.70701e-08 -1.08768e-10 0 2.84014e-08 -9.10253e-11 0 2.94833e-08 -7.32013e-11 0 3.03259e-08 -5.58857e-11 0 3.09425e-08 -3.92647e-11 0 3.13457e-08 -2.32736e-11 0 3.15449e-08 -7.70772e-12 0 3.15449e-08 7.70772e-12 0 3.13457e-08 2.32736e-11 0 3.09425e-08 3.92647e-11 0 3.03259e-08 5.58857e-11 0 2.94833e-08 7.32013e-11 0 2.84014e-08 9.10253e-11 0 2.70701e-08 1.08768e-10 0 2.54904e-08 1.25265e-10 0 2.36847e-08 1.3878e-10 0 2.17073e-08 1.46945e-10 0 1.96486e-08 1.47602e-10 0 1.76267e-08 1.38944e-10 0 1.57732e-08 1.1815e-10 0 1.42528e-08 6.73971e-11 0 1.35579e-08 -3.90323e-08 0 9.4828e-06 0.00022735 0 6.2416e-06 -0.000179463 0 4.90457e-10 2.96578e-08 0 4.64908e-10 7.19419e-12 0 5.06114e-10 3.67341e-12 0 5.59295e-10 4.25834e-12 0 6.18117e-10 4.50347e-12 0 6.78401e-10 4.46808e-12 0 7.36705e-10 4.20197e-12 0 7.904e-10 3.77403e-12 0 8.37815e-10 3.26033e-12 0 8.78144e-10 2.71563e-12 0 9.11192e-10 2.17504e-12 0 9.37104e-10 1.65516e-12 0 9.5617e-10 1.16008e-12 0 9.68686e-10 6.86523e-13 0 9.74883e-10 2.27179e-13 0 9.74883e-10 -2.27179e-13 0 9.68686e-10 -6.86523e-13 0 9.5617e-10 -1.16008e-12 0 9.37104e-10 -1.65516e-12 0 9.11192e-10 -2.17504e-12 0 8.78144e-10 -2.71563e-12 0 8.37815e-10 -3.26033e-12 0 7.904e-10 -3.77403e-12 0 7.36705e-10 -4.20197e-12 0 6.78401e-10 -4.46808e-12 0 6.18117e-10 -4.50347e-12 0 5.59295e-10 -4.25834e-12 0 5.06114e-10 -3.67341e-12 0 4.64908e-10 -7.19419e-12 0 4.90457e-10 -2.96578e-08 0 6.2416e-06 0.000179463 0 4.4799e-06 -0.000145664 0 2.40506e-11 2.36328e-08 0 -7.3781e-12 3.91175e-12 0 -8.10297e-12 -1.67449e-14 0 -8.9908e-12 -2.06565e-14 0 -9.96768e-12 -2.17198e-14 0 -1.09663e-11 -2.14537e-14 0 -1.19296e-11 -2.00646e-14 0 -1.28139e-11 -1.79039e-14 0 -1.3592e-11 -1.53625e-14 0 -1.42515e-11 -1.27152e-14 0 -1.47903e-11 -1.01286e-14 0 -1.52117e-11 -7.67378e-15 0 -1.55211e-11 -5.36078e-15 0 -1.57239e-11 -3.16552e-15 0 -1.58242e-11 -1.04636e-15 0 -1.58242e-11 1.04636e-15 0 -1.57239e-11 3.16552e-15 0 -1.55211e-11 5.36078e-15 0 -1.52117e-11 7.67378e-15 0 -1.47903e-11 1.01286e-14 0 -1.42515e-11 1.27152e-14 0 -1.3592e-11 1.53625e-14 0 -1.28139e-11 1.79039e-14 0 -1.19296e-11 2.00646e-14 0 -1.09663e-11 2.14537e-14 0 -9.96768e-12 2.17198e-14 0 -8.9908e-12 2.06565e-14 0 -8.10297e-12 1.67449e-14 0 -7.3781e-12 -3.91175e-12 0 2.40506e-11 -2.36328e-08 0 4.4799e-06 0.000145664 0 3.42309e-06 -0.000120279 0 2.65677e-11 1.93125e-08 0 1.783e-14 3.27636e-12 0 -3.76815e-15 6.69264e-16 0 -3.63218e-15 -5.54499e-16 0 -3.6727e-15 -5.88232e-16 0 -3.74232e-15 -5.84696e-16 0 -3.83778e-15 -5.51146e-16 0 -3.95741e-15 -4.96355e-16 0 -4.09365e-15 -4.29979e-16 0 -4.23475e-15 -3.59053e-16 0 -4.36867e-15 -2.882e-16 0 -4.48553e-15 -2.19691e-16 0 -4.57823e-15 -1.54176e-16 0 -4.64221e-15 -9.13166e-17 0 -4.6748e-15 -3.02306e-17 0 -4.6748e-15 3.02306e-17 0 -4.64221e-15 9.13166e-17 0 -4.57823e-15 1.54176e-16 0 -4.48553e-15 2.19691e-16 0 -4.36867e-15 2.882e-16 0 -4.23475e-15 3.59053e-16 0 -4.09365e-15 4.29979e-16 0 -3.95741e-15 4.96355e-16 0 -3.83778e-15 5.51146e-16 0 -3.74232e-15 5.84696e-16 0 -3.6727e-15 5.88232e-16 0 -3.63218e-15 5.54499e-16 0 -3.76815e-15 -6.69264e-16 0 1.783e-14 -3.27636e-12 0 2.65677e-11 -1.93125e-08 0 3.42309e-06 0.000120279 0 2.74077e-06 -0.000100264 0 2.25593e-11 1.59988e-08 0 2.15427e-14 2.74853e-12 0 1.45754e-15 9.60825e-16 0 1.71654e-15 1.01466e-17 0 1.89887e-15 1.03926e-17 0 2.08558e-15 1.0306e-17 0 2.26603e-15 9.68555e-18 0 2.43206e-15 8.69215e-18 0 2.57853e-15 7.5027e-18 0 2.70298e-15 6.24428e-18 0 2.80487e-15 4.99782e-18 0 2.8847e-15 3.80109e-18 0 2.9434e-15 2.66303e-18 0 2.98191e-15 1.57551e-18 0 3.00098e-15 5.21283e-19 0 3.00098e-15 -5.21283e-19 0 2.98191e-15 -1.57551e-18 0 2.9434e-15 -2.66303e-18 0 2.8847e-15 -3.80109e-18 0 2.80487e-15 -4.99782e-18 0 2.70298e-15 -6.24428e-18 0 2.57853e-15 -7.5027e-18 0 2.43206e-15 -8.69215e-18 0 2.26603e-15 -9.68555e-18 0 2.08558e-15 -1.0306e-17 0 1.89887e-15 -1.03926e-17 0 1.71654e-15 -1.01466e-17 0 1.45754e-15 -9.60825e-16 0 2.15427e-14 -2.74853e-12 0 2.25593e-11 -1.59988e-08 0 2.74077e-06 0.000100264 0 2.27658e-06 -8.3861e-05 0 1.93925e-11 1.3329e-08 0 1.81124e-14 2.30765e-12 0 -9.36124e-17 7.95805e-16 0 -1.79428e-17 2.64474e-19 0 -1.99037e-17 -4.73439e-21 0 -2.19152e-17 -3.70318e-21 0 -2.3854e-17 -3.1645e-21 0 -2.56318e-17 -2.50792e-21 0 -2.71944e-17 -1.8705e-21 0 -2.85174e-17 -1.33058e-21 0 -2.95971e-17 -9.10213e-22 0 -3.04408e-17 -5.98028e-22 0 -3.10599e-17 -3.69899e-22 0 -3.14656e-17 -1.99654e-22 0 -3.16662e-17 -6.28799e-23 0 -3.16662e-17 6.28799e-23 0 -3.14656e-17 1.99654e-22 0 -3.10599e-17 3.69899e-22 0 -3.04408e-17 5.98028e-22 0 -2.95971e-17 9.10213e-22 0 -2.85174e-17 1.33058e-21 0 -2.71944e-17 1.8705e-21 0 -2.56318e-17 2.50792e-21 0 -2.3854e-17 3.1645e-21 0 -2.19152e-17 3.70318e-21 0 -1.99037e-17 4.73439e-21 0 -1.79428e-17 -2.64474e-19 0 -9.36124e-17 -7.95805e-16 0 1.81124e-14 -2.30765e-12 0 1.93925e-11 -1.3329e-08 0 2.27658e-06 8.3861e-05 0 1.94979e-06 -6.99869e-05 0 1.69631e-11 1.10952e-08 0 1.62934e-14 1.93057e-12 0 -6.60007e-17 6.63726e-16 0 3.35157e-20 2.26761e-19 0 4.62307e-20 -2.45941e-21 0 5.16144e-20 -1.8413e-21 0 5.6734e-20 -1.73391e-21 0 6.13517e-20 -1.55973e-21 0 6.53357e-20 -1.34952e-21 0 6.86474e-20 -1.12564e-21 0 7.13055e-20 -9.02627e-22 0 7.33538e-20 -6.87515e-22 0 7.48405e-20 -4.822e-22 0 7.5807e-20 -2.85488e-22 0 7.62828e-20 -9.44927e-23 0 7.62828e-20 9.44927e-23 0 7.5807e-20 2.85488e-22 0 7.48405e-20 4.822e-22 0 7.33538e-20 6.87515e-22 0 7.13055e-20 9.02627e-22 0 6.86474e-20 1.12564e-21 0 6.53357e-20 1.34952e-21 0 6.13517e-20 1.55973e-21 0 5.6734e-20 1.73391e-21 0 5.16144e-20 1.8413e-21 0 4.62307e-20 2.45941e-21 0 3.35157e-20 -2.26761e-19 0 -6.60007e-17 -6.63726e-16 0 1.62934e-14 -1.93057e-12 0 1.69631e-11 -1.10952e-08 0 1.94979e-06 6.99869e-05 0 1.71177e-06 -5.79347e-05 0 1.50982e-11 9.16855e-09 0 1.47531e-14 1.6007e-12 0 -5.77715e-17 5.49179e-16 0 8.11419e-21 1.91491e-19 0 1.62694e-20 -5.87737e-22 0 1.78803e-20 -8.66653e-23 0 1.94352e-20 -8.16218e-23 0 2.08648e-20 -7.34584e-23 0 2.2125e-20 -6.35901e-23 0 2.3195e-20 -5.30649e-23 0 2.40703e-20 -4.25682e-23 0 2.47557e-20 -3.24336e-23 0 2.52595e-20 -2.27531e-23 0 2.559e-20 -1.3473e-23 0 2.57535e-20 -4.45974e-24 0 2.57535e-20 4.45974e-24 0 2.559e-20 1.3473e-23 0 2.52595e-20 2.27531e-23 0 2.47557e-20 3.24336e-23 0 2.40703e-20 4.25682e-23 0 2.3195e-20 5.30649e-23 0 2.2125e-20 6.35901e-23 0 2.08648e-20 7.34584e-23 0 1.94352e-20 8.16218e-23 0 1.78803e-20 8.66653e-23 0 1.62694e-20 5.87737e-22 0 8.11419e-21 -1.91491e-19 0 -5.77715e-17 -5.49179e-16 0 1.47531e-14 -1.6007e-12 0 1.50982e-11 -9.16855e-09 0 1.71177e-06 5.79347e-05 0 1.53689e-06 -4.72192e-05 0 1.36786e-11 7.46377e-09 0 1.35157e-14 1.30607e-12 0 -5.17615e-17 4.47456e-16 0 -5.04279e-21 1.57482e-19 0 1.02896e-21 -4.17133e-22 0 1.13138e-21 -9.55509e-24 0 1.22949e-21 -8.99619e-24 0 1.31973e-21 -8.11158e-24 0 1.39931e-21 -7.03531e-24 0 1.46692e-21 -5.88117e-24 0 1.52224e-21 -4.72486e-24 0 1.56558e-21 -3.60424e-24 0 1.59744e-21 -2.53071e-24 0 1.61835e-21 -1.49941e-24 0 1.62869e-21 -4.96466e-25 0 1.62869e-21 4.96466e-25 0 1.61835e-21 1.49941e-24 0 1.59744e-21 2.53071e-24 0 1.56558e-21 3.60424e-24 0 1.52224e-21 4.72486e-24 0 1.46692e-21 5.88117e-24 0 1.39931e-21 7.03531e-24 0 1.31973e-21 8.11158e-24 0 1.22949e-21 8.99619e-24 0 1.13138e-21 9.55509e-24 0 1.02896e-21 4.17133e-22 0 -5.04279e-21 -1.57482e-19 0 -5.17615e-17 -4.47456e-16 0 1.35157e-14 -1.30607e-12 0 1.36786e-11 -7.46377e-09 0 1.53689e-06 4.72192e-05 0 1.40809e-06 -3.74913e-05 0 1.26081e-11 5.92116e-09 0 1.25507e-14 1.03778e-12 0 -4.73481e-17 3.55188e-16 0 -5.44048e-21 1.25792e-19 0 7.79909e-23 -3.23671e-22 0 8.65938e-23 -3.3084e-25 0 9.41106e-23 -2.99886e-25 0 1.01024e-22 -2.74236e-25 0 1.0712e-22 -2.41256e-25 0 1.12298e-22 -2.04287e-25 0 1.16534e-22 -1.65901e-25 0 1.19852e-22 -1.27633e-25 0 1.22291e-22 -9.01782e-26 0 1.23891e-22 -5.36482e-26 0 1.24683e-22 -1.77996e-26 0 1.24683e-22 1.77996e-26 0 1.23891e-22 5.36482e-26 0 1.22291e-22 9.01782e-26 0 1.19852e-22 1.27633e-25 0 1.16534e-22 1.65901e-25 0 1.12298e-22 2.04287e-25 0 1.0712e-22 2.41256e-25 0 1.01024e-22 2.74236e-25 0 9.41106e-23 2.99886e-25 0 8.65938e-23 3.3084e-25 0 7.79909e-23 3.23671e-22 0 -5.44048e-21 -1.25792e-19 0 -4.73481e-17 -3.55188e-16 0 1.25507e-14 -1.03778e-12 0 1.26081e-11 -5.92116e-09 0 1.40809e-06 3.74913e-05 0 1.31457e-06 -2.84886e-05 0 1.18183e-11 4.49671e-09 0 1.18229e-14 7.88992e-13 0 -4.41541e-17 2.69852e-16 0 -5.16061e-21 9.59785e-20 0 9.77114e-24 -2.4549e-22 0 1.15947e-23 8.41179e-26 0 1.26107e-23 9.07055e-26 0 1.35443e-23 8.0916e-26 0 1.43661e-23 6.93971e-26 0 1.50629e-23 5.7413e-26 0 1.56322e-23 4.57161e-26 0 1.60776e-23 3.46251e-26 0 1.64047e-23 2.41829e-26 0 1.66192e-23 1.42777e-26 0 1.67253e-23 4.71912e-27 0 1.67253e-23 -4.71912e-27 0 1.66192e-23 -1.42777e-26 0 1.64047e-23 -2.41829e-26 0 1.60776e-23 -3.46251e-26 0 1.56322e-23 -4.57161e-26 0 1.50629e-23 -5.7413e-26 0 1.43661e-23 -6.93971e-26 0 1.35443e-23 -8.0916e-26 0 1.26107e-23 -9.07055e-26 0 1.15947e-23 -8.41179e-26 0 9.77114e-24 2.4549e-22 0 -5.16061e-21 -9.59785e-20 0 -4.41541e-17 -2.69852e-16 0 1.18229e-14 -7.88992e-13 0 1.18183e-11 -4.49671e-09 0 1.31457e-06 2.84886e-05 0 1.24936e-06 -2.00046e-05 0 1.12616e-11 3.15634e-09 0 1.13026e-14 5.54219e-13 0 -4.19322e-17 1.89466e-16 0 -4.92665e-21 6.75809e-20 0 1.8173e-24 -1.72366e-22 0 2.80552e-24 1.7577e-26 0 3.05063e-24 2.50263e-26 0 3.27634e-24 2.24433e-26 0 3.47505e-24 1.93477e-26 0 3.64355e-24 1.60836e-26 0 3.78126e-24 1.28599e-26 0 3.88899e-24 9.77249e-27 0 3.96811e-24 6.84232e-27 0 4.01999e-24 4.04641e-27 0 4.04566e-24 1.33854e-27 0 4.04566e-24 -1.33854e-27 0 4.01999e-24 -4.04641e-27 0 3.96811e-24 -6.84232e-27 0 3.88899e-24 -9.77249e-27 0 3.78126e-24 -1.28599e-26 0 3.64355e-24 -1.60836e-26 0 3.47505e-24 -1.93477e-26 0 3.27634e-24 -2.24433e-26 0 3.05063e-24 -2.50263e-26 0 2.80552e-24 -1.7577e-26 0 1.8173e-24 1.72366e-22 0 -4.92665e-21 -6.75809e-20 0 -4.19322e-17 -1.89466e-16 0 1.13026e-14 -5.54219e-13 0 1.12616e-11 -3.15634e-09 0 1.24936e-06 2.00046e-05 0 1.20801e-06 -1.18691e-05 0 1.09061e-11 1.87226e-09 0 1.09674e-14 3.28898e-13 0 -4.05257e-17 1.12405e-16 0 -4.77432e-21 4.01647e-20 0 -1.5981e-25 -1.02258e-22 0 6.05056e-25 -1.23627e-27 0 6.57075e-25 3.90882e-27 0 7.05469e-25 3.51617e-27 0 7.48117e-25 3.03651e-27 0 7.84317e-25 2.52831e-27 0 8.13925e-25 2.02436e-27 0 8.37104e-25 1.54007e-27 0 8.54139e-25 1.07919e-27 0 8.65312e-25 6.38563e-28 0 8.7084e-25 2.11294e-28 0 8.7084e-25 -2.11294e-28 0 8.65312e-25 -6.38563e-28 0 8.54139e-25 -1.07919e-27 0 8.37104e-25 -1.54007e-27 0 8.13925e-25 -2.02436e-27 0 7.84317e-25 -2.52831e-27 0 7.48117e-25 -3.03651e-27 0 7.05469e-25 -3.51617e-27 0 6.57075e-25 -3.90882e-27 0 6.05056e-25 1.23627e-27 0 -1.5981e-25 1.02258e-22 0 -4.77432e-21 -4.01647e-20 0 -4.05257e-17 -1.12405e-16 0 1.09674e-14 -3.28898e-13 0 1.09061e-11 -1.87226e-09 0 1.20801e-06 1.18691e-05 0 1.18789e-06 -3.93446e-06 0 1.07324e-11 6.20563e-10 0 1.08028e-14 1.09037e-13 0 -3.98417e-17 3.72599e-17 0 -4.69936e-21 1.33249e-20 0 -6.00119e-25 -3.38949e-23 0 1.08537e-25 -1.36107e-27 0 1.17239e-25 4.02727e-28 0 1.25816e-25 3.64176e-28 0 1.33386e-25 3.14863e-28 0 1.39821e-25 2.6245e-28 0 1.4509e-25 2.10331e-28 0 1.49219e-25 1.60131e-28 0 1.52257e-25 1.12272e-28 0 1.5425e-25 6.64558e-29 0 1.55236e-25 2.19935e-29 0 1.55236e-25 -2.19935e-29 0 1.5425e-25 -6.64558e-29 0 1.52257e-25 -1.12272e-28 0 1.49219e-25 -1.60131e-28 0 1.4509e-25 -2.10331e-28 0 1.39821e-25 -2.6245e-28 0 1.33386e-25 -3.14863e-28 0 1.25816e-25 -3.64176e-28 0 1.17239e-25 -4.02727e-28 0 1.08537e-25 1.36107e-27 0 -6.00119e-25 3.38949e-23 0 -4.69936e-21 -1.33249e-20 0 -3.98417e-17 -3.72599e-17 0 1.08028e-14 -1.09037e-13 0 1.07324e-11 -6.20563e-10 0 1.18789e-06 3.93446e-06 0 1.18789e-06 3.93446e-06 0 1.07324e-11 -6.20563e-10 0 1.08028e-14 -1.09037e-13 0 -3.98417e-17 -3.72599e-17 0 -4.69936e-21 -1.33249e-20 0 -6.00119e-25 3.38949e-23 0 1.08537e-25 1.36107e-27 0 1.17239e-25 -4.02727e-28 0 1.25816e-25 -3.64176e-28 0 1.33386e-25 -3.14863e-28 0 1.39821e-25 -2.6245e-28 0 1.4509e-25 -2.10331e-28 0 1.49219e-25 -1.60131e-28 0 1.52257e-25 -1.12272e-28 0 1.5425e-25 -6.64558e-29 0 1.55236e-25 -2.19935e-29 0 1.55236e-25 2.19935e-29 0 1.5425e-25 6.64558e-29 0 1.52257e-25 1.12272e-28 0 1.49219e-25 1.60131e-28 0 1.4509e-25 2.10331e-28 0 1.39821e-25 2.6245e-28 0 1.33386e-25 3.14863e-28 0 1.25816e-25 3.64176e-28 0 1.17239e-25 4.02727e-28 0 1.08537e-25 -1.36107e-27 0 -6.00119e-25 -3.38949e-23 0 -4.69936e-21 1.33249e-20 0 -3.98417e-17 3.72599e-17 0 1.08028e-14 1.09037e-13 0 1.07324e-11 6.20563e-10 0 1.18789e-06 -3.93446e-06 0 1.20801e-06 1.18691e-05 0 1.09061e-11 -1.87226e-09 0 1.09674e-14 -3.28898e-13 0 -4.05257e-17 -1.12405e-16 0 -4.77432e-21 -4.01647e-20 0 -1.5981e-25 1.02258e-22 0 6.05056e-25 1.23627e-27 0 6.57075e-25 -3.90882e-27 0 7.05469e-25 -3.51617e-27 0 7.48117e-25 -3.03651e-27 0 7.84317e-25 -2.52831e-27 0 8.13925e-25 -2.02436e-27 0 8.37104e-25 -1.54007e-27 0 8.54139e-25 -1.07919e-27 0 8.65312e-25 -6.38563e-28 0 8.7084e-25 -2.11294e-28 0 8.7084e-25 2.11294e-28 0 8.65312e-25 6.38563e-28 0 8.54139e-25 1.07919e-27 0 8.37104e-25 1.54007e-27 0 8.13925e-25 2.02436e-27 0 7.84317e-25 2.52831e-27 0 7.48117e-25 3.03651e-27 0 7.05469e-25 3.51617e-27 0 6.57075e-25 3.90882e-27 0 6.05056e-25 -1.23627e-27 0 -1.5981e-25 -1.02258e-22 0 -4.77432e-21 4.01647e-20 0 -4.05257e-17 1.12405e-16 0 1.09674e-14 3.28898e-13 0 1.09061e-11 1.87226e-09 0 1.20801e-06 -1.18691e-05 0 1.24936e-06 2.00046e-05 0 1.12616e-11 -3.15634e-09 0 1.13026e-14 -5.54219e-13 0 -4.19322e-17 -1.89466e-16 0 -4.92665e-21 -6.75809e-20 0 1.8173e-24 1.72366e-22 0 2.80552e-24 -1.7577e-26 0 3.05063e-24 -2.50263e-26 0 3.27634e-24 -2.24433e-26 0 3.47505e-24 -1.93477e-26 0 3.64355e-24 -1.60836e-26 0 3.78126e-24 -1.28599e-26 0 3.88899e-24 -9.77249e-27 0 3.96811e-24 -6.84232e-27 0 4.01999e-24 -4.04641e-27 0 4.04566e-24 -1.33854e-27 0 4.04566e-24 1.33854e-27 0 4.01999e-24 4.04641e-27 0 3.96811e-24 6.84232e-27 0 3.88899e-24 9.77249e-27 0 3.78126e-24 1.28599e-26 0 3.64355e-24 1.60836e-26 0 3.47505e-24 1.93477e-26 0 3.27634e-24 2.24433e-26 0 3.05063e-24 2.50263e-26 0 2.80552e-24 1.7577e-26 0 1.8173e-24 -1.72366e-22 0 -4.92665e-21 6.75809e-20 0 -4.19322e-17 1.89466e-16 0 1.13026e-14 5.54219e-13 0 1.12616e-11 3.15634e-09 0 1.24936e-06 -2.00046e-05 0 1.31457e-06 2.84886e-05 0 1.18183e-11 -4.49671e-09 0 1.18229e-14 -7.88992e-13 0 -4.41541e-17 -2.69852e-16 0 -5.16061e-21 -9.59785e-20 0 9.77114e-24 2.4549e-22 0 1.15947e-23 -8.41179e-26 0 1.26107e-23 -9.07055e-26 0 1.35443e-23 -8.0916e-26 0 1.43661e-23 -6.93971e-26 0 1.50629e-23 -5.7413e-26 0 1.56322e-23 -4.57161e-26 0 1.60776e-23 -3.46251e-26 0 1.64047e-23 -2.41829e-26 0 1.66192e-23 -1.42777e-26 0 1.67253e-23 -4.71912e-27 0 1.67253e-23 4.71912e-27 0 1.66192e-23 1.42777e-26 0 1.64047e-23 2.41829e-26 0 1.60776e-23 3.46251e-26 0 1.56322e-23 4.57161e-26 0 1.50629e-23 5.7413e-26 0 1.43661e-23 6.93971e-26 0 1.35443e-23 8.0916e-26 0 1.26107e-23 9.07055e-26 0 1.15947e-23 8.41179e-26 0 9.77114e-24 -2.4549e-22 0 -5.16061e-21 9.59785e-20 0 -4.41541e-17 2.69852e-16 0 1.18229e-14 7.88992e-13 0 1.18183e-11 4.49671e-09 0 1.31457e-06 -2.84886e-05 0 1.40809e-06 3.74913e-05 0 1.26081e-11 -5.92116e-09 0 1.25507e-14 -1.03778e-12 0 -4.73481e-17 -3.55188e-16 0 -5.44048e-21 -1.25792e-19 0 7.79909e-23 3.23671e-22 0 8.65938e-23 3.3084e-25 0 9.41106e-23 2.99886e-25 0 1.01024e-22 2.74236e-25 0 1.0712e-22 2.41256e-25 0 1.12298e-22 2.04287e-25 0 1.16534e-22 1.65901e-25 0 1.19852e-22 1.27633e-25 0 1.22291e-22 9.01782e-26 0 1.23891e-22 5.36482e-26 0 1.24683e-22 1.77996e-26 0 1.24683e-22 -1.77996e-26 0 1.23891e-22 -5.36482e-26 0 1.22291e-22 -9.01782e-26 0 1.19852e-22 -1.27633e-25 0 1.16534e-22 -1.65901e-25 0 1.12298e-22 -2.04287e-25 0 1.0712e-22 -2.41256e-25 0 1.01024e-22 -2.74236e-25 0 9.41106e-23 -2.99886e-25 0 8.65938e-23 -3.3084e-25 0 7.79909e-23 -3.23671e-22 0 -5.44048e-21 1.25792e-19 0 -4.73481e-17 3.55188e-16 0 1.25507e-14 1.03778e-12 0 1.26081e-11 5.92116e-09 0 1.40809e-06 -3.74913e-05 0 1.53689e-06 4.72192e-05 0 1.36786e-11 -7.46377e-09 0 1.35157e-14 -1.30607e-12 0 -5.17615e-17 -4.47456e-16 0 -5.04279e-21 -1.57482e-19 0 1.02896e-21 4.17133e-22 0 1.13138e-21 9.55509e-24 0 1.22949e-21 8.99619e-24 0 1.31973e-21 8.11158e-24 0 1.39931e-21 7.03531e-24 0 1.46692e-21 5.88117e-24 0 1.52224e-21 4.72486e-24 0 1.56558e-21 3.60424e-24 0 1.59744e-21 2.53071e-24 0 1.61835e-21 1.49941e-24 0 1.62869e-21 4.96466e-25 0 1.62869e-21 -4.96466e-25 0 1.61835e-21 -1.49941e-24 0 1.59744e-21 -2.53071e-24 0 1.56558e-21 -3.60424e-24 0 1.52224e-21 -4.72486e-24 0 1.46692e-21 -5.88117e-24 0 1.39931e-21 -7.03531e-24 0 1.31973e-21 -8.11158e-24 0 1.22949e-21 -8.99619e-24 0 1.13138e-21 -9.55509e-24 0 1.02896e-21 -4.17133e-22 0 -5.04279e-21 1.57482e-19 0 -5.17615e-17 4.47456e-16 0 1.35157e-14 1.30607e-12 0 1.36786e-11 7.46377e-09 0 1.53689e-06 -4.72192e-05 0 1.71177e-06 5.79347e-05 0 1.50982e-11 -9.16855e-09 0 1.47531e-14 -1.6007e-12 0 -5.77715e-17 -5.49179e-16 0 8.11419e-21 -1.91491e-19 0 1.62694e-20 5.87737e-22 0 1.78803e-20 8.66653e-23 0 1.94352e-20 8.16218e-23 0 2.08648e-20 7.34584e-23 0 2.2125e-20 6.35901e-23 0 2.3195e-20 5.30649e-23 0 2.40703e-20 4.25682e-23 0 2.47557e-20 3.24336e-23 0 2.52595e-20 2.27531e-23 0 2.559e-20 1.3473e-23 0 2.57535e-20 4.45974e-24 0 2.57535e-20 -4.45974e-24 0 2.559e-20 -1.3473e-23 0 2.52595e-20 -2.27531e-23 0 2.47557e-20 -3.24336e-23 0 2.40703e-20 -4.25682e-23 0 2.3195e-20 -5.30649e-23 0 2.2125e-20 -6.35901e-23 0 2.08648e-20 -7.34584e-23 0 1.94352e-20 -8.16218e-23 0 1.78803e-20 -8.66653e-23 0 1.62694e-20 -5.87737e-22 0 8.11419e-21 1.91491e-19 0 -5.77715e-17 5.49179e-16 0 1.47531e-14 1.6007e-12 0 1.50982e-11 9.16855e-09 0 1.71177e-06 -5.79347e-05 0 1.94979e-06 6.99869e-05 0 1.69631e-11 -1.10952e-08 0 1.62934e-14 -1.93057e-12 0 -6.60007e-17 -6.63726e-16 0 3.35157e-20 -2.26761e-19 0 4.62307e-20 2.45941e-21 0 5.16144e-20 1.8413e-21 0 5.6734e-20 1.73391e-21 0 6.13517e-20 1.55973e-21 0 6.53357e-20 1.34952e-21 0 6.86474e-20 1.12564e-21 0 7.13055e-20 9.02627e-22 0 7.33538e-20 6.87515e-22 0 7.48405e-20 4.822e-22 0 7.5807e-20 2.85488e-22 0 7.62828e-20 9.44927e-23 0 7.62828e-20 -9.44927e-23 0 7.5807e-20 -2.85488e-22 0 7.48405e-20 -4.822e-22 0 7.33538e-20 -6.87515e-22 0 7.13055e-20 -9.02627e-22 0 6.86474e-20 -1.12564e-21 0 6.53357e-20 -1.34952e-21 0 6.13517e-20 -1.55973e-21 0 5.6734e-20 -1.73391e-21 0 5.16144e-20 -1.8413e-21 0 4.62307e-20 -2.45941e-21 0 3.35157e-20 2.26761e-19 0 -6.60007e-17 6.63726e-16 0 1.62934e-14 1.93057e-12 0 1.69631e-11 1.10952e-08 0 1.94979e-06 -6.99869e-05 0 2.27658e-06 8.3861e-05 0 1.93925e-11 -1.3329e-08 0 1.81124e-14 -2.30765e-12 0 -9.36124e-17 -7.95805e-16 0 -1.79428e-17 -2.64474e-19 0 -1.99037e-17 4.73439e-21 0 -2.19152e-17 3.70318e-21 0 -2.3854e-17 3.1645e-21 0 -2.56318e-17 2.50792e-21 0 -2.71944e-17 1.8705e-21 0 -2.85174e-17 1.33058e-21 0 -2.95971e-17 9.10213e-22 0 -3.04408e-17 5.98028e-22 0 -3.10599e-17 3.69899e-22 0 -3.14656e-17 1.99654e-22 0 -3.16662e-17 6.28799e-23 0 -3.16662e-17 -6.28799e-23 0 -3.14656e-17 -1.99654e-22 0 -3.10599e-17 -3.69899e-22 0 -3.04408e-17 -5.98028e-22 0 -2.95971e-17 -9.10213e-22 0 -2.85174e-17 -1.33058e-21 0 -2.71944e-17 -1.8705e-21 0 -2.56318e-17 -2.50792e-21 0 -2.3854e-17 -3.1645e-21 0 -2.19152e-17 -3.70318e-21 0 -1.99037e-17 -4.73439e-21 0 -1.79428e-17 2.64474e-19 0 -9.36124e-17 7.95805e-16 0 1.81124e-14 2.30765e-12 0 1.93925e-11 1.3329e-08 0 2.27658e-06 -8.3861e-05 0 2.74077e-06 0.000100264 0 2.25593e-11 -1.59988e-08 0 2.15427e-14 -2.74853e-12 0 1.45754e-15 -9.60825e-16 0 1.71654e-15 -1.01466e-17 0 1.89887e-15 -1.03926e-17 0 2.08558e-15 -1.0306e-17 0 2.26603e-15 -9.68555e-18 0 2.43206e-15 -8.69215e-18 0 2.57853e-15 -7.5027e-18 0 2.70298e-15 -6.24428e-18 0 2.80487e-15 -4.99782e-18 0 2.8847e-15 -3.80109e-18 0 2.9434e-15 -2.66303e-18 0 2.98191e-15 -1.57551e-18 0 3.00098e-15 -5.21283e-19 0 3.00098e-15 5.21283e-19 0 2.98191e-15 1.57551e-18 0 2.9434e-15 2.66303e-18 0 2.8847e-15 3.80109e-18 0 2.80487e-15 4.99782e-18 0 2.70298e-15 6.24428e-18 0 2.57853e-15 7.5027e-18 0 2.43206e-15 8.69215e-18 0 2.26603e-15 9.68555e-18 0 2.08558e-15 1.0306e-17 0 1.89887e-15 1.03926e-17 0 1.71654e-15 1.01466e-17 0 1.45754e-15 9.60825e-16 0 2.15427e-14 2.74853e-12 0 2.25593e-11 1.59988e-08 0 2.74077e-06 -0.000100264 0 3.42309e-06 0.000120279 0 2.65677e-11 -1.93125e-08 0 1.783e-14 -3.27636e-12 0 -3.76815e-15 -6.69264e-16 0 -3.63218e-15 5.54499e-16 0 -3.6727e-15 5.88232e-16 0 -3.74232e-15 5.84696e-16 0 -3.83778e-15 5.51146e-16 0 -3.95741e-15 4.96355e-16 0 -4.09365e-15 4.29979e-16 0 -4.23475e-15 3.59053e-16 0 -4.36867e-15 2.882e-16 0 -4.48553e-15 2.19691e-16 0 -4.57823e-15 1.54176e-16 0 -4.64221e-15 9.13166e-17 0 -4.6748e-15 3.02306e-17 0 -4.6748e-15 -3.02306e-17 0 -4.64221e-15 -9.13166e-17 0 -4.57823e-15 -1.54176e-16 0 -4.48553e-15 -2.19691e-16 0 -4.36867e-15 -2.882e-16 0 -4.23475e-15 -3.59053e-16 0 -4.09365e-15 -4.29979e-16 0 -3.95741e-15 -4.96355e-16 0 -3.83778e-15 -5.51146e-16 0 -3.74232e-15 -5.84696e-16 0 -3.6727e-15 -5.88232e-16 0 -3.63218e-15 -5.54499e-16 0 -3.76815e-15 6.69264e-16 0 1.783e-14 3.27636e-12 0 2.65677e-11 1.93125e-08 0 3.42309e-06 -0.000120279 0 4.4799e-06 0.000145664 0 2.40506e-11 -2.36328e-08 0 -7.3781e-12 -3.91175e-12 0 -8.10297e-12 1.67449e-14 0 -8.9908e-12 2.06565e-14 0 -9.96768e-12 2.17198e-14 0 -1.09663e-11 2.14537e-14 0 -1.19296e-11 2.00646e-14 0 -1.28139e-11 1.79039e-14 0 -1.3592e-11 1.53625e-14 0 -1.42515e-11 1.27152e-14 0 -1.47903e-11 1.01286e-14 0 -1.52117e-11 7.67378e-15 0 -1.55211e-11 5.36078e-15 0 -1.57239e-11 3.16552e-15 0 -1.58242e-11 1.04636e-15 0 -1.58242e-11 -1.04636e-15 0 -1.57239e-11 -3.16552e-15 0 -1.55211e-11 -5.36078e-15 0 -1.52117e-11 -7.67378e-15 0 -1.47903e-11 -1.01286e-14 0 -1.42515e-11 -1.27152e-14 0 -1.3592e-11 -1.53625e-14 0 -1.28139e-11 -1.79039e-14 0 -1.19296e-11 -2.00646e-14 0 -1.09663e-11 -2.14537e-14 0 -9.96768e-12 -2.17198e-14 0 -8.9908e-12 -2.06565e-14 0 -8.10297e-12 -1.67449e-14 0 -7.3781e-12 3.91175e-12 0 2.40506e-11 2.36328e-08 0 4.4799e-06 -0.000145664 0 6.2416e-06 0.000179463 0 4.90457e-10 -2.96578e-08 0 4.64908e-10 -7.19419e-12 0 5.06114e-10 -3.67341e-12 0 5.59295e-10 -4.25834e-12 0 6.18117e-10 -4.50347e-12 0 6.78401e-10 -4.46808e-12 0 7.36705e-10 -4.20197e-12 0 7.904e-10 -3.77403e-12 0 8.37815e-10 -3.26033e-12 0 8.78144e-10 -2.71563e-12 0 9.11192e-10 -2.17504e-12 0 9.37104e-10 -1.65516e-12 0 9.5617e-10 -1.16008e-12 0 9.68686e-10 -6.86523e-13 0 9.74883e-10 -2.27179e-13 0 9.74883e-10 2.27179e-13 0 9.68686e-10 6.86523e-13 0 9.5617e-10 1.16008e-12 0 9.37104e-10 1.65516e-12 0 9.11192e-10 2.17504e-12 0 8.78144e-10 2.71563e-12 0 8.37815e-10 3.26033e-12 0 7.904e-10 3.77403e-12 0 7.36705e-10 4.20197e-12 0 6.78401e-10 4.46808e-12 0 6.18117e-10 4.50347e-12 0 5.59295e-10 4.25834e-12 0 5.06114e-10 3.67341e-12 0 4.64908e-10 7.19419e-12 0 4.90457e-10 2.96578e-08 0 6.2416e-06 -0.000179463 0 9.4828e-06 0.00022735 0 1.35579e-08 -3.90323e-08 0 1.42528e-08 6.73971e-11 0 1.57732e-08 1.1815e-10 0 1.76267e-08 1.38944e-10 0 1.96486e-08 1.47602e-10 0 2.17073e-08 1.46945e-10 0 2.36847e-08 1.3878e-10 0 2.54904e-08 1.25265e-10 0 2.70701e-08 1.08768e-10 0 2.84014e-08 9.10253e-11 0 2.94833e-08 7.32013e-11 0 3.03259e-08 5.58857e-11 0 3.09425e-08 3.92647e-11 0 3.13457e-08 2.32736e-11 0 3.15449e-08 7.70772e-12 0 3.15449e-08 -7.70772e-12 0 3.13457e-08 -2.32736e-11 0 3.09425e-08 -3.92647e-11 0 3.03259e-08 -5.58857e-11 0 2.94833e-08 -7.32013e-11 0 2.84014e-08 -9.10253e-11 0 2.70701e-08 -1.08768e-10 0 2.54904e-08 -1.25265e-10 0 2.36847e-08 -1.3878e-10 0 2.17073e-08 -1.46945e-10 0 1.96486e-08 -1.47602e-10 0 1.76267e-08 -1.38944e-10 0 1.57732e-08 -1.1815e-10 0 1.42528e-08 -6.73971e-11 0 1.35579e-08 3.90323e-08 0 9.4828e-06 -0.00022735 0 1.63126e-05 0.000303506 0 -3.256e-06 -5.9003e-08 0 -3.35133e-06 9.03083e-09 0 -3.66426e-06 1.29567e-08 0 -4.06114e-06 1.49128e-08 0 -4.49838e-06 1.57321e-08 0 -4.94566e-06 1.55786e-08 0 -5.37742e-06 1.46156e-08 0 -5.7741e-06 1.30901e-08 0 -6.12349e-06 1.12754e-08 0 -6.41991e-06 9.3661e-09 0 -6.66226e-06 7.4841e-09 0 -6.85194e-06 5.68449e-09 0 -6.9913e-06 3.9786e-09 0 -7.0827e-06 2.35229e-09 0 -7.12792e-06 7.78039e-10 0 -7.12792e-06 -7.78039e-10 0 -7.0827e-06 -2.35229e-09 0 -6.9913e-06 -3.9786e-09 0 -6.85194e-06 -5.68449e-09 0 -6.66226e-06 -7.4841e-09 0 -6.41991e-06 -9.3661e-09 0 -6.12349e-06 -1.12754e-08 0 -5.7741e-06 -1.30901e-08 0 -5.37742e-06 -1.46156e-08 0 -4.94566e-06 -1.55786e-08 0 -4.49838e-06 -1.57321e-08 0 -4.06114e-06 -1.49128e-08 0 -3.66426e-06 -1.29567e-08 0 -3.35133e-06 -9.03083e-09 0 -3.256e-06 5.9003e-08 0 1.63126e-05 -0.000303506 0 -4.50532e-06 5.27502e-05 0 0.000130171 6.57859e-07 0 0.00013255 -9.35839e-07 0 0.000143957 -1.40835e-06 0 0.00015879 -1.63627e-06 0 0.000175234 -1.73157e-06 0 0.000192106 -1.71881e-06 0 0.000208443 -1.61741e-06 0 0.00022351 -1.45372e-06 0 0.000236835 -1.25679e-06 0 0.000248188 -1.04756e-06 0 0.000257503 -8.39558e-07 0 0.000264817 -6.39213e-07 0 0.000270203 -4.48192e-07 0 0.000273741 -2.65303e-07 0 0.000275494 -8.78039e-08 0 0.000275494 8.78039e-08 0 0.000273741 2.65303e-07 0 0.000270203 4.48192e-07 0 0.000264817 6.39213e-07 0 0.000257503 8.39558e-07 0 0.000248188 1.04756e-06 0 0.000236835 1.25679e-06 0 0.00022351 1.45372e-06 0 0.000208443 1.61741e-06 0 0.000192106 1.71881e-06 0 0.000175234 1.73157e-06 0 0.00015879 1.63627e-06 0 0.000143957 1.40835e-06 0 0.00013255 9.35839e-07 0 0.000130171 -6.57859e-07 0 -4.50532e-06 -5.27502e-05 0 </DataArray> 
</PointData> 
<Points> 
<DataArray type="Float32" NumberOfComponents="3"> 