<?xml version="1.0"?> 
<VTKFile type="StructuredGrid" version="0.1"> 
<StructuredGrid WholeExtent="0 31 0 31 0 0"> 
<Piece Extent="0 31 0 31 0 0"> 
<PointData>
<DataArray type="Float32" Name="B" format="ascii" NumberOfComponents="3"> 
-1.72274e-05 -0 0 -1.82622e-05 -0 0 -1.92983e-05 -0 0 -2.0326e-05 -0 0 -2.13347e-05 -0 0 -2.23131e-05 -0 0 -2.32498e-05 -0 0 -2.41332e-05 -0 0 -2.4952e-05 -0 0 -2.56952e-05 -0 0 -2.63528e-05 -0 0 -2.69157e-05 -0 0 -2.73759e-05 -0 0 -2.7727e-05 -0 0 -2.79639e-05 -0 0 -2.80831e-05 -0 0 -2.80831e-05 -0 0 -2.79639e-05 -0 0 -2.7727e-05 -0 0 -2.73759e-05 -0 0 -2.69157e-05 -0 0 -2.63528e-05 -0 0 -2.56952e-05 -0 0 -2.4952e-05 -0 0 -2.41332e-05 -0 0 -2.32498e-05 -0 0 -2.23131e-05 -0 0 -2.13347e-05 -0 0 -2.0326e-05 -0 0 -1.92983e-05 -0 0 -1.82622e-05 -0 0 -1.72274e-05 -0 0 -1.72215e-05 1.03287e-06 0 -1.82613e-05 1.03899e-06 0 -1.9303e-05 1.03575e-06 0 -2.03366e-05 1.02227e-06 0 -2.13516e-05 9.97824e-07 0 -2.23365e-05 9.61924e-07 0 -2.32798e-05 9.14391e-07 0 -2.41696e-05 8.55297e-07 0 -2.49945e-05 7.84857e-07 0 -2.57435e-05 7.03978e-07 0 -2.64062e-05 6.13397e-07 0 -2.69736e-05 5.14239e-07 0 -2.74375e-05 4.07806e-07 0 -2.77914e-05 2.95556e-07 0 -2.80301e-05 1.79062e-07 0 -2.81504e-05 5.99803e-08 0 -2.81504e-05 -5.99803e-08 0 -2.80301e-05 -1.79062e-07 0 -2.77914e-05 -2.95556e-07 0 -2.74375e-05 -4.07806e-07 0 -2.69736e-05 -5.14239e-07 0 -2.64062e-05 -6.13397e-07 0 -2.57435e-05 -7.03978e-07 0 -2.49945e-05 -7.84857e-07 0 -2.41696e-05 -8.55297e-07 0 -2.32798e-05 -9.14391e-07 0 -2.23365e-05 -9.61924e-07 0 -2.13516e-05 -9.97824e-07 0 -2.03366e-05 -1.02227e-06 0 -1.9303e-05 -1.03575e-06 0 -1.82613e-05 -1.03899e-06 0 -1.72215e-05 -1.03287e-06 0 -1.72055e-05 2.07415e-06 0 -1.82586e-05 2.08744e-06 0 -1.93149e-05 2.08186e-06 0 -2.03645e-05 2.0556e-06 0 -2.13962e-05 2.0072e-06 0 -2.23985e-05 1.93562e-06 0 -2.33592e-05 1.84048e-06 0 -2.42661e-05 1.72194e-06 0 -2.51074e-05 1.58041e-06 0 -2.58716e-05 1.41776e-06 0 -2.65481e-05 1.23547e-06 0 -2.71273e-05 1.03583e-06 0 -2.76011e-05 8.21482e-07 0 -2.79625e-05 5.95386e-07 0 -2.82063e-05 3.60721e-07 0 -2.83292e-05 1.20831e-07 0 -2.83292e-05 -1.20831e-07 0 -2.82063e-05 -3.60721e-07 0 -2.79625e-05 -5.95386e-07 0 -2.76011e-05 -8.21482e-07 0 -2.71273e-05 -1.03583e-06 0 -2.65481e-05 -1.23547e-06 0 -2.58716e-05 -1.41776e-06 0 -2.51074e-05 -1.58041e-06 0 -2.42661e-05 -1.72194e-06 0 -2.33592e-05 -1.84048e-06 0 -2.23985e-05 -1.93562e-06 0 -2.13962e-05 -2.0072e-06 0 -2.03645e-05 -2.0556e-06 0 -1.93149e-05 -2.08186e-06 0 -1.82586e-05 -2.08744e-06 0 -1.72055e-05 -2.07415e-06 0 -1.71771e-05 3.13213e-06 0 -1.82524e-05 3.1547e-06 0 -1.93335e-05 3.14863e-06 0 -2.04099e-05 3.11105e-06 0 -2.14701e-05 3.03968e-06 0 -2.25017e-05 2.93285e-06 0 -2.3492e-05 2.78998e-06 0 -2.4428e-05 2.61126e-06 0 -2.5297e-05 2.39736e-06 0 -2.60871e-05 2.15112e-06 0 -2.67868e-05 1.87486e-06 0 -2.73861e-05 1.57209e-06 0 -2.78764e-05 1.24687e-06 0 -2.82506e-05 9.0374e-07 0 -2.85031e-05 5.47556e-07 0 -2.86302e-05 1.83418e-07 0 -2.86302e-05 -1.83418e-07 0 -2.85031e-05 -5.47556e-07 0 -2.82506e-05 -9.0374e-07 0 -2.78764e-05 -1.24687e-06 0 -2.73861e-05 -1.57209e-06 0 -2.67868e-05 -1.87486e-06 0 -2.60871e-05 -2.15112e-06 0 -2.5297e-05 -2.39736e-06 0 -2.4428e-05 -2.61126e-06 0 -2.3492e-05 -2.78998e-06 0 -2.25017e-05 -2.93285e-06 0 -2.14701e-05 -3.03968e-06 0 -2.04099e-05 -3.11105e-06 0 -1.93335e-05 -3.14863e-06 0 -1.82524e-05 -3.1547e-06 0 -1.71771e-05 -3.13213e-06 0 -1.71323e-05 4.2156e-06 0 -1.82397e-05 4.25079e-06 0 -1.93568e-05 4.24713e-06 0 -2.04724e-05 4.20055e-06 0 -2.15741e-05 4.10777e-06 0 -2.26486e-05 3.96642e-06 0 -2.36822e-05 3.77563e-06 0 -2.46606e-05 3.53563e-06 0 -2.55703e-05 3.24734e-06 0 -2.6398e-05 2.9147e-06 0 -2.71317e-05 2.54094e-06 0 -2.77604e-05 2.13092e-06 0 -2.82748e-05 1.69027e-06 0 -2.86675e-05 1.22519e-06 0 -2.89324e-05 7.42336e-07 0 -2.90659e-05 2.48668e-07 0 -2.90659e-05 -2.48668e-07 0 -2.89324e-05 -7.42336e-07 0 -2.86675e-05 -1.22519e-06 0 -2.82748e-05 -1.69027e-06 0 -2.77604e-05 -2.13092e-06 0 -2.71317e-05 -2.54094e-06 0 -2.6398e-05 -2.9147e-06 0 -2.55703e-05 -3.24734e-06 0 -2.46606e-05 -3.53563e-06 0 -2.36822e-05 -3.77563e-06 0 -2.26486e-05 -3.96642e-06 0 -2.15741e-05 -4.10777e-06 0 -2.04724e-05 -4.20055e-06 0 -1.93568e-05 -4.24713e-06 0 -1.82397e-05 -4.25079e-06 0 -1.71323e-05 -4.2156e-06 0 -1.70693e-05 5.33334e-06 0 -1.8218e-05 5.38587e-06 0 -1.93814e-05 5.38873e-06 0 -2.05476e-05 5.33643e-06 0 -2.17032e-05 5.22451e-06 0 -2.28335e-05 5.0497e-06 0 -2.39232e-05 4.81076e-06 0 -2.4957e-05 4.50794e-06 0 -2.59195e-05 4.14248e-06 0 -2.67962e-05 3.71954e-06 0 -2.75739e-05 3.24341e-06 0 -2.82405e-05 2.7205e-06 0 -2.87862e-05 2.15814e-06 0 -2.92026e-05 1.5644e-06 0 -2.94837e-05 9.47887e-07 0 -2.96253e-05 3.17526e-07 0 -2.96253e-05 -3.17526e-07 0 -2.94837e-05 -9.47887e-07 0 -2.92026e-05 -1.5644e-06 0 -2.87862e-05 -2.15814e-06 0 -2.82405e-05 -2.7205e-06 0 -2.75739e-05 -3.24341e-06 0 -2.67962e-05 -3.71954e-06 0 -2.59195e-05 -4.14248e-06 0 -2.4957e-05 -4.50794e-06 0 -2.39232e-05 -4.81076e-06 0 -2.28335e-05 -5.0497e-06 0 -2.17032e-05 -5.22451e-06 0 -2.05476e-05 -5.33643e-06 0 -1.93814e-05 -5.38873e-06 0 -1.8218e-05 -5.38587e-06 0 -1.70693e-05 -5.33334e-06 0 -1.69795e-05 6.4945e-06 0 -1.81803e-05 6.57067e-06 0 -1.94028e-05 6.58563e-06 0 -2.06339e-05 6.5321e-06 0 -2.18588e-05 6.40413e-06 0 -2.30612e-05 6.19734e-06 0 -2.42239e-05 5.90999e-06 0 -2.53292e-05 5.54234e-06 0 -2.636e-05 5.09602e-06 0 -2.72999e-05 4.57764e-06 0 -2.81341e-05 3.99275e-06 0 -2.88495e-05 3.34956e-06 0 -2.94351e-05 2.65737e-06 0 -2.9882e-05 1.92634e-06 0 -3.01835e-05 1.1672e-06 0 -3.03354e-05 3.9099e-07 0 -3.03354e-05 -3.9099e-07 0 -3.01835e-05 -1.1672e-06 0 -2.9882e-05 -1.92634e-06 0 -2.94351e-05 -2.65737e-06 0 -2.88495e-05 -3.34956e-06 0 -2.81341e-05 -3.99275e-06 0 -2.72999e-05 -4.57764e-06 0 -2.636e-05 -5.09602e-06 0 -2.53292e-05 -5.54234e-06 0 -2.42239e-05 -5.90999e-06 0 -2.30612e-05 -6.19734e-06 0 -2.18588e-05 -6.40413e-06 0 -2.06339e-05 -6.5321e-06 0 -1.94028e-05 -6.58563e-06 0 -1.81803e-05 -6.57067e-06 0 -1.69795e-05 -6.4945e-06 0 -1.6857e-05 7.70887e-06 0 -1.81207e-05 7.817e-06 0 -1.94152e-05 7.85147e-06 0 -2.0726e-05 7.80274e-06 0 -2.20365e-05 7.66291e-06 0 -2.33282e-05 7.42619e-06 0 -2.45812e-05 7.09015e-06 0 -2.57752e-05 6.65509e-06 0 -2.68905e-05 6.12311e-06 0 -2.79085e-05 5.50261e-06 0 -2.88122e-05 4.80073e-06 0 -2.95873e-05 4.02784e-06 0 -3.02215e-05 3.19557e-06 0 -3.07053e-05 2.31644e-06 0 -3.10317e-05 1.40351e-06 0 -3.1196e-05 4.70139e-07 0 -3.1196e-05 -4.70139e-07 0 -3.10317e-05 -1.40351e-06 0 -3.07053e-05 -2.31644e-06 0 -3.02215e-05 -3.19557e-06 0 -2.95873e-05 -4.02784e-06 0 -2.88122e-05 -4.80073e-06 0 -2.79085e-05 -5.50261e-06 0 -2.68905e-05 -6.12311e-06 0 -2.57752e-05 -6.65509e-06 0 -2.45812e-05 -7.09015e-06 0 -2.33282e-05 -7.42619e-06 0 -2.20365e-05 -7.66291e-06 0 -2.0726e-05 -7.80274e-06 0 -1.94152e-05 -7.85147e-06 0 -1.81207e-05 -7.817e-06 0 -1.6857e-05 -7.70887e-06 0 -1.66951e-05 8.98628e-06 0 -1.80326e-05 9.13712e-06 0 -1.94123e-05 9.20079e-06 0 -2.08184e-05 9.16477e-06 0 -2.22318e-05 9.01868e-06 0 -2.36312e-05 8.7548e-06 0 -2.49933e-05 8.36981e-06 0 -2.62945e-05 7.86401e-06 0 -2.75116e-05 7.24022e-06 0 -2.86232e-05 6.50911e-06 0 -2.96101e-05 5.67987e-06 0 -3.0456e-05 4.76556e-06 0 -3.11478e-05 3.7806e-06 0 -3.1675e-05 2.74023e-06 0 -3.20305e-05 1.66012e-06 0 -3.22094e-05 5.56064e-07 0 -3.22094e-05 -5.56064e-07 0 -3.20305e-05 -1.66012e-06 0 -3.1675e-05 -2.74023e-06 0 -3.11478e-05 -3.7806e-06 0 -3.0456e-05 -4.76556e-06 0 -2.96101e-05 -5.67987e-06 0 -2.86232e-05 -6.50911e-06 0 -2.75116e-05 -7.24022e-06 0 -2.62945e-05 -7.86401e-06 0 -2.49933e-05 -8.36981e-06 0 -2.36312e-05 -8.7548e-06 0 -2.22318e-05 -9.01868e-06 0 -2.08184e-05 -9.16477e-06 0 -1.94123e-05 -9.20079e-06 0 -1.80326e-05 -9.13712e-06 0 -1.66951e-05 -8.98628e-06 0 -1.64714e-05 1.03372e-05 0 -1.78965e-05 1.05447e-05 0 -1.93792e-05 1.06502e-05 0 -2.09018e-05 1.06375e-05 0 -2.24425e-05 1.04926e-05 0 -2.39757e-05 1.02053e-05 0 -2.54737e-05 9.77108e-06 0 -2.69082e-05 9.19023e-06 0 -2.82514e-05 8.46667e-06 0 -2.94781e-05 7.61405e-06 0 -3.05664e-05 6.64435e-06 0 -3.1498e-05 5.57407e-06 0 -3.22586e-05 4.42103e-06 0 -3.28375e-05 3.20366e-06 0 -3.32273e-05 1.94051e-06 0 -3.34233e-05 6.49912e-07 0 -3.34233e-05 -6.49912e-07 0 -3.32273e-05 -1.94051e-06 0 -3.28375e-05 -3.20366e-06 0 -3.22586e-05 -4.42103e-06 0 -3.1498e-05 -5.57407e-06 0 -3.05664e-05 -6.64435e-06 0 -2.94781e-05 -7.61405e-06 0 -2.82514e-05 -8.46667e-06 0 -2.69082e-05 -9.19023e-06 0 -2.54737e-05 -9.77108e-06 0 -2.39757e-05 -1.02053e-05 0 -2.24425e-05 -1.04926e-05 0 -2.09018e-05 -1.06375e-05 0 -1.93792e-05 -1.06502e-05 0 -1.78965e-05 -1.05447e-05 0 -1.64714e-05 -1.03372e-05 0 -1.61812e-05 1.17725e-05 0 -1.77059e-05 1.20546e-05 0 -1.93081e-05 1.22187e-05 0 -2.09678e-05 1.22432e-05 0 -2.26595e-05 1.21096e-05 0 -2.43526e-05 1.1804e-05 0 -2.60132e-05 1.13202e-05 0 -2.76067e-05 1.06586e-05 0 -2.90997e-05 9.82474e-06 0 -3.04621e-05 8.83652e-06 0 -3.16687e-05 7.70976e-06 0 -3.26992e-05 6.46548e-06 0 -3.35385e-05 5.12575e-06 0 -3.41759e-05 3.71275e-06 0 -3.46044e-05 2.24813e-06 0 -3.48195e-05 7.52804e-07 0 -3.48195e-05 -7.52804e-07 0 -3.46044e-05 -2.24813e-06 0 -3.41759e-05 -3.71275e-06 0 -3.35385e-05 -5.12575e-06 0 -3.26992e-05 -6.46548e-06 0 -3.16687e-05 -7.70976e-06 0 -3.04621e-05 -8.83652e-06 0 -2.90997e-05 -9.82474e-06 0 -2.76067e-05 -1.06586e-05 0 -2.60132e-05 -1.13202e-05 0 -2.43526e-05 -1.1804e-05 0 -2.26595e-05 -1.21096e-05 0 -2.09678e-05 -1.22432e-05 0 -1.93081e-05 -1.22187e-05 0 -1.77059e-05 -1.20546e-05 0 -1.61812e-05 -1.17725e-05 0 -1.57993e-05 1.33027e-05 0 -1.74372e-05 1.36825e-05 0 -1.91785e-05 1.39271e-05 0 -2.10011e-05 1.40077e-05 0 -2.28747e-05 1.38991e-05 0 -2.47617e-05 1.35821e-05 0 -2.66201e-05 1.3048e-05 0 -2.84062e-05 1.22979e-05 0 -3.00791e-05 1.13398e-05 0 -3.16026e-05 1.01976e-05 0 -3.29475e-05 8.89271e-06 0 -3.40919e-05 7.45216e-06 0 -3.50206e-05 5.90345e-06 0 -3.57234e-05 4.27312e-06 0 -3.61946e-05 2.58611e-06 0 -3.64308e-05 8.65739e-07 0 -3.64308e-05 -8.65739e-07 0 -3.61946e-05 -2.58611e-06 0 -3.57234e-05 -4.27312e-06 0 -3.50206e-05 -5.90345e-06 0 -3.40919e-05 -7.45216e-06 0 -3.29475e-05 -8.89271e-06 0 -3.16026e-05 -1.01976e-05 0 -3.00791e-05 -1.13398e-05 0 -2.84062e-05 -1.22979e-05 0 -2.66201e-05 -1.3048e-05 0 -2.47617e-05 -1.35821e-05 0 -2.28747e-05 -1.38991e-05 0 -2.10011e-05 -1.40077e-05 0 -1.91785e-05 -1.39271e-05 0 -1.74372e-05 -1.36825e-05 0 -1.57993e-05 -1.33027e-05 0 -1.5293e-05 1.49381e-05 0 -1.70584e-05 1.5446e-05 0 -1.89619e-05 1.58006e-05 0 -2.09794e-05 1.5963e-05 0 -2.30748e-05 1.58982e-05 0 -2.52007e-05 1.55794e-05 0 -2.73031e-05 1.49943e-05 0 -2.93258e-05 1.41445e-05 0 -3.12167e-05 1.30429e-05 0 -3.2932e-05 1.1722e-05 0 -3.44382e-05 1.02115e-05 0 -3.57124e-05 8.54687e-06 0 -3.67405e-05 6.76243e-06 0 -3.75148e-05 4.88974e-06 0 -3.80318e-05 2.95702e-06 0 -3.82905e-05 9.89503e-07 0 -3.82905e-05 -9.89503e-07 0 -3.80318e-05 -2.95702e-06 0 -3.75148e-05 -4.88974e-06 0 -3.67405e-05 -6.76243e-06 0 -3.57124e-05 -8.54687e-06 0 -3.44382e-05 -1.02115e-05 0 -3.2932e-05 -1.1722e-05 0 -3.12167e-05 -1.30429e-05 0 -2.93258e-05 -1.41445e-05 0 -2.73031e-05 -1.49943e-05 0 -2.52007e-05 -1.55794e-05 0 -2.30748e-05 -1.58982e-05 0 -2.09794e-05 -1.5963e-05 0 -1.89619e-05 -1.58006e-05 0 -1.70584e-05 -1.5446e-05 0 -1.5293e-05 -1.49381e-05 0 -1.46462e-05 1.66871e-05 0 -1.65504e-05 1.73626e-05 0 -1.86384e-05 1.78672e-05 0 -2.08846e-05 1.81472e-05 0 -2.32457e-05 1.81531e-05 0 -2.56614e-05 1.78459e-05 0 -2.80603e-05 1.72078e-05 0 -3.03683e-05 1.62422e-05 0 -3.2518e-05 1.49695e-05 0 -3.44559e-05 1.34361e-05 0 -3.61445e-05 1.16842e-05 0 -3.75613e-05 9.76079e-06 0 -3.86956e-05 7.70891e-06 0 -3.95443e-05 5.56566e-06 0 -4.01082e-05 3.36212e-06 0 -4.03894e-05 1.12442e-06 0 -4.03894e-05 -1.12442e-06 0 -4.01082e-05 -3.36212e-06 0 -3.95443e-05 -5.56566e-06 0 -3.86956e-05 -7.70891e-06 0 -3.75613e-05 -9.76079e-06 0 -3.61445e-05 -1.16842e-05 0 -3.44559e-05 -1.34361e-05 0 -3.2518e-05 -1.49695e-05 0 -3.03683e-05 -1.62422e-05 0 -2.80603e-05 -1.72078e-05 0 -2.56614e-05 -1.78459e-05 0 -2.32457e-05 -1.81531e-05 0 -2.08846e-05 -1.81472e-05 0 -1.86384e-05 -1.78672e-05 0 -1.65504e-05 -1.73626e-05 0 -1.46462e-05 -1.66871e-05 0 -1.37904e-05 1.85547e-05 0 -1.58429e-05 1.94498e-05 0 -1.8142e-05 2.01588e-05 0 -2.06635e-05 2.06073e-05 0 -2.33557e-05 2.07228e-05 0 -2.61395e-05 2.04469e-05 0 -2.89161e-05 1.97523e-05 0 -3.15826e-05 1.86456e-05 0 -3.4049e-05 1.71616e-05 0 -3.62492e-05 1.53684e-05 0 -3.81432e-05 1.33275e-05 0 -3.97132e-05 1.1102e-05 0 -4.09563e-05 8.74555e-06 0 -4.18778e-05 6.30083e-06 0 -4.2486e-05 3.8006e-06 0 -4.2788e-05 1.27009e-06 0 -4.2788e-05 -1.27009e-06 0 -4.2486e-05 -3.8006e-06 0 -4.18778e-05 -6.30083e-06 0 -4.09563e-05 -8.74555e-06 0 -3.97132e-05 -1.1102e-05 0 -3.81432e-05 -1.33275e-05 0 -3.62492e-05 -1.53684e-05 0 -3.4049e-05 -1.71616e-05 0 -3.15826e-05 -1.86456e-05 0 -2.89161e-05 -1.97523e-05 0 -2.61395e-05 -2.04469e-05 0 -2.33557e-05 -2.07228e-05 0 -2.06635e-05 -2.06073e-05 0 -1.8142e-05 -2.01588e-05 0 -1.58429e-05 -1.94498e-05 0 -1.37904e-05 -1.85547e-05 0 -1.26869e-05 2.05388e-05 0 -1.48887e-05 2.17217e-05 0 -1.74217e-05 2.27117e-05 0 -2.02691e-05 2.3404e-05 0 -2.3372e-05 2.36891e-05 0 -2.66241e-05 2.34745e-05 0 -2.98823e-05 2.27158e-05 0 -3.2998e-05 2.14269e-05 0 -3.58466e-05 1.96691e-05 0 -3.83475e-05 1.75476e-05 0 -4.04633e-05 1.51536e-05 0 -4.21879e-05 1.25721e-05 0 -4.35335e-05 9.86849e-06 0 -4.45193e-05 7.08989e-06 0 -4.51642e-05 4.26827e-06 0 -4.54827e-05 1.42496e-06 0 -4.54827e-05 -1.42496e-06 0 -4.51642e-05 -4.26827e-06 0 -4.45193e-05 -7.08989e-06 0 -4.35335e-05 -9.86849e-06 0 -4.21879e-05 -1.25721e-05 0 -4.04633e-05 -1.51536e-05 0 -3.83475e-05 -1.75476e-05 0 -3.58466e-05 -1.96691e-05 0 -3.2998e-05 -2.14269e-05 0 -2.98823e-05 -2.27158e-05 0 -2.66241e-05 -2.34745e-05 0 -2.3372e-05 -2.36891e-05 0 -2.02691e-05 -2.3404e-05 0 -1.74217e-05 -2.27117e-05 0 -1.48887e-05 -2.17217e-05 0 -1.26869e-05 -2.05388e-05 0 -1.12852e-05 2.26245e-05 0 -1.36236e-05 2.41837e-05 0 -1.64048e-05 2.55614e-05 0 -1.96323e-05 2.66105e-05 0 -2.32459e-05 2.71607e-05 0 -2.71009e-05 2.70562e-05 0 -3.09857e-05 2.62178e-05 0 -3.46679e-05 2.46764e-05 0 -3.79736e-05 2.25461e-05 0 -4.0809e-05 1.99963e-05 0 -4.31508e-05 1.71639e-05 0 -4.5018e-05 1.4161e-05 0 -4.64477e-05 1.10639e-05 0 -4.74797e-05 7.92014e-06 0 -4.81477e-05 4.75651e-06 0 -4.84755e-05 1.586e-06 0 -4.84755e-05 -1.586e-06 0 -4.81477e-05 -4.75651e-06 0 -4.74797e-05 -7.92014e-06 0 -4.64477e-05 -1.10639e-05 0 -4.5018e-05 -1.4161e-05 0 -4.31508e-05 -1.71639e-05 0 -4.0809e-05 -1.99963e-05 0 -3.79736e-05 -2.25461e-05 0 -3.46679e-05 -2.46764e-05 0 -3.09857e-05 -2.62178e-05 0 -2.71009e-05 -2.70562e-05 0 -2.32459e-05 -2.71607e-05 0 -1.96323e-05 -2.66105e-05 0 -1.64048e-05 -2.55614e-05 0 -1.36236e-05 -2.41837e-05 0 -1.12852e-05 -2.26245e-05 0 -9.43147e-06 2.47744e-05 0 -1.18579e-05 2.68205e-05 0 -1.48761e-05 2.87355e-05 0 -1.85442e-05 3.03185e-05 0 -2.28312e-05 3.1299e-05 0 -2.75448e-05 3.13906e-05 0 -3.23288e-05 3.04415e-05 0 -3.67798e-05 2.8515e-05 0 -4.06423e-05 2.58471e-05 0 -4.38307e-05 2.27209e-05 0 -4.63714e-05 1.93385e-05 0 -4.83363e-05 1.58388e-05 0 -4.98042e-05 1.23021e-05 0 -5.08439e-05 8.76786e-06 0 -5.1508e-05 5.25027e-06 0 -5.18314e-05 1.74807e-06 0 -5.18314e-05 -1.74807e-06 0 -5.1508e-05 -5.25027e-06 0 -5.08439e-05 -8.76786e-06 0 -4.98042e-05 -1.23021e-05 0 -4.83363e-05 -1.58388e-05 0 -4.63714e-05 -1.93385e-05 0 -4.38307e-05 -2.27209e-05 0 -4.06423e-05 -2.58471e-05 0 -3.67798e-05 -2.8515e-05 0 -3.23288e-05 -3.04415e-05 0 -2.75448e-05 -3.13906e-05 0 -2.28312e-05 -3.1299e-05 0 -1.85442e-05 -3.03185e-05 0 -1.48761e-05 -2.87355e-05 0 -1.18579e-05 -2.68205e-05 0 -9.43147e-06 -2.47744e-05 0 -7.1103e-06 2.69148e-05 0 -9.53643e-06 2.95755e-05 0 -1.27289e-05 3.22283e-05 0 -1.68544e-05 3.46255e-05 0 -2.19901e-05 3.63455e-05 0 -2.79243e-05 3.68151e-05 0 -3.39579e-05 3.56744e-05 0 -3.94263e-05 3.30928e-05 0 -4.39139e-05 2.96034e-05 0 -4.74202e-05 2.56877e-05 0 -5.00868e-05 2.16194e-05 0 -5.20731e-05 1.75465e-05 0 -5.3514e-05 1.3533e-05 0 -5.45122e-05 9.59616e-06 0 -5.51399e-05 5.72725e-06 0 -5.54428e-05 1.90375e-06 0 -5.54428e-05 -1.90375e-06 0 -5.51399e-05 -5.72725e-06 0 -5.45122e-05 -9.59616e-06 0 -5.3514e-05 -1.3533e-05 0 -5.20731e-05 -1.75465e-05 0 -5.00868e-05 -2.16194e-05 0 -4.74202e-05 -2.56877e-05 0 -4.39139e-05 -2.96034e-05 0 -3.94263e-05 -3.30928e-05 0 -3.39579e-05 -3.56744e-05 0 -2.79243e-05 -3.68151e-05 0 -2.19901e-05 -3.63455e-05 0 -1.68544e-05 -3.46255e-05 0 -1.27289e-05 -3.22283e-05 0 -9.53643e-06 -2.95755e-05 0 -7.1103e-06 -2.69148e-05 0 -4.19205e-06 2.89231e-05 0 -6.44864e-06 3.23212e-05 0 -9.63602e-06 3.59492e-05 0 -1.41061e-05 3.95801e-05 0 -2.02551e-05 4.26491e-05 0 -2.81148e-05 4.40508e-05 0 -3.64278e-05 4.23901e-05 0 -4.32476e-05 3.85494e-05 0 -4.83175e-05 3.37659e-05 0 -5.19809e-05 2.87854e-05 0 -5.46089e-05 2.38932e-05 0 -5.64808e-05 1.91884e-05 0 -5.77923e-05 1.46841e-05 0 -5.86773e-05 1.03551e-05 0 -5.92234e-05 6.15838e-06 0 -5.9484e-05 2.0435e-06 0 -5.9484e-05 -2.0435e-06 0 -5.92234e-05 -6.15838e-06 0 -5.86773e-05 -1.03551e-05 0 -5.77923e-05 -1.46841e-05 0 -5.64808e-05 -1.91884e-05 0 -5.46089e-05 -2.38932e-05 0 -5.19809e-05 -2.87854e-05 0 -4.83175e-05 -3.37659e-05 0 -4.32476e-05 -3.85494e-05 0 -3.64278e-05 -4.23901e-05 0 -2.81148e-05 -4.40508e-05 0 -2.02551e-05 -4.26491e-05 0 -1.41061e-05 -3.95801e-05 0 -9.63602e-06 -3.59492e-05 0 -6.44864e-06 -3.23212e-05 0 -4.19205e-06 -2.89231e-05 0 -5.88649e-07 3.06085e-05 0 -2.40672e-06 3.48125e-05 0 -5.2186e-06 3.96134e-05 0 -9.56477e-06 4.49758e-05 0 -1.64178e-05 5.05908e-05 0 -2.78988e-05 5.45179e-05 0 -4.17195e-05 5.14287e-05 0 -4.99e-05 4.47944e-05 0 -5.50854e-05 3.80631e-05 0 -5.85069e-05 3.17625e-05 0 -6.08079e-05 2.59645e-05 0 -6.23648e-05 2.06224e-05 0 -6.34107e-05 1.56566e-05 0 -6.40927e-05 1.09802e-05 0 -6.4503e-05 6.50745e-06 0 -6.46956e-05 2.15565e-06 0 -6.46956e-05 -2.15565e-06 0 -6.4503e-05 -6.50745e-06 0 -6.40927e-05 -1.09802e-05 0 -6.34107e-05 -1.56566e-05 0 -6.23648e-05 -2.06224e-05 0 -6.08079e-05 -2.59645e-05 0 -5.85069e-05 -3.17625e-05 0 -5.50854e-05 -3.80631e-05 0 -4.99e-05 -4.47944e-05 0 -4.17195e-05 -5.14287e-05 0 -2.78988e-05 -5.45179e-05 0 -1.64178e-05 -5.05908e-05 0 -9.56477e-06 -4.49758e-05 0 -5.2186e-06 -3.96134e-05 0 -2.40672e-06 -3.48125e-05 0 -5.88649e-07 -3.06085e-05 0 3.61506e-06 3.17339e-05 0 2.53208e-06 3.66969e-05 0 5.72737e-07 4.26826e-05 0 -2.81614e-06 4.99814e-05 0 -8.68066e-06 5.91114e-05 0 -1.92793e-05 7.18387e-05 0 -3.21108e-05 6.20202e-05 0 -3.9367e-05 5.08812e-05 0 -4.3632e-05 4.18753e-05 0 -4.6249e-05 3.42222e-05 0 -4.78875e-05 2.75757e-05 0 -4.89204e-05 2.16798e-05 0 -4.95678e-05 1.63407e-05 0 -4.99636e-05 1.1403e-05 0 -5.0189e-05 6.73689e-06 0 -5.02911e-05 2.22824e-06 0 -5.02911e-05 -2.22824e-06 0 -5.0189e-05 -6.73689e-06 0 -4.99636e-05 -1.1403e-05 0 -4.95678e-05 -1.63407e-05 0 -4.89204e-05 -2.16798e-05 0 -4.78875e-05 -2.75757e-05 0 -4.6249e-05 -3.42222e-05 0 -4.3632e-05 -4.18753e-05 0 -3.9367e-05 -5.08812e-05 0 -3.21108e-05 -6.20202e-05 0 -1.92793e-05 -7.18387e-05 0 -8.68066e-06 -5.91114e-05 0 -2.81614e-06 -4.99814e-05 0 5.72737e-07 -4.26826e-05 0 2.53208e-06 -3.66969e-05 0 3.61506e-06 -3.17339e-05 0 8.38736e-06 3.20486e-05 0 8.36645e-06 3.75733e-05 0 7.80723e-06 4.44689e-05 0 6.37062e-06 5.32623e-05 0 3.57605e-06 6.4853e-05 0 -7.56754e-07 8.08487e-05 0 -5.35647e-06 6.89742e-05 0 -8.86398e-06 5.50503e-05 0 -1.09572e-05 4.4356e-05 0 -1.21148e-05 3.56959e-05 0 -1.27176e-05 2.84476e-05 0 -1.30033e-05 2.2188e-05 0 -1.31153e-05 1.66287e-05 0 -1.3141e-05 1.15584e-05 0 -1.31334e-05 6.81161e-06 0 -1.31226e-05 2.25021e-06 0 -1.31226e-05 -2.25021e-06 0 -1.31334e-05 -6.81161e-06 0 -1.3141e-05 -1.15584e-05 0 -1.31153e-05 -1.66287e-05 0 -1.30033e-05 -2.2188e-05 0 -1.27176e-05 -2.84476e-05 0 -1.21148e-05 -3.56959e-05 0 -1.09572e-05 -4.4356e-05 0 -8.86398e-06 -5.50503e-05 0 -5.35647e-06 -6.89742e-05 0 -7.56754e-07 -8.08487e-05 0 3.57605e-06 -6.4853e-05 0 6.37062e-06 -5.32623e-05 0 7.80723e-06 -4.44689e-05 0 8.36645e-06 -3.75733e-05 0 8.38736e-06 -3.20486e-05 0 1.34573e-05 3.13433e-05 0 1.46986e-05 3.71052e-05 0 1.58568e-05 4.44079e-05 0 1.6857e-05 5.38514e-05 0 1.76207e-05 6.63358e-05 0 1.81256e-05 8.30211e-05 0 1.85256e-05 7.08645e-05 0 1.90119e-05 5.61525e-05 0 1.9618e-05 4.48316e-05 0 2.02803e-05 3.57947e-05 0 2.09324e-05 2.83504e-05 0 2.15264e-05 2.20079e-05 0 2.20306e-05 1.64355e-05 0 2.2424e-05 1.13952e-05 0 2.26931e-05 6.70444e-06 0 2.28296e-05 2.213e-06 0 2.28296e-05 -2.213e-06 0 2.26931e-05 -6.70444e-06 0 2.2424e-05 -1.13952e-05 0 2.20306e-05 -1.64355e-05 0 2.15264e-05 -2.20079e-05 0 2.09324e-05 -2.83504e-05 0 2.02803e-05 -3.57947e-05 0 1.9618e-05 -4.48316e-05 0 1.90119e-05 -5.61525e-05 0 1.85256e-05 -7.08645e-05 0 1.81256e-05 -8.30211e-05 0 1.76207e-05 -6.63358e-05 0 1.6857e-05 -5.38514e-05 0 1.58568e-05 -4.44079e-05 0 1.46986e-05 -3.71052e-05 0 1.34573e-05 -3.13433e-05 0 1.85483e-05 2.95088e-05 0 2.11115e-05 3.51307e-05 0 2.40608e-05 4.2258e-05 0 2.75829e-05 5.14501e-05 0 3.19408e-05 6.36089e-05 0 3.71866e-05 8.00845e-05 0 4.25508e-05 6.81645e-05 0 4.70126e-05 5.39262e-05 0 5.0393e-05 4.30403e-05 0 5.29429e-05 3.43457e-05 0 5.48961e-05 2.71776e-05 0 5.64003e-05 2.10738e-05 0 5.75409e-05 1.57204e-05 0 5.83666e-05 1.0889e-05 0 5.8905e-05 6.40221e-06 0 5.9171e-05 2.11247e-06 0 5.9171e-05 -2.11247e-06 0 5.8905e-05 -6.40221e-06 0 5.83666e-05 -1.0889e-05 0 5.75409e-05 -1.57204e-05 0 5.64003e-05 -2.10738e-05 0 5.48961e-05 -2.71776e-05 0 5.29429e-05 -3.43457e-05 0 5.0393e-05 -4.30403e-05 0 4.70126e-05 -5.39262e-05 0 4.25508e-05 -6.81645e-05 0 3.71866e-05 -8.00845e-05 0 3.19408e-05 -6.36089e-05 0 2.75829e-05 -5.14501e-05 0 2.40608e-05 -4.2258e-05 0 2.11115e-05 -3.51307e-05 0 1.85483e-05 -2.95088e-05 0 2.33584e-05 2.65463e-05 0 2.71553e-05 3.16816e-05 0 3.17127e-05 3.80972e-05 0 3.74616e-05 4.61638e-05 0 4.52064e-05 5.66058e-05 0 5.60313e-05 7.14794e-05 0 6.76987e-05 6.06345e-05 0 7.61398e-05 4.84594e-05 0 8.19795e-05 3.90834e-05 0 8.61809e-05 3.14125e-05 0 8.92942e-05 2.49639e-05 0 9.16279e-05 1.94039e-05 0 9.3359e-05 1.44926e-05 0 9.4591e-05 1.00443e-05 0 9.53848e-05 5.90686e-06 0 9.5774e-05 1.94916e-06 0 9.5774e-05 -1.94916e-06 0 9.53848e-05 -5.90686e-06 0 9.4591e-05 -1.00443e-05 0 9.3359e-05 -1.44926e-05 0 9.16279e-05 -1.94039e-05 0 8.92942e-05 -2.49639e-05 0 8.61809e-05 -3.14125e-05 0 8.19795e-05 -3.90834e-05 0 7.61398e-05 -4.84594e-05 0 6.76987e-05 -6.06345e-05 0 5.60313e-05 -7.14794e-05 0 4.52064e-05 -5.66058e-05 0 3.74616e-05 -4.61638e-05 0 3.17127e-05 -3.80972e-05 0 2.71553e-05 -3.16816e-05 0 2.33584e-05 -2.65463e-05 0 2.76398e-05 2.25524e-05 0 3.24738e-05 2.69702e-05 0 3.82345e-05 3.23303e-05 0 4.54427e-05 3.86501e-05 0 5.52045e-05 4.58659e-05 0 7.07691e-05 5.30045e-05 0 8.98877e-05 4.82409e-05 0 0.000100742 4.0465e-05 0 0.000108102 3.34546e-05 0 0.000113437 2.72855e-05 0 0.00011742 2.1876e-05 0 0.000120415 1.70944e-05 0 0.000122638 1.28081e-05 0 0.000124218 8.89301e-06 0 0.000125234 5.23496e-06 0 0.000125732 1.72818e-06 0 0.000125732 -1.72818e-06 0 0.000125234 -5.23496e-06 0 0.000124218 -8.89301e-06 0 0.000122638 -1.28081e-05 0 0.000120415 -1.70944e-05 0 0.00011742 -2.1876e-05 0 0.000113437 -2.72855e-05 0 0.000108102 -3.34546e-05 0 0.000100742 -4.0465e-05 0 8.98877e-05 -4.82409e-05 0 7.07691e-05 -5.30045e-05 0 5.52045e-05 -4.58659e-05 0 4.54427e-05 -3.86501e-05 0 3.82345e-05 -3.23303e-05 0 3.24738e-05 -2.69702e-05 0 2.76398e-05 -2.25524e-05 0 3.12514e-05 1.76586e-05 0 3.69122e-05 2.13107e-05 0 4.33917e-05 2.5596e-05 0 5.10865e-05 3.01904e-05 0 6.06365e-05 3.44798e-05 0 7.24688e-05 3.69347e-05 0 8.47706e-05 3.55796e-05 0 9.48093e-05 3.16046e-05 0 0.000102464 2.69534e-05 0 0.000108321 2.23951e-05 0 0.000112829 1.81605e-05 0 0.000116281 1.42916e-05 0 0.000118871 1.07548e-05 0 0.000120723 7.48695e-06 0 0.000121919 4.41376e-06 0 0.000122506 1.45805e-06 0 0.000122506 -1.45805e-06 0 0.000121919 -4.41376e-06 0 0.000120723 -7.48695e-06 0 0.000118871 -1.07548e-05 0 0.000116281 -1.42916e-05 0 0.000112829 -1.81605e-05 0 0.000108321 -2.23951e-05 0 0.000102464 -2.69534e-05 0 9.48093e-05 -3.16046e-05 0 8.47706e-05 -3.55796e-05 0 7.24688e-05 -3.69347e-05 0 6.06365e-05 -3.44798e-05 0 5.10865e-05 -3.01904e-05 0 4.33917e-05 -2.5596e-05 0 3.69122e-05 -2.13107e-05 0 3.12514e-05 -1.76586e-05 0 3.41904e-05 1.19241e-05 0 4.05815e-05 1.49959e-05 0 4.73755e-05 1.85183e-05 0 5.48842e-05 2.19027e-05 0 6.34503e-05 2.4593e-05 0 7.29769e-05 2.58963e-05 0 8.26177e-05 2.53254e-05 0 9.13154e-05 2.32056e-05 0 9.86174e-05 2.02913e-05 0 0.000104556 1.71531e-05 0 0.000109302 1.4068e-05 0 0.000113025 1.11523e-05 0 0.000115859 8.43151e-06 0 0.000117906 5.88639e-06 0 0.000119234 3.47588e-06 0 0.000119887 1.14909e-06 0 0.000119887 -1.14909e-06 0 0.000119234 -3.47588e-06 0 0.000117906 -5.88639e-06 0 0.000115859 -8.43151e-06 0 0.000113025 -1.11523e-05 0 0.000109302 -1.4068e-05 0 0.000104556 -1.71531e-05 0 9.86174e-05 -2.02913e-05 0 9.13154e-05 -2.32056e-05 0 8.26177e-05 -2.53254e-05 0 7.29769e-05 -2.58963e-05 0 6.34503e-05 -2.4593e-05 0 5.48842e-05 -2.19027e-05 0 4.73755e-05 -1.85183e-05 0 4.05815e-05 -1.49959e-05 0 3.41904e-05 -1.19241e-05 0 3.66486e-05 5.12621e-06 0 4.39475e-05 8.23327e-06 0 5.06453e-05 1.15951e-05 0 5.75558e-05 1.42726e-05 0 6.51513e-05 1.60958e-05 0 7.33151e-05 1.69269e-05 0 8.15549e-05 1.66899e-05 0 8.92937e-05 1.55429e-05 0 9.61487e-05 1.38143e-05 0 0.00010198 1.18299e-05 0 0.000106792 9.7919e-06 0 0.00011065 7.81089e-06 0 0.000113631 5.92936e-06 0 0.000115802 4.1501e-06 0 0.000117219 2.45423e-06 0 0.000117918 8.11895e-07 0 0.000117918 -8.11895e-07 0 0.000117219 -2.45423e-06 0 0.000115802 -4.1501e-06 0 0.000113631 -5.92936e-06 0 0.00011065 -7.81089e-06 0 0.000106792 -9.7919e-06 0 0.00010198 -1.18299e-05 0 9.61487e-05 -1.38143e-05 0 8.92937e-05 -1.55429e-05 0 8.15549e-05 -1.66899e-05 0 7.33151e-05 -1.69269e-05 0 6.51513e-05 -1.60958e-05 0 5.75558e-05 -1.42726e-05 0 5.06453e-05 -1.15951e-05 0 4.39475e-05 -8.23327e-06 0 3.66486e-05 -5.12621e-06 0 3.92926e-05 -4.10541e-06 0 4.8212e-05 1.53428e-06 0 5.35719e-05 5.46558e-06 0 5.94468e-05 7.47825e-06 0 6.62186e-05 8.59422e-06 0 7.35621e-05 9.07711e-06 0 8.10342e-05 8.99793e-06 0 8.81988e-05 8.45061e-06 0 9.47262e-05 7.57982e-06 0 0.000100429 6.54232e-06 0 0.000105237 5.44753e-06 0 0.000109152 4.36351e-06 0 0.000112207 3.32155e-06 0 0.000114449 2.32889e-06 0 0.000115918 1.37863e-06 0 0.000116645 4.56283e-07 0 0.000116645 -4.56283e-07 0 0.000115918 -1.37863e-06 0 0.000114449 -2.32889e-06 0 0.000112207 -3.32155e-06 0 0.000109152 -4.36351e-06 0 0.000105237 -5.44753e-06 0 0.000100429 -6.54232e-06 0 9.47262e-05 -7.57982e-06 0 8.81988e-05 -8.45061e-06 0 8.10342e-05 -8.99793e-06 0 7.35621e-05 -9.07711e-06 0 6.62186e-05 -8.59422e-06 0 5.94468e-05 -7.47825e-06 0 5.35719e-05 -5.46558e-06 0 4.8212e-05 -1.53428e-06 0 3.92926e-05 4.10541e-06 0 2.13281e-05 -7.51916e-05 0 5.43478e-05 -6.54536e-07 0 5.55e-05 9.81353e-07 0 6.03875e-05 1.46617e-06 0 6.66983e-05 1.70111e-06 0 7.36817e-05 1.79936e-06 0 8.08408e-05 1.78548e-06 0 8.77667e-05 1.6794e-06 0 9.41473e-05 1.50866e-06 0 9.9784e-05 1.30359e-06 0 0.00010458 1.08604e-06 0 0.000108512 8.70021e-07 0 0.000111596 6.62177e-07 0 0.000113866 4.64174e-07 0 0.000115356 2.74717e-07 0 0.000116094 9.09115e-08 0 0.000116094 -9.09115e-08 0 0.000115356 -2.74717e-07 0 0.000113866 -4.64174e-07 0 0.000111596 -6.62177e-07 0 0.000108512 -8.70021e-07 0 0.00010458 -1.08604e-06 0 9.9784e-05 -1.30359e-06 0 9.41473e-05 -1.50866e-06 0 8.77667e-05 -1.6794e-06 0 8.08408e-05 -1.78548e-06 0 7.36817e-05 -1.79936e-06 0 6.66983e-05 -1.70111e-06 0 6.03875e-05 -1.46617e-06 0 5.55e-05 -9.81353e-07 0 5.43478e-05 6.54536e-07 0 2.13281e-05 7.51916e-05 0 </DataArray> 
</PointData> 
<Points> 
<DataArray type="Float32" NumberOfComponents="3"> 