<?xml version="1.0"?> 
<VTKFile type="StructuredGrid" version="0.1"> 
<StructuredGrid WholeExtent="0 31 0 31 0 0"> 
<Piece Extent="0 31 0 31 0 0"> 
<PointData>
<DataArray type="Float32" Name="B" format="ascii" NumberOfComponents="3"> 
0 1.82548e-06 0 -3.31022e-07 1.83289e-06 0 -6.6453e-07 1.85251e-06 0 -1.00297e-06 1.88532e-06 0 -1.34892e-06 1.9323e-06 0 -1.70491e-06 1.99184e-06 0 -2.07359e-06 2.06601e-06 0 -2.45773e-06 2.15398e-06 0 -2.86013e-06 2.25515e-06 0 -3.28378e-06 2.37229e-06 0 -3.73181e-06 2.50267e-06 0 -4.20746e-06 2.64717e-06 0 -4.71431e-06 2.80604e-06 0 -5.25605e-06 2.97677e-06 0 -5.83667e-06 3.15955e-06 0 -6.46062e-06 3.35103e-06 0 -7.13259e-06 3.5476e-06 0 -7.85797e-06 3.74393e-06 0 -8.64283e-06 3.93251e-06 0 -9.49411e-06 4.10142e-06 0 -1.04205e-05 4.23239e-06 0 -1.14323e-05 4.30835e-06 0 -1.25433e-05 4.28328e-06 0 -1.37722e-05 4.11655e-06 0 -1.51446e-05 3.74201e-06 0 -1.66989e-05 3.04288e-06 0 -1.84936e-05 1.8613e-06 0 -2.06249e-05 -6.53674e-08 0 -2.32685e-05 -3.21028e-06 0 -2.68193e-05 -8.55704e-06 0 -3.26188e-05 -1.89706e-05 0 -5.1409e-05 -5.62334e-05 0 0 2.14899e-06 0 -3.16614e-07 2.15777e-06 0 -6.35651e-07 2.18102e-06 0 -9.59496e-07 2.21993e-06 0 -1.29066e-06 2.27566e-06 0 -1.63167e-06 2.34635e-06 0 -1.98509e-06 2.43451e-06 0 -2.35373e-06 2.53924e-06 0 -2.74038e-06 2.65987e-06 0 -3.14812e-06 2.79994e-06 0 -3.5802e-06 2.9563e-06 0 -4.04007e-06 3.1303e-06 0 -4.53164e-06 3.32267e-06 0 -5.05907e-06 3.53075e-06 0 -5.62706e-06 3.75579e-06 0 -6.24104e-06 3.99462e-06 0 -6.90712e-06 4.24402e-06 0 -7.63266e-06 4.50082e-06 0 -8.42655e-06 4.75747e-06 0 -9.29957e-06 5.00453e-06 0 -1.0266e-05 5.227e-06 0 -1.1344e-05 5.40984e-06 0 -1.25584e-05 5.51604e-06 0 -1.39443e-05 5.51219e-06 0 -1.55514e-05 5.34582e-06 0 -1.74555e-05 4.92722e-06 0 -1.97759e-05 4.1421e-06 0 -2.27153e-05 2.81754e-06 0 -2.66549e-05 6.97907e-07 0 -3.2424e-05 -2.53046e-06 0 -4.21026e-05 -6.69761e-06 0 -5.85434e-05 -6.72432e-06 0 0 2.45691e-06 0 -2.99805e-07 2.46701e-06 0 -6.01949e-07 2.49379e-06 0 -9.08736e-07 2.53861e-06 0 -1.22261e-06 2.60286e-06 0 -1.546e-06 2.68441e-06 0 -1.88146e-06 2.78625e-06 0 -2.23172e-06 2.9074e-06 0 -2.59961e-06 3.0472e-06 0 -2.9882e-06 3.20998e-06 0 -3.40084e-06 3.39222e-06 0 -3.84113e-06 3.59586e-06 0 -4.31322e-06 3.82225e-06 0 -4.82165e-06 4.06868e-06 0 -5.37168e-06 4.3378e-06 0 -5.96956e-06 4.62684e-06 0 -6.62249e-06 4.93334e-06 0 -7.33945e-06 5.25723e-06 0 -8.13155e-06 5.59134e-06 0 -9.01256e-06 5.93011e-06 0 -1.0001e-05 6.26365e-06 0 -1.11209e-05 6.58039e-06 0 -1.24047e-05 6.85723e-06 0 -1.38991e-05 7.07189e-06 0 -1.56681e-05 7.19251e-06 0 -1.78085e-05 7.16939e-06 0 -2.04655e-05 6.94972e-06 0 -2.3868e-05 6.47727e-06 0 -2.83871e-05 5.7328e-06 0 -3.4613e-05 4.88127e-06 0 -4.32568e-05 4.68262e-06 0 -5.40449e-05 6.81036e-06 0 0 2.74687e-06 0 -2.8068e-07 2.75824e-06 0 -5.6359e-07 2.78841e-06 0 -8.50935e-07 2.83891e-06 0 -1.14505e-06 2.91135e-06 0 -1.44828e-06 3.00338e-06 0 -1.76308e-06 3.11844e-06 0 -2.09213e-06 3.25552e-06 0 -2.43819e-06 3.41398e-06 0 -2.80432e-06 3.59898e-06 0 -3.19389e-06 3.80671e-06 0 -3.61055e-06 4.03972e-06 0 -4.05859e-06 4.30012e-06 0 -4.54279e-06 4.58525e-06 0 -5.06875e-06 4.89938e-06 0 -5.64326e-06 5.24035e-06 0 -6.27425e-06 5.60669e-06 0 -6.97175e-06 6.00214e-06 0 -7.74824e-06 6.42016e-06 0 -8.61936e-06 6.85995e-06 0 -9.60615e-06 7.31793e-06 0 -1.07357e-05 7.78674e-06 0 -1.20445e-05 8.25969e-06 0 -1.35837e-05 8.72699e-06 0 -1.5422e-05 9.17913e-06 0 -1.76585e-05 9.60742e-06 0 -2.04329e-05 1.00145e-05 0 -2.3943e-05 1.04315e-05 0 -2.84575e-05 1.09621e-05 0 -3.42905e-05 1.18636e-05 0 -4.1645e-05 1.36265e-05 0 -5.02973e-05 1.67994e-05 0 0 3.01661e-06 0 -2.59343e-07 3.02919e-06 0 -5.20785e-07 3.06256e-06 0 -7.864e-07 3.11846e-06 0 -1.05839e-06 3.19868e-06 0 -1.33899e-06 3.30068e-06 0 -1.63053e-06 3.42834e-06 0 -1.93557e-06 3.58066e-06 0 -2.25677e-06 3.75702e-06 0 -2.59711e-06 3.96345e-06 0 -2.95989e-06 4.19585e-06 0 -3.34874e-06 4.45749e-06 0 -3.76794e-06 4.75125e-06 0 -4.22232e-06 5.07458e-06 0 -4.7176e-06 5.43355e-06 0 -5.26075e-06 5.8267e-06 0 -5.85999e-06 6.2537e-06 0 -6.52572e-06 6.72244e-06 0 -7.27094e-06 7.22711e-06 0 -8.11185e-06 7.77204e-06 0 -9.07011e-06 8.36035e-06 0 -1.01733e-05 8.98884e-06 0 -1.14578e-05 9.6675e-06 0 -1.29734e-05 1.0398e-05 0 -1.47848e-05 1.11907e-05 0 -1.69807e-05 1.2071e-05 0 -1.96775e-05 1.30799e-05 0 -2.30246e-05 1.42969e-05 0 -2.71984e-05 1.58652e-05 0 -3.23693e-05 1.80147e-05 0 -3.86324e-05 2.10506e-05 0 -4.59511e-05 2.52351e-05 0 0 3.26399e-06 0 -2.35921e-07 3.2777e-06 0 -4.73782e-07 3.31406e-06 0 -7.15505e-07 3.37499e-06 0 -9.63133e-07 3.46249e-06 0 -1.21874e-06 3.57382e-06 0 -1.4845e-06 3.71332e-06 0 -1.76282e-06 3.87996e-06 0 -2.05621e-06 4.0732e-06 0 -2.36749e-06 4.29991e-06 0 -2.69981e-06 4.55575e-06 0 -3.05665e-06 4.84467e-06 0 -3.44216e-06 5.1704e-06 0 -3.86101e-06 5.53053e-06 0 -4.31878e-06 5.93291e-06 0 -4.82228e-06 6.37686e-06 0 -5.37953e-06 6.86319e-06 0 -6.00068e-06 7.40394e-06 0 -6.69833e-06 7.99399e-06 0 -7.48801e-06 8.64268e-06 0 -8.39029e-06 9.35944e-06 0 -9.4308e-06 1.01447e-05 0 -1.06427e-05 1.10234e-05 0 -1.207e-05 1.20064e-05 0 -1.37673e-05 1.31192e-05 0 -1.58065e-05 1.44115e-05 0 -1.82753e-05 1.59472e-05 0 -2.12782e-05 1.78275e-05 0 -2.49275e-05 2.02031e-05 0 -2.93265e-05 2.32752e-05 0 -3.455e-05 2.72802e-05 0 -4.06551e-05 3.2439e-05 0 0 3.48701e-06 0 -2.10577e-07 3.50175e-06 0 -4.22911e-07 3.54085e-06 0 -6.38742e-07 3.6064e-06 0 -8.59925e-07 3.70057e-06 0 -1.08834e-06 3.82047e-06 0 -1.32599e-06 3.97084e-06 0 -1.57505e-06 4.15068e-06 0 -1.83783e-06 4.3595e-06 0 -2.11694e-06 4.60496e-06 0 -2.41529e-06 4.88254e-06 0 -2.73609e-06 5.19684e-06 0 -3.0832e-06 5.5524e-06 0 -3.46098e-06 5.94694e-06 0 -3.87458e-06 6.39005e-06 0 -4.33035e-06 6.88174e-06 0 -4.83568e-06 7.42389e-06 0 -5.39985e-06 8.03242e-06 0 -6.03428e-06 8.70273e-06 0 -6.75285e-06 9.44858e-06 0 -7.57359e-06 1.02848e-05 0 -8.51847e-06 1.12147e-05 0 -9.6151e-06 1.22751e-05 0 -1.08988e-05 1.34831e-05 0 -1.24116e-05 1.48745e-05 0 -1.42059e-05 1.65144e-05 0 -1.63416e-05 1.84775e-05 0 -1.8885e-05 2.08734e-05 0 -2.19027e-05 2.38516e-05 0 -2.54551e-05 2.75996e-05 0 -2.95956e-05 3.23408e-05 0 -3.43922e-05 3.83238e-05 0 0 3.68384e-06 0 -1.83493e-07 3.6995e-06 0 -3.68536e-07 3.74106e-06 0 -5.56661e-07 3.81073e-06 0 -7.49508e-07 3.91088e-06 0 -9.4874e-07 4.03844e-06 0 -1.15612e-06 4.19856e-06 0 -1.37359e-06 4.39026e-06 0 -1.6032e-06 4.61308e-06 0 -1.84726e-06 4.87543e-06 0 -2.10837e-06 5.17259e-06 0 -2.38938e-06 5.5098e-06 0 -2.69373e-06 5.89231e-06 0 -3.02527e-06 6.31796e-06 0 -3.38855e-06 6.79789e-06 0 -3.78913e-06 7.3327e-06 0 -4.23341e-06 7.9252e-06 0 -4.72935e-06 8.59461e-06 0 -5.28658e-06 9.33662e-06 0 -5.91655e-06 1.01686e-05 0 -6.63379e-06 1.11096e-05 0 -7.45546e-06 1.21644e-05 0 -8.40234e-06 1.33789e-05 0 -9.49981e-06 1.47732e-05 0 -1.07764e-05 1.63889e-05 0 -1.22651e-05 1.82988e-05 0 -1.40006e-05 2.0581e-05 0 -1.60166e-05 2.33452e-05 0 -1.8342e-05 2.67364e-05 0 -2.09973e-05 3.09339e-05 0 -2.39967e-05 3.61613e-05 0 -2.73611e-05 4.26972e-05 0 0 3.85285e-06 0 -1.54848e-07 3.86931e-06 0 -3.11015e-07 3.91299e-06 0 -4.69805e-07 3.98624e-06 0 -6.32613e-07 4.09157e-06 0 -8.00857e-07 4.2258e-06 0 -9.76036e-07 4.3944e-06 0 -1.15981e-06 4.59638e-06 0 -1.35392e-06 4.83137e-06 0 -1.56033e-06 5.10841e-06 0 -1.78124e-06 5.42261e-06 0 -2.01907e-06 5.77973e-06 0 -2.27671e-06 6.18565e-06 0 -2.55738e-06 6.63829e-06 0 -2.86484e-06 7.15007e-06 0 -3.20364e-06 7.72207e-06 0 -3.57893e-06 8.35775e-06 0 -3.99698e-06 9.07896e-06 0 -4.46523e-06 9.88145e-06 0 -4.99225e-06 1.07851e-05 0 -5.58851e-06 1.18118e-05 0 -6.26584e-06 1.29671e-05 0 -7.03776e-06 1.4302e-05 0 -7.91955e-06 1.58376e-05 0 -8.9267e-06 1.76171e-05 0 -1.00745e-05 1.97152e-05 0 -1.1375e-05 2.22074e-05 0 -1.28341e-05 2.51978e-05 0 -1.44469e-05 2.88217e-05 0 -1.61939e-05 3.32461e-05 0 -1.80372e-05 3.86848e-05 0 -1.99211e-05 4.54178e-05 0 0 3.9926e-06 0 -1.24936e-07 4.00973e-06 0 -2.5094e-07 4.05518e-06 0 -3.7907e-07 4.13141e-06 0 -5.10457e-07 4.24106e-06 0 -6.46247e-07 4.38083e-06 0 -7.87654e-07 4.55648e-06 0 -9.36015e-07 4.76703e-06 0 -1.09273e-06 5.01213e-06 0 -1.25938e-06 5.30137e-06 0 -1.43771e-06 5.6297e-06 0 -1.62964e-06 6.00331e-06 0 -1.83742e-06 6.42854e-06 0 -2.06356e-06 6.90337e-06 0 -2.3109e-06 7.44119e-06 0 -2.58284e-06 8.04336e-06 0 -2.88313e-06 8.71379e-06 0 -3.21617e-06 9.47614e-06 0 -3.587e-06 1.0326e-05 0 -4.00113e-06 1.12847e-05 0 -4.46484e-06 1.23756e-05 0 -4.98462e-06 1.3604e-05 0 -5.56693e-06 1.5023e-05 0 -6.21762e-06 1.66528e-05 0 -6.94033e-06 1.85348e-05 0 -7.7349e-06 2.07409e-05 0 -8.59428e-06 2.33397e-05 0 -9.5006e-06 2.64244e-05 0 -1.04198e-05 3.01141e-05 0 -1.1295e-05 3.4554e-05 0 -1.20372e-05 3.99296e-05 0 -1.25118e-05 4.64843e-05 0 0 4.10194e-06 0 -9.3979e-08 4.11959e-06 0 -1.88762e-07 4.16643e-06 0 -2.85143e-07 4.245e-06 0 -3.83971e-07 4.35803e-06 0 -4.86104e-07 4.50214e-06 0 -5.92448e-07 4.6833e-06 0 -7.03996e-07 4.90054e-06 0 -8.2178e-07 5.15354e-06 0 -9.46955e-07 5.45226e-06 0 -1.08079e-06 5.79155e-06 0 -1.22464e-06 6.17788e-06 0 -1.38009e-06 6.61793e-06 0 -1.54885e-06 7.10967e-06 0 -1.73281e-06 7.66712e-06 0 -1.93412e-06 8.29177e-06 0 -2.15507e-06 8.98771e-06 0 -2.39816e-06 9.77959e-06 0 -2.66599e-06 1.06626e-05 0 -2.96104e-06 1.16587e-05 0 -3.28562e-06 1.27913e-05 0 -3.64118e-06 1.40648e-05 0 -4.02785e-06 1.55318e-05 0 -4.44319e-06 1.72097e-05 0 -4.88089e-06 1.91363e-05 0 -5.32809e-06 2.13765e-05 0 -5.76248e-06 2.39891e-05 0 -6.14763e-06 2.70519e-05 0 -6.42684e-06 3.06619e-05 0 -6.5143e-06 3.49334e-05 0 -6.28189e-06 4.00067e-05 0 -5.53737e-06 4.60566e-05 0 0 4.17993e-06 0 -6.21681e-08 4.19795e-06 0 -1.24863e-07 4.24578e-06 0 -1.88605e-07 4.326e-06 0 -2.53947e-07 4.44143e-06 0 -3.21446e-07 4.58862e-06 0 -3.91685e-07 4.77367e-06 0 -4.65294e-07 4.99562e-06 0 -5.42922e-07 5.25415e-06 0 -6.25279e-07 5.55949e-06 0 -7.13122e-07 5.90636e-06 0 -8.07246e-07 6.30143e-06 0 -9.08526e-07 6.75153e-06 0 -1.01785e-06 7.25459e-06 0 -1.13615e-06 7.82493e-06 0 -1.26435e-06 8.46399e-06 0 -1.40328e-06 9.17582e-06 0 -1.5536e-06 9.98529e-06 0 -1.71565e-06 1.08871e-05 0 -1.88915e-06 1.19029e-05 0 -2.07281e-06 1.3055e-05 0 -2.26385e-06 1.43468e-05 0 -2.45707e-06 1.58277e-05 0 -2.64348e-06 1.75117e-05 0 -2.80914e-06 1.94313e-05 0 -2.93198e-06 2.16421e-05 0 -2.97914e-06 2.41906e-05 0 -2.90213e-06 2.71371e-05 0 -2.63063e-06 3.05531e-05 0 -2.06345e-06 3.45166e-05 0 -1.05497e-06 3.9115e-05 0 6.0651e-07 4.44411e-05 0 0 4.22591e-06 0 -2.98762e-08 4.24414e-06 0 -5.99964e-08 4.29254e-06 0 -9.06007e-08 4.37373e-06 0 -1.21941e-07 4.49053e-06 0 -1.54265e-07 4.63948e-06 0 -1.87828e-07 4.82676e-06 0 -2.22894e-07 5.05138e-06 0 -2.59719e-07 5.31301e-06 0 -2.98563e-07 5.622e-06 0 -3.39678e-07 5.973e-06 0 -3.83282e-07 6.37271e-06 0 -4.29558e-07 6.82799e-06 0 -4.78605e-07 7.33667e-06 0 -5.30397e-07 7.91307e-06 0 -5.84702e-07 8.55843e-06 0 -6.40989e-07 9.27658e-06 0 -6.98242e-07 1.00919e-05 0 -7.54742e-07 1.09986e-05 0 -8.07803e-07 1.20171e-05 0 -8.53111e-07 1.31682e-05 0 -8.84343e-07 1.44536e-05 0 -8.92136e-07 1.59181e-05 0 -8.62518e-07 1.7572e-05 0 -7.76071e-07 1.94414e-05 0 -6.04563e-07 2.15712e-05 0 -3.08685e-07 2.39953e-05 0 1.66371e-07 2.67557e-05 0 8.9641e-07 2.98982e-05 0 1.98588e-06 3.34656e-05 0 3.57862e-06 3.74947e-05 0 5.87339e-06 4.20045e-05 0 0 4.2395e-06 0 2.66915e-09 4.25779e-06 0 5.37855e-09 4.30634e-06 0 8.17041e-09 4.38777e-06 0 1.10951e-08 4.50493e-06 0 1.42121e-08 4.65432e-06 0 1.75966e-08 4.84212e-06 0 2.13495e-08 5.06734e-06 0 2.56005e-08 5.32963e-06 0 3.05297e-08 5.63929e-06 0 3.63837e-08 5.99094e-06 0 4.34939e-08 6.39121e-06 0 5.23372e-08 6.84683e-06 0 6.35588e-08 7.35551e-06 0 7.80562e-08 7.93127e-06 0 9.71146e-08 8.57507e-06 0 1.2246e-07 9.29034e-06 0 1.56562e-07 1.01004e-05 0 2.02842e-07 1.0999e-05 0 2.65934e-07 1.20048e-05 0 3.525e-07 1.31365e-05 0 4.71461e-07 1.4394e-05 0 6.35091e-07 1.58167e-05 0 8.60562e-07 1.74107e-05 0 1.17045e-06 1.91958e-05 0 1.59599e-06 2.12061e-05 0 2.17872e-06 2.34633e-05 0 2.97411e-06 2.59924e-05 0 4.05564e-06 2.88163e-05 0 5.52006e-06 3.19482e-05 0 7.49365e-06 3.53851e-05 0 1.01393e-05 3.90935e-05 0 0 4.2206e-06 0 3.51724e-08 4.23879e-06 0 7.06664e-08 4.28707e-06 0 1.06803e-07 4.36804e-06 0 1.4393e-07 4.48453e-06 0 1.82411e-07 4.63304e-06 0 2.22643e-07 4.81969e-06 0 2.6508e-07 5.04346e-06 0 3.10227e-07 5.30398e-06 0 3.58685e-07 5.61139e-06 0 4.11169e-07 5.96029e-06 0 4.68527e-07 6.35712e-06 0 5.31842e-07 6.8084e-06 0 6.02432e-07 7.31168e-06 0 6.81968e-07 7.88045e-06 0 7.72645e-07 8.51531e-06 0 8.77199e-07 9.21921e-06 0 9.99286e-07 1.0014e-05 0 1.14367e-06 1.08928e-05 0 1.31645e-06 1.18725e-05 0 1.52598e-06 1.29692e-05 0 1.78289e-06 1.4181e-05 0 2.10123e-06 1.55415e-05 0 2.49981e-06 1.70532e-05 0 3.00243e-06 1.87294e-05 0 3.64077e-06 2.05944e-05 0 4.45535e-06 2.26591e-05 0 5.49817e-06 2.49344e-05 0 6.83524e-06 2.74249e-05 0 8.5492e-06 3.0122e-05 0 1.07415e-05 3.29967e-05 0 1.35328e-05 3.59874e-05 0 0 4.16938e-06 0 6.73892e-08 4.18732e-06 0 1.35375e-07 4.23491e-06 0 2.04549e-07 4.31474e-06 0 2.75551e-07 4.42955e-06 0 3.49037e-07 4.57589e-06 0 4.25713e-07 4.75975e-06 0 5.06375e-07 4.98009e-06 0 5.91879e-07 5.23649e-06 0 6.83226e-07 5.53882e-06 0 7.81563e-07 5.88169e-06 0 8.88211e-07 6.2713e-06 0 1.0048e-06 6.7138e-06 0 1.13323e-06 7.20664e-06 0 1.27586e-06 7.76255e-06 0 1.43562e-06 8.38173e-06 0 1.6161e-06 9.06659e-06 0 1.82187e-06 9.83718e-06 0 2.05869e-06 1.06862e-05 0 2.33372e-06 1.16285e-05 0 2.65639e-06 1.26774e-05 0 3.03835e-06 1.38295e-05 0 3.49445e-06 1.51126e-05 0 4.04397e-06 1.65258e-05 0 4.71046e-06 1.80772e-05 0 5.52425e-06 1.9782e-05 0 6.52272e-06 2.16427e-05 0 7.75198e-06 2.36591e-05 0 9.26795e-06 2.58231e-05 0 1.11369e-05 2.8112e-05 0 1.34347e-05 3.04833e-05 0 1.62433e-05 3.28656e-05 0 0 4.08631e-06 0 9.89495e-08 4.10384e-06 0 1.98758e-07 4.15035e-06 0 3.00277e-07 4.22836e-06 0 4.0442e-07 4.34052e-06 0 5.12121e-07 4.48345e-06 0 6.24377e-07 4.66295e-06 0 7.423e-07 4.87795e-06 0 8.67069e-07 5.12799e-06 0 1.00004e-06 5.42258e-06 0 1.14275e-06 5.75636e-06 0 1.29693e-06 6.13521e-06 0 1.46466e-06 6.56486e-06 0 1.64835e-06 7.04264e-06 0 1.85087e-06 7.58038e-06 0 2.07575e-06 8.17793e-06 0 2.32715e-06 8.83708e-06 0 2.61029e-06 9.57592e-06 0 2.93156e-06 1.03869e-05 0 3.29869e-06 1.12826e-05 0 3.72158e-06 1.22738e-05 0 4.21214e-06 1.3356e-05 0 4.78515e-06 1.45512e-05 0 5.45923e-06 1.58559e-05 0 6.25645e-06 1.72737e-05 0 7.20435e-06 1.88127e-05 0 8.3357e-06 2.04689e-05 0 9.68937e-06 2.22344e-05 0 1.13104e-05 2.40929e-05 0 1.32492e-05 2.60145e-05 0 1.55595e-05 2.79522e-05 0 1.82935e-05 2.9836e-05 0 0 3.97209e-06 0 1.29705e-07 3.98908e-06 0 2.60517e-07 4.03413e-06 0 3.93536e-07 4.10968e-06 0 5.29932e-07 4.21828e-06 0 6.70901e-07 4.35662e-06 0 8.17711e-07 4.53028e-06 0 9.71762e-07 4.73816e-06 0 1.13453e-06 4.97976e-06 0 1.30769e-06 5.26411e-06 0 1.49313e-06 5.58599e-06 0 1.69291e-06 5.95084e-06 0 1.90952e-06 6.36395e-06 0 2.14576e-06 6.82255e-06 0 2.40491e-06 7.33751e-06 0 2.69095e-06 7.90827e-06 0 3.00845e-06 8.53609e-06 0 3.36303e-06 9.23699e-06 0 3.76143e-06 1.00033e-05 0 4.2116e-06 1.08455e-05 0 4.72351e-06 1.17719e-05 0 5.30885e-06 1.27771e-05 0 5.98173e-06 1.3878e-05 0 6.75949e-06 1.50694e-05 0 7.66206e-06 1.6351e-05 0 8.71355e-06 1.77255e-05 0 9.94162e-06 1.91844e-05 0 1.13778e-05 2.07152e-05 0 1.30568e-05 2.2297e-05 0 1.50151e-05 2.38976e-05 0 1.72887e-05 2.54708e-05 0 1.99079e-05 2.69537e-05 0 0 3.8277e-06 0 1.59386e-07 3.844e-06 0 3.20112e-07 3.88725e-06 0 4.83505e-07 3.95974e-06 0 6.5098e-07 4.06391e-06 0 8.2397e-07 4.19657e-06 0 1.00399e-06 4.363e-06 0 1.1927e-06 4.56211e-06 0 1.39185e-06 4.79334e-06 0 1.60338e-06 5.0652e-06 0 1.82947e-06 5.3726e-06 0 2.07249e-06 5.72056e-06 0 2.33524e-06 6.11387e-06 0 2.6208e-06 6.5497e-06 0 2.93277e-06 7.03789e-06 0 3.27543e-06 7.57754e-06 0 3.65359e-06 8.1694e-06 0 4.07307e-06 8.82745e-06 0 4.5407e-06 9.54405e-06 0 5.06438e-06 1.03277e-05 0 5.65377e-06 1.11844e-05 0 6.31997e-06 1.21085e-05 0 7.07604e-06 1.31123e-05 0 7.93758e-06 1.41891e-05 0 8.92203e-06 1.53364e-05 0 1.00498e-05 1.65524e-05 0 1.13435e-05 1.78263e-05 0 1.28277e-05 1.91428e-05 0 1.45281e-05 2.04796e-05 0 1.647e-05 2.18049e-05 0 1.86756e-05 2.30765e-05 0 2.11604e-05 2.42403e-05 0 0 3.65436e-06 0 1.8765e-07 3.66986e-06 0 3.76853e-07 3.71095e-06 0 5.69145e-07 3.77984e-06 0 7.6616e-07 3.8788e-06 0 9.69546e-07 4.00476e-06 0 1.18104e-06 4.16271e-06 0 1.40253e-06 4.35154e-06 0 1.63599e-06 4.57066e-06 0 1.88361e-06 4.828e-06 0 2.1478e-06 5.11865e-06 0 2.43115e-06 5.44718e-06 0 2.73669e-06 5.81786e-06 0 3.06775e-06 6.22786e-06 0 3.42809e-06 6.68597e-06 0 3.82216e-06 7.19101e-06 0 4.25487e-06 7.74327e-06 0 4.73203e-06 8.35478e-06 0 5.26037e-06 9.01806e-06 0 5.84748e-06 9.73982e-06 0 6.50248e-06 1.05243e-05 0 7.23556e-06 1.13653e-05 0 8.05849e-06 1.22717e-05 0 8.9849e-06 1.3236e-05 0 1.00296e-05 1.42538e-05 0 1.12095e-05 1.53207e-05 0 1.25423e-05 1.64244e-05 0 1.40467e-05 1.75489e-05 0 1.57412e-05 1.86719e-05 0 1.76421e-05 1.97641e-05 0 1.97623e-05 2.07882e-05 0 2.21073e-05 2.16991e-05 0 0 3.4535e-06 0 2.14488e-07 3.46807e-06 0 4.30724e-07 3.50672e-06 0 6.50434e-07 3.57149e-06 0 8.75449e-07 3.66451e-06 0 1.10762e-06 3.78288e-06 0 1.34886e-06 3.93119e-06 0 1.60129e-06 4.10839e-06 0 1.86706e-06 4.31387e-06 0 2.14855e-06 4.55489e-06 0 2.44838e-06 4.8268e-06 0 2.76932e-06 5.13371e-06 0 3.11458e-06 5.47936e-06 0 3.48762e-06 5.86099e-06 0 3.89232e-06 6.28631e-06 0 4.33319e-06 6.75397e-06 0 4.81511e-06 7.26386e-06 0 5.3438e-06 7.82619e-06 0 5.92571e-06 8.43378e-06 0 6.56801e-06 9.09176e-06 0 7.27909e-06 9.80287e-06 0 8.06815e-06 1.05609e-05 0 8.94552e-06 1.13716e-05 0 9.92286e-06 1.22274e-05 0 1.10124e-05 1.31227e-05 0 1.22277e-05 1.40513e-05 0 1.35824e-05 1.50008e-05 0 1.509e-05 1.59552e-05 0 1.67628e-05 1.68937e-05 0 1.86108e-05 1.779e-05 0 2.06397e-05 1.86122e-05 0 2.28489e-05 1.9323e-05 0 0 3.22673e-06 0 2.39506e-07 3.24027e-06 0 4.80934e-07 3.27621e-06 0 7.26179e-07 3.33642e-06 0 9.77248e-07 3.42285e-06 0 1.23616e-06 3.53278e-06 0 1.505e-06 3.67046e-06 0 1.78606e-06 3.83484e-06 0 2.08165e-06 4.02529e-06 0 2.39432e-06 4.24844e-06 0 2.72682e-06 4.49991e-06 0 3.08207e-06 4.78332e-06 0 3.46338e-06 5.10196e-06 0 3.8743e-06 5.45312e-06 0 4.31875e-06 5.84354e-06 0 4.80118e-06 6.27171e-06 0 5.3264e-06 6.73723e-06 0 5.8999e-06 7.24863e-06 0 6.52776e-06 7.79914e-06 0 7.21659e-06 8.39261e-06 0 7.97402e-06 9.03052e-06 0 8.80815e-06 9.70683e-06 0 9.72789e-06 1.0425e-05 0 1.0743e-05 1.11775e-05 0 1.18634e-05 1.19583e-05 0 1.30996e-05 1.27602e-05 0 1.44617e-05 1.35712e-05 0 1.59591e-05 1.43764e-05 0 1.75996e-05 1.51567e-05 0 1.93883e-05 1.58892e-05 0 2.13262e-05 1.65471e-05 0 2.34087e-05 1.70999e-05 0 0 2.9759e-06 0 2.6262e-07 2.98833e-06 0 5.27315e-07 3.02131e-06 0 7.96129e-07 3.07654e-06 0 1.07122e-06 3.15582e-06 0 1.35476e-06 3.25661e-06 0 1.64898e-06 3.38276e-06 0 1.95631e-06 3.53328e-06 0 2.27919e-06 3.70754e-06 0 2.62031e-06 3.91149e-06 0 2.98253e-06 4.14106e-06 0 3.36885e-06 4.39945e-06 0 3.78265e-06 4.68946e-06 0 4.22751e-06 5.0085e-06 0 4.70733e-06 5.3624e-06 0 5.22647e-06 5.74954e-06 0 5.78958e-06 6.16934e-06 0 6.40184e-06 6.62882e-06 0 7.06892e-06 7.12172e-06 0 7.79686e-06 7.6508e-06 0 8.59244e-06 8.21663e-06 0 9.46272e-06 8.81349e-06 0 1.04152e-05 9.44314e-06 0 1.1458e-05 1.00983e-05 0 1.25988e-05 1.07729e-05 0 1.38456e-05 1.14596e-05 0 1.52057e-05 1.21471e-05 0 1.66851e-05 1.28217e-05 0 1.8288e-05 1.34668e-05 0 2.00161e-05 1.40626e-05 0 2.18673e-05 1.45868e-05 0 2.38344e-05 1.50147e-05 0 0 2.70296e-06 0 2.83835e-07 2.7142e-06 0 5.69878e-07 2.74401e-06 0 8.60307e-07 2.79392e-06 0 1.15741e-06 2.86554e-06 0 1.46349e-06 2.95656e-06 0 1.78091e-06 3.07042e-06 0 2.1122e-06 3.20618e-06 0 2.45992e-06 3.36324e-06 0 2.82687e-06 3.54687e-06 0 3.21597e-06 3.75336e-06 0 3.6303e-06 3.98545e-06 0 4.07327e-06 4.24553e-06 0 4.54844e-06 4.53119e-06 0 5.05965e-06 4.84735e-06 0 5.61115e-06 5.19243e-06 0 6.20735e-06 5.56567e-06 0 6.85315e-06 5.9728e-06 0 7.55376e-06 6.40814e-06 0 8.31462e-06 6.87357e-06 0 9.14171e-06 7.36904e-06 0 1.00411e-05 7.88925e-06 0 1.1019e-05 8.4347e-06 0 1.20819e-05 8.99873e-06 0 1.32358e-05 9.57547e-06 0 1.44864e-05 1.01577e-05 0 1.58385e-05 1.07352e-05 0 1.72957e-05 1.1296e-05 0 1.88595e-05 1.18256e-05 0 2.05288e-05 1.23073e-05 0 2.22994e-05 1.27228e-05 0 2.41628e-05 1.30521e-05 0 0 2.41004e-06 0 3.026e-07 2.42002e-06 0 6.07522e-07 2.44647e-06 0 9.17051e-07 2.49076e-06 0 1.23359e-06 2.55429e-06 0 1.55954e-06 2.63501e-06 0 1.89737e-06 2.73592e-06 0 2.24971e-06 2.85617e-06 0 2.61921e-06 2.9952e-06 0 3.00872e-06 3.15758e-06 0 3.42122e-06 3.34e-06 0 3.85983e-06 3.5448e-06 0 4.32795e-06 3.77395e-06 0 4.82911e-06 4.02526e-06 0 5.36705e-06 4.30285e-06 0 5.94587e-06 4.60518e-06 0 6.56977e-06 4.93144e-06 0 7.2433e-06 5.28623e-06 0 7.97124e-06 5.66448e-06 0 8.75846e-06 6.06743e-06 0 9.61019e-06 6.49458e-06 0 1.05316e-05 6.94119e-06 0 1.15278e-05 7.40692e-06 0 1.26039e-05 7.8858e-06 0 1.37644e-05 8.37242e-06 0 1.50133e-05 8.86003e-06 0 1.63535e-05 9.33974e-06 0 1.77866e-05 9.8011e-06 0 1.93121e-05 1.02318e-05 0 2.09273e-05 1.06181e-05 0 2.26265e-05 1.0945e-05 0 2.44006e-05 1.11964e-05 0 0 2.09941e-06 0 3.19216e-07 2.10807e-06 0 6.40851e-07 2.13101e-06 0 9.67282e-07 2.16942e-06 0 1.30101e-06 2.2245e-06 0 1.64452e-06 2.29446e-06 0 2.00036e-06 2.38188e-06 0 2.37124e-06 2.486e-06 0 2.75987e-06 2.60631e-06 0 3.16916e-06 2.7467e-06 0 3.60214e-06 2.90427e-06 0 4.06192e-06 3.08098e-06 0 4.55188e-06 3.27844e-06 0 5.07551e-06 3.4947e-06 0 5.63644e-06 3.73315e-06 0 6.23862e-06 3.99236e-06 0 6.88602e-06 4.27152e-06 0 7.58287e-06 4.57426e-06 0 8.33353e-06 4.89616e-06 0 9.14236e-06 5.23801e-06 0 1.00139e-05 5.59903e-06 0 1.09525e-05 5.97511e-06 0 1.19624e-05 6.3654e-06 0 1.30474e-05 6.76473e-06 0 1.42109e-05 7.16829e-06 0 1.54553e-05 7.57003e-06 0 1.67822e-05 7.96237e-06 0 1.81915e-05 8.3365e-06 0 1.96814e-05 8.68219e-06 0 2.12478e-05 8.98825e-06 0 2.28841e-05 9.24255e-06 0 2.45808e-05 9.43248e-06 0 0 1.77338e-06 0 3.33464e-07 1.78066e-06 0 6.69426e-07 1.79997e-06 0 1.01034e-06 1.83229e-06 0 1.35878e-06 1.87862e-06 0 1.71731e-06 1.93744e-06 0 2.08853e-06 2.01093e-06 0 2.47523e-06 2.09841e-06 0 2.88016e-06 2.19943e-06 0 3.30626e-06 2.31723e-06 0 3.75659e-06 2.44934e-06 0 4.23425e-06 2.59736e-06 0 4.7426e-06 2.76257e-06 0 5.28506e-06 2.94329e-06 0 5.86517e-06 3.14224e-06 0 6.48672e-06 3.35817e-06 0 7.15345e-06 3.5903e-06 0 7.86932e-06 3.84143e-06 0 8.63831e-06 4.10787e-06 0 9.46432e-06 4.39004e-06 0 1.03513e-05 4.68709e-06 0 1.13029e-05 4.99554e-06 0 1.23226e-05 5.31433e-06 0 1.34132e-05 5.63913e-06 0 1.45771e-05 5.96581e-06 0 1.58157e-05 6.2892e-06 0 1.71291e-05 6.60304e-06 0 1.85163e-05 6.90011e-06 0 1.99744e-05 7.17213e-06 0 2.14985e-05 7.41017e-06 0 2.30813e-05 7.6047e-06 0 2.47132e-05 7.74588e-06 0 0 1.43442e-06 0 3.45082e-07 1.44029e-06 0 6.92723e-07 1.45586e-06 0 1.04544e-06 1.48191e-06 0 1.40586e-06 1.51925e-06 0 1.77661e-06 1.56665e-06 0 2.16034e-06 1.62584e-06 0 2.55987e-06 1.69628e-06 0 2.97801e-06 1.77758e-06 0 3.4177e-06 1.87232e-06 0 3.88202e-06 1.97851e-06 0 4.37406e-06 2.09739e-06 0 4.89715e-06 2.22994e-06 0 5.45464e-06 2.3748e-06 0 6.04999e-06 2.53406e-06 0 6.68684e-06 2.70667e-06 0 7.36874e-06 2.89197e-06 0 8.09941e-06 3.09203e-06 0 8.88251e-06 3.30389e-06 0 9.72156e-06 3.52775e-06 0 1.062e-05 3.76279e-06 0 1.1581e-05 4.00621e-06 0 1.26073e-05 4.25692e-06 0 1.37011e-05 4.51146e-06 0 1.48639e-05 4.76649e-06 0 1.60961e-05 5.01777e-06 0 1.73974e-05 5.26034e-06 0 1.87655e-05 5.48853e-06 0 2.0197e-05 5.69589e-06 0 2.16863e-05 5.87554e-06 0 2.32259e-05 6.02019e-06 0 2.4806e-05 6.12243e-06 0 0 1.08502e-06 0 3.54348e-07 1.08945e-06 0 7.11305e-07 1.1012e-06 0 1.07343e-06 1.12085e-06 0 1.4434e-06 1.14901e-06 0 1.82388e-06 1.18476e-06 0 2.21756e-06 1.22938e-06 0 2.6273e-06 1.28247e-06 0 3.05591e-06 1.34372e-06 0 3.50638e-06 1.41506e-06 0 3.98177e-06 1.49497e-06 0 4.48517e-06 1.58438e-06 0 5.01988e-06 1.684e-06 0 5.58919e-06 1.79278e-06 0 6.19647e-06 1.91226e-06 0 6.84524e-06 2.04161e-06 0 7.53892e-06 2.1803e-06 0 8.281e-06 2.32982e-06 0 9.0749e-06 2.48791e-06 0 9.92382e-06 2.65466e-06 0 1.08309e-05 2.82937e-06 0 1.17987e-05 3.00994e-06 0 1.28295e-05 3.19542e-06 0 1.39251e-05 3.38321e-06 0 1.50862e-05 3.57078e-06 0 1.63127e-05 3.75492e-06 0 1.76035e-05 3.93194e-06 0 1.89559e-05 4.09765e-06 0 2.03658e-05 4.2473e-06 0 2.18273e-05 4.3759e-06 0 2.33327e-05 4.47819e-06 0 2.48721e-05 4.54883e-06 0 0 7.27732e-07 0 3.60883e-07 7.30698e-07 0 7.24407e-07 7.38559e-07 0 1.09316e-06 7.51713e-07 0 1.46987e-06 7.70563e-07 0 1.85719e-06 7.94484e-07 0 2.25788e-06 8.24341e-07 0 2.67479e-06 8.59849e-07 0 3.11077e-06 9.00811e-07 0 3.5688e-06 9.48499e-07 0 4.05194e-06 1.0019e-06 0 4.56328e-06 1.06162e-06 0 5.10609e-06 1.12813e-06 0 5.68362e-06 1.2007e-06 0 6.29918e-06 1.28036e-06 0 6.9562e-06 1.36653e-06 0 7.65798e-06 1.45884e-06 0 8.40788e-06 1.55825e-06 0 9.20912e-06 1.66325e-06 0 1.00647e-05 1.77385e-06 0 1.09774e-05 1.88957e-06 0 1.19496e-05 2.00899e-06 0 1.29833e-05 2.13141e-06 0 1.40796e-05 2.25512e-06 0 1.52391e-05 2.37841e-06 0 1.64612e-05 2.49913e-06 0 1.77442e-05 2.61483e-06 0 1.90853e-05 2.72275e-06 0 2.04798e-05 2.81978e-06 0 2.19217e-05 2.90266e-06 0 2.34031e-05 2.96798e-06 0 2.49142e-05 3.01228e-06 0 0 3.65196e-07 0 3.64814e-07 3.66683e-07 0 7.32288e-07 3.70623e-07 0 1.10503e-06 3.77216e-07 0 1.48578e-06 3.86663e-07 0 1.87723e-06 3.98651e-07 0 2.28212e-06 4.13611e-07 0 2.70334e-06 4.31401e-07 0 3.14373e-06 4.5192e-07 0 3.60629e-06 4.75803e-07 0 4.09408e-06 5.02542e-07 0 4.61018e-06 5.32435e-07 0 5.15782e-06 5.65712e-07 0 5.74025e-06 6.02016e-07 0 6.36074e-06 6.41841e-07 0 7.02266e-06 6.84904e-07 0 7.72924e-06 7.31015e-07 0 8.48375e-06 7.80634e-07 0 9.2893e-06 8.33011e-07 0 1.01487e-05 8.88141e-07 0 1.10647e-05 9.45765e-07 0 1.20395e-05 1.00518e-06 0 1.30747e-05 1.06602e-06 0 1.41713e-05 1.12742e-06 0 1.53297e-05 1.18853e-06 0 1.65489e-05 1.24827e-06 0 1.78272e-05 1.30543e-06 0 1.91613e-05 1.35862e-06 0 2.05465e-05 1.40632e-06 0 2.19766e-05 1.4469e-06 0 2.34436e-05 1.4787e-06 0 2.49379e-05 1.50003e-06 0 0 -0 0 3.66301e-07 -0 0 7.3527e-07 -0 0 1.10952e-06 -0 0 1.4918e-06 -0 0 1.88481e-06 -0 0 2.29129e-06 -0 0 2.71414e-06 -0 0 3.1562e-06 -0 0 3.62048e-06 -0 0 4.11002e-06 -0 0 4.6279e-06 -0 0 5.17738e-06 -0 0 5.76166e-06 -0 0 6.384e-06 -0 0 7.04776e-06 -0 0 7.75615e-06 -0 0 8.51238e-06 -0 0 9.31955e-06 -0 0 1.01804e-05 -0 0 1.10977e-05 -0 0 1.20733e-05 -0 0 1.31091e-05 -0 0 1.42058e-05 -0 0 1.53637e-05 -0 0 1.65818e-05 -0 0 1.78583e-05 -0 0 1.91897e-05 -0 0 2.05714e-05 -0 0 2.1997e-05 -0 0 2.34586e-05 -0 0 2.49465e-05 -0 0 </DataArray> 
</PointData> 
<Points> 
<DataArray type="Float32" NumberOfComponents="3"> 