<?xml version="1.0"?> 
<VTKFile type="StructuredGrid" version="0.1"> 
<StructuredGrid WholeExtent="0 31 0 31 0 0"> 
<Piece Extent="0 31 0 31 0 0"> 
<PointData>
<DataArray type="Float32" Name="B" format="ascii" NumberOfComponents="3"> 
-3.53594e-05 0.000109378 0 -0.000223375 5.63467e-07 0 -0.000229254 -9.43597e-07 0 -0.000250164 -1.38985e-06 0 -0.000276869 -1.60816e-06 0 -0.00030634 -1.6995e-06 0 -0.000336515 -1.6852e-06 0 -0.000365668 -1.5837e-06 0 -0.000392482 -1.42123e-06 0 -0.000416127 -1.22673e-06 0 -0.000436211 -1.02099e-06 0 -0.00045265 -8.17205e-07 0 -0.000465528 -6.21546e-07 0 -0.000474996 -4.35466e-07 0 -0.000481208 -2.57637e-07 0 -0.000484283 -8.52447e-08 0 -0.000484283 8.52447e-08 0 -0.000481208 2.57637e-07 0 -0.000474996 4.35466e-07 0 -0.000465528 6.21546e-07 0 -0.00045265 8.17205e-07 0 -0.000436211 1.02099e-06 0 -0.000416127 1.22673e-06 0 -0.000392482 1.42123e-06 0 -0.000365668 1.5837e-06 0 -0.000336515 1.6852e-06 0 -0.00030634 1.6995e-06 0 -0.000276869 1.60816e-06 0 -0.000250164 1.38985e-06 0 -0.000229254 9.43597e-07 0 -0.000223375 -5.63467e-07 0 -3.53594e-05 -0.000109378 0 -1.85128e-05 0.000356292 0 2.39957e-06 -3.00302e-08 0 2.48457e-06 1.51846e-09 0 2.72551e-06 1.59451e-09 0 3.02762e-06 1.6993e-09 0 3.3595e-06 1.74513e-09 0 3.69854e-06 1.69161e-09 0 4.02535e-06 1.54438e-09 0 4.32509e-06 1.338e-09 0 4.58858e-06 1.112e-09 0 4.8117e-06 8.92188e-10 0 4.99382e-06 6.911e-10 0 5.13615e-06 5.11511e-10 0 5.2406e-06 3.50973e-10 0 5.30906e-06 2.04743e-10 0 5.34291e-06 6.7261e-11 0 5.34291e-06 -6.7261e-11 0 5.30906e-06 -2.04743e-10 0 5.2406e-06 -3.50973e-10 0 5.13615e-06 -5.11511e-10 0 4.99382e-06 -6.911e-10 0 4.8117e-06 -8.92188e-10 0 4.58858e-06 -1.112e-09 0 4.32509e-06 -1.338e-09 0 4.02535e-06 -1.54438e-09 0 3.69854e-06 -1.69161e-09 0 3.3595e-06 -1.74513e-09 0 3.02762e-06 -1.6993e-09 0 2.72551e-06 -1.59451e-09 0 2.48457e-06 -1.51846e-09 0 2.39957e-06 3.00302e-08 0 -1.85128e-05 -0.000356292 0 -9.67809e-06 0.000255887 0 1.36988e-08 -2.024e-08 0 1.39268e-08 1.45899e-10 0 1.50206e-08 2.38458e-10 0 1.64899e-08 2.77593e-10 0 1.81305e-08 2.93932e-10 0 1.98194e-08 2.91896e-10 0 2.14603e-08 2.7483e-10 0 2.29799e-08 2.47177e-10 0 2.43301e-08 2.13834e-10 0 2.54853e-08 1.78343e-10 0 2.64369e-08 1.43003e-10 0 2.71863e-08 1.08921e-10 0 2.77395e-08 7.63941e-11 0 2.81036e-08 4.52296e-11 0 2.8284e-08 1.49705e-11 0 2.8284e-08 -1.49705e-11 0 2.81036e-08 -4.52296e-11 0 2.77395e-08 -7.63941e-11 0 2.71863e-08 -1.08921e-10 0 2.64369e-08 -1.43003e-10 0 2.54853e-08 -1.78343e-10 0 2.43301e-08 -2.13834e-10 0 2.29799e-08 -2.47177e-10 0 2.14603e-08 -2.7483e-10 0 1.98194e-08 -2.91896e-10 0 1.81305e-08 -2.93932e-10 0 1.64899e-08 -2.77593e-10 0 1.50206e-08 -2.38458e-10 0 1.39268e-08 -1.45899e-10 0 1.36988e-08 2.024e-08 0 -9.67809e-06 -0.000255887 0 -5.99975e-06 0.000197814 0 -7.2633e-10 -1.4541e-08 0 -6.12981e-10 -1.03362e-11 0 -6.69347e-10 -2.88078e-12 0 -7.41375e-10 -3.32169e-12 0 -8.20796e-10 -3.507e-12 0 -9.02074e-10 -3.47496e-12 0 -9.80566e-10 -3.26276e-12 0 -1.05272e-09 -2.92496e-12 0 -1.11631e-09 -2.52191e-12 0 -1.17028e-09 -2.09678e-12 0 -1.21444e-09 -1.67677e-12 0 -1.24901e-09 -1.27438e-12 0 -1.27441e-09 -8.92367e-13 0 -1.29108e-09 -5.27764e-13 0 -1.29933e-09 -1.7459e-13 0 -1.29933e-09 1.7459e-13 0 -1.29108e-09 5.27764e-13 0 -1.27441e-09 8.92367e-13 0 -1.24901e-09 1.27438e-12 0 -1.21444e-09 1.67677e-12 0 -1.17028e-09 2.09678e-12 0 -1.11631e-09 2.52191e-12 0 -1.05272e-09 2.92496e-12 0 -9.80566e-10 3.26276e-12 0 -9.02074e-10 3.47496e-12 0 -8.20796e-10 3.507e-12 0 -7.41375e-10 3.32169e-12 0 -6.69347e-10 2.88078e-12 0 -6.12981e-10 1.03362e-11 0 -7.2633e-10 1.4541e-08 0 -5.99975e-06 -0.000197814 0 -4.16361e-06 0.000158857 0 -9.23031e-11 -1.12681e-08 0 3.51902e-12 -6.7762e-12 0 4.04091e-12 -1.39508e-14 0 4.50351e-12 -1.4965e-14 0 5.00974e-12 -1.59598e-14 0 5.5259e-12 -1.59372e-14 0 6.02246e-12 -1.51081e-14 0 6.47677e-12 -1.36959e-14 0 6.87506e-12 -1.19442e-14 0 7.21143e-12 -1.00354e-14 0 7.48532e-12 -8.09726e-15 0 7.69896e-12 -6.19817e-15 0 7.8555e-12 -4.36321e-15 0 7.95797e-12 -2.58952e-15 0 8.00861e-12 -8.58139e-16 0 8.00861e-12 8.58139e-16 0 7.95797e-12 2.58952e-15 0 7.8555e-12 4.36321e-15 0 7.69896e-12 6.19817e-15 0 7.48532e-12 8.09726e-15 0 7.21143e-12 1.00354e-14 0 6.87506e-12 1.19442e-14 0 6.47677e-12 1.36959e-14 0 6.02246e-12 1.51081e-14 0 5.5259e-12 1.59372e-14 0 5.00974e-12 1.59598e-14 0 4.50351e-12 1.4965e-14 0 4.04091e-12 1.39508e-14 0 3.51902e-12 6.7762e-12 0 -9.23031e-11 1.12681e-08 0 -4.16361e-06 -0.000158857 0 -3.11914e-06 0.000130397 0 -7.43682e-11 -9.06121e-09 0 -4.52163e-14 -5.58272e-12 0 7.62887e-14 -4.7926e-16 0 8.41005e-14 7.69458e-16 0 9.28487e-14 8.16217e-16 0 1.01823e-13 8.10126e-16 0 1.10511e-13 7.62259e-16 0 1.18521e-13 6.85031e-16 0 1.25604e-13 5.92139e-16 0 1.31635e-13 4.93477e-16 0 1.36583e-13 3.95423e-16 0 1.40466e-13 3.01015e-16 0 1.43325e-13 2.11034e-16 0 1.45203e-13 1.24909e-16 0 1.46132e-13 4.13376e-17 0 1.46132e-13 -4.13376e-17 0 1.45203e-13 -1.24909e-16 0 1.43325e-13 -2.11034e-16 0 1.40466e-13 -3.01015e-16 0 1.36583e-13 -3.95423e-16 0 1.31635e-13 -4.93477e-16 0 1.25604e-13 -5.92139e-16 0 1.18521e-13 -6.85031e-16 0 1.10511e-13 -7.62259e-16 0 1.01823e-13 -8.10126e-16 0 9.28487e-14 -8.16217e-16 0 8.41005e-14 -7.69458e-16 0 7.62887e-14 4.7926e-16 0 -4.52163e-14 5.58272e-12 0 -7.43682e-11 9.06121e-09 0 -3.11914e-06 -0.000130397 0 -2.46744e-06 0.000108317 0 -6.01722e-11 -7.43364e-09 0 -9.5475e-14 -4.6505e-12 0 -1.57729e-15 -9.52492e-16 0 -1.81803e-15 -7.25372e-18 0 -2.0142e-15 -5.93977e-18 0 -2.21482e-15 -5.87786e-18 0 -2.40846e-15 -5.50934e-18 0 -2.58634e-15 -4.92883e-18 0 -2.74299e-15 -4.24066e-18 0 -2.87587e-15 -3.51883e-18 0 -2.9845e-15 -2.80919e-18 0 -3.0695e-15 -2.13212e-18 0 -3.13195e-15 -1.49146e-18 0 -3.1729e-15 -8.81482e-19 0 -3.19316e-15 -2.91504e-19 0 -3.19316e-15 2.91504e-19 0 -3.1729e-15 8.81482e-19 0 -3.13195e-15 1.49146e-18 0 -3.0695e-15 2.13212e-18 0 -2.9845e-15 2.80919e-18 0 -2.87587e-15 3.51883e-18 0 -2.74299e-15 4.24066e-18 0 -2.58634e-15 4.92883e-18 0 -2.40846e-15 5.50934e-18 0 -2.21482e-15 5.87786e-18 0 -2.0142e-15 5.93977e-18 0 -1.81803e-15 7.25372e-18 0 -1.57729e-15 9.52492e-16 0 -9.5475e-14 4.6505e-12 0 -6.01722e-11 7.43364e-09 0 -2.46744e-06 -0.000108317 0 -2.03402e-06 9.03974e-05 0 -5.02663e-11 -6.15503e-09 0 -7.88587e-14 -3.8876e-12 0 5.46738e-17 -7.89747e-16 0 4.14805e-18 -1.43666e-18 0 4.63352e-18 -8.57899e-20 0 5.14664e-18 -8.58893e-20 0 5.63691e-18 -8.10567e-20 0 6.08166e-18 -7.30983e-20 0 6.46788e-18 -6.34101e-20 0 6.79102e-18 -5.30161e-20 0 7.05192e-18 -4.25984e-20 0 7.25398e-18 -3.24988e-20 0 7.40122e-18 -2.28209e-20 0 7.49722e-18 -1.35218e-20 0 7.54455e-18 -4.4773e-21 0 7.54455e-18 4.4773e-21 0 7.49722e-18 1.35218e-20 0 7.40122e-18 2.28209e-20 0 7.25398e-18 3.24988e-20 0 7.05192e-18 4.25984e-20 0 6.79102e-18 5.30161e-20 0 6.46788e-18 6.34101e-20 0 6.08166e-18 7.30983e-20 0 5.63691e-18 8.10567e-20 0 5.14664e-18 8.58893e-20 0 4.63352e-18 8.57899e-20 0 4.14805e-18 1.43666e-18 0 5.46738e-17 7.89747e-16 0 -7.88587e-14 3.8876e-12 0 -5.02663e-11 6.15503e-09 0 -2.03402e-06 -9.03974e-05 0 -1.73357e-06 7.5334e-05 0 -4.3203e-11 -5.10278e-09 0 -6.79691e-14 -3.24321e-12 0 4.32745e-17 -6.57436e-16 0 2.0076e-19 -1.13087e-18 0 2.01395e-19 2.44971e-21 0 2.20657e-19 1.98774e-21 0 2.3933e-19 1.86893e-21 0 2.56571e-19 1.67824e-21 0 2.71838e-19 1.44947e-21 0 2.84859e-19 1.20701e-21 0 2.95553e-19 9.66523e-22 0 3.03954e-19 7.3536e-22 0 3.10144e-19 5.1533e-22 0 3.14211e-19 3.04935e-22 0 3.16226e-19 1.00902e-22 0 3.16226e-19 -1.00902e-22 0 3.14211e-19 -3.04935e-22 0 3.10144e-19 -5.1533e-22 0 3.03954e-19 -7.3536e-22 0 2.95553e-19 -9.66523e-22 0 2.84859e-19 -1.20701e-21 0 2.71838e-19 -1.44947e-21 0 2.56571e-19 -1.67824e-21 0 2.3933e-19 -1.86893e-21 0 2.20657e-19 -1.98774e-21 0 2.01395e-19 -2.44971e-21 0 2.0076e-19 1.13087e-18 0 4.32745e-17 6.57436e-16 0 -6.79691e-14 3.24321e-12 0 -4.3203e-11 5.10278e-09 0 -1.73357e-06 -7.5334e-05 0 -1.51698e-06 6.23012e-05 0 -3.80158e-11 -4.20516e-09 0 -5.99174e-14 -2.68398e-12 0 3.74883e-17 -5.43321e-16 0 3.29174e-21 -9.38495e-19 0 -1.4037e-20 4.71781e-22 0 -1.54471e-20 1.03003e-22 0 -1.68053e-20 9.67993e-23 0 -1.80519e-20 8.69587e-23 0 -1.91488e-20 7.5136e-23 0 -2.00784e-20 6.25918e-23 0 -2.08377e-20 5.0137e-23 0 -2.14314e-20 3.81555e-23 0 -2.18674e-20 2.67439e-23 0 -2.21532e-20 1.58271e-23 0 -2.22946e-20 5.23745e-24 0 -2.22946e-20 -5.23745e-24 0 -2.21532e-20 -1.58271e-23 0 -2.18674e-20 -2.67439e-23 0 -2.14314e-20 -3.81555e-23 0 -2.08377e-20 -5.0137e-23 0 -2.00784e-20 -6.25918e-23 0 -1.91488e-20 -7.5136e-23 0 -1.80519e-20 -8.69587e-23 0 -1.68053e-20 -9.67993e-23 0 -1.54471e-20 -1.03003e-22 0 -1.4037e-20 -4.71781e-22 0 3.29174e-21 9.38495e-19 0 3.74883e-17 5.43321e-16 0 -5.99174e-14 2.68398e-12 0 -3.80158e-11 4.20516e-09 0 -1.51698e-06 -6.23012e-05 0 -1.35901e-06 5.07447e-05 0 -3.41827e-11 -3.4168e-09 0 -5.39409e-14 -2.18713e-12 0 3.34559e-17 -4.42317e-16 0 1.34465e-20 -7.65466e-19 0 -9.95173e-22 3.14839e-22 0 -1.09663e-21 1.54614e-23 0 -1.19272e-21 1.44852e-23 0 -1.28097e-21 1.30253e-23 0 -1.35865e-21 1.12658e-23 0 -1.42453e-21 9.39363e-24 0 -1.47837e-21 7.53039e-24 0 -1.52049e-21 5.73445e-24 0 -1.55142e-21 4.02127e-24 0 -1.5717e-21 2.38054e-24 0 -1.58174e-21 7.87882e-25 0 -1.58174e-21 -7.87882e-25 0 -1.5717e-21 -2.38054e-24 0 -1.55142e-21 -4.02127e-24 0 -1.52049e-21 -5.73445e-24 0 -1.47837e-21 -7.53039e-24 0 -1.42453e-21 -9.39363e-24 0 -1.35865e-21 -1.12658e-23 0 -1.28097e-21 -1.30253e-23 0 -1.19272e-21 -1.44852e-23 0 -1.09663e-21 -1.54614e-23 0 -9.95173e-22 -3.14839e-22 0 1.34465e-20 7.65466e-19 0 3.34559e-17 4.42317e-16 0 -5.39409e-14 2.18713e-12 0 -3.41827e-11 3.4168e-09 0 -1.35901e-06 -5.07447e-05 0 -1.24326e-06 4.02721e-05 0 -3.13486e-11 -2.70706e-09 0 -4.95091e-14 -1.7363e-12 0 3.05194e-17 -3.50906e-16 0 1.30916e-20 -6.08042e-19 0 -7.11274e-23 2.3886e-22 0 -8.01423e-23 1.59884e-24 0 -8.71751e-23 1.45163e-24 0 -9.36313e-23 1.30771e-24 0 -9.93138e-23 1.13318e-24 0 -1.04132e-22 9.465e-25 0 -1.08068e-22 7.59876e-25 0 -1.11147e-22 5.79329e-25 0 -1.13408e-22 4.06607e-25 0 -1.14891e-22 2.40843e-25 0 -1.15624e-22 7.97343e-26 0 -1.15624e-22 -7.97343e-26 0 -1.14891e-22 -2.40843e-25 0 -1.13408e-22 -4.06607e-25 0 -1.11147e-22 -5.79329e-25 0 -1.08068e-22 -7.59876e-25 0 -1.04132e-22 -9.465e-25 0 -9.93138e-23 -1.13318e-24 0 -9.36313e-23 -1.30771e-24 0 -8.71751e-23 -1.45163e-24 0 -8.01423e-23 -1.59884e-24 0 -7.11274e-23 -2.3886e-22 0 1.30916e-20 6.08042e-19 0 3.05194e-17 3.50906e-16 0 -4.95091e-14 1.7363e-12 0 -3.13486e-11 2.70706e-09 0 -1.24326e-06 -4.02721e-05 0 -1.15953e-06 3.05921e-05 0 -2.92855e-11 -2.05395e-09 0 -4.62761e-14 -1.31923e-12 0 2.84072e-17 -2.66492e-16 0 1.22864e-20 -4.62171e-19 0 -4.21319e-24 1.80215e-22 0 -6.42323e-24 1.26109e-25 0 -6.99923e-24 7.6831e-26 0 -7.52531e-24 6.96199e-26 0 -7.98688e-24 6.07019e-26 0 -8.37701e-24 5.09885e-26 0 -8.69489e-24 4.11307e-26 0 -8.94297e-24 3.1477e-26 0 -9.12484e-24 2.21542e-26 0 -9.24392e-24 1.31467e-26 0 -9.30279e-24 4.35637e-27 0 -9.30279e-24 -4.35637e-27 0 -9.24392e-24 -1.31467e-26 0 -9.12484e-24 -2.21542e-26 0 -8.94297e-24 -3.1477e-26 0 -8.69489e-24 -4.11307e-26 0 -8.37701e-24 -5.09885e-26 0 -7.98688e-24 -6.07019e-26 0 -7.52531e-24 -6.96199e-26 0 -6.99923e-24 -7.6831e-26 0 -6.42323e-24 -1.26109e-25 0 -4.21319e-24 -1.80215e-22 0 1.22864e-20 4.62171e-19 0 2.84072e-17 2.66492e-16 0 -4.62761e-14 1.31923e-12 0 -2.92855e-11 2.05395e-09 0 -1.15953e-06 -3.05921e-05 0 -1.10128e-06 2.14771e-05 0 -2.78443e-11 -1.44084e-09 0 -4.40147e-14 -9.26295e-13 0 2.69442e-17 -1.87057e-16 0 1.16855e-20 -3.24598e-19 0 5.03747e-26 1.2639e-22 0 -1.63462e-24 2.43714e-26 0 -1.78194e-24 -6.76368e-27 0 -1.91562e-24 -6.01221e-27 0 -2.03296e-24 -5.12702e-27 0 -2.13218e-24 -4.21889e-27 0 -2.21305e-24 -3.34367e-27 0 -2.27619e-24 -2.52286e-27 0 -2.32248e-24 -1.75698e-27 0 -2.3528e-24 -1.03535e-27 0 -2.36778e-24 -3.4188e-28 0 -2.36778e-24 3.4188e-28 0 -2.3528e-24 1.03535e-27 0 -2.32248e-24 1.75698e-27 0 -2.27619e-24 2.52286e-27 0 -2.21305e-24 3.34367e-27 0 -2.13218e-24 4.21889e-27 0 -2.03296e-24 5.12702e-27 0 -1.91562e-24 6.01221e-27 0 -1.78194e-24 6.76368e-27 0 -1.63462e-24 -2.43714e-26 0 5.03747e-26 -1.2639e-22 0 1.16855e-20 3.24598e-19 0 2.69442e-17 1.87057e-16 0 -4.40147e-14 9.26295e-13 0 -2.78443e-11 1.44084e-09 0 -1.10128e-06 -2.14771e-05 0 -1.06441e-06 1.27411e-05 0 -2.69294e-11 -8.54347e-10 0 -4.25779e-14 -5.49563e-13 0 2.60206e-17 -1.10958e-16 0 1.13025e-20 -1.92613e-19 0 1.04373e-24 7.49577e-23 0 -4.83379e-25 1.60466e-26 0 -5.27401e-25 -2.55867e-27 0 -5.6659e-25 -2.29911e-27 0 -6.01061e-25 -1.98042e-27 0 -6.30265e-25 -1.64508e-27 0 -6.54112e-25 -1.31451e-27 0 -6.72756e-25 -9.98408e-28 0 -6.86442e-25 -6.98778e-28 0 -6.95413e-25 -4.13137e-28 0 -6.99849e-25 -1.36648e-28 0 -6.99849e-25 1.36648e-28 0 -6.95413e-25 4.13137e-28 0 -6.86442e-25 6.98778e-28 0 -6.72756e-25 9.98408e-28 0 -6.54112e-25 1.31451e-27 0 -6.30265e-25 1.64508e-27 0 -6.01061e-25 1.98042e-27 0 -5.6659e-25 2.29911e-27 0 -5.27401e-25 2.55867e-27 0 -4.83379e-25 -1.60466e-26 0 1.04373e-24 -7.49577e-23 0 1.13025e-20 1.92613e-19 0 2.60206e-17 1.10958e-16 0 -4.25779e-14 5.49563e-13 0 -2.69294e-11 8.54347e-10 0 -1.06441e-06 -1.27411e-05 0 -1.04648e-06 4.22328e-06 0 -2.64838e-11 -2.83123e-10 0 -4.18778e-14 -1.8217e-13 0 2.55722e-17 -3.6777e-17 0 1.11157e-20 -6.38526e-20 0 1.34985e-24 2.48429e-23 0 -1.19238e-25 5.83271e-27 0 -1.31049e-25 -3.67304e-28 0 -1.40716e-25 -3.32071e-28 0 -1.49232e-25 -2.86603e-28 0 -1.56459e-25 -2.38506e-28 0 -1.62367e-25 -1.90877e-28 0 -1.66992e-25 -1.45158e-28 0 -1.7039e-25 -1.0169e-28 0 -1.72619e-25 -6.01592e-29 0 -1.73721e-25 -1.99042e-29 0 -1.73721e-25 1.99042e-29 0 -1.72619e-25 6.01592e-29 0 -1.7039e-25 1.0169e-28 0 -1.66992e-25 1.45158e-28 0 -1.62367e-25 1.90877e-28 0 -1.56459e-25 2.38506e-28 0 -1.49232e-25 2.86603e-28 0 -1.40716e-25 3.32071e-28 0 -1.31049e-25 3.67304e-28 0 -1.19238e-25 -5.83271e-27 0 1.34985e-24 -2.48429e-23 0 1.11157e-20 6.38526e-20 0 2.55722e-17 3.6777e-17 0 -4.18778e-14 1.8217e-13 0 -2.64838e-11 2.83123e-10 0 -1.04648e-06 -4.22328e-06 0 -1.04648e-06 -4.22328e-06 0 -2.64838e-11 2.83123e-10 0 -4.18778e-14 1.8217e-13 0 2.55722e-17 3.6777e-17 0 1.11157e-20 6.38526e-20 0 1.34985e-24 -2.48429e-23 0 -1.19238e-25 -5.83271e-27 0 -1.31049e-25 3.67304e-28 0 -1.40716e-25 3.32071e-28 0 -1.49232e-25 2.86603e-28 0 -1.56459e-25 2.38506e-28 0 -1.62367e-25 1.90877e-28 0 -1.66992e-25 1.45158e-28 0 -1.7039e-25 1.0169e-28 0 -1.72619e-25 6.01592e-29 0 -1.73721e-25 1.99042e-29 0 -1.73721e-25 -1.99042e-29 0 -1.72619e-25 -6.01592e-29 0 -1.7039e-25 -1.0169e-28 0 -1.66992e-25 -1.45158e-28 0 -1.62367e-25 -1.90877e-28 0 -1.56459e-25 -2.38506e-28 0 -1.49232e-25 -2.86603e-28 0 -1.40716e-25 -3.32071e-28 0 -1.31049e-25 -3.67304e-28 0 -1.19238e-25 5.83271e-27 0 1.34985e-24 2.48429e-23 0 1.11157e-20 -6.38526e-20 0 2.55722e-17 -3.6777e-17 0 -4.18778e-14 -1.8217e-13 0 -2.64838e-11 -2.83123e-10 0 -1.04648e-06 4.22328e-06 0 -1.06441e-06 -1.27411e-05 0 -2.69294e-11 8.54347e-10 0 -4.25779e-14 5.49563e-13 0 2.60206e-17 1.10958e-16 0 1.13025e-20 1.92613e-19 0 1.04373e-24 -7.49577e-23 0 -4.83379e-25 -1.60466e-26 0 -5.27401e-25 2.55867e-27 0 -5.6659e-25 2.29911e-27 0 -6.01061e-25 1.98042e-27 0 -6.30265e-25 1.64508e-27 0 -6.54112e-25 1.31451e-27 0 -6.72756e-25 9.98408e-28 0 -6.86442e-25 6.98778e-28 0 -6.95413e-25 4.13137e-28 0 -6.99849e-25 1.36648e-28 0 -6.99849e-25 -1.36648e-28 0 -6.95413e-25 -4.13137e-28 0 -6.86442e-25 -6.98778e-28 0 -6.72756e-25 -9.98408e-28 0 -6.54112e-25 -1.31451e-27 0 -6.30265e-25 -1.64508e-27 0 -6.01061e-25 -1.98042e-27 0 -5.6659e-25 -2.29911e-27 0 -5.27401e-25 -2.55867e-27 0 -4.83379e-25 1.60466e-26 0 1.04373e-24 7.49577e-23 0 1.13025e-20 -1.92613e-19 0 2.60206e-17 -1.10958e-16 0 -4.25779e-14 -5.49563e-13 0 -2.69294e-11 -8.54347e-10 0 -1.06441e-06 1.27411e-05 0 -1.10128e-06 -2.14771e-05 0 -2.78443e-11 1.44084e-09 0 -4.40147e-14 9.26295e-13 0 2.69442e-17 1.87057e-16 0 1.16855e-20 3.24598e-19 0 5.03747e-26 -1.2639e-22 0 -1.63462e-24 -2.43714e-26 0 -1.78194e-24 6.76368e-27 0 -1.91562e-24 6.01221e-27 0 -2.03296e-24 5.12702e-27 0 -2.13218e-24 4.21889e-27 0 -2.21305e-24 3.34367e-27 0 -2.27619e-24 2.52286e-27 0 -2.32248e-24 1.75698e-27 0 -2.3528e-24 1.03535e-27 0 -2.36778e-24 3.4188e-28 0 -2.36778e-24 -3.4188e-28 0 -2.3528e-24 -1.03535e-27 0 -2.32248e-24 -1.75698e-27 0 -2.27619e-24 -2.52286e-27 0 -2.21305e-24 -3.34367e-27 0 -2.13218e-24 -4.21889e-27 0 -2.03296e-24 -5.12702e-27 0 -1.91562e-24 -6.01221e-27 0 -1.78194e-24 -6.76368e-27 0 -1.63462e-24 2.43714e-26 0 5.03747e-26 1.2639e-22 0 1.16855e-20 -3.24598e-19 0 2.69442e-17 -1.87057e-16 0 -4.40147e-14 -9.26295e-13 0 -2.78443e-11 -1.44084e-09 0 -1.10128e-06 2.14771e-05 0 -1.15953e-06 -3.05921e-05 0 -2.92855e-11 2.05395e-09 0 -4.62761e-14 1.31923e-12 0 2.84072e-17 2.66492e-16 0 1.22864e-20 4.62171e-19 0 -4.21319e-24 -1.80215e-22 0 -6.42323e-24 -1.26109e-25 0 -6.99923e-24 -7.6831e-26 0 -7.52531e-24 -6.96199e-26 0 -7.98688e-24 -6.07019e-26 0 -8.37701e-24 -5.09885e-26 0 -8.69489e-24 -4.11307e-26 0 -8.94297e-24 -3.1477e-26 0 -9.12484e-24 -2.21542e-26 0 -9.24392e-24 -1.31467e-26 0 -9.30279e-24 -4.35637e-27 0 -9.30279e-24 4.35637e-27 0 -9.24392e-24 1.31467e-26 0 -9.12484e-24 2.21542e-26 0 -8.94297e-24 3.1477e-26 0 -8.69489e-24 4.11307e-26 0 -8.37701e-24 5.09885e-26 0 -7.98688e-24 6.07019e-26 0 -7.52531e-24 6.96199e-26 0 -6.99923e-24 7.6831e-26 0 -6.42323e-24 1.26109e-25 0 -4.21319e-24 1.80215e-22 0 1.22864e-20 -4.62171e-19 0 2.84072e-17 -2.66492e-16 0 -4.62761e-14 -1.31923e-12 0 -2.92855e-11 -2.05395e-09 0 -1.15953e-06 3.05921e-05 0 -1.24326e-06 -4.02721e-05 0 -3.13486e-11 2.70706e-09 0 -4.95091e-14 1.7363e-12 0 3.05194e-17 3.50906e-16 0 1.30916e-20 6.08042e-19 0 -7.11274e-23 -2.3886e-22 0 -8.01423e-23 -1.59884e-24 0 -8.71751e-23 -1.45163e-24 0 -9.36313e-23 -1.30771e-24 0 -9.93138e-23 -1.13318e-24 0 -1.04132e-22 -9.465e-25 0 -1.08068e-22 -7.59876e-25 0 -1.11147e-22 -5.79329e-25 0 -1.13408e-22 -4.06607e-25 0 -1.14891e-22 -2.40843e-25 0 -1.15624e-22 -7.97343e-26 0 -1.15624e-22 7.97343e-26 0 -1.14891e-22 2.40843e-25 0 -1.13408e-22 4.06607e-25 0 -1.11147e-22 5.79329e-25 0 -1.08068e-22 7.59876e-25 0 -1.04132e-22 9.465e-25 0 -9.93138e-23 1.13318e-24 0 -9.36313e-23 1.30771e-24 0 -8.71751e-23 1.45163e-24 0 -8.01423e-23 1.59884e-24 0 -7.11274e-23 2.3886e-22 0 1.30916e-20 -6.08042e-19 0 3.05194e-17 -3.50906e-16 0 -4.95091e-14 -1.7363e-12 0 -3.13486e-11 -2.70706e-09 0 -1.24326e-06 4.02721e-05 0 -1.35901e-06 -5.07447e-05 0 -3.41827e-11 3.4168e-09 0 -5.39409e-14 2.18713e-12 0 3.34559e-17 4.42317e-16 0 1.34465e-20 7.65466e-19 0 -9.95173e-22 -3.14839e-22 0 -1.09663e-21 -1.54614e-23 0 -1.19272e-21 -1.44852e-23 0 -1.28097e-21 -1.30253e-23 0 -1.35865e-21 -1.12658e-23 0 -1.42453e-21 -9.39363e-24 0 -1.47837e-21 -7.53039e-24 0 -1.52049e-21 -5.73445e-24 0 -1.55142e-21 -4.02127e-24 0 -1.5717e-21 -2.38054e-24 0 -1.58174e-21 -7.87882e-25 0 -1.58174e-21 7.87882e-25 0 -1.5717e-21 2.38054e-24 0 -1.55142e-21 4.02127e-24 0 -1.52049e-21 5.73445e-24 0 -1.47837e-21 7.53039e-24 0 -1.42453e-21 9.39363e-24 0 -1.35865e-21 1.12658e-23 0 -1.28097e-21 1.30253e-23 0 -1.19272e-21 1.44852e-23 0 -1.09663e-21 1.54614e-23 0 -9.95173e-22 3.14839e-22 0 1.34465e-20 -7.65466e-19 0 3.34559e-17 -4.42317e-16 0 -5.39409e-14 -2.18713e-12 0 -3.41827e-11 -3.4168e-09 0 -1.35901e-06 5.07447e-05 0 -1.51698e-06 -6.23012e-05 0 -3.80158e-11 4.20516e-09 0 -5.99174e-14 2.68398e-12 0 3.74883e-17 5.43321e-16 0 3.29174e-21 9.38495e-19 0 -1.4037e-20 -4.71781e-22 0 -1.54471e-20 -1.03003e-22 0 -1.68053e-20 -9.67993e-23 0 -1.80519e-20 -8.69587e-23 0 -1.91488e-20 -7.5136e-23 0 -2.00784e-20 -6.25918e-23 0 -2.08377e-20 -5.0137e-23 0 -2.14314e-20 -3.81555e-23 0 -2.18674e-20 -2.67439e-23 0 -2.21532e-20 -1.58271e-23 0 -2.22946e-20 -5.23745e-24 0 -2.22946e-20 5.23745e-24 0 -2.21532e-20 1.58271e-23 0 -2.18674e-20 2.67439e-23 0 -2.14314e-20 3.81555e-23 0 -2.08377e-20 5.0137e-23 0 -2.00784e-20 6.25918e-23 0 -1.91488e-20 7.5136e-23 0 -1.80519e-20 8.69587e-23 0 -1.68053e-20 9.67993e-23 0 -1.54471e-20 1.03003e-22 0 -1.4037e-20 4.71781e-22 0 3.29174e-21 -9.38495e-19 0 3.74883e-17 -5.43321e-16 0 -5.99174e-14 -2.68398e-12 0 -3.80158e-11 -4.20516e-09 0 -1.51698e-06 6.23012e-05 0 -1.73357e-06 -7.5334e-05 0 -4.3203e-11 5.10278e-09 0 -6.79691e-14 3.24321e-12 0 4.32745e-17 6.57436e-16 0 2.0076e-19 1.13087e-18 0 2.01395e-19 -2.44971e-21 0 2.20657e-19 -1.98774e-21 0 2.3933e-19 -1.86893e-21 0 2.56571e-19 -1.67824e-21 0 2.71838e-19 -1.44947e-21 0 2.84859e-19 -1.20701e-21 0 2.95553e-19 -9.66523e-22 0 3.03954e-19 -7.3536e-22 0 3.10144e-19 -5.1533e-22 0 3.14211e-19 -3.04935e-22 0 3.16226e-19 -1.00902e-22 0 3.16226e-19 1.00902e-22 0 3.14211e-19 3.04935e-22 0 3.10144e-19 5.1533e-22 0 3.03954e-19 7.3536e-22 0 2.95553e-19 9.66523e-22 0 2.84859e-19 1.20701e-21 0 2.71838e-19 1.44947e-21 0 2.56571e-19 1.67824e-21 0 2.3933e-19 1.86893e-21 0 2.20657e-19 1.98774e-21 0 2.01395e-19 2.44971e-21 0 2.0076e-19 -1.13087e-18 0 4.32745e-17 -6.57436e-16 0 -6.79691e-14 -3.24321e-12 0 -4.3203e-11 -5.10278e-09 0 -1.73357e-06 7.5334e-05 0 -2.03402e-06 -9.03974e-05 0 -5.02663e-11 6.15503e-09 0 -7.88587e-14 3.8876e-12 0 5.46738e-17 7.89747e-16 0 4.14805e-18 1.43666e-18 0 4.63352e-18 8.57899e-20 0 5.14664e-18 8.58893e-20 0 5.63691e-18 8.10567e-20 0 6.08166e-18 7.30983e-20 0 6.46788e-18 6.34101e-20 0 6.79102e-18 5.30161e-20 0 7.05192e-18 4.25984e-20 0 7.25398e-18 3.24988e-20 0 7.40122e-18 2.28209e-20 0 7.49722e-18 1.35218e-20 0 7.54455e-18 4.4773e-21 0 7.54455e-18 -4.4773e-21 0 7.49722e-18 -1.35218e-20 0 7.40122e-18 -2.28209e-20 0 7.25398e-18 -3.24988e-20 0 7.05192e-18 -4.25984e-20 0 6.79102e-18 -5.30161e-20 0 6.46788e-18 -6.34101e-20 0 6.08166e-18 -7.30983e-20 0 5.63691e-18 -8.10567e-20 0 5.14664e-18 -8.58893e-20 0 4.63352e-18 -8.57899e-20 0 4.14805e-18 -1.43666e-18 0 5.46738e-17 -7.89747e-16 0 -7.88587e-14 -3.8876e-12 0 -5.02663e-11 -6.15503e-09 0 -2.03402e-06 9.03974e-05 0 -2.46744e-06 -0.000108317 0 -6.01722e-11 7.43364e-09 0 -9.5475e-14 4.6505e-12 0 -1.57729e-15 9.52492e-16 0 -1.81803e-15 7.25372e-18 0 -2.0142e-15 5.93977e-18 0 -2.21482e-15 5.87786e-18 0 -2.40846e-15 5.50934e-18 0 -2.58634e-15 4.92883e-18 0 -2.74299e-15 4.24066e-18 0 -2.87587e-15 3.51883e-18 0 -2.9845e-15 2.80919e-18 0 -3.0695e-15 2.13212e-18 0 -3.13195e-15 1.49146e-18 0 -3.1729e-15 8.81482e-19 0 -3.19316e-15 2.91504e-19 0 -3.19316e-15 -2.91504e-19 0 -3.1729e-15 -8.81482e-19 0 -3.13195e-15 -1.49146e-18 0 -3.0695e-15 -2.13212e-18 0 -2.9845e-15 -2.80919e-18 0 -2.87587e-15 -3.51883e-18 0 -2.74299e-15 -4.24066e-18 0 -2.58634e-15 -4.92883e-18 0 -2.40846e-15 -5.50934e-18 0 -2.21482e-15 -5.87786e-18 0 -2.0142e-15 -5.93977e-18 0 -1.81803e-15 -7.25372e-18 0 -1.57729e-15 -9.52492e-16 0 -9.5475e-14 -4.6505e-12 0 -6.01722e-11 -7.43364e-09 0 -2.46744e-06 0.000108317 0 -3.11914e-06 -0.000130397 0 -7.43682e-11 9.06121e-09 0 -4.52163e-14 5.58272e-12 0 7.62887e-14 4.7926e-16 0 8.41005e-14 -7.69458e-16 0 9.28487e-14 -8.16217e-16 0 1.01823e-13 -8.10126e-16 0 1.10511e-13 -7.62259e-16 0 1.18521e-13 -6.85031e-16 0 1.25604e-13 -5.92139e-16 0 1.31635e-13 -4.93477e-16 0 1.36583e-13 -3.95423e-16 0 1.40466e-13 -3.01015e-16 0 1.43325e-13 -2.11034e-16 0 1.45203e-13 -1.24909e-16 0 1.46132e-13 -4.13376e-17 0 1.46132e-13 4.13376e-17 0 1.45203e-13 1.24909e-16 0 1.43325e-13 2.11034e-16 0 1.40466e-13 3.01015e-16 0 1.36583e-13 3.95423e-16 0 1.31635e-13 4.93477e-16 0 1.25604e-13 5.92139e-16 0 1.18521e-13 6.85031e-16 0 1.10511e-13 7.62259e-16 0 1.01823e-13 8.10126e-16 0 9.28487e-14 8.16217e-16 0 8.41005e-14 7.69458e-16 0 7.62887e-14 -4.7926e-16 0 -4.52163e-14 -5.58272e-12 0 -7.43682e-11 -9.06121e-09 0 -3.11914e-06 0.000130397 0 -4.16361e-06 -0.000158857 0 -9.23031e-11 1.12681e-08 0 3.51902e-12 6.7762e-12 0 4.04091e-12 1.39508e-14 0 4.50351e-12 1.4965e-14 0 5.00974e-12 1.59598e-14 0 5.5259e-12 1.59372e-14 0 6.02246e-12 1.51081e-14 0 6.47677e-12 1.36959e-14 0 6.87506e-12 1.19442e-14 0 7.21143e-12 1.00354e-14 0 7.48532e-12 8.09726e-15 0 7.69896e-12 6.19817e-15 0 7.8555e-12 4.36321e-15 0 7.95797e-12 2.58952e-15 0 8.00861e-12 8.58139e-16 0 8.00861e-12 -8.58139e-16 0 7.95797e-12 -2.58952e-15 0 7.8555e-12 -4.36321e-15 0 7.69896e-12 -6.19817e-15 0 7.48532e-12 -8.09726e-15 0 7.21143e-12 -1.00354e-14 0 6.87506e-12 -1.19442e-14 0 6.47677e-12 -1.36959e-14 0 6.02246e-12 -1.51081e-14 0 5.5259e-12 -1.59372e-14 0 5.00974e-12 -1.59598e-14 0 4.50351e-12 -1.4965e-14 0 4.04091e-12 -1.39508e-14 0 3.51902e-12 -6.7762e-12 0 -9.23031e-11 -1.12681e-08 0 -4.16361e-06 0.000158857 0 -5.99975e-06 -0.000197814 0 -7.2633e-10 1.4541e-08 0 -6.12981e-10 1.03362e-11 0 -6.69347e-10 2.88078e-12 0 -7.41375e-10 3.32169e-12 0 -8.20796e-10 3.507e-12 0 -9.02074e-10 3.47496e-12 0 -9.80566e-10 3.26276e-12 0 -1.05272e-09 2.92496e-12 0 -1.11631e-09 2.52191e-12 0 -1.17028e-09 2.09678e-12 0 -1.21444e-09 1.67677e-12 0 -1.24901e-09 1.27438e-12 0 -1.27441e-09 8.92367e-13 0 -1.29108e-09 5.27764e-13 0 -1.29933e-09 1.7459e-13 0 -1.29933e-09 -1.7459e-13 0 -1.29108e-09 -5.27764e-13 0 -1.27441e-09 -8.92367e-13 0 -1.24901e-09 -1.27438e-12 0 -1.21444e-09 -1.67677e-12 0 -1.17028e-09 -2.09678e-12 0 -1.11631e-09 -2.52191e-12 0 -1.05272e-09 -2.92496e-12 0 -9.80566e-10 -3.26276e-12 0 -9.02074e-10 -3.47496e-12 0 -8.20796e-10 -3.507e-12 0 -7.41375e-10 -3.32169e-12 0 -6.69347e-10 -2.88078e-12 0 -6.12981e-10 -1.03362e-11 0 -7.2633e-10 -1.4541e-08 0 -5.99975e-06 0.000197814 0 -9.67809e-06 -0.000255887 0 1.36988e-08 2.024e-08 0 1.39268e-08 -1.45899e-10 0 1.50206e-08 -2.38458e-10 0 1.64899e-08 -2.77593e-10 0 1.81305e-08 -2.93932e-10 0 1.98194e-08 -2.91896e-10 0 2.14603e-08 -2.7483e-10 0 2.29799e-08 -2.47177e-10 0 2.43301e-08 -2.13834e-10 0 2.54853e-08 -1.78343e-10 0 2.64369e-08 -1.43003e-10 0 2.71863e-08 -1.08921e-10 0 2.77395e-08 -7.63941e-11 0 2.81036e-08 -4.52296e-11 0 2.8284e-08 -1.49705e-11 0 2.8284e-08 1.49705e-11 0 2.81036e-08 4.52296e-11 0 2.77395e-08 7.63941e-11 0 2.71863e-08 1.08921e-10 0 2.64369e-08 1.43003e-10 0 2.54853e-08 1.78343e-10 0 2.43301e-08 2.13834e-10 0 2.29799e-08 2.47177e-10 0 2.14603e-08 2.7483e-10 0 1.98194e-08 2.91896e-10 0 1.81305e-08 2.93932e-10 0 1.64899e-08 2.77593e-10 0 1.50206e-08 2.38458e-10 0 1.39268e-08 1.45899e-10 0 1.36988e-08 -2.024e-08 0 -9.67809e-06 0.000255887 0 -1.85128e-05 -0.000356292 0 2.39957e-06 3.00302e-08 0 2.48457e-06 -1.51846e-09 0 2.72551e-06 -1.59451e-09 0 3.02762e-06 -1.6993e-09 0 3.3595e-06 -1.74513e-09 0 3.69854e-06 -1.69161e-09 0 4.02535e-06 -1.54438e-09 0 4.32509e-06 -1.338e-09 0 4.58858e-06 -1.112e-09 0 4.8117e-06 -8.92188e-10 0 4.99382e-06 -6.911e-10 0 5.13615e-06 -5.11511e-10 0 5.2406e-06 -3.50973e-10 0 5.30906e-06 -2.04743e-10 0 5.34291e-06 -6.7261e-11 0 5.34291e-06 6.7261e-11 0 5.30906e-06 2.04743e-10 0 5.2406e-06 3.50973e-10 0 5.13615e-06 5.11511e-10 0 4.99382e-06 6.911e-10 0 4.8117e-06 8.92188e-10 0 4.58858e-06 1.112e-09 0 4.32509e-06 1.338e-09 0 4.02535e-06 1.54438e-09 0 3.69854e-06 1.69161e-09 0 3.3595e-06 1.74513e-09 0 3.02762e-06 1.6993e-09 0 2.72551e-06 1.59451e-09 0 2.48457e-06 1.51846e-09 0 2.39957e-06 -3.00302e-08 0 -1.85128e-05 0.000356292 0 -3.53594e-05 -0.000109378 0 -0.000223375 -5.63467e-07 0 -0.000229254 9.43597e-07 0 -0.000250164 1.38985e-06 0 -0.000276869 1.60816e-06 0 -0.00030634 1.6995e-06 0 -0.000336515 1.6852e-06 0 -0.000365668 1.5837e-06 0 -0.000392482 1.42123e-06 0 -0.000416127 1.22673e-06 0 -0.000436211 1.02099e-06 0 -0.00045265 8.17205e-07 0 -0.000465528 6.21546e-07 0 -0.000474996 4.35466e-07 0 -0.000481208 2.57637e-07 0 -0.000484283 8.52447e-08 0 -0.000484283 -8.52447e-08 0 -0.000481208 -2.57637e-07 0 -0.000474996 -4.35466e-07 0 -0.000465528 -6.21546e-07 0 -0.00045265 -8.17205e-07 0 -0.000436211 -1.02099e-06 0 -0.000416127 -1.22673e-06 0 -0.000392482 -1.42123e-06 0 -0.000365668 -1.5837e-06 0 -0.000336515 -1.6852e-06 0 -0.00030634 -1.6995e-06 0 -0.000276869 -1.60816e-06 0 -0.000250164 -1.38985e-06 0 -0.000229254 -9.43597e-07 0 -0.000223375 5.63467e-07 0 -3.53594e-05 0.000109378 0 </DataArray> 
</PointData> 
<Points> 
<DataArray type="Float32" NumberOfComponents="3"> 