<?xml version="1.0"?> 
<VTKFile type="StructuredGrid" version="0.1"> 
<StructuredGrid WholeExtent="0 31 0 31 0 0"> 
<Piece Extent="0 31 0 31 0 0"> 
<PointData>
<DataArray type="Float32" Name="B" format="ascii" NumberOfComponents="3"> 
2.48345e-05 -0 0 2.33512e-05 -0 0 2.18944e-05 -0 0 2.04735e-05 -0 0 1.90966e-05 -0 0 1.777e-05 -0 0 1.64983e-05 -0 0 1.52848e-05 -0 0 1.41315e-05 -0 0 1.30393e-05 -0 0 1.2008e-05 -0 0 1.10366e-05 -0 0 1.01235e-05 -0 0 9.26662e-06 -0 0 8.46335e-06 -0 0 7.71086e-06 -0 0 7.00608e-06 -0 0 6.3458e-06 -0 0 5.7268e-06 -0 0 5.14574e-06 -0 0 4.59936e-06 -0 0 4.08445e-06 -0 0 3.59778e-06 -0 0 3.13629e-06 -0 0 2.69691e-06 -0 0 2.27667e-06 -0 0 1.87273e-06 -0 0 1.48221e-06 -0 0 1.10237e-06 -0 0 7.3052e-07 -0 0 3.63932e-07 -0 0 0 -0 0 2.48257e-05 1.49537e-06 0 2.33362e-05 1.47397e-06 0 2.18739e-05 1.44212e-06 0 2.04486e-05 1.40152e-06 0 1.90682e-05 1.35383e-06 0 1.77389e-05 1.30067e-06 0 1.64654e-05 1.24356e-06 0 1.52508e-05 1.18389e-06 0 1.40971e-05 1.12287e-06 0 1.3005e-05 1.06157e-06 0 1.19742e-05 1.00084e-06 0 1.10037e-05 9.41547e-07 0 1.00919e-05 8.84052e-07 0 9.23645e-06 8.29057e-07 0 8.43479e-06 7.76817e-07 0 7.68403e-06 7.27336e-07 0 6.98106e-06 6.81362e-07 0 6.32261e-06 6.38434e-07 0 5.70547e-06 5.98738e-07 0 5.12625e-06 5.62559e-07 0 4.58169e-06 5.29401e-07 0 4.06858e-06 4.99618e-07 0 3.58366e-06 4.72981e-07 0 3.12387e-06 4.49192e-07 0 2.68616e-06 4.28756e-07 0 2.26754e-06 4.11039e-07 0 1.86518e-06 3.96142e-07 0 1.47621e-06 3.84205e-07 0 1.0979e-06 3.74799e-07 0 7.27551e-07 3.68235e-07 0 3.62451e-07 3.64312e-07 0 0 3.62832e-07 0 2.4802e-05 3.00294e-06 0 2.32955e-05 2.95848e-06 0 2.1819e-05 2.89307e-06 0 2.03819e-05 2.81016e-06 0 1.89923e-05 2.71314e-06 0 1.76561e-05 2.60528e-06 0 1.63778e-05 2.48969e-06 0 1.51604e-05 2.36911e-06 0 1.40055e-05 2.246e-06 0 1.29137e-05 2.1225e-06 0 1.18845e-05 2.00029e-06 0 1.09166e-05 1.88113e-06 0 1.0008e-05 1.76567e-06 0 9.15647e-06 1.65534e-06 0 8.35913e-06 1.55061e-06 0 7.61298e-06 1.45149e-06 0 6.9148e-06 1.35944e-06 0 6.26125e-06 1.27355e-06 0 5.64902e-06 1.19415e-06 0 5.0747e-06 1.12183e-06 0 4.53497e-06 1.05556e-06 0 4.0266e-06 9.96065e-07 0 3.54631e-06 9.42865e-07 0 3.09103e-06 8.95364e-07 0 2.65773e-06 8.54569e-07 0 2.2434e-06 8.19208e-07 0 1.84523e-06 7.89477e-07 0 1.46037e-06 7.65658e-07 0 1.08608e-06 7.46891e-07 0 7.19704e-07 7.33794e-07 0 3.58538e-07 7.25968e-07 0 0 7.23015e-07 0 2.47596e-05 4.53473e-06 0 2.3225e-05 4.46387e-06 0 2.17246e-05 4.36145e-06 0 2.0268e-05 4.2328e-06 0 1.8863e-05 4.08317e-06 0 1.75154e-05 3.91757e-06 0 1.62295e-05 3.74071e-06 0 1.50076e-05 3.55679e-06 0 1.38512e-05 3.36949e-06 0 1.27602e-05 3.18202e-06 0 1.17338e-05 2.99688e-06 0 1.07703e-05 2.81669e-06 0 9.86748e-06 2.64237e-06 0 9.0226e-06 2.47604e-06 0 8.23259e-06 2.31836e-06 0 7.49426e-06 2.16927e-06 0 6.80418e-06 2.03099e-06 0 6.15887e-06 1.90205e-06 0 5.55491e-06 1.78297e-06 0 4.98879e-06 1.67457e-06 0 4.45715e-06 1.57531e-06 0 3.95669e-06 1.48624e-06 0 3.48414e-06 1.40663e-06 0 3.0364e-06 1.33557e-06 0 2.61043e-06 1.27457e-06 0 2.20325e-06 1.22171e-06 0 1.81206e-06 1.17727e-06 0 1.43402e-06 1.14168e-06 0 1.06643e-06 1.11364e-06 0 7.0666e-07 1.09408e-06 0 3.52032e-07 1.08239e-06 0 0 1.07798e-06 0 2.46932e-05 6.10349e-06 0 2.3118e-05 6.00097e-06 0 2.15834e-05 5.85614e-06 0 2.00991e-05 5.67644e-06 0 1.86726e-05 5.46912e-06 0 1.73094e-05 5.24108e-06 0 1.60131e-05 4.99873e-06 0 1.47857e-05 4.74775e-06 0 1.36276e-05 4.49311e-06 0 1.25384e-05 4.23899e-06 0 1.15166e-05 3.98875e-06 0 1.056e-05 3.74585e-06 0 9.6657e-06 3.51135e-06 0 8.83071e-06 3.28805e-06 0 8.0515e-06 3.07676e-06 0 7.32458e-06 2.87726e-06 0 6.64627e-06 2.69253e-06 0 6.01287e-06 2.52047e-06 0 5.42083e-06 2.36174e-06 0 4.8665e-06 2.21739e-06 0 4.34644e-06 2.08533e-06 0 3.85732e-06 1.9669e-06 0 3.3958e-06 1.86113e-06 0 2.95881e-06 1.76677e-06 0 2.54328e-06 1.6858e-06 0 2.14627e-06 1.61566e-06 0 1.76499e-06 1.55672e-06 0 1.39664e-06 1.50953e-06 0 1.03857e-06 1.47235e-06 0 6.88161e-07 1.44642e-06 0 3.42807e-07 1.43092e-06 0 0 1.42508e-06 0 2.46e-05 7.72198e-06 0 2.29732e-05 7.58045e-06 0 2.13955e-05 7.38572e-06 0 1.98765e-05 7.14761e-06 0 1.84236e-05 6.87567e-06 0 1.70414e-05 6.5788e-06 0 1.57329e-05 6.26526e-06 0 1.44993e-05 5.94227e-06 0 1.33402e-05 5.61607e-06 0 1.22542e-05 5.29183e-06 0 1.12391e-05 4.97366e-06 0 1.02918e-05 4.66586e-06 0 9.40909e-06 4.36951e-06 0 8.58714e-06 4.08805e-06 0 7.82206e-06 3.82234e-06 0 7.10993e-06 3.57193e-06 0 6.44678e-06 3.34051e-06 0 5.82866e-06 3.12529e-06 0 5.25183e-06 2.92701e-06 0 4.71251e-06 2.74694e-06 0 4.20716e-06 2.58234e-06 0 3.73238e-06 2.43489e-06 0 3.28481e-06 2.3033e-06 0 2.86136e-06 2.18599e-06 0 2.459e-06 2.08539e-06 0 2.07477e-06 1.99829e-06 0 1.70595e-06 1.92512e-06 0 1.34977e-06 1.86655e-06 0 1.00362e-06 1.82043e-06 0 6.64969e-07 1.78826e-06 0 3.31242e-07 1.76904e-06 0 0 1.76179e-06 0 2.44672e-05 9.40346e-06 0 2.27757e-05 9.21312e-06 0 2.11446e-05 8.9586e-06 0 1.95835e-05 8.65249e-06 0 1.80989e-05 8.30691e-06 0 1.66948e-05 7.93304e-06 0 1.5373e-05 7.54109e-06 0 1.41336e-05 7.13985e-06 0 1.2975e-05 6.73691e-06 0 1.18947e-05 6.33827e-06 0 1.08894e-05 5.94874e-06 0 9.9552e-06 5.57349e-06 0 9.08791e-06 5.21331e-06 0 8.28317e-06 4.87235e-06 0 7.53642e-06 4.55134e-06 0 6.8433e-06 4.24949e-06 0 6.19948e-06 3.97121e-06 0 5.6007e-06 3.71286e-06 0 5.04302e-06 3.47524e-06 0 4.52249e-06 3.25976e-06 0 4.03548e-06 3.06305e-06 0 3.57854e-06 2.88703e-06 0 3.14827e-06 2.73009e-06 0 2.74158e-06 2.59029e-06 0 2.35545e-06 2.4705e-06 0 1.98698e-06 2.36683e-06 0 1.63348e-06 2.27979e-06 0 1.29226e-06 2.21015e-06 0 9.60762e-07 2.15532e-06 0 6.36525e-07 2.11709e-06 0 3.1706e-07 2.09425e-06 0 0 2.08564e-06 0 2.42864e-05 1.11621e-05 0 2.25178e-05 1.09102e-05 0 2.08241e-05 1.05831e-05 0 1.92143e-05 1.01968e-05 0 1.76942e-05 9.76621e-06 0 1.62665e-05 9.30519e-06 0 1.49315e-05 8.82597e-06 0 1.36877e-05 8.33899e-06 0 1.25322e-05 7.85313e-06 0 1.14609e-05 7.37509e-06 0 1.04693e-05 6.91029e-06 0 9.55242e-06 6.46467e-06 0 8.70498e-06 6.03856e-06 0 7.92185e-06 5.63666e-06 0 7.19783e-06 5.25949e-06 0 6.52803e-06 4.90576e-06 0 5.90768e-06 4.58055e-06 0 5.33223e-06 4.27924e-06 0 4.7975e-06 4.00264e-06 0 4.2994e-06 3.75227e-06 0 3.83419e-06 3.524e-06 0 3.39835e-06 3.32002e-06 0 2.98849e-06 3.13836e-06 0 2.60152e-06 2.97666e-06 0 2.23445e-06 2.83824e-06 0 1.88446e-06 2.71852e-06 0 1.5489e-06 2.61807e-06 0 1.22515e-06 2.53772e-06 0 9.10764e-07 2.47449e-06 0 6.03351e-07 2.43041e-06 0 3.00521e-07 2.40408e-06 0 0 2.39415e-06 0 2.4048e-05 1.30122e-05 0 2.21903e-05 1.26824e-05 0 2.04254e-05 1.22667e-05 0 1.87618e-05 1.1785e-05 0 1.72036e-05 1.12556e-05 0 1.5752e-05 1.06953e-05 0 1.44052e-05 1.01184e-05 0 1.31598e-05 9.53693e-06 0 1.20111e-05 8.9611e-06 0 1.09531e-05 8.3981e-06 0 9.97989e-06 7.85375e-06 0 9.08504e-06 7.33473e-06 0 8.26227e-06 6.84049e-06 0 7.50553e-06 6.37631e-06 0 6.80884e-06 5.94224e-06 0 6.16675e-06 5.53636e-06 0 5.57407e-06 5.16435e-06 0 5.02591e-06 4.82048e-06 0 4.51787e-06 4.50546e-06 0 4.0457e-06 4.2209e-06 0 3.60557e-06 3.96185e-06 0 3.19394e-06 3.7307e-06 0 2.80741e-06 3.52509e-06 0 2.44292e-06 3.34226e-06 0 2.09755e-06 3.1859e-06 0 1.76852e-06 3.05076e-06 0 1.45329e-06 2.93743e-06 0 1.14933e-06 2.84683e-06 0 8.54287e-07 2.77556e-06 0 5.65887e-07 2.72588e-06 0 2.81845e-07 2.69622e-06 0 0 2.68503e-06 0 2.3719e-05 1.4969e-05 0 2.17578e-05 1.45406e-05 0 1.99127e-05 1.40162e-05 0 1.81905e-05 1.34204e-05 0 1.65933e-05 1.27757e-05 0 1.51197e-05 1.21016e-05 0 1.37652e-05 1.14149e-05 0 1.25238e-05 1.07292e-05 0 1.13882e-05 1.00556e-05 0 1.03505e-05 9.40167e-06 0 9.40279e-06 8.77334e-06 0 8.53709e-06 8.17788e-06 0 7.74587e-06 7.61348e-06 0 7.02207e-06 7.08588e-06 0 6.3589e-06 6.59445e-06 0 5.75033e-06 6.13643e-06 0 5.19072e-06 5.71806e-06 0 4.67487e-06 5.3323e-06 0 4.19816e-06 4.97973e-06 0 3.75623e-06 4.66194e-06 0 3.34519e-06 4.37311e-06 0 2.96149e-06 4.11582e-06 0 2.60176e-06 3.88724e-06 0 2.263e-06 3.68421e-06 0 1.94237e-06 3.51075e-06 0 1.63721e-06 3.36093e-06 0 1.34507e-06 3.23538e-06 0 1.06355e-06 3.13508e-06 0 7.90421e-07 3.05619e-06 0 5.23532e-07 3.00122e-06 0 2.60735e-07 2.96841e-06 0 0 2.95604e-06 0 2.32926e-05 1.7048e-05 0 2.12164e-05 1.64948e-05 0 1.92848e-05 1.58367e-05 0 1.75023e-05 1.51043e-05 0 1.58679e-05 1.43244e-05 0 1.43764e-05 1.352e-05 0 1.30201e-05 1.27099e-05 0 1.17895e-05 1.19091e-05 0 1.06745e-05 1.11297e-05 0 9.66454e-06 1.03786e-05 0 8.7497e-06 9.66194e-06 0 7.92021e-06 8.98727e-06 0 7.16718e-06 8.35104e-06 0 6.48249e-06 7.75928e-06 0 5.85854e-06 7.21046e-06 0 5.28871e-06 6.70074e-06 0 4.76694e-06 6.23686e-06 0 4.28773e-06 5.81028e-06 0 3.84632e-06 5.42137e-06 0 3.43825e-06 5.07164e-06 0 3.05962e-06 4.75434e-06 0 2.70689e-06 4.47216e-06 0 2.37678e-06 4.22182e-06 0 2.06636e-06 3.9997e-06 0 1.77292e-06 3.81015e-06 0 1.49392e-06 3.64657e-06 0 1.22704e-06 3.50956e-06 0 9.70039e-07 3.40017e-06 0 7.20819e-07 3.31417e-06 0 4.77383e-07 3.25427e-06 0 2.37738e-07 3.21852e-06 0 0 3.20504e-06 0 2.27321e-05 1.92647e-05 0 2.05296e-05 1.85534e-05 0 1.85073e-05 1.77311e-05 0 1.66658e-05 1.6835e-05 0 1.49994e-05 1.58971e-05 0 1.34981e-05 1.49435e-05 0 1.21494e-05 1.39952e-05 0 1.09399e-05 1.30679e-05 0 9.85587e-06 1.21742e-05 0 8.8838e-06 1.13201e-05 0 8.01142e-06 1.05112e-05 0 7.22707e-06 9.75507e-06 0 6.52042e-06 9.04591e-06 0 5.88228e-06 8.38989e-06 0 5.30425e-06 7.78425e-06 0 4.77919e-06 7.22385e-06 0 4.30066e-06 6.71582e-06 0 3.86296e-06 6.24996e-06 0 3.4612e-06 5.82634e-06 0 3.09092e-06 5.44632e-06 0 2.74824e-06 5.10218e-06 0 2.42971e-06 4.79666e-06 0 2.13215e-06 4.52601e-06 0 1.85279e-06 4.28614e-06 0 1.58905e-06 4.08167e-06 0 1.33855e-06 3.90535e-06 0 1.09915e-06 3.75778e-06 0 8.68757e-07 3.64003e-06 0 6.45461e-07 3.54749e-06 0 4.27431e-07 3.48306e-06 0 2.12848e-07 3.44461e-06 0 0 3.43011e-06 0 2.19898e-05 2.16339e-05 0 1.96518e-05 2.07225e-05 0 1.75387e-05 1.96984e-05 0 1.56447e-05 1.86065e-05 0 1.3957e-05 1.74843e-05 0 1.24591e-05 1.63609e-05 0 1.11325e-05 1.52585e-05 0 9.95871e-06 1.41933e-05 0 8.9197e-06 1.31773e-05 0 7.99869e-06 1.2215e-05 0 7.18086e-06 1.13107e-05 0 6.45254e-06 1.04719e-05 0 5.802e-06 9.68967e-06 0 5.21904e-06 8.97016e-06 0 4.69456e-06 8.3091e-06 0 4.22098e-06 7.69978e-06 0 3.79159e-06 7.14962e-06 0 3.4006e-06 6.6466e-06 0 3.0431e-06 6.19042e-06 0 2.71469e-06 5.78222e-06 0 2.4116e-06 5.41322e-06 0 2.13053e-06 5.08623e-06 0 1.86849e-06 4.79699e-06 0 1.62287e-06 4.54092e-06 0 1.39129e-06 4.32291e-06 0 1.17159e-06 4.13505e-06 0 9.61794e-07 3.97793e-06 0 7.60041e-07 3.85263e-06 0 5.64604e-07 3.75421e-06 0 3.73848e-07 3.68569e-06 0 1.86154e-07 3.64482e-06 0 0 3.62941e-06 0 2.10421e-05 2.41677e-05 0 1.8565e-05 2.30035e-05 0 1.63669e-05 2.17319e-05 0 1.44323e-05 2.04072e-05 0 1.2739e-05 1.90713e-05 0 1.12616e-05 1.77562e-05 0 9.97453e-06 1.6484e-05 0 8.853e-06 1.52699e-05 0 7.87445e-06 1.41248e-05 0 7.01846e-06 1.30503e-05 0 6.26758e-06 1.20489e-05 0 5.60621e-06 1.11274e-05 0 5.02129e-06 1.02732e-05 0 4.50175e-06 9.49216e-06 0 4.03794e-06 8.77808e-06 0 3.62197e-06 8.1225e-06 0 3.24704e-06 7.53301e-06 0 2.90736e-06 6.99562e-06 0 2.59811e-06 6.50958e-06 0 2.31506e-06 6.07574e-06 0 2.05464e-06 5.6843e-06 0 1.81376e-06 5.33805e-06 0 1.58965e-06 5.03219e-06 0 1.37997e-06 4.76173e-06 0 1.18256e-06 4.53172e-06 0 9.95473e-07 4.33368e-06 0 8.16999e-07 4.16815e-06 0 6.45485e-07 4.03622e-06 0 4.79432e-07 3.93263e-06 0 3.17419e-07 3.86054e-06 0 1.58046e-07 3.81754e-06 0 0 3.80133e-06 0 1.9789e-05 2.68732e-05 0 1.71779e-05 2.539e-05 0 1.49124e-05 2.3817e-05 0 1.29618e-05 2.22172e-05 0 1.12904e-05 2.06365e-05 0 9.86144e-06 1.91074e-05 0 8.64026e-06 1.76505e-05 0 7.59527e-06 1.62783e-05 0 6.69881e-06 1.49992e-05 0 5.92675e-06 1.38106e-05 0 5.25915e-06 1.27125e-05 0 4.6787e-06 1.17102e-05 0 4.17127e-06 1.07868e-05 0 3.72521e-06 9.94747e-06 0 3.33056e-06 9.18399e-06 0 2.9794e-06 8.48587e-06 0 2.66503e-06 7.8607e-06 0 2.38183e-06 7.29246e-06 0 2.12527e-06 6.77988e-06 0 1.89139e-06 6.32349e-06 0 1.67693e-06 5.91244e-06 0 1.47912e-06 5.54945e-06 0 1.29551e-06 5.22927e-06 0 1.12402e-06 4.94645e-06 0 9.62815e-07 4.70618e-06 0 8.10222e-07 4.49946e-06 0 6.64786e-07 4.32678e-06 0 5.25121e-07 4.18923e-06 0 3.89974e-07 4.08126e-06 0 2.58165e-07 4.00615e-06 0 1.28535e-07 3.96135e-06 0 0 3.94447e-06 0 1.8174e-05 2.9747e-05 0 1.54487e-05 2.7863e-05 0 1.3147e-05 2.59257e-05 0 1.12165e-05 2.40051e-05 0 9.60355e-06 2.21482e-05 0 8.25753e-06 2.03846e-05 0 7.13342e-06 1.87309e-05 0 6.19231e-06 1.71946e-05 0 5.40141e-06 1.57798e-05 0 4.73318e-06 1.44782e-05 0 4.16555e-06 1.32863e-05 0 3.6799e-06 1.22074e-05 0 3.26149e-06 1.12196e-05 0 2.89842e-06 1.03272e-05 0 2.58081e-06 9.51939e-06 0 2.30098e-06 8.78365e-06 0 2.05256e-06 8.12745e-06 0 1.83036e-06 7.5327e-06 0 1.63027e-06 6.99758e-06 0 1.44876e-06 6.52223e-06 0 1.283e-06 6.09483e-06 0 1.13062e-06 5.71803e-06 0 9.89534e-07 5.38608e-06 0 8.58051e-07 5.09316e-06 0 7.34652e-07 4.84456e-06 0 6.17999e-07 4.6308e-06 0 5.06928e-07 4.45236e-06 0 4.00345e-07 4.31029e-06 0 2.97266e-07 4.1988e-06 0 1.96772e-07 4.12126e-06 0 9.79629e-08 4.07503e-06 0 0 4.05761e-06 0 1.61233e-05 3.27675e-05 0 1.33242e-05 3.03851e-05 0 1.10356e-05 2.80145e-05 0 9.17553e-06 2.57269e-05 0 7.66811e-06 2.35648e-05 0 6.44696e-06 2.15508e-05 0 5.4561e-06 1.9693e-05 0 4.6494e-06 1.79914e-05 0 3.98945e-06 1.64435e-05 0 3.44593e-06 1.5034e-05 0 2.99529e-06 1.37546e-05 0 2.61826e-06 1.26063e-05 0 2.30003e-06 1.15613e-05 0 2.02898e-06 1.06227e-05 0 1.79571e-06 9.77723e-06 0 1.59311e-06 9.0101e-06 0 1.41545e-06 8.32851e-06 0 1.25818e-06 7.71241e-06 0 1.11779e-06 7.15939e-06 0 9.91332e-07 6.6692e-06 0 8.76513e-07 6.22915e-06 0 7.71446e-07 5.84175e-06 0 6.74528e-07 5.50087e-06 0 5.84462e-07 5.20033e-06 0 5.00121e-07 4.94548e-06 0 4.20523e-07 4.72648e-06 0 3.4483e-07 4.54375e-06 0 2.72262e-07 4.39832e-06 0 2.02126e-07 4.28424e-06 0 1.3378e-07 4.20491e-06 0 6.65978e-08 4.15762e-06 0 0 4.13979e-06 0 1.34124e-05 3.58793e-05 0 1.06314e-05 3.28888e-05 0 8.44903e-06 3.0015e-05 0 6.74467e-06 2.73196e-05 0 5.41674e-06 2.48314e-05 0 4.38253e-06 2.25591e-05 0 3.57599e-06 2.04978e-05 0 2.94507e-06 1.86366e-05 0 2.44922e-06 1.69645e-05 0 2.05677e-06 1.54571e-05 0 1.74394e-06 1.41009e-05 0 1.49195e-06 1.28935e-05 0 1.28679e-06 1.18011e-05 0 1.11787e-06 1.08255e-05 0 9.76881e-07 9.95077e-06 0 8.57773e-07 9.15983e-06 0 7.55828e-07 8.45954e-06 0 6.67434e-07 7.82806e-06 0 5.89893e-07 7.26244e-06 0 5.21049e-07 6.76204e-06 0 4.59264e-07 6.31341e-06 0 4.03249e-07 5.91897e-06 0 3.51949e-07 5.57221e-06 0 3.0454e-07 5.26672e-06 0 2.60329e-07 5.00785e-06 0 2.18732e-07 4.78551e-06 0 1.79264e-07 4.60007e-06 0 1.41484e-07 4.45252e-06 0 1.05009e-07 4.3368e-06 0 6.94895e-08 4.25636e-06 0 3.45897e-08 4.2084e-06 0 0 4.19033e-06 0 1.00187e-05 3.89747e-05 0 7.38421e-06 3.52666e-05 0 5.4214e-06 3.1831e-05 0 3.96734e-06 2.87013e-05 0 2.89561e-06 2.58802e-05 0 2.10941e-06 2.33547e-05 0 1.53516e-06 2.11016e-05 0 1.11737e-06 1.90958e-05 0 8.14478e-07 1.73155e-05 0 5.95262e-07 1.57264e-05 0 4.37175e-07 1.43087e-05 0 3.23087e-07 1.30562e-05 0 2.40777e-07 1.19293e-05 0 1.8138e-07 1.09282e-05 0 1.38295e-07 1.00341e-05 0 1.06944e-07 9.2283e-06 0 8.39598e-08 8.51698e-06 0 6.69249e-08 7.87687e-06 0 5.41579e-08 7.30454e-06 0 4.44155e-08 6.79897e-06 0 3.68366e-08 6.3462e-06 0 3.0808e-08 5.94849e-06 0 2.58815e-08 5.59913e-06 0 2.17501e-08 5.2915e-06 0 1.81891e-08 5.03097e-06 0 1.50373e-08 4.80726e-06 0 1.21815e-08 4.62073e-06 0 9.53575e-09 4.47236e-06 0 7.03811e-09 4.35601e-06 0 4.64105e-09 4.27513e-06 0 2.30561e-09 4.22692e-06 0 0 4.20875e-06 0 5.75286e-06 4.18739e-05 0 3.4702e-06 3.73648e-05 0 1.88918e-06 3.33374e-05 0 8.10918e-07 2.97727e-05 0 9.14438e-08 2.66338e-05 0 -3.738e-07 2.38776e-05 0 -6.60699e-07 2.14584e-05 0 -8.24108e-07 1.93338e-05 0 -9.03342e-07 1.74701e-05 0 -9.26612e-07 1.58219e-05 0 -9.13291e-07 1.43631e-05 0 -8.77288e-07 1.30834e-05 0 -8.27895e-07 1.19377e-05 0 -7.71361e-07 1.09245e-05 0 -7.11926e-07 1.00228e-05 0 -6.52206e-07 9.21213e-06 0 -5.93855e-07 8.4983e-06 0 -5.37832e-07 7.85695e-06 0 -4.84615e-07 7.28425e-06 0 -4.34393e-07 6.77892e-06 0 -3.8715e-07 6.32668e-06 0 -3.42755e-07 5.92969e-06 0 -3.00995e-07 5.58111e-06 0 -2.61625e-07 5.27428e-06 0 -2.24375e-07 5.01448e-06 0 -1.88964e-07 4.79146e-06 0 -1.55122e-07 4.60552e-06 0 -1.22569e-07 4.45763e-06 0 -9.10391e-08 4.34167e-06 0 -6.02735e-08 4.26107e-06 0 -3.00102e-08 4.21302e-06 0 0 4.19492e-06 0 4.86278e-07 4.42977e-05 0 -1.16198e-06 3.89726e-05 0 -2.15766e-06 3.43764e-05 0 -2.71264e-06 3.04162e-05 0 -2.97269e-06 2.70046e-05 0 -3.03917e-06 2.40632e-05 0 -2.9825e-06 2.15205e-05 0 -2.85119e-06 1.9316e-05 0 -2.67813e-06 1.74029e-05 0 -2.48533e-06 1.57256e-05 0 -2.28666e-06 1.42512e-05 0 -2.09104e-06 1.29659e-05 0 -1.90354e-06 1.18199e-05 0 -1.72686e-06 1.081e-05 0 -1.56222e-06 9.91363e-06 0 -1.40977e-06 9.10929e-06 0 -1.26914e-06 8.40215e-06 0 -1.13958e-06 7.76742e-06 0 -1.02022e-06 7.20104e-06 0 -9.10057e-07 6.70155e-06 0 -8.08144e-07 6.25468e-06 0 -7.13549e-07 5.86249e-06 0 -6.25368e-07 5.51817e-06 0 -5.42782e-07 5.21509e-06 0 -4.65012e-07 4.95848e-06 0 -3.9133e-07 4.73819e-06 0 -3.21075e-07 4.55453e-06 0 -2.53603e-07 4.40845e-06 0 -1.8832e-07 4.29389e-06 0 -1.24661e-07 4.21427e-06 0 -6.20633e-08 4.16681e-06 0 0 4.14893e-06 0 -5.65704e-06 4.58992e-05 0 -6.38707e-06 3.98506e-05 0 -6.60546e-06 3.47801e-05 0 -6.50465e-06 3.05127e-05 0 -6.21299e-06 2.69078e-05 0 -5.8165e-06 2.38513e-05 0 -5.37201e-06 2.12457e-05 0 -4.91599e-06 1.90129e-05 0 -4.47074e-06 1.7094e-05 0 -4.04903e-06 1.54238e-05 0 -3.65708e-06 1.39644e-05 0 -3.29719e-06 1.26981e-05 0 -2.96912e-06 1.15724e-05 0 -2.67127e-06 1.05828e-05 0 -2.40125e-06 9.70579e-06 0 -2.15647e-06 8.91949e-06 0 -1.93424e-06 8.22862e-06 0 -1.73197e-06 7.60861e-06 0 -1.54734e-06 7.05537e-06 0 -1.37814e-06 6.56741e-06 0 -1.22242e-06 6.13076e-06 0 -1.07844e-06 5.74744e-06 0 -9.44602e-07 5.41082e-06 0 -8.19512e-07 5.11445e-06 0 -7.01885e-07 4.86345e-06 0 -5.90552e-07 4.64792e-06 0 -4.84466e-07 4.4682e-06 0 -3.82625e-07 4.32522e-06 0 -2.84114e-07 4.21309e-06 0 -1.88066e-07 4.13515e-06 0 -9.36286e-08 4.08868e-06 0 0 4.07117e-06 0 -1.26307e-05 4.63116e-05 0 -1.21401e-05 3.97586e-05 0 -1.13824e-05 3.43862e-05 0 -1.04925e-05 2.99513e-05 0 -9.55955e-06 2.62679e-05 0 -8.64095e-06 2.31908e-05 0 -7.77083e-06 2.06003e-05 0 -6.96711e-06 1.84032e-05 0 -6.23677e-06 1.65301e-05 0 -5.57986e-06 1.49094e-05 0 -4.99257e-06 1.34989e-05 0 -4.46887e-06 1.22787e-05 0 -4.00213e-06 1.11955e-05 0 -3.58572e-06 1.02439e-05 0 -3.21321e-06 9.40066e-06 0 -2.87898e-06 8.64435e-06 0 -2.57792e-06 7.97934e-06 0 -2.30551e-06 7.38211e-06 0 -2.05794e-06 6.84874e-06 0 -1.83179e-06 6.37787e-06 0 -1.62414e-06 5.9562e-06 0 -1.43247e-06 5.58572e-06 0 -1.25449e-06 5.26014e-06 0 -1.08826e-06 4.97333e-06 0 -9.32016e-07 4.73027e-06 0 -7.84169e-07 4.52148e-06 0 -6.43307e-07 4.3473e-06 0 -5.08083e-07 4.20869e-06 0 -3.77278e-07 4.09996e-06 0 -2.49739e-07 4.02436e-06 0 -1.24334e-07 3.97929e-06 0 0 3.9623e-06 0 -2.00389e-05 4.52282e-05 0 -1.81374e-05 3.84971e-05 0 -1.62767e-05 3.30623e-05 0 -1.45133e-05 2.86438e-05 0 -1.28852e-05 2.50277e-05 0 -1.14127e-05 2.20465e-05 0 -1.01008e-05 1.95645e-05 0 -8.94363e-06 1.7477e-05 0 -7.92893e-06 1.57082e-05 0 -7.04123e-06 1.41829e-05 0 -6.2648e-06 1.28579e-05 0 -5.58412e-06 1.17118e-05 0 -4.98545e-06 1.06936e-05 0 -4.45679e-06 9.79775e-06 0 -3.98749e-06 9.00236e-06 0 -3.56886e-06 8.28762e-06 0 -3.19336e-06 7.65771e-06 0 -2.85464e-06 7.09091e-06 0 -2.54747e-06 6.58379e-06 0 -2.26725e-06 6.13527e-06 0 -2.01018e-06 5.73303e-06 0 -1.77301e-06 5.37913e-06 0 -1.55283e-06 5.06775e-06 0 -1.34719e-06 4.79319e-06 0 -1.15388e-06 4.56029e-06 0 -9.70935e-07 4.36008e-06 0 -7.96593e-07 4.19297e-06 0 -6.29196e-07 4.05992e-06 0 -4.67239e-07 3.95551e-06 0 -3.09303e-07 3.8829e-06 0 -1.53992e-07 3.8396e-06 0 0 3.82328e-06 0 -2.7478e-05 4.24892e-05 0 -2.4094e-05 3.5955e-05 0 -2.10749e-05 3.0732e-05 0 -1.84007e-05 2.65415e-05 0 -1.60582e-05 2.31599e-05 0 -1.40275e-05 2.04072e-05 0 -1.228e-05 1.81375e-05 0 -1.07817e-05 1.62404e-05 0 -9.49782e-06 1.46373e-05 0 -8.39499e-06 1.32549e-05 0 -7.4443e-06 1.20516e-05 0 -6.62007e-06 1.10071e-05 0 -5.90122e-06 1.00755e-05 0 -5.27039e-06 9.25198e-06 0 -4.71288e-06 8.51757e-06 0 -4.21707e-06 7.85503e-06 0 -3.77324e-06 7.26859e-06 0 -3.37334e-06 6.7392e-06 0 -3.0109e-06 6.2641e-06 0 -2.68032e-06 5.84268e-06 0 -2.37702e-06 5.46394e-06 0 -2.09709e-06 5.13001e-06 0 -1.83711e-06 4.83571e-06 0 -1.59418e-06 4.57585e-06 0 -1.36572e-06 4.35514e-06 0 -1.14939e-06 4.16524e-06 0 -9.43145e-07 4.0066e-06 0 -7.45044e-07 3.88021e-06 0 -5.5332e-07 3.78098e-06 0 -3.66312e-07 3.71195e-06 0 -1.82383e-07 3.67077e-06 0 0 3.65525e-06 0 -3.45088e-05 3.80957e-05 0 -2.96903e-05 3.21133e-05 0 -2.55266e-05 2.73765e-05 0 -2.1952e-05 2.36371e-05 0 -1.89145e-05 2.06711e-05 0 -1.63548e-05 1.82898e-05 0 -1.42065e-05 1.63422e-05 0 -1.24029e-05 1.47178e-05 0 -1.08835e-05 1.33413e-05 0 -9.59534e-06 1.21471e-05 0 -8.49595e-06 1.10993e-05 0 -7.54956e-06 1.01808e-05 0 -6.72825e-06 9.35476e-06 0 -6.00979e-06 8.61799e-06 0 -5.37596e-06 7.95574e-06 0 -4.81274e-06 7.35442e-06 0 -4.30861e-06 6.81855e-06 0 -3.85419e-06 6.33245e-06 0 -3.44204e-06 5.89428e-06 0 -3.06577e-06 5.50404e-06 0 -2.72019e-06 5.15228e-06 0 -2.40093e-06 4.84128e-06 0 -2.10412e-06 4.56657e-06 0 -1.82652e-06 4.3236e-06 0 -1.56523e-06 4.11687e-06 0 -1.31763e-06 3.9388e-06 0 -1.08142e-06 3.7899e-06 0 -8.54421e-07 3.67117e-06 0 -6.34632e-07 3.57791e-06 0 -4.2018e-07 3.51299e-06 0 -2.09214e-07 3.47426e-06 0 0 3.45966e-06 0 -4.07737e-05 3.21889e-05 0 -3.46432e-05 2.70278e-05 0 -2.93911e-05 2.30265e-05 0 -2.49646e-05 1.99653e-05 0 -2.12921e-05 1.76059e-05 0 -1.82713e-05 1.57447e-05 0 -1.57896e-05 1.42286e-05 0 -1.37419e-05 1.29551e-05 0 -1.20392e-05 1.18597e-05 0 -1.06089e-05 1.08926e-05 0 -9.39567e-06 1.00279e-05 0 -8.35503e-06 9.25503e-06 0 -7.45345e-06 8.54926e-06 0 -6.66504e-06 7.91017e-06 0 -5.96904e-06 7.32853e-06 0 -5.34977e-06 6.79523e-06 0 -4.79453e-06 6.31534e-06 0 -4.29311e-06 5.87706e-06 0 -3.83745e-06 5.47966e-06 0 -3.42068e-06 5.12384e-06 0 -3.03723e-06 4.8019e-06 0 -2.68239e-06 4.51625e-06 0 -2.35202e-06 4.26324e-06 0 -2.04263e-06 4.03899e-06 0 -1.75108e-06 3.8478e-06 0 -1.47454e-06 3.68289e-06 0 -1.21052e-06 3.54483e-06 0 -9.56608e-07 3.43464e-06 0 -7.10641e-07 3.34802e-06 0 -4.70554e-07 3.2877e-06 0 -2.34311e-07 3.2517e-06 0 0 3.23812e-06 0 -4.60776e-05 2.49612e-05 0 -3.87277e-05 2.07666e-05 0 -3.24258e-05 1.77327e-05 0 -2.72187e-05 1.55985e-05 0 -2.30171e-05 1.40534e-05 0 -1.96509e-05 1.28621e-05 0 -1.69422e-05 1.18781e-05 0 -1.47395e-05 1.10207e-05 0 -1.29249e-05 1.02482e-05 0 -1.14083e-05 9.5355e-06 0 -1.01244e-05 8.87231e-06 0 -9.02281e-06 8.25706e-06 0 -8.06679e-06 7.68034e-06 0 -7.2285e-06 7.14539e-06 0 -6.48609e-06 6.64935e-06 0 -5.82326e-06 6.18818e-06 0 -5.22693e-06 5.76765e-06 0 -4.68664e-06 5.38016e-06 0 -4.19415e-06 5.02613e-06 0 -3.74245e-06 4.70704e-06 0 -3.32583e-06 4.417e-06 0 -2.93946e-06 4.15856e-06 0 -2.57905e-06 3.9289e-06 0 -2.24098e-06 3.72485e-06 0 -1.92196e-06 3.55047e-06 0 -1.61902e-06 3.39983e-06 0 -1.32951e-06 3.27354e-06 0 -1.05088e-06 3.17263e-06 0 -7.80808e-07 3.09326e-06 0 -5.17077e-07 3.03795e-06 0 -2.57495e-07 3.00492e-06 0 0 2.99247e-06 0 -5.04474e-05 1.65005e-05 0 -4.17509e-05 1.32965e-05 0 -3.4335e-05 1.15338e-05 0 -2.84517e-05 1.06587e-05 0 -2.3905e-05 1.01639e-05 0 -2.03767e-05 9.78235e-06 0 -1.75934e-05 9.40697e-06 0 -1.53534e-05 9.00587e-06 0 -1.3515e-05 8.5767e-06 0 -1.19777e-05 8.1289e-06 0 -1.0672e-05 7.6725e-06 0 -9.54619e-06 7.21756e-06 0 -8.56343e-06 6.77152e-06 0 -7.69644e-06 6.34187e-06 0 -6.92405e-06 5.93251e-06 0 -6.23056e-06 5.54459e-06 0 -5.60342e-06 5.18462e-06 0 -5.03257e-06 4.84919e-06 0 -4.5101e-06 4.53986e-06 0 -4.02919e-06 4.25883e-06 0 -3.58426e-06 4.00201e-06 0 -3.17055e-06 3.77205e-06 0 -2.78377e-06 3.56695e-06 0 -2.42028e-06 3.38421e-06 0 -2.07674e-06 3.22763e-06 0 -1.75009e-06 3.09213e-06 0 -1.4376e-06 2.97838e-06 0 -1.1366e-06 2.88737e-06 0 -8.44652e-07 2.81573e-06 0 -5.59428e-07 2.76578e-06 0 -2.78606e-07 2.73594e-06 0 0 2.72469e-06 0 -5.42679e-05 6.48698e-06 0 -4.33901e-05 4.26614e-06 0 -3.46298e-05 4.47663e-06 0 -2.83358e-05 5.38497e-06 0 -2.37854e-05 6.18703e-06 0 -2.03708e-05 6.70758e-06 0 -1.77112e-05 6.96595e-06 0 -1.5573e-05 7.02015e-06 0 -1.38084e-05 6.92463e-06 0 -1.23196e-05 6.73064e-06 0 -1.10418e-05 6.47094e-06 0 -9.92811e-06 6.16826e-06 0 -8.94567e-06 5.84668e-06 0 -8.07044e-06 5.51792e-06 0 -7.28381e-06 5.19228e-06 0 -6.57199e-06 4.87569e-06 0 -5.92387e-06 4.57532e-06 0 -5.33048e-06 4.29157e-06 0 -4.78464e-06 4.02701e-06 0 -4.2801e-06 3.78445e-06 0 -3.81164e-06 3.56142e-06 0 -3.37475e-06 3.36064e-06 0 -2.9653e-06 3.18085e-06 0 -2.5797e-06 3.02018e-06 0 -2.21466e-06 2.88212e-06 0 -1.86708e-06 2.76244e-06 0 -1.5342e-06 2.66181e-06 0 -1.21328e-06 2.5812e-06 0 -9.0181e-07 2.51769e-06 0 -5.97363e-07 2.47337e-06 0 -2.97522e-07 2.44689e-06 0 0 2.4369e-06 0 -5.90663e-05 -7.06642e-06 0 -4.22557e-05 -7.34381e-06 0 -3.23522e-05 -3.04359e-06 0 -2.65224e-05 3.10176e-07 0 -2.25705e-05 2.51533e-06 0 -1.96341e-05 3.89953e-06 0 -1.73218e-05 4.72833e-06 0 -1.54275e-05 5.18018e-06 0 -1.38306e-05 5.37249e-06 0 -1.24545e-05 5.3972e-06 0 -1.12495e-05 5.30798e-06 0 -1.01803e-05 5.13888e-06 0 -9.22197e-06 4.92795e-06 0 -8.35642e-06 4.69044e-06 0 -7.56939e-06 4.44182e-06 0 -6.85014e-06 4.19187e-06 0 -6.18983e-06 3.94818e-06 0 -5.58114e-06 3.71427e-06 0 -5.01801e-06 3.49342e-06 0 -4.49505e-06 3.2889e-06 0 -4.00762e-06 3.0996e-06 0 -3.55157e-06 2.92821e-06 0 -3.12305e-06 2.77408e-06 0 -2.71865e-06 2.63592e-06 0 -2.33513e-06 2.51686e-06 0 -1.96945e-06 2.41346e-06 0 -1.61884e-06 2.32638e-06 0 -1.28054e-06 2.25654e-06 0 -9.51983e-07 2.20147e-06 0 -6.30679e-07 2.16302e-06 0 -3.14139e-07 2.14004e-06 0 0 2.13137e-06 0 -6.09857e-05 -6.40102e-05 0 -3.23239e-05 -2.00372e-05 0 -2.65298e-05 -9.12608e-06 0 -2.30171e-05 -3.59691e-06 0 -2.04055e-05 -3.5486e-07 0 -1.83004e-05 1.6336e-06 0 -1.65274e-05 2.85863e-06 0 -1.49918e-05 3.59013e-06 0 -1.36357e-05 3.98954e-06 0 -1.24212e-05 4.17606e-06 0 -1.1323e-05 4.21708e-06 0 -1.03226e-05 4.15389e-06 0 -9.40644e-06 4.03356e-06 0 -8.5643e-06 3.8734e-06 0 -7.78765e-06 3.69211e-06 0 -7.06966e-06 3.50197e-06 0 -6.40437e-06 3.31053e-06 0 -5.78646e-06 3.12343e-06 0 -5.21133e-06 2.9444e-06 0 -4.6746e-06 2.77682e-06 0 -4.17234e-06 2.62066e-06 0 -3.70091e-06 2.47845e-06 0 -3.25678e-06 2.35003e-06 0 -2.83677e-06 2.23456e-06 0 -2.43777e-06 2.13477e-06 0 -2.05683e-06 2.04795e-06 0 -1.69118e-06 1.97473e-06 0 -1.33809e-06 1.91593e-06 0 -9.94939e-07 1.86953e-06 0 -6.59218e-07 1.83711e-06 0 -3.28378e-07 1.81773e-06 0 0 1.81041e-06 0 </DataArray> 
</PointData> 
<Points> 
<DataArray type="Float32" NumberOfComponents="3"> 