<?xml version="1.0"?> 
<VTKFile type="StructuredGrid" version="0.1"> 
<StructuredGrid WholeExtent="0 31 0 31 0 0"> 
<Piece Extent="0 31 0 31 0 0"> 
<PointData>
<DataArray type="Float32" Name="B" format="ascii" NumberOfComponents="3"> 
-7.60708e-06 -0 0 -8.07065e-06 -0 0 -8.53521e-06 -0 0 -8.99634e-06 -0 0 -9.44923e-06 -0 0 -9.88883e-06 -0 0 -1.03099e-05 -0 0 -1.07073e-05 -0 0 -1.10757e-05 -0 0 -1.14103e-05 -0 0 -1.17064e-05 -0 0 -1.19599e-05 -0 0 -1.21672e-05 -0 0 -1.23254e-05 -0 0 -1.24321e-05 -0 0 -1.24859e-05 -0 0 -1.24859e-05 -0 0 -1.24321e-05 -0 0 -1.23254e-05 -0 0 -1.21672e-05 -0 0 -1.19599e-05 -0 0 -1.17064e-05 -0 0 -1.14103e-05 -0 0 -1.10757e-05 -0 0 -1.07073e-05 -0 0 -1.03099e-05 -0 0 -9.88883e-06 -0 0 -9.44923e-06 -0 0 -8.99634e-06 -0 0 -8.53521e-06 -0 0 -8.07065e-06 -0 0 -7.60708e-06 -0 0 -7.60423e-06 4.62498e-07 0 -8.07004e-06 4.65651e-07 0 -8.5371e-06 4.64577e-07 0 -9.00093e-06 4.58867e-07 0 -9.45668e-06 4.48196e-07 0 -9.89923e-06 4.32329e-07 0 -1.03233e-05 4.11184e-07 0 -1.07236e-05 3.84788e-07 0 -1.10948e-05 3.53239e-07 0 -1.14319e-05 3.16946e-07 0 -1.17304e-05 2.76243e-07 0 -1.19859e-05 2.31641e-07 0 -1.21949e-05 1.83731e-07 0 -1.23544e-05 1.33176e-07 0 -1.2462e-05 8.06917e-08 0 -1.25162e-05 2.70304e-08 0 -1.25162e-05 -2.70304e-08 0 -1.2462e-05 -8.06917e-08 0 -1.23544e-05 -1.33176e-07 0 -1.21949e-05 -1.83731e-07 0 -1.19859e-05 -2.31641e-07 0 -1.17304e-05 -2.76243e-07 0 -1.14319e-05 -3.16946e-07 0 -1.10948e-05 -3.53239e-07 0 -1.07236e-05 -3.84788e-07 0 -1.03233e-05 -4.11184e-07 0 -9.89923e-06 -4.32329e-07 0 -9.45668e-06 -4.48196e-07 0 -9.00093e-06 -4.58867e-07 0 -8.5371e-06 -4.64577e-07 0 -8.07004e-06 -4.65651e-07 0 -7.60423e-06 -4.62498e-07 0 -7.59643e-06 9.28785e-07 0 -8.06822e-06 9.35572e-07 0 -8.54192e-06 9.3384e-07 0 -9.01294e-06 9.22751e-07 0 -9.47631e-06 9.01632e-07 0 -9.92672e-06 8.7e-07 0 -1.03587e-05 8.2768e-07 0 -1.07667e-05 7.74729e-07 0 -1.11454e-05 7.1134e-07 0 -1.14895e-05 6.38346e-07 0 -1.17942e-05 5.56428e-07 0 -1.20551e-05 4.66622e-07 0 -1.22686e-05 3.70131e-07 0 -1.24314e-05 2.68296e-07 0 -1.25414e-05 1.62564e-07 0 -1.25967e-05 5.44568e-08 0 -1.25967e-05 -5.44568e-08 0 -1.25414e-05 -1.62564e-07 0 -1.24314e-05 -2.68296e-07 0 -1.22686e-05 -3.70131e-07 0 -1.20551e-05 -4.66622e-07 0 -1.17942e-05 -5.56428e-07 0 -1.14895e-05 -6.38346e-07 0 -1.11454e-05 -7.1134e-07 0 -1.07667e-05 -7.74729e-07 0 -1.03587e-05 -8.2768e-07 0 -9.92672e-06 -8.7e-07 0 -9.47631e-06 -9.01632e-07 0 -9.01294e-06 -9.22751e-07 0 -8.54192e-06 -9.3384e-07 0 -8.06822e-06 -9.35572e-07 0 -7.59643e-06 -9.28785e-07 0 -7.58259e-06 1.4026e-06 0 -8.06443e-06 1.41399e-06 0 -8.54933e-06 1.41245e-06 0 -9.03252e-06 1.39665e-06 0 -9.50878e-06 1.36554e-06 0 -9.97252e-06 1.31835e-06 0 -1.04179e-05 1.25481e-06 0 -1.08391e-05 1.17498e-06 0 -1.12304e-05 1.07916e-06 0 -1.15862e-05 9.68651e-07 0 -1.19015e-05 8.44489e-07 0 -1.21716e-05 7.08275e-07 0 -1.23926e-05 5.61857e-07 0 -1.25612e-05 4.07291e-07 0 -1.26751e-05 2.4679e-07 0 -1.27324e-05 8.26724e-08 0 -1.27324e-05 -8.26724e-08 0 -1.26751e-05 -2.4679e-07 0 -1.25612e-05 -4.07291e-07 0 -1.23926e-05 -5.61857e-07 0 -1.21716e-05 -7.08275e-07 0 -1.19015e-05 -8.44489e-07 0 -1.15862e-05 -9.68651e-07 0 -1.12304e-05 -1.07916e-06 0 -1.08391e-05 -1.17498e-06 0 -1.04179e-05 -1.25481e-06 0 -9.97252e-06 -1.31835e-06 0 -9.50878e-06 -1.36554e-06 0 -9.03252e-06 -1.39665e-06 0 -8.54933e-06 -1.41245e-06 0 -8.06443e-06 -1.41399e-06 0 -7.58259e-06 -1.4026e-06 0 -7.56093e-06 1.8879e-06 0 -8.05728e-06 1.90543e-06 0 -8.55844e-06 1.90541e-06 0 -9.05936e-06 1.88597e-06 0 -9.55444e-06 1.8456e-06 0 -1.00376e-05 1.7832e-06 0 -1.05027e-05 1.69835e-06 0 -1.09432e-05 1.59115e-06 0 -1.1353e-05 1.462e-06 0 -1.17259e-05 1.31269e-06 0 -1.20566e-05 1.14469e-06 0 -1.234e-05 9.60195e-07 0 -1.2572e-05 7.61772e-07 0 -1.27491e-05 5.52241e-07 0 -1.28686e-05 3.34629e-07 0 -1.29288e-05 1.12099e-07 0 -1.29288e-05 -1.12099e-07 0 -1.28686e-05 -3.34629e-07 0 -1.27491e-05 -5.52241e-07 0 -1.2572e-05 -7.61772e-07 0 -1.234e-05 -9.60195e-07 0 -1.20566e-05 -1.14469e-06 0 -1.17259e-05 -1.31269e-06 0 -1.1353e-05 -1.462e-06 0 -1.09432e-05 -1.59115e-06 0 -1.05027e-05 -1.69835e-06 0 -1.00376e-05 -1.7832e-06 0 -9.55444e-06 -1.8456e-06 0 -9.05936e-06 -1.88597e-06 0 -8.55844e-06 -1.90541e-06 0 -8.05728e-06 -1.90543e-06 0 -7.56093e-06 -1.8879e-06 0 -7.53067e-06 2.38864e-06 0 -8.04562e-06 2.41448e-06 0 -8.56771e-06 2.41788e-06 0 -9.09155e-06 2.39632e-06 0 -9.61104e-06 2.34773e-06 0 -1.01196e-05 2.27061e-06 0 -1.06102e-05 2.16437e-06 0 -1.10758e-05 2.0291e-06 0 -1.15096e-05 1.86536e-06 0 -1.19048e-05 1.67549e-06 0 -1.22555e-05 1.46143e-06 0 -1.25562e-05 1.22609e-06 0 -1.28024e-05 9.72814e-07 0 -1.29903e-05 7.05269e-07 0 -1.31171e-05 4.27366e-07 0 -1.3181e-05 1.43166e-07 0 -1.3181e-05 -1.43166e-07 0 -1.31171e-05 -4.27366e-07 0 -1.29903e-05 -7.05269e-07 0 -1.28024e-05 -9.72814e-07 0 -1.25562e-05 -1.22609e-06 0 -1.22555e-05 -1.46143e-06 0 -1.19048e-05 -1.67549e-06 0 -1.15096e-05 -1.86536e-06 0 -1.10758e-05 -2.0291e-06 0 -1.06102e-05 -2.16437e-06 0 -1.01196e-05 -2.27061e-06 0 -9.61104e-06 -2.34773e-06 0 -9.09155e-06 -2.39632e-06 0 -8.56771e-06 -2.41788e-06 0 -8.04562e-06 -2.41448e-06 0 -7.53067e-06 -2.38864e-06 0 -7.48771e-06 2.90895e-06 0 -8.02619e-06 2.94599e-06 0 -8.575e-06 2.95538e-06 0 -9.12825e-06 2.93376e-06 0 -9.67922e-06 2.87839e-06 0 -1.02205e-05 2.78725e-06 0 -1.07442e-05 2.65952e-06 0 -1.12424e-05 2.49529e-06 0 -1.17072e-05 2.29529e-06 0 -1.21311e-05 2.06251e-06 0 -1.25076e-05 1.79949e-06 0 -1.28304e-05 1.50995e-06 0 -1.30947e-05 1.19812e-06 0 -1.32965e-05 8.68632e-07 0 -1.34326e-05 5.26358e-07 0 -1.35012e-05 1.76328e-07 0 -1.35012e-05 -1.76328e-07 0 -1.34326e-05 -5.26358e-07 0 -1.32965e-05 -8.68632e-07 0 -1.30947e-05 -1.19812e-06 0 -1.28304e-05 -1.50995e-06 0 -1.25076e-05 -1.79949e-06 0 -1.21311e-05 -2.06251e-06 0 -1.17072e-05 -2.29529e-06 0 -1.12424e-05 -2.49529e-06 0 -1.07442e-05 -2.65952e-06 0 -1.02205e-05 -2.78725e-06 0 -9.67922e-06 -2.87839e-06 0 -9.12825e-06 -2.93376e-06 0 -8.575e-06 -2.95538e-06 0 -8.02619e-06 -2.94599e-06 0 -7.48771e-06 -2.90895e-06 0 -7.42948e-06 3.45323e-06 0 -7.99635e-06 3.5053e-06 0 -8.57771e-06 3.52408e-06 0 -9.16708e-06 3.50519e-06 0 -9.75689e-06 3.44498e-06 0 -1.03387e-05 3.34078e-06 0 -1.09034e-05 3.19145e-06 0 -1.1442e-05 2.9971e-06 0 -1.19452e-05 2.75866e-06 0 -1.24047e-05 2.47995e-06 0 -1.28127e-05 2.16422e-06 0 -1.31627e-05 1.81619e-06 0 -1.34491e-05 1.44115e-06 0 -1.36677e-05 1.0448e-06 0 -1.38151e-05 6.33081e-07 0 -1.38893e-05 2.12074e-07 0 -1.38893e-05 -2.12074e-07 0 -1.38151e-05 -6.33081e-07 0 -1.36677e-05 -1.0448e-06 0 -1.34491e-05 -1.44115e-06 0 -1.31627e-05 -1.81619e-06 0 -1.28127e-05 -2.16422e-06 0 -1.24047e-05 -2.47995e-06 0 -1.19452e-05 -2.75866e-06 0 -1.1442e-05 -2.9971e-06 0 -1.09034e-05 -3.19145e-06 0 -1.03387e-05 -3.34078e-06 0 -9.75689e-06 -3.44498e-06 0 -9.16708e-06 -3.50519e-06 0 -8.57771e-06 -3.52408e-06 0 -7.99635e-06 -3.5053e-06 0 -7.42948e-06 -3.45323e-06 0 -7.35289e-06 4.02591e-06 0 -7.95304e-06 4.09795e-06 0 -8.57296e-06 4.13058e-06 0 -9.20549e-06 4.11807e-06 0 -9.84202e-06 4.05562e-06 0 -1.04727e-05 3.93965e-06 0 -1.10871e-05 3.76863e-06 0 -1.16744e-05 3.54265e-06 0 -1.22239e-05 3.26298e-06 0 -1.2726e-05 2.93447e-06 0 -1.31719e-05 2.56132e-06 0 -1.35541e-05 2.14946e-06 0 -1.38667e-05 1.70547e-06 0 -1.4105e-05 1.23628e-06 0 -1.42657e-05 7.49031e-07 0 -1.43465e-05 2.509e-07 0 -1.43465e-05 -2.509e-07 0 -1.42657e-05 -7.49031e-07 0 -1.4105e-05 -1.23628e-06 0 -1.38667e-05 -1.70547e-06 0 -1.35541e-05 -2.14946e-06 0 -1.31719e-05 -2.56132e-06 0 -1.2726e-05 -2.93447e-06 0 -1.22239e-05 -3.26298e-06 0 -1.16744e-05 -3.54265e-06 0 -1.10871e-05 -3.76863e-06 0 -1.04727e-05 -3.93965e-06 0 -9.84202e-06 -4.05562e-06 0 -9.20549e-06 -4.11807e-06 0 -8.57296e-06 -4.13058e-06 0 -7.95304e-06 -4.09795e-06 0 -7.35289e-06 -4.02591e-06 0 -7.24757e-06 4.63173e-06 0 -7.88722e-06 4.73012e-06 0 -8.55374e-06 4.78245e-06 0 -9.23914e-06 4.78118e-06 0 -9.93344e-06 4.71993e-06 0 -1.0625e-05 4.59396e-06 0 -1.13012e-05 4.40113e-06 0 -1.19491e-05 4.14158e-06 0 -1.25561e-05 3.81706e-06 0 -1.31106e-05 3.43379e-06 0 -1.36026e-05 2.99724e-06 0 -1.40238e-05 2.51493e-06 0 -1.43677e-05 1.99498e-06 0 -1.46295e-05 1.44579e-06 0 -1.48057e-05 8.75789e-07 0 -1.48944e-05 2.93327e-07 0 -1.48944e-05 -2.93327e-07 0 -1.48057e-05 -8.75789e-07 0 -1.46295e-05 -1.44579e-06 0 -1.43677e-05 -1.99498e-06 0 -1.40238e-05 -2.51493e-06 0 -1.36026e-05 -2.99724e-06 0 -1.31106e-05 -3.43379e-06 0 -1.25561e-05 -3.81706e-06 0 -1.19491e-05 -4.14158e-06 0 -1.13012e-05 -4.40113e-06 0 -1.0625e-05 -4.59396e-06 0 -9.93344e-06 -4.71993e-06 0 -9.23914e-06 -4.78118e-06 0 -8.55374e-06 -4.78245e-06 0 -7.88722e-06 -4.73012e-06 0 -7.24757e-06 -4.63173e-06 0 -7.11139e-06 5.27551e-06 0 -7.79601e-06 5.40852e-06 0 -8.51659e-06 5.48822e-06 0 -9.26419e-06 5.50466e-06 0 -1.00271e-05 5.44929e-06 0 -1.07914e-05 5.31567e-06 0 -1.15417e-05 5.10091e-06 0 -1.2262e-05 4.8052e-06 0 -1.29371e-05 4.43105e-06 0 -1.35534e-05 3.9866e-06 0 -1.40992e-05 3.47908e-06 0 -1.45654e-05 2.91809e-06 0 -1.49451e-05 2.31371e-06 0 -1.52335e-05 1.67603e-06 0 -1.54273e-05 1.01491e-06 0 -1.55246e-05 3.3986e-07 0 -1.55246e-05 -3.3986e-07 0 -1.54273e-05 -1.01491e-06 0 -1.52335e-05 -1.67603e-06 0 -1.49451e-05 -2.31371e-06 0 -1.45654e-05 -2.91809e-06 0 -1.40992e-05 -3.47908e-06 0 -1.35534e-05 -3.9866e-06 0 -1.29371e-05 -4.43105e-06 0 -1.2262e-05 -4.8052e-06 0 -1.15417e-05 -5.10091e-06 0 -1.07914e-05 -5.31567e-06 0 -1.00271e-05 -5.44929e-06 0 -9.26419e-06 -5.50466e-06 0 -8.51659e-06 -5.48822e-06 0 -7.79601e-06 -5.40852e-06 0 -7.11139e-06 -5.27551e-06 0 -6.93281e-06 5.96198e-06 0 -7.66848e-06 6.14027e-06 0 -8.45206e-06 6.25746e-06 0 -9.27359e-06 6.30026e-06 0 -1.01192e-05 6.25705e-06 0 -1.09718e-05 6.11901e-06 0 -1.18121e-05 5.8821e-06 0 -1.26202e-05 5.5467e-06 0 -1.33773e-05 5.11656e-06 0 -1.40669e-05 4.60252e-06 0 -1.46757e-05 4.01439e-06 0 -1.51937e-05 3.36458e-06 0 -1.5614e-05 2.6656e-06 0 -1.5932e-05 1.92957e-06 0 -1.61452e-05 1.16782e-06 0 -1.62521e-05 3.90951e-07 0 -1.62521e-05 -3.90951e-07 0 -1.61452e-05 -1.16782e-06 0 -1.5932e-05 -1.92957e-06 0 -1.5614e-05 -2.6656e-06 0 -1.51937e-05 -3.36458e-06 0 -1.46757e-05 -4.01439e-06 0 -1.40669e-05 -4.60252e-06 0 -1.33773e-05 -5.11656e-06 0 -1.26202e-05 -5.5467e-06 0 -1.18121e-05 -5.8821e-06 0 -1.09718e-05 -6.11901e-06 0 -1.01192e-05 -6.25705e-06 0 -9.27359e-06 -6.30026e-06 0 -8.45206e-06 -6.25746e-06 0 -7.66848e-06 -6.14027e-06 0 -6.93281e-06 -5.96198e-06 0 -6.69676e-06 6.69576e-06 0 -7.48985e-06 6.93327e-06 0 -8.34691e-06 7.10154e-06 0 -9.25699e-06 7.1826e-06 0 -1.02035e-05 7.16031e-06 0 -1.1165e-05 7.0223e-06 0 -1.21166e-05 6.76285e-06 0 -1.30325e-05 6.3827e-06 0 -1.3889e-05 5.8877e-06 0 -1.46659e-05 5.29277e-06 0 -1.53481e-05 4.6115e-06 0 -1.59251e-05 3.86015e-06 0 -1.63905e-05 3.05439e-06 0 -1.6741e-05 2.20861e-06 0 -1.6975e-05 1.33565e-06 0 -1.7092e-05 4.46948e-07 0 -1.7092e-05 -4.46948e-07 0 -1.6975e-05 -1.33565e-06 0 -1.6741e-05 -2.20861e-06 0 -1.63905e-05 -3.05439e-06 0 -1.59251e-05 -3.86015e-06 0 -1.53481e-05 -4.6115e-06 0 -1.46659e-05 -5.29277e-06 0 -1.3889e-05 -5.8877e-06 0 -1.30325e-05 -6.3827e-06 0 -1.21166e-05 -6.76285e-06 0 -1.1165e-05 -7.0223e-06 0 -1.02035e-05 -7.16031e-06 0 -9.25699e-06 -7.1826e-06 0 -8.34691e-06 -7.10154e-06 0 -7.48985e-06 -6.93327e-06 0 -6.69676e-06 -6.69576e-06 0 -6.39586e-06 7.48057e-06 0 -7.2515e-06 7.79552e-06 0 -8.1921e-06 8.03323e-06 0 -9.20612e-06 8.16904e-06 0 -1.02737e-05 8.18003e-06 0 -1.13673e-05 8.04829e-06 0 -1.24541e-05 7.76549e-06 0 -1.35002e-05 7.33315e-06 0 -1.44747e-05 6.76073e-06 0 -1.53531e-05 6.06942e-06 0 -1.61183e-05 5.27859e-06 0 -1.67601e-05 4.40985e-06 0 -1.72737e-05 3.48285e-06 0 -1.76578e-05 2.5145e-06 0 -1.79129e-05 1.51894e-06 0 -1.80401e-05 5.07985e-07 0 -1.80401e-05 -5.07985e-07 0 -1.79129e-05 -1.51894e-06 0 -1.76578e-05 -2.5145e-06 0 -1.72737e-05 -3.48285e-06 0 -1.67601e-05 -4.40985e-06 0 -1.61183e-05 -5.27859e-06 0 -1.53531e-05 -6.06942e-06 0 -1.44747e-05 -6.76073e-06 0 -1.35002e-05 -7.33315e-06 0 -1.24541e-05 -7.76549e-06 0 -1.13673e-05 -8.04829e-06 0 -1.02737e-05 -8.18003e-06 0 -9.20612e-06 -8.16904e-06 0 -8.1921e-06 -8.03323e-06 0 -7.2515e-06 -7.79552e-06 0 -6.39586e-06 -7.48057e-06 0 -5.99855e-06 8.31849e-06 0 -6.92087e-06 8.73476e-06 0 -7.95711e-06 9.06709e-06 0 -9.09632e-06 9.28112e-06 0 -1.03149e-05 9.3434e-06 0 -1.15766e-05 9.22699e-06 0 -1.28359e-05 8.91921e-06 0 -1.40458e-05 8.42316e-06 0 -1.51648e-05 7.75478e-06 0 -1.61627e-05 6.94538e-06 0 -1.70213e-05 6.02321e-06 0 -1.77325e-05 5.01727e-06 0 -1.82953e-05 3.95209e-06 0 -1.87123e-05 2.84713e-06 0 -1.89873e-05 1.71726e-06 0 -1.91239e-05 5.73859e-07 0 -1.91239e-05 -5.73859e-07 0 -1.89873e-05 -1.71726e-06 0 -1.87123e-05 -2.84713e-06 0 -1.82953e-05 -3.95209e-06 0 -1.77325e-05 -5.01727e-06 0 -1.70213e-05 -6.02321e-06 0 -1.61627e-05 -6.94538e-06 0 -1.51648e-05 -7.75478e-06 0 -1.40458e-05 -8.42316e-06 0 -1.28359e-05 -8.91921e-06 0 -1.15766e-05 -9.22699e-06 0 -1.03149e-05 -9.3434e-06 0 -9.09632e-06 -9.28112e-06 0 -7.95711e-06 -9.06709e-06 0 -6.92087e-06 -8.73476e-06 0 -5.99855e-06 -8.31849e-06 0 -5.48706e-06 9.20829e-06 0 -6.47631e-06 9.75741e-06 0 -7.61847e-06 1.02196e-05 0 -8.90603e-06 1.05466e-05 0 -1.03121e-05 1.06878e-05 0 -1.17878e-05 1.06006e-05 0 -1.32674e-05 1.02645e-05 0 -1.46826e-05 9.68576e-06 0 -1.59761e-05 8.89272e-06 0 -1.71111e-05 7.93373e-06 0 -1.80704e-05 6.85081e-06 0 -1.88516e-05 5.68295e-06 0 -1.94605e-05 4.46018e-06 0 -1.99062e-05 3.20391e-06 0 -2.01976e-05 1.92862e-06 0 -2.03414e-05 6.43833e-07 0 -2.03414e-05 -6.43833e-07 0 -2.01976e-05 -1.92862e-06 0 -1.99062e-05 -3.20391e-06 0 -1.94605e-05 -4.46018e-06 0 -1.88516e-05 -5.68295e-06 0 -1.80704e-05 -6.85081e-06 0 -1.71111e-05 -7.93373e-06 0 -1.59761e-05 -8.89272e-06 0 -1.46826e-05 -9.68576e-06 0 -1.32674e-05 -1.02645e-05 0 -1.17878e-05 -1.06006e-05 0 -1.03121e-05 -1.06878e-05 0 -8.90603e-06 -1.05466e-05 0 -7.61847e-06 -1.02196e-05 0 -6.47631e-06 -9.75741e-06 0 -5.48706e-06 -9.20829e-06 0 -4.83813e-06 1.0143e-05 0 -5.88822e-06 1.08656e-05 0 -7.14264e-06 1.15069e-05 0 -8.60331e-06 1.1999e-05 0 -1.02428e-05 1.22632e-05 0 -1.19944e-05 1.22279e-05 0 -1.3761e-05 1.18561e-05 0 -1.54354e-05 1.11624e-05 0 -1.69377e-05 1.01992e-05 0 -1.8225e-05 9.04465e-06 0 -1.92868e-05 7.76177e-06 0 -2.01322e-05 6.40208e-06 0 -2.07786e-05 5.00057e-06 0 -2.12445e-05 3.57887e-06 0 -2.15458e-05 2.14897e-06 0 -2.16936e-05 7.16483e-07 0 -2.16936e-05 -7.16483e-07 0 -2.15458e-05 -2.14897e-06 0 -2.12445e-05 -3.57887e-06 0 -2.07786e-05 -5.00057e-06 0 -2.01322e-05 -6.40208e-06 0 -1.92868e-05 -7.76177e-06 0 -1.8225e-05 -9.04465e-06 0 -1.69377e-05 -1.01992e-05 0 -1.54354e-05 -1.11624e-05 0 -1.3761e-05 -1.18561e-05 0 -1.19944e-05 -1.22279e-05 0 -1.02428e-05 -1.22632e-05 0 -8.60331e-06 -1.1999e-05 0 -7.14264e-06 -1.15069e-05 0 -5.88822e-06 -1.08656e-05 0 -4.83813e-06 -1.0143e-05 0 -3.98096e-06 1.11049e-05 0 -5.06909e-06 1.20521e-05 0 -6.43031e-06 1.29414e-05 0 -8.09171e-06 1.36803e-05 0 -1.00393e-05 1.41439e-05 0 -1.21847e-05 1.42e-05 0 -1.43636e-05 1.37785e-05 0 -1.63903e-05 1.29085e-05 0 -1.81471e-05 1.16991e-05 0 -1.95949e-05 1.02808e-05 0 -2.07463e-05 8.7466e-06 0 -2.16348e-05 7.16061e-06 0 -2.22972e-05 5.55939e-06 0 -2.27655e-05 3.96092e-06 0 -2.30642e-05 2.37126e-06 0 -2.32095e-05 7.89409e-07 0 -2.32095e-05 -7.89409e-07 0 -2.30642e-05 -2.37126e-06 0 -2.27655e-05 -3.96092e-06 0 -2.22972e-05 -5.55939e-06 0 -2.16348e-05 -7.16061e-06 0 -2.07463e-05 -8.7466e-06 0 -1.95949e-05 -1.02808e-05 0 -1.81471e-05 -1.16991e-05 0 -1.63903e-05 -1.29085e-05 0 -1.43636e-05 -1.37785e-05 0 -1.21847e-05 -1.42e-05 0 -1.00393e-05 -1.41439e-05 0 -8.09171e-06 -1.36803e-05 0 -6.43031e-06 -1.29414e-05 0 -5.06909e-06 -1.20521e-05 0 -3.98096e-06 -1.11049e-05 0 -2.90842e-06 1.20598e-05 0 -3.99356e-06 1.32904e-05 0 -5.43227e-06 1.45203e-05 0 -7.30183e-06 1.56354e-05 0 -9.63825e-06 1.64411e-05 0 -1.23441e-05 1.66726e-05 0 -1.5097e-05 1.61639e-05 0 -1.75904e-05 1.49931e-05 0 -1.96328e-05 1.34065e-05 0 -2.12246e-05 1.16262e-05 0 -2.24315e-05 9.77832e-06 0 -2.33277e-05 7.93096e-06 0 -2.39757e-05 6.11331e-06 0 -2.44233e-05 4.33285e-06 0 -2.47042e-05 2.58511e-06 0 -2.48395e-05 8.59146e-07 0 -2.48395e-05 -8.59146e-07 0 -2.47042e-05 -2.58511e-06 0 -2.44233e-05 -4.33285e-06 0 -2.39757e-05 -6.11331e-06 0 -2.33277e-05 -7.93096e-06 0 -2.24315e-05 -9.77832e-06 0 -2.12246e-05 -1.16262e-05 0 -1.96328e-05 -1.34065e-05 0 -1.75904e-05 -1.49931e-05 0 -1.5097e-05 -1.61639e-05 0 -1.23441e-05 -1.66726e-05 0 -9.63825e-06 -1.64411e-05 0 -7.30183e-06 -1.56354e-05 0 -5.43227e-06 -1.45203e-05 0 -3.99356e-06 -1.32904e-05 0 -2.90842e-06 -1.20598e-05 0 -1.56081e-06 1.29508e-05 0 -2.56446e-06 1.45213e-05 0 -3.99751e-06 1.62014e-05 0 -6.02283e-06 1.78863e-05 0 -8.82367e-06 1.93154e-05 0 -1.24152e-05 1.99782e-05 0 -1.62171e-05 1.92307e-05 0 -1.9331e-05 1.74803e-05 0 -2.16388e-05 1.52983e-05 0 -2.32998e-05 1.30291e-05 0 -2.44859e-05 1.08041e-05 0 -2.53265e-05 8.66865e-06 0 -2.59126e-05 6.62852e-06 0 -2.63062e-05 4.67141e-06 0 -2.65483e-05 2.77697e-06 0 -2.66634e-05 9.21258e-07 0 -2.66634e-05 -9.21258e-07 0 -2.65483e-05 -2.77697e-06 0 -2.63062e-05 -4.67141e-06 0 -2.59126e-05 -6.62852e-06 0 -2.53265e-05 -8.66865e-06 0 -2.44859e-05 -1.08041e-05 0 -2.32998e-05 -1.30291e-05 0 -2.16388e-05 -1.52983e-05 0 -1.9331e-05 -1.74803e-05 0 -1.62171e-05 -1.92307e-05 0 -1.24152e-05 -1.99782e-05 0 -8.82367e-06 -1.93154e-05 0 -6.02283e-06 -1.78863e-05 0 -3.99751e-06 -1.62014e-05 0 -2.56446e-06 -1.45213e-05 0 -1.56081e-06 -1.29508e-05 0 1.02371e-07 1.36892e-05 0 -6.95189e-07 1.56312e-05 0 -1.95119e-06 1.78526e-05 0 -3.91552e-06 2.03373e-05 0 -7.03763e-06 2.29425e-05 0 -1.22975e-05 2.47724e-05 0 -1.86388e-05 2.33663e-05 0 -2.23768e-05 2.03276e-05 0 -2.47339e-05 1.72486e-05 0 -2.62792e-05 1.43728e-05 0 -2.73107e-05 1.17332e-05 0 -2.80027e-05 9.30774e-06 0 -2.84635e-05 7.05914e-06 0 -2.87614e-05 4.94665e-06 0 -2.89394e-05 2.93e-06 0 -2.90226e-05 9.70309e-07 0 -2.90226e-05 -9.70309e-07 0 -2.89394e-05 -2.93e-06 0 -2.87614e-05 -4.94665e-06 0 -2.84635e-05 -7.05914e-06 0 -2.80027e-05 -9.30774e-06 0 -2.73107e-05 -1.17332e-05 0 -2.62792e-05 -1.43728e-05 0 -2.47339e-05 -1.72486e-05 0 -2.23768e-05 -2.03276e-05 0 -1.86388e-05 -2.33663e-05 0 -1.22975e-05 -2.47724e-05 0 -7.03763e-06 -2.29425e-05 0 -3.91552e-06 -2.03373e-05 0 -1.95119e-06 -1.78526e-05 0 -6.95189e-07 -1.56312e-05 0 1.02371e-07 -1.36892e-05 0 2.04198e-06 1.41653e-05 0 1.5878e-06 1.64572e-05 0 7.2943e-07 1.92254e-05 0 -7.88785e-07 2.2604e-05 0 -3.45016e-06 2.68327e-05 0 -8.29803e-06 3.27272e-05 0 -1.41777e-05 2.82146e-05 0 -1.74841e-05 2.30974e-05 0 -1.94113e-05 1.89706e-05 0 -2.05805e-05 1.54735e-05 0 -2.13019e-05 1.24462e-05 0 -2.17483e-05 9.76976e-06 0 -2.20221e-05 7.35407e-06 0 -2.21855e-05 5.12666e-06 0 -2.22766e-05 3.02669e-06 0 -2.23171e-05 1.00073e-06 0 -2.23171e-05 -1.00073e-06 0 -2.22766e-05 -3.02669e-06 0 -2.21855e-05 -5.12666e-06 0 -2.20221e-05 -7.35407e-06 0 -2.17483e-05 -9.76976e-06 0 -2.13019e-05 -1.24462e-05 0 -2.05805e-05 -1.54735e-05 0 -1.94113e-05 -1.89706e-05 0 -1.74841e-05 -2.30974e-05 0 -1.41777e-05 -2.82146e-05 0 -8.29803e-06 -3.27272e-05 0 -3.45016e-06 -2.68327e-05 0 -7.88785e-07 -2.2604e-05 0 7.2943e-07 -1.92254e-05 0 1.5878e-06 -1.64572e-05 0 2.04198e-06 -1.41653e-05 0 4.24329e-06 1.42629e-05 0 4.28383e-06 1.68136e-05 0 4.07616e-06 2.00016e-05 0 3.46373e-06 2.40701e-05 0 2.22468e-06 2.9435e-05 0 2.75551e-07 3.68391e-05 0 -1.79709e-06 3.13778e-05 0 -3.36646e-06 2.49762e-05 0 -4.28494e-06 2.00724e-05 0 -4.77469e-06 1.61141e-05 0 -5.01278e-06 1.28135e-05 0 -5.10979e-06 9.97456e-06 0 -5.13279e-06 7.46324e-06 0 -5.12268e-06 5.18105e-06 0 -5.10429e-06 3.05069e-06 0 -5.09184e-06 1.00735e-06 0 -5.09184e-06 -1.00735e-06 0 -5.10429e-06 -3.05069e-06 0 -5.12268e-06 -5.18105e-06 0 -5.13279e-06 -7.46324e-06 0 -5.10979e-06 -9.97456e-06 0 -5.01278e-06 -1.28135e-05 0 -4.77469e-06 -1.61141e-05 0 -4.28494e-06 -2.00724e-05 0 -3.36646e-06 -2.49762e-05 0 -1.79709e-06 -3.13778e-05 0 2.75551e-07 -3.68391e-05 0 2.22468e-06 -2.9435e-05 0 3.46373e-06 -2.40701e-05 0 4.07616e-06 -2.00016e-05 0 4.28383e-06 -1.68136e-05 0 4.24329e-06 -1.42629e-05 0 6.58154e-06 1.38849e-05 0 7.20945e-06 1.65449e-05 0 7.79886e-06 1.99206e-05 0 8.31589e-06 2.42888e-05 0 8.72482e-06 3.00654e-05 0 9.01544e-06 3.77875e-05 0 9.25817e-06 3.21964e-05 0 9.54009e-06 2.54323e-05 0 9.87514e-06 2.02421e-05 0 1.02324e-05 1.61139e-05 0 1.05798e-05 1.27282e-05 0 1.08941e-05 9.85723e-06 0 1.11598e-05 7.34685e-06 0 1.13665e-05 5.08599e-06 0 1.15076e-05 2.98926e-06 0 1.15791e-05 9.86165e-07 0 1.15791e-05 -9.86165e-07 0 1.15076e-05 -2.98926e-06 0 1.13665e-05 -5.08599e-06 0 1.11598e-05 -7.34685e-06 0 1.08941e-05 -9.85723e-06 0 1.05798e-05 -1.27282e-05 0 1.02324e-05 -1.61139e-05 0 9.87514e-06 -2.02421e-05 0 9.54009e-06 -2.54323e-05 0 9.25817e-06 -3.21964e-05 0 9.01544e-06 -3.77875e-05 0 8.72482e-06 -3.00654e-05 0 8.31589e-06 -2.42888e-05 0 7.79886e-06 -1.99206e-05 0 7.20945e-06 -1.65449e-05 0 6.58154e-06 -1.38849e-05 0 8.92972e-06 1.29803e-05 0 1.01725e-05 1.55766e-05 0 1.15924e-05 1.88714e-05 0 1.32775e-05 2.31221e-05 0 1.53509e-05 2.87465e-05 0 1.78372e-05 3.63701e-05 0 2.03802e-05 3.08876e-05 0 2.25064e-05 2.43436e-05 0 2.41312e-05 1.93573e-05 0 2.53681e-05 1.53921e-05 0 2.63235e-05 1.21401e-05 0 2.7064e-05 9.38681e-06 0 2.76282e-05 6.98566e-06 0 2.8038e-05 4.82985e-06 0 2.83057e-05 2.83616e-06 0 2.84381e-05 9.35217e-07 0 2.84381e-05 -9.35217e-07 0 2.83057e-05 -2.83616e-06 0 2.8038e-05 -4.82985e-06 0 2.76282e-05 -6.98566e-06 0 2.7064e-05 -9.38681e-06 0 2.63235e-05 -1.21401e-05 0 2.53681e-05 -1.53921e-05 0 2.41312e-05 -1.93573e-05 0 2.25064e-05 -2.43436e-05 0 2.03802e-05 -3.08876e-05 0 1.78372e-05 -3.63701e-05 0 1.53509e-05 -2.87465e-05 0 1.32775e-05 -2.31221e-05 0 1.15924e-05 -1.88714e-05 0 1.01725e-05 -1.55766e-05 0 8.92972e-06 -1.29803e-05 0 1.11504e-05 1.15494e-05 0 1.29665e-05 1.39244e-05 0 1.51302e-05 1.68913e-05 0 1.78452e-05 2.06199e-05 0 2.14869e-05 2.54471e-05 0 2.6557e-05 3.2327e-05 0 3.20205e-05 2.73391e-05 0 3.59952e-05 2.17487e-05 0 3.87664e-05 1.74632e-05 0 4.07758e-05 1.39765e-05 0 4.22753e-05 1.10643e-05 0 4.34058e-05 8.57085e-06 0 4.42479e-05 6.38338e-06 0 4.48491e-05 4.4144e-06 0 4.52372e-05 2.59216e-06 0 4.54277e-05 8.54714e-07 0 4.54277e-05 -8.54714e-07 0 4.52372e-05 -2.59216e-06 0 4.48491e-05 -4.4144e-06 0 4.42479e-05 -6.38338e-06 0 4.34058e-05 -8.57085e-06 0 4.22753e-05 -1.10643e-05 0 4.07758e-05 -1.39765e-05 0 3.87664e-05 -1.74632e-05 0 3.59952e-05 -2.17487e-05 0 3.20205e-05 -2.73391e-05 0 2.6557e-05 -3.2327e-05 0 2.14869e-05 -2.54471e-05 0 1.78452e-05 -2.06199e-05 0 1.51302e-05 -1.68913e-05 0 1.29665e-05 -1.39244e-05 0 1.11504e-05 -1.15494e-05 0 1.31339e-05 9.6365e-06 0 1.54298e-05 1.16894e-05 0 1.81446e-05 1.4171e-05 0 2.1531e-05 1.70874e-05 0 2.61076e-05 2.0416e-05 0 3.33757e-05 2.3716e-05 0 4.22931e-05 2.15326e-05 0 4.73966e-05 1.7974e-05 0 5.08833e-05 1.47853e-05 0 5.34286e-05 1.19994e-05 0 5.53395e-05 9.57654e-06 0 5.67832e-05 7.45317e-06 0 5.78582e-05 5.56559e-06 0 5.86241e-05 3.85429e-06 0 5.91175e-05 2.26486e-06 0 5.93593e-05 7.47006e-07 0 5.93593e-05 -7.47006e-07 0 5.91175e-05 -2.26486e-06 0 5.86241e-05 -3.85429e-06 0 5.78582e-05 -5.56559e-06 0 5.67832e-05 -7.45317e-06 0 5.53395e-05 -9.57654e-06 0 5.34286e-05 -1.19994e-05 0 5.08833e-05 -1.47853e-05 0 4.73966e-05 -1.7974e-05 0 4.22931e-05 -2.15326e-05 0 3.33757e-05 -2.3716e-05 0 2.61076e-05 -2.0416e-05 0 2.1531e-05 -1.70874e-05 0 1.81446e-05 -1.4171e-05 0 1.54298e-05 -1.16894e-05 0 1.31339e-05 -9.6365e-06 0 1.48261e-05 7.3026e-06 0 1.74967e-05 9.0253e-06 0 2.05249e-05 1.10139e-05 0 2.41252e-05 1.31198e-05 0 2.86071e-05 1.50788e-05 0 3.41651e-05 1.6202e-05 0 3.99528e-05 1.5586e-05 0 4.46988e-05 1.37831e-05 0 4.83397e-05 1.16898e-05 0 5.1141e-05 9.65759e-06 0 5.3306e-05 7.78938e-06 0 5.49695e-05 6.10068e-06 0 5.62198e-05 4.57266e-06 0 5.71153e-05 3.17345e-06 0 5.76936e-05 1.86692e-06 0 5.79774e-05 6.16065e-07 0 5.79774e-05 -6.16065e-07 0 5.76936e-05 -1.86692e-06 0 5.71153e-05 -3.17345e-06 0 5.62198e-05 -4.57266e-06 0 5.49695e-05 -6.10068e-06 0 5.3306e-05 -7.78938e-06 0 5.1141e-05 -9.65759e-06 0 4.83397e-05 -1.16898e-05 0 4.46988e-05 -1.37831e-05 0 3.99528e-05 -1.5586e-05 0 3.41651e-05 -1.6202e-05 0 2.86071e-05 -1.50788e-05 0 2.41252e-05 -1.31198e-05 0 2.05249e-05 -1.10139e-05 0 1.74967e-05 -9.0253e-06 0 1.48261e-05 -7.3026e-06 0 1.6257e-05 4.5765e-06 0 1.92306e-05 6.09227e-06 0 2.23482e-05 7.72684e-06 0 2.5839e-05 9.23668e-06 0 2.98745e-05 1.04212e-05 0 3.43912e-05 1.09901e-05 0 3.89782e-05 1.07274e-05 0 4.31321e-05 9.78314e-06 0 4.66333e-05 8.50142e-06 0 4.94903e-05 7.1389e-06 0 5.17787e-05 5.81764e-06 0 5.35758e-05 4.58566e-06 0 5.49447e-05 3.45049e-06 0 5.59328e-05 2.40014e-06 0 5.65738e-05 1.41376e-06 0 5.68891e-05 4.66784e-07 0 5.68891e-05 -4.66784e-07 0 5.65738e-05 -1.41376e-06 0 5.59328e-05 -2.40014e-06 0 5.49447e-05 -3.45049e-06 0 5.35758e-05 -4.58566e-06 0 5.17787e-05 -5.81764e-06 0 4.94903e-05 -7.1389e-06 0 4.66333e-05 -8.50142e-06 0 4.31321e-05 -9.78314e-06 0 3.89782e-05 -1.07274e-05 0 3.43912e-05 -1.09901e-05 0 2.98745e-05 -1.04212e-05 0 2.5839e-05 -9.23668e-06 0 2.23482e-05 -7.72684e-06 0 1.92306e-05 -6.09227e-06 0 1.6257e-05 -4.5765e-06 0 1.76193e-05 1.36093e-06 0 2.08624e-05 3.0708e-06 0 2.37826e-05 4.57294e-06 0 2.69724e-05 5.65596e-06 0 3.05907e-05 6.37709e-06 0 3.45222e-05 6.69827e-06 0 3.85055e-05 6.5821e-06 0 4.2254e-05 6.0938e-06 0 4.55784e-05 5.3755e-06 0 4.84069e-05 4.5662e-06 0 5.07398e-05 3.75023e-06 0 5.26076e-05 2.97082e-06 0 5.40478e-05 2.24224e-06 0 5.50953e-05 1.56249e-06 0 5.57779e-05 9.21257e-07 0 5.61144e-05 3.04305e-07 0 5.61144e-05 -3.04305e-07 0 5.57779e-05 -9.21257e-07 0 5.50953e-05 -1.56249e-06 0 5.40478e-05 -2.24224e-06 0 5.26076e-05 -2.97082e-06 0 5.07398e-05 -3.75023e-06 0 4.84069e-05 -4.5662e-06 0 4.55784e-05 -5.3755e-06 0 4.2254e-05 -6.0938e-06 0 3.85055e-05 -6.5821e-06 0 3.45222e-05 -6.69827e-06 0 3.05907e-05 -6.37709e-06 0 2.69724e-05 -5.65596e-06 0 2.37826e-05 -4.57294e-06 0 2.08624e-05 -3.0708e-06 0 1.76193e-05 -1.36093e-06 0 1.97737e-05 -2.95981e-06 0 2.28274e-05 5.23346e-07 0 2.48529e-05 1.84466e-06 0 2.76398e-05 2.41292e-06 0 3.09681e-05 2.73186e-06 0 3.45963e-05 2.86686e-06 0 3.82878e-05 2.82398e-06 0 4.1821e-05 2.62956e-06 0 4.50302e-05 2.33408e-06 0 4.78229e-05 1.99235e-06 0 5.01666e-05 1.64143e-06 0 5.20658e-05 1.30253e-06 0 5.35419e-05 9.83888e-07 0 5.46209e-05 6.85822e-07 0 5.5326e-05 4.04392e-07 0 5.56742e-05 1.33576e-07 0 5.56742e-05 -1.33576e-07 0 5.5326e-05 -4.04392e-07 0 5.46209e-05 -6.85822e-07 0 5.35419e-05 -9.83888e-07 0 5.20658e-05 -1.30253e-06 0 5.01666e-05 -1.64143e-06 0 4.78229e-05 -1.99235e-06 0 4.50302e-05 -2.33408e-06 0 4.1821e-05 -2.62956e-06 0 3.82878e-05 -2.82398e-06 0 3.45963e-05 -2.86686e-06 0 3.09681e-05 -2.73186e-06 0 2.76398e-05 -2.41292e-06 0 2.48529e-05 -1.84466e-06 0 2.28274e-05 -5.23346e-07 0 1.97737e-05 2.95981e-06 0 3.96576e-05 -4.90362e-05 0 2.38825e-05 4.00685e-07 0 2.50992e-05 -3.9042e-07 0 2.77762e-05 -6.25692e-07 0 3.10439e-05 -7.35324e-07 0 3.46089e-05 -7.81084e-07 0 3.82386e-05 -7.7758e-07 0 4.1725e-05 -7.34331e-07 0 4.49086e-05 -6.62787e-07 0 4.76934e-05 -5.75485e-07 0 5.00402e-05 -4.81611e-07 0 5.19472e-05 -3.87314e-07 0 5.34322e-05 -2.95707e-07 0 5.45188e-05 -2.07767e-07 0 5.52294e-05 -1.23154e-07 0 5.55804e-05 -4.07866e-08 0 5.55804e-05 4.07866e-08 0 5.52294e-05 1.23154e-07 0 5.45188e-05 2.07767e-07 0 5.34322e-05 2.95707e-07 0 5.19472e-05 3.87314e-07 0 5.00402e-05 4.81611e-07 0 4.76934e-05 5.75485e-07 0 4.49086e-05 6.62787e-07 0 4.1725e-05 7.34331e-07 0 3.82386e-05 7.7758e-07 0 3.46089e-05 7.81084e-07 0 3.10439e-05 7.35324e-07 0 2.77762e-05 6.25692e-07 0 2.50992e-05 3.9042e-07 0 2.38825e-05 -4.00685e-07 0 3.96576e-05 4.90362e-05 0 </DataArray> 
</PointData> 
<Points> 
<DataArray type="Float32" NumberOfComponents="3"> 