<?xml version="1.0"?> 
<VTKFile type="StructuredGrid" version="0.1"> 
<StructuredGrid WholeExtent="0 31 0 31 0 0"> 
<Piece Extent="0 31 0 31 0 0"> 
<PointData>
<DataArray type="Float32" Name="B" format="ascii" NumberOfComponents="3"> 
-0.0015645 -0 0 -0.00162946 -0 0 -0.00169265 -0 0 -0.00175361 -0 0 -0.00181191 -0 0 -0.0018671 -0 0 -0.00191877 -0 0 -0.00196651 -0 0 -0.00200996 -0 0 -0.00204875 -0 0 -0.0020826 -0 0 -0.00211122 -0 0 -0.00213439 -0 0 -0.00215193 -0 0 -0.00216369 -0 0 -0.00216958 -0 0 -0.00216956 -0 0 -0.00216363 -0 0 -0.00215185 -0 0 -0.00213431 -0 0 -0.00211117 -0 0 -0.0020826 -0 0 -0.00204884 -0 0 -0.00201017 -0 0 -0.0019669 -0 0 -0.00191937 -0 0 -0.00186795 -0 0 -0.00181304 -0 0 -0.00175506 -0 0 -0.00169443 -0 0 -0.0016316 -0 0 -0.001567 -0 0 -0.00156517 6.57771e-05 0 -0.00163035 6.42233e-05 0 -0.00169376 6.22235e-05 0 -0.00175495 5.97765e-05 0 -0.00181346 5.68873e-05 0 -0.00186887 5.35676e-05 0 -0.00192073 4.9835e-05 0 -0.00196867 4.57129e-05 0 -0.00201228 4.12298e-05 0 -0.00205123 3.64189e-05 0 -0.00208522 3.13174e-05 0 -0.00211395 2.59655e-05 0 -0.00213722 2.04063e-05 0 -0.00215482 1.4685e-05 0 -0.00216662 8.84805e-06 0 -0.00217254 2.94306e-06 0 -0.00217252 -2.98196e-06 0 -0.00216656 -8.87892e-06 0 -0.00215473 -1.47001e-05 0 -0.00213712 -2.03985e-05 0 -0.00211388 -2.59285e-05 0 -0.0020852 -3.12462e-05 0 -0.0020513 -3.63099e-05 0 -0.00201248 -4.10806e-05 0 -0.00196903 -4.55228e-05 0 -0.00192131 -4.96052e-05 0 -0.00186969 -5.33007e-05 0 -0.00181458 -5.65876e-05 0 -0.00175638 -5.94494e-05 0 -0.00169553 -6.18758e-05 0 -0.00163248 -6.38625e-05 0 -0.00156766 -6.54113e-05 0 -0.00156716 0.000131993 0 -0.00163301 0.000128894 0 -0.0016971 0.000124895 0 -0.00175896 0.000119996 0 -0.00181813 0.000114206 0 -0.00187417 0.000107549 0 -0.00192664 0.00010006 0 -0.00197514 9.17876e-05 0 -0.00201927 8.27881e-05 0 -0.00205869 7.31291e-05 0 -0.00209308 6.28855e-05 0 -0.00212216 5.21385e-05 0 -0.0021457 4.0975e-05 0 -0.00216352 2.94857e-05 0 -0.00217546 1.77643e-05 0 -0.00218144 5.90616e-06 0 -0.00218141 -5.99206e-06 0 -0.00217538 -1.78338e-05 0 -0.0021634 -2.95231e-05 0 -0.00214557 -4.09657e-05 0 -0.00212204 -5.20698e-05 0 -0.00209301 -6.2747e-05 0 -0.0020587 -7.29132e-05 0 -0.00201941 -8.24902e-05 0 -0.00197544 -9.14064e-05 0 -0.00192716 -9.95981e-05 0 -0.00187494 -0.000107011 0 -0.0018192 -0.000113601 0 -0.00176035 -0.000119335 0 -0.00169884 -0.000124192 0 -0.00163513 -0.000128164 0 -0.00156966 -0.000131253 0 -0.00157047 0.000199094 0 -0.00163744 0.000194464 0 -0.00170266 0.00018847 0 -0.00176565 0.000181108 0 -0.00182593 0.000172394 0 -0.00188304 0.000162364 0 -0.00193653 0.000151072 0 -0.00198598 0.00013859 0 -0.00203099 0.000125007 0 -0.00207119 0.000110425 0 -0.00210626 9.49577e-05 0 -0.00213592 7.87288e-05 0 -0.00215993 6.18701e-05 0 -0.00217809 4.4519e-05 0 -0.00219027 2.68173e-05 0 -0.00219636 8.90938e-06 0 -0.00219632 -9.05878e-06 0 -0.00219016 -2.69413e-05 0 -0.00217793 -4.45932e-05 0 -0.00215973 -6.18721e-05 0 -0.00213572 -7.86388e-05 0 -0.00210609 -9.47595e-05 0 -0.0020711 -0.000110107 0 -0.00203102 -0.000124562 0 -0.00198618 -0.000138016 0 -0.00193695 -0.000150372 0 -0.00188372 -0.000161546 0 -0.00182692 -0.000171473 0 -0.00176698 -0.0001801 0 -0.00170436 -0.000187397 0 -0.00163953 -0.000193349 0 -0.00157296 -0.000197963 0 -0.00157506 0.000267538 0 -0.00164363 0.000261402 0 -0.00171046 0.000253417 0 -0.00177505 0.000243576 0 -0.0018369 0.000231902 0 -0.00189553 0.000218444 0 -0.00195047 0.000203276 0 -0.00200127 0.000186497 0 -0.00204751 0.000168228 0 -0.00208882 0.000148608 0 -0.00212486 0.000127793 0 -0.00215534 0.00010595 0 -0.00218001 8.32582e-05 0 -0.00219867 5.99033e-05 0 -0.00221117 3.60766e-05 0 -0.00221741 1.19729e-05 0 -0.00221736 -1.22114e-05 0 -0.00221101 -3.62797e-05 0 -0.00219843 -6.00371e-05 0 -0.00217971 -8.32913e-05 0 -0.00215502 -0.000105855 0 -0.00212456 -0.000127547 0 -0.00208858 -0.000148195 0 -0.00204739 -0.000167637 0 -0.00200131 -0.000185726 0 -0.00195074 -0.000202329 0 -0.00189608 -0.000217333 0 -0.00183778 -0.000230646 0 -0.00177629 -0.000242199 0 -0.00171209 -0.000251948 0 -0.00164569 -0.000259875 0 -0.00157755 -0.000265989 0 -0.0015809 0.000337801 0 -0.00165155 0.000330193 0 -0.00172049 0.000320223 0 -0.00178719 0.000307882 0 -0.0018511 0.000293199 0 -0.00191172 0.000276237 0 -0.00196855 0.000257093 0 -0.00202111 0.000235896 0 -0.00206897 0.000212802 0 -0.00211173 0.000187989 0 -0.00214903 0.000161657 0 -0.00218058 0.000134022 0 -0.0022061 0.00010531 0 -0.0022254 7.576e-05 0 -0.00223833 4.56133e-05 0 -0.00224478 1.51171e-05 0 -0.0022447 -1.54801e-05 0 -0.00223811 -4.59297e-05 0 -0.00222507 -7.59849e-05 0 -0.00220567 -0.000105402 0 -0.00218009 -0.000133944 0 -0.00214854 -0.00016138 0 -0.00211129 -0.00018749 0 -0.00206864 -0.000212069 0 -0.00202095 -0.000234924 0 -0.00196863 -0.000255888 0 -0.00191209 -0.000274814 0 -0.00185182 -0.000291583 0 -0.0017883 -0.000306106 0 -0.00172204 -0.000318326 0 -0.00165356 -0.000328219 0 -0.00158338 -0.000335798 0 -0.00158792 0.000410388 0 -0.00166119 0.000401352 0 -0.00173278 0.000389405 0 -0.0018021 0.000374536 0 -0.0018686 0.00035678 0 -0.00193171 0.000336217 0 -0.0019909 0.000312969 0 -0.00204567 0.000287198 0 -0.00209554 0.000259097 0 -0.0021401 0.000228891 0 -0.00217898 0.000196827 0 -0.00221184 0.000163171 0 -0.00223843 0.000128203 0 -0.00225853 9.22136e-05 0 -0.00227197 5.54998e-05 0 -0.00227867 1.83622e-05 0 -0.00227857 -1.88967e-05 0 -0.00227168 -5.59746e-05 0 -0.00225806 -9.25713e-05 0 -0.00223782 -0.00012839 0 -0.00221115 -0.000163141 0 -0.00217824 -0.000196541 0 -0.0021394 -0.000228321 0 -0.00209494 -0.000258226 0 -0.00204524 -0.000286019 0 -0.00199072 -0.000311491 0 -0.00193185 -0.000334458 0 -0.00186912 -0.000354772 0 -0.00180306 -0.000372321 0 -0.00173421 -0.000387035 0 -0.00166314 -0.000398883 0 -0.0015904 -0.000407882 0 -0.00159606 0.000485836 0 -0.00167251 0.00047543 0 -0.00174732 0.000461517 0 -0.00181985 0.000444084 0 -0.00188949 0.000423175 0 -0.00195563 0.000398888 0 -0.00201769 0.000371375 0 -0.00207512 0.000340834 0 -0.00212744 0.000307502 0 -0.00217417 0.000271654 0 -0.00221494 0.000233591 0 -0.00224939 0.000193633 0 -0.00227725 0.000152118 0 -0.00229831 0.000109392 0 -0.00231238 6.58103e-05 0 -0.00231938 2.17285e-05 0 -0.00231924 -2.24946e-05 0 -0.00231199 -6.65015e-05 0 -0.00229768 -0.000109936 0 -0.00227643 -0.000152448 0 -0.00224843 -0.00019369 0 -0.0022139 -0.000233326 0 -0.00217314 -0.000271031 0 -0.00212649 -0.000306497 0 -0.00207435 -0.000339441 0 -0.00201717 -0.000369603 0 -0.00195546 -0.000396761 0 -0.00188974 -0.000420732 0 -0.0018206 -0.00044138 0 -0.00174861 -0.000458616 0 -0.00167438 -0.000472404 0 -0.00159853 -0.000482764 0 -0.00160523 0.000564729 0 -0.00168548 0.000553022 0 -0.00176413 0.000537157 0 -0.00184049 0.000517118 0 -0.00191388 0.000492956 0 -0.00198363 0.000464794 0 -0.0020491 0.000432816 0 -0.00210971 0.000397265 0 -0.00216491 0.000358428 0 -0.00221422 0.000316637 0 -0.00225722 0.000272252 0 -0.00229354 0.000225655 0 -0.0023229 0.000177244 0 -0.00234507 0.000127428 0 -0.00235988 7.66207e-05 0 -0.00236722 2.52362e-05 0 -0.00236704 -2.63092e-05 0 -0.00235936 -7.76008e-05 0 -0.00234424 -0.000128226 0 -0.00232181 -0.000177776 0 -0.00229224 -0.000225847 0 -0.0022558 -0.000272044 0 -0.00221277 -0.000315983 0 -0.00216353 -0.000357298 0 -0.0021085 -0.000395649 0 -0.00204817 -0.000430725 0 -0.00198308 -0.000462258 0 -0.00191381 -0.000490025 0 -0.00184098 -0.000513859 0 -0.00176524 -0.000533652 0 -0.00168726 -0.000549362 0 -0.0016077 -0.000561011 0 -0.00161533 0.000647702 0 -0.00170005 0.000634784 0 -0.00178323 0.000616985 0 -0.00186411 0.000594284 0 -0.00194191 0.000566748 0 -0.00201591 0.000534525 0 -0.00208539 0.00049784 0 -0.00214972 0.000456987 0 -0.00220829 0.000412314 0 -0.0022606 0.000364218 0 -0.00230618 0.000313127 0 -0.00234467 0.000259491 0 -0.00237576 0.000203777 0 -0.00239921 0.000146457 0 -0.00241485 8.80077e-05 0 -0.00242258 2.89046e-05 0 -0.00242236 -3.03778e-05 0 -0.00241418 -8.9367e-05 0 -0.00239812 -0.000147592 0 -0.00237432 -0.000204585 0 -0.00234296 -0.000259881 0 -0.00230428 -0.000313023 0 -0.00225863 -0.000363562 0 -0.00220637 -0.000411068 0 -0.00214797 -0.000455137 0 -0.00208395 -0.0004954 0 -0.00201489 -0.000531531 0 -0.00194144 -0.000563262 0 -0.00186427 -0.000590389 0 -0.00178412 -0.000612783 0 -0.00170171 -0.000630391 0 -0.00161778 -0.00064324 0 -0.0016262 0.000735463 0 -0.00171616 0.000721441 0 -0.00180465 0.000701728 0 -0.0018908 0.0006763 0 -0.00197376 0.00064524 0 -0.00205271 0.000608728 0 -0.00212686 0.000567042 0 -0.00219549 0.000520535 0 -0.00225796 0.00046963 0 -0.00231371 0.000414799 0 -0.00236225 0.000356548 0 -0.00240321 0.000295407 0 -0.00243625 0.000231915 0 -0.00246116 0.000166615 0 -0.00247775 0.000100048 0 -0.00248592 3.27521e-05 0 -0.00248563 -3.474e-05 0 -0.00247689 -0.000101897 0 -0.00245977 -0.000168191 0 -0.0024344 -0.000233092 0 -0.00240098 -0.000296072 0 -0.00235977 -0.000356607 0 -0.0023111 -0.000414178 0 -0.00225537 -0.000468282 0 -0.00219307 -0.000518441 0 -0.00212477 -0.000564215 0 -0.0020511 -0.000605214 0 -0.00197278 -0.000641114 0 -0.00189056 -0.000671666 0 -0.00180525 -0.000696713 0 -0.00171767 -0.00071619 0 -0.00162865 -0.00073013 0 -0.00163769 0.000828797 0 -0.00173373 0.000813804 0 -0.00182839 0.000792202 0 -0.00192068 0.000763967 0 -0.00200964 0.000729198 0 -0.00209432 0.000688121 0 -0.00217385 0.000641074 0 -0.00224743 0.00058849 0 -0.00231436 0.000530878 0 -0.00237403 0.000468802 0 -0.00242593 0.000402862 0 -0.00246967 0.000333675 0 -0.00250491 0.000261861 0 -0.00253143 0.000188039 0 -0.00254907 0.000112818 0 -0.00255773 3.6795e-05 0 -0.00255736 -3.94372e-05 0 -0.00254798 -0.000115292 0 -0.00252967 -0.000190183 0 -0.00250255 -0.00026352 0 -0.00246682 -0.00033471 0 -0.00242273 -0.000403157 0 -0.00237063 -0.000468264 0 -0.00231094 -0.000529446 0 -0.00224418 -0.000586138 0 -0.00217096 -0.000637816 0 -0.00209198 -0.00068401 0 -0.00200802 -0.000724327 0 -0.00191995 -0.000758465 0 -0.00182865 -0.000786229 0 -0.00173507 -0.000807541 0 -0.00164014 -0.000822438 0 -0.0016496 0.0009286 0 -0.00175269 0.000912793 0 -0.00185451 0.000889333 0 -0.00195391 0.000858187 0 -0.0020498 0.000819483 0 -0.00214109 0.0007735 0 -0.0022268 0.000720657 0 -0.00230604 0.000661482 0 -0.00237804 0.000596596 0 -0.00244213 0.000526673 0 -0.0024978 0.000452424 0 -0.00254462 0.000374567 0 -0.0025823 0.000293815 0 -0.00261061 0.000210862 0 -0.00262939 0.000126386 0 -0.00263857 4.10466e-05 0 -0.00263811 -4.45119e-05 0 -0.00262803 -0.00012965 0 -0.00260839 -0.000213727 0 -0.00257933 -0.000296094 0 -0.00254102 -0.000376093 0 -0.00249372 -0.000453049 0 -0.00243777 -0.00052628 0 -0.0023736 -0.000595106 0 -0.00230177 -0.00065886 0 -0.00222293 -0.000716913 0 -0.00213785 -0.000768698 0 -0.0020474 -0.000813737 0 -0.00195255 -0.000851657 0 -0.00185434 -0.000882219 0 -0.00175381 -0.000905323 0 -0.00165205 -0.000921016 0 -0.00166167 0.00103588 0 -0.00177292 0.00101946 0 -0.00188303 0.000994177 0 -0.00199067 0.000959991 0 -0.00209456 0.000917068 0 -0.00219346 0.00086576 0 -0.00228626 0.000806584 0 -0.00237193 0.000740197 0 -0.00244964 0.000667354 0 -0.00251868 0.000588872 0 -0.00257852 0.000505593 0 -0.00262875 0.000418353 0 -0.00266908 0.000327964 0 -0.00269931 0.000235205 0 -0.00271933 0.000140817 0 -0.00272906 4.55159e-05 0 -0.00272849 -5.00071e-05 0 -0.00271763 -0.000145067 0 -0.00269656 -0.000238978 0 -0.00266537 -0.000331035 0 -0.00262423 -0.000420515 0 -0.00257338 -0.000506665 0 -0.00251314 -0.000588705 0 -0.00244396 -0.000665844 0 -0.00236639 -0.000737292 0 -0.00228115 -0.000802292 0 -0.00218909 -0.000860154 0 -0.00209119 -0.000910285 0 -0.00198854 -0.000952231 0 -0.00188233 -0.000985691 0 -0.00177378 -0.00101054 0 -0.00166414 -0.00102683 0 -0.00167358 0.00115183 0 -0.0017943 0.00113503 0 -0.00191402 0.00110795 0 -0.00203119 0.00107056 0 -0.00214432 0.00102307 0 -0.00225197 0.000965908 0 -0.00235284 0.00089974 0 -0.0024458 0.000825378 0 -0.00252992 0.000743755 0 -0.00260445 0.000655868 0 -0.00266887 0.000562719 0 -0.00272278 0.000465282 0 -0.00276596 0.000364479 0 -0.00279824 0.00026117 0 -0.00281955 0.000156159 0 -0.00282985 5.02051e-05 0 -0.00282914 -5.59642e-05 0 -0.00281746 -0.000161633 0 -0.00279484 -0.000266077 0 -0.00276136 -0.00036855 0 -0.00271716 -0.000468264 0 -0.00266244 -0.000564386 0 -0.00259748 -0.000656032 0 -0.00252271 -0.000742278 0 -0.00243871 -0.000822183 0 -0.00234622 -0.000894828 0 -0.00224619 -0.000959358 0 -0.00213973 -0.00101505 0 -0.0020281 -0.00106132 0 -0.00191267 -0.00109781 0 -0.00179485 -0.00112434 0 -0.0016761 -0.00114099 0 -0.00168501 0.00127777 0 -0.00181668 0.00126092 0 -0.00194755 0.00123209 0 -0.00207578 0.00119128 0 -0.00219958 0.00113876 0 -0.00231729 0.0010751 0 -0.00242739 0.00100111 0 -0.00252857 0.000917828 0 -0.00261983 0.000826423 0 -0.00270039 0.00072812 0 -0.00276975 0.000624124 0 -0.00282759 0.000515567 0 -0.00287375 0.000403489 0 -0.00290816 0.000288828 0 -0.00293079 0.000172439 0 -0.00294167 5.51078e-05 0 -0.00294081 -6.24211e-05 0 -0.00292824 -0.000179418 0 -0.00290399 -0.000295142 0 -0.00286811 -0.000408814 0 -0.00282065 -0.000519597 0 -0.00276176 -0.000626578 0 -0.00269167 -0.000728756 0 -0.00261075 -0.000825056 0 -0.00251955 -0.000914347 0 -0.00241888 -0.000995496 0 -0.00230975 -0.00106744 0 -0.00219346 -0.00112925 0 -0.00207148 -0.00118023 0 -0.00194538 -0.0012199 0 -0.00181685 -0.00124807 0 -0.00168758 -0.00126477 0 -0.00169539 0.00141545 0 -0.00183987 0.00139879 0 -0.00198373 0.00136826 0 -0.0021248 0.00132376 0 -0.00226097 0.00126565 0 -0.00239025 0.00119464 0 -0.00251084 0.00111179 0 -0.00262129 0.00101841 0 -0.00272044 0.000915985 0 -0.00280753 0.000806053 0 -0.00288214 0.000690072 0 -0.00294407 0.000569357 0 -0.00299328 0.000445066 0 -0.00302982 0.000318204 0 -0.00305376 0.000189654 0 -0.00306518 6.02054e-05 0 -0.00306415 -6.94078e-05 0 -0.00305067 -0.00019847 0 -0.00302476 -0.000326248 0 -0.00298639 -0.000451955 0 -0.00293555 -0.000574719 0 -0.00287228 -0.000693557 0 -0.00279669 -0.00080735 0 -0.00270906 -0.000914842 0 -0.00260988 -0.00101466 0 -0.00249997 -0.00110539 0 -0.0023805 -0.00118567 0 -0.00225292 -0.00125435 0 -0.00211898 -0.0013105 0 -0.00198054 -0.00135356 0 -0.00183959 -0.00138327 0 -0.00169812 -0.00139972 0 -0.00170431 0.00156648 0 -0.00186368 0.0015507 0 -0.0020227 0.00151845 0 -0.00217874 0.0014699 0 -0.00232927 0.00140548 0 -0.00247194 0.00132612 0 -0.00260462 0.00123305 0 -0.00272545 0.00112804 0 -0.00283324 0.00101304 0 -0.00292727 0.000890011 0 -0.00300731 0.000760725 0 -0.00307335 0.000626698 0 -0.00312557 0.000489192 0 -0.00316416 0.000349253 0 -0.00318933 0.000207759 0 -0.00320124 6.54643e-05 0 -0.00319999 -7.69427e-05 0 -0.00318562 -0.000218797 0 -0.00315806 -0.00035941 0 -0.00311723 -0.000498018 0 -0.00306299 -0.000633745 0 -0.00299522 -0.000765557 0 -0.00291387 -0.000892223 0 -0.00281904 -0.00101229 0 -0.00271108 -0.00112408 0 -0.00259079 -0.00122578 0 -0.00245939 -0.0013156 0 -0.00231877 -0.00139199 0 -0.00217097 -0.00145391 0 -0.00201822 -0.00150062 0 -0.00186284 -0.00153182 0 -0.00170721 -0.00154751 0 -0.0017108 0.0017339 0 -0.00188784 0.00171896 0 -0.00206469 0.00168505 0 -0.00223821 0.00163195 0 -0.00240549 0.00156038 0 -0.0025637 0.00147124 0 -0.00271011 0.00136628 0 -0.0028426 0.00124765 0 -0.00295968 0.00111809 0 -0.00306089 0.000980181 0 -0.00314632 0.000836078 0 -0.00321631 0.000687482 0 -0.0032713 0.000535723 0 -0.00331173 0.000381839 0 -0.00333797 0.000226651 0 -0.00335027 7.08322e-05 0 -0.0033488 -8.50254e-05 0 -0.00333356 -0.000240355 0 -0.00330446 -0.000394556 0 -0.0032613 -0.000546936 0 -0.00320379 -0.000696654 0 -0.0031316 -0.000842666 0 -0.00304442 -0.000983658 0 -0.00294205 -0.00111798 0 -0.00282456 -0.0012436 0 -0.00269254 -0.00135808 0 -0.00254759 -0.00145892 0 -0.00239183 -0.00154422 0 -0.00222794 -0.00161256 0 -0.00205855 -0.00166327 0 -0.00188633 -0.00169588 0 -0.00171412 -0.00171048 0 -0.00171448 0.00191913 0 -0.0019122 0.00190672 0 -0.00211001 0.00187084 0 -0.002304 0.00181259 0 -0.00249073 0.00173277 0 -0.00266727 0.00163267 0 -0.00283017 0.00151329 0 -0.00297563 0.00137815 0 -0.00310242 0.0012314 0 -0.00321067 0.00107647 0 -0.00330112 0.00091586 0 -0.0033746 0.00075138 0 -0.00343193 0.000584342 0 -0.00347382 0.000415703 0 -0.00350085 0.000246158 0 -0.0035134 7.6236e-05 0 -0.00351167 -9.36303e-05 0 -0.00349568 -0.000263027 0 -0.00346525 -0.0004315 0 -0.00342005 -0.000598479 0 -0.00335961 -0.000763224 0 -0.00328332 -0.000924738 0 -0.00319053 -0.0010817 0 -0.0030806 -0.00123231 0 -0.00295303 -0.0013742 0 -0.0028079 -0.00150414 0 -0.00264658 -0.00161824 0 -0.00247297 -0.00171337 0 -0.00229043 -0.00178893 0 -0.00210172 -0.00184406 0 -0.00190983 -0.00187817 0 -0.00171818 -0.00189081 0 -0.00171349 0.00212887 0 -0.00193652 0.00211724 0 -0.00215934 0.00207932 0 -0.00237706 0.00201466 0 -0.00258613 0.00192571 0 -0.00278442 0.00181311 0 -0.00296764 0.00167616 0 -0.00312726 0.0015201 0 -0.0032634 0.00135274 0 -0.00337794 0.00117833 0 -0.00347252 0.000999435 0 -0.00354866 0.000817772 0 -0.0036076 0.000634522 0 -0.0036504 0.000450444 0 -0.00367783 0.00026603 0 -0.00369042 8.15793e-05 0 -0.00368842 -0.000102696 0 -0.00367184 -0.000286607 0 -0.00364043 -0.000469904 0 -0.00359368 -0.000652218 0 -0.0035309 -0.000832966 0 -0.00345118 -0.0010113 0 -0.00335345 -0.00118596 0 -0.00323651 -0.00135524 0 -0.00309899 -0.00151664 0 -0.00293936 -0.00166613 0 -0.0027578 -0.00179628 0 -0.00256296 -0.00190233 0 -0.00235916 -0.00198562 0 -0.00214816 -0.00204604 0 -0.00193312 -0.0020818 0 -0.00171826 -0.0020926 0 -0.00170795 0.00236167 0 -0.00196109 0.00235611 0 -0.00221383 0.00231424 0 -0.00245919 0.00224145 0 -0.00269239 0.00214045 0 -0.00291343 0.00202047 0 -0.00312036 0.00185767 0 -0.00329187 0.00167263 0 -0.00343567 0.0014809 0 -0.0035547 0.00128456 0 -0.003652 0.00108567 0 -0.0037295 0.000885696 0 -0.00378903 0.000685476 0 -0.00383193 0.000485496 0 -0.00385924 0.000285918 0 -0.00387161 8.67462e-05 0 -0.00386935 -0.000112119 0 -0.00385244 -0.000310775 0 -0.00382053 -0.000509263 0 -0.00377295 -0.000707468 0 -0.00370873 -0.000905075 0 -0.00362667 -0.00110142 0 -0.00352517 -0.00129553 0 -0.00340266 -0.00148582 0 -0.00325655 -0.00167029 0 -0.00308442 -0.00184704 0 -0.002879 -0.00200098 0 -0.00266201 -0.00211224 0 -0.00243535 -0.00220552 0 -0.00219882 -0.00227257 0 -0.00195629 -0.00231116 0 -0.00171362 -0.00231828 0 -0.00169406 0.00263683 0 -0.0019863 0.00262805 0 -0.00227621 0.00258144 0 -0.00255402 0.00249561 0 -0.00281284 0.0023772 0 -0.0030482 0.00224045 0 -0.00325601 0.00204874 0 -0.00343355 0.00183243 0 -0.00358121 0.00161354 0 -0.00370242 0.00139319 0 -0.00380022 0.00117292 0 -0.00387737 0.00095378 0 -0.00393608 0.000736153 0 -0.00397809 0.000520109 0 -0.00400462 0.00030539 0 -0.00401646 9.16027e-05 0 -0.00401397 -0.000121736 0 -0.00399709 -0.000335092 0 -0.00396534 -0.000548863 0 -0.00391789 -0.000763276 0 -0.00385349 -0.000978354 0 -0.00377055 -0.00119375 0 -0.00366714 -0.00140877 0 -0.00354092 -0.00162215 0 -0.0033895 -0.00183225 0 -0.0032102 -0.00203811 0 -0.00300346 -0.00221821 0 -0.00277258 -0.00234315 0 -0.00252203 -0.00245087 0 -0.00225573 -0.00252843 0 -0.00197977 -0.00257117 0 -0.00170238 -0.00257711 0 -0.00167311 0.00293779 0 -0.00201395 0.00294567 0 -0.00235077 0.00288755 0 -0.00266867 0.00278185 0 -0.00295665 0.00263621 0 -0.00320955 0.00246886 0 -0.00342593 0.00224432 0 -0.00360651 0.00199567 0 -0.00375487 0.00174756 0 -0.00387492 0.0015016 0 -0.00397057 0.00125899 0 -0.00404513 0.00102026 0 -0.00410132 0.000785214 0 -0.00414118 0.000553362 0 -0.00416615 0.000323923 0 -0.00417712 9.60092e-05 0 -0.00417446 -0.00013132 0 -0.00415806 -0.000358972 0 -0.00412734 -0.000587773 0 -0.00408124 -0.000818378 0 -0.00401827 -0.00105123 0 -0.00393643 -0.00128639 0 -0.0038333 -0.00152354 0 -0.00370609 -0.00176172 0 -0.00355174 -0.00199938 0 -0.00336745 -0.0022349 0 -0.00315094 -0.00244416 0 -0.00290276 -0.00259528 0 -0.00262494 -0.00272561 0 -0.0023226 -0.00281964 0 -0.00200482 -0.00287061 0 -0.00168375 -0.00286942 0 -0.00163711 0.00332986 0 -0.00204599 0.00331582 0 -0.00244562 0.00324517 0 -0.00281375 0.00310652 0 -0.00313649 0.00292021 0 -0.00340787 0.00270918 0 -0.00363027 0.00244378 0 -0.0038106 0.00215882 0 -0.00395545 0.00187924 0 -0.00407046 0.00160648 0 -0.00416058 0.00134112 0 -0.00422986 0.00108297 0 -0.00428148 0.000831051 0 -0.00431776 0.000584177 0 -0.00434029 0.000340924 0 -0.00435003 9.98344e-05 0 -0.00434731 -0.000140564 0 -0.00433198 -0.000381679 0 -0.00430332 -0.000624835 0 -0.0042601 -0.00087119 0 -0.00420053 -0.0011217 0 -0.00412223 -0.00137696 0 -0.00402224 -0.00163714 0 -0.00389707 -0.00190167 0 -0.00374285 -0.00216918 0 -0.00355548 -0.00243787 0 -0.00333053 -0.00268309 0 -0.0030632 -0.00287145 0 -0.00275295 -0.00303559 0 -0.00240564 -0.00315586 0 -0.00203337 -0.00321856 0 -0.00165412 -0.0032217 0 -0.00158613 0.00373215 0 -0.00208781 0.00377314 0 -0.00257275 0.00366704 0 -0.00300614 0.00347944 0 -0.00336876 0.00323107 0 -0.00365609 0.00295892 0 -0.0038763 0.0026424 0 -0.00404994 0.00231686 0 -0.00418558 0.0020039 0 -0.00429061 0.00170374 0 -0.00437112 0.00141601 0 -0.00443197 0.00113935 0 -0.0044767 0.000871832 0 -0.00450783 0.000611355 0 -0.004527 0.000355769 0 -0.00453514 0.000102974 0 -0.00453256 -0.000149072 0 -0.00451899 -0.000402324 0 -0.00449363 -0.000658655 0 -0.00445507 -0.000919798 0 -0.00440127 -0.00118734 0 -0.00432947 -0.00146252 0 -0.00423614 -0.00174622 0 -0.00411693 -0.00203845 0 -0.00396692 -0.00233822 0 -0.00378083 -0.00264407 0 -0.00355323 -0.00293413 0 -0.00326755 -0.00317443 0 -0.00291923 -0.00338916 0 -0.00251446 -0.00354918 0 -0.00206942 -0.00363626 0 -0.00161113 -0.00362104 0 -0.00150859 0.00437874 0 -0.00214812 0.00432463 0 -0.00275458 0.00418301 0 -0.00327167 0.00390873 0 -0.00367759 0.00357019 0 -0.00397668 0.00320611 0 -0.0041869 0.0028306 0 -0.00434648 0.00246306 0 -0.00446544 0.00211542 0 -0.00455434 0.00178838 0 -0.00462042 0.00147975 0 -0.00466931 0.00118657 0 -0.00470468 0.00090557 0 -0.00472905 0.000633647 0 -0.00474394 0.000367834 0 -0.00475018 0.000105376 0 -0.00474798 -0.000156356 0 -0.004737 -0.000419876 0 -0.00471633 -0.000687626 0 -0.00468446 -0.000961979 0 -0.00463918 -0.00124523 0 -0.0045774 -0.00153948 0 -0.00449511 -0.00184654 0 -0.00438687 -0.00216746 0 -0.00424646 -0.00250197 0 -0.00406581 -0.00284695 0 -0.00383928 -0.00318852 0 -0.00353541 -0.00350751 0 -0.00314366 -0.00379505 0 -0.00266566 -0.00402066 0 -0.00211988 -0.00414117 0 -0.00154798 -0.00415351 0 -0.00137379 0.00494319 0 -0.00224532 0.0050803 0 -0.00303419 0.00481291 0 -0.00365128 0.00440519 0 -0.00409434 0.00392966 0 -0.00439351 0.00345492 0 -0.00459329 0.00300482 0 -0.00472713 0.00258818 0 -0.00481974 0.00220606 0 -0.0048847 0.0018544 0 -0.0049311 0.00152807 0 -0.00496432 0.0012216 0 -0.00498792 0.000930285 0 -0.00500399 0.000649847 0 -0.00501381 0.000376578 0 -0.00501795 0.000107065 0 -0.00501649 -0.000161839 0 -0.00500899 -0.000433188 0 -0.0049945 -0.000709977 0 -0.00497152 -0.000995242 0 -0.00493776 -0.00129205 0 -0.00489009 -0.00160355 0 -0.00482403 -0.00193276 0 -0.00473356 -0.00228245 0 -0.00461011 -0.00265427 0 -0.00444207 -0.00304747 0 -0.00421057 -0.00345625 0 -0.00389143 -0.00386883 0 -0.00345674 -0.00426327 0 -0.00288954 -0.00459157 0 -0.00219911 -0.00479324 0 -0.00145016 -0.00474998 0 -0.00120343 0.00628657 0 -0.00243988 0.00604684 0 -0.00349295 0.00562071 0 -0.00421653 0.00495196 0 -0.00465257 0.00428446 0 -0.00491068 0.00367664 0 -0.00505788 0.00314425 0 -0.00514518 0.00267828 0 -0.00519726 0.00226578 0 -0.00523013 0.00189531 0 -0.00525132 0.0015565 0 -0.0052656 0.00124164 0 -0.00527531 0.000944162 0 -0.00528192 0.000658964 0 -0.00528608 0.000381585 0 -0.00528807 0.000108177 0 -0.00528776 -0.000164881 0 -0.00528466 -0.000441057 0 -0.00527787 -0.000723871 0 -0.00526598 -0.00101695 0 -0.00524691 -0.00132421 0 -0.00521764 -0.00164982 0 -0.00517388 -0.00199842 0 -0.00510928 -0.00237487 0 -0.0050147 -0.00278439 0 -0.00487548 -0.00323146 0 -0.0046702 -0.00371898 0 -0.00436323 -0.00424482 0 -0.00390831 -0.00478975 0 -0.00324425 -0.00530158 0 -0.0023469 -0.00563446 0 -0.00131103 -0.00571942 0 -0.000670708 0.00734008 0 -0.00287114 0.00762836 0 -0.00434192 0.00657663 0 -0.00505302 0.00549521 0 -0.00539456 0.00456579 0 -0.00552822 0.00382121 0 -0.00558385 0.00321714 0 -0.00559595 0.00271459 0 -0.00559503 0.00228428 0 -0.00558737 0.00190455 0 -0.00557954 0.00156148 0 -0.00557231 0.00124437 0 -0.00556693 0.000945972 0 -0.00556333 0.0006603 0 -0.00556162 0.000382696 0 -0.00556157 0.00010894 0 -0.00556289 -0.000164795 0 -0.00556509 -0.000442323 0 -0.00556738 -0.00072752 0 -0.00556865 -0.00102457 0 -0.00556717 -0.00133804 0 -0.00556058 -0.00167322 0 -0.00554511 -0.00203615 0 -0.00551568 -0.00243431 0 -0.00546321 -0.00287654 0 -0.00537547 -0.00337436 0 -0.00522726 -0.00394166 0 -0.00498399 -0.00459413 0 -0.00456603 -0.00534308 0 -0.00386041 -0.00615316 0 -0.0026646 -0.00686924 0 -0.00101927 -0.00685194 0 -0.000237172 0.0113977 0 -0.00436509 0.00994573 0 -0.00584291 0.00755242 0 -0.00631519 0.00582983 0 -0.00627931 0.00466311 0 -0.00624167 0.00382481 0 -0.0061347 0.00318996 0 -0.00606481 0.00268085 0 -0.00599435 0.00225264 0 -0.0059459 0.00187828 0 -0.00590555 0.00154063 0 -0.00587715 0.00122886 0 -0.00585606 0.000935108 0 -0.00584251 0.000653734 0 -0.00583499 0.000379964 0 -0.00583324 0.000109718 0 -0.00583668 -0.000160954 0 -0.00584492 -0.000435948 0 -0.00585743 -0.000719411 0 -0.00587343 -0.00101584 0 -0.00589206 -0.00133037 0 -0.0059114 -0.00166899 0 -0.00592997 -0.00203908 0 -0.00594271 -0.00244984 0 -0.00594736 -0.00291381 0 -0.00592848 -0.00344805 0 -0.00588263 -0.00407838 0 -0.00575473 -0.00484391 0 -0.00552452 -0.0058081 0 -0.00494059 -0.00706753 0 -0.00361853 -0.00865055 0 -0.000612697 -0.00950373 0 0.0127668 0.0438219 0 -0.00855723 0.0103491 0 -0.00916728 0.00799446 0 -0.00733999 0.00553189 0 -0.00751739 0.00447827 0 -0.0068239 0.00362303 0 -0.00674671 0.00304451 0 -0.00648337 0.00256875 0 -0.00639695 0.00216849 0 -0.00628424 0.00181647 0 -0.00622588 0.00149429 0 -0.00617205 0.00119572 0 -0.00613923 0.000911992 0 -0.0061152 0.000639671 0 -0.00610304 0.000373736 0 -0.00609976 0.000110923 0 -0.00610583 -0.000152826 0 -0.00612064 -0.000421164 0 -0.00614394 -0.000698446 0 -0.00617605 -0.000989121 0 -0.0062155 -0.00129886 0 -0.00626461 -0.00163355 0 -0.00631728 -0.00200189 0 -0.00638421 -0.00241289 0 -0.0064411 -0.00288207 0 -0.00653315 -0.00342829 0 -0.00656458 -0.00408162 0 -0.00671477 -0.00490773 0 -0.0066147 -0.00596169 0 -0.00690672 -0.00762851 0 -0.00645734 -0.0100097 0 0.00353313 -0.023648 0 </DataArray> 
</PointData> 
<Points> 
<DataArray type="Float32" NumberOfComponents="3"> 