<?xml version="1.0"?> 
<VTKFile type="StructuredGrid" version="0.1"> 
<StructuredGrid WholeExtent="0 31 0 31 0 0"> 
<Piece Extent="0 31 0 31 0 0"> 
<PointData>
<DataArray type="Float32" Name="B" format="ascii" NumberOfComponents="3"> 
0.0176422 -0.0177469 0 0.00503935 -0.0071885 0 0.00353748 -0.00539684 0 0.00351976 -0.00410722 0 0.00281198 -0.00330913 0 0.00264661 -0.00270116 0 0.00227496 -0.0022419 0 0.00207495 -0.00188175 0 0.00183266 -0.00159256 0 0.00165231 -0.00136014 0 0.00147392 -0.00116895 0 0.0013239 -0.00101205 0 0.00118506 -0.000881165 0 0.00106295 -0.000771986 0 0.000952052 -0.000679955 0 0.000852707 -0.000602239 0 0.000762666 -0.000536192 0 0.000681182 -0.000479947 0 0.000607004 -0.000431883 0 0.000539307 -0.00039077 0 0.000477227 -0.000355574 0 0.000420055 -0.000325479 0 0.000367131 -0.000299809 0 0.000317871 -0.000278022 0 0.000271744 -0.000259671 0 0.000228266 -0.000244399 0 0.000186992 -0.000231914 0 0.000147508 -0.000221987 0 0.000109428 -0.000214441 0 7.23842e-05 -0.000209142 0 3.60226e-05 -0.000205998 0 0 -0.000204957 0 0.0113721 -0.00893432 0 0.00572938 -0.00696341 0 0.00436189 -0.00505823 0 0.00363289 -0.00395793 0 0.00315103 -0.00317032 0 0.00275698 -0.00259341 0 0.00244011 -0.00214899 0 0.00216318 -0.00179999 0 0.00192619 -0.00152186 0 0.00171652 -0.00129675 0 0.00153275 -0.00111332 0 0.00136942 -0.000962125 0 0.00122459 -0.000836845 0 0.00109529 -0.000732164 0 0.000979705 -0.000644284 0 0.000875933 -0.000570068 0 0.000782505 -0.00050715 0 0.000698057 -0.0004536 0 0.000621447 -0.000407912 0 0.000551654 -0.000368858 0 0.000487793 -0.00033546 0 0.000429076 -0.000306922 0 0.000374807 -0.000282598 0 0.000324363 -0.000261965 0 0.000277181 -0.000244595 0 0.000232754 -0.000230145 0 0.000190615 -0.000218337 0 0.000150333 -0.000208951 0 0.000111505 -0.000201818 0 7.3749e-05 -0.000196809 0 3.66992e-05 -0.000193839 0 -2.91173e-18 -0.000192854 0 0.0100528 -0.00648266 0 0.00636174 -0.00614315 0 0.00479063 -0.00473678 0 0.00392689 -0.0037471 0 0.00336587 -0.00301702 0 0.00292149 -0.00246954 0 0.00256732 -0.00204522 0 0.00226482 -0.00171125 0 0.00200734 -0.0014446 0 0.00178273 -0.00122927 0 0.0015868 -0.0010538 0 0.00141418 -0.000909552 0 0.00126175 -0.000790124 0 0.00112642 -0.000690556 0 0.00100589 -0.000607062 0 0.000898087 -0.00053667 0 0.000801311 -0.000477059 0 0.000714079 -0.00042639 0 0.000635124 -0.000383201 0 0.000563346 -0.000346321 0 0.000497786 -0.000314807 0 0.000437604 -0.000287898 0 0.000382059 -0.000264978 0 0.000330492 -0.000245546 0 0.000282313 -0.000229195 0 0.000236989 -0.000215598 0 0.000194033 -0.000204491 0 0.000152997 -0.000195665 0 0.000113463 -0.000188959 0 7.50355e-05 -0.000184251 0 3.73369e-05 -0.000181459 0 -2.24518e-18 -0.000180534 0 0.00944447 -0.00532793 0 0.00673996 -0.00534609 0 0.00513768 -0.00436623 0 0.00419857 -0.00350752 0 0.00356423 -0.0028441 0 0.00307812 -0.002332 0 0.00268807 -0.00193164 0 0.00236184 -0.00161501 0 0.00208473 -0.00136175 0 0.00184581 -0.00115735 0 0.00163826 -0.000990858 0 0.00145669 -0.000854218 0 0.00129701 -0.000741218 0 0.00115591 -0.000647165 0 0.00103067 -0.000568394 0 0.000919016 -0.000502076 0 0.00081906 -0.00044598 0 0.000729182 -0.000398352 0 0.000648006 -0.000357793 0 0.000574348 -0.000323189 0 0.000507183 -0.000293644 0 0.000445618 -0.000268433 0 0.00038887 -0.000246971 0 0.000336246 -0.000228785 0 0.000287128 -0.00021349 0 0.00024096 -0.000200776 0 0.000197237 -0.000190393 0 0.000155494 -0.000182145 0 0.000115298 -0.000175878 0 7.62411e-05 -0.00017148 0 3.79345e-05 -0.000168872 0 0 -0.000168007 0 0.00910312 -0.00453256 0 0.00695796 -0.00465207 0 0.00541906 -0.00396905 0 0.00443673 -0.00324746 0 0.00374801 -0.002654 0 0.00322365 -0.00218224 0 0.00280227 -0.00180886 0 0.00245323 -0.00151173 0 0.00215804 -0.00127356 0 0.00190535 -0.00108121 0 0.00168689 -0.000924641 0 0.00149675 -0.000796259 0 0.00133023 -0.000690227 0 0.00118364 -0.000602079 0 0.00105394 -0.000528351 0 0.000938649 -0.00046635 0 0.000835691 -0.000413964 0 0.000743321 -0.00036953 0 0.000660055 -0.000331726 0 0.00058463 -0.000299498 0 0.000515958 -0.000272 0 0.000453097 -0.000248552 0 0.000395223 -0.000228602 0 0.00034161 -0.000211704 0 0.000291615 -0.000197499 0 0.000244661 -0.000185695 0 0.000200222 -0.000176058 0 0.000157819 -0.000168404 0 0.000117006 -0.00016259 0 7.73635e-05 -0.00015851 0 3.84908e-05 -0.000156091 0 -3.67417e-20 -0.00015529 0 0.0088677 -0.0039163 0 0.00708361 -0.00404833 0 0.00564277 -0.00356765 0 0.00464173 -0.00297279 0 0.00391532 -0.00245006 0 0.00335739 -0.00202166 0 0.00290887 -0.00167764 0 0.00253853 -0.00140194 0 0.00222675 -0.0011803 0 0.00196106 -0.00100112 0 0.00173241 -0.000855309 0 0.0015342 -0.000735832 0 0.00136125 -0.000637257 0 0.00120949 -0.0005554 0 0.00107561 -0.000487011 0 0.000956913 -0.000429561 0 0.00085115 -0.000381069 0 0.000756449 -0.000339975 0 0.000671234 -0.000305041 0 0.000594163 -0.000275282 0 0.00052409 -0.000249908 0 0.000460023 -0.000228283 0 0.000401103 -0.000209893 0 0.000346573 -0.000194325 0 0.000295766 -0.000181242 0 0.000248082 -0.000170373 0 0.000202981 -0.000161503 0 0.000159968 -0.000154459 0 0.000118585 -0.00014911 0 7.84005e-05 -0.000145357 0 3.90047e-05 -0.000143131 0 -2.57101e-18 -0.000142394 0 0.0087002 -0.00339114 0 0.0071579 -0.00351742 0 0.0058173 -0.00317366 0 0.00481654 -0.00268917 0 0.00406466 -0.00223528 0 0.00347911 -0.00185172 0 0.00300695 -0.00153885 0 0.00261737 -0.00128618 0 0.00229038 -0.00108235 0 0.00201267 -0.000917351 0 0.00177456 -0.000783068 0 0.00156884 -0.000673094 0 0.00138992 -0.000582441 0 0.00123336 -0.000507232 0 0.00109561 -0.00044446 0 0.000973745 -0.00039178 0 0.000865382 -0.000347354 0 0.000768527 -0.000309737 0 0.00068151 -0.000277783 0 0.000602921 -0.000250581 0 0.000531555 -0.000227401 0 0.000466378 -0.000207656 0 0.000406496 -0.000190873 0 0.000351124 -0.00017667 0 0.00029957 -0.000164739 0 0.000251217 -0.00015483 0 0.000205508 -0.000146745 0 0.000161936 -0.000140327 0 0.00012003 -0.000135453 0 7.935e-05 -0.000132034 0 3.94753e-05 -0.000130006 0 -1.19534e-18 -0.000129335 0 0.00857424 -0.00293086 0 0.00720269 -0.00304179 0 0.00595265 -0.00279263 0 0.00496383 -0.00240107 0 0.00419595 -0.00201232 0 0.00358841 -0.00167385 0 0.00309597 -0.00139335 0 0.00268932 -0.00116501 0 0.00234858 -0.0009801 0 0.00205991 -0.000830184 0 0.00181313 -0.000708139 0 0.00160053 -0.000608223 0 0.00141611 -0.000525916 0 0.00125515 -0.000457689 0 0.00111384 -0.000400794 0 0.00098908 -0.000353087 0 0.000878338 -0.000312887 0 0.000779513 -0.000278873 0 0.000690852 -0.00025 0 0.000610877 -0.000225435 0 0.000538333 -0.000204513 0 0.000472147 -0.0001867 0 0.000411389 -0.000171566 0 0.000355251 -0.000158764 0 0.000303018 -0.000148012 0 0.000254058 -0.000139085 0 0.000207798 -0.000131803 0 0.000163719 -0.000126023 0 0.00012134 -0.000121635 0 8.02101e-05 -0.000118556 0 3.99015e-05 -0.000116731 0 0 -0.000116126 0 0.00847803 -0.00251374 0 0.0072302 -0.00260878 0 0.00605732 -0.00242601 0 0.00508651 -0.00211173 0 0.00430963 -0.0017834 0 0.00368509 -0.00148943 0 0.00317556 -0.00124203 0 0.002754 -0.00103903 0 0.00240102 -0.000873977 0 0.00210252 -0.000739936 0 0.00184791 -0.000630764 0 0.00162909 -0.000541405 0 0.00143971 -0.000467835 0 0.00127477 -0.000406894 0 0.00113024 -0.000356112 0 0.00100286 -0.000313563 0 0.000889974 -0.000277735 0 0.000789374 -0.00024744 0 0.000699231 -0.000221739 0 0.000618009 -0.000199885 0 0.000544407 -0.000181281 0 0.000477313 -0.000165448 0 0.00041577 -0.000152001 0 0.000358944 -0.00014063 0 0.000306104 -0.000131082 0 0.0002566 -0.000123158 0 0.000209847 -0.000116694 0 0.000165314 -0.000111565 0 0.000122511 -0.000107671 0 8.09791e-05 -0.000104939 0 4.02826e-05 -0.00010332 0 0 -0.000102784 0 0.00840345 -0.00212914 0 0.0072473 -0.00220835 0 0.00613813 -0.00207335 0 0.00518741 -0.00182323 0 0.00440647 -0.00155033 0 0.00376911 -0.00129971 0 0.00324544 -0.00108575 0 0.00281111 -0.000908826 0 0.00244745 -0.000764418 0 0.00214028 -0.000646936 0 0.00187874 -0.000551197 0 0.00165439 -0.000472842 0 0.0014606 -0.000408358 0 0.00129212 -0.000354975 0 0.00114474 -0.00031052 0 0.00101504 -0.000273295 0 0.000900248 -0.00024197 0 0.000798075 -0.000215499 0 0.000706621 -0.000193052 0 0.000624297 -0.000173975 0 0.000549759 -0.000157741 0 0.000481864 -0.000143931 0 0.000419628 -0.000132206 0 0.000362196 -0.000122294 0 0.00030882 -0.000113973 0 0.000258837 -0.000107068 0 0.000211649 -0.000101438 0 0.000166717 -9.69694e-05 0 0.000123541 -9.3578e-05 0 8.16555e-05 -9.11993e-05 0 4.06177e-05 -8.97893e-05 0 0 -8.93222e-05 0 0.00834557 -0.00176837 0 0.00725798 -0.00183299 0 0.00620023 -0.00173321 0 0.00526914 -0.00153674 0 0.00448735 -0.00131447 0 0.00384055 -0.00110578 0 0.00330546 -0.000925303 0 0.00286042 -0.000775003 0 0.00248763 -0.000651872 0 0.002173 -0.000551529 0 0.00190546 -0.000469709 0 0.00167631 -0.000402745 0 0.00147869 -0.000347654 0 0.00130714 -0.000302069 0 0.00115728 -0.000264128 0 0.00102557 -0.000232375 0 0.000909124 -0.000205669 0 0.000805589 -0.000183112 0 0.000713 -0.000163993 0 0.000629722 -0.00014775 0 0.000554375 -0.000133934 0 0.000485788 -0.000122184 0 0.000422952 -0.000112211 0 0.000364998 -0.000103781 0 0.00031116 -9.6707e-05 0 0.000260763 -9.08375e-05 0 0.000213201 -8.60518e-05 0 0.000167925 -8.22548e-05 0 0.000124428 -7.93729e-05 0 8.22378e-05 -7.73518e-05 0 4.09062e-05 -7.61538e-05 0 0 -7.5757e-05 0 0.00830101 -0.00142563 0 0.00726466 -0.00147676 0 0.00624739 -0.00140374 0 0.00533392 -0.00125275 0 0.00455317 -0.00107686 0 0.00389962 -0.000908609 0 0.00335552 -0.000761461 0 0.00290174 -0.000638151 0 0.00252138 -0.000536797 0 0.0022005 -0.000454071 0 0.00192792 -0.000386577 0 0.00169474 -0.000331335 0 0.0014939 -0.0002859 0 0.00131976 -0.000248317 0 0.00116781 -0.000217052 0 0.0010344 -0.000190897 0 0.000916571 -0.000168909 0 0.000811889 -0.000150344 0 0.000718346 -0.000134615 0 0.000634267 -0.000121257 0 0.000558242 -0.000109897 0 0.000489073 -0.00010024 0 0.000425736 -9.2044e-05 0 0.000367343 -8.51183e-05 0 0.000313118 -7.93073e-05 0 0.000262375 -7.44866e-05 0 0.0002145 -7.05565e-05 0 0.000168935 -6.74386e-05 0 0.00012517 -6.50724e-05 0 8.27249e-05 -6.3413e-05 0 4.11476e-05 -6.24295e-05 0 0 -6.21037e-05 0 0.00826752 -0.00109624 0 0.00726879 -0.00113493 0 0.00628238 -0.00108295 0 0.00538362 -0.000971285 0 0.00460474 -0.00083821 0 0.00394651 -0.000708985 0 0.00339557 -0.000594928 0 0.00293494 -0.000498846 0 0.00254855 -0.000419652 0 0.00222267 -0.000354926 0 0.00194603 -0.000302089 0 0.0017096 -0.000258841 0 0.00150615 -0.000223276 0 0.00132992 -0.000193868 0 0.00117629 -0.00016941 0 0.00104151 -0.000148958 0 0.00092256 -0.00013177 0 0.000816955 -0.000117263 0 0.000722644 -0.000104975 0 0.00063792 -9.45422e-05 0 0.000561348 -8.56726e-05 0 0.000491712 -7.81332e-05 0 0.000427972 -7.17366e-05 0 0.000369226 -6.63319e-05 0 0.00031469 -6.17979e-05 0 0.000263669 -5.80369e-05 0 0.000215542 -5.49711e-05 0 0.000169746 -5.25391e-05 0 0.000125765 -5.06935e-05 0 8.31158e-05 -4.93993e-05 0 4.13412e-05 -4.86322e-05 0 0 -4.83781e-05 0 0.00824355 -0.00077654 0 0.00727127 -0.000803596 0 0.00630713 -0.000768833 0 0.00541967 -0.000692042 0 0.00464278 -0.000598983 0 0.00398146 -0.000507592 0 0.00342559 -0.000426361 0 0.00295991 -0.000357654 0 0.00256903 -0.000300899 0 0.00223938 -0.000254463 0 0.00195969 -0.00021654 0 0.0017208 -0.000185498 0 0.00151539 -0.000159973 0 0.00133758 -0.000138871 0 0.00118268 -0.000121326 0 0.00104687 -0.000106658 0 0.000927072 -9.43346e-05 0 0.00082077 -8.39355e-05 0 0.00072588 -7.51296e-05 0 0.000640669 -6.76544e-05 0 0.000563686 -6.13004e-05 0 0.000493698 -5.59002e-05 0 0.000429653 -5.13192e-05 0 0.000370643 -4.74491e-05 0 0.000315873 -4.42028e-05 0 0.000264642 -4.15102e-05 0 0.000216326 -3.93154e-05 0 0.000170356 -3.75745e-05 0 0.000126213 -3.62534e-05 0 8.34097e-05 -3.53271e-05 0 4.14868e-05 -3.4778e-05 0 8.64593e-20 -3.45962e-05 0 0.00822809 -0.000463394 0 0.00727267 -0.000479398 0 0.00632296 -0.000459431 0 0.00544314 -0.000414509 0 0.00466782 -0.00035947 0 0.00400464 -0.00030501 0 0.0034456 -0.000256375 0 0.00297659 -0.000215124 0 0.00258272 -0.000180998 0 0.00225057 -0.000153056 0 0.00196883 -0.00013023 0 0.0017283 -0.000111544 0 0.00152157 -9.61801e-05 0 0.00134271 -8.34804e-05 0 0.00118695 -7.29233e-05 0 0.00105045 -6.4099e-05 0 0.000930088 -5.66862e-05 0 0.00082332 -5.0432e-05 0 0.000728042 -4.51369e-05 0 0.000642507 -4.06424e-05 0 0.000565248 -3.68226e-05 0 0.000495025 -3.35765e-05 0 0.000430777 -3.08231e-05 0 0.000371589 -2.84972e-05 0 0.000316662 -2.65463e-05 0 0.000265292 -2.49282e-05 0 0.000216849 -2.36094e-05 0 0.000170763 -2.25633e-05 0 0.000126512 -2.17696e-05 0 8.3606e-05 -2.1213e-05 0 4.15841e-05 -2.08831e-05 0 4.41439e-19 -2.07739e-05 0 0.0082205 -0.000154049 0 0.0072733 -0.000159346 0 0.00633068 -0.000152834 0 0.0054547 -0.000138048 0 0.00468025 -0.000119834 0 0.0040162 -0.000101744 0 0.0034556 -8.55505e-05 0 0.00298495 -7.17963e-05 0 0.00258959 -6.0409e-05 0 0.00225617 -5.10817e-05 0 0.00197341 -4.34609e-05 0 0.00173206 -3.72221e-05 0 0.00152467 -3.20928e-05 0 0.00134528 -2.78532e-05 0 0.00118909 -2.43291e-05 0 0.00105224 -2.13837e-05 0 0.0009316 -1.89097e-05 0 0.000824598 -1.68225e-05 0 0.000729125 -1.50555e-05 0 0.000643427 -1.35558e-05 0 0.00056603 -1.22813e-05 0 0.000495689 -1.11982e-05 0 0.000431339 -1.02796e-05 0 0.000372063 -9.50368e-06 0 0.000317058 -8.85286e-06 0 0.000265618 -8.31309e-06 0 0.000217111 -7.87316e-06 0 0.000170967 -7.52423e-06 0 0.000126661 -7.25946e-06 0 8.37042e-05 -7.0738e-06 0 4.16327e-05 -6.96377e-06 0 2.62242e-20 -6.92732e-06 0 0.0082205 0.000154049 0 0.0072733 0.000159346 0 0.00633068 0.000152834 0 0.0054547 0.000138048 0 0.00468025 0.000119834 0 0.0040162 0.000101744 0 0.0034556 8.55505e-05 0 0.00298495 7.17963e-05 0 0.00258959 6.0409e-05 0 0.00225617 5.10817e-05 0 0.00197341 4.34609e-05 0 0.00173206 3.72221e-05 0 0.00152467 3.20928e-05 0 0.00134528 2.78532e-05 0 0.00118909 2.43291e-05 0 0.00105224 2.13837e-05 0 0.0009316 1.89097e-05 0 0.000824598 1.68225e-05 0 0.000729125 1.50555e-05 0 0.000643427 1.35558e-05 0 0.00056603 1.22813e-05 0 0.000495689 1.11982e-05 0 0.000431339 1.02796e-05 0 0.000372063 9.50368e-06 0 0.000317058 8.85286e-06 0 0.000265618 8.31309e-06 0 0.000217111 7.87316e-06 0 0.000170967 7.52423e-06 0 0.000126661 7.25946e-06 0 8.37042e-05 7.0738e-06 0 4.16327e-05 6.96377e-06 0 0 6.92732e-06 0 0.00822809 0.000463394 0 0.00727267 0.000479398 0 0.00632296 0.000459431 0 0.00544314 0.000414509 0 0.00466782 0.00035947 0 0.00400464 0.00030501 0 0.0034456 0.000256375 0 0.00297659 0.000215124 0 0.00258272 0.000180998 0 0.00225057 0.000153056 0 0.00196883 0.00013023 0 0.0017283 0.000111544 0 0.00152157 9.61801e-05 0 0.00134271 8.34804e-05 0 0.00118695 7.29233e-05 0 0.00105045 6.4099e-05 0 0.000930088 5.66862e-05 0 0.00082332 5.0432e-05 0 0.000728042 4.51369e-05 0 0.000642507 4.06424e-05 0 0.000565248 3.68226e-05 0 0.000495025 3.35765e-05 0 0.000430777 3.08231e-05 0 0.000371589 2.84972e-05 0 0.000316662 2.65463e-05 0 0.000265292 2.49282e-05 0 0.000216849 2.36094e-05 0 0.000170763 2.25633e-05 0 0.000126512 2.17696e-05 0 8.3606e-05 2.1213e-05 0 4.15841e-05 2.08831e-05 0 0 2.07739e-05 0 0.00824355 0.00077654 0 0.00727127 0.000803596 0 0.00630713 0.000768833 0 0.00541967 0.000692042 0 0.00464278 0.000598983 0 0.00398146 0.000507592 0 0.00342559 0.000426361 0 0.00295991 0.000357654 0 0.00256903 0.000300899 0 0.00223938 0.000254463 0 0.00195969 0.00021654 0 0.0017208 0.000185498 0 0.00151539 0.000159973 0 0.00133758 0.000138871 0 0.00118268 0.000121326 0 0.00104687 0.000106658 0 0.000927072 9.43346e-05 0 0.00082077 8.39355e-05 0 0.00072588 7.51296e-05 0 0.000640669 6.76544e-05 0 0.000563686 6.13004e-05 0 0.000493698 5.59002e-05 0 0.000429653 5.13192e-05 0 0.000370643 4.74491e-05 0 0.000315873 4.42028e-05 0 0.000264642 4.15102e-05 0 0.000216326 3.93154e-05 0 0.000170356 3.75745e-05 0 0.000126213 3.62534e-05 0 8.34097e-05 3.53271e-05 0 4.14868e-05 3.4778e-05 0 -1.65756e-19 3.45962e-05 0 0.00826752 0.00109624 0 0.00726879 0.00113493 0 0.00628238 0.00108295 0 0.00538362 0.000971285 0 0.00460474 0.00083821 0 0.00394651 0.000708985 0 0.00339557 0.000594928 0 0.00293494 0.000498846 0 0.00254855 0.000419652 0 0.00222267 0.000354926 0 0.00194603 0.000302089 0 0.0017096 0.000258841 0 0.00150615 0.000223276 0 0.00132992 0.000193868 0 0.00117629 0.00016941 0 0.00104151 0.000148958 0 0.00092256 0.00013177 0 0.000816955 0.000117263 0 0.000722644 0.000104975 0 0.00063792 9.45422e-05 0 0.000561348 8.56726e-05 0 0.000491712 7.81332e-05 0 0.000427972 7.17366e-05 0 0.000369226 6.63319e-05 0 0.00031469 6.17979e-05 0 0.000263669 5.80369e-05 0 0.000215542 5.49711e-05 0 0.000169746 5.25391e-05 0 0.000125765 5.06935e-05 0 8.31158e-05 4.93993e-05 0 4.13412e-05 4.86322e-05 0 -1.01371e-18 4.83781e-05 0 0.00830101 0.00142563 0 0.00726466 0.00147676 0 0.00624739 0.00140374 0 0.00533392 0.00125275 0 0.00455317 0.00107686 0 0.00389962 0.000908609 0 0.00335552 0.000761461 0 0.00290174 0.000638151 0 0.00252138 0.000536797 0 0.0022005 0.000454071 0 0.00192792 0.000386577 0 0.00169474 0.000331335 0 0.0014939 0.0002859 0 0.00131976 0.000248317 0 0.00116781 0.000217052 0 0.0010344 0.000190897 0 0.000916571 0.000168909 0 0.000811889 0.000150344 0 0.000718346 0.000134615 0 0.000634267 0.000121257 0 0.000558242 0.000109897 0 0.000489073 0.00010024 0 0.000425736 9.2044e-05 0 0.000367343 8.51183e-05 0 0.000313118 7.93073e-05 0 0.000262375 7.44866e-05 0 0.0002145 7.05565e-05 0 0.000168935 6.74386e-05 0 0.00012517 6.50724e-05 0 8.27249e-05 6.3413e-05 0 4.11476e-05 6.24295e-05 0 -1.11122e-19 6.21037e-05 0 0.00834557 0.00176837 0 0.00725798 0.00183299 0 0.00620023 0.00173321 0 0.00526914 0.00153674 0 0.00448735 0.00131447 0 0.00384055 0.00110578 0 0.00330546 0.000925303 0 0.00286042 0.000775003 0 0.00248763 0.000651872 0 0.002173 0.000551529 0 0.00190546 0.000469709 0 0.00167631 0.000402745 0 0.00147869 0.000347654 0 0.00130714 0.000302069 0 0.00115728 0.000264128 0 0.00102557 0.000232375 0 0.000909124 0.000205669 0 0.000805589 0.000183112 0 0.000713 0.000163993 0 0.000629722 0.00014775 0 0.000554375 0.000133934 0 0.000485788 0.000122184 0 0.000422952 0.000112211 0 0.000364998 0.000103781 0 0.00031116 9.6707e-05 0 0.000260763 9.08375e-05 0 0.000213201 8.60518e-05 0 0.000167925 8.22548e-05 0 0.000124428 7.93729e-05 0 8.22378e-05 7.73518e-05 0 4.09062e-05 7.61538e-05 0 0 7.5757e-05 0 0.00840345 0.00212914 0 0.0072473 0.00220835 0 0.00613813 0.00207335 0 0.00518741 0.00182323 0 0.00440647 0.00155033 0 0.00376911 0.00129971 0 0.00324544 0.00108575 0 0.00281111 0.000908826 0 0.00244745 0.000764418 0 0.00214028 0.000646936 0 0.00187874 0.000551197 0 0.00165439 0.000472842 0 0.0014606 0.000408358 0 0.00129212 0.000354975 0 0.00114474 0.00031052 0 0.00101504 0.000273295 0 0.000900248 0.00024197 0 0.000798075 0.000215499 0 0.000706621 0.000193052 0 0.000624297 0.000173975 0 0.000549759 0.000157741 0 0.000481864 0.000143931 0 0.000419628 0.000132206 0 0.000362196 0.000122294 0 0.00030882 0.000113973 0 0.000258837 0.000107068 0 0.000211649 0.000101438 0 0.000166717 9.69694e-05 0 0.000123541 9.3578e-05 0 8.16555e-05 9.11993e-05 0 4.06177e-05 8.97893e-05 0 0 8.93222e-05 0 0.00847803 0.00251374 0 0.0072302 0.00260878 0 0.00605732 0.00242601 0 0.00508651 0.00211173 0 0.00430963 0.0017834 0 0.00368509 0.00148943 0 0.00317556 0.00124203 0 0.002754 0.00103903 0 0.00240102 0.000873977 0 0.00210252 0.000739936 0 0.00184791 0.000630764 0 0.00162909 0.000541405 0 0.00143971 0.000467835 0 0.00127477 0.000406894 0 0.00113024 0.000356112 0 0.00100286 0.000313563 0 0.000889974 0.000277735 0 0.000789374 0.00024744 0 0.000699231 0.000221739 0 0.000618009 0.000199885 0 0.000544407 0.000181281 0 0.000477313 0.000165448 0 0.00041577 0.000152001 0 0.000358944 0.00014063 0 0.000306104 0.000131082 0 0.0002566 0.000123158 0 0.000209847 0.000116694 0 0.000165314 0.000111565 0 0.000122511 0.000107671 0 8.09791e-05 0.000104939 0 4.02826e-05 0.00010332 0 0 0.000102784 0 0.00857424 0.00293086 0 0.00720269 0.00304179 0 0.00595265 0.00279263 0 0.00496383 0.00240107 0 0.00419595 0.00201232 0 0.00358841 0.00167385 0 0.00309597 0.00139335 0 0.00268932 0.00116501 0 0.00234858 0.0009801 0 0.00205991 0.000830184 0 0.00181313 0.000708139 0 0.00160053 0.000608223 0 0.00141611 0.000525916 0 0.00125515 0.000457689 0 0.00111384 0.000400794 0 0.00098908 0.000353087 0 0.000878338 0.000312887 0 0.000779513 0.000278873 0 0.000690852 0.00025 0 0.000610877 0.000225435 0 0.000538333 0.000204513 0 0.000472147 0.0001867 0 0.000411389 0.000171566 0 0.000355251 0.000158764 0 0.000303018 0.000148012 0 0.000254058 0.000139085 0 0.000207798 0.000131803 0 0.000163719 0.000126023 0 0.00012134 0.000121635 0 8.02101e-05 0.000118556 0 3.99015e-05 0.000116731 0 0 0.000116126 0 0.0087002 0.00339114 0 0.0071579 0.00351742 0 0.0058173 0.00317366 0 0.00481654 0.00268917 0 0.00406466 0.00223528 0 0.00347911 0.00185172 0 0.00300695 0.00153885 0 0.00261737 0.00128618 0 0.00229038 0.00108235 0 0.00201267 0.000917351 0 0.00177456 0.000783068 0 0.00156884 0.000673094 0 0.00138992 0.000582441 0 0.00123336 0.000507232 0 0.00109561 0.00044446 0 0.000973745 0.00039178 0 0.000865382 0.000347354 0 0.000768527 0.000309737 0 0.00068151 0.000277783 0 0.000602921 0.000250581 0 0.000531555 0.000227401 0 0.000466378 0.000207656 0 0.000406496 0.000190873 0 0.000351124 0.00017667 0 0.00029957 0.000164739 0 0.000251217 0.00015483 0 0.000205508 0.000146745 0 0.000161936 0.000140327 0 0.00012003 0.000135453 0 7.935e-05 0.000132034 0 3.94753e-05 0.000130006 0 0 0.000129335 0 0.0088677 0.0039163 0 0.00708361 0.00404833 0 0.00564277 0.00356765 0 0.00464173 0.00297279 0 0.00391532 0.00245006 0 0.00335739 0.00202166 0 0.00290887 0.00167764 0 0.00253853 0.00140194 0 0.00222675 0.0011803 0 0.00196106 0.00100112 0 0.00173241 0.000855309 0 0.0015342 0.000735832 0 0.00136125 0.000637257 0 0.00120949 0.0005554 0 0.00107561 0.000487011 0 0.000956913 0.000429561 0 0.00085115 0.000381069 0 0.000756449 0.000339975 0 0.000671234 0.000305041 0 0.000594163 0.000275282 0 0.00052409 0.000249908 0 0.000460023 0.000228283 0 0.000401103 0.000209893 0 0.000346573 0.000194325 0 0.000295766 0.000181242 0 0.000248082 0.000170373 0 0.000202981 0.000161503 0 0.000159968 0.000154459 0 0.000118585 0.00014911 0 7.84005e-05 0.000145357 0 3.90047e-05 0.000143131 0 0 0.000142394 0 0.00910312 0.00453256 0 0.00695796 0.00465207 0 0.00541906 0.00396905 0 0.00443673 0.00324746 0 0.00374801 0.002654 0 0.00322365 0.00218224 0 0.00280227 0.00180886 0 0.00245323 0.00151173 0 0.00215804 0.00127356 0 0.00190535 0.00108121 0 0.00168689 0.000924641 0 0.00149675 0.000796259 0 0.00133023 0.000690227 0 0.00118364 0.000602079 0 0.00105394 0.000528351 0 0.000938649 0.00046635 0 0.000835691 0.000413964 0 0.000743321 0.00036953 0 0.000660055 0.000331726 0 0.00058463 0.000299498 0 0.000515958 0.000272 0 0.000453097 0.000248552 0 0.000395223 0.000228602 0 0.00034161 0.000211704 0 0.000291615 0.000197499 0 0.000244661 0.000185695 0 0.000200222 0.000176058 0 0.000157819 0.000168404 0 0.000117006 0.00016259 0 7.73635e-05 0.00015851 0 3.84908e-05 0.000156091 0 0 0.00015529 0 0.00944447 0.00532793 0 0.00673996 0.00534609 0 0.00513768 0.00436623 0 0.00419857 0.00350752 0 0.00356423 0.0028441 0 0.00307812 0.002332 0 0.00268807 0.00193164 0 0.00236184 0.00161501 0 0.00208473 0.00136175 0 0.00184581 0.00115735 0 0.00163826 0.000990858 0 0.00145669 0.000854218 0 0.00129701 0.000741218 0 0.00115591 0.000647165 0 0.00103067 0.000568394 0 0.000919016 0.000502076 0 0.00081906 0.00044598 0 0.000729182 0.000398352 0 0.000648006 0.000357793 0 0.000574348 0.000323189 0 0.000507183 0.000293644 0 0.000445618 0.000268433 0 0.00038887 0.000246971 0 0.000336246 0.000228785 0 0.000287128 0.00021349 0 0.00024096 0.000200776 0 0.000197237 0.000190393 0 0.000155494 0.000182145 0 0.000115298 0.000175878 0 7.62411e-05 0.00017148 0 3.79345e-05 0.000168872 0 0 0.000168007 0 0.0100528 0.00648266 0 0.00636174 0.00614315 0 0.00479063 0.00473678 0 0.00392689 0.0037471 0 0.00336587 0.00301702 0 0.00292149 0.00246954 0 0.00256732 0.00204522 0 0.00226482 0.00171125 0 0.00200734 0.0014446 0 0.00178273 0.00122927 0 0.0015868 0.0010538 0 0.00141418 0.000909552 0 0.00126175 0.000790124 0 0.00112642 0.000690556 0 0.00100589 0.000607062 0 0.000898087 0.00053667 0 0.000801311 0.000477059 0 0.000714079 0.00042639 0 0.000635124 0.000383201 0 0.000563346 0.000346321 0 0.000497786 0.000314807 0 0.000437604 0.000287898 0 0.000382059 0.000264978 0 0.000330492 0.000245546 0 0.000282313 0.000229195 0 0.000236989 0.000215598 0 0.000194033 0.000204491 0 0.000152997 0.000195665 0 0.000113463 0.000188959 0 7.50355e-05 0.000184251 0 3.73369e-05 0.000181459 0 0 0.000180534 0 0.0113721 0.00893432 0 0.00572938 0.00696341 0 0.00436189 0.00505823 0 0.00363289 0.00395793 0 0.00315103 0.00317032 0 0.00275698 0.00259341 0 0.00244011 0.00214899 0 0.00216318 0.00179999 0 0.00192619 0.00152186 0 0.00171652 0.00129675 0 0.00153275 0.00111332 0 0.00136942 0.000962125 0 0.00122459 0.000836845 0 0.00109529 0.000732164 0 0.000979705 0.000644284 0 0.000875933 0.000570068 0 0.000782505 0.00050715 0 0.000698057 0.0004536 0 0.000621447 0.000407912 0 0.000551654 0.000368858 0 0.000487793 0.00033546 0 0.000429076 0.000306922 0 0.000374807 0.000282598 0 0.000324363 0.000261965 0 0.000277181 0.000244595 0 0.000232754 0.000230145 0 0.000190615 0.000218337 0 0.000150333 0.000208951 0 0.000111505 0.000201818 0 7.3749e-05 0.000196809 0 3.66992e-05 0.000193839 0 0 0.000192854 0 0.0176422 0.0177469 0 0.00503935 0.0071885 0 0.00353748 0.00539684 0 0.00351976 0.00410722 0 0.00281198 0.00330913 0 0.00264661 0.00270116 0 0.00227496 0.0022419 0 0.00207495 0.00188175 0 0.00183266 0.00159256 0 0.00165231 0.00136014 0 0.00147392 0.00116895 0 0.0013239 0.00101205 0 0.00118506 0.000881165 0 0.00106295 0.000771986 0 0.000952052 0.000679955 0 0.000852707 0.000602239 0 0.000762666 0.000536192 0 0.000681182 0.000479947 0 0.000607004 0.000431883 0 0.000539307 0.00039077 0 0.000477227 0.000355574 0 0.000420055 0.000325479 0 0.000367131 0.000299809 0 0.000317871 0.000278022 0 0.000271744 0.000259671 0 0.000228266 0.000244399 0 0.000186992 0.000231914 0 0.000147508 0.000221987 0 0.000109428 0.000214441 0 7.23842e-05 0.000209142 0 3.60226e-05 0.000205998 0 0 0.000204957 0 </DataArray> 
</PointData> 
<Points> 
<DataArray type="Float32" NumberOfComponents="3"> 