<?xml version="1.0"?> 
<VTKFile type="StructuredGrid" version="0.1"> 
<StructuredGrid WholeExtent="0 31 0 31 0 0"> 
<Piece Extent="0 31 0 31 0 0"> 
<PointData>
<DataArray type="Float32" Name="B" format="ascii" NumberOfComponents="3"> 
-4.44955e-05 1.87038e-05 0 -1.53808e-05 4.88243e-06 0 -1.53921e-05 3.80413e-06 0 -1.35842e-05 1.61955e-06 0 -1.29992e-05 5.24952e-07 0 -1.22733e-05 -6.22698e-07 0 -1.16883e-05 -1.52042e-06 0 -1.11043e-05 -2.33889e-06 0 -1.0536e-05 -3.04518e-06 0 -9.97233e-06 -3.6713e-06 0 -9.41254e-06 -4.2195e-06 0 -8.85825e-06 -4.7004e-06 0 -8.31061e-06 -5.11996e-06 0 -7.77182e-06 -5.4849e-06 0 -7.24339e-06 -5.80093e-06 0 -6.72676e-06 -6.07352e-06 0 -6.22287e-06 -6.30763e-06 0 -5.73232e-06 -6.50785e-06 0 -5.25533e-06 -6.67831e-06 0 -4.79183e-06 -6.82277e-06 0 -4.34146e-06 -6.9446e-06 0 -3.90366e-06 -7.04678e-06 0 -3.47767e-06 -7.13196e-06 0 -3.0626e-06 -7.20245e-06 0 -2.65743e-06 -7.26024e-06 0 -2.26108e-06 -7.30706e-06 0 -1.87237e-06 -7.34434e-06 0 -1.4901e-06 -7.37328e-06 0 -1.11301e-06 -7.39483e-06 0 -7.39825e-07 -7.40973e-06 0 -3.69257e-07 -7.4185e-06 0 0 -7.42144e-06 0 -2.36609e-05 1.72811e-06 0 -1.88738e-05 4.6837e-06 0 -1.56579e-05 2.47843e-06 0 -1.44637e-05 1.33788e-06 0 -1.35054e-05 7.35718e-08 0 -1.27819e-05 -9.22983e-07 0 -1.21123e-05 -1.83878e-06 0 -1.14825e-05 -2.63329e-06 0 -1.08683e-05 -3.34022e-06 0 -1.02643e-05 -3.96111e-06 0 -9.66874e-06 -4.50686e-06 0 -9.08177e-06 -4.98365e-06 0 -8.50505e-06 -5.39861e-06 0 -7.9401e-06 -5.75796e-06 0 -7.38846e-06 -6.06774e-06 0 -6.85123e-06 -6.33353e-06 0 -6.32921e-06 -6.56052e-06 0 -5.82275e-06 -6.75345e-06 0 -5.33187e-06 -6.91665e-06 0 -4.8563e-06 -7.05402e-06 0 -4.39548e-06 -7.16902e-06 0 -3.94865e-06 -7.26476e-06 0 -3.5149e-06 -7.34396e-06 0 -3.09315e-06 -7.40898e-06 0 -2.68224e-06 -7.46186e-06 0 -2.28094e-06 -7.50437e-06 0 -1.88795e-06 -7.53797e-06 0 -1.50193e-06 -7.56388e-06 0 -1.12152e-06 -7.58305e-06 0 -7.45332e-07 -7.59625e-06 0 -3.7196e-07 -7.60399e-06 0 0 -7.60658e-06 0 -2.09365e-05 4.18918e-07 0 -1.86048e-05 2.53857e-06 0 -1.63615e-05 1.81543e-06 0 -1.50147e-05 7.38695e-07 0 -1.40475e-05 -3.14447e-07 0 -1.32511e-05 -1.29191e-06 0 -1.25341e-05 -2.16927e-06 0 -1.18557e-05 -2.95633e-06 0 -1.11982e-05 -3.65426e-06 0 -1.05546e-05 -4.27066e-06 0 -9.92262e-06 -4.81114e-06 0 -9.30285e-06 -5.2825e-06 0 -8.69649e-06 -5.69113e-06 0 -8.10508e-06 -6.04344e-06 0 -7.5299e-06 -6.34555e-06 0 -6.97191e-06 -6.60325e-06 0 -6.43165e-06 -6.82191e-06 0 -5.90928e-06 -7.00649e-06 0 -5.40459e-06 -7.16145e-06 0 -4.91708e-06 -7.29084e-06 0 -4.446e-06 -7.39825e-06 0 -3.99038e-06 -7.48687e-06 0 -3.54912e-06 -7.55949e-06 0 -3.12099e-06 -7.61852e-06 0 -2.70465e-06 -7.66607e-06 0 -2.29873e-06 -7.7039e-06 0 -1.90179e-06 -7.73352e-06 0 -1.51237e-06 -7.75615e-06 0 -1.12899e-06 -7.77277e-06 0 -7.50135e-07 -7.78413e-06 0 -3.7431e-07 -7.79076e-06 0 0 -7.79298e-06 0 -1.93256e-05 6.28584e-08 0 -1.83894e-05 1.3509e-06 0 -1.67509e-05 1.05434e-06 0 -1.55132e-05 1.96339e-07 0 -1.45371e-05 -7.5115e-07 0 -1.37056e-05 -1.67421e-06 0 -1.29458e-05 -2.52726e-06 0 -1.22241e-05 -3.29981e-06 0 -1.15248e-05 -3.98949e-06 0 -1.08418e-05 -4.59894e-06 0 -1.01735e-05 -5.13285e-06 0 -9.52051e-06 -5.59702e-06 0 -8.88418e-06 -5.99776e-06 0 -8.26596e-06 -6.34147e-06 0 -7.66702e-06 -6.63447e-06 0 -7.08812e-06 -6.88272e-06 0 -6.52959e-06 -7.09183e-06 0 -5.99136e-06 -7.26691e-06 0 -5.47299e-06 -7.41263e-06 0 -4.97374e-06 -7.53315e-06 0 -4.49264e-06 -7.63217e-06 0 -4.02851e-06 -7.71297e-06 0 -3.58006e-06 -7.7784e-06 0 -3.14587e-06 -7.83093e-06 0 -2.72445e-06 -7.87268e-06 0 -2.31427e-06 -7.90547e-06 0 -1.91375e-06 -7.9308e-06 0 -1.5213e-06 -7.94991e-06 0 -1.13531e-06 -7.96379e-06 0 -7.5418e-07 -7.97318e-06 0 -3.76281e-07 -7.97863e-06 0 0 -7.98044e-06 0 -1.88232e-05 3.94886e-08 0 -1.81986e-05 6.21258e-07 0 -1.70444e-05 4.0279e-07 0 -1.59429e-05 -3.26628e-07 0 -1.49941e-05 -1.19526e-06 0 -1.41426e-05 -2.07514e-06 0 -1.33485e-05 -2.9052e-06 0 -1.25871e-05 -3.66435e-06 0 -1.18475e-05 -4.34476e-06 0 -1.11254e-05 -4.94622e-06 0 -1.04206e-05 -5.47202e-06 0 -9.73401e-06 -5.92744e-06 0 -9.06733e-06 -6.31866e-06 0 -8.422e-06 -6.6522e-06 0 -7.7991e-06 -6.93458e-06 0 -7.19921e-06 -7.17199e-06 0 -6.62244e-06 -7.37024e-06 0 -6.06847e-06 -7.53468e-06 0 -5.5366e-06 -7.6701e-06 0 -5.02586e-06 -7.78081e-06 0 -4.53503e-06 -7.87063e-06 0 -4.06272e-06 -7.9429e-06 0 -3.60743e-06 -8.00052e-06 0 -3.16755e-06 -8.04601e-06 0 -2.74144e-06 -8.08153e-06 0 -2.32739e-06 -8.1089e-06 0 -1.92369e-06 -8.12963e-06 0 -1.52861e-06 -8.14498e-06 0 -1.14043e-06 -8.15592e-06 0 -7.57416e-07 -8.16322e-06 0 -3.77848e-07 -8.1674e-06 0 0 -8.16878e-06 0 -1.85551e-05 1.29919e-08 0 -1.81698e-05 1.63955e-07 0 -1.72972e-05 -1.38251e-07 0 -1.6338e-05 -8.1469e-07 0 -1.54259e-05 -1.63931e-06 0 -1.45663e-05 -2.48881e-06 0 -1.37432e-05 -3.3013e-06 0 -1.29449e-05 -4.04871e-06 0 -1.21658e-05 -4.7199e-06 0 -1.14048e-05 -5.31248e-06 0 -1.06631e-05 -5.82885e-06 0 -9.94251e-06 -6.27394e-06 0 -9.24511e-06 -6.654e-06 0 -8.57241e-06 -6.97574e-06 0 -7.92541e-06 -7.24593e-06 0 -7.30451e-06 -7.47103e-06 0 -6.70958e-06 -7.65711e-06 0 -6.14004e-06 -7.80968e-06 0 -5.59492e-06 -7.93373e-06 0 -5.07299e-06 -8.0337e-06 0 -4.57278e-06 -8.11347e-06 0 -4.09267e-06 -8.17647e-06 0 -3.63094e-06 -8.22566e-06 0 -3.1858e-06 -8.26358e-06 0 -2.75541e-06 -8.29241e-06 0 -2.33792e-06 -8.31397e-06 0 -1.93147e-06 -8.3298e-06 0 -1.5342e-06 -8.34113e-06 0 -1.14425e-06 -8.34895e-06 0 -7.59792e-07 -8.35402e-06 0 -3.78984e-07 -8.35686e-06 0 0 -8.35779e-06 0 -1.85409e-05 7.49449e-09 0 -1.8254e-05 -1.58305e-07 0 -1.75659e-05 -5.8358e-07 0 -1.67184e-05 -1.26833e-06 0 -1.58449e-05 -2.07789e-06 0 -1.4981e-05 -2.91257e-06 0 -1.4132e-05 -3.71395e-06 0 -1.3298e-05 -4.45237e-06 0 -1.24796e-05 -5.11483e-06 0 -1.16794e-05 -5.6979e-06 0 -1.09002e-05 -6.20355e-06 0 -1.01452e-05 -6.63675e-06 0 -9.41668e-06 -7.00394e-06 0 -8.71637e-06 -7.31218e-06 0 -8.04516e-06 -7.56855e-06 0 -7.40329e-06 -7.77984e-06 0 -6.79035e-06 -7.95234e-06 0 -6.20548e-06 -8.09181e-06 0 -5.64743e-06 -8.20338e-06 0 -5.11468e-06 -8.29161e-06 0 -4.60549e-06 -8.36049e-06 0 -4.11802e-06 -8.41348e-06 0 -3.6503e-06 -8.4536e-06 0 -3.20035e-06 -8.48341e-06 0 -2.76615e-06 -8.50509e-06 0 -2.34569e-06 -8.52047e-06 0 -1.93695e-06 -8.53107e-06 0 -1.53795e-06 -8.53815e-06 0 -1.1467e-06 -8.54267e-06 0 -7.61255e-07 -8.54538e-06 0 -3.79664e-07 -8.5468e-06 0 0 -8.54724e-06 0 -1.86664e-05 3.11764e-09 0 -1.84441e-05 -4.02437e-07 0 -1.78692e-05 -9.61758e-07 0 -1.71037e-05 -1.69111e-06 0 -1.6261e-05 -2.51099e-06 0 -1.5392e-05 -3.34517e-06 0 -1.45173e-05 -4.1427e-06 0 -1.36472e-05 -4.87524e-06 0 -1.2789e-05 -5.52975e-06 0 -1.19486e-05 -6.10277e-06 0 -1.11314e-05 -6.59644e-06 0 -1.03412e-05 -7.0161e-06 0 -9.58118e-06 -7.36866e-06 0 -8.85302e-06 -7.66161e-06 0 -8.15756e-06 -7.90245e-06 0 -7.49481e-06 -8.09833e-06 0 -6.86409e-06 -8.25583e-06 0 -6.26421e-06 -8.3809e-06 0 -5.69361e-06 -8.47885e-06 0 -5.15047e-06 -8.55435e-06 0 -4.63278e-06 -8.61146e-06 0 -4.13842e-06 -8.6537e-06 0 -3.66522e-06 -8.68411e-06 0 -3.21096e-06 -8.70525e-06 0 -2.77346e-06 -8.71932e-06 0 -2.35053e-06 -8.72814e-06 0 -1.94001e-06 -8.73322e-06 0 -1.53977e-06 -8.73579e-06 0 -1.1477e-06 -8.73682e-06 0 -7.61753e-07 -8.73704e-06 0 -3.79863e-07 -8.73697e-06 0 0 -8.73691e-06 0 -1.89115e-05 1.07793e-09 0 -1.87234e-05 -6.02301e-07 0 -1.82185e-05 -1.29489e-06 0 -1.75068e-05 -2.09108e-06 0 -1.66832e-05 -2.94092e-06 0 -1.58042e-05 -3.78738e-06 0 -1.49013e-05 -4.58803e-06 0 -1.39934e-05 -5.31784e-06 0 -1.30938e-05 -5.96522e-06 0 -1.22121e-05 -6.52758e-06 0 -1.13557e-05 -7.00791e-06 0 -1.05297e-05 -7.41228e-06 0 -9.73768e-06 -7.74829e-06 0 -8.98146e-06 -8.02407e-06 0 -8.26177e-06 -8.2476e-06 0 -7.57831e-06 -8.42641e-06 0 -6.93011e-06 -8.56741e-06 0 -6.31561e-06 -8.67676e-06 0 -5.73292e-06 -8.75992e-06 0 -5.1799e-06 -8.82166e-06 0 -4.65423e-06 -8.86613e-06 0 -4.15354e-06 -8.89686e-06 0 -3.67539e-06 -8.91691e-06 0 -3.21739e-06 -8.92885e-06 0 -2.77713e-06 -8.93486e-06 0 -2.35227e-06 -8.93674e-06 0 -1.94049e-06 -8.93599e-06 0 -1.53954e-06 -8.93382e-06 0 -1.14718e-06 -8.93117e-06 0 -7.61238e-07 -8.92877e-06 0 -3.79556e-07 -8.92713e-06 0 0 -8.92653e-06 0 -1.92518e-05 -3.37112e-10 0 -1.90837e-05 -7.76612e-07 0 -1.86186e-05 -1.60037e-06 0 -1.79369e-05 -2.47716e-06 0 -1.71186e-05 -3.37189e-06 0 -1.62222e-05 -4.24135e-06 0 -1.52865e-05 -5.05136e-06 0 -1.43376e-05 -5.78128e-06 0 -1.33941e-05 -6.4221e-06 0 -1.24692e-05 -6.97303e-06 0 -1.15723e-05 -7.43844e-06 0 -1.07097e-05 -7.82558e-06 0 -9.88517e-06 -8.14302e-06 0 -9.10075e-06 -8.3996e-06 0 -8.35688e-06 -8.60392e-06 0 -7.65299e-06 -8.76395e-06 0 -6.98768e-06 -8.88689e-06 0 -6.35905e-06 -8.97915e-06 0 -5.76481e-06 -9.04632e-06 0 -5.20248e-06 -9.09328e-06 0 -4.66944e-06 -9.12421e-06 0 -4.16301e-06 -9.14268e-06 0 -3.68054e-06 -9.15173e-06 0 -3.21938e-06 -9.15392e-06 0 -2.77696e-06 -9.15141e-06 0 -2.35074e-06 -9.14598e-06 0 -1.93828e-06 -9.1391e-06 0 -1.53716e-06 -9.13195e-06 0 -1.14505e-06 -9.12545e-06 0 -7.59658e-07 -9.12031e-06 0 -3.78718e-07 -9.11702e-06 0 0 -9.11587e-06 0 -1.9678e-05 -1.33507e-09 0 -1.95194e-05 -9.37335e-07 0 -1.90727e-05 -1.89141e-06 0 -1.84005e-05 -2.85828e-06 0 -1.75732e-05 -3.80927e-06 0 -1.66498e-05 -4.71045e-06 0 -1.56747e-05 -5.53498e-06 0 -1.46803e-05 -6.26722e-06 0 -1.36896e-05 -6.90161e-06 0 -1.27192e-05 -7.43996e-06 0 -1.17803e-05 -7.88861e-06 0 -1.088e-05 -8.25636e-06 0 -1.00226e-05 -8.55297e-06 0 -9.20986e-06 -8.78821e-06 0 -8.44199e-06 -8.97131e-06 0 -7.718e-06 -9.11074e-06 0 -7.03608e-06 -9.21403e-06 0 -6.39388e-06 -9.28779e-06 0 -5.78873e-06 -9.33777e-06 0 -5.21775e-06 -9.3689e-06 0 -4.67799e-06 -9.38539e-06 0 -4.1665e-06 -9.39084e-06 0 -3.68036e-06 -9.38824e-06 0 -3.21669e-06 -9.38016e-06 0 -2.77273e-06 -9.36868e-06 0 -2.34578e-06 -9.35558e-06 0 -1.93322e-06 -9.34227e-06 0 -1.53253e-06 -9.3299e-06 0 -1.14125e-06 -9.31938e-06 0 -7.56966e-07 -9.31138e-06 0 -3.77326e-07 -9.30637e-06 0 0 -9.30463e-06 0 -2.01843e-05 -2.13807e-09 0 -2.00282e-05 -1.09261e-06 0 -1.95832e-05 -2.17846e-06 0 -1.89026e-05 -3.24305e-06 0 -1.80514e-05 -4.25917e-06 0 -1.709e-05 -5.19894e-06 0 -1.60676e-05 -6.04192e-06 0 -1.50218e-05 -6.77782e-06 0 -1.398e-05 -7.4053e-06 0 -1.29613e-05 -7.92942e-06 0 -1.19786e-05 -8.35907e-06 0 -1.10397e-05 -8.70496e-06 0 -1.01488e-05 -8.97829e-06 0 -9.30772e-06 -9.18985e-06 0 -8.5161e-06 -9.34962e-06 0 -7.77248e-06 -9.46656e-06 0 -7.07454e-06 -9.54853e-06 0 -6.41945e-06 -9.60236e-06 0 -5.8041e-06 -9.6339e-06 0 -5.22521e-06 -9.64815e-06 0 -4.67948e-06 -9.64932e-06 0 -4.16367e-06 -9.64098e-06 0 -3.67456e-06 -9.62612e-06 0 -3.20909e-06 -9.60722e-06 0 -2.76426e-06 -9.58635e-06 0 -2.33722e-06 -9.56521e-06 0 -1.92521e-06 -9.54519e-06 0 -1.52556e-06 -9.52738e-06 0 -1.1357e-06 -9.51267e-06 0 -7.53115e-07 -9.50169e-06 0 -3.75356e-07 -9.49489e-06 0 0 -9.49255e-06 0 -2.07694e-05 -2.84589e-09 0 -2.061e-05 -1.24858e-06 0 -2.01528e-05 -2.47034e-06 0 -1.94471e-05 -3.63976e-06 0 -1.85569e-05 -4.72826e-06 0 -1.75452e-05 -5.71185e-06 0 -1.64661e-05 -6.57588e-06 0 -1.53622e-05 -7.31574e-06 0 -1.42643e-05 -7.93497e-06 0 -1.31942e-05 -8.44259e-06 0 -1.21658e-05 -8.85053e-06 0 -1.11872e-05 -9.17174e-06 0 -1.02626e-05 -9.41906e-06 0 -9.39318e-06 -9.60443e-06 0 -8.57819e-06 -9.73862e-06 0 -7.81552e-06 -9.8311e-06 0 -7.10228e-06 -9.89005e-06 0 -6.43509e-06 -9.92248e-06 0 -5.81035e-06 -9.93434e-06 0 -5.22438e-06 -9.93065e-06 0 -4.67351e-06 -9.91561e-06 0 -4.15415e-06 -9.89274e-06 0 -3.66286e-06 -9.86498e-06 0 -3.19632e-06 -9.83475e-06 0 -2.75135e-06 -9.80406e-06 0 -2.32491e-06 -9.77455e-06 0 -1.9141e-06 -9.74754e-06 0 -1.51614e-06 -9.72408e-06 0 -1.12833e-06 -9.70501e-06 0 -7.48061e-07 -9.69094e-06 0 -3.72786e-07 -9.68229e-06 0 0 -9.67932e-06 0 -2.14347e-05 -3.51843e-09 0 -2.1267e-05 -1.4104e-06 0 -2.07848e-05 -2.77503e-06 0 -2.00377e-05 -4.05671e-06 0 -1.90924e-05 -5.22377e-06 0 -1.80169e-05 -6.25492e-06 0 -1.68706e-05 -7.14114e-06 0 -1.57007e-05 -7.88401e-06 0 -1.45416e-05 -8.49269e-06 0 -1.34166e-05 -8.98078e-06 0 -1.23404e-05 -9.36371e-06 0 -1.13211e-05 -9.65702e-06 0 -1.03625e-05 -9.87532e-06 0 -9.46502e-06 -1.00318e-05 0 -8.62719e-06 -1.0138e-05 0 -7.84621e-06 -1.0204e-05 0 -7.11851e-06 -1.02382e-05 0 -6.44012e-06 -1.02477e-05 0 -5.80692e-06 -1.02386e-05 0 -5.21478e-06 -1.0216e-05 0 -4.65966e-06 -1.01838e-05 0 -4.13763e-06 -1.01457e-05 0 -3.64499e-06 -1.01044e-05 0 -3.17817e-06 -1.00624e-05 0 -2.73381e-06 -1.00215e-05 0 -2.3087e-06 -9.98325e-06 0 -1.8998e-06 -9.94899e-06 0 -1.50419e-06 -9.91968e-06 0 -1.11908e-06 -9.8961e-06 0 -7.41759e-07 -9.87883e-06 0 -3.69596e-07 -9.86827e-06 0 0 -9.86465e-06 0 -2.21844e-05 -4.20126e-09 0 -2.20036e-05 -1.58289e-06 0 -2.14834e-05 -3.10036e-06 0 -2.06779e-05 -4.50251e-06 0 -1.96603e-05 -5.75354e-06 0 -1.85059e-05 -6.83453e-06 0 -1.72806e-05 -7.7425e-06 0 -1.60363e-05 -8.48601e-06 0 -1.48101e-05 -9.08069e-06 0 -1.36266e-05 -9.54534e-06 0 -1.25006e-05 -9.89934e-06 0 -1.14398e-05 -1.01611e-05 0 -1.04471e-05 -1.0347e-05 0 -9.52191e-06 -1.04717e-05 0 -8.66197e-06 -1.05475e-05 0 -7.86357e-06 -1.05848e-05 0 -7.12241e-06 -1.05924e-05 0 -6.43386e-06 -1.05776e-05 0 -5.79324e-06 -1.05463e-05 0 -5.19595e-06 -1.05036e-05 0 -4.63754e-06 -1.04535e-05 0 -4.11378e-06 -1.03994e-05 0 -3.62067e-06 -1.03441e-05 0 -3.15442e-06 -1.02897e-05 0 -2.71146e-06 -1.02382e-05 0 -2.28844e-06 -1.01909e-05 0 -1.88217e-06 -1.01492e-05 0 -1.48962e-06 -1.01138e-05 0 -1.10788e-06 -1.00856e-05 0 -7.34172e-07 -1.0065e-05 0 -3.65766e-07 -1.00525e-05 0 0 -1.00482e-05 0 -2.30252e-05 -4.93225e-09 0 -2.28258e-05 -1.771e-06 0 -2.22537e-05 -3.45459e-06 0 -2.13711e-05 -4.98648e-06 0 -2.02621e-05 -6.32623e-06 0 -1.90122e-05 -7.45777e-06 0 -1.7695e-05 -8.38525e-06 0 -1.6367e-05 -9.12542e-06 0 -1.50677e-05 -9.70131e-06 0 -1.38221e-05 -1.01376e-05 0 -1.26445e-05 -1.04581e-05 0 -1.15415e-05 -1.0684e-05 0 -1.05147e-05 -1.0834e-05 0 -9.56249e-06 -1.09238e-05 0 -8.68135e-06 -1.09666e-05 0 -7.86663e-06 -1.09731e-05 0 -7.11317e-06 -1.09523e-05 0 -6.41563e-06 -1.09116e-05 0 -5.76874e-06 -1.08569e-05 0 -5.1674e-06 -1.07931e-05 0 -4.60677e-06 -1.07242e-05 0 -4.08228e-06 -1.06535e-05 0 -3.58964e-06 -1.05835e-05 0 -3.12485e-06 -1.05163e-05 0 -2.68414e-06 -1.04538e-05 0 -2.26401e-06 -1.03973e-05 0 -1.86112e-06 -1.03478e-05 0 -1.47235e-06 -1.03062e-05 0 -1.09469e-06 -1.02732e-05 0 -7.2526e-07 -1.02492e-05 0 -3.61277e-07 -1.02347e-05 0 0 -1.02297e-05 0 -2.39662e-05 -5.75361e-09 0 -2.37423e-05 -1.98028e-06 0 -2.3102e-05 -3.84701e-06 0 -2.21209e-05 -5.51913e-06 0 -2.08989e-05 -6.95154e-06 0 -1.95348e-05 -8.13248e-06 0 -1.81116e-05 -9.07513e-06 0 -1.66902e-05 -9.80608e-06 0 -1.53116e-05 -1.03569e-05 0 -1.40004e-05 -1.07589e-05 0 -1.27696e-05 -1.10404e-05 0 -1.1624e-05 -1.1226e-05 0 -1.05636e-05 -1.13361e-05 0 -9.58529e-06 -1.13877e-05 0 -8.68414e-06 -1.13946e-05 0 -7.85439e-06 -1.13681e-05 0 -7.08996e-06 -1.13171e-05 0 -6.38475e-06 -1.1249e-05 0 -5.73287e-06 -1.11696e-05 0 -5.1287e-06 -1.10838e-05 0 -4.56699e-06 -1.09953e-05 0 -4.04283e-06 -1.09073e-05 0 -3.55167e-06 -1.08221e-05 0 -3.08927e-06 -1.07418e-05 0 -2.65169e-06 -1.0668e-05 0 -2.23527e-06 -1.06018e-05 0 -1.83655e-06 -1.05444e-05 0 -1.4523e-06 -1.04964e-05 0 -1.07944e-06 -1.04585e-05 0 -7.14992e-07 -1.04311e-05 0 -3.56112e-07 -1.04144e-05 0 0 -1.04087e-05 0 -2.50202e-05 -6.71743e-09 0 -2.47641e-05 -2.21738e-06 0 -2.4036e-05 -4.2886e-06 0 -2.29308e-05 -6.11263e-06 0 -2.15706e-05 -7.64045e-06 0 -2.00717e-05 -8.86728e-06 0 -1.85272e-05 -9.81824e-06 0 -1.70023e-05 -1.05319e-05 0 -1.55384e-05 -1.10498e-05 0 -1.41585e-05 -1.14103e-05 0 -1.28732e-05 -1.16467e-05 0 -1.16851e-05 -1.17867e-05 0 -1.0592e-05 -1.18527e-05 0 -9.5888e-06 -1.18627e-05 0 -8.66908e-06 -1.1831e-05 0 -7.82584e-06 -1.17692e-05 0 -7.05197e-06 -1.16861e-05 0 -6.34057e-06 -1.15892e-05 0 -5.68509e-06 -1.1484e-05 0 -5.0794e-06 -1.13752e-05 0 -4.51784e-06 -1.12663e-05 0 -3.99515e-06 -1.11604e-05 0 -3.50652e-06 -1.10595e-05 0 -3.04749e-06 -1.09656e-05 0 -2.61396e-06 -1.08801e-05 0 -2.20211e-06 -1.08042e-05 0 -1.80837e-06 -1.07386e-05 0 -1.42942e-06 -1.06841e-05 0 -1.06208e-06 -1.06412e-05 0 -7.03335e-07 -1.06102e-05 0 -3.50258e-07 -1.05914e-05 0 0 -1.0585e-05 0 -2.62033e-05 -7.90043e-09 0 -2.59056e-05 -2.49064e-06 0 -2.50647e-05 -4.79283e-06 0 -2.38041e-05 -6.78146e-06 0 -2.22763e-05 -8.40554e-06 0 -2.06193e-05 -9.67164e-06 0 -1.89372e-05 -1.0621e-05 0 -1.72987e-05 -1.13069e-05 0 -1.57439e-05 -1.1782e-05 0 -1.42928e-05 -1.20927e-05 0 -1.29525e-05 -1.22771e-05 0 -1.17225e-05 -1.23659e-05 0 -1.05979e-05 -1.23833e-05 0 -9.57144e-06 -1.2348e-05 0 -8.63492e-06 -1.22749e-05 0 -7.77997e-06 -1.21755e-05 0 -6.99839e-06 -1.20586e-05 0 -6.28243e-06 -1.19314e-05 0 -5.62488e-06 -1.17993e-05 0 -5.0191e-06 -1.16665e-05 0 -4.45898e-06 -1.15366e-05 0 -3.93898e-06 -1.14121e-05 0 -3.45399e-06 -1.12952e-05 0 -2.99936e-06 -1.11873e-05 0 -2.57083e-06 -1.10899e-05 0 -2.16443e-06 -1.10039e-05 0 -1.77651e-06 -1.093e-05 0 -1.40364e-06 -1.08689e-05 0 -1.04259e-06 -1.08208e-05 0 -6.90265e-07 -1.07863e-05 0 -3.43701e-07 -1.07654e-05 0 0 -1.07582e-05 0 -2.75371e-05 -9.41392e-09 0 -2.71847e-05 -2.81096e-06 0 -2.61988e-05 -5.3768e-06 0 -2.47438e-05 -7.54319e-06 0 -2.30134e-05 -9.26124e-06 0 -2.11723e-05 -1.05558e-05 0 -1.93357e-05 -1.14898e-05 0 -1.75738e-05 -1.21346e-05 0 -1.59232e-05 -1.25554e-05 0 -1.43991e-05 -1.28066e-05 0 -1.30041e-05 -1.29313e-05 0 -1.17336e-05 -1.29629e-05 0 -1.05793e-05 -1.29269e-05 0 -9.53162e-06 -1.28428e-05 0 -8.58041e-06 -1.27254e-05 0 -7.71579e-06 -1.25861e-05 0 -6.92843e-06 -1.24337e-05 0 -6.20972e-06 -1.22748e-05 0 -5.55177e-06 -1.21146e-05 0 -4.9474e-06 -1.19572e-05 0 -4.39013e-06 -1.18055e-05 0 -3.87407e-06 -1.1662e-05 0 -3.39388e-06 -1.15285e-05 0 -2.94473e-06 -1.14064e-05 0 -2.52217e-06 -1.12969e-05 0 -2.12214e-06 -1.12006e-05 0 -1.74089e-06 -1.11183e-05 0 -1.37492e-06 -1.10503e-05 0 -1.02092e-06 -1.09971e-05 0 -6.75758e-07 -1.09589e-05 0 -3.36431e-07 -1.09358e-05 0 0 -1.0928e-05 0 -2.90495e-05 -1.14526e-08 0 -2.86247e-05 -3.19312e-06 0 -2.74505e-05 -6.06274e-06 0 -2.57514e-05 -8.41932e-06 0 -2.37769e-05 -1.02241e-05 0 -2.17229e-05 -1.15308e-05 0 -1.97148e-05 -1.24312e-05 0 -1.78206e-05 -1.30182e-05 0 -1.60706e-05 -1.3371e-05 0 -1.44731e-05 -1.3552e-05 0 -1.30246e-05 -1.36087e-05 0 -1.17155e-05 -1.35768e-05 0 -1.05341e-05 -1.34825e-05 0 -9.46773e-06 -1.33458e-05 0 -8.50429e-06 -1.31813e-05 0 -7.63233e-06 -1.3e-05 0 -6.84136e-06 -1.28103e-05 0 -6.12186e-06 -1.26185e-05 0 -5.46529e-06 -1.24293e-05 0 -4.86396e-06 -1.22463e-05 0 -4.311e-06 -1.20723e-05 0 -3.80021e-06 -1.19094e-05 0 -3.32604e-06 -1.1759e-05 0 -2.88346e-06 -1.16224e-05 0 -2.46789e-06 -1.15005e-05 0 -2.07518e-06 -1.13938e-05 0 -1.70147e-06 -1.13029e-05 0 -1.3432e-06 -1.12281e-05 0 -9.97038e-07 -1.11697e-05 0 -6.59797e-07 -1.11278e-05 0 -3.28438e-07 -1.11025e-05 0 0 -1.10939e-05 0 -3.07783e-05 -1.43276e-08 0 -3.02555e-05 -3.65778e-06 0 -2.88335e-05 -6.88017e-06 0 -2.68263e-05 -9.43644e-06 0 -2.45584e-05 -1.1313e-05 0 -2.22608e-05 -1.26079e-05 0 -2.00646e-05 -1.3451e-05 0 -1.80309e-05 -1.39603e-05 0 -1.61797e-05 -1.42294e-05 0 -1.45098e-05 -1.43283e-05 0 -1.30102e-05 -1.43082e-05 0 -1.16656e-05 -1.4206e-05 0 -1.04601e-05 -1.40487e-05 0 -9.37817e-06 -1.38557e-05 0 -8.40537e-06 -1.36413e-05 0 -7.52869e-06 -1.3416e-05 0 -6.73646e-06 -1.31874e-05 0 -6.01831e-06 -1.29615e-05 0 -5.36504e-06 -1.27424e-05 0 -4.76847e-06 -1.25332e-05 0 -4.22135e-06 -1.23364e-05 0 -3.71723e-06 -1.21536e-05 0 -3.25032e-06 -1.1986e-05 0 -2.81545e-06 -1.18347e-05 0 -2.40792e-06 -1.17002e-05 0 -2.02347e-06 -1.15831e-05 0 -1.65819e-06 -1.14835e-05 0 -1.30848e-06 -1.14018e-05 0 -9.70934e-07 -1.13381e-05 0 -6.4237e-07 -1.12925e-05 0 -3.19717e-07 -1.1265e-05 0 0 -1.12556e-05 0 -3.27737e-05 -1.86108e-08 0 -3.21159e-05 -4.23492e-06 0 -3.0362e-05 -7.86912e-06 0 -2.79637e-05 -1.06273e-05 0 -2.53449e-05 -1.25487e-05 0 -2.27717e-05 -1.37982e-05 0 -2.0373e-05 -1.45542e-05 0 -1.81952e-05 -1.49623e-05 0 -1.62433e-05 -1.51302e-05 0 -1.4504e-05 -1.51342e-05 0 -1.29571e-05 -1.5028e-05 0 -1.1581e-05 -1.4849e-05 0 -1.03554e-05 -1.46237e-05 0 -9.2614e-06 -1.43709e-05 0 -8.28248e-06 -1.4104e-05 0 -7.40399e-06 -1.38326e-05 0 -6.6131e-06 -1.35639e-05 0 -5.89859e-06 -1.33028e-05 0 -5.25065e-06 -1.30529e-05 0 -4.66064e-06 -1.2817e-05 0 -4.12099e-06 -1.25969e-05 0 -3.62497e-06 -1.23939e-05 0 -3.16662e-06 -1.2209e-05 0 -2.74062e-06 -1.20428e-05 0 -2.34219e-06 -1.18956e-05 0 -1.96698e-06 -1.17679e-05 0 -1.61104e-06 -1.16597e-05 0 -1.27071e-06 -1.1571e-05 0 -9.42592e-07 -1.1502e-05 0 -6.23468e-07 -1.14526e-05 0 -3.10265e-07 -1.14229e-05 0 0 -1.14128e-05 0 -3.51093e-05 -2.56036e-08 0 -3.42563e-05 -4.9695e-06 0 -3.20496e-05 -9.08467e-06 0 -2.91517e-05 -1.20319e-05 0 -2.61169e-05 -1.39536e-05 0 -2.32373e-05 -1.51119e-05 0 -2.06254e-05 -1.57439e-05 0 -1.83028e-05 -1.60239e-05 0 -1.62539e-05 -1.60715e-05 0 -1.44502e-05 -1.59674e-05 0 -1.28614e-05 -1.57658e-05 0 -1.1459e-05 -1.55034e-05 0 -1.02178e-05 -1.52055e-05 0 -9.11597e-06 -1.48895e-05 0 -8.13458e-06 -1.45677e-05 0 -7.25746e-06 -1.42486e-05 0 -6.4707e-06 -1.39384e-05 0 -5.76228e-06 -1.36412e-05 0 -5.12182e-06 -1.336e-05 0 -4.54027e-06 -1.30968e-05 0 -4.00975e-06 -1.28531e-05 0 -3.52331e-06 -1.26297e-05 0 -3.07485e-06 -1.24273e-05 0 -2.65893e-06 -1.22461e-05 0 -2.27067e-06 -1.20862e-05 0 -1.90569e-06 -1.19478e-05 0 -1.55999e-06 -1.18309e-05 0 -1.2299e-06 -1.17353e-05 0 -9.12008e-07 -1.1661e-05 0 -6.03091e-07 -1.16079e-05 0 -3.0008e-07 -1.15759e-05 0 0 -1.1565e-05 0 -3.78808e-05 -3.66504e-08 0 -3.67457e-05 -5.93246e-06 0 -3.39041e-05 -1.06034e-05 0 -3.03675e-05 -1.36978e-05 0 -2.6846e-05 -1.55497e-05 0 -2.36343e-05 -1.65565e-05 0 -2.08048e-05 -1.70209e-05 0 -1.83419e-05 -1.7143e-05 0 -1.62032e-05 -1.70505e-05 0 -1.43428e-05 -1.68248e-05 0 -1.27192e-05 -1.65186e-05 0 -1.12968e-05 -1.61665e-05 0 -1.00456e-05 -1.57916e-05 0 -8.94053e-06 -1.54095e-05 0 -7.9607e-06 -1.50307e-05 0 -7.08843e-06 -1.46624e-05 0 -6.30879e-06 -1.43096e-05 0 -5.60905e-06 -1.39756e-05 0 -4.97831e-06 -1.36625e-05 0 -4.40719e-06 -1.33718e-05 0 -3.88752e-06 -1.31042e-05 0 -3.4122e-06 -1.28603e-05 0 -2.97498e-06 -1.26402e-05 0 -2.57033e-06 -1.2444e-05 0 -2.19335e-06 -1.22714e-05 0 -1.83959e-06 -1.21224e-05 0 -1.50505e-06 -1.19968e-05 0 -1.18605e-06 -1.18942e-05 0 -8.79185e-07 -1.18146e-05 0 -5.81241e-07 -1.17578e-05 0 -2.89165e-07 -1.17236e-05 0 0 -1.1712e-05 0 -4.12697e-05 -6.14909e-08 0 -3.96686e-05 -7.23869e-06 0 -3.59218e-05 -1.25327e-05 0 -3.15689e-05 -1.56775e-05 0 -2.74934e-05 -1.73561e-05 0 -2.39343e-05 -1.81352e-05 0 -2.08926e-05 -1.83824e-05 0 -1.83003e-05 -1.83151e-05 0 -1.60833e-05 -1.80622e-05 0 -1.41766e-05 -1.77019e-05 0 -1.25271e-05 -1.72827e-05 0 -1.1092e-05 -1.68352e-05 0 -9.83695e-06 -1.63795e-05 0 -8.73393e-06 -1.59286e-05 0 -7.76004e-06 -1.5491e-05 0 -6.89633e-06 -1.50723e-05 0 -6.12697e-06 -1.46761e-05 0 -5.43862e-06 -1.43047e-05 0 -4.81995e-06 -1.39594e-05 0 -4.26127e-06 -1.36409e-05 0 -3.75423e-06 -1.33494e-05 0 -3.29158e-06 -1.30849e-05 0 -2.86698e-06 -1.28472e-05 0 -2.47485e-06 -1.2636e-05 0 -2.11023e-06 -1.24508e-05 0 -1.7687e-06 -1.22912e-05 0 -1.44624e-06 -1.21569e-05 0 -1.13918e-06 -1.20475e-05 0 -8.44137e-07 -1.19626e-05 0 -5.57928e-07 -1.19021e-05 0 -2.77525e-07 -1.18657e-05 0 0 -1.18534e-05 0 -4.54462e-05 -9.45818e-08 0 -4.31606e-05 -9.09678e-06 0 -3.80599e-05 -1.50156e-05 0 -3.26892e-05 -1.80241e-05 0 -2.8007e-05 -1.93839e-05 0 -2.41046e-05 -1.98447e-05 0 -2.08684e-05 -1.9821e-05 0 -1.81655e-05 -1.95327e-05 0 -1.58863e-05 -1.91003e-05 0 -1.39464e-05 -1.85935e-05 0 -1.22816e-05 -1.80536e-05 0 -1.08425e-05 -1.75059e-05 0 -9.59051e-06 -1.69661e-05 0 -8.49519e-06 -1.64443e-05 0 -7.53195e-06 -1.59465e-05 0 -6.68074e-06 -1.54764e-05 0 -5.92497e-06 -1.50364e-05 0 -5.25083e-06 -1.46273e-05 0 -4.64664e-06 -1.42496e-05 0 -4.1025e-06 -1.39033e-05 0 -3.60989e-06 -1.35879e-05 0 -3.16148e-06 -1.33029e-05 0 -2.75089e-06 -1.30476e-05 0 -2.3725e-06 -1.28214e-05 0 -2.02136e-06 -1.26237e-05 0 -1.69305e-06 -1.24536e-05 0 -1.38358e-06 -1.23108e-05 0 -1.08931e-06 -1.21945e-05 0 -8.06887e-07 -1.21045e-05 0 -5.33168e-07 -1.20404e-05 0 -2.65166e-07 -1.20018e-05 0 0 -1.19887e-05 0 -5.11104e-05 -2.45974e-07 0 -4.73122e-05 -1.18606e-05 0 -4.02282e-05 -1.82431e-05 0 -3.36177e-05 -2.07705e-05 0 -2.83251e-05 -2.16327e-05 0 -2.41087e-05 -2.16709e-05 0 -2.07122e-05 -2.13247e-05 0 -1.79257e-05 -2.07853e-05 0 -1.56052e-05 -2.01566e-05 0 -1.3648e-05 -1.94931e-05 0 -1.19801e-05 -1.88263e-05 0 -1.05464e-05 -1.81744e-05 0 -9.30511e-06 -1.75482e-05 0 -8.2236e-06 -1.69539e-05 0 -7.27599e-06 -1.6395e-05 0 -6.44138e-06 -1.58731e-05 0 -5.70265e-06 -1.53888e-05 0 -5.04562e-06 -1.4942e-05 0 -4.45838e-06 -1.4532e-05 0 -3.93088e-06 -1.41579e-05 0 -3.45453e-06 -1.38187e-05 0 -3.02196e-06 -1.35133e-05 0 -2.62677e-06 -1.32407e-05 0 -2.26336e-06 -1.29998e-05 0 -1.9268e-06 -1.27896e-05 0 -1.61271e-06 -1.26093e-05 0 -1.31713e-06 -1.2458e-05 0 -1.03649e-06 -1.2335e-05 0 -7.67467e-07 -1.22399e-05 0 -5.06981e-07 -1.21722e-05 0 -2.52102e-07 -1.21315e-05 0 0 -1.21177e-05 0 -5.82758e-05 -3.91333e-07 0 -5.24498e-05 -1.63572e-05 0 -4.21182e-05 -2.23461e-05 0 -3.42316e-05 -2.39337e-05 0 -2.83679e-05 -2.40725e-05 0 -2.3913e-05 -2.35915e-05 0 -2.0405e-05 -2.28742e-05 0 -1.75708e-05 -2.20597e-05 0 -1.52342e-05 -2.12211e-05 0 -1.32779e-05 -2.03933e-05 0 -1.16205e-05 -1.95951e-05 0 -1.02026e-05 -1.88364e-05 0 -8.98e-06 -1.81222e-05 0 -7.9187e-06 -1.74546e-05 0 -6.99191e-06 -1.68342e-05 0 -6.17815e-06 -1.62604e-05 0 -5.45999e-06 -1.5732e-05 0 -4.82302e-06 -1.52475e-05 0 -4.25523e-06 -1.48053e-05 0 -3.74651e-06 -1.44038e-05 0 -3.28826e-06 -1.40411e-05 0 -2.87312e-06 -1.37156e-05 0 -2.49473e-06 -1.34259e-05 0 -2.14752e-06 -1.31705e-05 0 -1.82664e-06 -1.29481e-05 0 -1.52775e-06 -1.27576e-05 0 -1.24696e-06 -1.25981e-05 0 -9.80767e-07 -1.24686e-05 0 -7.25917e-07 -1.23685e-05 0 -4.79397e-07 -1.22973e-05 0 -2.38344e-07 -1.22545e-05 0 0 -1.224e-05 0 -7.18813e-05 -2.36558e-06 0 -5.78966e-05 -2.37581e-05 0 -4.33964e-05 -2.73754e-05 0 -3.43172e-05 -2.74434e-05 0 -2.80764e-05 -2.66583e-05 0 -2.34831e-05 -2.55645e-05 0 -1.99328e-05 -2.44489e-05 0 -1.70934e-05 -2.33383e-05 0 -1.4769e-05 -2.22831e-05 0 -1.2834e-05 -2.12857e-05 0 -1.12013e-05 -2.0354e-05 0 -9.81026e-06 -1.94872e-05 0 -8.61478e-06 -1.86845e-05 0 -7.58036e-06 -1.79435e-05 0 -6.67968e-06 -1.72618e-05 0 -5.89114e-06 -1.66362e-05 0 -5.19711e-06 -1.60641e-05 0 -4.58319e-06 -1.55424e-05 0 -4.03736e-06 -1.50685e-05 0 -3.54956e-06 -1.46399e-05 0 -3.11125e-06 -1.42541e-05 0 -2.71512e-06 -1.3909e-05 0 -2.35491e-06 -1.36025e-05 0 -2.02513e-06 -1.33329e-05 0 -1.721e-06 -1.30986e-05 0 -1.43827e-06 -1.28983e-05 0 -1.17316e-06 -1.27307e-05 0 -9.22215e-07 -1.25948e-05 0 -6.82291e-07 -1.24899e-05 0 -4.50449e-07 -1.24153e-05 0 -2.23911e-07 -1.23705e-05 0 0 -1.23553e-05 0 -9.23082e-05 -9.57598e-06 0 -6.38723e-05 -3.71074e-05 0 -4.27917e-05 -3.22315e-05 0 -3.39261e-05 -3.15142e-05 0 -2.73177e-05 -2.9154e-05 0 -2.28219e-05 -2.76062e-05 0 -1.92804e-05 -2.59954e-05 0 -1.64898e-05 -2.46131e-05 0 -1.42081e-05 -2.33266e-05 0 -1.23146e-05 -2.2163e-05 0 -1.07226e-05 -2.10961e-05 0 -9.36915e-06 -2.01221e-05 0 -8.20963e-06 -1.92312e-05 0 -7.20869e-06 -1.84177e-05 0 -6.33958e-06 -1.76752e-05 0 -5.58056e-06 -1.69987e-05 0 -4.91428e-06 -1.63835e-05 0 -4.32639e-06 -1.58254e-05 0 -3.80503e-06 -1.53204e-05 0 -3.34028e-06 -1.48653e-05 0 -2.92371e-06 -1.4457e-05 0 -2.54817e-06 -1.40926e-05 0 -2.20749e-06 -1.37699e-05 0 -1.89633e-06 -1.34865e-05 0 -1.61001e-06 -1.32407e-05 0 -1.3444e-06 -1.30308e-05 0 -1.09582e-06 -1.28554e-05 0 -8.60915e-07 -1.27133e-05 0 -6.36648e-07 -1.26037e-05 0 -4.20179e-07 -1.25258e-05 0 -2.08823e-07 -1.2479e-05 0 0 -1.24632e-05 0 -0.00021244 -0.000101802 0 -4.96583e-05 -4.15191e-05 0 -4.41528e-05 -4.07949e-05 0 -3.1541e-05 -3.42184e-05 0 -2.65324e-05 -3.20971e-05 0 -2.1786e-05 -2.94232e-05 0 -1.84826e-05 -2.75732e-05 0 -1.57535e-05 -2.58314e-05 0 -1.35513e-05 -2.43512e-05 0 -1.17218e-05 -2.30119e-05 0 -1.01839e-05 -2.18165e-05 0 -8.88047e-06 -2.07356e-05 0 -7.76478e-06 -1.97589e-05 0 -6.80439e-06 -1.88739e-05 0 -5.97202e-06 -1.80722e-05 0 -5.24696e-06 -1.73459e-05 0 -4.61193e-06 -1.66887e-05 0 -4.05303e-06 -1.6095e-05 0 -3.55861e-06 -1.55599e-05 0 -3.11899e-06 -1.50791e-05 0 -2.72596e-06 -1.46489e-05 0 -2.37254e-06 -1.42659e-05 0 -2.05273e-06 -1.39274e-05 0 -1.76135e-06 -1.36307e-05 0 -1.49387e-06 -1.33738e-05 0 -1.2463e-06 -1.31546e-05 0 -1.01506e-06 -1.29717e-05 0 -7.96964e-07 -1.28237e-05 0 -5.89063e-07 -1.27095e-05 0 -3.88634e-07 -1.26285e-05 0 -1.93104e-07 -1.25798e-05 0 0 -1.25634e-05 0 </DataArray> 
</PointData> 
<Points> 
<DataArray type="Float32" NumberOfComponents="3"> 