<?xml version="1.0"?> 
<VTKFile type="StructuredGrid" version="0.1"> 
<StructuredGrid WholeExtent="0 31 0 31 0 0"> 
<Piece Extent="0 31 0 31 0 0"> 
<PointData>
<DataArray type="Float32" Name="B" format="ascii" NumberOfComponents="3"> 
0 8.23438e-07 0 -9.7424e-06 8.25952e-07 0 -1.93984e-05 8.33369e-07 0 -2.88822e-05 8.45751e-07 0 -3.81085e-05 8.63207e-07 0 -4.69939e-05 8.85887e-07 0 -5.54578e-05 9.13993e-07 0 -6.34236e-05 9.4778e-07 0 -7.08201e-05 9.87565e-07 0 -7.75829e-05 1.03373e-06 0 -8.36557e-05 1.08675e-06 0 -8.89904e-05 1.14718e-06 0 -9.35477e-05 1.21571e-06 0 -9.72971e-05 1.29315e-06 0 -0.000100216 1.38049e-06 0 -0.00010229 1.47897e-06 0 -0.00010351 1.59007e-06 0 -0.000103875 1.71569e-06 0 -0.000103388 1.85817e-06 0 -0.000102058 2.02061e-06 0 -9.98972e-05 2.20681e-06 0 -9.69222e-05 2.42257e-06 0 -9.31517e-05 2.67374e-06 0 -8.86086e-05 2.97422e-06 0 -8.33183e-05 3.32885e-06 0 -7.73134e-05 3.78702e-06 0 -7.06508e-05 4.31392e-06 0 -6.33843e-05 5.16468e-06 0 -5.57796e-05 5.95494e-06 0 -4.79736e-05 8.34804e-06 0 -4.23023e-05 9.49433e-06 0 -4.44955e-05 2.95814e-05 0 0 4.0784e-06 0 -9.7457e-06 4.06609e-06 0 -1.9405e-05 4.02997e-06 0 -2.8892e-05 3.97029e-06 0 -3.81213e-05 3.88755e-06 0 -4.70096e-05 3.78265e-06 0 -5.54761e-05 3.6569e-06 0 -6.3444e-05 3.51217e-06 0 -7.0842e-05 3.35084e-06 0 -7.76059e-05 3.17575e-06 0 -8.36791e-05 2.99011e-06 0 -8.90135e-05 2.79738e-06 0 -9.35697e-05 2.60113e-06 0 -9.73173e-05 2.40498e-06 0 -0.000100234 2.21256e-06 0 -0.000102304 2.02748e-06 0 -0.000103519 1.8534e-06 0 -0.000103879 1.69411e-06 0 -0.000103386 1.5537e-06 0 -0.000102048 1.43668e-06 0 -9.98772e-05 1.34832e-06 0 -9.68902e-05 1.29493e-06 0 -9.31049e-05 1.28467e-06 0 -8.85423e-05 1.32874e-06 0 -8.32269e-05 1.44289e-06 0 -7.71851e-05 1.65516e-06 0 -7.04707e-05 1.99934e-06 0 -6.31079e-05 2.58777e-06 0 -5.5374e-05 3.46651e-06 0 -4.70611e-05 5.40435e-06 0 -4.04261e-05 8.50564e-06 0 -2.36609e-05 2.53444e-05 0 0 7.33601e-06 0 -9.7586e-06 7.30888e-06 0 -1.94307e-05 7.2292e-06 0 -2.89303e-05 7.09739e-06 0 -3.81721e-05 6.91438e-06 0 -4.70722e-05 6.68173e-06 0 -5.55497e-05 6.40192e-06 0 -6.35276e-05 6.07841e-06 0 -7.09345e-05 5.71565e-06 0 -7.77057e-05 5.31894e-06 0 -8.37846e-05 4.89426e-06 0 -8.9123e-05 4.44796e-06 0 -9.36816e-05 3.98654e-06 0 -9.74298e-05 3.51641e-06 0 -0.000100345 3.04382e-06 0 -0.000102413 2.57477e-06 0 -0.000103624 2.11507e-06 0 -0.000103978 1.67044e-06 0 -0.000103477 1.24662e-06 0 -0.00010213 8.49604e-07 0 -9.99479e-05 4.85869e-07 0 -9.69469e-05 1.62677e-07 0 -9.31444e-05 -1.10841e-07 0 -8.856e-05 -3.23443e-07 0 -8.32153e-05 -4.56264e-07 0 -7.71349e-05 -4.85737e-07 0 -7.0352e-05 -3.53465e-07 0 -6.29124e-05 2.85297e-09 0 -5.49087e-05 8.27306e-07 0 -4.639e-05 2.40614e-06 0 -3.73957e-05 6.3499e-06 0 -2.09365e-05 1.61756e-05 0 0 1.05995e-05 0 -9.78109e-06 1.05575e-05 0 -1.94756e-05 1.04342e-05 0 -2.89974e-05 1.02302e-05 0 -3.82607e-05 9.94674e-06 0 -4.71817e-05 9.58608e-06 0 -5.56789e-05 9.15183e-06 0 -6.36748e-05 8.64904e-06 0 -7.10976e-05 8.08425e-06 0 -7.78825e-05 7.46526e-06 0 -8.39724e-05 6.80083e-06 0 -8.93192e-05 6.10024e-06 0 -9.38835e-05 5.37292e-06 0 -9.76348e-05 4.62811e-06 0 -0.000100551 3.87468e-06 0 -0.000102617 3.12102e-06 0 -0.000103824 2.37508e-06 0 -0.000104172 1.64445e-06 0 -0.000103662 9.36567e-07 0 -0.000102304 2.58832e-07 0 -0.00010011 -3.81106e-07 0 -9.70926e-05 -9.75013e-07 0 -9.32707e-05 -1.5133e-06 0 -8.86621e-05 -1.98386e-06 0 -8.32857e-05 -2.36841e-06 0 -7.71616e-05 -2.63987e-06 0 -7.03113e-05 -2.74285e-06 0 -6.27649e-05 -2.59961e-06 0 -5.45446e-05 -1.97769e-06 0 -4.56254e-05 -6.01955e-07 0 -3.53465e-05 2.90395e-06 0 -1.93256e-05 8.66579e-06 0 0 1.3872e-05 0 -9.81319e-06 1.38152e-05 0 -1.95397e-05 1.36482e-05 0 -2.90931e-05 1.33719e-05 0 -3.83874e-05 1.29877e-05 0 -4.73383e-05 1.24986e-05 0 -5.58637e-05 1.19094e-05 0 -6.38856e-05 1.12266e-05 0 -7.13317e-05 1.04589e-05 0 -7.81365e-05 9.61665e-06 0 -8.42428e-05 8.71143e-06 0 -8.96023e-05 7.75549e-06 0 -9.41758e-05 6.76124e-06 0 -9.79327e-05 5.74077e-06 0 -0.000100851 4.70557e-06 0 -0.000102916 3.66641e-06 0 -0.00010412 2.63337e-06 0 -0.000104461 1.61594e-06 0 -0.000103942 6.23156e-07 0 -0.000102572 -3.36146e-07 0 -0.000100362 -1.25319e-06 0 -9.73277e-05 -2.11889e-06 0 -9.34843e-05 -2.92323e-06 0 -8.88495e-05 -3.65381e-06 0 -8.34393e-05 -4.29294e-06 0 -7.72688e-05 -4.81232e-06 0 -7.0349e-05 -5.1601e-06 0 -6.26896e-05 -5.24901e-06 0 -5.42636e-05 -4.88066e-06 0 -4.496e-05 -3.7762e-06 0 -3.39245e-05 -1.07418e-06 0 -1.88232e-05 2.23076e-06 0 0 1.71569e-05 0 -9.8549e-06 1.70852e-05 0 -1.9623e-05 1.68744e-05 0 -2.92175e-05 1.65256e-05 0 -3.85523e-05 1.60404e-05 0 -4.75422e-05 1.54224e-05 0 -5.61045e-05 1.46774e-05 0 -6.41605e-05 1.38136e-05 0 -7.1637e-05 1.28419e-05 0 -7.84681e-05 1.17751e-05 0 -8.45962e-05 1.06277e-05 0 -8.99728e-05 9.41502e-06 0 -9.45587e-05 8.15249e-06 0 -9.83237e-05 6.85507e-06 0 -0.000101246 5.53689e-06 0 -0.000103311 4.21112e-06 0 -0.000104511 2.88993e-06 0 -0.000104845 1.58467e-06 0 -0.000104317 3.06017e-07 0 -0.000102933 -9.3583e-07 0 -0.000100707 -2.13098e-06 0 -9.76525e-05 -3.26959e-06 0 -9.37858e-05 -4.34131e-06 0 -8.91228e-05 -5.33392e-06 0 -8.36774e-05 -6.23055e-06 0 -7.7459e-05 -7.00377e-06 0 -7.04692e-05 -7.60532e-06 0 -6.26967e-05 -7.94799e-06 0 -5.40827e-05 -7.86655e-06 0 -4.4445e-05 -7.11272e-06 0 -3.30279e-05 -5.26131e-06 0 -1.85551e-05 -3.4549e-06 0 0 2.04572e-05 0 -9.90625e-06 2.03706e-05 0 -1.97255e-05 2.0116e-05 0 -2.93709e-05 1.96944e-05 0 -3.87555e-05 1.91078e-05 0 -4.77936e-05 1.83603e-05 0 -5.64015e-05 1.74586e-05 0 -6.44997e-05 1.64127e-05 0 -7.2014e-05 1.52355e-05 0 -7.88778e-05 1.39425e-05 0 -8.50331e-05 1.25512e-05 0 -9.04312e-05 1.10801e-05 0 -9.5033e-05 9.54762e-06 0 -9.88084e-05 7.97167e-06 0 -0.000101736 6.36905e-06 0 -0.000103802 4.75531e-06 0 -0.000104999 3.14471e-06 0 -0.000105326 1.55044e-06 0 -0.000104786 -1.5224e-08 0 -0.000103388 -1.54072e-06 0 -0.000101144 -3.01507e-06 0 -9.80675e-05 -4.42773e-06 0 -9.41757e-05 -5.76816e-06 0 -8.9483e-05 -7.02465e-06 0 -8.40012e-05 -8.18168e-06 0 -7.77347e-05 -9.21423e-06 0 -7.06761e-05 -1.00784e-05 0 -6.27961e-05 -1.06943e-05 0 -5.40122e-05 -1.09252e-05 0 -4.41125e-05 -1.0578e-05 0 -3.24995e-05 -9.5008e-06 0 -1.85409e-05 -8.69104e-06 0 0 2.37762e-05 0 -9.96725e-06 2.36747e-05 0 -1.98474e-05 2.33762e-05 0 -2.95531e-05 2.28817e-05 0 -3.89971e-05 2.21932e-05 0 -4.80927e-05 2.13154e-05 0 -5.67553e-05 2.0256e-05 0 -6.49038e-05 1.90265e-05 0 -7.24634e-05 1.7642e-05 0 -7.93663e-05 1.61209e-05 0 -8.55542e-05 1.44837e-05 0 -9.09781e-05 1.2752e-05 0 -9.5599e-05 1.09476e-05 0 -9.93873e-05 9.09123e-06 0 -0.000102322 7.20245e-06 0 -0.000104389 5.29913e-06 0 -0.000105583 3.39766e-06 0 -0.000105902 1.51301e-06 0 -0.00010535 -3.40944e-07 0 -0.000103936 -2.1513e-06 0 -0.000101672 -3.90602e-06 0 -9.85731e-05 -5.5939e-06 0 -9.46544e-05 -7.20433e-06 0 -8.99308e-05 -8.72639e-06 0 -8.44119e-05 -1.01465e-05 0 -7.80982e-05 -1.14432e-05 0 -7.09737e-05 -1.25786e-05 0 -6.29949e-05 -1.34836e-05 0 -5.40626e-05 -1.40477e-05 0 -4.3963e-05 -1.41338e-05 0 -3.22572e-05 -1.37359e-05 0 -1.86664e-05 -1.36335e-05 0 0 2.71171e-05 0 -1.00379e-05 2.70007e-05 0 -1.99886e-05 2.66582e-05 0 -2.97644e-05 2.60905e-05 0 -3.92775e-05 2.52997e-05 0 -4.844e-05 2.42908e-05 0 -5.71661e-05 2.30723e-05 0 -6.53735e-05 2.16575e-05 0 -7.29857e-05 2.00637e-05 0 -7.99343e-05 1.83122e-05 0 -8.61602e-05 1.64266e-05 0 -9.16142e-05 1.4432e-05 0 -9.62576e-05 1.23533e-05 0 -0.000100061 1.02144e-05 0 -0.000103004 8.03744e-06 0 -0.000105074 5.84275e-06 0 -0.000106265 3.64872e-06 0 -0.000106575 1.47216e-06 0 -0.000106011 -6.71529e-07 0 -0.000104579 -2.76809e-06 0 -0.000102294 -4.80443e-06 0 -9.91697e-05 -6.7687e-06 0 -9.52225e-05 -8.65032e-06 0 -9.04667e-05 -1.04394e-05 0 -8.49108e-05 -1.21249e-05 0 -7.85515e-05 -1.369e-05 0 -7.13658e-05 -1.5104e-05 0 -6.32985e-05 -1.63109e-05 0 -5.42403e-05 -1.72239e-05 0 -4.39905e-05 -1.77511e-05 0 -3.22391e-05 -1.79481e-05 0 -1.89115e-05 -1.83863e-05 0 0 3.04832e-05 0 -1.01183e-05 3.03518e-05 0 -2.01492e-05 2.99653e-05 0 -3.00049e-05 2.93242e-05 0 -3.95967e-05 2.84306e-05 0 -4.88358e-05 2.72895e-05 0 -5.76346e-05 2.59106e-05 0 -6.59092e-05 2.43085e-05 0 -7.35818e-05 2.25031e-05 0 -8.05827e-05 2.05185e-05 0 -8.68519e-05 1.83818e-05 0 -9.23404e-05 1.61214e-05 0 -9.70095e-05 1.37658e-05 0 -0.00010083 1.13418e-05 0 -0.000103783 8.8744e-06 0 -0.000105856 6.38627e-06 0 -0.000107044 3.89783e-06 0 -0.000107346 1.42763e-06 0 -0.000106767 -1.00737e-06 0 -0.000105317 -3.3916e-06 0 -0.000103009 -5.71088e-06 0 -9.98575e-05 -7.95271e-06 0 -9.58803e-05 -1.01066e-05 0 -9.10914e-05 -1.21639e-05 0 -8.54986e-05 -1.41166e-05 0 -7.90962e-05 -1.59533e-05 0 -7.18552e-05 -1.76522e-05 0 -6.37113e-05 -1.9171e-05 0 -5.45488e-05 -2.04442e-05 0 -4.41852e-05 -2.14107e-05 0 -3.24068e-05 -2.21372e-05 0 -1.92518e-05 -2.30167e-05 0 0 3.38777e-05 0 -1.02083e-05 3.37313e-05 0 -2.03292e-05 3.33008e-05 0 -3.02747e-05 3.2586e-05 0 -3.99552e-05 3.1589e-05 0 -4.92805e-05 3.03148e-05 0 -5.81613e-05 2.87738e-05 0 -6.65119e-05 2.69822e-05 0 -7.42526e-05 2.49625e-05 0 -8.13123e-05 2.27417e-05 0 -8.76305e-05 2.03507e-05 0 -9.31577e-05 1.78214e-05 0 -9.78556e-05 1.51858e-05 0 -0.000101696 1.2474e-05 0 -0.00010466 9.71365e-06 0 -0.000106737 6.92981e-06 0 -0.000107921 4.1449e-06 0 -0.000108214 1.37918e-06 0 -0.00010762 -1.34889e-06 0 -0.00010615 -4.02236e-06 0 -0.000103817 -6.62598e-06 0 -0.000100637 -9.14654e-06 0 -9.66281e-05 -1.15736e-05 0 -9.18051e-05 -1.39001e-05 0 -8.61761e-05 -1.61212e-05 0 -7.97337e-05 -1.82319e-05 0 -7.24443e-05 -2.02202e-05 0 -6.42366e-05 -2.20586e-05 0 -5.49901e-05 -2.36998e-05 0 -4.45386e-05 -2.51006e-05 0 -3.27347e-05 -2.63104e-05 0 -1.9678e-05 -2.75729e-05 0 0 3.73037e-05 0 -1.0308e-05 3.71425e-05 0 -2.05287e-05 3.66678e-05 0 -3.05739e-05 3.58793e-05 0 -4.03531e-05 3.47783e-05 0 -4.97745e-05 3.33698e-05 0 -5.8747e-05 3.16649e-05 0 -6.71824e-05 2.96814e-05 0 -7.49991e-05 2.74443e-05 0 -8.21245e-05 2.4984e-05 0 -8.8497e-05 2.2335e-05 0 -9.40672e-05 1.95333e-05 0 -9.8797e-05 1.66143e-05 0 -0.000102659 1.36116e-05 0 -0.000105636 1.05555e-05 0 -0.000107717 7.47345e-06 0 -0.000108898 4.38981e-06 0 -0.000109181 1.32651e-06 0 -0.000108571 -1.69649e-06 0 -0.000107079 -4.66093e-06 0 -0.000104719 -7.55035e-06 0 -0.000101509 -1.03508e-05 0 -9.74661e-05 -1.30519e-05 0 -9.26082e-05 -1.56479e-05 0 -8.69437e-05 -1.8138e-05 0 -8.04647e-05 -2.05239e-05 0 -7.31349e-05 -2.28048e-05 0 -6.48766e-05 -2.49681e-05 0 -5.55651e-05 -2.6983e-05 0 -4.50442e-05 -2.88139e-05 0 -3.32073e-05 -3.04776e-05 0 -2.01843e-05 -3.20914e-05 0 0 4.07646e-05 0 -1.04173e-05 4.05885e-05 0 -2.07477e-05 4.00698e-05 0 -3.09026e-05 3.92074e-05 0 -4.07906e-05 3.80019e-05 0 -5.03184e-05 3.64579e-05 0 -5.93923e-05 3.45871e-05 0 -6.79217e-05 3.2409e-05 0 -7.58224e-05 2.9951e-05 0 -8.30203e-05 2.72473e-05 0 -8.94527e-05 2.43363e-05 0 -9.50701e-05 2.12582e-05 0 -9.98348e-05 1.80522e-05 0 -0.000103721 1.47551e-05 0 -0.000106711 1.14002e-05 0 -0.000108797 8.01724e-06 0 -0.000109974 4.63244e-06 0 -0.000110246 1.26934e-06 0 -0.000109619 -2.05064e-06 0 -0.000108104 -5.30787e-06 0 -0.000105716 -8.48466e-06 0 -0.000102473 -1.15662e-05 0 -9.83946e-05 -1.45419e-05 0 -9.35006e-05 -1.74076e-05 0 -8.78014e-05 -2.01663e-05 0 -8.12899e-05 -2.28275e-05 0 -7.3928e-05 -2.54024e-05 0 -6.56333e-05 -2.78941e-05 0 -5.62746e-05 -3.02872e-05 0 -4.56981e-05 -3.25472e-05 0 -3.3816e-05 -3.46499e-05 0 -2.07694e-05 -3.66017e-05 0 0 4.42635e-05 0 -1.05363e-05 4.40725e-05 0 -2.09862e-05 4.351e-05 0 -3.12609e-05 4.25737e-05 0 -4.12682e-05 4.12632e-05 0 -5.09127e-05 3.95825e-05 0 -6.00981e-05 3.75437e-05 0 -6.87308e-05 3.51678e-05 0 -7.67239e-05 3.24851e-05 0 -8.40012e-05 2.95337e-05 0 -9.04991e-05 2.63563e-05 0 -9.61677e-05 2.29973e-05 0 -0.00010097 1.95001e-05 0 -0.000104882 1.5905e-05 0 -0.000107887 1.2248e-05 0 -0.000109977 8.56122e-06 0 -0.000111151 4.87264e-06 0 -0.000111412 1.20735e-06 0 -0.000110767 -2.4118e-06 0 -0.000109227 -5.96379e-06 0 -0.000106808 -9.42962e-06 0 -0.000103529 -1.27934e-05 0 -9.94136e-05 -1.60443e-05 0 -9.44822e-05 -1.91793e-05 0 -8.87489e-05 -2.22055e-05 0 -8.22089e-05 -2.51405e-05 0 -7.48241e-05 -2.80089e-05 0 -6.65076e-05 -3.0831e-05 0 -5.71198e-05 -3.36064e-05 0 -4.64991e-05 -3.62987e-05 0 -3.45577e-05 -3.88385e-05 0 -2.14347e-05 -4.11293e-05 0 0 4.78035e-05 0 -1.06648e-05 4.75979e-05 0 -2.1244e-05 4.69918e-05 0 -3.16488e-05 4.59817e-05 0 -4.1786e-05 4.45657e-05 0 -5.15581e-05 4.27471e-05 0 -6.08654e-05 4.05379e-05 0 -6.96111e-05 3.79608e-05 0 -7.77051e-05 3.50492e-05 0 -8.50688e-05 3.18453e-05 0 -9.16376e-05 2.83965e-05 0 -9.73616e-05 2.47519e-05 0 -0.000102205 2.0959e-05 0 -0.000106144 1.70617e-05 0 -0.000109164 1.30991e-05 0 -0.00011126 9.10536e-06 0 -0.00011243 5.11021e-06 0 -0.000112678 1.14021e-06 0 -0.000112013 -2.78046e-06 0 -0.000110447 -6.62935e-06 0 -0.000107995 -1.0386e-05 0 -0.000104679 -1.40332e-05 0 -0.000100523 -1.75596e-05 0 -9.55527e-05 -2.09631e-05 0 -8.97856e-05 -2.42548e-05 0 -8.32212e-05 -2.74609e-05 0 -7.58231e-05 -3.06203e-05 0 -6.75006e-05 -3.37726e-05 0 -5.81025e-05 -3.69346e-05 0 -4.7449e-05 -4.00672e-05 0 -3.54341e-05 -4.30544e-05 0 -2.21844e-05 -4.56973e-05 0 0 5.13879e-05 0 -1.08029e-05 5.11678e-05 0 -2.15211e-05 5.05185e-05 0 -3.20664e-05 4.94349e-05 0 -4.23444e-05 4.79132e-05 0 -5.2255e-05 4.59553e-05 0 -6.16951e-05 4.35732e-05 0 -7.05638e-05 4.07912e-05 0 -7.87674e-05 3.7646e-05 0 -8.62248e-05 3.41843e-05 0 -9.28701e-05 3.04585e-05 0 -9.86534e-05 2.65229e-05 0 -0.00010354 2.24294e-05 0 -0.000107507 1.82257e-05 0 -0.000110544 1.39537e-05 0 -0.000112645 9.64963e-06 0 -0.00011381 5.34497e-06 0 -0.000114046 1.06755e-06 0 -0.00011336 -3.15712e-06 0 -0.000111765 -7.3052e-06 0 -0.000109278 -1.13546e-05 0 -0.000105921 -1.52866e-05 0 -0.000101723 -1.90887e-05 0 -9.67114e-05 -2.27595e-05 0 -9.09105e-05 -2.63137e-05 0 -8.43255e-05 -2.97865e-05 0 -7.6924e-05 -3.32323e-05 0 -6.86126e-05 -3.67126e-05 0 -5.92252e-05 -4.02652e-05 0 -4.85523e-05 -4.38518e-05 0 -3.64512e-05 -4.73082e-05 0 -2.30252e-05 -5.03285e-05 0 0 5.50197e-05 0 -1.09502e-05 5.47855e-05 0 -2.18174e-05 5.40935e-05 0 -3.25136e-05 5.29368e-05 0 -4.29435e-05 5.13093e-05 0 -5.30041e-05 4.92108e-05 0 -6.25883e-05 4.66531e-05 0 -7.15904e-05 4.36621e-05 0 -7.99127e-05 4.02782e-05 0 -8.74711e-05 3.65527e-05 0 -9.41983e-05 3.2544e-05 0 -0.000100045 2.83114e-05 0 -0.000104977 2.3912e-05 0 -0.000108975 1.93972e-05 0 -0.000112028 1.48118e-05 0 -0.000114134 1.01939e-05 0 -0.000115294 5.57667e-06 0 -0.000115516 9.89011e-07 0 -0.000114808 -3.54234e-06 0 -0.000113182 -7.99208e-06 0 -0.000110657 -1.23364e-05 0 -0.000107258 -1.65546e-05 0 -0.000103013 -2.06326e-05 0 -9.79576e-05 -2.45691e-05 0 -9.2122e-05 -2.83818e-05 0 -8.55199e-05 -3.2115e-05 0 -7.81252e-05 -3.584e-05 0 -6.98435e-05 -3.96437e-05 0 -6.04911e-05 -4.35909e-05 0 -4.98167e-05 -4.765e-05 0 -3.76193e-05 -5.16103e-05 0 -2.39662e-05 -5.50457e-05 0 0 5.87021e-05 0 -1.11068e-05 5.84539e-05 0 -2.21325e-05 5.77201e-05 0 -3.29902e-05 5.64912e-05 0 -4.35835e-05 5.47579e-05 0 -5.38062e-05 5.25176e-05 0 -6.35463e-05 4.97815e-05 0 -7.26927e-05 4.6577e-05 0 -8.1143e-05 4.29484e-05 0 -8.88098e-05 3.89528e-05 0 -9.56246e-05 3.46543e-05 0 -0.000101538 3.01185e-05 0 -0.000106518 2.54075e-05 0 -0.000110547 2.05766e-05 0 -0.000113617 1.56734e-05 0 -0.000115728 1.07381e-05 0 -0.000116883 5.80505e-06 0 -0.000117089 9.04185e-07 0 -0.000116357 -3.93666e-06 0 -0.000114699 -8.69072e-06 0 -0.000112134 -1.33323e-05 0 -0.000108688 -1.78382e-05 0 -0.000104393 -2.21925e-05 0 -9.92902e-05 -2.63926e-05 0 -9.34182e-05 -3.0459e-05 0 -8.68015e-05 -3.44445e-05 0 -7.94238e-05 -3.84386e-05 0 -7.11924e-05 -4.25578e-05 0 -6.1904e-05 -4.69021e-05 0 -5.12526e-05 -5.1458e-05 0 -3.89536e-05 -5.59705e-05 0 -2.50202e-05 -5.98739e-05 0 0 6.24379e-05 0 -1.12723e-05 6.21763e-05 0 -2.24662e-05 6.14018e-05 0 -3.34961e-05 6.01018e-05 0 -4.42646e-05 5.8263e-05 0 -5.46618e-05 5.58798e-05 0 -6.45702e-05 5.29622e-05 0 -7.38723e-05 4.95393e-05 0 -8.24604e-05 4.56597e-05 0 -9.02434e-05 4.13866e-05 0 -9.71511e-05 3.67911e-05 0 -0.000103135 3.19451e-05 0 -0.000108165 2.69163e-05 0 -0.000112225 2.17639e-05 0 -0.000115312 1.65385e-05 0 -0.000117428 1.12821e-05 0 -0.000118576 6.02983e-06 0 -0.000118767 8.12667e-07 0 -0.000118009 -4.34065e-06 0 -0.000116317 -9.40193e-06 0 -0.000113709 -1.43433e-05 0 -0.000110212 -1.91389e-05 0 -0.000105863 -2.37697e-05 0 -0.000100708 -2.82313e-05 0 -9.47967e-05 -3.25455e-05 0 -8.81668e-05 -3.67731e-05 0 -8.0816e-05 -4.10229e-05 0 -7.26575e-05 -4.54455e-05 0 -6.34682e-05 -5.01873e-05 0 -5.28743e-05 -5.52686e-05 0 -4.04752e-05 -6.03979e-05 0 -2.62033e-05 -6.48409e-05 0 0 6.623e-05 0 -1.14464e-05 6.59556e-05 0 -2.28179e-05 6.51419e-05 0 -3.40309e-05 6.37724e-05 0 -4.49869e-05 6.18288e-05 0 -5.55717e-05 5.93017e-05 0 -6.56614e-05 5.61993e-05 0 -7.51314e-05 5.25526e-05 0 -8.38674e-05 4.84149e-05 0 -9.17742e-05 4.38564e-05 0 -9.87803e-05 3.89557e-05 0 -0.000104838 3.37921e-05 0 -0.000109919 2.84387e-05 0 -0.000114012 2.29593e-05 0 -0.000117116 1.74071e-05 0 -0.000119235 1.18255e-05 0 -0.000120376 6.25067e-06 0 -0.00012055 7.14035e-07 0 -0.000119765 -4.75489e-06 0 -0.000118037 -1.01265e-05 0 -0.000115382 -1.53706e-05 0 -0.000111831 -2.04581e-05 0 -0.000107422 -2.53659e-05 0 -0.00010221 -3.00867e-05 0 -9.62545e-05 -3.46419e-05 0 -8.96113e-05 -3.90994e-05 0 -8.22966e-05 -4.35878e-05 0 -7.42352e-05 -4.82964e-05 0 -6.51877e-05 -5.34313e-05 0 -5.46992e-05 -5.90705e-05 0 -4.22122e-05 -6.49007e-05 0 -2.75371e-05 -6.99795e-05 0 0 7.00812e-05 0 -1.16287e-05 6.97948e-05 0 -2.31871e-05 6.89437e-05 0 -3.45941e-05 6.75068e-05 0 -4.57502e-05 6.54597e-05 0 -5.65366e-05 6.27879e-05 0 -6.68216e-05 5.94974e-05 0 -7.64722e-05 5.56208e-05 0 -8.53667e-05 5.12172e-05 0 -9.34054e-05 4.63643e-05 0 -0.000100515 4.11496e-05 0 -0.000106649 3.56601e-05 0 -0.000111783 2.99751e-05 0 -0.000115909 2.41628e-05 0 -0.000119029 1.82788e-05 0 -0.000121151 1.23681e-05 0 -0.000122284 6.46725e-06 0 -0.000122439 6.07866e-07 0 -0.000121626 -5.17996e-06 0 -0.000119859 -1.08653e-05 0 -0.000117156 -1.64154e-05 0 -0.000113545 -2.17974e-05 0 -0.000109071 -2.69833e-05 0 -0.000103794 -3.19609e-05 0 -9.77884e-05 -3.67497e-05 0 -9.11295e-05 -4.14227e-05 0 -8.38584e-05 -4.61279e-05 0 -7.59202e-05 -5.10983e-05 0 -6.70654e-05 -5.6615e-05 0 -5.67488e-05 -6.28457e-05 0 -4.42021e-05 -6.94851e-05 0 -2.90495e-05 -7.533e-05 0 0 7.3994e-05 0 -1.18187e-05 7.36965e-05 0 -2.35729e-05 7.28106e-05 0 -3.5185e-05 7.13091e-05 0 -4.65544e-05 6.91604e-05 0 -5.7557e-05 6.63433e-05 0 -6.80523e-05 6.28609e-05 0 -7.78971e-05 5.8748e-05 0 -8.69613e-05 5.40696e-05 0 -9.51398e-05 4.89127e-05 0 -0.000102358 4.33742e-05 0 -0.000108571 3.75497e-05 0 -0.000113759 3.15255e-05 0 -0.000117917 2.53741e-05 0 -0.000121052 1.91535e-05 0 -0.000123176 1.29096e-05 0 -0.0001243 6.6792e-06 0 -0.000124436 4.93738e-07 0 -0.000123593 -5.61642e-06 0 -0.000121785 -1.16192e-05 0 -0.00011903 -1.7479e-05 0 -0.000115355 -2.31587e-05 0 -0.000110809 -2.86242e-05 0 -0.000105459 -3.38566e-05 0 -9.93946e-05 -3.8871e-05 0 -9.27149e-05 -4.37429e-05 0 -8.54925e-05 -4.86385e-05 0 -7.77038e-05 -5.3838e-05 0 -6.91024e-05 -5.9714e-05 0 -5.90484e-05 -6.65672e-05 0 -4.64948e-05 -7.41536e-05 0 -3.07783e-05 -8.09438e-05 0 0 7.79708e-05 0 -1.20157e-05 7.76634e-05 0 -2.39743e-05 7.67458e-05 0 -3.58025e-05 7.51835e-05 0 -4.73991e-05 7.29355e-05 0 -5.86338e-05 6.9973e-05 0 -6.93553e-05 6.6295e-05 0 -7.94088e-05 6.19385e-05 0 -8.86544e-05 5.69755e-05 0 -9.69812e-05 5.15035e-05 0 -0.000104313 4.56305e-05 0 -0.000110608 3.94616e-05 0 -0.000115849 3.30901e-05 0 -0.000120039 2.6593e-05 0 -0.000123188 2.00307e-05 0 -0.000125312 1.34496e-05 0 -0.000126426 6.88612e-06 0 -0.000126541 3.71247e-07 0 -0.000125668 -6.06481e-06 0 -0.000123817 -1.23889e-05 0 -0.000121006 -1.85628e-05 0 -0.000117263 -2.4544e-05 0 -0.000112636 -3.02913e-05 0 -0.000107203 -3.57771e-05 0 -0.000101069 -4.10089e-05 0 -9.43597e-05 -4.60613e-05 0 -8.71874e-05 -5.11158e-05 0 -7.95739e-05 -5.65014e-05 0 -7.12956e-05 -6.26984e-05 0 -6.16267e-05 -7.01948e-05 0 -4.9158e-05 -7.89021e-05 0 -3.27737e-05 -8.68894e-05 0 0 8.20135e-05 0 -1.22189e-05 8.16979e-05 0 -2.43899e-05 8.07525e-05 0 -3.64454e-05 7.91341e-05 0 -4.82838e-05 7.67905e-05 0 -5.97674e-05 7.36827e-05 0 -7.07326e-05 6.98051e-05 0 -8.10106e-05 6.51968e-05 0 -9.04499e-05 5.99383e-05 0 -9.89332e-05 5.41391e-05 0 -0.000106384 4.79197e-05 0 -0.000112762 4.13959e-05 0 -0.000118057 3.46685e-05 0 -0.000122276 2.7819e-05 0 -0.000125438 2.09099e-05 0 -0.000127561 1.39876e-05 0 -0.000128663 7.08763e-06 0 -0.000128756 2.40011e-07 0 -0.00012785 -6.52562e-06 0 -0.000125956 -1.31753e-05 0 -0.000123086 -1.9668e-05 0 -0.000119268 -2.59554e-05 0 -0.000114554 -3.19878e-05 0 -0.000109026 -3.77264e-05 0 -0.000102807 -4.31676e-05 0 -9.60551e-05 -4.83805e-05 0 -8.89292e-05 -5.3557e-05 0 -8.15131e-05 -5.90738e-05 0 -7.36352e-05 -6.55324e-05 0 -6.45141e-05 -7.36694e-05 0 -5.2283e-05 -8.37133e-05 0 -3.51093e-05 -9.32616e-05 0 0 8.6124e-05 0 -1.24271e-05 8.5802e-05 0 -2.4818e-05 8.48338e-05 0 -3.71121e-05 8.31654e-05 0 -4.92077e-05 8.07307e-05 0 -6.09586e-05 7.74785e-05 0 -7.21863e-05 7.33971e-05 0 -8.27057e-05 6.85279e-05 0 -9.23519e-05 6.29615e-05 0 -0.000101 5.68216e-05 0 -0.000108573 5.02427e-05 0 -0.000115036 4.33527e-05 0 -0.000120383 3.62603e-05 0 -0.000124631 2.90515e-05 0 -0.000127803 2.17904e-05 0 -0.000129923 1.4523e-05 0 -0.000131011 7.28332e-06 0 -0.000131082 9.96916e-08 0 -0.000130143 -6.99927e-06 0 -0.000128203 -1.39792e-05 0 -0.000125271 -2.0796e-05 0 -0.000121374 -2.73955e-05 0 -0.000116562 -3.37174e-05 0 -0.000110925 -3.97095e-05 0 -0.000104605 -4.53528e-05 0 -9.77917e-05 -5.07052e-05 0 -9.07011e-05 -5.59619e-05 0 -8.34984e-05 -6.15416e-05 0 -7.61016e-05 -6.81753e-05 0 -6.77379e-05 -7.69061e-05 0 -5.59977e-05 -8.85441e-05 0 -3.78808e-05 -0.000100198 0 0 9.03035e-05 0 -1.26392e-05 8.99775e-05 0 -2.52564e-05 8.89926e-05 0 -3.78003e-05 8.72819e-05 0 -5.01695e-05 8.47622e-05 0 -6.22077e-05 8.13671e-05 0 -7.37189e-05 7.70774e-05 0 -8.44981e-05 7.19371e-05 0 -9.4365e-05 6.60489e-05 0 -0.000103187 5.95529e-05 0 -0.000110887 5.26004e-05 0 -0.000117433 4.53318e-05 0 -0.000122832 3.78649e-05 0 -0.000127105 3.02898e-05 0 -0.000130284 2.26715e-05 0 -0.000132399 1.50553e-05 0 -0.000133472 7.47278e-06 0 -0.000133519 -4.99951e-08 0 -0.000132547 -7.48609e-06 0 -0.000130559 -1.48011e-05 0 -0.000127564 -2.19482e-05 0 -0.000123581 -2.88664e-05 0 -0.000118662 -3.54841e-05 0 -0.000112901 -4.17322e-05 0 -0.000106458 -4.75715e-05 0 -9.95588e-05 -5.30421e-05 0 -9.24835e-05 -5.83333e-05 0 -8.54998e-05 -6.38931e-05 0 -7.86597e-05 -7.05841e-05 0 -7.13158e-05 -7.9786e-05 0 -6.04757e-05 -9.33011e-05 0 -4.12697e-05 -0.000107905 0 0 9.45526e-05 0 -1.28535e-05 9.42256e-05 0 -2.57025e-05 9.32317e-05 0 -3.85074e-05 9.14883e-05 0 -5.11676e-05 8.88915e-05 0 -6.35152e-05 8.5356e-05 0 -7.53329e-05 8.0853e-05 0 -8.63922e-05 7.543e-05 0 -9.64946e-05 6.92042e-05 0 -0.000105499 6.23351e-05 0 -0.000113328 5.4993e-05 0 -0.000119959 4.73329e-05 0 -0.000125405 3.94813e-05 0 -0.000129701 3.15326e-05 0 -0.000132884 2.35523e-05 0 -0.000134991 1.55837e-05 0 -0.000136048 7.65561e-06 0 -0.00013607 -2.09257e-07 0 -0.000135064 -7.98627e-06 0 -0.000133028 -1.56416e-05 0 -0.000129966 -2.31258e-05 0 -0.000125893 -3.0371e-05 0 -0.000120855 -3.72923e-05 0 -0.000114953 -4.3801e-05 0 -0.000108362 -4.98327e-05 0 -0.000101346 -5.54007e-05 0 -9.42546e-05 -6.06785e-05 0 -8.74795e-05 -6.61204e-05 0 -8.12577e-05 -7.27188e-05 0 -7.52309e-05 -8.21531e-05 0 -6.59808e-05 -9.77835e-05 0 -4.54462e-05 -0.000116722 0 0 9.88716e-05 0 -1.3068e-05 9.85471e-05 0 -2.6153e-05 9.75537e-05 0 -3.92299e-05 9.57896e-05 0 -5.21999e-05 9.31257e-05 0 -6.48813e-05 8.94534e-05 0 -7.70314e-05 8.47319e-05 0 -8.83931e-05 7.9013e-05 0 -9.87466e-05 7.24314e-05 0 -0.000107942 6.517e-05 0 -0.000115903 5.74209e-05 0 -0.000122616 4.9355e-05 0 -0.000128107 4.11083e-05 0 -0.00013242 3.27788e-05 0 -0.000135603 2.44317e-05 0 -0.000137699 1.61076e-05 0 -0.000138738 7.83142e-06 0 -0.000138735 -3.78205e-07 0 -0.000137694 -8.49986e-06 0 -0.000135611 -1.65009e-05 0 -0.000132481 -2.43299e-05 0 -0.000128312 -3.19115e-05 0 -0.000123146 -3.91467e-05 0 -0.000117083 -4.59236e-05 0 -0.000110313 -5.21473e-05 0 -0.000103142 -5.7793e-05 0 -9.59902e-05 -6.30109e-05 0 -8.93931e-05 -6.8221e-05 0 -8.38176e-05 -7.45503e-05 0 -7.94167e-05 -8.38206e-05 0 -7.28261e-05 -0.000101588 0 -5.11104e-05 -0.000127147 0 0 0.00010326 0 -1.32802e-05 0.000102942 0 -2.66036e-05 0.000101961 0 -3.99636e-05 0.000100191 0 -5.32637e-05 9.74725e-05 0 -6.63064e-05 9.36684e-05 0 -7.88177e-05 8.87228e-05 0 -9.05065e-05 8.26928e-05 0 -0.000101128 7.57346e-05 0 -0.000110522 6.80592e-05 0 -0.000118616 5.98838e-05 0 -0.000125409 5.1397e-05 0 -0.000130939 4.27442e-05 0 -0.000135264 3.40267e-05 0 -0.000138443 2.53084e-05 0 -0.000140525 1.66261e-05 0 -0.000141543 7.99986e-06 0 -0.000141515 -5.56834e-07 0 -0.000140441 -9.0267e-06 0 -0.000138311 -1.73792e-05 0 -0.000135112 -2.55613e-05 0 -0.000130843 -3.34905e-05 0 -0.000125537 -4.10525e-05 0 -0.000119293 -4.81084e-05 0 -0.000112312 -5.4528e-05 0 -0.000104936 -6.02348e-05 0 -9.7668e-05 -6.53487e-05 0 -9.11808e-05 -7.02084e-05 0 -8.62648e-05 -7.6048e-05 0 -8.36297e-05 -8.46575e-05 0 -8.16311e-05 -0.000103817 0 -5.82758e-05 -0.000140212 0 0 0.000107715 0 -1.34871e-05 0.00010741 0 -2.70494e-05 0.000106454 0 -4.07029e-05 0.000104697 0 -5.43552e-05 0.000101941 0 -6.77902e-05 9.80117e-05 0 -8.06958e-05 9.28356e-05 0 -9.27392e-05 8.64767e-05 0 -0.000103646 7.91179e-05 0 -0.000113247 7.1004e-05 0 -0.000121474 6.23811e-05 0 -0.000128342 5.34572e-05 0 -0.000133905 4.4387e-05 0 -0.000138235 3.52744e-05 0 -0.000141404 2.61809e-05 0 -0.000143468 1.71384e-05 0 -0.000144464 8.16059e-06 0 -0.00014441 -7.44993e-07 0 -0.000143304 -9.5664e-06 0 -0.000141129 -1.82761e-05 0 -0.000137862 -2.68207e-05 0 -0.000133489 -3.51103e-05 0 -0.000128033 -4.30148e-05 0 -0.000121585 -5.03646e-05 0 -0.000114356 -5.69897e-05 0 -0.00010672 -6.27465e-05 0 -9.92646e-05 -6.77126e-05 0 -9.27852e-05 -7.21223e-05 0 -8.84818e-05 -7.71689e-05 0 -8.75581e-05 -8.46977e-05 0 -9.25202e-05 -0.000102862 0 -7.18813e-05 -0.000156541 0 0 0.000112235 0 -1.36852e-05 0.000111948 0 -2.74842e-05 0.000111036 0 -4.14413e-05 0.000109315 0 -5.547e-05 0.00010654 0 -6.93326e-05 0.000102495 0 -8.267e-05 9.70815e-05 0 -9.50988e-05 9.0373e-05 0 -0.000106311 8.25856e-05 0 -0.000116124 7.40053e-05 0 -0.000124484 6.49116e-05 0 -0.00013142 5.55331e-05 0 -0.000137007 4.60342e-05 0 -0.000141335 3.65197e-05 0 -0.000144488 2.70476e-05 0 -0.000146529 1.76433e-05 0 -0.000147502 8.31333e-06 0 -0.000147423 -9.42375e-07 0 -0.000146286 -1.01183e-05 0 -0.000144068 -1.91912e-05 0 -0.000140734 -2.8108e-05 0 -0.000136256 -3.6773e-05 0 -0.00013064 -4.50379e-05 0 -0.000123966 -5.27051e-05 0 -0.000116448 -5.95415e-05 0 -0.000108479 -6.53711e-05 0 -0.000100778 -7.00832e-05 0 -9.40852e-05 -7.4132e-05 0 -9.05295e-05 -7.76349e-05 0 -9.02093e-05 -8.47446e-05 0 -0.000106678 -9.53037e-05 0 -9.23082e-05 -0.00017696 0 0 0.000116815 0 -1.38701e-05 0.000116555 0 -2.78999e-05 0.000115706 0 -4.21701e-05 0.00011405 0 -5.66018e-05 0.000111281 0 -7.09331e-05 0.000107133 0 -8.4746e-05 0.000101473 0 -9.7595e-05 9.43904e-05 0 -0.000109131 8.61418e-05 0 -0.000119165 7.70635e-05 0 -0.000127652 6.74733e-05 0 -0.000134647 5.7622e-05 0 -0.000140249 4.76827e-05 0 -0.000144566 3.776e-05 0 -0.000147695 2.79066e-05 0 -0.000149709 1.814e-05 0 -0.000150656 8.45787e-06 0 -0.000150552 -1.14847e-06 0 -0.000149388 -1.06813e-05 0 -0.000147131 -2.01233e-05 0 -0.000143734 -2.94228e-05 0 -0.000139151 -3.84801e-05 0 -0.000133366 -4.71269e-05 0 -0.000126443 -5.51398e-05 0 -0.000118587 -6.22048e-05 0 -0.000110233 -6.81256e-05 0 -0.000102107 -7.25344e-05 0 -9.53094e-05 -7.61759e-05 0 -9.13904e-05 -7.78999e-05 0 -9.38256e-05 -8.38766e-05 0 -0.000110968 -8.42829e-05 0 -0.00021244 -0.000160244 0 </DataArray> 
</PointData> 
<Points> 
<DataArray type="Float32" NumberOfComponents="3"> 