<?xml version="1.0"?> 
<VTKFile type="StructuredGrid" version="0.1"> 
<StructuredGrid WholeExtent="0 31 0 31 0 0"> 
<Piece Extent="0 31 0 31 0 0"> 
<PointData>
<DataArray type="Float32" Name="B" format="ascii" NumberOfComponents="3"> 
0 -0 0 -6.09196e-08 -0 0 -1.2214e-07 -0 0 -1.8396e-07 -0 0 -2.46679e-07 -0 0 -3.10592e-07 -0 0 -3.75991e-07 -0 0 -4.43164e-07 -0 0 -5.12388e-07 -0 0 -5.83932e-07 -0 0 -6.58047e-07 -0 0 -7.34965e-07 -0 0 -8.14892e-07 -0 0 -8.97996e-07 -0 0 -9.84404e-07 -0 0 -1.07418e-06 -0 0 -1.16733e-06 -0 0 -1.26377e-06 -0 0 -1.36331e-06 -0 0 -1.46565e-06 -0 0 -1.57034e-06 -0 0 -1.6768e-06 -0 0 -1.78426e-06 -0 0 -1.89179e-06 -0 0 -1.99825e-06 -0 0 -2.10232e-06 -0 0 -2.20253e-06 -0 0 -2.29724e-06 -0 0 -2.38467e-06 -0 0 -2.46301e-06 -0 0 -2.53039e-06 -0 0 -2.58498e-06 -0 0 0 4.05428e-08 0 -6.08509e-08 4.06459e-08 0 -1.22002e-07 4.0949e-08 0 -1.83754e-07 4.14514e-08 0 -2.46405e-07 4.21518e-08 0 -3.10252e-07 4.30483e-08 0 -3.75585e-07 4.41379e-08 0 -4.42694e-07 4.5416e-08 0 -5.11857e-07 4.68767e-08 0 -5.83343e-07 4.8511e-08 0 -6.57405e-07 5.03075e-08 0 -7.34276e-07 5.22503e-08 0 -8.14164e-07 5.43191e-08 0 -8.97239e-07 5.64877e-08 0 -9.8363e-07 5.87227e-08 0 -1.07341e-06 6.09827e-08 0 -1.16658e-06 6.3217e-08 0 -1.26306e-06 6.53641e-08 0 -1.36267e-06 6.73516e-08 0 -1.4651e-06 6.90948e-08 0 -1.56993e-06 7.04973e-08 0 -1.67657e-06 7.14519e-08 0 -1.78424e-06 7.18417e-08 0 -1.89203e-06 7.1544e-08 0 -1.99878e-06 7.04339e-08 0 -2.1032e-06 6.83901e-08 0 -2.20379e-06 6.53017e-08 0 -2.29889e-06 6.10755e-08 0 -2.38675e-06 5.56435e-08 0 -2.46552e-06 4.89706e-08 0 -2.53331e-06 4.1058e-08 0 -2.58831e-06 3.19535e-08 0 0 8.09965e-08 0 -6.06487e-08 8.12029e-08 0 -1.21598e-07 8.18093e-08 0 -1.8315e-07 8.28146e-08 0 -2.45601e-07 8.42163e-08 0 -3.09251e-07 8.60106e-08 0 -3.74391e-07 8.81916e-08 0 -4.41312e-07 9.07507e-08 0 -5.10294e-07 9.36757e-08 0 -5.81609e-07 9.69497e-08 0 -6.55514e-07 1.00549e-07 0 -7.32246e-07 1.04444e-07 0 -8.12017e-07 1.08593e-07 0 -8.95006e-07 1.12945e-07 0 -9.81349e-07 1.17434e-07 0 -1.07112e-06 1.21976e-07 0 -1.16435e-06 1.26472e-07 0 -1.26095e-06 1.30799e-07 0 -1.36076e-06 1.34811e-07 0 -1.46349e-06 1.38341e-07 0 -1.56871e-06 1.41194e-07 0 -1.67586e-06 1.43155e-07 0 -1.78417e-06 1.4399e-07 0 -1.89271e-06 1.43451e-07 0 -2.00035e-06 1.41285e-07 0 -2.10577e-06 1.37247e-07 0 -2.20747e-06 1.31112e-07 0 -2.30377e-06 1.2269e-07 0 -2.39287e-06 1.11842e-07 0 -2.4729e-06 9.84946e-08 0 -2.54193e-06 8.26494e-08 0 -2.59809e-06 6.44015e-08 0 0 1.21272e-07 0 -6.03128e-08 1.21582e-07 0 -1.20927e-07 1.22492e-07 0 -1.82145e-07 1.24001e-07 0 -2.44265e-07 1.26106e-07 0 -3.07587e-07 1.28801e-07 0 -3.72406e-07 1.32077e-07 0 -4.39014e-07 1.35922e-07 0 -5.07694e-07 1.40319e-07 0 -5.78724e-07 1.45243e-07 0 -6.52366e-07 1.50659e-07 0 -7.28864e-07 1.56524e-07 0 -8.08439e-07 1.62777e-07 0 -8.91281e-07 1.69341e-07 0 -9.77538e-07 1.7612e-07 0 -1.0673e-06 1.8299e-07 0 -1.16061e-06 1.89801e-07 0 -1.25741e-06 1.96372e-07 0 -1.35754e-06 2.02485e-07 0 -1.46075e-06 2.07887e-07 0 -1.56663e-06 2.12287e-07 0 -1.67462e-06 2.1536e-07 0 -1.78398e-06 2.16751e-07 0 -1.89378e-06 2.16083e-07 0 -2.00289e-06 2.12971e-07 0 -2.10999e-06 2.0704e-07 0 -2.21354e-06 1.97944e-07 0 -2.31183e-06 1.85388e-07 0 -2.40302e-06 1.69157e-07 0 -2.48516e-06 1.49134e-07 0 -2.55627e-06 1.25316e-07 0 -2.61439e-06 9.78462e-08 0 0 1.6128e-07 0 -5.98431e-08 1.61693e-07 0 -1.19989e-07 1.62908e-07 0 -1.80739e-07 1.64923e-07 0 -2.42396e-07 1.67733e-07 0 -3.05259e-07 1.71332e-07 0 -3.69627e-07 1.75708e-07 0 -4.35794e-07 1.80848e-07 0 -5.04051e-07 1.86728e-07 0 -5.74678e-07 1.93316e-07 0 -6.47948e-07 2.00569e-07 0 -7.24113e-07 2.0843e-07 0 -8.03408e-07 2.1682e-07 0 -8.86036e-07 2.2564e-07 0 -9.72164e-07 2.34763e-07 0 -1.06191e-06 2.44028e-07 0 -1.15532e-06 2.53236e-07 0 -1.25237e-06 2.62148e-07 0 -1.35295e-06 2.70475e-07 0 -1.45682e-06 2.77879e-07 0 -1.5636e-06 2.83971e-07 0 -1.67276e-06 2.88315e-07 0 -1.78357e-06 2.9043e-07 0 -1.89514e-06 2.89805e-07 0 -2.00632e-06 2.85916e-07 0 -2.11577e-06 2.78248e-07 0 -2.22193e-06 2.66322e-07 0 -2.32304e-06 2.4973e-07 0 -2.41718e-06 2.28167e-07 0 -2.50232e-06 2.01466e-07 0 -2.57638e-06 1.69617e-07 0 -2.63729e-06 1.32806e-07 0 0 2.00931e-07 0 -5.9239e-08 2.01448e-07 0 -1.18782e-07 2.02969e-07 0 -1.78931e-07 2.0549e-07 0 -2.3999e-07 2.09009e-07 0 -3.02262e-07 2.13516e-07 0 -3.66048e-07 2.19e-07 0 -4.31646e-07 2.25444e-07 0 -4.99353e-07 2.3282e-07 0 -5.69459e-07 2.41092e-07 0 -6.42242e-07 2.50208e-07 0 -7.17971e-07 2.60098e-07 0 -7.96894e-07 2.7067e-07 0 -8.79234e-07 2.81803e-07 0 -9.6518e-07 2.93341e-07 0 -1.05487e-06 3.05088e-07 0 -1.1484e-06 3.16801e-07 0 -1.24577e-06 3.28181e-07 0 -1.3469e-06 3.38872e-07 0 -1.45159e-06 3.48452e-07 0 -1.5595e-06 3.56432e-07 0 -1.67014e-06 3.62261e-07 0 -1.78282e-06 3.65329e-07 0 -1.89665e-06 3.64983e-07 0 -2.0105e-06 3.60549e-07 0 -2.123e-06 3.51357e-07 0 -2.23256e-06 3.36784e-07 0 -2.33734e-06 3.16292e-07 0 -2.43534e-06 2.89473e-07 0 -2.52441e-06 2.56097e-07 0 -2.60233e-06 2.16137e-07 0 -2.66691e-06 1.69825e-07 0 0 2.40134e-07 0 -5.85002e-08 2.40756e-07 0 -1.17305e-07 2.42583e-07 0 -1.76719e-07 2.45614e-07 0 -2.37046e-07 2.49844e-07 0 -2.98593e-07 2.55265e-07 0 -3.61663e-07 2.61865e-07 0 -4.26562e-07 2.69623e-07 0 -4.93591e-07 2.78512e-07 0 -5.63049e-07 2.88491e-07 0 -6.35227e-07 2.995e-07 0 -7.10409e-07 3.11462e-07 0 -7.88861e-07 3.24269e-07 0 -8.70828e-07 3.37783e-07 0 -9.56527e-07 3.51823e-07 0 -1.04613e-06 3.66161e-07 0 -1.13977e-06 3.8051e-07 0 -1.23749e-06 3.94519e-07 0 -1.33925e-06 4.07762e-07 0 -1.44491e-06 4.19735e-07 0 -1.55418e-06 4.2985e-07 0 -1.66661e-06 4.37437e-07 0 -1.78155e-06 4.4175e-07 0 -1.89814e-06 4.41985e-07 0 -2.01526e-06 4.37305e-07 0 -2.13152e-06 4.2687e-07 0 -2.24529e-06 4.09892e-07 0 -2.35464e-06 3.85682e-07 0 -2.45746e-06 3.53711e-07 0 -2.55145e-06 3.13668e-07 0 -2.63422e-06 2.65501e-07 0 -2.70339e-06 2.09483e-07 0 0 2.78801e-07 0 -5.76263e-08 2.79528e-07 0 -1.15558e-07 2.81663e-07 0 -1.74101e-07 2.85205e-07 0 -2.33561e-07 2.90149e-07 0 -2.94247e-07 2.96489e-07 0 -3.56467e-07 3.04213e-07 0 -4.20531e-07 3.13299e-07 0 -4.86749e-07 3.23719e-07 0 -5.5543e-07 3.3543e-07 0 -6.26878e-07 3.48367e-07 0 -7.01393e-07 3.62447e-07 0 -7.79263e-07 3.77551e-07 0 -8.60762e-07 3.93526e-07 0 -9.46135e-07 4.1017e-07 0 -1.0356e-06 4.27225e-07 0 -1.12932e-06 4.44367e-07 0 -1.2274e-06 4.61193e-07 0 -1.32986e-06 4.77214e-07 0 -1.43661e-06 4.91843e-07 0 -1.54744e-06 5.04392e-07 0 -1.66194e-06 5.14069e-07 0 -1.77953e-06 5.19988e-07 0 -1.89937e-06 5.2118e-07 0 -2.02038e-06 5.16629e-07 0 -2.14114e-06 5.05306e-07 0 -2.25996e-06 4.86231e-07 0 -2.37484e-06 4.5854e-07 0 -2.4835e-06 4.21556e-07 0 -2.58347e-06 3.74867e-07 0 -2.67215e-06 3.18379e-07 0 -2.74693e-06 2.52403e-07 0 0 3.16841e-07 0 -5.66168e-08 3.17672e-07 0 -1.1354e-07 3.20116e-07 0 -1.71075e-07 3.24171e-07 0 -2.29532e-07 3.29833e-07 0 -2.8922e-07 3.37098e-07 0 -3.50452e-07 3.45953e-07 0 -4.13544e-07 3.56381e-07 0 -4.78814e-07 3.68351e-07 0 -5.46581e-07 3.8182e-07 0 -6.17165e-07 3.96724e-07 0 -6.90885e-07 4.12973e-07 0 -7.68053e-07 4.30443e-07 0 -8.48971e-07 4.48968e-07 0 -9.33924e-07 4.6833e-07 0 -1.02317e-06 4.88246e-07 0 -1.11693e-06 5.0836e-07 0 -1.21536e-06 5.28221e-07 0 -1.31855e-06 5.47281e-07 0 -1.4265e-06 5.64873e-07 0 -1.53905e-06 5.80209e-07 0 -1.65588e-06 5.92374e-07 0 -1.77648e-06 6.0033e-07 0 -1.90007e-06 6.02936e-07 0 -2.02558e-06 5.98975e-07 0 -2.15159e-06 5.87204e-07 0 -2.27636e-06 5.66422e-07 0 -2.39777e-06 5.35554e-07 0 -2.51339e-06 4.93741e-07 0 -2.62051e-06 4.40443e-07 0 -2.71626e-06 3.75505e-07 0 -2.79777e-06 2.99271e-07 0 0 3.54163e-07 0 -5.54716e-08 3.55099e-07 0 -1.1125e-07 3.57852e-07 0 -1.67641e-07 3.62421e-07 0 -2.24956e-07 3.68804e-07 0 -2.83508e-07 3.76998e-07 0 -3.43612e-07 3.86994e-07 0 -4.0559e-07 3.98775e-07 0 -4.69769e-07 4.12315e-07 0 -5.36481e-07 4.27571e-07 0 -6.0606e-07 4.44481e-07 0 -6.78846e-07 4.62953e-07 0 -7.55177e-07 4.82862e-07 0 -8.35387e-07 5.04033e-07 0 -9.19803e-07 5.26238e-07 0 -1.00873e-06 5.49176e-07 0 -1.10245e-06 5.72459e-07 0 -1.20119e-06 5.95601e-07 0 -1.30513e-06 6.17996e-07 0 -1.41433e-06 6.38902e-07 0 -1.52874e-06 6.57434e-07 0 -1.64814e-06 6.7255e-07 0 -1.77209e-06 6.83056e-07 0 -1.8999e-06 6.87621e-07 0 -2.03053e-06 6.84807e-07 0 -2.16258e-06 6.73126e-07 0 -2.29424e-06 6.51121e-07 0 -2.42327e-06 6.1746e-07 0 -2.54704e-06 5.71063e-07 0 -2.66258e-06 5.1122e-07 0 -2.76672e-06 4.3769e-07 0 -2.8562e-06 3.50841e-07 0 0 3.90677e-07 0 -5.41904e-08 3.91718e-07 0 -1.08687e-07 3.9478e-07 0 -1.63797e-07 3.99864e-07 0 -2.19832e-07 4.0697e-07 0 -2.77106e-07 4.16097e-07 0 -3.35939e-07 4.27239e-07 0 -3.96659e-07 4.40386e-07 0 -4.59601e-07 4.55514e-07 0 -5.25108e-07 4.72585e-07 0 -5.93531e-07 4.9154e-07 0 -6.65232e-07 5.12292e-07 0 -7.40576e-07 5.34715e-07 0 -8.19934e-07 5.58635e-07 0 -9.03676e-07 5.83816e-07 0 -9.92163e-07 6.09945e-07 0 -1.08574e-06 6.36616e-07 0 -1.18472e-06 6.63308e-07 0 -1.28936e-06 6.89366e-07 0 -1.39983e-06 7.13982e-07 0 -1.51619e-06 7.36175e-07 0 -1.63835e-06 7.54776e-07 0 -1.76597e-06 7.68427e-07 0 -1.89845e-06 7.75595e-07 0 -2.03483e-06 7.74595e-07 0 -2.17371e-06 7.63661e-07 0 -2.31325e-06 7.41029e-07 0 -2.45108e-06 7.05062e-07 0 -2.58433e-06 6.54399e-07 0 -2.70972e-06 5.88114e-07 0 -2.82368e-06 5.05842e-07 0 -2.92254e-06 4.07964e-07 0 0 4.26292e-07 0 -5.27734e-08 4.27438e-07 0 -1.05852e-07 4.30809e-07 0 -1.59543e-07 4.36407e-07 0 -2.14158e-07 4.44236e-07 0 -2.70012e-07 4.54298e-07 0 -3.27429e-07 4.66593e-07 0 -3.86742e-07 4.81114e-07 0 -4.48293e-07 4.97846e-07 0 -5.12439e-07 5.16758e-07 0 -5.79547e-07 5.37797e-07 0 -6.5e-07 5.60884e-07 0 -7.24192e-07 5.85899e-07 0 -8.02533e-07 6.12671e-07 0 -8.85439e-07 6.40967e-07 0 -9.73332e-07 6.70468e-07 0 -1.06663e-06 7.00757e-07 0 -1.16572e-06 7.31289e-07 0 -1.27098e-06 7.61371e-07 0 -1.3827e-06 7.90135e-07 0 -1.50107e-06 8.16508e-07 0 -1.62612e-06 8.392e-07 0 -1.75767e-06 8.56685e-07 0 -1.89524e-06 8.67208e-07 0 -2.03797e-06 8.68817e-07 0 -2.18453e-06 8.59421e-07 0 -2.333e-06 8.36898e-07 0 -2.4809e-06 7.99238e-07 0 -2.62509e-06 7.44726e-07 0 -2.76194e-06 6.72155e-07 0 -2.88737e-06 5.80988e-07 0 -2.99719e-06 4.716e-07 0 0 4.60918e-07 0 -5.12209e-08 4.62168e-07 0 -1.02746e-07 4.65846e-07 0 -1.5488e-07 4.71957e-07 0 -2.07934e-07 4.80508e-07 0 -2.62225e-07 4.91505e-07 0 -3.18078e-07 5.04955e-07 0 -3.75831e-07 5.20858e-07 0 -4.35835e-07 5.39208e-07 0 -4.98456e-07 5.59983e-07 0 -5.64079e-07 5.83142e-07 0 -6.33107e-07 6.08616e-07 0 -7.05967e-07 6.36296e-07 0 -7.83105e-07 6.66025e-07 0 -8.64987e-07 6.97575e-07 0 -9.52099e-07 7.30634e-07 0 -1.04493e-06 7.64782e-07 0 -1.14399e-06 7.99462e-07 0 -1.24974e-06 8.33955e-07 0 -1.36261e-06 8.67342e-07 0 -1.48296e-06 8.98473e-07 0 -1.61098e-06 9.25936e-07 0 -1.74666e-06 9.48038e-07 0 -1.88971e-06 9.62793e-07 0 -2.03939e-06 9.67947e-07 0 -2.19445e-06 9.61045e-07 0 -2.35297e-06 9.39535e-07 0 -2.51232e-06 9.00952e-07 0 -2.6691e-06 8.43138e-07 0 -2.8192e-06 7.64513e-07 0 -2.958e-06 6.64304e-07 0 -3.08063e-06 5.42853e-07 0 0 4.94465e-07 0 -4.95338e-08 4.95818e-07 0 -9.93687e-08 4.99802e-07 0 -1.49808e-07 5.06423e-07 0 -2.01161e-07 5.15692e-07 0 -2.53744e-07 5.27621e-07 0 -3.07884e-07 5.42225e-07 0 -3.63922e-07 5.59513e-07 0 -4.22216e-07 5.79489e-07 0 -4.83141e-07 6.02145e-07 0 -5.47099e-07 6.27454e-07 0 -6.14515e-07 6.55362e-07 0 -6.85843e-07 6.85779e-07 0 -7.6157e-07 7.18563e-07 0 -8.42213e-07 7.53506e-07 0 -9.28323e-07 7.90309e-07 0 -1.02048e-06 8.28561e-07 0 -1.11928e-06 8.6771e-07 0 -1.22532e-06 9.07021e-07 0 -1.3392e-06 9.45542e-07 0 -1.46142e-06 9.82059e-07 0 -1.59241e-06 1.01505e-06 0 -1.73237e-06 1.04266e-06 0 -1.8812e-06 1.06265e-06 0 -2.03838e-06 1.07246e-06 0 -2.20278e-06 1.06919e-06 0 -2.37252e-06 1.04981e-06 0 -2.54485e-06 1.01127e-06 0 -2.71604e-06 9.50871e-07 0 -2.88148e-06 8.66531e-07 0 -3.03583e-06 7.5715e-07 0 -3.17339e-06 6.22999e-07 0 0 5.26843e-07 0 -4.77132e-08 5.28299e-07 0 -9.57237e-08 5.32585e-07 0 -1.44332e-07 5.3971e-07 0 -1.93843e-07 5.49692e-07 0 -2.44573e-07 5.62548e-07 0 -2.96848e-07 5.78301e-07 0 -3.51013e-07 5.96972e-07 0 -4.07429e-07 6.18577e-07 0 -4.66482e-07 6.43125e-07 0 -5.28586e-07 6.70607e-07 0 -5.94187e-07 7.00989e-07 0 -6.63768e-07 7.34205e-07 0 -7.37854e-07 7.70137e-07 0 -8.17014e-07 8.08602e-07 0 -9.01865e-07 8.4933e-07 0 -9.93072e-07 8.91934e-07 0 -1.09134e-06 9.35875e-07 0 -1.19742e-06 9.80427e-07 0 -1.31206e-06 1.02462e-06 0 -1.43599e-06 1.0672e-06 0 -1.56984e-06 1.10655e-06 0 -1.71411e-06 1.14066e-06 0 -1.86896e-06 1.16705e-06 0 -2.03413e-06 1.18279e-06 0 -2.20869e-06 1.18453e-06 0 -2.39088e-06 1.16864e-06 0 -2.57783e-06 1.13138e-06 0 -2.7655e-06 1.06933e-06 0 -2.94866e-06 9.79759e-07 0 -3.12111e-06 8.61115e-07 0 -3.27614e-06 7.13536e-07 0 0 5.57964e-07 0 -4.57607e-08 5.59521e-07 0 -9.18137e-08 5.64104e-07 0 -1.38454e-07 5.71728e-07 0 -1.85984e-07 5.82413e-07 0 -2.34716e-07 5.96186e-07 0 -2.84975e-07 6.13078e-07 0 -3.37105e-07 6.33124e-07 0 -3.91472e-07 6.56356e-07 0 -4.48469e-07 6.82799e-07 0 -5.08521e-07 7.12467e-07 0 -5.72094e-07 7.45353e-07 0 -6.39695e-07 7.81418e-07 0 -7.11887e-07 8.20578e-07 0 -7.89289e-07 8.62686e-07 0 -8.72585e-07 9.0751e-07 0 -9.6253e-07 9.54701e-07 0 -1.05995e-06 1.00376e-06 0 -1.16572e-06 1.05398e-06 0 -1.2808e-06 1.10441e-06 0 -1.40613e-06 1.15377e-06 0 -1.54264e-06 1.20038e-06 0 -1.69112e-06 1.24208e-06 0 -1.85209e-06 1.27617e-06 0 -2.02565e-06 1.29936e-06 0 -2.21117e-06 1.30775e-06 0 -2.40705e-06 1.29702e-06 0 -2.61042e-06 1.26259e-06 0 -2.8169e-06 1.20012e-06 0 -3.02056e-06 1.10602e-06 0 -3.21414e-06 9.7808e-07 0 -3.38962e-06 8.16235e-07 0 0 5.87741e-07 0 -4.36788e-08 5.89396e-07 0 -8.76433e-08 5.94272e-07 0 -1.32183e-07 6.02385e-07 0 -1.77593e-07 6.13761e-07 0 -2.24182e-07 6.28436e-07 0 -2.72272e-07 6.46453e-07 0 -3.22206e-07 6.67859e-07 0 -3.7435e-07 6.92705e-07 0 -4.29101e-07 7.21037e-07 0 -4.86896e-07 7.52895e-07 0 -5.48214e-07 7.883e-07 0 -6.13587e-07 8.27251e-07 0 -6.8361e-07 8.69703e-07 0 -7.58951e-07 9.15556e-07 0 -8.40358e-07 9.64629e-07 0 -9.28674e-07 1.01663e-06 0 -1.02484e-06 1.07111e-06 0 -1.1299e-06 1.12742e-06 0 -1.24498e-06 1.18465e-06 0 -1.37131e-06 1.24154e-06 0 -1.51011e-06 1.29636e-06 0 -1.66255e-06 1.34687e-06 0 -1.8296e-06 1.39014e-06 0 -2.0118e-06 1.42251e-06 0 -2.20897e-06 1.43951e-06 0 -2.41982e-06 1.43599e-06 0 -2.64156e-06 1.40637e-06 0 -2.86949e-06 1.3451e-06 0 -3.09689e-06 1.24744e-06 0 -3.31521e-06 1.11029e-06 0 -3.51476e-06 9.33225e-07 0 0 6.16088e-07 0 -4.14702e-08 6.1784e-07 0 -8.3218e-08 6.23001e-07 0 -1.25525e-07 6.31591e-07 0 -1.6868e-07 6.43642e-07 0 -2.12983e-07 6.592e-07 0 -2.58753e-07 6.7832e-07 0 -3.06327e-07 7.01064e-07 0 -3.56071e-07 7.27503e-07 0 -4.08385e-07 7.57706e-07 0 -4.6371e-07 7.91742e-07 0 -5.22537e-07 8.29668e-07 0 -5.85418e-07 8.71522e-07 0 -6.52977e-07 9.1731e-07 0 -7.25924e-07 9.66987e-07 0 -8.05069e-07 1.02044e-06 0 -8.91338e-07 1.07744e-06 0 -9.85788e-07 1.13763e-06 0 -1.08962e-06 1.20044e-06 0 -1.20418e-06 1.26503e-06 0 -1.33094e-06 1.3302e-06 0 -1.47151e-06 1.39425e-06 0 -1.62748e-06 1.45486e-06 0 -1.80035e-06 1.50895e-06 0 -1.99125e-06 1.55249e-06 0 -2.20062e-06 1.5804e-06 0 -2.42766e-06 1.58663e-06 0 -2.66983e-06 1.56431e-06 0 -2.92221e-06 1.5064e-06 0 -3.17719e-06 1.40659e-06 0 -3.42462e-06 1.26048e-06 0 -3.65264e-06 1.06709e-06 0 0 6.42923e-07 0 -3.91386e-08 6.44769e-07 0 -7.8545e-08 6.50206e-07 0 -1.18491e-07 6.59258e-07 0 -1.59257e-07 6.71965e-07 0 -2.01134e-07 6.88381e-07 0 -2.44433e-07 7.08575e-07 0 -2.89486e-07 7.32627e-07 0 -3.36654e-07 7.60626e-07 0 -3.86335e-07 7.9267e-07 0 -4.38972e-07 8.28858e-07 0 -4.95065e-07 8.69287e-07 0 -5.55177e-07 9.14041e-07 0 -6.19957e-07 9.63183e-07 0 -6.90151e-07 1.01673e-06 0 -7.66624e-07 1.07466e-06 0 -8.50378e-07 1.13683e-06 0 -9.42581e-07 1.20298e-06 0 -1.04459e-06 1.27265e-06 0 -1.15795e-06 1.34514e-06 0 -1.28446e-06 1.41933e-06 0 -1.42607e-06 1.49363e-06 0 -1.58489e-06 1.56573e-06 0 -1.76306e-06 1.63243e-06 0 -1.96245e-06 1.6894e-06 0 -2.18433e-06 1.73096e-06 0 -2.42867e-06 1.75002e-06 0 -2.69344e-06 1.73821e-06 0 -2.97365e-06 1.68652e-06 0 -3.26076e-06 1.58653e-06 0 -3.54263e-06 1.432e-06 0 -3.80458e-06 1.22101e-06 0 0 6.68166e-07 0 -3.66882e-08 6.70101e-07 0 -7.36328e-08 6.75803e-07 0 -1.11094e-07 6.853e-07 0 -1.49341e-07 6.98638e-07 0 -1.88655e-07 7.15883e-07 0 -2.29336e-07 7.37116e-07 0 -2.71707e-07 7.62434e-07 0 -3.16122e-07 7.91951e-07 0 -3.62975e-07 8.25791e-07 0 -4.12704e-07 8.64088e-07 0 -4.65811e-07 9.06981e-07 0 -5.22869e-07 9.54607e-07 0 -5.8454e-07 1.00709e-06 0 -6.51599e-07 1.06453e-06 0 -7.24954e-07 1.12698e-06 0 -8.05676e-07 1.19443e-06 0 -8.95033e-07 1.26674e-06 0 -9.94523e-07 1.3436e-06 0 -1.10591e-06 1.42446e-06 0 -1.23127e-06 1.50839e-06 0 -1.37298e-06 1.59395e-06 0 -1.53371e-06 1.67895e-06 0 -1.71632e-06 1.76019e-06 0 -1.92362e-06 1.83313e-06 0 -2.15796e-06 1.89152e-06 0 -2.42047e-06 1.92717e-06 0 -2.71001e-06 1.92995e-06 0 -3.02185e-06 1.88835e-06 0 -3.34652e-06 1.79101e-06 0 -3.66946e-06 1.629e-06 0 -3.97223e-06 1.39897e-06 0 0 6.91738e-07 0 -3.41242e-08 6.93759e-07 0 -6.84916e-08 6.99713e-07 0 -1.03349e-07 7.09634e-07 0 -1.38952e-07 7.23576e-07 0 -1.7557e-07 7.41612e-07 0 -2.1349e-07 7.6384e-07 0 -2.53023e-07 7.90375e-07 0 -2.94512e-07 8.21354e-07 0 -3.3834e-07 8.56929e-07 0 -3.8494e-07 8.97273e-07 0 -4.34808e-07 9.42569e-07 0 -4.88517e-07 9.9301e-07 0 -5.46737e-07 1.04879e-06 0 -6.1026e-07 1.1101e-06 0 -6.80024e-07 1.17708e-06 0 -7.57154e-07 1.24986e-06 0 -8.43001e-07 1.32846e-06 0 -9.39193e-07 1.41275e-06 0 -1.04769e-06 1.50239e-06 0 -1.17085e-06 1.5967e-06 0 -1.31147e-06 1.69449e-06 0 -1.47282e-06 1.7938e-06 0 -1.6586e-06 1.8916e-06 0 -1.87273e-06 1.98327e-06 0 -2.11899e-06 2.06216e-06 0 -2.40011e-06 2.11898e-06 0 -2.71645e-06 2.14155e-06 0 -3.0641e-06 2.11522e-06 0 -3.43286e-06 2.02462e-06 0 -3.8052e-06 1.8568e-06 0 -4.15759e-06 1.60605e-06 0 0 7.13567e-07 0 -3.14526e-08 7.15668e-07 0 -6.3133e-08 7.21861e-07 0 -9.52734e-08 7.32182e-07 0 -1.28114e-07 7.46693e-07 0 -1.61909e-07 7.65479e-07 0 -1.96929e-07 7.88651e-07 0 -2.33471e-07 8.16342e-07 0 -2.71865e-07 8.48713e-07 0 -3.12477e-07 8.85949e-07 0 -3.55729e-07 9.28257e-07 0 -4.02104e-07 9.75869e-07 0 -4.52168e-07 1.02904e-06 0 -5.06588e-07 1.08803e-06 0 -5.66159e-07 1.15313e-06 0 -6.31836e-07 1.2246e-06 0 -7.04777e-07 1.3027e-06 0 -7.86394e-07 1.38764e-06 0 -8.7842e-07 1.4795e-06 0 -9.82984e-07 1.57821e-06 0 -1.1027e-06 1.68342e-06 0 -1.24078e-06 1.7943e-06 0 -1.40111e-06 1.90927e-06 0 -1.58829e-06 2.02564e-06 0 -1.80756e-06 2.13902e-06 0 -2.06445e-06 2.24255e-06 0 -2.36392e-06 2.32599e-06 0 -2.7087e-06 2.37499e-06 0 -3.09662e-06 2.37099e-06 0 -3.5173e-06 2.29307e-06 0 -3.94969e-06 2.12223e-06 0 -4.36333e-06 1.84887e-06 0 0 7.33583e-07 0 -2.86799e-08 7.35759e-07 0 -5.75706e-08 7.42174e-07 0 -8.68873e-08 7.52868e-07 0 -1.16853e-07 7.67911e-07 0 -1.47703e-07 7.87398e-07 0 -1.79693e-07 8.11453e-07 0 -2.131e-07 8.40229e-07 0 -2.48234e-07 8.73911e-07 0 -2.85445e-07 9.12713e-07 0 -3.25134e-07 9.56883e-07 0 -3.67767e-07 1.0067e-06 0 -4.13891e-07 1.06248e-06 0 -4.6416e-07 1.12456e-06 0 -5.19356e-07 1.19332e-06 0 -5.80434e-07 1.26917e-06 0 -6.48563e-07 1.3525e-06 0 -7.25187e-07 1.44372e-06 0 -8.12108e-07 1.54318e-06 0 -9.11581e-07 1.65113e-06 0 -1.02644e-06 1.7676e-06 0 -1.16027e-06 1.89223e-06 0 -1.31753e-06 2.02404e-06 0 -1.50377e-06 2.16093e-06 0 -1.72568e-06 2.29904e-06 0 -1.99093e-06 2.43173e-06 0 -2.30742e-06 2.54823e-06 0 -2.68143e-06 2.63205e-06 0 -3.11409e-06 2.65999e-06 0 -3.59603e-06 2.60351e-06 0 -4.10238e-06 2.43435e-06 0 -4.5927e-06 2.13626e-06 0 0 7.51721e-07 0 -2.58136e-08 7.53966e-07 0 -5.18195e-08 7.60584e-07 0 -7.82134e-08 7.71622e-07 0 -1.05199e-07 7.87154e-07 0 -1.32993e-07 8.07286e-07 0 -1.61829e-07 8.32157e-07 0 -1.91964e-07 8.61937e-07 0 -2.23684e-07 8.96835e-07 0 -2.57316e-07 9.37094e-07 0 -2.93236e-07 9.83e-07 0 -3.31884e-07 1.03488e-06 0 -3.7378e-07 1.09311e-06 0 -4.19551e-07 1.15812e-06 0 -4.69953e-07 1.23037e-06 0 -5.25916e-07 1.3104e-06 0 -5.88594e-07 1.39879e-06 0 -6.59431e-07 1.49614e-06 0 -7.40252e-07 1.60309e-06 0 -8.33384e-07 1.72024e-06 0 -9.41815e-07 1.8481e-06 0 -1.0694e-06 1.98693e-06 0 -1.22115e-06 2.13647e-06 0 -1.40348e-06 2.29555e-06 0 -1.62461e-06 2.4613e-06 0 -1.89464e-06 2.62792e-06 0 -2.22519e-06 2.78481e-06 0 -2.62768e-06 2.91388e-06 0 -3.10894e-06 2.98684e-06 0 -3.66317e-06 2.96496e-06 0 -4.26175e-06 2.80546e-06 0 -4.85073e-06 2.48042e-06 0 0 7.67922e-07 0 -2.28622e-08 7.70229e-07 0 -4.58961e-08 7.77032e-07 0 -6.9277e-08 7.8838e-07 0 -9.31874e-08 8.04354e-07 0 -1.17821e-07 8.25071e-07 0 -1.4339e-07 8.50681e-07 0 -1.70124e-07 8.81373e-07 0 -1.98286e-07 9.17377e-07 0 -2.28172e-07 9.58966e-07 0 -2.60129e-07 1.00646e-06 0 -2.94562e-07 1.06024e-06 0 -3.31955e-07 1.12074e-06 0 -3.72892e-07 1.18845e-06 0 -4.18089e-07 1.26396e-06 0 -4.6843e-07 1.34793e-06 0 -5.25021e-07 1.44108e-06 0 -5.89267e-07 1.54428e-06 0 -6.62963e-07 1.65844e-06 0 -7.48439e-07 1.78457e-06 0 -8.4874e-07 1.92371e-06 0 -9.67897e-07 2.07681e-06 0 -1.11128e-06 2.24459e-06 0 -1.28609e-06 2.42708e-06 0 -1.50195e-06 2.62297e-06 0 -1.77154e-06 2.82815e-06 0 -2.11092e-06 3.0334e-06 0 -2.53846e-06 3.22036e-06 0 -3.0704e-06 3.35608e-06 0 -3.70916e-06 3.38872e-06 0 -4.42506e-06 3.25286e-06 0 -5.14271e-06 2.89862e-06 0 0 7.82132e-07 0 -1.98346e-08 7.84494e-07 0 -3.98189e-08 7.9146e-07 0 -6.01056e-08 8.03081e-07 0 -8.08543e-08 8.19447e-07 0 -1.02235e-07 8.40681e-07 0 -1.24433e-07 8.66947e-07 0 -1.47652e-07 8.98449e-07 0 -1.72123e-07 9.35438e-07 0 -1.98112e-07 9.78215e-07 0 -2.25925e-07 1.02713e-06 0 -2.55929e-07 1.08262e-06 0 -2.8856e-07 1.14516e-06 0 -3.24349e-07 1.21533e-06 0 -3.6395e-07 1.2938e-06 0 -4.08179e-07 1.38136e-06 0 -4.58066e-07 1.47892e-06 0 -5.1493e-07 1.58755e-06 0 -5.80478e-07 1.70847e-06 0 -6.56957e-07 1.84312e-06 0 -7.47359e-07 1.99308e-06 0 -8.55727e-07 2.16014e-06 0 -9.87598e-07 2.34609e-06 0 -1.15065e-06 2.55254e-06 0 -1.35565e-06 2.78027e-06 0 -1.61768e-06 3.02797e-06 0 -1.95754e-06 3.28954e-06 0 -2.40249e-06 3.54896e-06 0 -2.98291e-06 3.77083e-06 0 -3.71894e-06 3.88887e-06 0 -4.58521e-06 3.80133e-06 0 -5.48191e-06 3.41783e-06 0 0 7.94305e-07 0 -1.67406e-08 7.96714e-07 0 -3.36073e-08 8.03819e-07 0 -5.07291e-08 8.15676e-07 0 -6.82407e-08 8.32378e-07 0 -8.62862e-08 8.54057e-07 0 -1.05022e-07 8.80888e-07 0 -1.24624e-07 9.13089e-07 0 -1.45287e-07 9.50931e-07 0 -1.67241e-07 9.94736e-07 0 -1.90751e-07 1.04489e-06 0 -2.16132e-07 1.10186e-06 0 -2.43766e-07 1.16619e-06 0 -2.74118e-07 1.23851e-06 0 -3.07764e-07 1.3196e-06 0 -3.45427e-07 1.41035e-06 0 -3.88029e-07 1.51184e-06 0 -4.36758e-07 1.62535e-06 0 -4.93171e-07 1.75241e-06 0 -5.59341e-07 1.89484e-06 0 -6.38071e-07 2.05485e-06 0 -7.33224e-07 2.23503e-06 0 -8.50219e-07 2.43843e-06 0 -9.96821e-07 2.66843e-06 0 -1.18436e-06 2.92849e-06 0 -1.42966e-06 3.22117e-06 0 -1.75792e-06 3.54589e-06 0 -2.20612e-06 3.89284e-06 0 -2.82502e-06 4.23073e-06 0 -3.66577e-06 4.48074e-06 0 -4.73182e-06 4.49015e-06 0 -5.87294e-06 4.07699e-06 0 0 8.04399e-07 0 -1.35905e-08 8.06847e-07 0 -2.72824e-08 8.14068e-07 0 -4.11794e-08 8.26119e-07 0 -5.53899e-08 8.43098e-07 0 -7.00304e-08 8.65146e-07 0 -8.52277e-08 8.92444e-07 0 -1.01124e-07 9.25226e-07 0 -1.17879e-07 9.63775e-07 0 -1.3568e-07 1.00844e-06 0 -1.54746e-07 1.05963e-06 0 -1.75336e-07 1.11784e-06 0 -1.97767e-07 1.18367e-06 0 -2.22427e-07 1.25781e-06 0 -2.49798e-07 1.34111e-06 0 -2.8049e-07 1.43458e-06 0 -3.15282e-07 1.53943e-06 0 -3.55191e-07 1.65714e-06 0 -4.01559e-07 1.78951e-06 0 -4.56189e-07 1.93877e-06 0 -5.21558e-07 2.10766e-06 0 -6.01124e-07 2.29961e-06 0 -6.99863e-07 2.51891e-06 0 -8.25073e-07 2.77089e-06 0 -9.87841e-07 3.062e-06 0 -1.20549e-06 3.3998e-06 0 -1.5058e-06 3.7912e-06 0 -1.93502e-06 4.23922e-06 0 -2.56613e-06 4.72541e-06 0 -3.50873e-06 5.18011e-06 0 -4.82803e-06 5.37492e-06 0 -6.37436e-06 4.96268e-06 0 0 8.12382e-07 0 -1.03954e-08 8.1486e-07 0 -2.08663e-08 8.2217e-07 0 -3.149e-08 8.34372e-07 0 -4.23478e-08 8.51568e-07 0 -5.35268e-08 8.73903e-07 0 -6.51223e-08 9.01566e-07 0 -7.72413e-08 9.34801e-07 0 -9.00058e-08 9.73905e-07 0 -1.03557e-07 1.01924e-06 0 -1.18063e-07 1.07125e-06 0 -1.33722e-07 1.13044e-06 0 -1.50779e-07 1.19746e-06 0 -1.69534e-07 1.27305e-06 0 -1.9036e-07 1.35812e-06 0 -2.13735e-07 1.45376e-06 0 -2.40271e-07 1.56132e-06 0 -2.7077e-07 1.68243e-06 0 -3.06297e-07 1.81913e-06 0 -3.48304e-07 1.97398e-06 0 -3.98789e-07 2.15024e-06 0 -4.60611e-07 2.35206e-06 0 -5.37898e-07 2.58491e-06 0 -6.36933e-07 2.85592e-06 0 -7.67448e-07 3.1748e-06 0 -9.45395e-07 3.55409e-06 0 -1.19836e-06 4.01109e-06 0 -1.57516e-06 4.56465e-06 0 -2.17367e-06 5.23168e-06 0 -3.1625e-06 5.97524e-06 0 -4.83199e-06 6.5713e-06 0 -6.94441e-06 6.18234e-06 0 0 8.18227e-07 0 -7.1665e-09 8.20726e-07 0 -1.43819e-08 8.28099e-07 0 -2.16963e-08 8.40407e-07 0 -2.91626e-08 8.57756e-07 0 -3.68374e-08 8.80293e-07 0 -4.47835e-08 9.08215e-07 0 -5.30713e-08 9.41771e-07 0 -6.17818e-08 9.8127e-07 0 -7.10094e-08 1.02709e-06 0 -8.08662e-08 1.07967e-06 0 -9.1487e-08 1.13957e-06 0 -1.03037e-07 1.20745e-06 0 -1.15719e-07 1.28408e-06 0 -1.29791e-07 1.37043e-06 0 -1.45578e-07 1.46765e-06 0 -1.63503e-07 1.57719e-06 0 -1.8412e-07 1.7008e-06 0 -2.08173e-07 1.8407e-06 0 -2.36669e-07 1.99972e-06 0 -2.71039e-07 2.18148e-06 0 -3.13278e-07 2.39078e-06 0 -3.6644e-07 2.63394e-06 0 -4.35024e-07 2.91992e-06 0 -5.26474e-07 3.26046e-06 0 -6.53207e-07 3.67469e-06 0 -8.37116e-07 4.18595e-06 0 -1.12437e-06 4.8414e-06 0 -1.60611e-06 5.68879e-06 0 -2.53537e-06 6.82162e-06 0 -4.48347e-06 8.16286e-06 0 -7.99436e-06 8.28067e-06 0 0 8.21915e-07 0 -3.91562e-09 8.24427e-07 0 -7.85293e-09 8.31836e-07 0 -1.18343e-08 8.44204e-07 0 -1.58833e-08 8.6164e-07 0 -2.00259e-08 8.84293e-07 0 -2.42909e-08 9.12363e-07 0 -2.87112e-08 9.46104e-07 0 -3.33253e-08 9.85831e-07 0 -3.81787e-08 1.03193e-06 0 -4.33262e-08 1.08485e-06 0 -4.88343e-08 1.14517e-06 0 -5.47853e-08 1.21355e-06 0 -6.12817e-08 1.2908e-06 0 -6.84525e-08 1.37791e-06 0 -7.64643e-08 1.47609e-06 0 -8.55299e-08 1.58682e-06 0 -9.59379e-08 1.71195e-06 0 -1.08058e-07 1.85381e-06 0 -1.22436e-07 2.01537e-06 0 -1.39758e-07 2.20056e-06 0 -1.61167e-07 2.41443e-06 0 -1.88086e-07 2.66431e-06 0 -2.2315e-07 2.95912e-06 0 -2.70242e-07 3.31541e-06 0 -3.35319e-07 3.74814e-06 0 -4.35735e-07 4.30822e-06 0 -5.809e-07 5.00761e-06 0 -8.89119e-07 6.07332e-06 0 -1.39547e-06 7.40465e-06 0 -3.48347e-06 1.03651e-05 0 -9.16602e-06 1.21781e-05 0 0 8.23438e-07 0 -6.55146e-10 8.25952e-07 0 -1.30449e-09 8.33369e-07 0 -1.94226e-09 8.45751e-07 0 -2.56274e-09 8.63207e-07 0 -3.16033e-09 8.85887e-07 0 -3.72961e-09 9.13993e-07 0 -4.26544e-09 9.4778e-07 0 -4.76306e-09 9.87565e-07 0 -5.21814e-09 1.03373e-06 0 -5.62696e-09 1.08675e-06 0 -5.98621e-09 1.14718e-06 0 -6.29352e-09 1.21571e-06 0 -6.54634e-09 1.29315e-06 0 -6.74452e-09 1.38049e-06 0 -6.88413e-09 1.47897e-06 0 -6.97177e-09 1.59007e-06 0 -6.99174e-09 1.71569e-06 0 -6.9794e-09 1.85817e-06 0 -6.86174e-09 2.02061e-06 0 -6.79148e-09 2.20681e-06 0 -6.48488e-09 2.42257e-06 0 -6.42104e-09 2.67374e-06 0 -6.05188e-09 2.97422e-06 0 -5.11991e-09 3.32885e-06 0 -8.6477e-09 3.78702e-06 0 7.02483e-09 4.31392e-06 0 -4.67678e-08 5.16468e-06 0 1.25948e-07 5.95494e-06 0 -4.23141e-07 8.34804e-06 0 1.39896e-06 9.49433e-06 0 -1.70973e-05 2.95814e-05 0 </DataArray> 
</PointData> 
<Points> 
<DataArray type="Float32" NumberOfComponents="3"> 