<?xml version="1.0"?> 
<VTKFile type="StructuredGrid" version="0.1"> 
<StructuredGrid WholeExtent="0 31 0 31 0 0"> 
<Piece Extent="0 31 0 31 0 0"> 
<PointData>
<DataArray type="Float32" Name="u" format="ascii" NumberOfComponents="3"> 
0 0 0 4.28293e-05 -3.48844e-05 0 7.29448e-05 -5.07694e-05 0 0.000101812 -6.03246e-05 0 0.000130785 -6.59704e-05 0 0.000160325 -6.929e-05 0 0.000190458 -7.10872e-05 0 0.000221179 -7.19827e-05 0 0.000252364 -7.23363e-05 0 0.000283921 -7.23995e-05 0 0.000315744 -7.23198e-05 0 0.000347756 -7.21863e-05 0 0.000379892 -7.20464e-05 0 0.000412109 -7.1923e-05 0 0.000444373 -7.18242e-05 0 0.000476663 -7.17503e-05 0 0.000508967 -7.16982e-05 0 0.000541276 -7.16632e-05 0 0.000573586 -7.16409e-05 0 0.000605894 -7.16275e-05 0 0.0006382 -7.162e-05 0 0.000670503 -7.1616e-05 0 0.000702803 -7.16141e-05 0 0.0007351 -7.16131e-05 0 0.000767394 -7.16125e-05 0 0.000799686 -7.16119e-05 0 0.000831976 -7.1611e-05 0 0.000864263 -7.16099e-05 0 0.000896548 -7.16084e-05 0 0.000928832 -7.16066e-05 0 0.000961113 -7.16043e-05 0 0.000993394 -7.16011e-05 0 0 0 0 0 0 0 0 0 0 0 0 0 0 0 0 0 0 0 0 0 0 0 0 0 0 0 0 0 0 0 0 0 0 0 0 0 0 0 0 0 0 0 0 0 0 0 0 0 0 0 0 0 0 0 0 0 0 0 0 0 0 0 0 0 0 0 0 0 0 0 0 0 0 0 0 0 0 0 0 0 0 0 0 0 0 0 0 0 0 0 0 0 0 0 0 0 0 0 0 0 0 0 0 0 0 0 0 0 0 0 0 0 0 0 0 0 0 0 0 0 0 0 0 0 0 0 0 0 0 0 0 0 0 0 0 0 0 0 0 0 0 0 0 0 0 0 0 0 0 0 0 0 0 0 0 0 0 0 0 0 0 0 0 0 0 0 0 0 0 0 0 0 0 0 0 0 0 0 0 0 0 0 0 0 0 0 0 0 0 0 0 0 0 0 0 0 0 0 0 0 0 0 0 0 0 0 0 0 0 0 0 0 0 0 0 0 0 0 0 0 0 0 0 0 0 0 0 0 0 0 0 0 0 0 0 0 0 0 0 0 0 0 0 0 0 0 0 0 0 0 0 0 0 0 0 0 0 0 0 0 0 0 0 0 0 0 0 0 0 0 0 0 0 0 0 0 0 0 0 0 0 0 0 0 0 0 0 0 0 0 0 0 0 0 0 0 0 0 0 0 0 0 0 0 0 0 0 0 0 0 0 0 0 0 0 0 0 0 0 0 0 0 0 0 0 0 0 0 0 0 0 0 0 0 0 0 0 0 0 0 0 0 0 0 0 0 0 0 0 0 0 0 0 0 0 0 0 0 0 0 0 0 0 0 0 0 0 0 0 0 0 0 0 0 0 0 0 0 0 0 0 0 0 0 0 0 0 0 0 0 0 0 0 0 0 0 0 0 0 0 0 0 0 0 0 0 0 0 0 0 0 0 0 0 0 0 0 0 0 0 0 0 0 0 0 0 0 0 0 0 0 0 0 0 0 0 0 0 0 0 0 0 0 0 0 0 0 0 0 0 0 0 0 0 0 0 0 0 0 0 0 0 0 0 0 0 0 0 0 0 0 0 0 0 0 0 0 0 0 0 0 0 0 0 0 0 0 0 0 0 0 0 0 0 0 0 0 0 0 0 0 0 0 0 0 0 0 0 0 0 0 0 0 0 0 0 0 0 0 0 0 0 0 0 0 0 0 0 0 0 0 0 0 0 0 0 0 0 0 0 0 0 0 0 0 0 0 0 0 0 0 0 0 0 0 0 0 0 0 0 0 0 0 0 0 0 0 0 0 0 0 0 0 0 0 0 0 0 0 0 0 0 0 0 0 0 0 0 0 0 0 0 0 0 0 0 0 0 0 0 0 0 0 0 0 0 0 0 0 0 0 0 0 0 0 0 0 0 0 0 0 0 0 0 0 0 0 0 0 0 0 0 0 0 0 0 0 0 0 0 0 0 0 0 0 0 0 0 0 0 0 0 0 0 0 0 0 0 0 0 0 0 0 0 0 0 0 0 0 0 0 0 0 0 0 0 0 0 0 0 0 0 0 0 0 0 0 0 0 0 0 0 0 0 0 0 0 0 0 0 0 0 0 0 0 0 0 0 0 0 0 0 0 0 0 0 0 0 0 0 0 0 0 0 0 0 0 0 0 0 0 0 0 0 0 0 0 0 0 0 0 0 0 0 0 0 0 0 0 0 0 0 0 0 0 0 0 0 0 0 0 0 0 0 0 0 0 0 0 0 0 0 0 0 0 0 0 0 0 0 0 0 0 0 0 0 0 0 0 0 0 0 0 0 0 0 0 0 0 0 0 0 0 0 0 0 0 0 0 0 0 0 0 0 0 0 0 0 0 0 0 0 0 0 0 0 0 0 0 0 0 0 0 0 0 0 0 0 0 0 0 0 0 0 0 0 0 0 0 0 0 0 0 0 0 0 0 0 0 0 0 0 0 0 0 0 0 0 0 0 0 0 0 0 0 0 0 0 0 0 0 0 0 0 0 0 0 0 0 0 0 0 0 0 0 0 0 0 0 0 0 0 0 0 0 0 0 0 0 0 0 0 0 0 0 0 0 0 0 0 0 0 0 0 0 0 0 0 0 0 0 0 0 0 0 0 0 0 0 0 0 0 0 0 0 0 0 0 0 0 0 0 0 0 0 0 0 0 0 0 0 0 0 0 0 0 0 0 0 0 0 0 0 0 0 0 0 0 0 0 0 0 0 0 0 0 0 0 0 0 0 0 0 0 0 0 0 0 0 0 0 0 0 0 0 0 0 0 0 0 0 0 0 0 0 0 0 0 0 0 0 0 0 0 0 0 0 0 0 0 0 0 0 0 0 0 0 0 0 0 0 0 0 0 0 0 0 0 0 0 0 0 0 0 0 0 0 0 0 0 0 0 0 0 0 0 0 0 0 0 0 0 0 0 0 0 0 0 0 0 0 0 0 0 0 0 0 0 0 0 0 0 0 0 0 0 0 0 0 0 0 0 0 0 0 0 0 0 0 0 0 0 0 0 0 0 0 0 0 0 0 0 0 0 0 0 0 0 0 0 0 0 0 0 0 0 0 0 0 0 0 0 0 0 0 0 0 0 0 0 0 0 0 0 0 0 0 0 0 0 0 0 0 0 0 0 0 0 0 0 0 0 0 0 0 0 0 0 0 0 0 0 0 0 0 0 0 0 0 0 0 0 0 0 0 0 0 0 0 0 0 0 0 0 0 0 0 0 0 0 0 0 0 0 0 0 0 0 0 0 0 0 0 0 0 0 0 0 0 0 0 0 0 0 0 0 0 0 0 0 0 0 0 0 0 0 0 0 0 0 0 0 0 0 0 0 0 0 0 0 0 0 0 0 0 0 0 0 0 0 0 0 0 0 0 0 0 0 0 0 0 0 0 0 0 0 0 0 0 0 0 0 0 0 0 0 0 0 0 0 0 0 0 0 0 0 0 0 0 0 0 0 0 0 0 0 0 0 0 0 0 0 0 0 0 0 0 0 0 0 0 0 0 0 0 0 0 0 0 0 0 0 0 0 0 0 0 0 0 0 0 0 0 0 0 0 0 0 0 0 0 0 0 0 0 0 0 0 0 0 0 0 0 0 0 0 0 0 0 0 0 0 0 0 0 0 0 0 0 0 0 0 0 0 0 0 0 0 0 0 0 0 0 0 0 0 0 0 0 0 0 0 0 0 0 0 0 0 0 0 0 0 0 0 0 0 0 0 0 0 0 0 0 0 0 0 0 0 0 0 0 0 0 0 0 0 0 0 0 0 0 0 0 0 0 0 0 0 0 0 0 0 0 0 0 0 0 0 0 0 0 0 0 0 0 0 0 0 0 0 0 0 0 0 0 0 0 0 0 0 0 0 0 0 0 0 0 0 0 0 0 0 0 0 0 0 0 0 0 0 0 0 0 0 0 0 0 0 0 0 0 0 0 0 0 0 0 0 0 0 0 0 0 0 0 0 0 0 0 0 0 0 0 0 0 0 0 0 0 0 0 0 0 0 0 0 0 0 0 0 0 0 0 0 0 0 0 0 0 0 0 0 0 0 0 0 0 0 0 0 0 0 0 0 0 0 0 0 0 0 0 0 0 0 0 0 0 0 0 0 0 0 0 0 0 0 0 0 0 0 0 0 0 0 0 0 0 0 0 0 0 0 0 0 0 0 0 0 0 0 0 0 0 0 0 0 0 0 0 0 0 0 0 0 0 0 0 0 0 0 0 0 0 0 0 0 0 0 0 0 0 0 0 0 0 0 0 0 0 0 0 0 0 0 0 0 0 0 0 0 0 0 0 0 0 0 0 0 0 0 0 0 0 0 0 0 0 0 0 0 0 0 0 0 0 0 0 0 0 0 0 0 0 0 0 0 0 0 0 0 0 0 0 0 0 0 0 0 0 0 0 0 0 0 0 0 0 0 0 0 0 0 0 0 0 0 0 0 0 0 0 0 0 0 0 0 0 0 0 0 0 0 0 0 0 0 0 0 0 0 0 0 0 0 0 0 0 0 0 0 0 0 0 0 0 0 0 0 0 0 0 0 0 0 0 0 0 0 0 0 0 0 0 0 0 0 0 0 0 0 0 0 0 0 0 0 0 0 0 0 0 0 0 0 0 0 0 0 0 0 0 0 0 0 0 0 0 0 0 0 0 0 0 0 0 0 0 0 0 0 0 0 0 0 0 0 0 0 0 0 0 0 0 0 0 0 0 0 0 0 0 0 0 0 0 0 0 0 0 0 0 0 0 0 0 0 0 0 0 0 0 0 0 0 0 0 0 0 0 0 0 0 0 0 0 0 0 0 0 0 0 0 0 0 0 0 0 0 0 0 0 0 0 0 0 0 0 0 0 0 0 0 0 0 0 0 0 0 0 0 0 0 0 0 0 0 0 0 0 0 0 0 0 0 0 0 0 0 0 0 0 0 0 0 0 0 0 0 0 0 0 0 0 0 0 0 0 0 0 0 0 0 0 0 0 0 0 0 0 0 0 0 0 0 0 0 0 0 0 0 0 0 0 0 0 0 0 0 0 0 0 0 0 0 0 0 0 0 0 0 0 0 0 0 0 0 0 0 0 0 0 0 0 0 0 0 0 0 0 0 0 0 0 0 0 0 0 0 0 0 0 0 0 0 0 0 0 0 0 0 0 0 0 0 0 0 0 0 0 0 0 0 0 0 0 0 0 0 0 0 0 0 0 0 0 0 0 0 0 0 0 0 0 0 0 0 0 0 0 0 0 0 0 0 0 0 0 0 0 0 0 0 0 0 0 0 0 0 0 0 0 0 0 0 0 0 0 0 0 0 0 0 0 0 0 0 0 0 0 0 0 0 0 0 0 0 0 0 0 0 0 0 0 0 0 0 0 0 0 0 0 0 0 0 0 0 0 0 0 0 0 0 0 0 0 0 0 0 0 0 0 0 0 0 0 0 0 0 0 0 0 0 0 0 0 0 0 0 0 0 0 0 0 0 0 0 0 0 0 0 0 0 0 0 0 0 0 0 0 0 0 0 0 0 0 0 0 0 0 0 0 0 0 0 0 0 0 0 0 0 0 0 0 0 0 0 0 0 0 0 0 0 0 0 0 0 0 0 0 0 0 0 0 0 0 0 0 0 0 0 0 0 0 0 0 0 0 0 0 0 0 0 0 0 0 0 0 0 0 0 0 0 0 0 0 0 0 0 0 0 0 0 0 0 0 0 0 0 0 0 0 0 0 0 0 0 0 0 0 0 0 0 0 0 0 0 0 0 0 0 0 0 0 0 0 0 0 0 0 0 0 0 0 0 0 0 0 0 0 0 0 0 0 0 0 0 0 0 0 0 0 0 0 0 0 0 0 0 0 0 0 0 0 0 0 0 0 0 0 0 0 0 0 0 0 0 0 0 0 0 0 0 0 0 0 0 0 0 0 0 0 0 0 0 0 0 0 0 0 0 0 0 0 0 0 0 0 0 0 0 0 0 0 0 0 0 0 0 0 0 0 0 0 0 0 0 0 0 0 0 0 0 0 0 0 0 0 0 0 0 0 0 0 0 0 0 0 0 0 0 0 0 0 0 0 0 0 0 0 0 0 0 0 0 0 0 0 0 0 0 0 0 0 0 0 0 0 0 0 0 0 0 0 0 0 0 0 0 0 0 0 0 0 0 0 0 0 0 0 0 0 0 0 0 0 0 0 0 0 0 0 0 0 0 0 0 0 0 0 0 0 0 0 0 0 0 0 0 0 0 0 0 0 0 0 0 0 0 0 0 0 0 0 0 0 0 0 0 0 0 0 0 0 0 0 0 0 0 0 0 0 0 0 0 0 0 0 0 0 0 0 0 0 0 0 0 0 0 0 0 0 0 0 0 0 0 0 0 0 0 0 0 0 0 0 0 0 0 0 0 0 0 0 0 0 0 0 0 0 0 0 0 0 0 0 0 0 0 0 0 0 0 0 0 0 0 0 0 0 0 0 0 0 0 0 0 0 0 0 0 0 0 0 0 0 0 0 0 0 0 0 0 0 0 0 0 0 0 0 0 0 0 0 0 0 0 0 0 0 0 0 0 0 0 0 0 0 0 0 0 0 0 0 0 0 0 0 0 0 0 0 0 0 0 0 0 0 0 0 0 0 0 0 0 0 0 0 0 0 0 0 0 0 0 0 0 0 0 0 0 0 0 0 0 0 0 0 0 0 0 0 0 0 0 0 0 0 0 0 0 0 0 0 0 0 0 0 0 0 0 0 0 0 0 0 0 0 0 0 0 0 0 0 0 0 0 0 0 0 0 0 0 0 0 0 0 0 0 0 0 0 0 0 0 0 0 0 0 0 0 0 0 0 0 0 0 0 0 0 0 0 0 0 0 0 0 0 0 0 0 0 0 0 0 0 0 0 0 0 0 0 0 0 0 0 0 0 0 0 0 0 0 0 0 0 0 0 0 0 0 0 0 0 0 0 0 0 0 0 0 0 0 0 0 0 0 0 0 0 0 0 0 0 0 0 0 0 0 0 0 0 0 0 0 0 0 0 0 0 0 0 0 0 0 0 0 0 0 0 0 0 0 0 0 0 0 0 0 0 0 0 0 0 0 0 0 0 0 0 0 0 0 0 0 0 0 0 0 0 0 0 0 0 0 0 0 0 0 0 0 0 0 0 0 0 0 0 0 0 0 0 0 0 0 0 0 0 0 0 0 0 0 0 0 0 0 0 0 0 0 0 0 0 0 0 0 </DataArray> 
</PointData> 
<Points> 
<DataArray type="Float32" NumberOfComponents="3"> 
0 3 0 0.0967742 3 0 0.193548 3 0 0.290323 3 0 0.387097 3 0 0.483871 3 0 0.580645 3 0 0.677419 3 0 0.774194 3 0 0.870968 3 0 0.967742 3 0 1.06452 3 0 1.16129 3 0 1.25806 3 0 1.35484 3 0 1.45161 3 0 1.54839 3 0 1.64516 3 0 1.74194 3 0 1.83871 3 0 1.93548 3 0 2.03226 3 0 2.12903 3 0 2.22581 3 0 2.32258 3 0 2.41935 3 0 2.51613 3 0 2.6129 3 0 2.70968 3 0 2.80645 3 0 2.90323 3 0 3 3 0 0 3.09677 0 0.0967742 3.09677 0 0.193548 3.09677 0 0.290323 3.09677 0 0.387097 3.09677 0 0.483871 3.09677 0 0.580645 3.09677 0 0.677419 3.09677 0 0.774194 3.09677 0 0.870968 3.09677 0 0.967742 3.09677 0 1.06452 3.09677 0 1.16129 3.09677 0 1.25806 3.09677 0 1.35484 3.09677 0 1.45161 3.09677 0 1.54839 3.09677 0 1.64516 3.09677 0 1.74194 3.09677 0 1.83871 3.09677 0 1.93548 3.09677 0 2.03226 3.09677 0 2.12903 3.09677 0 2.22581 3.09677 0 2.32258 3.09677 0 2.41935 3.09677 0 2.51613 3.09677 0 2.6129 3.09677 0 2.70968 3.09677 0 2.80645 3.09677 0 2.90323 3.09677 0 3 3.09677 0 0 3.19355 0 0.0967742 3.19355 0 0.193548 3.19355 0 0.290323 3.19355 0 0.387097 3.19355 0 0.483871 3.19355 0 0.580645 3.19355 0 0.677419 3.19355 0 0.774194 3.19355 0 0.870968 3.19355 0 0.967742 3.19355 0 1.06452 3.19355 0 1.16129 3.19355 0 1.25806 3.19355 0 1.35484 3.19355 0 1.45161 3.19355 0 1.54839 3.19355 0 1.64516 3.19355 0 1.74194 3.19355 0 1.83871 3.19355 0 1.93548 3.19355 0 2.03226 3.19355 0 2.12903 3.19355 0 2.22581 3.19355 0 2.32258 3.19355 0 2.41935 3.19355 0 2.51613 3.19355 0 2.6129 3.19355 0 2.70968 3.19355 0 2.80645 3.19355 0 2.90323 3.19355 0 3 3.19355 0 0 3.29032 0 0.0967742 3.29032 0 0.193548 3.29032 0 0.290323 3.29032 0 0.387097 3.29032 0 0.483871 3.29032 0 0.580645 3.29032 0 0.677419 3.29032 0 0.774194 3.29032 0 0.870968 3.29032 0 0.967742 3.29032 0 1.06452 3.29032 0 1.16129 3.29032 0 1.25806 3.29032 0 1.35484 3.29032 0 1.45161 3.29032 0 1.54839 3.29032 0 1.64516 3.29032 0 1.74194 3.29032 0 1.83871 3.29032 0 1.93548 3.29032 0 2.03226 3.29032 0 2.12903 3.29032 0 2.22581 3.29032 0 2.32258 3.29032 0 2.41935 3.29032 0 2.51613 3.29032 0 2.6129 3.29032 0 2.70968 3.29032 0 2.80645 3.29032 0 2.90323 3.29032 0 3 3.29032 0 0 3.3871 0 0.0967742 3.3871 0 0.193548 3.3871 0 0.290323 3.3871 0 0.387097 3.3871 0 0.483871 3.3871 0 0.580645 3.3871 0 0.677419 3.3871 0 0.774194 3.3871 0 0.870968 3.3871 0 0.967742 3.3871 0 1.06452 3.3871 0 1.16129 3.3871 0 1.25806 3.3871 0 1.35484 3.3871 0 1.45161 3.3871 0 1.54839 3.3871 0 1.64516 3.3871 0 1.74194 3.3871 0 1.83871 3.3871 0 1.93548 3.3871 0 2.03226 3.3871 0 2.12903 3.3871 0 2.22581 3.3871 0 2.32258 3.3871 0 2.41935 3.3871 0 2.51613 3.3871 0 2.6129 3.3871 0 2.70968 3.3871 0 2.80645 3.3871 0 2.90323 3.3871 0 3 3.3871 0 0 3.48387 0 0.0967742 3.48387 0 0.193548 3.48387 0 0.290323 3.48387 0 0.387097 3.48387 0 0.483871 3.48387 0 0.580645 3.48387 0 0.677419 3.48387 0 0.774194 3.48387 0 0.870968 3.48387 0 0.967742 3.48387 0 1.06452 3.48387 0 1.16129 3.48387 0 1.25806 3.48387 0 1.35484 3.48387 0 1.45161 3.48387 0 1.54839 3.48387 0 1.64516 3.48387 0 1.74194 3.48387 0 1.83871 3.48387 0 1.93548 3.48387 0 2.03226 3.48387 0 2.12903 3.48387 0 2.22581 3.48387 0 2.32258 3.48387 0 2.41935 3.48387 0 2.51613 3.48387 0 2.6129 3.48387 0 2.70968 3.48387 0 2.80645 3.48387 0 2.90323 3.48387 0 3 3.48387 0 0 3.58065 0 0.0967742 3.58065 0 0.193548 3.58065 0 0.290323 3.58065 0 0.387097 3.58065 0 0.483871 3.58065 0 0.580645 3.58065 0 0.677419 3.58065 0 0.774194 3.58065 0 0.870968 3.58065 0 0.967742 3.58065 0 1.06452 3.58065 0 1.16129 3.58065 0 1.25806 3.58065 0 1.35484 3.58065 0 1.45161 3.58065 0 1.54839 3.58065 0 1.64516 3.58065 0 1.74194 3.58065 0 1.83871 3.58065 0 1.93548 3.58065 0 2.03226 3.58065 0 2.12903 3.58065 0 2.22581 3.58065 0 2.32258 3.58065 0 2.41935 3.58065 0 2.51613 3.58065 0 2.6129 3.58065 0 2.70968 3.58065 0 2.80645 3.58065 0 2.90323 3.58065 0 3 3.58065 0 0 3.67742 0 0.0967742 3.67742 0 0.193548 3.67742 0 0.290323 3.67742 0 0.387097 3.67742 0 0.483871 3.67742 0 0.580645 3.67742 0 0.677419 3.67742 0 0.774194 3.67742 0 0.870968 3.67742 0 0.967742 3.67742 0 1.06452 3.67742 0 1.16129 3.67742 0 1.25806 3.67742 0 1.35484 3.67742 0 1.45161 3.67742 0 1.54839 3.67742 0 1.64516 3.67742 0 1.74194 3.67742 0 1.83871 3.67742 0 1.93548 3.67742 0 2.03226 3.67742 0 2.12903 3.67742 0 2.22581 3.67742 0 2.32258 3.67742 0 2.41935 3.67742 0 2.51613 3.67742 0 2.6129 3.67742 0 2.70968 3.67742 0 2.80645 3.67742 0 2.90323 3.67742 0 3 3.67742 0 0 3.77419 0 0.0967742 3.77419 0 0.193548 3.77419 0 0.290323 3.77419 0 0.387097 3.77419 0 0.483871 3.77419 0 0.580645 3.77419 0 0.677419 3.77419 0 0.774194 3.77419 0 0.870968 3.77419 0 0.967742 3.77419 0 1.06452 3.77419 0 1.16129 3.77419 0 1.25806 3.77419 0 1.35484 3.77419 0 1.45161 3.77419 0 1.54839 3.77419 0 1.64516 3.77419 0 1.74194 3.77419 0 1.83871 3.77419 0 1.93548 3.77419 0 2.03226 3.77419 0 2.12903 3.77419 0 2.22581 3.77419 0 2.32258 3.77419 0 2.41935 3.77419 0 2.51613 3.77419 0 2.6129 3.77419 0 2.70968 3.77419 0 2.80645 3.77419 0 2.90323 3.77419 0 3 3.77419 0 0 3.87097 0 0.0967742 3.87097 0 0.193548 3.87097 0 0.290323 3.87097 0 0.387097 3.87097 0 0.483871 3.87097 0 0.580645 3.87097 0 0.677419 3.87097 0 0.774194 3.87097 0 0.870968 3.87097 0 0.967742 3.87097 0 1.06452 3.87097 0 1.16129 3.87097 0 1.25806 3.87097 0 1.35484 3.87097 0 1.45161 3.87097 0 1.54839 3.87097 0 1.64516 3.87097 0 1.74194 3.87097 0 1.83871 3.87097 0 1.93548 3.87097 0 2.03226 3.87097 0 2.12903 3.87097 0 2.22581 3.87097 0 2.32258 3.87097 0 2.41935 3.87097 0 2.51613 3.87097 0 2.6129 3.87097 0 2.70968 3.87097 0 2.80645 3.87097 0 2.90323 3.87097 0 3 3.87097 0 0 3.96774 0 0.0967742 3.96774 0 0.193548 3.96774 0 0.290323 3.96774 0 0.387097 3.96774 0 0.483871 3.96774 0 0.580645 3.96774 0 0.677419 3.96774 0 0.774194 3.96774 0 0.870968 3.96774 0 0.967742 3.96774 0 1.06452 3.96774 0 1.16129 3.96774 0 1.25806 3.96774 0 1.35484 3.96774 0 1.45161 3.96774 0 1.54839 3.96774 0 1.64516 3.96774 0 1.74194 3.96774 0 1.83871 3.96774 0 1.93548 3.96774 0 2.03226 3.96774 0 2.12903 3.96774 0 2.22581 3.96774 0 2.32258 3.96774 0 2.41935 3.96774 0 2.51613 3.96774 0 2.6129 3.96774 0 2.70968 3.96774 0 2.80645 3.96774 0 2.90323 3.96774 0 3 3.96774 0 0 4.06452 0 0.0967742 4.06452 0 0.193548 4.06452 0 0.290323 4.06452 0 0.387097 4.06452 0 0.483871 4.06452 0 0.580645 4.06452 0 0.677419 4.06452 0 0.774194 4.06452 0 0.870968 4.06452 0 0.967742 4.06452 0 1.06452 4.06452 0 1.16129 4.06452 0 1.25806 4.06452 0 1.35484 4.06452 0 1.45161 4.06452 0 1.54839 4.06452 0 1.64516 4.06452 0 1.74194 4.06452 0 1.83871 4.06452 0 1.93548 4.06452 0 2.03226 4.06452 0 2.12903 4.06452 0 2.22581 4.06452 0 2.32258 4.06452 0 2.41935 4.06452 0 2.51613 4.06452 0 2.6129 4.06452 0 2.70968 4.06452 0 2.80645 4.06452 0 2.90323 4.06452 0 3 4.06452 0 0 4.16129 0 0.0967742 4.16129 0 0.193548 4.16129 0 0.290323 4.16129 0 0.387097 4.16129 0 0.483871 4.16129 0 0.580645 4.16129 0 0.677419 4.16129 0 0.774194 4.16129 0 0.870968 4.16129 0 0.967742 4.16129 0 1.06452 4.16129 0 1.16129 4.16129 0 1.25806 4.16129 0 1.35484 4.16129 0 1.45161 4.16129 0 1.54839 4.16129 0 1.64516 4.16129 0 1.74194 4.16129 0 1.83871 4.16129 0 1.93548 4.16129 0 2.03226 4.16129 0 2.12903 4.16129 0 2.22581 4.16129 0 2.32258 4.16129 0 2.41935 4.16129 0 2.51613 4.16129 0 2.6129 4.16129 0 2.70968 4.16129 0 2.80645 4.16129 0 2.90323 4.16129 0 3 4.16129 0 0 4.25806 0 0.0967742 4.25806 0 0.193548 4.25806 0 0.290323 4.25806 0 0.387097 4.25806 0 0.483871 4.25806 0 0.580645 4.25806 0 0.677419 4.25806 0 0.774194 4.25806 0 0.870968 4.25806 0 0.967742 4.25806 0 1.06452 4.25806 0 1.16129 4.25806 0 1.25806 4.25806 0 1.35484 4.25806 0 1.45161 4.25806 0 1.54839 4.25806 0 1.64516 4.25806 0 1.74194 4.25806 0 1.83871 4.25806 0 1.93548 4.25806 0 2.03226 4.25806 0 2.12903 4.25806 0 2.22581 4.25806 0 2.32258 4.25806 0 2.41935 4.25806 0 2.51613 4.25806 0 2.6129 4.25806 0 2.70968 4.25806 0 2.80645 4.25806 0 2.90323 4.25806 0 3 4.25806 0 0 4.35484 0 0.0967742 4.35484 0 0.193548 4.35484 0 0.290323 4.35484 0 0.387097 4.35484 0 0.483871 4.35484 0 0.580645 4.35484 0 0.677419 4.35484 0 0.774194 4.35484 0 0.870968 4.35484 0 0.967742 4.35484 0 1.06452 4.35484 0 1.16129 4.35484 0 1.25806 4.35484 0 1.35484 4.35484 0 1.45161 4.35484 0 1.54839 4.35484 0 1.64516 4.35484 0 1.74194 4.35484 0 1.83871 4.35484 0 1.93548 4.35484 0 2.03226 4.35484 0 2.12903 4.35484 0 2.22581 4.35484 0 2.32258 4.35484 0 2.41935 4.35484 0 2.51613 4.35484 0 2.6129 4.35484 0 2.70968 4.35484 0 2.80645 4.35484 0 2.90323 4.35484 0 3 4.35484 0 0 4.45161 0 0.0967742 4.45161 0 0.193548 4.45161 0 0.290323 4.45161 0 0.387097 4.45161 0 0.483871 4.45161 0 0.580645 4.45161 0 0.677419 4.45161 0 0.774194 4.45161 0 0.870968 4.45161 0 0.967742 4.45161 0 1.06452 4.45161 0 1.16129 4.45161 0 1.25806 4.45161 0 1.35484 4.45161 0 1.45161 4.45161 0 1.54839 4.45161 0 1.64516 4.45161 0 1.74194 4.45161 0 1.83871 4.45161 0 1.93548 4.45161 0 2.03226 4.45161 0 2.12903 4.45161 0 2.22581 4.45161 0 2.32258 4.45161 0 2.41935 4.45161 0 2.51613 4.45161 0 2.6129 4.45161 0 2.70968 4.45161 0 2.80645 4.45161 0 2.90323 4.45161 0 3 4.45161 0 0 4.54839 0 0.0967742 4.54839 0 0.193548 4.54839 0 0.290323 4.54839 0 0.387097 4.54839 0 0.483871 4.54839 0 0.580645 4.54839 0 0.677419 4.54839 0 0.774194 4.54839 0 0.870968 4.54839 0 0.967742 4.54839 0 1.06452 4.54839 0 1.16129 4.54839 0 1.25806 4.54839 0 1.35484 4.54839 0 1.45161 4.54839 0 1.54839 4.54839 0 1.64516 4.54839 0 1.74194 4.54839 0 1.83871 4.54839 0 1.93548 4.54839 0 2.03226 4.54839 0 2.12903 4.54839 0 2.22581 4.54839 0 2.32258 4.54839 0 2.41935 4.54839 0 2.51613 4.54839 0 2.6129 4.54839 0 2.70968 4.54839 0 2.80645 4.54839 0 2.90323 4.54839 0 3 4.54839 0 0 4.64516 0 0.0967742 4.64516 0 0.193548 4.64516 0 0.290323 4.64516 0 0.387097 4.64516 0 0.483871 4.64516 0 0.580645 4.64516 0 0.677419 4.64516 0 0.774194 4.64516 0 0.870968 4.64516 0 0.967742 4.64516 0 1.06452 4.64516 0 1.16129 4.64516 0 1.25806 4.64516 0 1.35484 4.64516 0 1.45161 4.64516 0 1.54839 4.64516 0 1.64516 4.64516 0 1.74194 4.64516 0 1.83871 4.64516 0 1.93548 4.64516 0 2.03226 4.64516 0 2.12903 4.64516 0 2.22581 4.64516 0 2.32258 4.64516 0 2.41935 4.64516 0 2.51613 4.64516 0 2.6129 4.64516 0 2.70968 4.64516 0 2.80645 4.64516 0 2.90323 4.64516 0 3 4.64516 0 0 4.74194 0 0.0967742 4.74194 0 0.193548 4.74194 0 0.290323 4.74194 0 0.387097 4.74194 0 0.483871 4.74194 0 0.580645 4.74194 0 0.677419 4.74194 0 0.774194 4.74194 0 0.870968 4.74194 0 0.967742 4.74194 0 1.06452 4.74194 0 1.16129 4.74194 0 1.25806 4.74194 0 1.35484 4.74194 0 1.45161 4.74194 0 1.54839 4.74194 0 1.64516 4.74194 0 1.74194 4.74194 0 1.83871 4.74194 0 1.93548 4.74194 0 2.03226 4.74194 0 2.12903 4.74194 0 2.22581 4.74194 0 2.32258 4.74194 0 2.41935 4.74194 0 2.51613 4.74194 0 2.6129 4.74194 0 2.70968 4.74194 0 2.80645 4.74194 0 2.90323 4.74194 0 3 4.74194 0 0 4.83871 0 0.0967742 4.83871 0 0.193548 4.83871 0 0.290323 4.83871 0 0.387097 4.83871 0 0.483871 4.83871 0 0.580645 4.83871 0 0.677419 4.83871 0 0.774194 4.83871 0 0.870968 4.83871 0 0.967742 4.83871 0 1.06452 4.83871 0 1.16129 4.83871 0 1.25806 4.83871 0 1.35484 4.83871 0 1.45161 4.83871 0 1.54839 4.83871 0 1.64516 4.83871 0 1.74194 4.83871 0 1.83871 4.83871 0 1.93548 4.83871 0 2.03226 4.83871 0 2.12903 4.83871 0 2.22581 4.83871 0 2.32258 4.83871 0 2.41935 4.83871 0 2.51613 4.83871 0 2.6129 4.83871 0 2.70968 4.83871 0 2.80645 4.83871 0 2.90323 4.83871 0 3 4.83871 0 0 4.93548 0 0.0967742 4.93548 0 0.193548 4.93548 0 0.290323 4.93548 0 0.387097 4.93548 0 0.483871 4.93548 0 0.580645 4.93548 0 0.677419 4.93548 0 0.774194 4.93548 0 0.870968 4.93548 0 0.967742 4.93548 0 1.06452 4.93548 0 1.16129 4.93548 0 1.25806 4.93548 0 1.35484 4.93548 0 1.45161 4.93548 0 1.54839 4.93548 0 1.64516 4.93548 0 1.74194 4.93548 0 1.83871 4.93548 0 1.93548 4.93548 0 2.03226 4.93548 0 2.12903 4.93548 0 2.22581 4.93548 0 2.32258 4.93548 0 2.41935 4.93548 0 2.51613 4.93548 0 2.6129 4.93548 0 2.70968 4.93548 0 2.80645 4.93548 0 2.90323 4.93548 0 3 4.93548 0 0 5.03226 0 0.0967742 5.03226 0 0.193548 5.03226 0 0.290323 5.03226 0 0.387097 5.03226 0 0.483871 5.03226 0 0.580645 5.03226 0 0.677419 5.03226 0 0.774194 5.03226 0 0.870968 5.03226 0 0.967742 5.03226 0 1.06452 5.03226 0 1.16129 5.03226 0 1.25806 5.03226 0 1.35484 5.03226 0 1.45161 5.03226 0 1.54839 5.03226 0 1.64516 5.03226 0 1.74194 5.03226 0 1.83871 5.03226 0 1.93548 5.03226 0 2.03226 5.03226 0 2.12903 5.03226 0 2.22581 5.03226 0 2.32258 5.03226 0 2.41935 5.03226 0 2.51613 5.03226 0 2.6129 5.03226 0 2.70968 5.03226 0 2.80645 5.03226 0 2.90323 5.03226 0 3 5.03226 0 0 5.12903 0 0.0967742 5.12903 0 0.193548 5.12903 0 0.290323 5.12903 0 0.387097 5.12903 0 0.483871 5.12903 0 0.580645 5.12903 0 0.677419 5.12903 0 0.774194 5.12903 0 0.870968 5.12903 0 0.967742 5.12903 0 1.06452 5.12903 0 1.16129 5.12903 0 1.25806 5.12903 0 1.35484 5.12903 0 1.45161 5.12903 0 1.54839 5.12903 0 1.64516 5.12903 0 1.74194 5.12903 0 1.83871 5.12903 0 1.93548 5.12903 0 2.03226 5.12903 0 2.12903 5.12903 0 2.22581 5.12903 0 2.32258 5.12903 0 2.41935 5.12903 0 2.51613 5.12903 0 2.6129 5.12903 0 2.70968 5.12903 0 2.80645 5.12903 0 2.90323 5.12903 0 3 5.12903 0 0 5.22581 0 0.0967742 5.22581 0 0.193548 5.22581 0 0.290323 5.22581 0 0.387097 5.22581 0 0.483871 5.22581 0 0.580645 5.22581 0 0.677419 5.22581 0 0.774194 5.22581 0 0.870968 5.22581 0 0.967742 5.22581 0 1.06452 5.22581 0 1.16129 5.22581 0 1.25806 5.22581 0 1.35484 5.22581 0 1.45161 5.22581 0 1.54839 5.22581 0 1.64516 5.22581 0 1.74194 5.22581 0 1.83871 5.22581 0 1.93548 5.22581 0 2.03226 5.22581 0 2.12903 5.22581 0 2.22581 5.22581 0 2.32258 5.22581 0 2.41935 5.22581 0 2.51613 5.22581 0 2.6129 5.22581 0 2.70968 5.22581 0 2.80645 5.22581 0 2.90323 5.22581 0 3 5.22581 0 0 5.32258 0 0.0967742 5.32258 0 0.193548 5.32258 0 0.290323 5.32258 0 0.387097 5.32258 0 0.483871 5.32258 0 0.580645 5.32258 0 0.677419 5.32258 0 0.774194 5.32258 0 0.870968 5.32258 0 0.967742 5.32258 0 1.06452 5.32258 0 1.16129 5.32258 0 1.25806 5.32258 0 1.35484 5.32258 0 1.45161 5.32258 0 1.54839 5.32258 0 1.64516 5.32258 0 1.74194 5.32258 0 1.83871 5.32258 0 1.93548 5.32258 0 2.03226 5.32258 0 2.12903 5.32258 0 2.22581 5.32258 0 2.32258 5.32258 0 2.41935 5.32258 0 2.51613 5.32258 0 2.6129 5.32258 0 2.70968 5.32258 0 2.80645 5.32258 0 2.90323 5.32258 0 3 5.32258 0 0 5.41935 0 0.0967742 5.41935 0 0.193548 5.41935 0 0.290323 5.41935 0 0.387097 5.41935 0 0.483871 5.41935 0 0.580645 5.41935 0 0.677419 5.41935 0 0.774194 5.41935 0 0.870968 5.41935 0 0.967742 5.41935 0 1.06452 5.41935 0 1.16129 5.41935 0 1.25806 5.41935 0 1.35484 5.41935 0 1.45161 5.41935 0 1.54839 5.41935 0 1.64516 5.41935 0 1.74194 5.41935 0 1.83871 5.41935 0 1.93548 5.41935 0 2.03226 5.41935 0 2.12903 5.41935 0 2.22581 5.41935 0 2.32258 5.41935 0 2.41935 5.41935 0 2.51613 5.41935 0 2.6129 5.41935 0 2.70968 5.41935 0 2.80645 5.41935 0 2.90323 5.41935 0 3 5.41935 0 0 5.51613 0 0.0967742 5.51613 0 0.193548 5.51613 0 0.290323 5.51613 0 0.387097 5.51613 0 0.483871 5.51613 0 0.580645 5.51613 0 0.677419 5.51613 0 0.774194 5.51613 0 0.870968 5.51613 0 0.967742 5.51613 0 1.06452 5.51613 0 1.16129 5.51613 0 1.25806 5.51613 0 1.35484 5.51613 0 1.45161 5.51613 0 1.54839 5.51613 0 1.64516 5.51613 0 1.74194 5.51613 0 1.83871 5.51613 0 1.93548 5.51613 0 2.03226 5.51613 0 2.12903 5.51613 0 2.22581 5.51613 0 2.32258 5.51613 0 2.41935 5.51613 0 2.51613 5.51613 0 2.6129 5.51613 0 2.70968 5.51613 0 2.80645 5.51613 0 2.90323 5.51613 0 3 5.51613 0 0 5.6129 0 0.0967742 5.6129 0 0.193548 5.6129 0 0.290323 5.6129 0 0.387097 5.6129 0 0.483871 5.6129 0 0.580645 5.6129 0 0.677419 5.6129 0 0.774194 5.6129 0 0.870968 5.6129 0 0.967742 5.6129 0 1.06452 5.6129 0 1.16129 5.6129 0 1.25806 5.6129 0 1.35484 5.6129 0 1.45161 5.6129 0 1.54839 5.6129 0 1.64516 5.6129 0 1.74194 5.6129 0 1.83871 5.6129 0 1.93548 5.6129 0 2.03226 5.6129 0 2.12903 5.6129 0 2.22581 5.6129 0 2.32258 5.6129 0 2.41935 5.6129 0 2.51613 5.6129 0 2.6129 5.6129 0 2.70968 5.6129 0 2.80645 5.6129 0 2.90323 5.6129 0 3 5.6129 0 0 5.70968 0 0.0967742 5.70968 0 0.193548 5.70968 0 0.290323 5.70968 0 0.387097 5.70968 0 0.483871 5.70968 0 0.580645 5.70968 0 0.677419 5.70968 0 0.774194 5.70968 0 0.870968 5.70968 0 0.967742 5.70968 0 1.06452 5.70968 0 1.16129 5.70968 0 1.25806 5.70968 0 1.35484 5.70968 0 1.45161 5.70968 0 1.54839 5.70968 0 1.64516 5.70968 0 1.74194 5.70968 0 1.83871 5.70968 0 1.93548 5.70968 0 2.03226 5.70968 0 2.12903 5.70968 0 2.22581 5.70968 0 2.32258 5.70968 0 2.41935 5.70968 0 2.51613 5.70968 0 2.6129 5.70968 0 2.70968 5.70968 0 2.80645 5.70968 0 2.90323 5.70968 0 3 5.70968 0 0 5.80645 0 0.0967742 5.80645 0 0.193548 5.80645 0 0.290323 5.80645 0 0.387097 5.80645 0 0.483871 5.80645 0 0.580645 5.80645 0 0.677419 5.80645 0 0.774194 5.80645 0 0.870968 5.80645 0 0.967742 5.80645 0 1.06452 5.80645 0 1.16129 5.80645 0 1.25806 5.80645 0 1.35484 5.80645 0 1.45161 5.80645 0 1.54839 5.80645 0 1.64516 5.80645 0 1.74194 5.80645 0 1.83871 5.80645 0 1.93548 5.80645 0 2.03226 5.80645 0 2.12903 5.80645 0 2.22581 5.80645 0 2.32258 5.80645 0 2.41935 5.80645 0 2.51613 5.80645 0 2.6129 5.80645 0 2.70968 5.80645 0 2.80645 5.80645 0 2.90323 5.80645 0 3 5.80645 0 0 5.90323 0 0.0967742 5.90323 0 0.193548 5.90323 0 0.290323 5.90323 0 0.387097 5.90323 0 0.483871 5.90323 0 0.580645 5.90323 0 0.677419 5.90323 0 0.774194 5.90323 0 0.870968 5.90323 0 0.967742 5.90323 0 1.06452 5.90323 0 1.16129 5.90323 0 1.25806 5.90323 0 1.35484 5.90323 0 1.45161 5.90323 0 1.54839 5.90323 0 1.64516 5.90323 0 1.74194 5.90323 0 1.83871 5.90323 0 1.93548 5.90323 0 2.03226 5.90323 0 2.12903 5.90323 0 2.22581 5.90323 0 2.32258 5.90323 0 2.41935 5.90323 0 2.51613 5.90323 0 2.6129 5.90323 0 2.70968 5.90323 0 2.80645 5.90323 0 2.90323 5.90323 0 3 5.90323 0 0 6 0 0.0967742 6 0 0.193548 6 0 0.290323 6 0 0.387097 6 0 0.483871 6 0 0.580645 6 0 0.677419 6 0 0.774194 6 0 0.870968 6 0 0.967742 6 0 1.06452 6 0 1.16129 6 0 1.25806 6 0 1.35484 6 0 1.45161 6 0 1.54839 6 0 1.64516 6 0 1.74194 6 0 1.83871 6 0 1.93548 6 0 2.03226 6 0 2.12903 6 0 2.22581 6 0 2.32258 6 0 2.41935 6 0 2.51613 6 0 2.6129 6 0 2.70968 6 0 2.80645 6 0 2.90323 6 0 3 6 0 
</DataArray>
</Points> 
</Piece> 
</StructuredGrid> 
</VTKFile> 
