<?xml version="1.0"?> 
<VTKFile type="StructuredGrid" version="0.1"> 
<StructuredGrid WholeExtent="0 31 0 31 0 0"> 
<Piece Extent="0 31 0 31 0 0"> 
<PointData>
<DataArray type="Float32" Name="B" format="ascii" NumberOfComponents="3"> 
0 0.000200715 0 3.53343e-05 0.00020172 0 7.09982e-05 0.000204753 0 0.000107326 0.000209864 0 0.00014466 0.000217137 0 0.000183359 0.000226696 0 0.000223798 0.000238706 0 0.000266378 0.000253379 0 0.000311532 0.00027098 0 0.000359727 0.000291838 0 0.000411482 0.000316359 0 0.000467358 0.000345031 0 0.00052801 0.000378466 0 0.000594101 0.000417381 0 0.00066655 0.000462706 0 0.000746018 0.000515481 0 0.000834099 0.00057717 0 0.000930848 0.000649246 0 0.00104008 0.000734139 0 0.00115854 0.000833828 0 0.00129824 0.00095264 0 0.00144168 0.00109296 0 0.00163174 0.00126301 0 0.00179507 0.00146546 0 0.00208927 0.00171594 0 0.00223342 0.00202081 0 0.00280009 0.00240427 0 0.00277574 0.0029116 0 0.00418151 0.00354045 0 0.00372075 0.0046792 0 0.00742416 0.00586309 0 0.044031 0.0198422 0 -1.42561e-18 0.000188846 0 3.59871e-05 0.000189795 0 7.23145e-05 0.00019266 0 0.000109328 0.000197488 0 0.000147381 0.000204361 0 0.000186846 0.000213395 0 0.000228112 0.000224748 0 0.000271597 0.000238622 0 0.000317751 0.000255272 0 0.000367066 0.000275011 0 0.000420084 0.000298226 0 0.000477407 0.000325391 0 0.000539707 0.000357079 0 0.00060775 0.000394001 0 0.000682386 0.00043701 0 0.000764634 0.000487179 0 0.000855567 0.000545781 0 0.000956656 0.000614472 0 0.00106917 0.000695159 0 0.00119556 0.00079049 0 0.00133691 0.000903303 0 0.00149843 0.00103803 0 0.00167914 0.0011989 0 0.00189312 0.00139367 0 0.00213041 0.00162916 0 0.00243545 0.00191881 0 0.00276678 0.00227876 0 0.00327691 0.00272714 0 0.00384374 0.0033321 0 0.00506133 0.00406305 0 0.00731619 0.00533705 0 0.0149271 0.000989444 0 -1.09916e-18 0.000176766 0 3.6602e-05 0.000177658 0 7.35548e-05 0.000180349 0 0.000111214 0.000184886 0 0.000149946 0.000191344 0 0.000190133 0.000199836 0 0.00023218 0.00021051 0 0.000276518 0.000223558 0 0.000323619 0.000239221 0 0.000373993 0.000257798 0 0.00042821 0.000279657 0 0.0004869 0.000305246 0 0.000550777 0.000335117 0 0.000620645 0.000369939 0 0.000697426 0.000410536 0 0.00078218 0.000457916 0 0.000876133 0.000513322 0 0.000980732 0.000578284 0 0.00109766 0.000654711 0 0.00122901 0.000744954 0 0.00137716 0.000851989 0 0.00154552 0.000979489 0 0.00173757 0.00113216 0 0.00196016 0.00131583 0 0.0022186 0.00153812 0 0.00253136 0.00180837 0 0.00290787 0.0021395 0 0.00341394 0.00254492 0 0.00408676 0.00304477 0 0.00524421 0.00361006 0 0.00740104 0.00393456 0 0.0104262 -6.11994e-05 0 0 0.000164487 0 3.71781e-05 0.00016532 0 7.47166e-05 0.000167834 0 0.000112981 0.000172071 0 0.000152349 0.000178103 0 0.000193214 0.000186035 0 0.000235993 0.000196008 0 0.000281134 0.000208203 0 0.000329123 0.000222847 0 0.000380494 0.000240221 0 0.000435839 0.000260674 0 0.000495819 0.000284628 0 0.000561181 0.000312605 0 0.000632775 0.000345238 0 0.000711578 0.000383309 0 0.000798715 0.000427768 0 0.000895501 0.000479798 0 0.00100348 0.000540841 0 0.00112449 0.000612709 0 0.00126073 0.000697602 0 0.00141493 0.000798341 0 0.00159046 0.000918276 0 0.0017918 0.00106181 0 0.00202478 0.00123398 0 0.00229818 0.00144148 0 0.00262496 0.00169144 0 0.00302729 0.00199219 0 0.00354606 0.00235038 0 0.00426023 0.00275506 0 0.00535789 0.00314087 0 0.00716047 0.00296735 0 0.00857957 0.000323499 0 -1.79846e-20 0.000152024 0 3.77142e-05 0.000152797 0 7.57979e-05 0.000155127 0 0.000114626 0.000159056 0 0.000154586 0.00016465 0 0.000196082 0.000172008 0 0.000239544 0.000181261 0 0.000285434 0.000192577 0 0.000334253 0.00020617 0 0.000386555 0.000222304 0 0.000442954 0.000241302 0 0.00050414 0.000263564 0 0.000570893 0.000289577 0 0.000644106 0.000319936 0 0.000724805 0.000355373 0 0.00081418 0.000396784 0 0.000913626 0.000445274 0 0.00102478 0.000502204 0 0.00114962 0.000569257 0 0.00129048 0.000648512 0 0.0014503 0.000742542 0 0.00163264 0.000854492 0 0.00184233 0.000988231 0 0.00208533 0.00114831 0 0.00237115 0.00134003 0 0.00271182 0.00156886 0 0.00313134 0.00183879 0 0.00366265 0.00214857 0 0.00438381 0.00247013 0 0.00540631 0.0026987 0 0.00684833 0.00234822 0 0.00767549 0.000547996 0 -1.25839e-18 0.00013939 0 3.82093e-05 0.0001401 0 7.67965e-05 0.000142244 0 0.000116146 0.000145857 0 0.000156653 0.000151002 0 0.000198732 0.000157771 0 0.000242826 0.000166284 0 0.000289408 0.000176699 0 0.000338996 0.000189212 0 0.000392161 0.000204068 0 0.000449538 0.000221569 0 0.000511844 0.000242085 0 0.00057989 0.000266067 0 0.000654607 0.000294071 0 0.000737071 0.000326775 0 0.00082853 0.000365015 0 0.000930453 0.000409816 0 0.00104457 0.000462444 0 0.00117297 0.000524458 0 0.00131814 0.00059778 0 0.00148316 0.000684767 0 0.00167183 0.000788283 0 0.00188911 0.000911749 0 0.00214136 0.00105909 0 0.00243773 0.0012345 0 0.00279081 0.00144158 0 0.00322179 0.00168093 0 0.00376166 0.00194444 0 0.00446908 0.00219359 0 0.00541019 0.00230931 0 0.00655693 0.00192151 0 0.00711323 0.000705762 0 -5.85024e-19 0.000126598 0 3.86625e-05 0.000127245 0 7.77106e-05 0.000129197 0 0.000117536 0.000132487 0 0.000158545 0.000137174 0 0.000201159 0.00014334 0 0.000245832 0.000151097 0 0.000293049 0.000160588 0 0.000343343 0.000171994 0 0.0003973 0.00018554 0 0.000455576 0.000201502 0 0.000518911 0.000220221 0 0.000588147 0.000242112 0 0.00066425 0.000267685 0 0.000748339 0.000297565 0 0.00084172 0.00033252 0 0.000945927 0.000373492 0 0.00106278 0.000421645 0 0.00119446 0.000478407 0 0.00134359 0.000545535 0 0.0015134 0.000625163 0 0.00170786 0.000719862 0 0.00193204 0.000832619 0 0.00219249 0.00096675 0 0.00249812 0.00112542 0 0.00286122 0.00131063 0 0.0033004 0.00152018 0 0.00384237 0.00174104 0 0.00452772 0.00192996 0 0.00538489 0.00197145 0 0.0063166 0.00161189 0 0.00675956 0.000754823 0 0 0.000113663 0 3.90729e-05 0.000114245 0 7.85385e-05 0.000116001 0 0.000118796 0.000118963 0 0.000160258 0.000123182 0 0.000203358 0.000128733 0 0.000248556 0.000135717 0 0.000296349 0.000144264 0 0.000347283 0.000154538 0 0.00040196 0.000166743 0 0.000461053 0.00018113 0 0.000525324 0.000198006 0 0.000595642 0.000217749 0 0.000673006 0.000240823 0 0.000758577 0.000267793 0 0.000853709 0.000299358 0 0.000960001 0.000336373 0 0.00107935 0.000379892 0 0.00121402 0.000431209 0 0.00136676 0.000491905 0 0.00154091 0.00056389 0 0.0017406 0.000649434 0 0.00197097 0.000751119 0 0.00223863 0.000871663 0 0.0025522 0.00101337 0 0.00292325 0.00117686 0 0.00336776 0.00135792 0 0.00390716 0.00154057 0 0.00456633 0.00168099 0 0.00534624 0.00167854 0 0.00612686 0.00136768 0 0.00652122 0.000760761 0 0 0.000100598 0 3.94397e-05 0.000101114 0 7.92785e-05 0.000102672 0 0.000119922 0.000105299 0 0.00016179 0.000109042 0 0.000205324 0.000113967 0 0.000250991 0.000120164 0 0.000299301 0.000127749 0 0.000350808 0.000136869 0 0.00040613 0.000147705 0 0.000465955 0.000160481 0 0.000531066 0.000175473 0 0.000602356 0.000193018 0 0.000680853 0.000213528 0 0.000767755 0.000237512 0 0.000864462 0.000265592 0 0.000972627 0.000298534 0 0.00109422 0.000337277 0 0.00123158 0.000382973 0 0.00138756 0.000437024 0 0.0015656 0.000501114 0 0.00176994 0.000577216 0 0.00200578 0.000667519 0 0.0022797 0.000774211 0 0.00259995 0.000898858 0 0.00297715 0.00104103 0 0.00342469 0.00119521 0 0.00395842 0.00134425 0 0.00459061 0.00144694 0 0.0053039 0.001421 0 0.00598026 0.0011637 0 0.00635648 0.000723778 0 0 8.74186e-05 0 3.97622e-05 8.78681e-05 0 7.99291e-05 8.92247e-05 0 0.000120912 9.15121e-05 0 0.000163138 9.47708e-05 0 0.000207053 9.90594e-05 0 0.000253134 0.000104457 0 0.000301898 0.000111064 0 0.00035391 0.000119009 0 0.0004098 0.000128452 0 0.000470271 0.000139588 0 0.000536123 0.000152657 0 0.00060827 0.000167957 0 0.000687768 0.000185849 0 0.000775846 0.000206777 0 0.000873945 0.000231288 0 0.000983766 0.000260052 0 0.00110734 0.000293891 0 0.00124708 0.000333811 0 0.00140592 0.000381031 0 0.00158738 0.000437006 0 0.00179578 0.000503419 0 0.00203638 0.000582094 0 0.00231563 0.000674745 0 0.00264141 0.00078235 0 0.00302324 0.000903765 0 0.00347206 0.00103282 0 0.00399845 0.00115267 0 0.00460502 0.00122667 0 0.00526343 0.00119071 0 0.0058683 0.000983305 0 0.00624046 0.000663653 0 0 7.41395e-05 0 4.00398e-05 7.45214e-05 0 8.04893e-05 7.56738e-05 0 0.000121765 7.76169e-05 0 0.000164298 8.03855e-05 0 0.000208541 8.40293e-05 0 0.000254979 8.86155e-05 0 0.000304134 9.42306e-05 0 0.000356583 0.000100984 0 0.000412962 0.000109011 0 0.000473991 0.000118479 0 0.000540482 0.000129595 0 0.00061337 0.00014261 0 0.000693732 0.000157833 0 0.000782826 0.000175646 0 0.000882128 0.000196514 0 0.000993382 0.000221008 0 0.00111866 0.000249832 0 0.00126046 0.00028384 0 0.00142176 0.000324067 0 0.00160618 0.00037174 0 0.00181807 0.000428259 0 0.00206271 0.000495109 0 0.00234642 0.000573598 0 0.00267666 0.000664259 0 0.0030619 0.000765548 0 0.00351075 0.000871265 0 0.00402928 0.000965903 0 0.00461288 0.00101844 0 0.00522771 0.000980718 0 0.00578356 0.000817648 0 0.00615712 0.000584092 0 0 6.07757e-05 0 4.0272e-05 6.10892e-05 0 8.09577e-05 6.20352e-05 0 0.000122478 6.36303e-05 0 0.000165268 6.59031e-05 0 0.000209787 6.88946e-05 0 0.000256522 7.26601e-05 0 0.000306006 7.7271e-05 0 0.000358819 8.28171e-05 0 0.000415609 8.94103e-05 0 0.000477104 9.71885e-05 0 0.000544132 0.000106322 0 0.000617641 0.000117017 0 0.000698728 0.000129531 0 0.000788675 0.000144176 0 0.000888987 0.000161337 0 0.00100144 0.000181485 0 0.00112816 0.000205199 0 0.00127168 0.00023318 0 0.00143505 0.000266278 0 0.00162193 0.000305492 0 0.00183672 0.000351951 0 0.0020847 0.000406823 0 0.00237204 0.000471079 0 0.0027058 0.000544943 0 0.00309346 0.000626749 0 0.00354161 0.000710774 0 0.00405259 0.000783614 0 0.00461668 0.000820239 0 0.00519788 0.000785692 0 0.00572029 0.000660943 0 0.00609753 0.000492166 0 0 4.73424e-05 0 4.04583e-05 4.75868e-05 0 8.13336e-05 4.83245e-05 0 0.00012305 4.95685e-05 0 0.000166047 5.13409e-05 0 0.000210786 5.36741e-05 0 0.000257761 5.66111e-05 0 0.000307508 6.02077e-05 0 0.000360614 6.45343e-05 0 0.000417734 6.96783e-05 0 0.000479605 7.57477e-05 0 0.000547063 8.28752e-05 0 0.000621072 9.12237e-05 0 0.000702742 0.000100993 0 0.000793376 0.000112428 0 0.0008945 0.00012583 0 0.00100792 0.000141568 0 0.0011358 0.000160093 0 0.00128071 0.000181954 0 0.00144573 0.000207812 0 0.00163459 0.00023844 0 0.0018517 0.000274706 0 0.00210232 0.000317488 0 0.00239251 0.000367475 0 0.00272895 0.000424704 0 0.00311827 0.000487628 0 0.00356537 0.000551402 0 0.00406973 0.000605226 0 0.00461813 0.000630027 0 0.00517431 0.000601442 0 0.00567411 0.000509859 0 0.00605514 0.000390825 0 4.23033e-20 3.38548e-05 0 4.05983e-05 3.40298e-05 0 8.16161e-05 3.45577e-05 0 0.00012348 3.5448e-05 0 0.000166632 3.67166e-05 0 0.000211537 3.83866e-05 0 0.000258693 4.04889e-05 0 0.000308637 4.30635e-05 0 0.000361964 4.61609e-05 0 0.000419332 4.98437e-05 0 0.000481485 5.41896e-05 0 0.000549268 5.92936e-05 0 0.000623653 6.52727e-05 0 0.000705763 7.22703e-05 0 0.000796913 8.04622e-05 0 0.000898649 9.00643e-05 0 0.0010128 0.000101341 0 0.00114155 0.000114617 0 0.0012875 0.000130285 0 0.00145378 0.000148816 0 0.00164412 0.000170762 0 0.00186297 0.000196735 0 0.00211556 0.000227347 0 0.00240785 0.000263052 0 0.0027462 0.000303801 0 0.0031366 0.000348353 0 0.00358265 0.000393044 0 0.00408173 0.00042999 0 0.00461839 0.000445846 0 0.00515691 0.000424731 0 0.00564192 0.000362206 0 0.00602623 0.000283265 0 2.15987e-19 2.03285e-05 0 4.06919e-05 2.04335e-05 0 8.18048e-05 2.07507e-05 0 0.000123767 2.12856e-05 0 0.000167023 2.20478e-05 0 0.000212039 2.30512e-05 0 0.000259315 2.43143e-05 0 0.000309391 2.58613e-05 0 0.000362865 2.77225e-05 0 0.0004204 2.99357e-05 0 0.000482742 3.25474e-05 0 0.000550742 3.5615e-05 0 0.000625377 3.92089e-05 0 0.000707781 4.34152e-05 0 0.000799277 4.83399e-05 0 0.000901423 5.4113e-05 0 0.00101606 6.08935e-05 0 0.00114539 6.88764e-05 0 0.00129204 7.82979e-05 0 0.00145915 8.94412e-05 0 0.00165048 0.000102636 0 0.00187049 0.000118247 0 0.00212439 0.000136635 0 0.00241806 0.000158056 0 0.00275765 0.000182451 0 0.0031487 0.000209021 0 0.00359391 0.000235486 0 0.00408933 0.00025706 0 0.0046182 0.000265863 0 0.00514549 0.000252972 0 0.00562156 0.000216608 0 0.00600815 0.000171505 0 1.28309e-20 6.77874e-06 0 4.07387e-05 6.8138e-06 0 8.18992e-05 6.9196e-06 0 0.000123911 7.09801e-06 0 0.000167219 7.35224e-06 0 0.00021229 7.68692e-06 0 0.000259626 8.10827e-06 0 0.000309769 8.62431e-06 0 0.000363317 9.24518e-06 0 0.000420934 9.98348e-06 0 0.00048337 1.08548e-05 0 0.000551479 1.18782e-05 0 0.000626241 1.30772e-05 0 0.000708792 1.44806e-05 0 0.000800461 1.61238e-05 0 0.000902812 1.80501e-05 0 0.0010177 2.03127e-05 0 0.00114732 2.29765e-05 0 0.00129432 2.61205e-05 0 0.00146185 2.9839e-05 0 0.00165367 3.42418e-05 0 0.00187426 3.945e-05 0 0.00212881 4.55825e-05 0 0.00242316 5.27224e-05 0 0.00276336 6.08448e-05 0 0.0031547 6.96739e-05 0 0.00359946 7.84374e-05 0 0.00409302 8.55301e-05 0 0.00461801 8.83494e-05 0 0.00513983 8.40212e-05 0 0.00561171 7.20894e-05 0 0.00599947 5.74264e-05 0 0 -6.77874e-06 0 4.07387e-05 -6.8138e-06 0 8.18992e-05 -6.9196e-06 0 0.000123911 -7.09801e-06 0 0.000167219 -7.35224e-06 0 0.00021229 -7.68692e-06 0 0.000259626 -8.10827e-06 0 0.000309769 -8.62431e-06 0 0.000363317 -9.24518e-06 0 0.000420934 -9.98348e-06 0 0.00048337 -1.08548e-05 0 0.000551479 -1.18782e-05 0 0.000626241 -1.30772e-05 0 0.000708792 -1.44806e-05 0 0.000800461 -1.61238e-05 0 0.000902812 -1.80501e-05 0 0.0010177 -2.03127e-05 0 0.00114732 -2.29765e-05 0 0.00129432 -2.61205e-05 0 0.00146185 -2.9839e-05 0 0.00165367 -3.42418e-05 0 0.00187426 -3.945e-05 0 0.00212881 -4.55825e-05 0 0.00242316 -5.27224e-05 0 0.00276336 -6.08448e-05 0 0.0031547 -6.96739e-05 0 0.00359946 -7.84374e-05 0 0.00409302 -8.55301e-05 0 0.00461801 -8.83494e-05 0 0.00513983 -8.40212e-05 0 0.00561171 -7.20894e-05 0 0.00599947 -5.74264e-05 0 0 -2.03285e-05 0 4.06919e-05 -2.04335e-05 0 8.18048e-05 -2.07507e-05 0 0.000123767 -2.12856e-05 0 0.000167023 -2.20478e-05 0 0.000212039 -2.30512e-05 0 0.000259315 -2.43143e-05 0 0.000309391 -2.58613e-05 0 0.000362865 -2.77225e-05 0 0.0004204 -2.99357e-05 0 0.000482742 -3.25474e-05 0 0.000550742 -3.5615e-05 0 0.000625377 -3.92089e-05 0 0.000707781 -4.34152e-05 0 0.000799277 -4.83399e-05 0 0.000901423 -5.4113e-05 0 0.00101606 -6.08935e-05 0 0.00114539 -6.88764e-05 0 0.00129204 -7.82979e-05 0 0.00145915 -8.94412e-05 0 0.00165048 -0.000102636 0 0.00187049 -0.000118247 0 0.00212439 -0.000136635 0 0.00241806 -0.000158056 0 0.00275765 -0.000182451 0 0.0031487 -0.000209021 0 0.00359391 -0.000235486 0 0.00408933 -0.00025706 0 0.0046182 -0.000265863 0 0.00514549 -0.000252972 0 0.00562156 -0.000216608 0 0.00600815 -0.000171505 0 -8.11022e-20 -3.38548e-05 0 4.05983e-05 -3.40298e-05 0 8.16161e-05 -3.45577e-05 0 0.00012348 -3.5448e-05 0 0.000166632 -3.67166e-05 0 0.000211537 -3.83866e-05 0 0.000258693 -4.04889e-05 0 0.000308637 -4.30635e-05 0 0.000361964 -4.61609e-05 0 0.000419332 -4.98437e-05 0 0.000481485 -5.41896e-05 0 0.000549268 -5.92936e-05 0 0.000623653 -6.52727e-05 0 0.000705763 -7.22703e-05 0 0.000796913 -8.04622e-05 0 0.000898649 -9.00643e-05 0 0.0010128 -0.000101341 0 0.00114155 -0.000114617 0 0.0012875 -0.000130285 0 0.00145378 -0.000148816 0 0.00164412 -0.000170762 0 0.00186297 -0.000196735 0 0.00211556 -0.000227347 0 0.00240785 -0.000263052 0 0.0027462 -0.000303801 0 0.0031366 -0.000348353 0 0.00358265 -0.000393044 0 0.00408173 -0.00042999 0 0.00461839 -0.000445846 0 0.00515691 -0.000424731 0 0.00564192 -0.000362206 0 0.00602623 -0.000283265 0 -4.96006e-19 -4.73424e-05 0 4.04583e-05 -4.75868e-05 0 8.13336e-05 -4.83245e-05 0 0.00012305 -4.95685e-05 0 0.000166047 -5.13409e-05 0 0.000210786 -5.36741e-05 0 0.000257761 -5.66111e-05 0 0.000307508 -6.02077e-05 0 0.000360614 -6.45343e-05 0 0.000417734 -6.96783e-05 0 0.000479605 -7.57477e-05 0 0.000547063 -8.28752e-05 0 0.000621072 -9.12237e-05 0 0.000702742 -0.000100993 0 0.000793376 -0.000112428 0 0.0008945 -0.00012583 0 0.00100792 -0.000141568 0 0.0011358 -0.000160093 0 0.00128071 -0.000181954 0 0.00144573 -0.000207812 0 0.00163459 -0.00023844 0 0.0018517 -0.000274706 0 0.00210232 -0.000317488 0 0.00239251 -0.000367475 0 0.00272895 -0.000424704 0 0.00311827 -0.000487628 0 0.00356537 -0.000551402 0 0.00406973 -0.000605226 0 0.00461813 -0.000630027 0 0.00517431 -0.000601442 0 0.00567411 -0.000509859 0 0.00605514 -0.000390825 0 -5.43729e-20 -6.07757e-05 0 4.0272e-05 -6.10892e-05 0 8.09577e-05 -6.20352e-05 0 0.000122478 -6.36303e-05 0 0.000165268 -6.59031e-05 0 0.000209787 -6.88946e-05 0 0.000256522 -7.26601e-05 0 0.000306006 -7.7271e-05 0 0.000358819 -8.28171e-05 0 0.000415609 -8.94103e-05 0 0.000477104 -9.71885e-05 0 0.000544132 -0.000106322 0 0.000617641 -0.000117017 0 0.000698728 -0.000129531 0 0.000788675 -0.000144176 0 0.000888987 -0.000161337 0 0.00100144 -0.000181485 0 0.00112816 -0.000205199 0 0.00127168 -0.00023318 0 0.00143505 -0.000266278 0 0.00162193 -0.000305492 0 0.00183672 -0.000351951 0 0.0020847 -0.000406823 0 0.00237204 -0.000471079 0 0.0027058 -0.000544943 0 0.00309346 -0.000626749 0 0.00354161 -0.000710774 0 0.00405259 -0.000783614 0 0.00461668 -0.000820239 0 0.00519788 -0.000785692 0 0.00572029 -0.000660943 0 0.00609753 -0.000492166 0 0 -7.41395e-05 0 4.00398e-05 -7.45214e-05 0 8.04893e-05 -7.56738e-05 0 0.000121765 -7.76169e-05 0 0.000164298 -8.03855e-05 0 0.000208541 -8.40293e-05 0 0.000254979 -8.86155e-05 0 0.000304134 -9.42306e-05 0 0.000356583 -0.000100984 0 0.000412962 -0.000109011 0 0.000473991 -0.000118479 0 0.000540482 -0.000129595 0 0.00061337 -0.00014261 0 0.000693732 -0.000157833 0 0.000782826 -0.000175646 0 0.000882128 -0.000196514 0 0.000993382 -0.000221008 0 0.00111866 -0.000249832 0 0.00126046 -0.00028384 0 0.00142176 -0.000324067 0 0.00160618 -0.00037174 0 0.00181807 -0.000428259 0 0.00206271 -0.000495109 0 0.00234642 -0.000573598 0 0.00267666 -0.000664259 0 0.0030619 -0.000765548 0 0.00351075 -0.000871265 0 0.00402928 -0.000965903 0 0.00461288 -0.00101844 0 0.00522771 -0.000980718 0 0.00578356 -0.000817648 0 0.00615712 -0.000584092 0 0 -8.74186e-05 0 3.97622e-05 -8.78681e-05 0 7.99291e-05 -8.92247e-05 0 0.000120912 -9.15121e-05 0 0.000163138 -9.47708e-05 0 0.000207053 -9.90594e-05 0 0.000253134 -0.000104457 0 0.000301898 -0.000111064 0 0.00035391 -0.000119009 0 0.0004098 -0.000128452 0 0.000470271 -0.000139588 0 0.000536123 -0.000152657 0 0.00060827 -0.000167957 0 0.000687768 -0.000185849 0 0.000775846 -0.000206777 0 0.000873945 -0.000231288 0 0.000983766 -0.000260052 0 0.00110734 -0.000293891 0 0.00124708 -0.000333811 0 0.00140592 -0.000381031 0 0.00158738 -0.000437006 0 0.00179578 -0.000503419 0 0.00203638 -0.000582094 0 0.00231563 -0.000674745 0 0.00264141 -0.00078235 0 0.00302324 -0.000903765 0 0.00347206 -0.00103282 0 0.00399845 -0.00115267 0 0.00460502 -0.00122667 0 0.00526343 -0.00119071 0 0.0058683 -0.000983305 0 0.00624046 -0.000663653 0 0 -0.000100598 0 3.94397e-05 -0.000101114 0 7.92785e-05 -0.000102672 0 0.000119922 -0.000105299 0 0.00016179 -0.000109042 0 0.000205324 -0.000113967 0 0.000250991 -0.000120164 0 0.000299301 -0.000127749 0 0.000350808 -0.000136869 0 0.00040613 -0.000147705 0 0.000465955 -0.000160481 0 0.000531066 -0.000175473 0 0.000602356 -0.000193018 0 0.000680853 -0.000213528 0 0.000767755 -0.000237512 0 0.000864462 -0.000265592 0 0.000972627 -0.000298534 0 0.00109422 -0.000337277 0 0.00123158 -0.000382973 0 0.00138756 -0.000437024 0 0.0015656 -0.000501114 0 0.00176994 -0.000577216 0 0.00200578 -0.000667519 0 0.0022797 -0.000774211 0 0.00259995 -0.000898858 0 0.00297715 -0.00104103 0 0.00342469 -0.00119521 0 0.00395842 -0.00134425 0 0.00459061 -0.00144694 0 0.0053039 -0.001421 0 0.00598026 -0.0011637 0 0.00635648 -0.000723778 0 0 -0.000113663 0 3.90729e-05 -0.000114245 0 7.85385e-05 -0.000116001 0 0.000118796 -0.000118963 0 0.000160258 -0.000123182 0 0.000203358 -0.000128733 0 0.000248556 -0.000135717 0 0.000296349 -0.000144264 0 0.000347283 -0.000154538 0 0.00040196 -0.000166743 0 0.000461053 -0.00018113 0 0.000525324 -0.000198006 0 0.000595642 -0.000217749 0 0.000673006 -0.000240823 0 0.000758577 -0.000267793 0 0.000853709 -0.000299358 0 0.000960001 -0.000336373 0 0.00107935 -0.000379892 0 0.00121402 -0.000431209 0 0.00136676 -0.000491905 0 0.00154091 -0.00056389 0 0.0017406 -0.000649434 0 0.00197097 -0.000751119 0 0.00223863 -0.000871663 0 0.0025522 -0.00101337 0 0.00292325 -0.00117686 0 0.00336776 -0.00135792 0 0.00390716 -0.00154057 0 0.00456633 -0.00168099 0 0.00534624 -0.00167854 0 0.00612686 -0.00136768 0 0.00652122 -0.000760761 0 0 -0.000126598 0 3.86625e-05 -0.000127245 0 7.77106e-05 -0.000129197 0 0.000117536 -0.000132487 0 0.000158545 -0.000137174 0 0.000201159 -0.00014334 0 0.000245832 -0.000151097 0 0.000293049 -0.000160588 0 0.000343343 -0.000171994 0 0.0003973 -0.00018554 0 0.000455576 -0.000201502 0 0.000518911 -0.000220221 0 0.000588147 -0.000242112 0 0.00066425 -0.000267685 0 0.000748339 -0.000297565 0 0.00084172 -0.00033252 0 0.000945927 -0.000373492 0 0.00106278 -0.000421645 0 0.00119446 -0.000478407 0 0.00134359 -0.000545535 0 0.0015134 -0.000625163 0 0.00170786 -0.000719862 0 0.00193204 -0.000832619 0 0.00219249 -0.00096675 0 0.00249812 -0.00112542 0 0.00286122 -0.00131063 0 0.0033004 -0.00152018 0 0.00384237 -0.00174104 0 0.00452772 -0.00192996 0 0.00538489 -0.00197145 0 0.0063166 -0.00161189 0 0.00675956 -0.000754823 0 0 -0.00013939 0 3.82093e-05 -0.0001401 0 7.67965e-05 -0.000142244 0 0.000116146 -0.000145857 0 0.000156653 -0.000151002 0 0.000198732 -0.000157771 0 0.000242826 -0.000166284 0 0.000289408 -0.000176699 0 0.000338996 -0.000189212 0 0.000392161 -0.000204068 0 0.000449538 -0.000221569 0 0.000511844 -0.000242085 0 0.00057989 -0.000266067 0 0.000654607 -0.000294071 0 0.000737071 -0.000326775 0 0.00082853 -0.000365015 0 0.000930453 -0.000409816 0 0.00104457 -0.000462444 0 0.00117297 -0.000524458 0 0.00131814 -0.00059778 0 0.00148316 -0.000684767 0 0.00167183 -0.000788283 0 0.00188911 -0.000911749 0 0.00214136 -0.00105909 0 0.00243773 -0.0012345 0 0.00279081 -0.00144158 0 0.00322179 -0.00168093 0 0.00376166 -0.00194444 0 0.00446908 -0.00219359 0 0.00541019 -0.00230931 0 0.00655693 -0.00192151 0 0.00711323 -0.000705762 0 0 -0.000152024 0 3.77142e-05 -0.000152797 0 7.57979e-05 -0.000155127 0 0.000114626 -0.000159056 0 0.000154586 -0.00016465 0 0.000196082 -0.000172008 0 0.000239544 -0.000181261 0 0.000285434 -0.000192577 0 0.000334253 -0.00020617 0 0.000386555 -0.000222304 0 0.000442954 -0.000241302 0 0.00050414 -0.000263564 0 0.000570893 -0.000289577 0 0.000644106 -0.000319936 0 0.000724805 -0.000355373 0 0.00081418 -0.000396784 0 0.000913626 -0.000445274 0 0.00102478 -0.000502204 0 0.00114962 -0.000569257 0 0.00129048 -0.000648512 0 0.0014503 -0.000742542 0 0.00163264 -0.000854492 0 0.00184233 -0.000988231 0 0.00208533 -0.00114831 0 0.00237115 -0.00134003 0 0.00271182 -0.00156886 0 0.00313134 -0.00183879 0 0.00366265 -0.00214857 0 0.00438381 -0.00247013 0 0.00540631 -0.0026987 0 0.00684833 -0.00234822 0 0.00767549 -0.000547996 0 0 -0.000164487 0 3.71781e-05 -0.00016532 0 7.47166e-05 -0.000167834 0 0.000112981 -0.000172071 0 0.000152349 -0.000178103 0 0.000193214 -0.000186035 0 0.000235993 -0.000196008 0 0.000281134 -0.000208203 0 0.000329123 -0.000222847 0 0.000380494 -0.000240221 0 0.000435839 -0.000260674 0 0.000495819 -0.000284628 0 0.000561181 -0.000312605 0 0.000632775 -0.000345238 0 0.000711578 -0.000383309 0 0.000798715 -0.000427768 0 0.000895501 -0.000479798 0 0.00100348 -0.000540841 0 0.00112449 -0.000612709 0 0.00126073 -0.000697602 0 0.00141493 -0.000798341 0 0.00159046 -0.000918276 0 0.0017918 -0.00106181 0 0.00202478 -0.00123398 0 0.00229818 -0.00144148 0 0.00262496 -0.00169144 0 0.00302729 -0.00199219 0 0.00354606 -0.00235038 0 0.00426023 -0.00275506 0 0.00535789 -0.00314087 0 0.00716047 -0.00296735 0 0.00857957 -0.000323499 0 0 -0.000176766 0 3.6602e-05 -0.000177658 0 7.35548e-05 -0.000180349 0 0.000111214 -0.000184886 0 0.000149946 -0.000191344 0 0.000190133 -0.000199836 0 0.00023218 -0.00021051 0 0.000276518 -0.000223558 0 0.000323619 -0.000239221 0 0.000373993 -0.000257798 0 0.00042821 -0.000279657 0 0.0004869 -0.000305246 0 0.000550777 -0.000335117 0 0.000620645 -0.000369939 0 0.000697426 -0.000410536 0 0.00078218 -0.000457916 0 0.000876133 -0.000513322 0 0.000980732 -0.000578284 0 0.00109766 -0.000654711 0 0.00122901 -0.000744954 0 0.00137716 -0.000851989 0 0.00154552 -0.000979489 0 0.00173757 -0.00113216 0 0.00196016 -0.00131583 0 0.0022186 -0.00153812 0 0.00253136 -0.00180837 0 0.00290787 -0.0021395 0 0.00341394 -0.00254492 0 0.00408676 -0.00304477 0 0.00524421 -0.00361006 0 0.00740104 -0.00393456 0 0.0104262 6.11994e-05 0 0 -0.000188846 0 3.59871e-05 -0.000189795 0 7.23145e-05 -0.00019266 0 0.000109328 -0.000197488 0 0.000147381 -0.000204361 0 0.000186846 -0.000213395 0 0.000228112 -0.000224748 0 0.000271597 -0.000238622 0 0.000317751 -0.000255272 0 0.000367066 -0.000275011 0 0.000420084 -0.000298226 0 0.000477407 -0.000325391 0 0.000539707 -0.000357079 0 0.00060775 -0.000394001 0 0.000682386 -0.00043701 0 0.000764634 -0.000487179 0 0.000855567 -0.000545781 0 0.000956656 -0.000614472 0 0.00106917 -0.000695159 0 0.00119556 -0.00079049 0 0.00133691 -0.000903303 0 0.00149843 -0.00103803 0 0.00167914 -0.0011989 0 0.00189312 -0.00139367 0 0.00213041 -0.00162916 0 0.00243545 -0.00191881 0 0.00276678 -0.00227876 0 0.00327691 -0.00272714 0 0.00384374 -0.0033321 0 0.00506133 -0.00406305 0 0.00731619 -0.00533705 0 0.0149271 -0.000989444 0 0 -0.000200715 0 3.53343e-05 -0.00020172 0 7.09982e-05 -0.000204753 0 0.000107326 -0.000209864 0 0.00014466 -0.000217137 0 0.000183359 -0.000226696 0 0.000223798 -0.000238706 0 0.000266378 -0.000253379 0 0.000311532 -0.00027098 0 0.000359727 -0.000291838 0 0.000411482 -0.000316359 0 0.000467358 -0.000345031 0 0.00052801 -0.000378466 0 0.000594101 -0.000417381 0 0.00066655 -0.000462706 0 0.000746018 -0.000515481 0 0.000834099 -0.00057717 0 0.000930848 -0.000649246 0 0.00104008 -0.000734139 0 0.00115854 -0.000833828 0 0.00129824 -0.00095264 0 0.00144168 -0.00109296 0 0.00163174 -0.00126301 0 0.00179507 -0.00146546 0 0.00208927 -0.00171594 0 0.00223342 -0.00202081 0 0.00280009 -0.00240427 0 0.00277574 -0.0029116 0 0.00418151 -0.00354045 0 0.00372075 -0.0046792 0 0.00742416 -0.00586309 0 0.044031 -0.0198422 0 </DataArray> 
</PointData> 
<Points> 
<DataArray type="Float32" NumberOfComponents="3"> 