<?xml version="1.0"?> 
<VTKFile type="StructuredGrid" version="0.1"> 
<StructuredGrid WholeExtent="0 31 0 31 0 0"> 
<Piece Extent="0 31 0 31 0 0"> 
<PointData>
<DataArray type="Float32" Name="B" format="ascii" NumberOfComponents="3"> 
-0.001567 -0 0 -0.00150106 -0 0 -0.00143421 -0 0 -0.00136686 -0 0 -0.00129938 -0 0 -0.00123215 -0 0 -0.00116548 -0 0 -0.00109968 -0 0 -0.001035 -0 0 -0.000971678 -0 0 -0.000909901 -0 0 -0.000849824 -0 0 -0.000791565 -0 0 -0.000735209 -0 0 -0.000680811 -0 0 -0.000628393 -0 0 -0.000577952 -0 0 -0.000529459 -0 0 -0.000482863 -0 0 -0.000438093 -0 0 -0.000395061 -0 0 -0.000353663 -0 0 -0.000313785 -0 0 -0.000275299 -0 0 -0.00023807 -0 0 -0.000201954 -0 0 -0.000166803 -0 0 -0.000132461 -0 0 -9.87715e-05 -0 0 -6.55736e-05 -0 0 -3.27045e-05 -0 0 0 -0 0 -0.00156766 -6.54114e-05 0 -0.00150151 -6.65302e-05 0 -0.00143446 -6.72328e-05 0 -0.00136692 -6.75382e-05 0 -0.00129926 -6.74702e-05 0 -0.00123186 -6.70568e-05 0 -0.00116504 -6.63292e-05 0 -0.00109911 -6.53211e-05 0 -0.00103432 -6.40681e-05 0 -0.000970903 -6.26064e-05 0 -0.000909049 -6.09724e-05 0 -0.000848912 -5.92021e-05 0 -0.00079061 -5.73301e-05 0 -0.000734229 -5.53894e-05 0 -0.000679819 -5.34111e-05 0 -0.000627403 -5.14238e-05 0 -0.000576976 -4.94536e-05 0 -0.000528509 -4.75242e-05 0 -0.000481948 -4.56565e-05 0 -0.000437222 -4.38691e-05 0 -0.000394242 -4.21781e-05 0 -0.000352903 -4.05972e-05 0 -0.000313088 -3.91382e-05 0 -0.00027467 -3.7811e-05 0 -0.000237513 -3.66237e-05 0 -0.000201472 -3.55831e-05 0 -0.000166397 -3.46946e-05 0 -0.000132135 -3.39624e-05 0 -9.85256e-05 -3.33897e-05 0 -6.54091e-05 -3.2979e-05 0 -3.26221e-05 -3.2732e-05 0 -1.64315e-19 -3.26495e-05 0 -0.00156966 -0.000131254 0 -0.00150287 -0.000133477 0 -0.00143521 -0.000134864 0 -0.00136708 -0.00013545 0 -0.00129888 -0.000135286 0 -0.00123099 -0.000134428 0 -0.00116372 -0.000132939 0 -0.00109739 -0.000130887 0 -0.00103226 -0.000128345 0 -0.000968559 -0.000125385 0 -0.000906474 -0.000122081 0 -0.000846159 -0.000118506 0 -0.000787731 -0.000114729 0 -0.000731271 -0.000110816 0 -0.000676827 -0.000106831 0 -0.000624419 -0.00010283 0 -0.000574038 -9.8866e-05 0 -0.000525649 -9.49861e-05 0 -0.000479196 -9.12324e-05 0 -0.000434604 -8.76415e-05 0 -0.00039178 -8.42456e-05 0 -0.000350616 -8.10721e-05 0 -0.000310993 -7.81443e-05 0 -0.00027278 -7.54817e-05 0 -0.000235838 -7.31006e-05 0 -0.000200022 -7.1014e-05 0 -0.000165179 -6.92327e-05 0 -0.000131154 -6.7765e-05 0 -9.77868e-05 -6.66173e-05 0 -6.4915e-05 -6.57943e-05 0 -3.23745e-05 -6.52992e-05 0 -2.7001e-19 -6.5134e-05 0 -0.00157296 -0.000197964 0 -0.0015051 -0.000201264 0 -0.00143641 -0.000203295 0 -0.00136731 -0.000204115 0 -0.0012982 -0.000203798 0 -0.00122947 -0.000202431 0 -0.00116146 -0.000200112 0 -0.00109447 -0.000196945 0 -0.00102877 -0.000193039 0 -0.000964591 -0.000188507 0 -0.000902123 -0.000183461 0 -0.000841514 -0.00017801 0 -0.000782878 -0.000172261 0 -0.000726291 -0.000166315 0 -0.000671796 -0.000160265 0 -0.000619405 -0.000154198 0 -0.000569103 -0.000148193 0 -0.000520849 -0.000142321 0 -0.000474581 -0.000136644 0 -0.000430216 -0.000131218 0 -0.000387656 -0.00012609 0 -0.000346788 -0.000121301 0 -0.000307486 -0.000116885 0 -0.000269617 -0.000112871 0 -0.000233037 -0.000109282 0 -0.000197598 -0.000106139 0 -0.000163143 -0.000103457 0 -0.000129516 -0.000101247 0 -9.65523e-05 -9.95199e-05 0 -6.40894e-05 -9.82814e-05 0 -3.1961e-05 -9.75364e-05 0 0 -9.72878e-05 0 -0.00157755 -0.00026599 0 -0.00150817 -0.000270325 0 -0.00143801 -0.00027294 0 -0.00136753 -0.000273918 0 -0.00129714 -0.000273361 0 -0.00122723 -0.000271389 0 -0.00115816 -0.000268134 0 -0.00109024 -0.000263741 0 -0.00102375 -0.00025836 0 -0.000958907 -0.000252143 0 -0.000895905 -0.000245244 0 -0.000834891 -0.000237812 0 -0.000775971 -0.000229991 0 -0.000719214 -0.000221916 0 -0.000664655 -0.000213715 0 -0.000612298 -0.000205503 0 -0.000562116 -0.000197387 0 -0.000514061 -0.000189459 0 -0.00046806 -0.000181805 0 -0.000424021 -0.000174496 0 -0.000381838 -0.000167595 0 -0.00034139 -0.000161155 0 -0.000302546 -0.000155222 0 -0.000265164 -0.000149833 0 -0.000229096 -0.000145018 0 -0.000194187 -0.000140803 0 -0.00016028 -0.000137208 0 -0.000127212 -0.000134247 0 -9.48171e-05 -0.000131933 0 -6.29292e-05 -0.000130275 0 -3.13799e-05 -0.000129277 0 -1.01694e-20 -0.000128944 0 -0.00158338 -0.000335799 0 -0.00151201 -0.000341108 0 -0.00143994 -0.000344226 0 -0.00136765 -0.00034526 0 -0.00129559 -0.000344342 0 -0.00122415 -0.00034163 0 -0.00115371 -0.000337295 0 -0.00108459 -0.000331526 0 -0.00101707 -0.000324515 0 -0.000951375 -0.000316461 0 -0.000887694 -0.00030756 0 -0.000826168 -0.000298002 0 -0.000766895 -0.000287972 0 -0.000709934 -0.000277643 0 -0.000655309 -0.000267173 0 -0.00060301 -0.000256711 0 -0.000553 -0.000246389 0 -0.000505216 -0.000236323 0 -0.000459572 -0.000226618 0 -0.000415968 -0.000217364 0 -0.000374283 -0.000208636 0 -0.000334388 -0.000200502 0 -0.000296142 -0.000193014 0 -0.000259395 -0.00018622 0 -0.000223993 -0.000180154 0 -0.000189776 -0.000174847 0 -0.000156578 -0.000170323 0 -0.000124234 -0.0001666 0 -9.2575e-05 -0.000163691 0 -6.14303e-05 -0.000161606 0 -3.06292e-05 -0.000160353 0 -9.62572e-19 -0.000159935 0 -0.0015904 -0.000407883 0 -0.00151654 -0.000414088 0 -0.00144208 -0.000417601 0 -0.00136755 -0.000418555 0 -0.0012934 -0.000417121 0 -0.00122007 -0.000413494 0 -0.00114793 -0.000407893 0 -0.00107733 -0.000400553 0 -0.00100855 -0.000391715 0 -0.000941821 -0.000381626 0 -0.000877321 -0.00037053 0 -0.000815185 -0.000358663 0 -0.0007555 -0.000346251 0 -0.000698313 -0.000333506 0 -0.000643631 -0.000320622 0 -0.00059143 -0.000307778 0 -0.000541655 -0.000295131 0 -0.000494226 -0.000282824 0 -0.000449045 -0.000270979 0 -0.000405992 -0.000259702 0 -0.000364936 -0.000249083 0 -0.000325735 -0.000239199 0 -0.000288237 -0.000230113 0 -0.000252281 -0.000221876 0 -0.000217706 -0.00021453 0 -0.000184343 -0.000208108 0 -0.000152022 -0.000202637 0 -0.000120572 -0.000198137 0 -8.9818e-05 -0.000194623 0 -5.95878e-05 -0.000192106 0 -2.97066e-05 -0.000190593 0 -5.85612e-19 -0.000190088 0 -0.00159853 -0.000482766 0 -0.00152165 -0.000489769 0 -0.00144431 -0.000493539 0 -0.00136705 -0.000494245 0 -0.00129039 -0.000492096 0 -0.00121477 -0.000487335 0 -0.00114061 -0.000480233 0 -0.00106825 -0.000471077 0 -0.000997979 -0.000460165 0 -0.000930029 -0.000447797 0 -0.000864577 -0.000434269 0 -0.000801743 -0.000419866 0 -0.000741602 -0.000404861 0 -0.000684181 -0.000389505 0 -0.000629468 -0.000374029 0 -0.000577419 -0.000358642 0 -0.000527959 -0.000343532 0 -0.000480987 -0.00032886 0 -0.000436385 -0.000314769 0 -0.000394017 -0.000301379 0 -0.000353734 -0.000288794 0 -0.000315379 -0.000277098 0 -0.000278787 -0.00026636 0 -0.000243787 -0.000256639 0 -0.000210206 -0.00024798 0 -0.000177868 -0.000240417 0 -0.000146596 -0.00023398 0 -0.000116212 -0.000228688 0 -8.65377e-05 -0.000224558 0 -5.73962e-05 -0.000221601 0 -2.86094e-05 -0.000219824 0 0 -0.000219231 0 -0.0016077 -0.000561013 0 -0.00152721 -0.00056869 0 -0.00144643 -0.000572549 0 -0.00136595 -0.000572795 0 -0.00128632 -0.000569687 0 -0.00120802 -0.000563521 0 -0.00113148 -0.000554629 0 -0.00105707 -0.000543358 0 -0.000985073 -0.00053007 0 -0.000915731 -0.000515125 0 -0.000849205 -0.000498879 0 -0.000785602 -0.00048167 0 -0.000724977 -0.000463818 0 -0.000667334 -0.000445619 0 -0.000612637 -0.000427342 0 -0.000560816 -0.000409228 0 -0.000511771 -0.000391489 0 -0.000465376 -0.000374312 0 -0.00042149 -0.000357854 0 -0.000379955 -0.00034225 0 -0.000340603 -0.000327613 0 -0.00030326 -0.000314034 0 -0.000267745 -0.00030159 0 -0.000233874 -0.00029034 0 -0.000201463 -0.000280331 0 -0.000170327 -0.0002716 0 -0.000140281 -0.000264175 0 -0.000111142 -0.000258077 0 -8.27251e-05 -0.00025332 0 -5.48498e-05 -0.000249916 0 -2.73349e-05 -0.000247871 0 0 -0.000247189 0 -0.00161778 -0.000643242 0 -0.00153307 -0.000651442 0 -0.00144826 -0.000655179 0 -0.001364 -0.000654707 0 -0.0012809 -0.000650339 0 -0.00119949 -0.000642438 0 -0.00112021 -0.000631404 0 -0.00104345 -0.000617657 0 -0.000969506 -0.00060163 0 -0.000898606 -0.000583754 0 -0.0008309 -0.000564449 0 -0.000766476 -0.000544112 0 -0.000705362 -0.000523118 0 -0.000647534 -0.000501807 0 -0.000592926 -0.000480487 0 -0.000541434 -0.000459433 0 -0.000492928 -0.000438882 0 -0.000447254 -0.00041904 0 -0.000404242 -0.000400081 0 -0.000363708 -0.000382151 0 -0.000325463 -0.00036537 0 -0.000289312 -0.000349835 0 -0.000255057 -0.000335624 0 -0.0002225 -0.000322797 0 -0.000191445 -0.000311403 0 -0.000161696 -0.000301476 0 -0.000133061 -0.000293043 0 -0.000105349 -0.000286123 0 -7.83713e-05 -0.000280729 0 -5.19433e-05 -0.000276871 0 -2.58805e-05 -0.000274554 0 0 -0.000273781 0 -0.00162865 -0.000730133 0 -0.001539 -0.000738669 0 -0.00144951 -0.000742029 0 -0.00136089 -0.000740522 0 -0.0012738 -0.00073453 0 -0.00118881 -0.000724493 0 -0.00110641 -0.000710892 0 -0.001027 -0.000694235 0 -0.000950885 -0.000675037 0 -0.000878275 -0.00065381 0 -0.000809304 -0.000631044 0 -0.000744032 -0.000607207 0 -0.000682454 -0.000582728 0 -0.000624509 -0.000557997 0 -0.000570092 -0.000533362 0 -0.000519063 -0.000509129 0 -0.000471251 -0.00048556 0 -0.000426469 -0.00046288 0 -0.000384513 -0.000441275 0 -0.000345172 -0.000420899 0 -0.000308229 -0.000401877 0 -0.000273468 -0.000384308 0 -0.000240671 -0.00036827 0 -0.000209626 -0.000353821 0 -0.000180121 -0.000341005 0 -0.000151952 -0.000329856 0 -0.000124918 -0.000320397 0 -9.88207e-05 -0.000312642 0 -7.34685e-05 -0.000306602 0 -4.86718e-05 -0.000302284 0 -2.42439e-05 -0.000299692 0 0 -0.000298828 0 -0.00164014 -0.000822442 0 -0.00154478 -0.000831087 0 -0.00144988 -0.000833759 0 -0.00135623 -0.000830833 0 -0.00126457 -0.000822774 0 -0.00117552 -0.000810115 0 -0.00108961 -0.000793439 0 -0.00100725 -0.000773354 0 -0.000928744 -0.000750472 0 -0.000854291 -0.000725397 0 -0.000783997 -0.000698707 0 -0.000717884 -0.000670938 0 -0.000655904 -0.000642583 0 -0.00059795 -0.000614084 0 -0.000543867 -0.000585828 0 -0.00049347 -0.000558153 0 -0.000446542 -0.000531344 0 -0.000402855 -0.000505639 0 -0.000362168 -0.000481235 0 -0.000324236 -0.000458289 0 -0.000288814 -0.000436928 0 -0.000255659 -0.000417249 0 -0.000224535 -0.000399324 0 -0.000195211 -0.000383208 0 -0.000167463 -0.00036894 0 -0.000141075 -0.000356547 0 -0.000115838 -0.000346045 0 -9.15485e-05 -0.000337445 0 -6.80106e-05 -0.000330753 0 -4.50318e-05 -0.000325972 0 -2.24235e-05 -0.000323103 0 0 -0.000322147 0 -0.00165205 -0.00092102 0 -0.00155011 -0.000929498 0 -0.00144897 -0.000931101 0 -0.00134957 -0.000926287 0 -0.0012527 -0.000915624 0 -0.00115907 -0.00089976 0 -0.00106924 -0.000879398 0 -0.000983626 -0.000855266 0 -0.000902533 -0.000828095 0 -0.000826135 -0.000798595 0 -0.000754498 -0.000767439 0 -0.000687595 -0.000735245 0 -0.000625321 -0.000702573 0 -0.000567512 -0.000669917 0 -0.000513954 -0.000637706 0 -0.000464403 -0.000606304 0 -0.000418592 -0.000576016 0 -0.000376242 -0.000547091 0 -0.000337069 -0.00051973 0 -0.000300792 -0.00049409 0 -0.000267132 -0.000470294 0 -0.000235821 -0.000448431 0 -0.000206601 -0.000428566 0 -0.000179221 -0.000410746 0 -0.000153446 -0.000395 0 -0.000129048 -0.000381344 0 -0.00010581 -0.00036979 0 -8.3526e-05 -0.000360339 0 -6.19943e-05 -0.000352992 0 -4.10215e-05 -0.000347747 0 -2.04187e-05 -0.000344601 0 0 -0.000343552 0 -0.00166414 -0.00102684 0 -0.0015546 -0.00103481 0 -0.00144632 -0.00103488 0 -0.00134034 -0.0010276 0 -0.00123759 -0.00101369 0 -0.00113881 -0.000993909 0 -0.00104462 -0.000969126 0 -0.000955462 -0.000940213 0 -0.000871609 -0.00090804 0 -0.000793201 -0.000873442 0 -0.000720251 -0.000837199 0 -0.000652665 -0.00080002 0 -0.000590267 -0.000762536 0 -0.000532817 -0.000725296 0 -0.00048003 -0.000688764 0 -0.000431594 -0.000653332 0 -0.000387179 -0.000619316 0 -0.00034645 -0.000586972 0 -0.000309076 -0.000556497 0 -0.00027473 -0.000528044 0 -0.000243103 -0.000501722 0 -0.000213896 -0.000477611 0 -0.000186826 -0.000455762 0 -0.000161629 -0.000436208 0 -0.000138053 -0.000418966 0 -0.000115862 -0.000404041 0 -9.48317e-05 -0.000391431 0 -7.47518e-05 -0.00038113 0 -5.54198e-05 -0.00037313 0 -3.66419e-05 -0.000367423 0 -1.82299e-05 -0.000364001 0 3.02276e-19 -0.000362861 0 -0.0016761 -0.001141 0 -0.00155782 -0.00114805 0 -0.00144135 -0.00114602 0 -0.00132788 -0.00113559 0 -0.00121846 -0.00111761 0 -0.00111393 -0.00109307 0 -0.00101495 -0.00106298 0 -0.000921966 -0.00102841 0 -0.000835218 -0.0009904 0 -0.000754792 -0.000949921 0 -0.000680625 -0.000907881 0 -0.000612536 -0.000865086 0 -0.000550256 -0.000822243 0 -0.000493453 -0.000779951 0 -0.000441754 -0.000738712 0 -0.000394764 -0.000698932 0 -0.000352081 -0.000660936 0 -0.000313307 -0.000624975 0 -0.000278054 -0.000591237 0 -0.000245954 -0.000559859 0 -0.000216656 -0.000530935 0 -0.000189834 -0.000504524 0 -0.000165183 -0.00048066 0 -0.000142418 -0.000459357 0 -0.000121277 -0.000440614 0 -0.000101516 -0.000424421 0 -8.29047e-05 -0.000410762 0 -6.52309e-05 -0.000399619 0 -4.82924e-05 -0.000390975 0 -3.18969e-05 -0.000384813 0 -1.58595e-05 -0.000381121 0 2.69086e-18 -0.000379891 0 -0.00168758 -0.00126479 0 -0.00155922 -0.00127041 0 -0.00143334 -0.00126557 0 -0.00131133 -0.00125113 0 -0.00119439 -0.00122813 0 -0.00108347 -0.00119777 0 -0.000979264 -0.00116132 0 -0.000882199 -0.00112005 0 -0.00079248 -0.00107521 0 -0.000710105 -0.00102795 0 -0.000634907 -0.000979299 0 -0.000566588 -0.000930184 0 -0.000504762 -0.000881381 0 -0.000448982 -0.000833539 0 -0.000398767 -0.000787185 0 -0.000353627 -0.000742736 0 -0.000313077 -0.00070051 0 -0.000276644 -0.000660746 0 -0.000243884 -0.00062361 0 -0.000214378 -0.000589215 0 -0.000187738 -0.00055763 0 -0.000163607 -0.000528888 0 -0.000141656 -0.000502996 0 -0.000121587 -0.000479945 0 -0.000103126 -0.000459711 0 -8.60212e-05 -0.000442266 0 -7.00426e-05 -0.000427577 0 -5.49763e-05 -0.000415611 0 -4.0623e-05 -0.000406338 0 -2.67947e-05 -0.000399734 0 -1.33117e-05 -0.000395779 0 4.97761e-19 -0.000394462 0 -0.00169812 -0.00139971 0 -0.00155812 -0.00140329 0 -0.00142141 -0.00139478 0 -0.00128967 -0.00137524 0 -0.00116427 -0.00134601 0 -0.00104626 -0.00130857 0 -0.000936389 -0.00126446 0 -0.000835052 -0.00121526 0 -0.00074237 -0.00116243 0 -0.000658221 -0.00110733 0 -0.000582293 -0.00105116 0 -0.000514138 -0.000994947 0 -0.000453217 -0.000939536 0 -0.000398943 -0.00088562 0 -0.000350706 -0.000833738 0 -0.000307905 -0.000784302 0 -0.000269957 -0.000737612 0 -0.000236314 -0.000693878 0 -0.000206466 -0.000653234 0 -0.000179942 -0.000615757 0 -0.000156316 -0.000581478 0 -0.000135202 -0.000550397 0 -0.000116252 -0.000522489 0 -9.91521e-05 -0.000497713 0 -8.36208e-05 -0.00047602 0 -6.94037e-05 -0.000457356 0 -5.62705e-05 -0.000441669 0 -4.40106e-05 -0.00042891 0 -3.24302e-05 -0.000419034 0 -2.13481e-05 -0.000412007 0 -1.05931e-05 -0.000407801 0 0 -0.000406401 0 -0.00170721 -0.00154757 0 -0.00155367 -0.0015483 0 -0.00140449 -0.00153504 0 -0.00126162 -0.00150909 0 -0.00112668 -0.00147213 0 -0.00100087 -0.00142602 0 -0.000884927 -0.00137269 0 -0.000779208 -0.00131406 0 -0.000683695 -0.00125189 0 -0.000598092 -0.00118776 0 -0.000521892 -0.00112305 0 -0.000454445 -0.00105888 0 -0.000395024 -0.000996173 0 -0.000342866 -0.000935644 0 -0.000297214 -0.000877826 0 -0.000257334 -0.000823106 0 -0.00022254 -0.000771747 0 -0.000192198 -0.000723911 0 -0.000165729 -0.000679684 0 -0.000142614 -0.000639094 0 -0.000122389 -0.000602125 0 -0.00010464 -0.000568731 0 -8.90028e-05 -0.000538848 0 -7.51532e-05 -0.000512397 0 -6.28055e-05 -0.000489298 0 -5.17059e-05 -0.00046947 0 -4.16278e-05 -0.000452836 0 -3.23677e-05 -0.000439327 0 -2.37405e-05 -0.000428884 0 -1.55756e-05 -0.000421459 0 -7.7131e-06 -0.000417019 0 0 -0.000415541 0 -0.00171412 -0.0017104 0 -0.00154484 -0.00170742 0 -0.00138118 -0.00168803 0 -0.00122556 -0.00165398 0 -0.0010799 -0.00160741 0 -0.000945525 -0.00155067 0 -0.000823186 -0.00148622 0 -0.000713109 -0.00141637 0 -0.000615075 -0.00134326 0 -0.000528538 -0.00126874 0 -0.000452723 -0.00119434 0 -0.000386721 -0.00112131 0 -0.000329567 -0.0010506 0 -0.000280291 -0.000982931 0 -0.000237955 -0.000918796 0 -0.000201687 -0.000858534 0 -0.000170681 -0.000802345 0 -0.000144217 -0.000750324 0 -0.000121648 -0.00070249 0 -0.000102406 -0.000658805 0 -8.5993e-05 -0.000619193 0 -7.19743e-05 -0.000583554 0 -5.99719e-05 -0.000551773 0 -4.96578e-05 -0.00052373 0 -4.07468e-05 -0.000499307 0 -3.29902e-05 -0.000478391 0 -2.61703e-05 -0.000460878 0 -2.00944e-05 -0.000446679 0 -1.45904e-05 -0.000435717 0 -9.50195e-06 -0.00042793 0 -4.68423e-06 -0.000423276 0 6.73524e-19 -0.000421728 0 -0.00171818 -0.00189101 0 -0.0015303 -0.00188299 0 -0.00134975 -0.00185576 0 -0.00117946 -0.00181145 0 -0.00102173 -0.00175285 0 -0.000878053 -0.00168304 0 -0.00074911 -0.00160509 0 -0.00063491 -0.0015219 0 -0.000534922 -0.001436 0 -0.00044824 -0.00134954 0 -0.00037373 -0.00126423 0 -0.00031015 -0.00118138 0 -0.00025624 -0.00110197 0 -0.000210783 -0.00102665 0 -0.000172644 -0.00095587 0 -0.000140789 -0.000889872 0 -0.000114296 -0.000828761 0 -9.23528e-05 -0.000772541 0 -7.42513e-05 -0.00072114 0 -5.93797e-05 -0.000674438 0 -4.72124e-05 -0.000632287 0 -3.73003e-05 -0.000594518 0 -2.92601e-05 -0.00056096 0 -2.27656e-05 -0.000531445 0 -1.75388e-05 -0.000505811 0 -1.33422e-05 -0.00048391 0 -9.97207e-06 -0.00046561 0 -7.25178e-06 -0.000450797 0 -5.02667e-06 -0.000439376 0 -3.15881e-06 -0.000431272 0 -1.5225e-06 -0.000426431 0 2.96723e-18 -0.000424821 0 -0.00171826 -0.00209224 0 -0.00150841 -0.00207801 0 -0.00130792 -0.00204065 0 -0.00112065 -0.00198325 0 -0.000949388 -0.00190952 0 -0.000795729 -0.0018235 0 -0.0006602 -0.00172915 0 -0.000542436 -0.00163005 0 -0.000441424 -0.00152923 0 -0.000355753 -0.00142912 0 -0.000283806 -0.00133159 0 -0.000223918 -0.00123797 0 -0.000174475 -0.00114918 0 -0.000133976 -0.0010658 0 -0.000101066 -0.00098814 0 -7.45473e-05 -0.000916305 0 -5.33785e-05 -0.000850275 0 -3.66634e-05 -0.00078993 0 -2.36395e-05 -0.000735085 0 -1.36618e-05 -0.00068552 0 -6.18792e-06 -0.000640996 0 -7.63857e-07 -0.000601271 0 2.9894e-06 -0.000566107 0 5.38765e-06 -0.00053528 0 6.69391e-06 -0.000508584 0 7.12758e-06 -0.000485831 0 6.87236e-06 -0.000466859 0 6.08318e-06 -0.000451527 0 4.89228e-06 -0.000439722 0 3.41456e-06 -0.000431354 0 1.7524e-06 -0.000426358 0 2.53303e-19 -0.000424698 0 -0.00171362 -0.00231905 0 -0.00147696 -0.00229621 0 -0.00125268 -0.00224572 0 -0.00104565 -0.00217142 0 -0.00085925 -0.00207845 0 -0.000695122 -0.00197223 0 -0.000553419 -0.00185788 0 -0.000433142 -0.00173983 0 -0.000332555 -0.00162165 0 -0.000249533 -0.00150605 0 -0.000181832 -0.00139496 0 -0.00012726 -0.00128967 0 -8.379e-05 -0.00119096 0 -4.96059e-05 -0.00109921 0 -2.31229e-05 -0.00101456 0 -2.98123e-06 -0.000936917 0 1.19705e-05 -0.000866095 0 2.26972e-05 -0.000801813 0 3.00012e-05 -0.000743748 0 3.45452e-05 -0.00069156 0 3.68739e-05 -0.000644908 0 3.74328e-05 -0.000603465 0 3.65851e-05 -0.00056692 0 3.46255e-05 -0.000534989 0 3.17932e-05 -0.000507417 0 2.82815e-05 -0.000483976 0 2.4247e-05 -0.000464471 0 1.9817e-05 -0.000448735 0 1.5096e-05 -0.000436635 0 1.0171e-05 -0.000428067 0 5.11685e-06 -0.000422955 0 0 -0.000421256 0 -0.00170238 -0.00257556 0 -0.00143305 -0.00254263 0 -0.0011799 -0.00247477 0 -0.000949737 -0.00237832 0 -0.000746575 -0.00226058 0 -0.000571902 -0.00212898 0 -0.000425088 -0.00199016 0 -0.000304096 -0.00184958 0 -0.000206102 -0.00171135 0 -0.000128006 -0.00157835 0 -6.67568e-05 -0.00145245 0 -1.95382e-05 -0.00133473 0 1.61418e-05 -0.00122571 0 4.24269e-05 -0.0011255 0 6.11261e-05 -0.00103393 0 7.37436e-05 -0.000950698 0 8.15173e-05 -0.000875369 0 8.54573e-05 -0.000807476 0 8.63821e-05 -0.000746533 0 8.49509e-05 -0.000692065 0 8.16917e-05 -0.000643616 0 7.70248e-05 -0.000600764 0 7.12832e-05 -0.000563123 0 6.47287e-05 -0.000530345 0 5.75658e-05 -0.000502124 0 4.99533e-05 -0.000478191 0 4.20132e-05 -0.000458317 0 3.38389e-05 -0.000442313 0 2.55015e-05 -0.000430022 0 1.70554e-05 -0.000421328 0 8.54331e-06 -0.000416144 0 0 -0.000414422 0 -0.00168375 -0.00287248 0 -0.00137243 -0.00282397 0 -0.00108373 -0.00273258 0 -0.00082636 -0.00260652 0 -0.000605064 -0.00245645 0 -0.000420581 -0.00229272 0 -0.000270815 -0.00212398 0 -0.000152008 -0.00195679 0 -5.97625e-05 -0.00179566 0 1.03252e-05 -0.00164343 0 6.22927e-05 -0.00150166 0 9.96635e-05 -0.00137103 0 0.000125412 -0.00125161 0 0.000141995 -0.0011431 0 0.000151412 -0.00104497 0 0.000155274 -0.000956566 0 0.000154866 -0.000877205 0 0.000151206 -0.00080619 0 0.000145097 -0.000742849 0 0.000137167 -0.000686556 0 0.000127903 -0.000636733 0 0.00011768 -0.000592859 0 0.000106785 -0.000554469 0 9.54326e-05 -0.000521151 0 8.37821e-05 -0.000492548 0 7.1948e-05 -0.000468352 0 6.001e-05 -0.000448301 0 4.80212e-05 -0.000432182 0 3.60137e-05 -0.00041982 0 2.40047e-05 -0.000411083 0 1.20003e-05 -0.000405878 0 0 -0.000404149 0 -0.00165412 -0.00321577 0 -0.00128889 -0.00314974 0 -0.000955426 -0.00302542 0 -0.000666252 -0.00285861 0 -0.000426249 -0.0026657 0 -0.000234286 -0.0024611 0 -8.54792e-05 -0.0022559 0 2.66287e-05 -0.00205765 0 0.00010867 -0.00187086 0 0.000166687 -0.00169789 0 0.000205846 -0.00153964 0 0.000230401 -0.00139606 0 0.000243771 -0.00126657 0 0.000248663 -0.00115031 0 0.0002472 -0.00104626 0 0.000241031 -0.000953394 0 0.00023143 -0.000870702 0 0.000219375 -0.000797236 0 0.000205611 -0.000732126 0 0.000190698 -0.000674585 0 0.000175057 -0.00062391 0 0.000158995 -0.00057948 0 0.000142734 -0.000540752 0 0.000126427 -0.000507252 0 0.000110176 -0.000478574 0 9.4042e-05 -0.000454374 0 7.80544e-05 -0.000434362 0 6.22195e-05 -0.0004183 0 4.65257e-05 -0.000405998 0 3.09481e-05 -0.000397313 0 1.54528e-05 -0.000392141 0 0 -0.000390424 0 -0.00161113 -0.00363273 0 -0.00117221 -0.0035334 0 -0.000781579 -0.00336074 0 -0.000455927 -0.00313659 0 -0.000198794 -0.00288602 0 -4.5862e-06 -0.00262945 0 0.00013656 -0.0023804 0 0.000235225 -0.00214668 0 0.000300974 -0.001932 0 0.000341751 -0.0017375 0 0.000363864 -0.00156286 0 0.000372205 -0.00140695 0 0.00037051 -0.00126829 0 0.000361609 -0.00114529 0 0.000347631 -0.00103638 0 0.00033017 -0.000940058 0 0.00031041 -0.000854985 0 0.000289224 -0.000779941 0 0.000267249 -0.000713849 0 0.00024494 -0.000655762 0 0.000222618 -0.000604855 0 0.0002005 -0.000560412 0 0.000178721 -0.000521816 0 0.00015736 -0.00048854 0 0.000136449 -0.000460133 0 0.000115986 -0.000436218 0 9.59431e-05 -0.000416481 0 7.62747e-05 -0.000400665 0 5.692e-05 -0.000388568 0 3.78083e-05 -0.000380034 0 1.88622e-05 -0.000374957 0 0 -0.000373272 0 -0.00154798 -0.00413152 0 -0.00100499 -0.00399475 0 -0.000540478 -0.0037481 0 -0.000175519 -0.00343981 0 9.22115e-05 -0.00311122 0 0.000278256 -0.00278931 0 0.000400873 -0.00248891 0 0.000476455 -0.00221626 0 0.000517974 -0.0019727 0 0.000535242 -0.00175713 0 0.000535464 -0.00156728 0 0.000523896 -0.00140057 0 0.00050434 -0.00125436 0 0.000479543 -0.00112622 0 0.000451479 -0.00101391 0 0.000421558 -0.000915501 0 0.000390778 -0.000829262 0 0.000359834 -0.000753716 0 0.000329197 -0.000687587 0 0.000299178 -0.000629779 0 0.000269964 -0.000579353 0 0.000241654 -0.000535512 0 0.000214283 -0.000497576 0 0.000187837 -0.00046497 0 0.000162269 -0.00043721 0 0.000137506 -0.000413893 0 0.000113455 -0.000394687 0 9.00147e-05 -0.00037932 0 6.70701e-05 -0.000367581 0 4.45022e-05 -0.000359308 0 2.21875e-05 -0.000354388 0 0 -0.000352756 0 -0.00145016 -0.00479277 0 -0.000755806 -0.00456484 0 -0.00019517 -0.00419476 0 0.000203967 -0.00376136 0 0.000465347 -0.00332752 0 0.000624044 -0.00292627 0 0.000711668 -0.00256891 0 0.000751194 -0.00225634 0 0.000758811 -0.00198528 0 0.000745453 -0.00175096 0 0.000718621 -0.00154859 0 0.000683402 -0.00137371 0 0.000643287 -0.00122241 0 0.000600654 -0.00109134 0 0.000557117 -0.000977609 0 0.000513756 -0.000878806 0 0.000471274 -0.00079288 0 0.000430108 -0.000718106 0 0.00039051 -0.000653032 0 0.000352597 -0.000596435 0 0.000316394 -0.000547288 0 0.000281862 -0.000504725 0 0.000248913 -0.00046802 0 0.000217432 -0.000436566 0 0.000187282 -0.000409856 0 0.00015831 -0.000387469 0 0.000130357 -0.000369062 0 0.000103258 -0.000354357 0 7.68429e-05 -0.000343136 0 5.09425e-05 -0.000335235 0 2.53854e-05 -0.000330539 0 0 -0.000328981 0 -0.00131103 -0.00564288 0 -0.000354528 -0.00528826 0 0.000318096 -0.0047023 0 0.000723333 -0.00407677 0 0.000939657 -0.00350802 0 0.00103969 -0.00301778 0 0.00106926 -0.00260344 0 0.00105708 -0.0022548 0 0.00102002 -0.00196108 0 0.000968776 -0.00171294 0 0.000909897 -0.00150248 0 0.00084763 -0.00132336 0 0.000784626 -0.00117033 0 0.000722582 -0.00103918 0 0.000662519 -0.000926443 0 0.000605033 -0.00082929 0 0.000550423 -0.000745392 0 0.000498795 -0.000672835 0 0.000450122 -0.000610031 0 0.000404295 -0.00055567 0 0.000361148 -0.000508661 0 0.00032048 -0.000468099 0 0.000282073 -0.000433231 0 0.000245696 -0.000403434 0 0.000211114 -0.000378191 0 0.000178095 -0.000357077 0 0.000146405 -0.000339745 0 0.000115816 -0.000325919 0 8.61011e-05 -0.000315379 0 5.70396e-05 -0.000307964 0 2.84117e-05 -0.000303559 0 0 -0.000302099 0 -0.00101927 -0.00699104 0 0.000350811 -0.00623656 0 0.00111222 -0.00522281 0 0.00142626 -0.00432693 0 0.00152715 -0.0036059 0 0.00152214 -0.00303257 0 0.00146728 -0.00257236 0 0.0013866 -0.00219849 0 0.00129493 -0.00189164 0 0.00119929 -0.00163742 0 0.00110436 -0.00142528 0 0.00101242 -0.00124705 0 0.000924916 -0.00109651 0 0.000842457 -0.000968713 0 0.000765302 -0.00085978 0 0.000693403 -0.000766585 0 0.000626571 -0.000686622 0 0.000564512 -0.000617854 0 0.000506882 -0.000558627 0 0.00045331 -0.000507584 0 0.000403419 -0.000463613 0 0.000356838 -0.000425799 0 0.000313202 -0.00039339 0 0.000272163 -0.000365763 0 0.000233386 -0.00034241 0 0.000196551 -0.000322913 0 0.000161353 -0.000306934 0 0.000127499 -0.000294202 0 9.47071e-05 -0.000284506 0 6.27035e-05 -0.00027769 0 3.12218e-05 -0.000273643 0 0 -0.000272302 0 -0.000612697 -0.00943691 0 0.00185389 -0.00738057 0 0.00231303 -0.00557527 0 0.00233385 -0.00439193 0 0.00220451 -0.00355642 0 0.00205437 -0.00293585 0 0.00188713 -0.00245598 0 0.0017273 -0.00207613 0 0.00157267 -0.00177006 0 0.00142912 -0.0015203 0 0.00129547 -0.00131442 0 0.00117275 -0.00114331 0 0.00106004 -0.0010001 0 0.000957005 -0.000879521 0 0.000862787 -0.000777474 0 0.000776693 -0.00069073 0 0.000697935 -0.000616717 0 0.000625796 -0.000553385 0 0.000559579 -0.000499078 0 0.000498642 -0.000452458 0 0.000442383 -0.000412434 0 0.000390251 -0.000378118 0 0.000341737 -0.000348784 0 0.00029637 -0.000323835 0 0.000253717 -0.000302787 0 0.000213372 -0.000285243 0 0.000174959 -0.000270884 0 0.000138122 -0.000259457 0 0.000102525 -0.000250763 0 6.7846e-05 -0.000244654 0 3.37724e-05 -0.000241029 0 0 -0.000239828 0 0.00353313 -0.0177469 0 0.0047713 -0.0071885 0 0.00400418 -0.00539684 0 0.00324996 -0.00410722 0 0.00296264 -0.00330913 0 0.00256682 -0.00270116 0 0.0023178 -0.0022419 0 0.00205282 -0.00188175 0 0.00184438 -0.00159256 0 0.00164645 -0.00136014 0 0.00147702 -0.00116895 0 0.00132242 -0.00101205 0 0.00118587 -0.000881165 0 0.0010626 -0.000771986 0 0.00095226 -0.000679955 0 0.000852638 -0.000602239 0 0.000762723 -0.000536192 0 0.000681175 -0.000479947 0 0.000607023 -0.000431883 0 0.000539311 -0.00039077 0 0.000477235 -0.000355574 0 0.00042006 -0.000325479 0 0.000367136 -0.000299809 0 0.000317875 -0.000278022 0 0.000271747 -0.000259671 0 0.000228268 -0.000244399 0 0.000186993 -0.000231914 0 0.00014751 -0.000221987 0 0.000109429 -0.000214441 0 7.23848e-05 -0.000209142 0 3.60229e-05 -0.000205998 0 0 -0.000204957 0 </DataArray> 
</PointData> 
<Points> 
<DataArray type="Float32" NumberOfComponents="3"> 