<?xml version="1.0"?> 
<VTKFile type="StructuredGrid" version="0.1"> 
<StructuredGrid WholeExtent="0 31 0 31 0 0"> 
<Piece Extent="0 31 0 31 0 0"> 
<PointData>
<DataArray type="Float32" Name="B" format="ascii" NumberOfComponents="3"> 
0 -0 0 -3.23506e-05 -0 0 -6.48668e-05 -0 0 -9.77133e-05 -0 0 -0.000131054 -0 0 -0.000165051 -0 0 -0.000199863 -0 0 -0.000235645 -0 0 -0.000272549 -0 0 -0.00031072 -0 0 -0.000350296 -0 0 -0.000391405 -0 0 -0.000434168 -0 0 -0.000478689 -0 0 -0.000525061 -0 0 -0.000573358 -0 0 -0.000623633 -0 0 -0.00067592 -0 0 -0.000730225 -0 0 -0.000786528 -0 0 -0.000844778 -0 0 -0.00090489 -0 0 -0.000966748 -0 0 -0.0010302 -0 0 -0.00109504 -0 0 -0.00116106 -0 0 -0.00122799 -0 0 -0.00129551 -0 0 -0.0013633 -0 0 -0.001431 -0 0 -0.0014982 -0 0 -0.0015645 -0 0 -8.12666e-20 3.22954e-05 0 -3.22678e-05 3.23783e-05 0 -6.47015e-05 3.26265e-05 0 -9.74661e-05 3.30394e-05 0 -0.000130726 3.36152e-05 0 -0.000164643 3.43517e-05 0 -0.000199377 3.52459e-05 0 -0.000235084 3.62938e-05 0 -0.000271915 3.74902e-05 0 -0.000310017 3.88286e-05 0 -0.000349528 4.03013e-05 0 -0.000390578 4.18986e-05 0 -0.000433287 4.3609e-05 0 -0.000477763 4.5419e-05 0 -0.000524098 4.73125e-05 0 -0.000572367 4.92713e-05 0 -0.000622626 5.12744e-05 0 -0.000674909 5.32979e-05 0 -0.000729224 5.53156e-05 0 -0.000785552 5.72983e-05 0 -0.000843843 5.92145e-05 0 -0.000904015 6.10304e-05 0 -0.00096595 6.27106e-05 0 -0.00102949 6.4218e-05 0 -0.00109446 6.55153e-05 0 -0.00116061 6.65648e-05 0 -0.00122768 6.733e-05 0 -0.00129537 6.77759e-05 0 -0.00136335 6.78701e-05 0 -0.00143124 6.75839e-05 0 -0.00149865 6.68927e-05 0 -0.00156517 6.57773e-05 0 -1.33535e-19 6.4425e-05 0 -3.20191e-05 6.4591e-05 0 -6.42049e-05 6.50884e-05 0 -9.67235e-05 6.59156e-05 0 -0.00012974 6.70694e-05 0 -0.000163418 6.85456e-05 0 -0.000197917 7.0338e-05 0 -0.000233397 7.24389e-05 0 -0.000270009 7.4838e-05 0 -0.000307903 7.75228e-05 0 -0.000347219 8.04777e-05 0 -0.000388089 8.36837e-05 0 -0.000430638 8.71181e-05 0 -0.000474975 9.07539e-05 0 -0.000521196 9.45594e-05 0 -0.000569381 9.8498e-05 0 -0.00061959 0.000102528 0 -0.000671861 0.000106601 0 -0.000726205 0.000110666 0 -0.000782608 0.000114663 0 -0.000841023 0.000118529 0 -0.00090137 0.000122196 0 -0.000963536 0.000125594 0 -0.00102737 0.000128646 0 -0.00109267 0.000131278 0 -0.00115922 0.000133414 0 -0.00122675 0.00013498 0 -0.00129495 0.000135904 0 -0.00136348 0.000136121 0 -0.00143196 0.000135574 0 -0.0015 0.000134211 0 -0.00156716 0.000131994 0 0 9.62224e-05 0 -3.16036e-05 9.64721e-05 0 -6.33754e-05 9.72204e-05 0 -9.54828e-05 9.84649e-05 0 -0.000128093 0.000100201 0 -0.00016137 0.000102423 0 -0.000195478 0.000105121 0 -0.000230576 0.000108285 0 -0.000266822 0.0001119 0 -0.000304366 0.000115946 0 -0.000343353 0.000120402 0 -0.000383921 0.00012524 0 -0.000426198 0.000130425 0 -0.000470299 0.000135918 0 -0.000516327 0.000141672 0 -0.000564369 0.000147632 0 -0.000614489 0.000153736 0 -0.000666734 0.000159913 0 -0.000721122 0.000166082 0 -0.000777645 0.000172157 0 -0.000836263 0.000178041 0 -0.000896902 0.000183632 0 -0.00095945 0.000188821 0 -0.00102376 0.000193495 0 -0.00108964 0.000197538 0 -0.00115686 0.000200835 0 -0.00122515 0.000203272 0 -0.00129419 0.00020474 0 -0.00136364 0.000205139 0 -0.00143312 0.00020438 0 -0.00150221 0.000202385 0 -0.00157047 0.000199095 0 -5.02857e-21 0.00012752 0 -3.102e-05 0.000127854 0 -6.221e-05 0.000128856 0 -9.37394e-05 0.000130522 0 -0.000125777 0.000132847 0 -0.000158491 0.000135823 0 -0.000192047 0.000139439 0 -0.000226608 0.00014368 0 -0.000262335 0.000148528 0 -0.000299384 0.00015396 0 -0.000337905 0.000159945 0 -0.000378042 0.000166447 0 -0.000419931 0.000173423 0 -0.000463694 0.00018082 0 -0.000509443 0.000188577 0 -0.000557273 0.000196622 0 -0.00060726 0.000204871 0 -0.000659459 0.00021323 0 -0.0007139 0.000221592 0 -0.000770583 0.000229841 0 -0.000829477 0.000237846 0 -0.000890517 0.000245469 0 -0.000953597 0.000252563 0 -0.00101857 0.000258975 0 -0.00108526 0.000264545 0 -0.00115342 0.000269116 0 -0.00122278 0.000272533 0 -0.00129302 0.000274647 0 -0.00136378 0.000275318 0 -0.00143467 0.000274424 0 -0.00150525 0.000271859 0 -0.00157506 0.000267539 0 -4.75913e-19 0.000158149 0 -3.02664e-05 0.000158569 0 -6.07049e-05 0.000159827 0 -9.14875e-05 0.00016192 0 -0.000122785 0.000164841 0 -0.00015477 0.000168582 0 -0.000187609 0.00017313 0 -0.000221473 0.000178468 0 -0.000256525 0.000184573 0 -0.000292928 0.000191418 0 -0.00033084 0.000198968 0 -0.000370411 0.000207179 0 -0.000411787 0.000215998 0 -0.0004551 0.000225361 0 -0.000500474 0.000235193 0 -0.000548016 0.000245405 0 -0.000597815 0.000255894 0 -0.000649938 0.000266541 0 -0.000704429 0.000277215 0 -0.000761303 0.000287766 0 -0.000820539 0.000298031 0 -0.000882084 0.000307835 0 -0.000945841 0.000316988 0 -0.00101167 0.000325294 0 -0.00107939 0.000332551 0 -0.00114877 0.000338553 0 -0.00121952 0.0003431 0 -0.00129132 0.000345998 0 -0.00136379 0.000347066 0 -0.00143652 0.000346144 0 -0.00150905 0.000343092 0 -0.0015809 0.000337802 0 -2.89495e-19 0.000187938 0 -2.93407e-05 0.000188445 0 -5.88558e-05 0.000189963 0 -8.872e-05 0.000192488 0 -0.000119107 0.000196016 0 -0.000150192 0.000200534 0 -0.000182148 0.000206031 0 -0.000215148 0.000212486 0 -0.000249364 0.000219877 0 -0.000284963 0.000228171 0 -0.000322113 0.000237329 0 -0.000360974 0.000247301 0 -0.000401702 0.000258026 0 -0.000444444 0.000269431 0 -0.000489335 0.000281427 0 -0.000536499 0.000293909 0 -0.00058604 0.000306755 0 -0.000638044 0.000319825 0 -0.000692571 0.000332957 0 -0.000749653 0.000345974 0 -0.000809286 0.000358677 0 -0.000871431 0.000370849 0 -0.000936004 0.000382259 0 -0.00100287 0.000392664 0 -0.00107186 0.000401812 0 -0.00114274 0.000409447 0 -0.00121521 0.000415318 0 -0.00128894 0.000419181 0 -0.00136354 0.000420809 0 -0.00143856 0.000419997 0 -0.00151353 0.00041657 0 -0.00158792 0.000410389 0 0 0.000216714 0 -2.82404e-05 0.000217308 0 -5.66578e-05 0.00021909 0 -8.54291e-05 0.000222055 0 -0.000114732 0.000226198 0 -0.000144744 0.000231508 0 -0.000175643 0.000237971 0 -0.000207608 0.000245569 0 -0.000240817 0.000254276 0 -0.000275447 0.000264058 0 -0.000311673 0.000274873 0 -0.000349669 0.000286667 0 -0.000389603 0.000299373 0 -0.000431636 0.000312907 0 -0.000475921 0.000327171 0 -0.0005226 0.000342045 0 -0.000571799 0.00035739 0 -0.000623622 0.000373041 0 -0.000678154 0.000388813 0 -0.000735445 0.000404494 0 -0.000795515 0.00041985 0 -0.000858343 0.000434622 0 -0.00092386 0.000448534 0 -0.00099195 0.00046129 0 -0.00106244 0.000472585 0 -0.0011351 0.000482108 0 -0.00120963 0.000489547 0 -0.00128569 0.000494603 0 -0.00136285 0.000496996 0 -0.00144065 0.00049647 0 -0.00151858 0.000492809 0 -0.00159606 0.000485838 0 0 0.000244301 0 -2.69633e-05 0.000244984 0 -5.41057e-05 0.000247033 0 -8.16069e-05 0.000250444 0 -0.000109647 0.000255212 0 -0.000138408 0.000261327 0 -0.000168073 0.000268776 0 -0.000198825 0.000277542 0 -0.00023085 0.000287597 0 -0.000264334 0.000298911 0 -0.000299464 0.000311437 0 -0.000336425 0.000325119 0 -0.000375402 0.000339887 0 -0.000416573 0.000355651 0 -0.000460111 0.000372302 0 -0.000506179 0.000389708 0 -0.000554928 0.000407713 0 -0.000606488 0.000426133 0 -0.00066097 0.000444755 0 -0.000718452 0.000463335 0 -0.000778979 0.000481602 0 -0.000842556 0.000499254 0 -0.000909135 0.000515962 0 -0.000978617 0.000531377 0 -0.00105084 0.000545132 0 -0.00112557 0.000556852 0 -0.00120252 0.000566161 0 -0.00128131 0.000572694 0 -0.00136151 0.000576107 0 -0.00144262 0.000576087 0 -0.00152406 0.000572366 0 -0.00160523 0.000564731 0 0 0.000270521 0 -2.5507e-05 0.000271294 0 -5.1195e-05 0.000273614 0 -7.72457e-05 0.000277476 0 -0.000103842 0.000282878 0 -0.000131169 0.000289811 0 -0.000159415 0.000298264 0 -0.000188768 0.000308222 0 -0.000219423 0.00031966 0 -0.000251575 0.000332548 0 -0.000285422 0.000346841 0 -0.000321166 0.000362484 0 -0.000359005 0.000379402 0 -0.000399141 0.000397503 0 -0.000441768 0.000416673 0 -0.000487075 0.000436768 0 -0.000535241 0.000457617 0 -0.000586429 0.000479018 0 -0.000640779 0.000500733 0 -0.000698405 0.000522486 0 -0.000759386 0.000543966 0 -0.000823756 0.000564825 0 -0.000891497 0.000584681 0 -0.000962532 0.000603122 0 -0.00103671 0.000619715 0 -0.00111382 0.00063401 0 -0.00119355 0.000645556 0 -0.00127552 0.000653911 0 -0.00135926 0.000658657 0 -0.00144423 0.000659413 0 -0.00152981 0.00065585 0 -0.00161533 0.000647705 0 0 0.000295194 0 -2.38698e-05 0.000296058 0 -4.79218e-05 0.00029865 0 -7.23391e-05 0.000302969 0 -9.73067e-05 0.000309011 0 -0.000123013 0.000316773 0 -0.000149649 0.000326247 0 -0.000177411 0.00033742 0 -0.000206499 0.000350273 0 -0.00023712 0.000364777 0 -0.000269485 0.000380894 0 -0.00030381 0.000398568 0 -0.000340313 0.00041773 0 -0.000379217 0.000438284 0 -0.000420743 0.000460113 0 -0.00046511 0.000483067 0 -0.00051253 0.000506964 0 -0.000563202 0.000531584 0 -0.000617306 0.000556666 0 -0.000674997 0.000581903 0 -0.000736395 0.000606945 0 -0.000801574 0.000631394 0 -0.000870554 0.00065481 0 -0.000943287 0.000676714 0 -0.00101965 0.000696594 0 -0.00109943 0.000713918 0 -0.00118233 0.000728145 0 -0.00126794 0.000738744 0 -0.00135577 0.000745206 0 -0.00144523 0.000747069 0 -0.00153562 0.000743929 0 -0.0016262 0.000735466 0 0 0.00031814 0 -2.20507e-05 0.000319095 0 -4.42836e-05 0.00032196 0 -6.68825e-05 0.000326737 0 -9.00336e-05 0.000333425 0 -0.000113927 0.000342023 0 -0.000138758 0.00035253 0 -0.000164727 0.000364937 0 -0.000192044 0.000379231 0 -0.000220923 0.000395391 0 -0.000251589 0.000413385 0 -0.000284275 0.000433163 0 -0.000319219 0.00045466 0 -0.000356669 0.000477786 0 -0.000396875 0.000502421 0 -0.00044009 0.000528416 0 -0.000486563 0.00055558 0 -0.000536537 0.000583681 0 -0.00059024 0.000612435 0 -0.000647875 0.000641508 0 -0.000709614 0.000670509 0 -0.000775582 0.000698989 0 -0.000845844 0.000726447 0 -0.000920397 0.000752325 0 -0.000999149 0.000776028 0 -0.00108191 0.000796924 0 -0.00116838 0.000814368 0 -0.00125813 0.000827721 0 -0.00135065 0.000836366 0 -0.00144527 0.00083974 0 -0.00154123 0.000837349 0 -0.00163769 0.000828802 0 0 0.000339174 0 -2.00494e-05 0.00034022 0 -4.028e-05 0.000343359 0 -6.08745e-05 0.000348593 0 -8.20191e-05 0.000355927 0 -0.000103905 0.000365365 0 -0.000126729 0.000376911 0 -0.000150698 0.000390564 0 -0.000176027 0.000406321 0 -0.00020294 0.00042417 0 -0.000231676 0.000444088 0 -0.000262482 0.000466036 0 -0.000295622 0.000489958 0 -0.000331366 0.000515771 0 -0.000369999 0.000543364 0 -0.00041181 0.000572589 0 -0.000457093 0.000603253 0 -0.000506141 0.000635115 0 -0.000559236 0.000667876 0 -0.000616642 0.000701175 0 -0.000678595 0.000734583 0 -0.000745281 0.0007676 0 -0.00081683 0.000799654 0 -0.000893293 0.000830108 0 -0.000974622 0.000858265 0 -0.00106066 0.000883381 0 -0.00115111 0.000904688 0 -0.00124555 0.000921413 0 -0.0013434 0.00093281 0 -0.00144395 0.00093819 0 -0.00154633 0.000936948 0 -0.0016496 0.000928601 0 1.49162e-19 0.000358118 0 -1.78673e-05 0.000359254 0 -3.5913e-05 0.000362663 0 -5.43172e-05 0.00036835 0 -7.32645e-05 0.000376326 0 -9.29452e-05 0.000386599 0 -0.000113558 0.000399183 0 -0.000135312 0.000414087 0 -0.000158426 0.000431318 0 -0.000183137 0.000450878 0 -0.000209693 0.000472757 0 -0.000238359 0.000496931 0 -0.000269421 0.000523358 0 -0.000303177 0.000551971 0 -0.000339945 0.000582669 0 -0.000380057 0.000615313 0 -0.000423857 0.000649718 0 -0.000471693 0.000685639 0 -0.000523915 0.000722768 0 -0.000580857 0.000760722 0 -0.00064283 0.000799037 0 -0.000710104 0.000837161 0 -0.000782887 0.000874453 0 -0.000861302 0.000910181 0 -0.000945367 0.000943538 0 -0.00103497 0.000973648 0 -0.00112983 0.000999593 0 -0.00122953 0.00102044 0 -0.00133344 0.00103529 0 -0.00144076 0.00104328 0 -0.00155054 0.00104368 0 -0.00166167 0.00103589 0 1.32737e-18 0.000374791 0 -1.55073e-05 0.000376014 0 -3.1188e-05 0.000379688 0 -4.7218e-05 0.00038582 0 -6.37777e-05 0.000394426 0 -8.10552e-05 0.000405523 0 -9.9248e-05 0.000419134 0 -0.000118566 0.000435281 0 -0.000139233 0.000453986 0 -0.000161492 0.000475265 0 -0.000185602 0.000499127 0 -0.000211845 0.000525569 0 -0.000240527 0.000554568 0 -0.000271977 0.000586078 0 -0.000306548 0.000620019 0 -0.000344618 0.000656269 0 -0.000386584 0.000694655 0 -0.00043286 0.000734942 0 -0.000483869 0.000776821 0 -0.000540032 0.000819894 0 -0.000601755 0.000863667 0 -0.000669405 0.000907541 0 -0.000743292 0.0009508 0 -0.00082364 0.000992615 0 -0.000910551 0.00103205 0 -0.00100398 0.00106808 0 -0.0011037 0.0010996 0 -0.00120927 0.00112549 0 -0.00132003 0.00114463 0 -0.0014351 0.00115599 0 -0.00155338 0.00115863 0 -0.00167358 0.00115182 0 2.45445e-19 0.000389017 0 -1.29743e-05 0.000390326 0 -2.61147e-05 0.000394255 0 -3.95901e-05 0.000400817 0 -5.35749e-05 0.000410035 0 -6.8252e-05 0.000421934 0 -8.38154e-05 0.000436549 0 -0.000100474 0.000453917 0 -0.000118453 0.000474077 0 -0.000137998 0.000497065 0 -0.000159381 0.000522914 0 -0.000182896 0.000551645 0 -0.00020887 0.000583263 0 -0.000237661 0.000617748 0 -0.000269658 0.000655051 0 -0.000305286 0.000695077 0 -0.000345002 0.000737679 0 -0.000389293 0.00078264 0 -0.000438666 0.000829662 0 -0.000493643 0.000878346 0 -0.000554742 0.000928178 0 -0.000622453 0.000978515 0 -0.000697218 0.00102857 0 -0.000779388 0.00107741 0 -0.000869187 0.00112396 0 -0.000966668 0.00116701 0 -0.00107167 0.00120524 0 -0.00118377 0.00123729 0 -0.00130228 0.00126178 0 -0.0014262 0.00127743 0 -0.00155427 0.00128307 0 -0.00168501 0.00127781 0 0 0.000400629 0 -1.02756e-05 0.000402018 0 -2.07073e-05 0.000406189 0 -3.14542e-05 0.000413162 0 -4.26818e-05 0.000422962 0 -5.45647e-05 0.00043563 0 -6.72909e-05 0.000451211 0 -8.10643e-05 0.000469761 0 -9.61089e-05 0.000491338 0 -0.000112673 0.000516004 0 -0.000131032 0.000543817 0 -0.000151494 0.000574831 0 -0.000174403 0.000609083 0 -0.000200143 0.000646594 0 -0.000229141 0.00068735 0 -0.00026187 0.000731298 0 -0.00029885 0.000778329 0 -0.000340644 0.000828261 0 -0.000387859 0.000880822 0 -0.000441129 0.000935628 0 -0.000501106 0.000992161 0 -0.000568434 0.00104975 0 -0.000643717 0.00110753 0 -0.000727477 0.00116448 0 -0.000820104 0.00121936 0 -0.000921794 0.00127074 0 -0.00103249 0.00131707 0 -0.00115182 0.00135665 0 -0.00127906 0.00138781 0 -0.00141311 0.00140891 0 -0.00155248 0.0014185 0 -0.00169539 0.00141538 0 0 0.000409465 0 -7.42144e-06 0.000410928 0 -1.49858e-05 0.000415326 0 -2.28394e-05 0.000422679 0 -3.11353e-05 0.000433025 0 -4.00371e-05 0.000446413 0 -4.97226e-05 0.000462906 0 -6.03876e-05 0.000482578 0 -7.22507e-05 0.000505511 0 -8.55575e-05 0.000531794 0 -0.000100586 0.000561518 0 -0.000117651 0.000594774 0 -0.000137112 0.000631641 0 -0.000159375 0.000672186 0 -0.000184901 0.000716447 0 -0.000214212 0.000764424 0 -0.00024789 0.000816062 0 -0.000286582 0.000871234 0 -0.000330999 0.000929715 0 -0.000381907 0.000991157 0 -0.000440114 0.00105506 0 -0.000506447 0.00112074 0 -0.000581717 0.0011873 0 -0.000666667 0.00125359 0 -0.000761914 0.00131822 0 -0.000867861 0.00137953 0 -0.000984615 0.00143562 0 -0.0011119 0.00148447 0 -0.00124898 0.00152392 0 -0.00139462 0.00155194 0 -0.0015471 0.00156665 0 -0.00170431 0.00156667 0 3.3169e-19 0.000415377 0 -4.4249e-06 0.000416907 0 -8.9762e-06 0.000421508 0 -1.37839e-05 0.000429206 0 -1.89853e-05 0.000440047 0 -2.47289e-05 0.000454093 0 -3.11784e-05 0.000471424 0 -3.85175e-05 0.000492135 0 -4.69542e-05 0.000516334 0 -5.67271e-05 0.000544142 0 -6.81105e-05 0.000575687 0 -8.14216e-05 0.000611102 0 -9.70276e-05 0.000650518 0 -0.000115353 0.000694056 0 -0.000136888 0.000741819 0 -0.000162198 0.000793876 0 -0.000191926 0.000850246 0 -0.000226804 0.000910877 0 -0.000267656 0.00097562 0 -0.000315389 0.00104419 0 -0.000370993 0.00111615 0 -0.000435512 0.00119082 0 -0.000510013 0.00126729 0 -0.000595527 0.00134432 0 -0.000692974 0.00142036 0 -0.000803055 0.00149348 0 -0.000926132 0.00156143 0 -0.0010621 0.00162167 0 -0.00121025 0.00167152 0 -0.00136923 0.00170833 0 -0.00153698 0.00172971 0 -0.0017108 0.00173355 0 1.4606e-18 0.000418231 0 -1.30256e-06 0.000419819 0 -2.71142e-06 0.000424596 0 -4.3366e-06 0.000432593 0 -6.29573e-06 0.000443866 0 -8.71807e-06 0.000458491 0 -1.1749e-05 0.000476565 0 -1.55546e-05 0.000498205 0 -2.03277e-05 0.00052355 0 -2.62932e-05 0.000552754 0 -3.37156e-05 0.000585986 0 -4.29069e-05 0.000623428 0 -5.42349e-05 0.000665269 0 -6.8134e-05 0.000711697 0 -8.51153e-05 0.00076289 0 -0.000105779 0.000819003 0 -0.000130826 0.000880152 0 -0.000161069 0.000946387 0 -0.000197444 0.00101767 0 -0.000241012 0.00109381 0 -0.000292961 0.00117447 0 -0.000354591 0.00125905 0 -0.000427277 0.00134665 0 -0.000512419 0.00143599 0 -0.000611343 0.00152537 0 -0.000725172 0.00161257 0 -0.000854661 0.00169491 0 -0.000999991 0.00176926 0 -0.00116059 0.00183219 0 -0.00133495 0.00188025 0 -0.00152065 0.0019102 0 -0.00171448 0.00191989 0 1.24628e-19 0.000417912 0 1.92545e-06 0.000419547 0 3.76843e-06 0.000424466 0 5.44271e-06 0.000432708 0 6.8544e-06 0.000444337 0 7.89781e-06 0.000459443 0 8.4509e-06 0.000478141 0 8.37014e-06 0.000500575 0 7.48469e-06 0.00052691 0 5.58971e-06 0.000557339 0 2.43853e-06 0.000592075 0 -2.26642e-06 0.000631355 0 -8.8842e-06 0.000675431 0 -1.78475e-05 0.000724568 0 -2.96769e-05 0.000779033 0 -4.49963e-05 0.000839084 0 -6.45506e-05 0.000904956 0 -8.92242e-05 0.000976831 0 -0.000120059 0.00105481 0 -0.000158272 0.00113888 0 -0.000205264 0.00122883 0 -0.000262616 0.0013242 0 -0.000332076 0.00142419 0 -0.000415497 0.00152755 0 -0.000514744 0.00163246 0 -0.000631536 0.00173645 0 -0.000767215 0.00183634 0 -0.000922466 0.00192825 0 -0.00109698 0.00200779 0 -0.00128921 0.00207032 0 -0.0014962 0.00211159 0 -0.00171349 0.00212737 0 0 0.000414325 0 5.23531e-06 0.000415995 0 1.04157e-05 0.000421019 0 1.54826e-05 0.000429441 0 2.03701e-05 0.000441335 0 2.50004e-05 0.000456806 0 2.92801e-05 0.000475988 0 3.30939e-05 0.000499047 0 3.62996e-05 0.000526181 0 3.87203e-05 0.000557619 0 4.01362e-05 0.000593624 0 4.02745e-05 0.000634488 0 3.87974e-05 0.000680534 0 3.52876e-05 0.00073211 0 2.92312e-05 0.000789585 0 1.9998e-05 0.000853337 0 6.81756e-06 0.000923742 0 -1.12471e-05 0.00100115 0 -3.53287e-05 0.00108585 0 -6.67861e-05 0.00117803 0 -0.000107232 0.00127771 0 -0.000158555 0.00138466 0 -0.000222917 0.00149828 0 -0.000302725 0.00161744 0 -0.000400539 0.00174035 0 -0.0005189 0.00186432 0 -0.000660038 0.00198566 0 -0.000825453 0.0020996 0 -0.00101543 0.00220041 0 -0.00122848 0.00228189 0 -0.00146106 0.00233781 0 -0.00170795 0.00236476 0 0 0.000407405 0 8.59947e-06 0.000409094 0 1.71752e-05 0.000414178 0 2.57001e-05 0.000422706 0 3.41401e-05 0.000434762 0 4.24503e-05 0.000450463 0 5.05705e-05 0.000469962 0 5.84201e-05 0.000493449 0 6.58924e-05 0.000521152 0 7.28469e-05 0.000553339 0 7.91007e-05 0.000590318 0 8.44177e-05 0.000632444 0 8.84957e-05 0.00068011 0 9.09498e-05 0.000733756 0 9.12929e-05 0.000793859 0 8.89117e-05 0.000860934 0 8.30371e-05 0.000935517 0 7.2709e-05 0.00101815 0 5.67349e-05 0.00110937 0 3.36426e-05 0.00120963 0 1.62778e-06 0.00131926 0 -4.14963e-05 0.00143836 0 -9.83396e-05 0.0015667 0 -0.000171946 0.00170345 0 -0.00026574 0.001847 0 -0.000383371 0.00199463 0 -0.000528369 0.00214221 0 -0.000703599 0.00228395 0 -0.000910426 0.00241243 0 -0.00114787 0.00251901 0 -0.00141174 0.00259517 0 -0.00169406 0.00263068 0 0 0.000397111 0 1.19868e-05 0.000398803 0 2.39844e-05 0.000403898 0 3.60008e-05 0.00041245 0 4.80375e-05 0.00042455 0 6.00868e-05 0.000440329 0 7.2127e-05 0.000459956 0 8.41181e-05 0.000483643 0 9.59961e-05 0.000511647 0 0.000107665 0.000544272 0 0.000118991 0.000581875 0 0.000129786 0.000624866 0 0.000139801 0.000673714 0 0.000148702 0.00072895 0 0.000156053 0.000791167 0 0.000161287 0.000861023 0 0.000163671 0.000939235 0 0.000162264 0.00102657 0 0.000155861 0.00112383 0 0.000142929 0.00123182 0 0.000121526 0.00135126 0 8.92073e-05 0.00148275 0 4.29332e-05 0.00162657 0 -2.10198e-05 0.00178247 0 -0.000107095 0.00194933 0 -0.000220366 0.00212472 0 -0.000366237 0.00230433 0 -0.000549721 0.00248138 0 -0.000774305 0.00264627 0 -0.00104021 0.00278708 0 -0.00134295 0.00289024 0 -0.00167311 0.00295 0 0 0.000383438 0 1.53627e-05 0.000385116 0 3.07739e-05 0.000390167 0 4.62794e-05 0.000398651 0 6.19202e-05 0.000410666 0 7.77294e-05 0.000426353 0 9.37287e-05 0.000445897 0 0.000109924 0.000469527 0 0.000126302 0.000497528 0 0.000142819 0.000530237 0 0.000159401 0.000568053 0 0.000175922 0.000611441 0 0.000192203 0.000660941 0 0.000207982 0.000717173 0 0.000222903 0.000780846 0 0.000236478 0.000852765 0 0.000248054 0.000933835 0 0.000256761 0.00102507 0 0.000261449 0.00112756 0 0.000260604 0.00124252 0 0.000252238 0.00137118 0 0.000233751 0.00151473 0 0.000201763 0.00167422 0 0.000151915 0.0018503 0 7.86869e-05 0.00204281 0 -2.47208e-05 0.00225018 0 -0.000166231 0.00246853 0 -0.000354247 0.00269048 0 -0.000595976 0.0029041 0 -0.000894815 0.00309245 0 -0.00124669 0.00323627 0 -0.00163711 0.00330609 0 0 0.000366417 0 1.86899e-05 0.00036806 0 3.74682e-05 0.00037301 0 5.64214e-05 0.000381328 0 7.56327e-05 0.000393118 0 9.51794e-05 0.00040853 0 0.000115131 0.000427758 0 0.000135544 0.000451051 0 0.000156461 0.000478712 0 0.000177903 0.000511107 0 0.00019986 0.000548671 0 0.000222288 0.000591918 0 0.000245089 0.000641451 0 0.000268101 0.000697971 0 0.000291072 0.000762297 0 0.000313633 0.000835373 0 0.000335259 0.000918291 0 0.000355216 0.00101231 0 0.000372493 0.00111885 0 0.0003857 0.00123953 0 0.000392943 0.00137616 0 0.000391635 0.0015307 0 0.000378254 0.00170517 0 0.000348014 0.00190148 0 0.000294441 0.00212105 0 0.000208936 0.00236409 0 8.04141e-05 0.00262834 0 -0.000104389 0.0029071 0 -0.000359377 0.00318646 0 -0.000694578 0.00344346 0 -0.00110954 0.00364489 0 -0.00158613 0.00377861 0 0 0.000346117 0 2.19285e-05 0.000347705 0 4.3987e-05 0.000352492 0 6.63045e-05 0.00036054 0 8.90084e-05 0.000371957 0 0.000112223 0.000386897 0 0.000136068 0.000405565 0 0.000160657 0.000428217 0 0.000186092 0.000455174 0 0.000212464 0.000486821 0 0.000239841 0.000523621 0 0.000268268 0.000566127 0 0.00029775 0.000614992 0 0.000328241 0.000670987 0 0.000359625 0.000735021 0 0.000391688 0.000808166 0 0.000424087 0.000891682 0 0.000456291 0.000987049 0 0.000487523 0.00109601 0 0.000516648 0.00122062 0 0.000542045 0.00136326 0 0.000561383 0.00152673 0 0.000571331 0.0017142 0 0.000567084 0.00192921 0 0.000541715 0.00217544 0 0.000485184 0.00245606 0 0.000383217 0.0027725 0 0.000216093 0.00312141 0 -4.06776e-05 0.00348986 0 -0.000411705 0.00384787 0 -0.000907409 0.00414744 0 -0.00150859 0.00429033 0 0 0.000322647 0 2.5037e-05 0.000324159 0 5.02465e-05 0.000328719 0 7.58008e-05 0.00033639 0 0.000101873 0.000347281 0 0.000128635 0.000361547 0 0.000156261 0.000379396 0 0.00018492 0.000401091 0 0.000214784 0.000426958 0 0.000246014 0.000457395 0 0.000278767 0.000492883 0 0.000313186 0.000533997 0 0.000349391 0.000581426 0 0.000387473 0.00063599 0 0.000427476 0.000698667 0 0.00046938 0.000770627 0 0.000513067 0.000853263 0 0.000558284 0.00094825 0 0.000604578 0.0010576 0 0.000651215 0.00118374 0 0.00069704 0.00132961 0 0.00074029 0.00149881 0 0.000778251 0.00169571 0 0.000806789 0.00192568 0 0.000819417 0.00219513 0 0.000806003 0.00251156 0 0.000750168 0.00288259 0 0.000626145 0.00331356 0 0.00039409 0.00379965 0 2.10575e-06 0.00431108 0 -0.000596106 0.00476566 0 -0.00137379 0.00511275 0 0 0.000296157 0 2.79732e-05 0.000297573 0 5.61611e-05 0.000301843 0 8.47794e-05 0.000309028 0 0.000114047 0.000319237 0 0.000144184 0.000332624 0 0.000175418 0.000349392 0 0.00020798 0.000369805 0 0.000242107 0.000394186 0 0.00027804 0.000422936 0 0.000316025 0.000456537 0 0.000356312 0.000495575 0 0.000399147 0.000540751 0 0.000444772 0.00059291 0 0.000493413 0.000653071 0 0.000545267 0.000722456 0 0.000600488 0.000802552 0 0.000659152 0.000895157 0 0.000721225 0.00100248 0 0.00078649 0.00112722 0 0.000854469 0.00127277 0 0.000924243 0.00144334 0 0.000994253 0.00164437 0 0.00106177 0.00188283 0 0.00112226 0.00216799 0 0.00116755 0.00251207 0 0.00118318 0.00293148 0 0.0011413 0.0034464 0 0.000989217 0.00407629 0 0.000630104 0.00481691 0 -7.02835e-05 0.00557682 0 -0.00120343 0.00597787 0 0 0.000266843 0 3.0695e-05 0.000268141 0 6.16457e-05 0.000272057 0 9.31101e-05 0.000278651 0 0.000125351 0.000288025 0 0.000158637 0.000300327 0 0.000193249 0.000315755 0 0.000229477 0.000334562 0 0.000267625 0.000357061 0 0.000308014 0.000383641 0 0.000350982 0.000414776 0 0.000396889 0.000451038 0 0.000446112 0.000493121 0 0.000499053 0.000541866 0 0.000556129 0.00059829 0 0.000617778 0.000663631 0 0.000684447 0.000739396 0 0.000756589 0.000827439 0 0.000834634 0.00093004 0 0.000918999 0.00105006 0 0.00100998 0.00119107 0 0.00110783 0.00135771 0 0.00121239 0.00155592 0 0.00132337 0.00179384 0 0.00143913 0.00208251 0 0.00155712 0.00243817 0 0.0016694 0.00288495 0 0.00175996 0.00346173 0 0.00178187 0.00422949 0 0.00160932 0.00527458 0 0.000900579 0.0065978 0 -0.000670708 0.00788498 0 0 0.000234937 0 3.31615e-05 0.000236098 0 6.66174e-05 0.0002396 0 0.000100665 0.0002455 0 0.00013561 0.000253892 0 0.000171767 0.000264914 0 0.000209466 0.000278751 0 0.000249055 0.000295637 0 0.000290904 0.000315869 0 0.00033541 0.00033981 0 0.000383004 0.000367907 0 0.000434152 0.000400703 0 0.000489363 0.000438859 0 0.000549198 0.000483179 0 0.000614273 0.00053464 0 0.000685264 0.000594437 0 0.000762934 0.000664038 0 0.000848099 0.00074525 0 0.000941738 0.000840316 0 0.00104481 0.000952053 0 0.00115869 0.00108401 0 0.00128442 0.00124078 0 0.00142435 0.00142833 0 0.00157924 0.0016548 0 0.00175436 0.00193146 0 0.00194888 0.0022751 0 0.00217686 0.00271281 0 0.00243054 0.00328992 0 0.00274315 0.00410582 0 0.00304575 0.00536341 0 0.00307224 0.00769283 0 -0.000237172 0.0110749 0 0 0.000200715 0 3.53346e-05 0.00020172 0 7.09988e-05 0.000204753 0 0.000107327 0.000209864 0 0.000144662 0.000217137 0 0.000183361 0.000226696 0 0.0002238 0.000238706 0 0.000266381 0.000253379 0 0.000311535 0.00027098 0 0.000359731 0.000291838 0 0.000411485 0.000316359 0 0.000467367 0.000345031 0 0.000528008 0.000378466 0 0.000594131 0.000417381 0 0.000666514 0.000462706 0 0.000746132 0.000515481 0 0.000833902 0.00057717 0 0.000931313 0.000649246 0 0.0010392 0.000734139 0 0.00116042 0.000833828 0 0.00129459 0.00095264 0 0.00144903 0.00109296 0 0.00161751 0.00126301 0 0.00182293 0.00146546 0 0.00203605 0.00171594 0 0.00233524 0.00202081 0 0.00260915 0.00240427 0 0.00313255 0.0029116 0 0.00353756 0.00354045 0 0.00481585 0.0046792 0 0.00677673 0.00586309 0 0.0127668 0.0198422 0 </DataArray> 
</PointData> 
<Points> 
<DataArray type="Float32" NumberOfComponents="3"> 