<?xml version="1.0"?> 
<VTKFile type="StructuredGrid" version="0.1"> 
<StructuredGrid WholeExtent="0 31 0 31 0 0"> 
<Piece Extent="0 31 0 31 0 0"> 
<PointData>
<DataArray type="Float32" Name="B" format="ascii" NumberOfComponents="3"> 
0.044031 0.0438219 0 0.00730973 0.0103491 0 0.00892794 0.00799446 0 0.0120449 0.00553189 0 0.0146661 0.00447827 0 0.0167098 0.00362303 0 0.0181758 0.00304451 0 0.0192044 0.00256875 0 0.0199375 0.00216849 0 0.0204465 0.00181647 0 0.0208138 0.00149429 0 0.0210693 0.00119572 0 0.0212507 0.000911992 0 0.0213707 0.000639671 0 0.0214453 0.000373736 0 0.0214803 0.000110923 0 0.021482 -0.000152826 0 0.0214537 -0.000421164 0 0.0213977 -0.000698446 0 0.021317 -0.000989121 0 0.0212109 -0.00129886 0 0.0210859 -0.00163355 0 0.0209332 -0.00200189 0 0.0207743 -0.00241289 0 0.0205705 -0.00288207 0 0.0204008 -0.00342829 0 0.0201164 -0.00408162 0 0.0200149 -0.00490773 0 0.0195789 -0.00596169 0 0.0199063 -0.00762851 0 0.0200243 -0.0100097 0 0.0176422 -0.023648 0 0.0149271 0.048273 0 0.0110636 0.0131679 0 0.0108482 0.00687634 0 0.0121651 0.00476207 0 0.0148321 0.00369487 0 0.0164947 0.00307807 0 0.0179635 0.0026404 0 0.0189438 0.00228113 0 0.0196815 0.00196612 0 0.0202017 0.00167005 0 0.0205775 0.00139123 0 0.0208472 0.00112182 0 0.0210363 0.000861466 0 0.0211648 0.000606601 0 0.0212432 0.000355422 0 0.0212802 0.000104958 0 0.0212805 -0.000147685 0 0.0212474 -0.000405964 0 0.0211834 -0.000673776 0 0.0210896 -0.00095557 0 0.0209674 -0.00125667 0 0.0208167 -0.00158325 0 0.0206386 -0.0019433 0 0.0204304 -0.0023465 0 0.0201939 -0.00280704 0 0.0199181 -0.00334405 0 0.0196092 -0.00398997 0 0.0192361 -0.00479809 0 0.0188167 -0.00587694 0 0.0182729 -0.00746869 0 0.017353 -0.0103017 0 0.0113721 -0.0170083 0 0.0104262 0.0391977 0 0.0142631 0.0156609 0 0.0119143 0.00652234 0 0.0132091 0.00413618 0 0.0147988 0.00303508 0 0.0165087 0.0025767 0 0.0177347 0.00224998 0 0.0187344 0.00200339 0 0.0194367 0.00175896 0 0.01997 0.00152316 0 0.0203516 0.00128289 0 0.0206319 0.00104544 0 0.0208302 0.000807635 0 0.0209656 0.000571798 0 0.021049 0.000335874 0 0.0210879 9.89376e-05 0 0.0210871 -0.000141638 0 0.0210497 -0.000388634 0 0.0209774 -0.000645697 0 0.0208712 -0.000917058 0 0.0207314 -0.0012078 0 0.0205575 -0.00152398 0 0.020348 -0.00187315 0 0.0201005 -0.0022648 0 0.019809 -0.00271198 0 0.0194665 -0.00323319 0 0.0190543 -0.0038581 0 0.0185504 -0.00463773 0 0.0178901 -0.00566937 0 0.0169278 -0.00715634 0 0.0150428 -0.00950979 0 0.0100528 -0.0134833 0 0.00857957 0.0324849 0 0.014654 0.0164034 0 0.0134566 0.00667084 0 0.0139507 0.00368543 0 0.0151424 0.00252585 0 0.0164894 0.00212039 0 0.0176283 0.0018948 0 0.0185338 0.00173031 0 0.0192293 0.00155749 0 0.0197496 0.00137251 0 0.0201399 0.0011732 0 0.0204259 0.000965221 0 0.0206329 0.000751647 0 0.0207748 0.000534751 0 0.020863 0.000315301 0 0.020904 9.26424e-05 0 0.0209024 -0.000134717 0 0.0208608 -0.000369278 0 0.0207806 -0.00061425 0 0.0206621 -0.000873599 0 0.0205049 -0.00115219 0 0.0203074 -0.00145568 0 0.0200671 -0.0017913 0 0.0197788 -0.00216764 0 0.019435 -0.00259683 0 0.0190221 -0.00309504 0 0.0185165 -0.00368881 0 0.0178781 -0.00442057 0 0.0170157 -0.00537023 0 0.0157368 -0.00666731 0 0.0135356 -0.0085453 0 0.00944447 -0.0112068 0 0.00767549 0.0277543 0 0.0143035 0.0160717 0 0.0144394 0.00683906 0 0.0147045 0.0034126 0 0.0155304 0.00213919 0 0.0165838 0.00173515 0 0.0175663 0.00157303 0 0.0183883 0.00147458 0 0.0190453 0.00136067 0 0.0195531 0.00122346 0 0.0199415 0.00106134 0 0.0202325 0.000883086 0 0.0204455 0.000693058 0 0.0205935 0.000495999 0 0.0206861 0.000293465 0 0.0207293 8.61294e-05 0 0.0207271 -0.000127059 0 0.0206816 -0.000347965 0 0.0205937 -0.000579499 0 0.0204632 -0.000825278 0 0.0202887 -0.00108983 0 0.0200681 -0.00137844 0 0.019797 -0.00169769 0 0.0194691 -0.0020553 0 0.0190737 -0.00246182 0 0.0185941 -0.00293079 0 0.018001 -0.00348399 0 0.0172439 -0.00415369 0 0.016226 -0.00499808 0 0.0147639 -0.00609335 0 0.0125548 -0.00761209 0 0.00910312 -0.00954245 0 0.00711323 0.0239281 0 0.0137615 0.0151877 0 0.0149667 0.00683785 0 0.0153269 0.0032357 0 0.015933 0.00185402 0 0.01674 0.00142061 0 0.0175607 0.0012922 0 0.0182867 0.00123934 0 0.0188938 0.00117383 0 0.0193795 0.00107716 0 0.0197609 0.00094971 0 0.0200528 0.000799251 0 0.0202699 0.000632733 0 0.0204228 0.000455476 0 0.0205193 0.000270583 0 0.0205647 7.92822e-05 0 0.020562 -0.000118685 0 0.0205128 -0.000324805 0 0.0204175 -0.000541542 0 0.0202753 -0.00077219 0 0.0200841 -0.00102087 0 0.0198408 -0.0012924 0 0.0195399 -0.00159263 0 0.0191737 -0.00192822 0 0.0187295 -0.00230789 0 0.0181881 -0.00274228 0 0.0175172 -0.00324771 0 0.0166641 -0.0038467 0 0.0155389 -0.00457862 0 0.0140023 -0.00549523 0 0.0118814 -0.00674807 0 0.0088677 -0.00820239 0 0.00675956 0.0207516 0 0.0132413 0.0139971 0 0.0151894 0.00664369 0 0.0157909 0.0030807 0 0.0163013 0.00163898 0 0.0169282 0.00117075 0 0.0175983 0.00105248 0 0.0182255 0.0010292 0 0.0187745 0.000999133 0 0.0192306 0.000936679 0 0.0195994 0.000839332 0 0.0198885 0.000715033 0 0.0201075 0.000570972 0 0.020264 0.00041362 0 0.0203639 0.000246668 0 0.0204111 7.2169e-05 0 0.0204079 -0.000109685 0 0.0203553 -0.000299875 0 0.020253 -0.000500512 0 0.0200995 -0.000714497 0 0.0198923 -0.000945524 0 0.0196272 -0.00119787 0 0.0192979 -0.00147657 0 0.0188956 -0.00178717 0 0.0184062 -0.00213643 0 0.0178096 -0.0025321 0 0.017073 -0.00298519 0 0.0161476 -0.00351037 0 0.0149586 -0.0041343 0 0.013411 -0.00490268 0 0.0113966 -0.00594758 0 0.0087002 -0.00708292 0 0.00652122 0.0179431 0 0.0127838 0.0126485 0 0.0152441 0.00627908 0 0.0161088 0.0029044 0 0.0166138 0.0014655 0 0.017121 0.000972032 0 0.0176646 0.000852659 0 0.0181972 0.000844584 0 0.0186847 0.000839422 0 0.0191063 0.000803436 0 0.019458 0.000731988 0 0.0197409 0.000631146 0 0.0199595 0.000508526 0 0.0201182 0.000370656 0 0.0202207 0.000221938 0 0.0202695 6.47889e-05 0 0.0202658 -0.000100076 0 0.02021 -0.000273291 0 0.0201011 -0.000456561 0 0.019937 -0.000652416 0 0.0197146 -0.000864082 0 0.019429 -0.00109527 0 0.0190731 -0.00135018 0 0.0186374 -0.00163321 0 0.0181075 -0.00194925 0 0.0174631 -0.00230335 0 0.0166739 -0.00270211 0 0.0156979 -0.00315466 0 0.0144777 -0.00368083 0 0.0129503 -0.00432634 0 0.0110355 -0.00520196 0 0.00857424 -0.00610512 0 0.00635648 0.0154126 0 0.0123984 0.0112142 0 0.0152097 0.00577849 0 0.016315 0.00268858 0 0.0168637 0.0013102 0 0.0173006 0.000811604 0 0.0177456 0.000687299 0 0.0181934 0.000685325 0 0.0186207 0.000695341 0 0.0190052 0.000679061 0 0.0193368 0.000628635 0 0.0196108 0.000548601 0 0.019827 0.000445868 0 0.0199866 0.000327001 0 0.0200909 0.000196533 0 0.0201408 5.72283e-05 0 0.0201366 -8.99084e-05 0 0.0200778 -0.000245156 0 0.0199628 -0.000409882 0 0.0197889 -0.000586221 0 0.0195524 -0.000776939 0 0.0192478 -0.000985159 0 0.0188676 -0.00121428 0 0.0184019 -0.00146759 0 0.0178364 -0.00174834 0 0.0171522 -0.00205931 0 0.0163226 -0.00240383 0 0.015314 -0.00278761 0 0.0140842 -0.00322735 0 0.012589 -0.00376898 0 0.0107606 -0.00450117 0 0.00847803 -0.00522878 0 0.00624046 0.0130679 0 0.0120807 0.00973794 0 0.015133 0.00517255 0 0.0164427 0.00242864 0 0.0170551 0.00115851 0 0.0174577 0.000677091 0 0.0178297 0.000550574 0 0.018206 0.000549026 0 0.0185775 0.000567015 0 0.0189252 0.000564055 0 0.0192351 0.000530197 0 0.0194984 0.000467996 0 0.0197107 0.000383565 0 0.01987 0.000282948 0 0.0199753 0.000170667 0 0.020026 4.95399e-05 0 0.0200213 -7.92029e-05 0 0.0199597 -0.000215599 0 0.0198391 -0.000360691 0 0.0196563 -0.000516246 0 0.0194069 -0.000684568 0 0.0190852 -0.000868215 0 0.0186833 -0.00106983 0 0.0181912 -0.00129174 0 0.0175955 -0.00153582 0 0.0168792 -0.00180316 0 0.0160201 -0.00209492 0 0.0149923 -0.00241496 0 0.0137653 -0.00277851 0 0.0123049 -0.00322974 0 0.0105487 -0.00383699 0 0.00840345 -0.00442399 0 0.00615712 0.0108658 0 0.0118231 0.00824223 0 0.0150415 0.00448662 0 0.0165175 0.00212711 0 0.0171977 0.00100199 0 0.0175882 0.000559178 0 0.0179092 0.000436111 0 0.0182276 0.000432763 0 0.0185504 0.000453327 0 0.0188634 0.000458502 0 0.0191518 0.000436993 0 0.0194036 0.000389834 0 0.019611 0.000321976 0 0.0197691 0.000238807 0 0.0198748 0.000144503 0 0.019926 4.18035e-05 0 0.0199206 -6.80001e-05 0 0.0198565 -0.000184758 0 0.019731 -0.000309244 0 0.0195403 -0.000442876 0 0.0192796 -0.00058752 0 0.0189428 -0.000745204 0 0.0185221 -0.000917906 0 0.0180075 -0.00110715 0 0.0173868 -0.00131378 0 0.0166453 -0.00153775 0 0.0157655 -0.00177901 0 0.0147279 -0.00204047 0 0.0135099 -0.00233622 0 0.0120823 -0.00270649 0 0.010385 -0.0032022 0 0.00834557 -0.00367205 0 0.00609753 0.00876689 0 0.011619 0.00674007 0 0.0149511 0.00374059 0 0.0165584 0.00178939 0 0.0173009 0.000837008 0 0.0176922 0.000450989 0 0.0179788 0.000338394 0 0.0182526 0.000332999 0 0.0185347 0.000352659 0 0.0188172 0.000361761 0 0.0190855 0.000349028 0 0.0193259 0.000314284 0 0.019528 0.00026137 0 0.0196844 0.000194783 0 0.0197901 0.000118196 0 0.0198414 3.4072e-05 0 0.0198354 -5.63384e-05 0 0.0197692 -0.000152789 0 0.0196393 -0.000255825 0 0.0194418 -0.000366547 0 0.0191715 -0.00048641 0 0.018822 -0.000616967 0 0.0183853 -0.00075963 0 0.0178522 -0.000915306 0 0.0172116 -0.00108417 0 0.0164512 -0.00126553 0 0.0155573 -0.00145876 0 0.0145158 -0.00166631 0 0.0133092 -0.00190073 0 0.0119098 -0.00219665 0 0.0102596 -0.00259073 0 0.00830101 -0.00295904 0 0.00605514 0.00674591 0 0.0114623 0.0052377 0 0.0148714 0.00295025 0 0.0165785 0.00142205 0 0.0173735 0.000662695 0 0.0177714 0.000348087 0 0.0180359 0.000252697 0 0.0182767 0.000246279 0 0.0185265 0.000262874 0 0.0187837 0.000272787 0 0.0190347 0.000265868 0 0.0192649 0.000241296 0 0.0194619 0.000201833 0 0.0196164 0.000151023 0 0.0197217 9.18531e-05 0 0.019773 2.63907e-05 0 0.0197664 -4.4275e-05 0 0.0196983 -0.000119865 0 0.019565 -0.000200748 0 0.0193619 -0.000287735 0 0.0190837 -0.000381909 0 0.0187238 -0.0004844 0 0.0182744 -0.000596166 0 0.0177267 -0.000717685 0 0.0170708 -0.000848757 0 0.0162966 -0.000988464 0 0.0153937 -0.00113603 0 0.0143517 -0.00129352 0 0.013156 -0.00147145 0 0.0117795 -0.0016976 0 0.0101656 -0.00199735 0 0.00826752 -0.00227474 0 0.00602623 0.00478075 0 0.0113485 0.00373792 0 0.0148079 0.00212824 0 0.016587 0.00103185 0 0.0174222 0.000479969 0 0.0178282 0.000247726 0 0.018079 0.000175289 0 0.0182968 0.00016928 0 0.018523 0.000181649 0 0.0187607 0.000190147 0 0.018998 0.000186786 0 0.0192199 0.000170563 0 0.0194125 0.000143315 0 0.0195652 0.000107573 0 0.01967 6.55438e-05 0 0.0197212 1.87779e-05 0 0.0197141 -3.18778e-05 0 0.0196446 -8.61781e-05 0 0.0195086 -0.000144352 0 0.0193013 -0.000206955 0 0.0190171 -0.00027473 0 0.0186493 -0.000348439 0 0.0181904 -0.000428684 0 0.0176318 -0.000515679 0 0.0169649 -0.000609099 0 0.0161812 -0.000708096 0 0.0152728 -0.000811999 0 0.0142317 -0.000922402 0 0.0130453 -0.00104726 0 0.0116861 -0.0012068 0 0.0100986 -0.00141742 0 0.00824355 -0.00161106 0 0.00600815 0.00285376 0 0.0112745 0.00224121 0 0.0147641 0.00128504 0 0.0165897 0.000625512 0 0.0174521 0.000290714 0 0.0178647 0.000148418 0 0.0181079 0.000103207 0 0.0183112 9.8973e-05 0 0.0185218 0.000106544 0 0.0187464 0.000112182 0 0.0189742 0.000110788 0 0.0191902 0.000101591 0 0.0193796 8.56264e-05 0 0.019531 6.44107e-05 0 0.0196354 3.92922e-05 0 0.0196865 1.12338e-05 0 0.019679 -1.92305e-05 0 0.0196086 -5.19334e-05 0 0.0194707 -8.69989e-05 0 0.0192606 -0.000124749 0 0.0189723 -0.000165617 0 0.0185992 -0.000210041 0 0.0181339 -0.000258347 0 0.0175682 -0.000310611 0 0.0168942 -0.000366565 0 0.0161046 -0.000425626 0 0.0151931 -0.000487356 0 0.0141533 -0.000552773 0 0.0129734 -0.000626827 0 0.0116257 -0.000721789 0 0.0100554 -0.000846811 0 0.00822809 -0.000961287 0 0.00599947 0.000948825 0 0.011238 0.000746792 0 0.0147418 0.000429669 0 0.0165902 0.000209566 0 0.0174663 9.73683e-05 0 0.0178825 4.94497e-05 0 0.0181223 3.40867e-05 0 0.0183186 3.2564e-05 0 0.0185216 3.51079e-05 0 0.0187395 3.70733e-05 0 0.0189626 3.67125e-05 0 0.0191754 3.37362e-05 0 0.0193633 2.84797e-05 0 0.0195139 2.14465e-05 0 0.0196181 1.3091e-05 0 0.019669 3.73863e-06 0 0.0196614 -6.42772e-06 0 0.0195905 -1.73492e-05 0 0.0194517 -2.90646e-05 0 0.0192401 -4.16794e-05 0 0.0189498 -5.53361e-05 0 0.0185741 -7.01767e-05 0 0.0181056 -8.63047e-05 0 0.0175364 -0.000103736 0 0.0168589 -0.000122369 0 0.0160665 -0.000141998 0 0.0151536 -0.000162472 0 0.0141146 -0.000184141 0 0.012938 -0.000208686 0 0.011596 -0.000240217 0 0.0100343 -0.000281669 0 0.0082205 -0.000319552 0 0.00599947 -0.000948825 0 0.011238 -0.000746792 0 0.0147418 -0.000429669 0 0.0165902 -0.000209566 0 0.0174663 -9.73683e-05 0 0.0178825 -4.94497e-05 0 0.0181223 -3.40867e-05 0 0.0183186 -3.2564e-05 0 0.0185216 -3.51079e-05 0 0.0187395 -3.70733e-05 0 0.0189626 -3.67125e-05 0 0.0191754 -3.37362e-05 0 0.0193633 -2.84797e-05 0 0.0195139 -2.14465e-05 0 0.0196181 -1.3091e-05 0 0.019669 -3.73863e-06 0 0.0196614 6.42772e-06 0 0.0195905 1.73492e-05 0 0.0194517 2.90646e-05 0 0.0192401 4.16794e-05 0 0.0189498 5.53361e-05 0 0.0185741 7.01767e-05 0 0.0181056 8.63047e-05 0 0.0175364 0.000103736 0 0.0168589 0.000122369 0 0.0160665 0.000141998 0 0.0151536 0.000162472 0 0.0141146 0.000184141 0 0.012938 0.000208686 0 0.011596 0.000240217 0 0.0100343 0.000281669 0 0.0082205 0.000319552 0 0.00600815 -0.00285376 0 0.0112745 -0.00224121 0 0.0147641 -0.00128504 0 0.0165897 -0.000625512 0 0.0174521 -0.000290714 0 0.0178647 -0.000148418 0 0.0181079 -0.000103207 0 0.0183112 -9.8973e-05 0 0.0185218 -0.000106544 0 0.0187464 -0.000112182 0 0.0189742 -0.000110788 0 0.0191902 -0.000101591 0 0.0193796 -8.56264e-05 0 0.019531 -6.44107e-05 0 0.0196354 -3.92922e-05 0 0.0196865 -1.12338e-05 0 0.019679 1.92305e-05 0 0.0196086 5.19334e-05 0 0.0194707 8.69989e-05 0 0.0192606 0.000124749 0 0.0189723 0.000165617 0 0.0185992 0.000210041 0 0.0181339 0.000258347 0 0.0175682 0.000310611 0 0.0168942 0.000366565 0 0.0161046 0.000425626 0 0.0151931 0.000487356 0 0.0141533 0.000552773 0 0.0129734 0.000626827 0 0.0116257 0.000721789 0 0.0100554 0.000846811 0 0.00822809 0.000961287 0 0.00602623 -0.00478075 0 0.0113485 -0.00373792 0 0.0148079 -0.00212824 0 0.016587 -0.00103185 0 0.0174222 -0.000479969 0 0.0178282 -0.000247726 0 0.018079 -0.000175289 0 0.0182968 -0.00016928 0 0.018523 -0.000181649 0 0.0187607 -0.000190147 0 0.018998 -0.000186786 0 0.0192199 -0.000170563 0 0.0194125 -0.000143315 0 0.0195652 -0.000107573 0 0.01967 -6.55438e-05 0 0.0197212 -1.87779e-05 0 0.0197141 3.18778e-05 0 0.0196446 8.61781e-05 0 0.0195086 0.000144352 0 0.0193013 0.000206955 0 0.0190171 0.00027473 0 0.0186493 0.000348439 0 0.0181904 0.000428684 0 0.0176318 0.000515679 0 0.0169649 0.000609099 0 0.0161812 0.000708096 0 0.0152728 0.000811999 0 0.0142317 0.000922402 0 0.0130453 0.00104726 0 0.0116861 0.0012068 0 0.0100986 0.00141742 0 0.00824355 0.00161106 0 0.00605514 -0.00674591 0 0.0114623 -0.0052377 0 0.0148714 -0.00295025 0 0.0165785 -0.00142205 0 0.0173735 -0.000662695 0 0.0177714 -0.000348087 0 0.0180359 -0.000252697 0 0.0182767 -0.000246279 0 0.0185265 -0.000262874 0 0.0187837 -0.000272787 0 0.0190347 -0.000265868 0 0.0192649 -0.000241296 0 0.0194619 -0.000201833 0 0.0196164 -0.000151023 0 0.0197217 -9.18531e-05 0 0.019773 -2.63907e-05 0 0.0197664 4.4275e-05 0 0.0196983 0.000119865 0 0.019565 0.000200748 0 0.0193619 0.000287735 0 0.0190837 0.000381909 0 0.0187238 0.0004844 0 0.0182744 0.000596166 0 0.0177267 0.000717685 0 0.0170708 0.000848757 0 0.0162966 0.000988464 0 0.0153937 0.00113603 0 0.0143517 0.00129352 0 0.013156 0.00147145 0 0.0117795 0.0016976 0 0.0101656 0.00199735 0 0.00826752 0.00227474 0 0.00609753 -0.00876689 0 0.011619 -0.00674007 0 0.0149511 -0.00374059 0 0.0165584 -0.00178939 0 0.0173009 -0.000837008 0 0.0176922 -0.000450989 0 0.0179788 -0.000338394 0 0.0182526 -0.000332999 0 0.0185347 -0.000352659 0 0.0188172 -0.000361761 0 0.0190855 -0.000349028 0 0.0193259 -0.000314284 0 0.019528 -0.00026137 0 0.0196844 -0.000194783 0 0.0197901 -0.000118196 0 0.0198414 -3.4072e-05 0 0.0198354 5.63384e-05 0 0.0197692 0.000152789 0 0.0196393 0.000255825 0 0.0194418 0.000366547 0 0.0191715 0.00048641 0 0.018822 0.000616967 0 0.0183853 0.00075963 0 0.0178522 0.000915306 0 0.0172116 0.00108417 0 0.0164512 0.00126553 0 0.0155573 0.00145876 0 0.0145158 0.00166631 0 0.0133092 0.00190073 0 0.0119098 0.00219665 0 0.0102596 0.00259073 0 0.00830101 0.00295904 0 0.00615712 -0.0108658 0 0.0118231 -0.00824223 0 0.0150415 -0.00448662 0 0.0165175 -0.00212711 0 0.0171977 -0.00100199 0 0.0175882 -0.000559178 0 0.0179092 -0.000436111 0 0.0182276 -0.000432763 0 0.0185504 -0.000453327 0 0.0188634 -0.000458502 0 0.0191518 -0.000436993 0 0.0194036 -0.000389834 0 0.019611 -0.000321976 0 0.0197691 -0.000238807 0 0.0198748 -0.000144503 0 0.019926 -4.18035e-05 0 0.0199206 6.80001e-05 0 0.0198565 0.000184758 0 0.019731 0.000309244 0 0.0195403 0.000442876 0 0.0192796 0.00058752 0 0.0189428 0.000745204 0 0.0185221 0.000917906 0 0.0180075 0.00110715 0 0.0173868 0.00131378 0 0.0166453 0.00153775 0 0.0157655 0.00177901 0 0.0147279 0.00204047 0 0.0135099 0.00233622 0 0.0120823 0.00270649 0 0.010385 0.0032022 0 0.00834557 0.00367205 0 0.00624046 -0.0130679 0 0.0120807 -0.00973794 0 0.015133 -0.00517255 0 0.0164427 -0.00242864 0 0.0170551 -0.00115851 0 0.0174577 -0.000677091 0 0.0178297 -0.000550574 0 0.018206 -0.000549026 0 0.0185775 -0.000567015 0 0.0189252 -0.000564055 0 0.0192351 -0.000530197 0 0.0194984 -0.000467996 0 0.0197107 -0.000383565 0 0.01987 -0.000282948 0 0.0199753 -0.000170667 0 0.020026 -4.95399e-05 0 0.0200213 7.92029e-05 0 0.0199597 0.000215599 0 0.0198391 0.000360691 0 0.0196563 0.000516246 0 0.0194069 0.000684568 0 0.0190852 0.000868215 0 0.0186833 0.00106983 0 0.0181912 0.00129174 0 0.0175955 0.00153582 0 0.0168792 0.00180316 0 0.0160201 0.00209492 0 0.0149923 0.00241496 0 0.0137653 0.00277851 0 0.0123049 0.00322974 0 0.0105487 0.00383699 0 0.00840345 0.00442399 0 0.00635648 -0.0154126 0 0.0123984 -0.0112142 0 0.0152097 -0.00577849 0 0.016315 -0.00268858 0 0.0168637 -0.0013102 0 0.0173006 -0.000811604 0 0.0177456 -0.000687299 0 0.0181934 -0.000685325 0 0.0186207 -0.000695341 0 0.0190052 -0.000679061 0 0.0193368 -0.000628635 0 0.0196108 -0.000548601 0 0.019827 -0.000445868 0 0.0199866 -0.000327001 0 0.0200909 -0.000196533 0 0.0201408 -5.72283e-05 0 0.0201366 8.99084e-05 0 0.0200778 0.000245156 0 0.0199628 0.000409882 0 0.0197889 0.000586221 0 0.0195524 0.000776939 0 0.0192478 0.000985159 0 0.0188676 0.00121428 0 0.0184019 0.00146759 0 0.0178364 0.00174834 0 0.0171522 0.00205931 0 0.0163226 0.00240383 0 0.015314 0.00278761 0 0.0140842 0.00322735 0 0.012589 0.00376898 0 0.0107606 0.00450117 0 0.00847803 0.00522878 0 0.00652122 -0.0179431 0 0.0127838 -0.0126485 0 0.0152441 -0.00627908 0 0.0161088 -0.0029044 0 0.0166138 -0.0014655 0 0.017121 -0.000972032 0 0.0176646 -0.000852659 0 0.0181972 -0.000844584 0 0.0186847 -0.000839422 0 0.0191063 -0.000803436 0 0.019458 -0.000731988 0 0.0197409 -0.000631146 0 0.0199595 -0.000508526 0 0.0201182 -0.000370656 0 0.0202207 -0.000221938 0 0.0202695 -6.47889e-05 0 0.0202658 0.000100076 0 0.02021 0.000273291 0 0.0201011 0.000456561 0 0.019937 0.000652416 0 0.0197146 0.000864082 0 0.019429 0.00109527 0 0.0190731 0.00135018 0 0.0186374 0.00163321 0 0.0181075 0.00194925 0 0.0174631 0.00230335 0 0.0166739 0.00270211 0 0.0156979 0.00315466 0 0.0144777 0.00368083 0 0.0129503 0.00432634 0 0.0110355 0.00520196 0 0.00857424 0.00610512 0 0.00675956 -0.0207516 0 0.0132413 -0.0139971 0 0.0151894 -0.00664369 0 0.0157909 -0.0030807 0 0.0163013 -0.00163898 0 0.0169282 -0.00117075 0 0.0175983 -0.00105248 0 0.0182255 -0.0010292 0 0.0187745 -0.000999133 0 0.0192306 -0.000936679 0 0.0195994 -0.000839332 0 0.0198885 -0.000715033 0 0.0201075 -0.000570972 0 0.020264 -0.00041362 0 0.0203639 -0.000246668 0 0.0204111 -7.2169e-05 0 0.0204079 0.000109685 0 0.0203553 0.000299875 0 0.020253 0.000500512 0 0.0200995 0.000714497 0 0.0198923 0.000945524 0 0.0196272 0.00119787 0 0.0192979 0.00147657 0 0.0188956 0.00178717 0 0.0184062 0.00213643 0 0.0178096 0.0025321 0 0.017073 0.00298519 0 0.0161476 0.00351037 0 0.0149586 0.0041343 0 0.013411 0.00490268 0 0.0113966 0.00594758 0 0.0087002 0.00708292 0 0.00711323 -0.0239281 0 0.0137615 -0.0151877 0 0.0149667 -0.00683785 0 0.0153269 -0.0032357 0 0.015933 -0.00185402 0 0.01674 -0.00142061 0 0.0175607 -0.0012922 0 0.0182867 -0.00123934 0 0.0188938 -0.00117383 0 0.0193795 -0.00107716 0 0.0197609 -0.00094971 0 0.0200528 -0.000799251 0 0.0202699 -0.000632733 0 0.0204228 -0.000455476 0 0.0205193 -0.000270583 0 0.0205647 -7.92822e-05 0 0.020562 0.000118685 0 0.0205128 0.000324805 0 0.0204175 0.000541542 0 0.0202753 0.00077219 0 0.0200841 0.00102087 0 0.0198408 0.0012924 0 0.0195399 0.00159263 0 0.0191737 0.00192822 0 0.0187295 0.00230789 0 0.0181881 0.00274228 0 0.0175172 0.00324771 0 0.0166641 0.0038467 0 0.0155389 0.00457862 0 0.0140023 0.00549523 0 0.0118814 0.00674807 0 0.0088677 0.00820239 0 0.00767549 -0.0277543 0 0.0143035 -0.0160717 0 0.0144394 -0.00683906 0 0.0147045 -0.0034126 0 0.0155304 -0.00213919 0 0.0165838 -0.00173515 0 0.0175663 -0.00157303 0 0.0183883 -0.00147458 0 0.0190453 -0.00136067 0 0.0195531 -0.00122346 0 0.0199415 -0.00106134 0 0.0202325 -0.000883086 0 0.0204455 -0.000693058 0 0.0205935 -0.000495999 0 0.0206861 -0.000293465 0 0.0207293 -8.61294e-05 0 0.0207271 0.000127059 0 0.0206816 0.000347965 0 0.0205937 0.000579499 0 0.0204632 0.000825278 0 0.0202887 0.00108983 0 0.0200681 0.00137844 0 0.019797 0.00169769 0 0.0194691 0.0020553 0 0.0190737 0.00246182 0 0.0185941 0.00293079 0 0.018001 0.00348399 0 0.0172439 0.00415369 0 0.016226 0.00499808 0 0.0147639 0.00609335 0 0.0125548 0.00761209 0 0.00910312 0.00954245 0 0.00857957 -0.0324849 0 0.014654 -0.0164034 0 0.0134566 -0.00667084 0 0.0139507 -0.00368543 0 0.0151424 -0.00252585 0 0.0164894 -0.00212039 0 0.0176283 -0.0018948 0 0.0185338 -0.00173031 0 0.0192293 -0.00155749 0 0.0197496 -0.00137251 0 0.0201399 -0.0011732 0 0.0204259 -0.000965221 0 0.0206329 -0.000751647 0 0.0207748 -0.000534751 0 0.020863 -0.000315301 0 0.020904 -9.26424e-05 0 0.0209024 0.000134717 0 0.0208608 0.000369278 0 0.0207806 0.00061425 0 0.0206621 0.000873599 0 0.0205049 0.00115219 0 0.0203074 0.00145568 0 0.0200671 0.0017913 0 0.0197788 0.00216764 0 0.019435 0.00259683 0 0.0190221 0.00309504 0 0.0185165 0.00368881 0 0.0178781 0.00442057 0 0.0170157 0.00537023 0 0.0157368 0.00666731 0 0.0135356 0.0085453 0 0.00944447 0.0112068 0 0.0104262 -0.0391977 0 0.0142631 -0.0156609 0 0.0119143 -0.00652234 0 0.0132091 -0.00413618 0 0.0147988 -0.00303508 0 0.0165087 -0.0025767 0 0.0177347 -0.00224998 0 0.0187344 -0.00200339 0 0.0194367 -0.00175896 0 0.01997 -0.00152316 0 0.0203516 -0.00128289 0 0.0206319 -0.00104544 0 0.0208302 -0.000807635 0 0.0209656 -0.000571798 0 0.021049 -0.000335874 0 0.0210879 -9.89376e-05 0 0.0210871 0.000141638 0 0.0210497 0.000388634 0 0.0209774 0.000645697 0 0.0208712 0.000917058 0 0.0207314 0.0012078 0 0.0205575 0.00152398 0 0.020348 0.00187315 0 0.0201005 0.0022648 0 0.019809 0.00271198 0 0.0194665 0.00323319 0 0.0190543 0.0038581 0 0.0185504 0.00463773 0 0.0178901 0.00566937 0 0.0169278 0.00715634 0 0.0150428 0.00950979 0 0.0100528 0.0134833 0 0.0149271 -0.048273 0 0.0110636 -0.0131679 0 0.0108482 -0.00687634 0 0.0121651 -0.00476207 0 0.0148321 -0.00369487 0 0.0164947 -0.00307807 0 0.0179635 -0.0026404 0 0.0189438 -0.00228113 0 0.0196815 -0.00196612 0 0.0202017 -0.00167005 0 0.0205775 -0.00139123 0 0.0208472 -0.00112182 0 0.0210363 -0.000861466 0 0.0211648 -0.000606601 0 0.0212432 -0.000355422 0 0.0212802 -0.000104958 0 0.0212805 0.000147685 0 0.0212474 0.000405964 0 0.0211834 0.000673776 0 0.0210896 0.00095557 0 0.0209674 0.00125667 0 0.0208167 0.00158325 0 0.0206386 0.0019433 0 0.0204304 0.0023465 0 0.0201939 0.00280704 0 0.0199181 0.00334405 0 0.0196092 0.00398997 0 0.0192361 0.00479809 0 0.0188167 0.00587694 0 0.0182729 0.00746869 0 0.017353 0.0103017 0 0.0113721 0.0170083 0 0.044031 -0.0438219 0 0.00730973 -0.0103491 0 0.00892794 -0.00799446 0 0.0120449 -0.00553189 0 0.0146661 -0.00447827 0 0.0167098 -0.00362303 0 0.0181758 -0.00304451 0 0.0192044 -0.00256875 0 0.0199375 -0.00216849 0 0.0204465 -0.00181647 0 0.0208138 -0.00149429 0 0.0210693 -0.00119572 0 0.0212507 -0.000911992 0 0.0213707 -0.000639671 0 0.0214453 -0.000373736 0 0.0214803 -0.000110923 0 0.021482 0.000152826 0 0.0214537 0.000421164 0 0.0213977 0.000698446 0 0.021317 0.000989121 0 0.0212109 0.00129886 0 0.0210859 0.00163355 0 0.0209332 0.00200189 0 0.0207743 0.00241289 0 0.0205705 0.00288207 0 0.0204008 0.00342829 0 0.0201164 0.00408162 0 0.0200149 0.00490773 0 0.0195789 0.00596169 0 0.0199063 0.00762851 0 0.0200243 0.0100097 0 0.0176422 0.023648 0 </DataArray> 
</PointData> 
<Points> 
<DataArray type="Float32" NumberOfComponents="3"> 