<?xml version="1.0"?> 
<VTKFile type="StructuredGrid" version="0.1"> 
<StructuredGrid WholeExtent="0 31 0 31 0 0"> 
<Piece Extent="0 31 0 31 0 0"> 
<PointData>
<DataArray type="Float32" Name="B" format="ascii" NumberOfComponents="3"> 
0 -0 0 4.02721e-08 -0 0 8.0549e-08 -0 0 1.20834e-07 -0 0 1.61128e-07 -0 0 2.01427e-07 -0 0 2.41725e-07 -0 0 2.82011e-07 -0 0 3.22274e-07 -0 0 3.625e-07 -0 0 4.02681e-07 -0 0 4.42821e-07 -0 0 4.82938e-07 -0 0 5.23075e-07 -0 0 5.63311e-07 -0 0 6.03772e-07 -0 0 6.44643e-07 -0 0 6.86177e-07 -0 0 7.2871e-07 -0 0 7.72667e-07 -0 0 8.18566e-07 -0 0 8.6702e-07 -0 0 9.18724e-07 -0 0 9.7444e-07 -0 0 1.03496e-06 -0 0 1.10109e-06 -0 0 1.17356e-06 -0 0 1.25299e-06 -0 0 1.33982e-06 -0 0 1.4342e-06 -0 0 1.53596e-06 -0 0 1.64454e-06 -0 0 1.01335e-22 -4.02704e-08 0 4.02696e-08 -4.0273e-08 0 8.05447e-08 -4.02802e-08 0 1.20829e-07 -4.02896e-08 0 1.61124e-07 -4.02981e-08 0 2.01427e-07 -4.03017e-08 0 2.41731e-07 -4.02962e-08 0 2.82023e-07 -4.02787e-08 0 3.22292e-07 -4.02478e-08 0 3.62522e-07 -4.02054e-08 0 4.02704e-07 -4.01581e-08 0 4.42835e-07 -4.01185e-08 0 4.8293e-07 -4.01069e-08 0 5.23028e-07 -4.01534e-08 0 5.63203e-07 -4.02982e-08 0 6.03573e-07 -4.05939e-08 0 6.44318e-07 -4.11049e-08 0 6.85684e-07 -4.19075e-08 0 7.28005e-07 -4.3088e-08 0 7.71702e-07 -4.47397e-08 0 8.17295e-07 -4.69582e-08 0 8.654e-07 -4.98347e-08 0 9.16722e-07 -5.34473e-08 0 9.72035e-07 -5.78509e-08 0 1.03216e-06 -6.30661e-08 0 1.09791e-06 -6.90666e-08 0 1.17007e-06 -7.57683e-08 0 1.24928e-06 -8.30193e-08 0 1.33601e-06 -9.05937e-08 0 1.43047e-06 -9.81898e-08 0 1.53252e-06 -1.05433e-07 0 1.64161e-06 -1.11895e-07 0 1.66928e-22 -8.05353e-08 0 4.02614e-08 -8.05414e-08 0 8.05306e-08 -8.05578e-08 0 1.20814e-07 -8.05801e-08 0 1.61113e-07 -8.06012e-08 0 2.01426e-07 -8.06124e-08 0 2.41746e-07 -8.06049e-08 0 2.8206e-07 -8.05713e-08 0 3.22349e-07 -8.05078e-08 0 3.62595e-07 -8.04168e-08 0 4.02779e-07 -8.03098e-08 0 4.42889e-07 -8.02104e-08 0 4.82926e-07 -8.01578e-08 0 5.22914e-07 -8.02103e-08 0 5.62909e-07 -8.04478e-08 0 6.03012e-07 -8.09745e-08 0 6.43383e-07 -8.192e-08 0 6.84254e-07 -8.34383e-08 0 7.25941e-07 -8.57051e-08 0 7.68859e-07 -8.89119e-08 0 8.13528e-07 -9.32564e-08 0 8.60576e-07 -9.89294e-08 0 9.10734e-07 -1.06098e-07 0 9.6482e-07 -1.14883e-07 0 1.02371e-06 -1.25337e-07 0 1.08831e-06 -1.37421e-07 0 1.15949e-06 -1.50975e-07 0 1.238e-06 -1.65703e-07 0 1.32442e-06 -1.81154e-07 0 1.41909e-06 -1.96722e-07 0 1.52196e-06 -2.11646e-07 0 1.63257e-06 -2.25052e-07 0 0 -1.20788e-07 0 4.0245e-08 -1.20799e-07 0 8.0502e-08 -1.20829e-07 0 1.20781e-07 -1.20872e-07 0 1.61086e-07 -1.20914e-07 0 2.01418e-07 -1.20942e-07 0 2.41768e-07 -1.2094e-07 0 2.8212e-07 -1.20895e-07 0 3.2245e-07 -1.20797e-07 0 3.62731e-07 -1.20646e-07 0 4.0293e-07 -1.20457e-07 0 4.43019e-07 -1.20259e-07 0 4.82976e-07 -1.20107e-07 0 5.22799e-07 -1.20086e-07 0 5.62516e-07 -1.20312e-07 0 6.02195e-07 -1.20941e-07 0 6.41964e-07 -1.22166e-07 0 6.82022e-07 -1.24223e-07 0 7.22662e-07 -1.27383e-07 0 7.64282e-07 -1.31945e-07 0 8.07399e-07 -1.38222e-07 0 8.52657e-07 -1.46521e-07 0 9.00829e-07 -1.5712e-07 0 9.52802e-07 -1.70229e-07 0 1.00956e-06 -1.8596e-07 0 1.07213e-06 -2.04281e-07 0 1.14154e-06 -2.24983e-07 0 1.21875e-06 -2.47636e-07 0 1.30454e-06 -2.71573e-07 0 1.39943e-06 -2.95874e-07 0 1.50358e-06 -3.19373e-07 0 1.61666e-06 -3.40714e-07 0 6.34947e-24 -1.61017e-07 0 4.02164e-08 -1.61036e-07 0 8.04512e-08 -1.61088e-07 0 1.2072e-07 -1.61162e-07 0 1.61032e-07 -1.61241e-07 0 2.0139e-07 -1.61302e-07 0 2.41786e-07 -1.6132e-07 0 2.82199e-07 -1.61272e-07 0 3.22601e-07 -1.61141e-07 0 3.62949e-07 -1.60918e-07 0 4.03194e-07 -1.60615e-07 0 4.43283e-07 -1.60265e-07 0 4.83164e-07 -1.59933e-07 0 5.22798e-07 -1.59721e-07 0 5.6217e-07 -1.59782e-07 0 6.01301e-07 -1.60317e-07 0 6.40269e-07 -1.61586e-07 0 6.79227e-07 -1.6391e-07 0 7.18424e-07 -1.67663e-07 0 7.5823e-07 -1.73263e-07 0 7.99149e-07 -1.8116e-07 0 8.41845e-07 -1.91804e-07 0 8.87138e-07 -2.05614e-07 0 9.36011e-07 -2.2293e-07 0 9.89584e-07 -2.43961e-07 0 1.04908e-06 -2.68726e-07 0 1.11577e-06 -2.96998e-07 0 1.19088e-06 -3.28244e-07 0 1.27549e-06 -3.61589e-07 0 1.37044e-06 -3.95792e-07 0 1.47617e-06 -4.29249e-07 0 1.59258e-06 -4.60069e-07 0 6.05488e-22 -2.01208e-07 0 4.01689e-08 -2.01238e-07 0 8.03655e-08 -2.01324e-07 0 1.20614e-07 -2.01448e-07 0 1.60931e-07 -2.01586e-07 0 2.01323e-07 -2.01705e-07 0 2.41783e-07 -2.01767e-07 0 2.8229e-07 -2.01735e-07 0 3.22804e-07 -2.01578e-07 0 3.63269e-07 -2.01275e-07 0 4.03615e-07 -2.00827e-07 0 4.43756e-07 -2.00261e-07 0 4.83602e-07 -1.99644e-07 0 5.23066e-07 -1.99094e-07 0 5.62074e-07 -1.98786e-07 0 6.00583e-07 -1.98967e-07 0 6.38601e-07 -1.99962e-07 0 6.76212e-07 -2.02177e-07 0 7.13602e-07 -2.06099e-07 0 7.51088e-07 -2.12285e-07 0 7.89152e-07 -2.21345e-07 0 8.28461e-07 -2.33908e-07 0 8.69892e-07 -2.50581e-07 0 9.14538e-07 -2.71884e-07 0 9.63696e-07 -2.98186e-07 0 1.01884e-06 -3.29615e-07 0 1.08156e-06 -3.65982e-07 0 1.15346e-06 -4.06693e-07 0 1.23605e-06 -4.50687e-07 0 1.3306e-06 -4.96399e-07 0 1.43796e-06 -5.41746e-07 0 1.5584e-06 -5.84229e-07 0 3.71747e-22 -2.41336e-07 0 4.00932e-08 -2.41383e-07 0 8.0227e-08 -2.41519e-07 0 1.20438e-07 -2.41719e-07 0 1.60752e-07 -2.4195e-07 0 2.01184e-07 -2.42164e-07 0 2.41732e-07 -2.42308e-07 0 2.8237e-07 -2.42325e-07 0 3.23053e-07 -2.42164e-07 0 3.63708e-07 -2.41782e-07 0 4.04238e-07 -2.41162e-07 0 4.44524e-07 -2.40315e-07 0 4.84426e-07 -2.393e-07 0 5.23796e-07 -2.38236e-07 0 5.62485e-07 -2.37314e-07 0 6.00368e-07 -2.36819e-07 0 6.37357e-07 -2.37132e-07 0 6.7344e-07 -2.3875e-07 0 7.08709e-07 -2.4228e-07 0 7.43401e-07 -2.48436e-07 0 7.77944e-07 -2.58022e-07 0 8.12992e-07 -2.7189e-07 0 8.49466e-07 -2.90891e-07 0 8.88581e-07 -3.15802e-07 0 9.31842e-07 -3.47229e-07 0 9.81032e-07 -3.85499e-07 0 1.03815e-06 -4.30543e-07 0 1.1053e-06 -4.81774e-07 0 1.18458e-06 -5.37986e-07 0 1.27784e-06 -5.97291e-07 0 1.38655e-06 -6.57082e-07 0 1.51147e-06 -7.14149e-07 0 0 -2.81366e-07 0 3.99761e-08 -2.81439e-07 0 8.00103e-08 -2.81646e-07 0 1.20155e-07 -2.81959e-07 0 1.60452e-07 -2.82329e-07 0 2.00928e-07 -2.82693e-07 0 2.41585e-07 -2.82976e-07 0 2.82402e-07 -2.83096e-07 0 3.23325e-07 -2.82973e-07 0 3.64267e-07 -2.82534e-07 0 4.05104e-07 -2.81731e-07 0 4.45674e-07 -2.80547e-07 0 4.85783e-07 -2.79018e-07 0 5.25208e-07 -2.77249e-07 0 5.63711e-07 -2.75435e-07 0 6.01057e-07 -2.73879e-07 0 6.37038e-07 -2.73017e-07 0 6.71507e-07 -2.73428e-07 0 7.04424e-07 -2.75849e-07 0 7.35904e-07 -2.81169e-07 0 7.66275e-07 -2.90417e-07 0 7.96144e-07 -3.04725e-07 0 8.26452e-07 -3.25264e-07 0 8.58523e-07 -3.53157e-07 0 8.94096e-07 -3.89362e-07 0 9.35318e-07 -4.34524e-07 0 9.84694e-07 -4.88814e-07 0 1.04499e-06 -5.51758e-07 0 1.11904e-06 -6.22078e-07 0 1.20955e-06 -6.97582e-07 0 1.31878e-06 -7.75094e-07 0 1.44823e-06 -8.50577e-07 0 0 -3.21248e-07 0 3.98001e-08 -3.21356e-07 0 7.96811e-08 -3.21665e-07 0 1.19718e-07 -3.22138e-07 0 1.59971e-07 -3.22712e-07 0 2.00485e-07 -3.23302e-07 0 2.41273e-07 -3.23807e-07 0 2.82321e-07 -3.24112e-07 0 3.23572e-07 -3.241e-07 0 3.64925e-07 -3.23657e-07 0 4.06229e-07 -3.22689e-07 0 4.4728e-07 -3.21136e-07 0 4.8782e-07 -3.18991e-07 0 5.27542e-07 -3.16327e-07 0 5.66099e-07 -3.13319e-07 0 6.03122e-07 -3.10272e-07 0 6.38247e-07 -3.07655e-07 0 6.71153e-07 -3.06124e-07 0 7.01613e-07 -3.06542e-07 0 7.2956e-07 -3.0999e-07 0 7.55165e-07 -3.17761e-07 0 7.78924e-07 -3.31322e-07 0 8.01744e-07 -3.52255e-07 0 8.25034e-07 -3.82149e-07 0 8.50765e-07 -4.22459e-07 0 8.81494e-07 -4.74314e-07 0 9.20343e-07 -5.38299e-07 0 9.70887e-07 -6.14212e-07 0 1.03697e-06 -7.00826e-07 0 1.1224e-06 -7.95703e-07 0 1.23059e-06 -8.95059e-07 0 1.36414e-06 -9.93889e-07 0 0 -3.60911e-07 0 3.9542e-08 -3.61067e-07 0 7.91942e-08 -3.61517e-07 0 1.1906e-07 -3.62213e-07 0 1.59226e-07 -3.63075e-07 0 1.9976e-07 -3.63994e-07 0 2.40696e-07 -3.64836e-07 0 2.8203e-07 -3.65447e-07 0 3.23709e-07 -3.65661e-07 0 3.65624e-07 -3.65311e-07 0 4.07599e-07 -3.64241e-07 0 4.49389e-07 -3.62329e-07 0 4.90669e-07 -3.59502e-07 0 5.31037e-07 -3.55773e-07 0 5.70021e-07 -3.51267e-07 0 6.07092e-07 -3.46266e-07 0 6.41691e-07 -3.41243e-07 0 6.73271e-07 -3.36907e-07 0 7.01353e-07 -3.3424e-07 0 7.25613e-07 -3.3452e-07 0 7.45973e-07 -3.39334e-07 0 7.62726e-07 -3.5055e-07 0 7.76662e-07 -3.70262e-07 0 7.89206e-07 -4.00672e-07 0 8.02529e-07 -4.43919e-07 0 8.1963e-07 -5.01843e-07 0 8.44342e-07 -5.75687e-07 0 8.81253e-07 -6.65762e-07 0 9.35482e-07 -7.71093e-07 0 1.01235e-06 -8.89116e-07 0 1.11685e-06 -1.01544e-06 0 1.25305e-06 -1.14389e-06 0 0 -4.00257e-07 0 3.91724e-08 -4.00477e-07 0 7.84916e-08 -4.01118e-07 0 1.18096e-07 -4.02118e-07 0 1.58109e-07 -4.03378e-07 0 1.98627e-07 -4.0476e-07 0 2.39713e-07 -4.06094e-07 0 2.81384e-07 -4.07178e-07 0 3.23599e-07 -4.07788e-07 0 3.66249e-07 -4.07689e-07 0 4.09143e-07 -4.06646e-07 0 4.51995e-07 -4.04449e-07 0 4.94416e-07 -4.00934e-07 0 5.35906e-07 -3.96019e-07 0 5.75851e-07 -3.89745e-07 0 6.13536e-07 -3.82323e-07 0 6.48167e-07 -3.74191e-07 0 6.7891e-07 -3.66074e-07 0 7.04959e-07 -3.59043e-07 0 7.25628e-07 -3.54566e-07 0 7.40473e-07 -3.54543e-07 0 7.4945e-07 -3.61303e-07 0 7.531e-07 -3.77563e-07 0 7.5274e-07 -4.0631e-07 0 7.50662e-07 -4.50605e-07 0 7.50284e-07 -5.13297e-07 0 7.56241e-07 -5.96632e-07 0 7.74328e-07 -7.0179e-07 0 8.11318e-07 -8.2837e-07 0 8.74503e-07 -9.73913e-07 0 9.71125e-07 -1.13346e-06 0 1.10754e-06 -1.29964e-06 0 0 -4.39156e-07 0 3.86547e-08 -4.39461e-07 0 7.75007e-08 -4.40352e-07 0 1.16721e-07 -4.41756e-07 0 1.56481e-07 -4.43552e-07 0 1.96919e-07 -4.4557e-07 0 2.38136e-07 -4.47599e-07 0 2.80181e-07 -4.49381e-07 0 3.23039e-07 -4.50625e-07 0 3.66614e-07 -4.51013e-07 0 4.10709e-07 -4.50213e-07 0 4.55013e-07 -4.47901e-07 0 4.99077e-07 -4.43787e-07 0 5.42302e-07 -4.37654e-07 0 5.83926e-07 -4.29409e-07 0 6.23027e-07 -4.19137e-07 0 6.58533e-07 -4.07181e-07 0 6.89262e-07 -3.94221e-07 0 7.13986e-07 -3.81365e-07 0 7.31533e-07 -3.70233e-07 0 7.40937e-07 -3.63034e-07 0 7.41635e-07 -3.62604e-07 0 7.33712e-07 -3.72393e-07 0 7.18185e-07 -3.96365e-07 0 6.97299e-07 -4.38797e-07 0 6.7481e-07 -5.03931e-07 0 6.5617e-07 -5.95492e-07 0 6.4861e-07 -7.16049e-07 0 6.60926e-07 -8.66285e-07 0 7.03096e-07 -1.04424e-06 0 7.85351e-07 -1.24463e-06 0 9.17037e-07 -1.45846e-06 0 0 -4.77437e-07 0 3.79442e-08 -4.77852e-07 0 7.61327e-08 -4.79066e-07 0 1.14801e-07 -4.80995e-07 0 1.54168e-07 -4.83494e-07 0 1.94424e-07 -4.86364e-07 0 2.3572e-07 -4.89343e-07 0 2.78152e-07 -4.92117e-07 0 3.21747e-07 -4.94316e-07 0 3.66438e-07 -4.95527e-07 0 4.12045e-07 -4.95298e-07 0 4.58246e-07 -4.93166e-07 0 5.0455e-07 -4.88677e-07 0 5.5027e-07 -4.81433e-07 0 5.94499e-07 -4.71142e-07 0 6.36092e-07 -4.57693e-07 0 6.73668e-07 -4.41248e-07 0 7.05629e-07 -4.22353e-07 0 7.30224e-07 -4.02062e-07 0 7.45648e-07 -3.82073e-07 0 7.50216e-07 -3.64861e-07 0 7.42598e-07 -3.53776e-07 0 7.22138e-07 -3.53094e-07 0 6.89245e-07 -3.6796e-07 0 6.45837e-07 -4.04202e-07 0 5.95782e-07 -4.67952e-07 0 5.4531e-07 -5.65044e-07 0 5.03195e-07 -7.00189e-07 0 4.80788e-07 -8.7593e-07 0 4.91413e-07 -1.09152e-06 0 5.4965e-07 -1.3417e-06 0 6.69819e-07 -1.61659e-06 0 -2.14456e-22 -5.1488e-07 0 3.69882e-08 -5.15432e-07 0 7.42818e-08 -5.17056e-07 0 1.12178e-07 -5.19653e-07 0 1.50959e-07 -5.23058e-07 0 1.90879e-07 -5.27037e-07 0 2.32154e-07 -5.31284e-07 0 2.74945e-07 -5.35419e-07 0 3.19339e-07 -5.38991e-07 0 3.65323e-07 -5.41476e-07 0 4.12758e-07 -5.42289e-07 0 4.61342e-07 -5.40796e-07 0 5.10569e-07 -5.36342e-07 0 5.5969e-07 -5.28289e-07 0 6.07667e-07 -5.16077e-07 0 6.53138e-07 -4.99308e-07 0 6.94389e-07 -4.77852e-07 0 7.29353e-07 -4.5199e-07 0 7.55649e-07 -4.22587e-07 0 7.70678e-07 -3.91286e-07 0 7.71793e-07 -3.60718e-07 0 7.56581e-07 -3.34696e-07 0 7.2325e-07 -3.18364e-07 0 6.71156e-07 -3.18234e-07 0 6.01416e-07 -3.42056e-07 0 5.17629e-07 -3.98447e-07 0 4.26508e-07 -4.9619e-07 0 3.3848e-07 -6.43181e-07 0 2.6774e-07 -8.45013e-07 0 2.32178e-07 -1.10326e-06 0 2.5187e-07 -1.41378e-06 0 3.47083e-07 -1.7644e-06 0 -1.95217e-21 -5.51208e-07 0 3.57254e-08 -5.51931e-07 0 7.1825e-08 -5.54062e-07 0 1.08667e-07 -5.57492e-07 0 1.46605e-07 -5.62037e-07 0 1.85971e-07 -5.6743e-07 0 2.27061e-07 -5.73323e-07 0 2.70119e-07 -5.79273e-07 0 3.15318e-07 -5.84741e-07 0 3.62729e-07 -5.89089e-07 0 4.12289e-07 -5.91581e-07 0 4.63753e-07 -5.9139e-07 0 5.16645e-07 -5.87617e-07 0 5.70197e-07 -5.79329e-07 0 6.23281e-07 -5.65616e-07 0 6.74344e-07 -5.4568e-07 0 7.21342e-07 -5.18959e-07 0 7.61705e-07 -4.85299e-07 0 7.92332e-07 -4.45177e-07 0 8.09656e-07 -3.99966e-07 0 8.098e-07 -3.52254e-07 0 7.88872e-07 -3.06161e-07 0 7.43428e-07 -2.67648e-07 0 6.71123e-07 -2.44707e-07 0 5.71588e-07 -2.47381e-07 0 4.47416e-07 -2.87452e-07 0 3.05324e-07 -3.77711e-07 0 1.57016e-07 -5.3068e-07 0 2.00982e-08 -7.56701e-07 0 -8.24084e-08 -1.06162e-06 0 -1.22288e-07 -1.44355e-06 0 -6.83651e-08 -1.89296e-06 0 -3.69779e-22 -5.8608e-07 0 3.40872e-08 -5.87009e-07 0 6.86238e-08 -5.89755e-07 0 1.04055e-07 -5.94203e-07 0 1.40818e-07 -6.00151e-07 0 1.79331e-07 -6.0731e-07 0 2.19987e-07 -6.1529e-07 0 2.63136e-07 -6.23591e-07 0 3.09063e-07 -6.31594e-07 0 3.57958e-07 -6.38544e-07 0 4.09876e-07 -6.43545e-07 0 4.64686e-07 -6.45559e-07 0 5.22e-07 -6.43409e-07 0 5.811e-07 -6.35811e-07 0 6.40835e-07 -6.21417e-07 0 6.99523e-07 -5.98904e-07 0 7.54838e-07 -5.67109e-07 0 8.0371e-07 -5.25222e-07 0 8.42263e-07 -4.73058e-07 0 8.65808e-07 -4.11409e-07 0 8.68949e-07 -3.4248e-07 0 8.45863e-07 -2.70395e-07 0 7.90788e-07 -2.01707e-07 0 6.98835e-07 -1.45869e-07 0 5.67071e-07 -1.15488e-07 0 3.96031e-07 -1.26237e-07 0 1.91265e-07 -1.96186e-07 0 -3.46963e-08 -3.44353e-07 0 -2.61379e-07 -5.88367e-07 0 -4.58808e-07 -9.40944e-07 0 -5.89538e-07 -1.40643e-06 0 -6.11483e-07 -1.97129e-06 0 0 -6.19082e-07 0 3.1999e-08 -6.20256e-07 0 6.45264e-08 -6.23735e-07 0 9.81099e-08 -6.29399e-07 0 1.33275e-07 -6.37039e-07 0 1.7054e-07 -6.4635e-07 0 2.10409e-07 -6.56913e-07 0 2.53358e-07 -6.68186e-07 0 2.99816e-07 -6.79476e-07 0 3.50132e-07 -6.89922e-07 0 4.0453e-07 -6.98473e-07 0 4.63058e-07 -7.03871e-07 0 5.25499e-07 -7.0464e-07 0 5.91276e-07 -6.99092e-07 0 6.59327e-07 -6.85361e-07 0 7.2795e-07 -6.61467e-07 0 7.94638e-07 -6.25453e-07 0 8.55895e-07 -5.75584e-07 0 9.07079e-07 -5.10661e-07 0 9.42281e-07 -4.30451e-07 0 9.54331e-07 -3.36276e-07 0 9.34974e-07 -2.31718e-07 0 8.75363e-07 -1.23457e-07 0 7.6691e-07 -2.20978e-08 0 6.02728e-07 5.71148e-08 0 3.79461e-07 9.39946e-08 0 9.99563e-08 6.37764e-08 0 -2.24398e-07 -6.14556e-08 0 -5.70184e-07 -3.09853e-07 0 -9.01514e-07 -7.05803e-07 0 -1.1671e-06 -1.26219e-06 0 -1.30162e-06 -1.98495e-06 0 0 -6.49726e-07 0 2.93823e-08 -6.51183e-07 0 5.93724e-08 -6.55515e-07 0 9.05821e-08 -6.62603e-07 0 1.2363e-07 -6.72239e-07 0 1.5914e-07 -6.84115e-07 0 1.97743e-07 -6.97804e-07 0 2.4006e-07 -7.12735e-07 0 2.86693e-07 -7.28169e-07 0 3.38192e-07 -7.43159e-07 0 3.95013e-07 -7.56517e-07 0 4.57456e-07 -7.66776e-07 0 5.25579e-07 -7.72156e-07 0 5.99073e-07 -7.70538e-07 0 6.77111e-07 -7.59467e-07 0 7.58146e-07 -7.36186e-07 0 8.39672e-07 -6.97739e-07 0 9.17939e-07 -6.41162e-07 0 9.87657e-07 -5.63805e-07 0 1.04172e-06 -4.6384e-07 0 1.071e-06 -3.4097e-07 0 1.06438e-06 -1.9741e-07 0 1.00903e-06 -3.9086e-08 0 8.91342e-07 1.2297e-07 0 6.98421e-07 2.71268e-07 0 4.20747e-07 3.80768e-07 0 5.52153e-08 4.18637e-07 0 -3.89896e-07 3.45341e-07 0 -8.91849e-07 1.17489e-07 0 -1.40671e-06 -3.05886e-07 0 -1.8713e-06 -9.58706e-07 0 -2.20513e-06 -1.83354e-06 0 -5.40957e-22 -6.77442e-07 0 2.61583e-08 -6.79222e-07 0 5.3e-08 -6.84525e-07 0 8.12179e-08 -6.93242e-07 0 1.11522e-07 -7.05179e-07 0 1.44648e-07 -7.20044e-07 0 1.81358e-07 -7.37422e-07 0 2.22437e-07 -7.56748e-07 0 2.68688e-07 -7.77266e-07 0 3.20904e-07 -7.9798e-07 0 3.79832e-07 -8.17606e-07 0 4.46116e-07 -8.34503e-07 0 5.20201e-07 -8.4661e-07 0 6.02205e-07 -8.51384e-07 0 6.91735e-07 -8.45746e-07 0 7.87643e-07 -8.26066e-07 0 8.87705e-07 -7.88205e-07 0 9.8822e-07 -7.2765e-07 0 1.08355e-06 -6.39812e-07 0 1.16558e-06 -5.20544e-07 0 1.22329e-06 -3.66976e-07 0 1.24234e-06 -1.78716e-07 0 1.20516e-06 4.04541e-08 0 1.09147e-06 2.80532e-07 0 8.80085e-07 5.22873e-07 0 5.51496e-07 7.38007e-07 0 9.30926e-08 8.84037e-07 0 -4.96026e-07 9.06725e-07 0 -1.19539e-06 7.42619e-07 0 -1.96045e-06 3.23724e-07 0 -2.70934e-06 -4.05144e-07 0 -3.31687e-06 -1.52076e-06 0 -2.45018e-21 -7.01589e-07 0 2.22526e-08 -7.03726e-07 0 4.52546e-08 -7.10108e-07 0 6.9771e-08 -7.20645e-07 0 9.65983e-08 -7.35171e-07 0 1.26578e-07 -7.53434e-07 0 1.60606e-07 -7.75062e-07 0 1.99643e-07 -7.99531e-07 0 2.44712e-07 -8.26116e-07 0 2.96886e-07 -8.5383e-07 0 3.57264e-07 -8.81353e-07 0 4.26921e-07 -9.06937e-07 0 5.0682e-07 -9.28308e-07 0 5.97685e-07 -9.42546e-07 0 6.99803e-07 -9.45976e-07 0 8.12741e-07 -9.34061e-07 0 9.34957e-07 -9.01344e-07 0 1.06328e-06 -8.41487e-07 0 1.19222e-06 -7.47449e-07 0 1.31322e-06 -6.11961e-07 0 1.41366e-06 -4.2835e-07 0 1.47609e-06 -1.91982e-07 0 1.47754e-06 9.76638e-08 0 1.38968e-06 4.33974e-07 0 1.1798e-06 7.99607e-07 0 8.14522e-07 1.16224e-06 0 2.64291e-07 1.47102e-06 0 -4.85958e-07 1.65466e-06 0 -1.43005e-06 1.6222e-06 0 -2.52086e-06 1.27295e-06 0 -3.67199e-06 4.94486e-07 0 -4.75632e-06 -7.17891e-07 0 -2.15148e-22 -7.21451e-07 0 1.76003e-08 -7.23975e-07 0 3.59999e-08 -7.31526e-07 0 5.6021e-08 -7.44042e-07 0 7.85318e-08 -7.61408e-07 0 1.04468e-07 -7.83433e-07 0 1.34856e-07 -8.09827e-07 0 1.70827e-07 -8.40154e-07 0 2.13635e-07 -8.7378e-07 0 2.6466e-07 -9.09801e-07 0 3.25401e-07 -9.4695e-07 0 3.97444e-07 -9.83477e-07 0 4.82402e-07 -1.01701e-06 0 5.81795e-07 -1.04437e-06 0 6.96867e-07 -1.06139e-06 0 8.2829e-07 -1.0627e-06 0 9.75723e-07 -1.0415e-06 0 1.13718e-06 -9.89448e-07 0 1.30819e-06 -8.96629e-07 0 1.48057e-06 -7.5181e-07 0 1.64111e-06 -5.43167e-07 0 1.76984e-06 -2.59668e-07 0 1.83855e-06 1.06383e-07 0 1.80948e-06 5.55647e-07 0 1.63593e-06 1.07616e-06 0 1.264e-06 1.63684e-06 0 6.40718e-07 2.18005e-06 0 -2.7826e-07 2.6157e-06 0 -1.5059e-06 2.82133e-06 0 -3.01728e-06 2.64167e-06 0 -4.711e-06 1.9314e-06 0 -6.38356e-06 3.79793e-07 0 0 -7.3626e-07 0 1.21525e-08 -7.39189e-07 0 2.51313e-08 -7.47969e-07 0 3.97928e-08 -7.62579e-07 0 5.70546e-08 -7.82968e-07 0 7.79266e-08 -8.09041e-07 0 1.03543e-07 -8.40627e-07 0 1.35195e-07 -8.77433e-07 0 1.74361e-07 -9.18988e-07 0 2.22735e-07 -9.64564e-07 0 2.82241e-07 -1.01306e-06 0 3.55041e-07 -1.06288e-06 0 4.43505e-07 -1.11171e-06 0 5.50134e-07 -1.15633e-06 0 6.77418e-07 -1.19229e-06 0 8.2756e-07 -1.21358e-06 0 1.00204e-06 -1.21224e-06 0 1.20095e-06 -1.17795e-06 0 1.42191e-06 -1.09768e-06 0 1.65865e-06 -9.55605e-07 0 1.89894e-06 -7.33328e-07 0 2.12206e-06 -4.11094e-07 0 2.29561e-06 2.99068e-08 0 2.3728e-06 6.02794e-07 0 2.28975e-06 1.30819e-06 0 1.96753e-06 2.12345e-06 0 1.31531e-06 2.99049e-06 0 2.49561e-07 3.8035e-06 0 -1.29375e-06 4.39803e-06 0 -3.3091e-06 4.56714e-06 0 -5.72344e-06 4.02395e-06 0 -8.39575e-06 2.83637e-06 0 0 -7.4521e-07 0 5.88361e-09 -7.4855e-07 0 1.25902e-08 -7.58579e-07 0 2.09798e-08 -7.75327e-07 0 3.1988e-08 -7.98831e-07 0 4.66665e-08 -8.29118e-07 0 6.62265e-08 -8.66177e-07 0 9.20859e-08 -9.09919e-07 0 1.2592e-07 -9.60116e-07 0 1.69716e-07 -1.01632e-06 0 2.25823e-07 -1.07774e-06 0 2.96999e-07 -1.14311e-06 0 3.86442e-07 -1.21042e-06 0 4.97778e-07 -1.27668e-06 0 6.34996e-07 -1.33752e-06 0 8.0226e-07 -1.38669e-06 0 1.00355e-06 -1.41547e-06 0 1.24201e-06 -1.41192e-06 0 1.51888e-06 -1.3601e-06 0 1.83174e-06 -1.2393e-06 0 2.17205e-06 -1.02361e-06 0 2.52128e-06 -6.82056e-07 0 2.84636e-06 -1.80614e-07 0 3.09316e-06 5.13846e-07 0 3.18162e-06 1.42427e-06 0 2.99983e-06 2.55014e-06 0 2.41077e-06 3.84618e-06 0 1.2585e-06 5.19757e-06 0 -5.84153e-07 6.4049e-06 0 -3.19748e-06 7.15583e-06 0 -6.51335e-06 7.15343e-06 0 -1.02463e-05 5.39256e-06 0 0 -7.47485e-07 0 -1.20206e-09 -7.51224e-07 0 -1.62143e-09 -7.62472e-07 0 -4.32586e-10 -7.81319e-07 0 3.2778e-09 -8.07906e-07 0 1.05595e-08 -8.4241e-07 0 2.26534e-08 -8.85022e-07 0 4.10536e-08 -9.35913e-07 0 6.75792e-08 -9.95181e-07 0 1.04456e-07 -1.06277e-06 0 1.5441e-07 -1.13837e-06 0 2.20766e-07 -1.22122e-06 0 3.07548e-07 -1.30994e-06 0 4.19575e-07 -1.40214e-06 0 5.62503e-07 -1.49401e-06 0 7.42808e-07 -1.57966e-06 0 9.67584e-07 -1.65035e-06 0 1.2441e-06 -1.69335e-06 0 1.57883e-06 -1.69058e-06 0 1.97582e-06 -1.61705e-06 0 2.43371e-06 -1.43906e-06 0 2.94136e-06 -1.11313e-06 0 3.47058e-06 -5.85392e-07 0 3.96722e-06 2.04815e-07 0 4.33756e-06 1.31797e-06 0 4.43904e-06 2.79527e-06 0 4.06733e-06 4.62987e-06 0 2.97754e-06 6.72514e-06 0 9.00737e-07 8.83587e-06 0 -2.33542e-06 1.05872e-05 0 -6.77507e-06 1.12964e-05 0 -1.23037e-05 1.16003e-05 0 0 -7.4229e-07 0 -9.06329e-09 -7.46398e-07 0 -1.74267e-08 -7.58775e-07 0 -2.43439e-08 -7.79579e-07 0 -2.89721e-08 -8.09067e-07 0 -3.03177e-08 -8.4759e-07 0 -2.71721e-08 -8.95576e-07 0 -1.80366e-08 -9.53507e-07 0 -1.03047e-09 -1.02188e-06 0 2.62195e-08 -1.10115e-06 0 6.67132e-08 -1.19162e-06 0 1.24238e-07 -1.29332e-06 0 2.03555e-07 -1.40575e-06 0 3.10609e-07 -1.5276e-06 0 4.52749e-07 -1.65622e-06 0 6.3892e-07 -1.78693e-06 0 8.79776e-07 -1.91204e-06 0 1.18758e-06 -2.01937e-06 0 1.57571e-06 -2.09039e-06 0 2.05735e-06 -2.09746e-06 0 2.64299e-06 -2.00083e-06 0 3.33533e-06 -1.74437e-06 0 4.12141e-06 -1.25294e-06 0 4.9581e-06 -4.29304e-07 0 5.75401e-06 8.39352e-07 0 6.3392e-06 2.66793e-06 0 6.44583e-06 5.13237e-06 0 5.68189e-06 8.19724e-06 0 3.59593e-06 1.1639e-05 0 -2.56113e-07 1.48744e-05 0 -6.02223e-06 1.73397e-05 0 -1.33346e-05 1.57592e-05 0 0 -7.28898e-07 0 -1.76167e-08 -7.33321e-07 0 -3.46626e-08 -7.46668e-07 0 -5.05193e-08 -7.69169e-07 0 -6.44693e-08 -8.01206e-07 0 -7.56382e-08 -8.43316e-07 0 -8.29247e-08 -8.96187e-07 0 -8.49161e-08 -9.60651e-07 0 -7.97804e-08 -1.03766e-06 0 -6.51309e-08 -1.12828e-06 0 -3.78531e-08 -1.23357e-06 0 6.11461e-09 -1.35454e-06 0 7.20574e-08 -1.49193e-06 0 1.66827e-07 -1.64596e-06 0 2.99254e-07 -1.81583e-06 0 4.8063e-07 -1.99907e-06 0 7.25222e-07 -2.19042e-06 0 1.05075e-06 -2.38025e-06 0 1.47864e-06 -2.55202e-06 0 2.03378e-06 -2.67902e-06 0 2.74292e-06 -2.71882e-06 0 3.63111e-06 -2.60737e-06 0 4.71304e-06 -2.2488e-06 0 5.9783e-06 -1.50872e-06 0 7.36161e-06 -2.03671e-07 0 8.70184e-06 1.88816e-06 0 9.67157e-06 4.99514e-06 0 9.72745e-06 9.26212e-06 0 8.07122e-06 1.4527e-05 0 3.85128e-06 2.02398e-05 0 -3.52572e-06 2.46306e-05 0 -1.38125e-05 3.05852e-05 0 0 -7.06682e-07 0 -2.6733e-08 -7.11344e-07 0 -5.30715e-08 -7.25433e-07 0 -7.85756e-08 -7.49248e-07 0 -1.02711e-07 -7.83297e-07 0 -1.2479e-07 -8.28306e-07 0 -1.43904e-07 -8.85228e-07 0 -1.58832e-07 -9.55262e-07 0 -1.67925e-07 -1.03986e-06 0 -1.68954e-07 -1.14072e-06 0 -1.58908e-07 -1.25979e-06 0 -1.33726e-07 -1.39924e-06 0 -8.79392e-08 -1.56131e-06 0 -1.42061e-08 -1.74819e-06 0 9.73047e-08 -1.96162e-06 0 2.59701e-07 -2.20237e-06 0 4.90367e-07 -2.46923e-06 0 8.12153e-07 -2.75739e-06 0 1.25475e-06 -3.05604e-06 0 1.85594e-06 -3.34383e-06 0 2.66246e-06 -3.58339e-06 0 3.72896e-06 -3.70988e-06 0 5.11345e-06 -3.61935e-06 0 6.86366e-06 -3.14374e-06 0 8.98782e-06 -2.03248e-06 0 1.13927e-05 7.99991e-08 0 1.37749e-05 3.66541e-06 0 1.54497e-05 9.20418e-06 0 1.51785e-05 1.69779e-05 0 1.12229e-05 2.62367e-05 0 2.06541e-06 3.58535e-05 0 -1.26249e-05 3.42235e-05 0 0 -6.75173e-07 0 -3.62364e-08 -6.79976e-07 0 -7.22994e-08 -6.94506e-07 0 -1.07976e-07 -7.19128e-07 0 -1.42972e-07 -7.54467e-07 0 -1.76856e-07 -8.01422e-07 0 -2.09e-07 -8.61202e-07 0 -2.38488e-07 -9.35356e-07 0 -2.64006e-07 -1.02582e-06 0 -2.83682e-07 -1.13497e-06 0 -2.94871e-07 -1.26567e-06 0 -2.93865e-07 -1.42131e-06 0 -2.75477e-07 -1.60583e-06 0 -2.32481e-07 -1.82371e-06 0 -1.54831e-07 -2.07978e-06 0 -2.85954e-08 -2.379e-06 0 1.65516e-07 -2.72569e-06 0 4.54109e-07 -3.12253e-06 0 8.73747e-07 -3.56795e-06 0 1.47423e-06 -4.05306e-06 0 2.32273e-06 -4.55349e-06 0 3.50766e-06 -5.02074e-06 0 5.14223e-06 -5.35836e-06 0 7.3599e-06 -5.3984e-06 0 1.03002e-05 -4.83988e-06 0 1.40441e-05 -3.19054e-06 0 1.8491e-05 3.30125e-07 0 2.30132e-05 6.85109e-06 0 2.59903e-05 1.74683e-05 0 2.40922e-05 3.2744e-05 0 1.31476e-05 4.82542e-05 0 -6.37279e-06 7.31449e-05 0 0 -6.34098e-07 0 -4.59068e-08 -6.3892e-07 0 -9.19e-08 -6.53527e-07 0 -1.38037e-07 -6.78338e-07 0 -1.84312e-07 -7.1407e-07 0 -2.30617e-07 -7.61772e-07 0 -2.76687e-07 -8.22866e-07 0 -3.22025e-07 -8.99212e-07 0 -3.65805e-07 -9.93184e-07 0 -4.06722e-07 -1.10777e-06 0 -4.42791e-07 -1.24671e-06 0 -4.71056e-07 -1.41459e-06 0 -4.87165e-07 -1.61708e-06 0 -4.84776e-07 -1.86104e-06 0 -4.54685e-07 -2.15473e-06 0 -3.83569e-07 -2.50783e-06 0 -2.52204e-07 -2.93149e-06 0 -3.27781e-08 -3.43761e-06 0 3.14698e-07 -4.03828e-06 0 8.48204e-07 -4.74201e-06 0 1.6504e-06 -5.55098e-06 0 2.84138e-06 -6.44661e-06 0 4.58783e-06 -7.37821e-06 0 7.13035e-06 -8.21428e-06 0 1.07743e-05 -8.69395e-06 0 1.59326e-05 -8.27705e-06 0 2.29329e-05 -5.93733e-06 0 3.18985e-05 1.61675e-07 0 4.12845e-05 1.31953e-05 0 4.64734e-05 3.61524e-05 0 3.63315e-05 7.02679e-05 0 -3.5389e-06 7.18382e-05 0 0 -5.8342e-07 0 -5.54861e-08 -5.88125e-07 0 -1.11347e-07 -6.02395e-07 0 -1.67943e-07 -6.26681e-07 0 -2.25598e-07 -6.61766e-07 0 -2.84578e-07 -7.08801e-07 0 -3.45053e-07 -7.69364e-07 0 -4.07046e-07 -8.45544e-07 0 -4.7036e-07 -9.40054e-07 0 -5.34457e-07 -1.05638e-06 0 -5.98298e-07 -1.19896e-06 0 -6.60088e-07 -1.37347e-06 0 -7.16901e-07 -1.58708e-06 0 -7.64126e-07 -1.84892e-06 0 -7.94618e-07 -2.17048e-06 0 -7.9746e-07 -2.56637e-06 0 -7.55981e-07 -3.05464e-06 0 -6.45022e-07 -3.65813e-06 0 -4.26049e-07 -4.40363e-06 0 -4.14134e-08 -5.32433e-06 0 5.98833e-07 -6.45368e-06 0 1.62714e-06 -7.82908e-06 0 3.25834e-06 -9.46557e-06 0 5.79694e-06 -1.13531e-05 0 9.77167e-06 -1.33599e-05 0 1.5865e-05 -1.51439e-05 0 2.53755e-05 -1.58045e-05 0 3.94963e-05 -1.30989e-05 0 6.02603e-05 -2.12212e-06 0 8.31976e-05 2.8896e-05 0 8.73117e-05 8.9387e-05 0 4.29791e-05 0.000198713 0 0 -5.23376e-07 0 -6.46874e-08 -5.27818e-07 0 -1.30054e-07 -5.41299e-07 0 -1.9678e-07 -5.64285e-07 0 -2.65543e-07 -5.97584e-07 0 -3.37018e-07 -6.42387e-07 0 -4.11861e-07 -7.00348e-07 0 -4.9069e-07 -7.73674e-07 0 -5.74044e-07 -8.65271e-07 0 -6.6232e-07 -9.78925e-07 0 -7.55666e-07 -1.11956e-06 0 -8.53814e-07 -1.29356e-06 0 -9.55804e-07 -1.50928e-06 0 -1.05958e-06 -1.77752e-06 0 -1.16127e-06 -2.11261e-06 0 -1.25423e-06 -2.53305e-06 0 -1.32718e-06 -3.06383e-06 0 -1.36182e-06 -3.73668e-06 0 -1.32807e-06 -4.5959e-06 0 -1.17769e-06 -5.6952e-06 0 -8.32436e-07 -7.1133e-06 0 -1.64059e-07 -8.93661e-06 0 1.03121e-06 -1.12994e-05 0 3.11152e-06 -1.43212e-05 0 6.62106e-06 -1.81829e-05 0 1.26588e-05 -2.29565e-05 0 2.27959e-05 -2.84935e-05 0 4.09403e-05 -3.4047e-05 0 7.24794e-05 -3.49292e-05 0 0.000132577 -1.79855e-05 0 0.000220765 9.10658e-05 0 1.36276e-05 0.000350715 0 0 -4.54495e-07 0 -7.32131e-08 -4.58522e-07 0 -1.47409e-07 -4.70754e-07 0 -2.23588e-07 -4.91641e-07 0 -3.0279e-07 -5.2197e-07 0 -3.86106e-07 -5.62908e-07 0 -4.74701e-07 -6.1608e-07 0 -5.69824e-07 -6.83679e-07 0 -6.72817e-07 -7.68617e-07 0 -7.85111e-07 -8.7474e-07 0 -9.08214e-07 -1.00709e-06 0 -1.04362e-06 -1.1724e-06 0 -1.19282e-06 -1.37943e-06 0 -1.3568e-06 -1.64017e-06 0 -1.53635e-06 -1.97008e-06 0 -1.72993e-06 -2.39132e-06 0 -1.93599e-06 -2.93143e-06 0 -2.14352e-06 -3.63347e-06 0 -2.34537e-06 -4.54653e-06 0 -2.49784e-06 -5.75894e-06 0 -2.58416e-06 -7.35757e-06 0 -2.44907e-06 -9.53255e-06 0 -2.07022e-06 -1.24394e-05 0 -9.1053e-07 -1.64927e-05 0 1.02163e-06 -2.20218e-05 0 5.59125e-06 -2.98592e-05 0 1.27961e-05 -4.11463e-05 0 2.95378e-05 -5.69868e-05 0 5.90797e-05 -8.37604e-05 0 0.000137857 -0.000118456 0 0.000400933 -0.000210321 0 0.00203645 0.000267906 0 </DataArray> 
</PointData> 
<Points> 
<DataArray type="Float32" NumberOfComponents="3"> 