<?xml version="1.0"?> 
<VTKFile type="StructuredGrid" version="0.1"> 
<StructuredGrid WholeExtent="0 31 0 31 0 0"> 
<Piece Extent="0 31 0 31 0 0"> 
<PointData>
<DataArray type="Float32" Name="B" format="ascii" NumberOfComponents="3"> 
0 -4.54129e-06 0 -8.19766e-07 -4.5587e-06 0 -1.64603e-06 -4.61101e-06 0 -2.48546e-06 -4.69846e-06 0 -3.34466e-06 -4.82143e-06 0 -4.23073e-06 -4.98036e-06 0 -5.15061e-06 -5.17587e-06 0 -6.11215e-06 -5.40821e-06 0 -7.12318e-06 -5.67807e-06 0 -8.19205e-06 -5.98454e-06 0 -9.33004e-06 -6.32843e-06 0 -1.05416e-05 -6.7049e-06 0 -1.18546e-05 -7.11616e-06 0 -1.32435e-05 -7.54548e-06 0 -1.48155e-05 -8.0029e-06 0 -1.63892e-05 -8.43658e-06 0 -1.84273e-05 -8.88905e-06 0 -2.00413e-05 -9.20558e-06 0 -2.3205e-05 -9.54301e-06 0 -2.40452e-05 -9.45436e-06 0 -3.06699e-05 -9.44743e-06 0 -2.72441e-05 -8.30228e-06 0 -4.5795e-05 -7.43292e-06 0 -2.45284e-05 -3.88572e-06 0 -8.53574e-05 -6.47684e-07 0 3.28448e-06 7.45133e-06 0 -0.000206053 1.91298e-05 0 0.000118963 3.19271e-05 0 -0.000596095 8.4471e-05 0 0.000399551 6.78146e-05 0 -0.00133006 0.000557084 0 -0.0268772 -0.00288707 0 3.22081e-20 -4.26651e-06 0 -8.31002e-07 -4.28283e-06 0 -1.66859e-06 -4.33185e-06 0 -2.51938e-06 -4.4138e-06 0 -3.39016e-06 -4.52898e-06 0 -4.28784e-06 -4.67781e-06 0 -5.21964e-06 -4.86069e-06 0 -6.19304e-06 -5.07797e-06 0 -7.21601e-06 -5.32972e-06 0 -8.29704e-06 -5.61571e-06 0 -9.44498e-06 -5.93475e-06 0 -1.06708e-05 -6.28496e-06 0 -1.19829e-05 -6.6617e-06 0 -1.34005e-05 -7.05962e-06 0 -1.49236e-05 -7.46523e-06 0 -1.6603e-05 -7.86698e-06 0 -1.83905e-05 -8.22873e-06 0 -2.04673e-05 -8.53071e-06 0 -2.25617e-05 -8.67683e-06 0 -2.53808e-05 -8.6455e-06 0 -2.77132e-05 -8.18055e-06 0 -3.23307e-05 -7.29101e-06 0 -3.42888e-05 -5.31471e-06 0 -4.42148e-05 -2.32319e-06 0 -4.30154e-05 3.18623e-06 0 -7.02587e-05 1.17109e-05 0 -5.56554e-05 2.52852e-05 0 -0.000142089 5.20925e-05 0 -8.65865e-05 8.69599e-05 0 -0.00038487 0.000215131 0 -0.000513755 0.000430221 0 0.00176446 0.00515154 0 2.47987e-20 -3.9881e-06 0 -8.41521e-07 -4.00332e-06 0 -1.68966e-06 -4.04904e-06 0 -2.55111e-06 -4.12545e-06 0 -3.43264e-06 -4.23281e-06 0 -4.34121e-06 -4.37146e-06 0 -5.284e-06 -4.54173e-06 0 -6.26847e-06 -4.74382e-06 0 -7.30245e-06 -4.97772e-06 0 -8.3942e-06 -5.2429e-06 0 -9.55257e-06 -5.53818e-06 0 -1.07869e-05 -5.86089e-06 0 -1.2108e-05 -6.20707e-06 0 -1.35265e-05 -6.56865e-06 0 -1.50573e-05 -6.93572e-06 0 -1.67122e-05 -7.28722e-06 0 -1.85179e-05 -7.6013e-06 0 -2.04838e-05 -7.82516e-06 0 -2.2674e-05 -7.91447e-06 0 -2.50802e-05 -7.73729e-06 0 -2.78863e-05 -7.20777e-06 0 -3.10181e-05 -5.99579e-06 0 -3.50263e-05 -3.92435e-06 0 -3.96621e-05 -1.8017e-07 0 -4.65237e-05 5.74718e-06 0 -5.51724e-05 1.5787e-05 0 -6.99259e-05 3.23942e-05 0 -9.20095e-05 6.03893e-05 0 -0.000132487 0.000117223 0 -0.000210474 0.00023118 0 -0.00031091 0.000681668 0 0.00140688 0.0020324 0 0 -3.70631e-06 0 -8.51302e-07 -3.72043e-06 0 -1.70927e-06 -3.76282e-06 0 -2.5806e-06 -3.83365e-06 0 -3.47212e-06 -3.93316e-06 0 -4.39078e-06 -4.0616e-06 0 -5.34374e-06 -4.21922e-06 0 -6.3384e-06 -4.40614e-06 0 -7.38247e-06 -4.62221e-06 0 -8.48402e-06 -4.86678e-06 0 -9.65154e-06 -5.13844e-06 0 -1.0894e-05 -5.43442e-06 0 -1.2221e-05 -5.7502e-06 0 -1.36428e-05 -6.07794e-06 0 -1.51711e-05 -6.40606e-06 0 -1.68177e-05 -6.71484e-06 0 -1.86001e-05 -6.97736e-06 0 -2.05318e-05 -7.14586e-06 0 -2.26487e-05 -7.16014e-06 0 -2.49623e-05 -6.90468e-06 0 -2.75782e-05 -6.24573e-06 0 -3.04768e-05 -4.89913e-06 0 -3.40286e-05 -2.55415e-06 0 -3.80401e-05 1.50071e-06 0 -4.38708e-05 8.10801e-06 0 -5.054e-05 1.90875e-05 0 -6.29875e-05 3.75865e-05 0 -7.70104e-05 6.89308e-05 0 -0.000109036 0.000131313 0 -0.000135696 0.000256149 0 -9.13114e-05 0.000630773 0 0.000860029 0.000920942 0 4.04752e-22 -3.42139e-06 0 -8.60344e-07 -3.43439e-06 0 -1.72738e-06 -3.47344e-06 0 -2.60785e-06 -3.53868e-06 0 -3.50859e-06 -3.63029e-06 0 -4.43654e-06 -3.74849e-06 0 -5.39884e-06 -3.89345e-06 0 -6.40284e-06 -4.06522e-06 0 -7.45611e-06 -4.26352e-06 0 -8.56652e-06 -4.48764e-06 0 -9.7422e-06 -4.73597e-06 0 -1.09916e-05 -5.00572e-06 0 -1.23236e-05 -5.29197e-06 0 -1.37471e-05 -5.5871e-06 0 -1.5272e-05 -5.87845e-06 0 -1.69079e-05 -6.14746e-06 0 -1.86664e-05 -6.36358e-06 0 -2.05585e-05 -6.48348e-06 0 -2.26026e-05 -6.43487e-06 0 -2.48116e-05 -6.11683e-06 0 -2.72339e-05 -5.35711e-06 0 -2.98828e-05 -3.91412e-06 0 -3.29287e-05 -1.36573e-06 0 -3.63546e-05 2.90057e-06 0 -4.08098e-05 9.99023e-06 0 -4.60054e-05 2.16295e-05 0 -5.42973e-05 4.12303e-05 0 -6.33717e-05 7.48605e-05 0 -7.90468e-05 0.000137499 0 -7.43408e-05 0.000261686 0 4.22808e-05 0.000516863 0 0.000600918 0.000556539 0 2.82893e-20 -3.13358e-06 0 -8.68643e-07 -3.14546e-06 0 -1.74401e-06 -3.18116e-06 0 -2.63286e-06 -3.24077e-06 0 -3.54203e-06 -3.32446e-06 0 -4.47849e-06 -3.4324e-06 0 -5.44932e-06 -3.56471e-06 0 -6.46181e-06 -3.72134e-06 0 -7.52341e-06 -3.90197e-06 0 -8.64176e-06 -4.10578e-06 0 -9.82467e-06 -4.33113e-06 0 -1.10801e-05 -4.57509e-06 0 -1.2416e-05 -4.8328e-06 0 -1.38402e-05 -5.09643e-06 0 -1.53606e-05 -5.35357e-06 0 -1.69844e-05 -5.58515e-06 0 -1.8718e-05 -5.7614e-06 0 -2.05682e-05 -5.83738e-06 0 -2.25384e-05 -5.74254e-06 0 -2.46371e-05 -5.37101e-06 0 -2.68652e-05 -4.55309e-06 0 -2.92455e-05 -3.03321e-06 0 -3.17853e-05 -3.89085e-07 0 -3.45666e-05 4.02937e-06 0 -3.76399e-05 1.13365e-05 0 -4.1209e-05 2.33552e-05 0 -4.5315e-05 4.33906e-05 0 -4.93834e-05 7.75706e-05 0 -4.96388e-05 0.000138054 0 -2.35373e-05 0.000248679 0 0.000116762 0.000416746 0 0.000481511 0.000396317 0 1.31384e-20 -2.84312e-06 0 -8.76195e-07 -2.85389e-06 0 -1.75914e-06 -2.88621e-06 0 -2.6556e-06 -2.94019e-06 0 -3.57244e-06 -3.01595e-06 0 -4.51661e-06 -3.11361e-06 0 -5.49517e-06 -3.23325e-06 0 -6.51533e-06 -3.37479e-06 0 -7.5844e-06 -3.53783e-06 0 -8.70983e-06 -3.72152e-06 0 -9.89909e-06 -3.92419e-06 0 -1.11596e-05 -4.14292e-06 0 -1.24985e-05 -4.37291e-06 0 -1.39226e-05 -4.60644e-06 0 -1.54377e-05 -4.83136e-06 0 -1.70485e-05 -5.02892e-06 0 -1.87571e-05 -5.16996e-06 0 -2.05635e-05 -5.21012e-06 0 -2.24622e-05 -5.08001e-06 0 -2.4444e-05 -4.67429e-06 0 -2.64884e-05 -3.82502e-06 0 -2.85733e-05 -2.27528e-06 0 -3.06496e-05 3.9522e-07 0 -3.26808e-05 4.84359e-06 0 -3.45408e-05 1.21758e-05 0 -3.61122e-05 2.4206e-05 0 -3.67481e-05 4.40719e-05 0 -3.48995e-05 7.73675e-05 0 -2.39235e-05 0.000133469 0 1.83588e-05 0.000226193 0 0.000155519 0.000335504 0 0.000407154 0.000301295 0 0 -2.55028e-06 0 -8.82998e-07 -2.55992e-06 0 -1.77276e-06 -2.58886e-06 0 -2.67608e-06 -2.63719e-06 0 -3.59982e-06 -2.70499e-06 0 -4.55092e-06 -2.79238e-06 0 -5.5364e-06 -2.89937e-06 0 -6.56341e-06 -3.02584e-06 0 -7.63913e-06 -3.17139e-06 0 -8.77081e-06 -3.33514e-06 0 -9.96559e-06 -3.51544e-06 0 -1.12304e-05 -3.70947e-06 0 -1.25716e-05 -3.91258e-06 0 -1.39949e-05 -4.11734e-06 0 -1.55043e-05 -4.3121e-06 0 -1.71016e-05 -4.47879e-06 0 -1.87853e-05 -4.58953e-06 0 -2.05486e-05 -4.60129e-06 0 -2.23765e-05 -4.44769e-06 0 -2.42439e-05 -4.02557e-06 0 -2.61069e-05 -3.17376e-06 0 -2.79021e-05 -1.63852e-06 0 -2.95191e-05 9.84927e-07 0 -3.0811e-05 5.34613e-06 0 -3.14779e-05 1.25048e-05 0 -3.10912e-05 2.42061e-05 0 -2.84625e-05 4.33198e-05 0 -2.11979e-05 7.46266e-05 0 -1.42305e-06 0.000124873 0 5.03924e-05 0.00019965 0 0.000175862 0.000271147 0 0.000364243 0.000240203 0 0 -2.25529e-06 0 -8.8905e-07 -2.2638e-06 0 -1.78488e-06 -2.28936e-06 0 -2.6943e-06 -2.33202e-06 0 -3.62417e-06 -2.39186e-06 0 -4.58141e-06 -2.46896e-06 0 -5.57302e-06 -2.56331e-06 0 -6.60607e-06 -2.67477e-06 0 -7.68765e-06 -2.80292e-06 0 -8.82478e-06 -2.94691e-06 0 -1.00243e-05 -3.10516e-06 0 -1.12927e-05 -3.27499e-06 0 -1.26356e-05 -3.45202e-06 0 -1.40576e-05 -3.62928e-06 0 -1.5561e-05 -3.79584e-06 0 -1.71452e-05 -3.93474e-06 0 -1.88046e-05 -4.0198e-06 0 -2.05263e-05 -4.01057e-06 0 -2.22863e-05 -3.84444e-06 0 -2.40439e-05 -3.42394e-06 0 -2.57329e-05 -2.59648e-06 0 -2.72491e-05 -1.12092e-06 0 -2.8426e-05 1.38668e-06 0 -2.90035e-05 5.54296e-06 0 -2.85382e-05 1.23429e-05 0 -2.62817e-05 2.33965e-05 0 -2.07007e-05 4.12484e-05 0 -8.6602e-06 6.97643e-05 0 1.75897e-05 0.000113391 0 7.4426e-05 0.000172253 0 0.000186228 0.00021937 0 0.000331656 0.000190203 0 0 -1.95841e-06 0 -8.94348e-07 -1.96579e-06 0 -1.79549e-06 -1.98795e-06 0 -2.71024e-06 -2.02494e-06 0 -3.64547e-06 -2.07682e-06 0 -4.60807e-06 -2.14363e-06 0 -5.60503e-06 -2.22535e-06 0 -6.64335e-06 -2.32184e-06 0 -7.72999e-06 -2.43268e-06 0 -8.87181e-06 -2.55708e-06 0 -1.00754e-05 -2.69357e-06 0 -1.13467e-05 -2.83968e-06 0 -1.26908e-05 -2.9914e-06 0 -1.41112e-05 -3.14236e-06 0 -1.56087e-05 -3.28256e-06 0 -1.71803e-05 -3.39653e-06 0 -1.88168e-05 -3.46033e-06 0 -2.04997e-05 -3.43691e-06 0 -2.21961e-05 -3.26889e-06 0 -2.38514e-05 -2.86665e-06 0 -2.53772e-05 -2.08974e-06 0 -2.66334e-05 -7.15722e-07 0 -2.73965e-05 1.60914e-06 0 -2.7311e-05 5.45193e-06 0 -2.57868e-05 1.17183e-05 0 -2.18325e-05 2.18444e-05 0 -1.36055e-05 3.80057e-05 0 2.37858e-06 6.31927e-05 0 3.33609e-05 0.000100001 0 9.20082e-05 0.000145538 0 0.000191344 0.00017664 0 0.000309784 0.000152578 0 0 -1.6599e-06 0 -8.98893e-07 -1.66614e-06 0 -1.80459e-06 -1.6849e-06 0 -2.72391e-06 -1.71621e-06 0 -3.66372e-06 -1.76011e-06 0 -4.63092e-06 -1.81663e-06 0 -5.63245e-06 -1.88575e-06 0 -6.67525e-06 -1.96731e-06 0 -7.76619e-06 -2.06093e-06 0 -8.91197e-06 -2.16589e-06 0 -1.01189e-05 -2.28089e-06 0 -1.13926e-05 -2.40372e-06 0 -1.27375e-05 -2.53083e-06 0 -1.41561e-05 -2.65657e-06 0 -1.56481e-05 -2.77211e-06 0 -1.72081e-05 -2.86377e-06 0 -1.88237e-05 -2.91034e-06 0 -2.04713e-05 -2.87901e-06 0 -2.21101e-05 -2.71883e-06 0 -2.36727e-05 -2.35018e-06 0 -2.50507e-05 -1.64798e-06 0 -2.60712e-05 -4.14108e-07 0 -2.64594e-05 1.66648e-06 0 -2.57739e-05 5.09676e-06 0 -2.32986e-05 1.0673e-05 0 -1.78394e-05 1.96304e-05 0 -7.34196e-06 3.37629e-05 0 1.18282e-05 5.52845e-05 0 4.60775e-05 8.54571e-05 0 0.000104794 0.000120082 0 0.000193588 0.000140664 0 0.000291984 0.000120023 0 0 -1.35999e-06 0 -9.02681e-07 -1.36511e-06 0 -1.81217e-06 -1.38046e-06 0 -2.73531e-06 -1.40608e-06 0 -3.67894e-06 -1.442e-06 0 -4.64996e-06 -1.48824e-06 0 -5.65529e-06 -1.54476e-06 0 -6.7018e-06 -1.61143e-06 0 -7.7963e-06 -1.68792e-06 0 -8.94533e-06 -1.77359e-06 0 -1.0155e-05 -1.86733e-06 0 -1.14305e-05 -1.96726e-06 0 -1.27759e-05 -2.07037e-06 0 -1.41929e-05 -2.17186e-06 0 -1.56798e-05 -2.26424e-06 0 -1.72296e-05 -2.33589e-06 0 -1.88269e-05 -2.36881e-06 0 -2.04437e-05 -2.33513e-06 0 -2.20321e-05 -2.19148e-06 0 -2.35138e-05 -1.87004e-06 0 -2.47628e-05 -1.26411e-06 0 -2.55778e-05 -2.04704e-07 0 -2.56383e-05 1.57685e-06 0 -2.44318e-05 4.50758e-06 0 -2.11317e-05 9.25795e-06 0 -1.4394e-05 1.68468e-05 0 -2.00715e-06 2.86938e-05 0 1.96299e-05 4.63692e-05 0 5.60853e-05 7.02666e-05 0 0.000113934 9.60337e-05 0 0.000194341 0.000109522 0 0.000279438 9.32071e-05 0 0 -1.05895e-06 0 -9.05712e-07 -1.06293e-06 0 -1.81824e-06 -1.07487e-06 0 -2.74442e-06 -1.0948e-06 0 -3.69111e-06 -1.12274e-06 0 -4.66519e-06 -1.1587e-06 0 -5.67354e-06 -1.20265e-06 0 -6.72302e-06 -1.25446e-06 0 -7.82034e-06 -1.31388e-06 0 -8.97194e-06 -1.38038e-06 0 -1.01837e-05 -1.45306e-06 0 -1.14607e-05 -1.53044e-06 0 -1.28064e-05 -1.61007e-06 0 -1.42219e-05 -1.68812e-06 0 -1.57045e-05 -1.7586e-06 0 -1.72457e-05 -1.81221e-06 0 -1.88277e-05 -1.83453e-06 0 -2.04189e-05 -1.80322e-06 0 -2.19655e-05 -1.68348e-06 0 -2.33801e-05 -1.42087e-06 0 -2.45219e-05 -9.29631e-07 0 -2.51662e-05 -7.39255e-08 0 -2.49551e-05 1.36199e-06 0 -2.33169e-05 3.71985e-06 0 -1.93388e-05 7.53195e-06 0 -1.1561e-05 1.3593e-05 0 2.31889e-06 2.29689e-05 0 2.58079e-05 3.67186e-05 0 6.36677e-05 5.47631e-05 0 0.000120368 7.32654e-05 0 0.000194347 8.19575e-05 0 0.000269586 6.92854e-05 0 -9.4594e-22 -7.57024e-07 0 -9.07987e-07 -7.59867e-07 0 -1.8228e-06 -7.68401e-07 0 -2.75126e-06 -7.82639e-07 0 -3.70024e-06 -8.02597e-07 0 -4.6766e-06 -8.28279e-07 0 -5.68723e-06 -8.5966e-07 0 -6.73892e-06 -8.96648e-07 0 -7.83835e-06 -9.39045e-07 0 -8.99186e-06 -9.86473e-07 0 -1.02052e-05 -1.03827e-06 0 -1.14832e-05 -1.09334e-06 0 -1.28291e-05 -1.14992e-06 0 -1.42434e-05 -1.20519e-06 0 -1.57226e-05 -1.25479e-06 0 -1.72571e-05 -1.29193e-06 0 -1.88273e-05 -1.30608e-06 0 -2.03987e-05 -1.28093e-06 0 -2.19131e-05 -1.19105e-06 0 -2.32759e-05 -9.966e-07 0 -2.4335e-05 -6.34833e-07 0 -2.48476e-05 -6.34665e-09 0 -2.44268e-05 1.04664e-06 0 -2.24568e-05 2.77326e-06 0 -1.7959e-05 5.55918e-06 0 -9.39445e-06 9.97183e-06 0 5.59438e-06 1.67487e-05 0 3.03878e-05 2.65554e-05 0 6.91107e-05 3.91342e-05 0 0.000124703 5.15568e-05 0 0.00019407 5.6886e-05 0 0.000262919 4.80267e-05 0 -4.82866e-21 -4.54467e-07 0 -9.09503e-07 -4.56173e-07 0 -1.82583e-06 -4.61294e-07 0 -2.75582e-06 -4.69837e-07 0 -3.70632e-06 -4.81812e-07 0 -4.68421e-06 -4.97221e-07 0 -5.69635e-06 -5.16045e-07 0 -6.74952e-06 -5.38229e-07 0 -7.85035e-06 -5.63651e-07 0 -9.00512e-06 -5.92078e-07 0 -1.02195e-05 -6.23109e-07 0 -1.14982e-05 -6.56073e-07 0 -1.28441e-05 -6.89893e-07 0 -1.42575e-05 -7.22863e-07 0 -1.57345e-05 -7.52322e-07 0 -1.72644e-05 -7.74139e-07 0 -1.88266e-05 -7.8191e-07 0 -2.03845e-05 -7.65693e-07 0 -2.18769e-05 -7.09997e-07 0 -2.32045e-05 -5.90548e-07 0 -2.42073e-05 -3.69085e-07 0 -2.46303e-05 1.49999e-08 0 -2.40671e-05 6.57831e-07 0 -2.18717e-05 1.71091e-06 0 -1.70228e-05 3.40766e-06 0 -7.93006e-06 6.0881e-06 0 7.78912e-06 1.01842e-05 0 3.34147e-05 1.60578e-05 0 7.26165e-05 2.34767e-05 0 0.000127383 3.06203e-05 0 0.000193763 3.34971e-05 0 0.000258473 2.8186e-05 0 -2.8682e-22 -1.51531e-07 0 -9.10261e-07 -1.521e-07 0 -1.82735e-06 -1.53807e-07 0 -2.7581e-06 -1.56655e-07 0 -3.70937e-06 -1.60647e-07 0 -4.68802e-06 -1.65783e-07 0 -5.70091e-06 -1.72057e-07 0 -6.75481e-06 -1.7945e-07 0 -7.85634e-06 -1.87921e-07 0 -9.01175e-06 -1.97392e-07 0 -1.02267e-05 -2.07727e-07 0 -1.15057e-05 -2.18702e-07 0 -1.28516e-05 -2.29954e-07 0 -1.42646e-05 -2.40912e-07 0 -1.57403e-05 -2.50681e-07 0 -1.72679e-05 -2.57876e-07 0 -1.8826e-05 -2.60344e-07 0 -2.03771e-05 -2.5475e-07 0 -2.18585e-05 -2.35888e-07 0 -2.31682e-05 -1.95606e-07 0 -2.41426e-05 -1.21044e-07 0 -2.45202e-05 8.15581e-09 0 -2.3885e-05 2.24287e-07 0 -2.15757e-05 5.78173e-07 0 -1.65497e-05 1.14796e-06 0 -7.19231e-06 2.04686e-06 0 8.89e-06 3.41701e-06 0 3.49184e-05 5.37274e-06 0 7.43344e-05 7.82375e-06 0 0.000128658 1.01546e-05 0 0.000193578 1.10604e-05 0 0.000256373 9.31718e-06 0 0 1.51531e-07 0 -9.10261e-07 1.521e-07 0 -1.82735e-06 1.53807e-07 0 -2.7581e-06 1.56655e-07 0 -3.70937e-06 1.60647e-07 0 -4.68802e-06 1.65783e-07 0 -5.70091e-06 1.72057e-07 0 -6.75481e-06 1.7945e-07 0 -7.85634e-06 1.87921e-07 0 -9.01175e-06 1.97392e-07 0 -1.02267e-05 2.07727e-07 0 -1.15057e-05 2.18702e-07 0 -1.28516e-05 2.29954e-07 0 -1.42646e-05 2.40912e-07 0 -1.57403e-05 2.50681e-07 0 -1.72679e-05 2.57876e-07 0 -1.8826e-05 2.60344e-07 0 -2.03771e-05 2.5475e-07 0 -2.18585e-05 2.35888e-07 0 -2.31682e-05 1.95606e-07 0 -2.41426e-05 1.21044e-07 0 -2.45202e-05 -8.15581e-09 0 -2.3885e-05 -2.24287e-07 0 -2.15757e-05 -5.78173e-07 0 -1.65497e-05 -1.14796e-06 0 -7.19231e-06 -2.04686e-06 0 8.89e-06 -3.41701e-06 0 3.49184e-05 -5.37274e-06 0 7.43344e-05 -7.82375e-06 0 0.000128658 -1.01546e-05 0 0.000193578 -1.10604e-05 0 0.000256373 -9.31718e-06 0 0 4.54467e-07 0 -9.09503e-07 4.56173e-07 0 -1.82583e-06 4.61294e-07 0 -2.75582e-06 4.69837e-07 0 -3.70632e-06 4.81812e-07 0 -4.68421e-06 4.97221e-07 0 -5.69635e-06 5.16045e-07 0 -6.74952e-06 5.38229e-07 0 -7.85035e-06 5.63651e-07 0 -9.00512e-06 5.92078e-07 0 -1.02195e-05 6.23109e-07 0 -1.14982e-05 6.56073e-07 0 -1.28441e-05 6.89893e-07 0 -1.42575e-05 7.22863e-07 0 -1.57345e-05 7.52322e-07 0 -1.72644e-05 7.74139e-07 0 -1.88266e-05 7.8191e-07 0 -2.03845e-05 7.65693e-07 0 -2.18769e-05 7.09997e-07 0 -2.32045e-05 5.90548e-07 0 -2.42073e-05 3.69085e-07 0 -2.46303e-05 -1.49999e-08 0 -2.40671e-05 -6.57831e-07 0 -2.18717e-05 -1.71091e-06 0 -1.70228e-05 -3.40766e-06 0 -7.93006e-06 -6.0881e-06 0 7.78912e-06 -1.01842e-05 0 3.34147e-05 -1.60578e-05 0 7.26165e-05 -2.34767e-05 0 0.000127383 -3.06203e-05 0 0.000193763 -3.34971e-05 0 0.000258473 -2.8186e-05 0 1.81352e-21 7.57024e-07 0 -9.07987e-07 7.59867e-07 0 -1.8228e-06 7.68401e-07 0 -2.75126e-06 7.82639e-07 0 -3.70024e-06 8.02597e-07 0 -4.6766e-06 8.28279e-07 0 -5.68723e-06 8.5966e-07 0 -6.73892e-06 8.96648e-07 0 -7.83835e-06 9.39045e-07 0 -8.99186e-06 9.86473e-07 0 -1.02052e-05 1.03827e-06 0 -1.14832e-05 1.09334e-06 0 -1.28291e-05 1.14992e-06 0 -1.42434e-05 1.20519e-06 0 -1.57226e-05 1.25479e-06 0 -1.72571e-05 1.29193e-06 0 -1.88273e-05 1.30608e-06 0 -2.03987e-05 1.28093e-06 0 -2.19131e-05 1.19105e-06 0 -2.32759e-05 9.966e-07 0 -2.4335e-05 6.34833e-07 0 -2.48476e-05 6.34665e-09 0 -2.44268e-05 -1.04664e-06 0 -2.24568e-05 -2.77326e-06 0 -1.7959e-05 -5.55918e-06 0 -9.39445e-06 -9.97183e-06 0 5.59438e-06 -1.67487e-05 0 3.03878e-05 -2.65554e-05 0 6.91107e-05 -3.91342e-05 0 0.000124703 -5.15568e-05 0 0.00019407 -5.6886e-05 0 0.000262919 -4.80267e-05 0 1.10946e-20 1.05895e-06 0 -9.05712e-07 1.06293e-06 0 -1.81824e-06 1.07487e-06 0 -2.74442e-06 1.0948e-06 0 -3.69111e-06 1.12274e-06 0 -4.66519e-06 1.1587e-06 0 -5.67354e-06 1.20265e-06 0 -6.72302e-06 1.25446e-06 0 -7.82034e-06 1.31388e-06 0 -8.97194e-06 1.38038e-06 0 -1.01837e-05 1.45306e-06 0 -1.14607e-05 1.53044e-06 0 -1.28064e-05 1.61007e-06 0 -1.42219e-05 1.68812e-06 0 -1.57045e-05 1.7586e-06 0 -1.72457e-05 1.81221e-06 0 -1.88277e-05 1.83453e-06 0 -2.04189e-05 1.80322e-06 0 -2.19655e-05 1.68348e-06 0 -2.33801e-05 1.42087e-06 0 -2.45219e-05 9.29631e-07 0 -2.51662e-05 7.39255e-08 0 -2.49551e-05 -1.36199e-06 0 -2.33169e-05 -3.71985e-06 0 -1.93388e-05 -7.53195e-06 0 -1.1561e-05 -1.3593e-05 0 2.31889e-06 -2.29689e-05 0 2.58079e-05 -3.67186e-05 0 6.36677e-05 -5.47631e-05 0 0.000120368 -7.32654e-05 0 0.000194347 -8.19575e-05 0 0.000269586 -6.92854e-05 0 1.21671e-21 1.35999e-06 0 -9.02681e-07 1.36511e-06 0 -1.81217e-06 1.38046e-06 0 -2.73531e-06 1.40608e-06 0 -3.67894e-06 1.442e-06 0 -4.64996e-06 1.48824e-06 0 -5.65529e-06 1.54476e-06 0 -6.7018e-06 1.61143e-06 0 -7.7963e-06 1.68792e-06 0 -8.94533e-06 1.77359e-06 0 -1.0155e-05 1.86733e-06 0 -1.14305e-05 1.96726e-06 0 -1.27759e-05 2.07037e-06 0 -1.41929e-05 2.17186e-06 0 -1.56798e-05 2.26424e-06 0 -1.72296e-05 2.33589e-06 0 -1.88269e-05 2.36881e-06 0 -2.04437e-05 2.33513e-06 0 -2.20321e-05 2.19148e-06 0 -2.35138e-05 1.87004e-06 0 -2.47628e-05 1.26411e-06 0 -2.55778e-05 2.04704e-07 0 -2.56383e-05 -1.57685e-06 0 -2.44318e-05 -4.50758e-06 0 -2.11317e-05 -9.25795e-06 0 -1.4394e-05 -1.68468e-05 0 -2.00715e-06 -2.86938e-05 0 1.96299e-05 -4.63692e-05 0 5.60853e-05 -7.02666e-05 0 0.000113934 -9.60337e-05 0 0.000194341 -0.000109522 0 0.000279438 -9.32071e-05 0 0 1.6599e-06 0 -8.98893e-07 1.66614e-06 0 -1.80459e-06 1.6849e-06 0 -2.72391e-06 1.71621e-06 0 -3.66372e-06 1.76011e-06 0 -4.63092e-06 1.81663e-06 0 -5.63245e-06 1.88575e-06 0 -6.67525e-06 1.96731e-06 0 -7.76619e-06 2.06093e-06 0 -8.91197e-06 2.16589e-06 0 -1.01189e-05 2.28089e-06 0 -1.13926e-05 2.40372e-06 0 -1.27375e-05 2.53083e-06 0 -1.41561e-05 2.65657e-06 0 -1.56481e-05 2.77211e-06 0 -1.72081e-05 2.86377e-06 0 -1.88237e-05 2.91034e-06 0 -2.04713e-05 2.87901e-06 0 -2.21101e-05 2.71883e-06 0 -2.36727e-05 2.35018e-06 0 -2.50507e-05 1.64798e-06 0 -2.60712e-05 4.14108e-07 0 -2.64594e-05 -1.66648e-06 0 -2.57739e-05 -5.09676e-06 0 -2.32986e-05 -1.0673e-05 0 -1.78394e-05 -1.96304e-05 0 -7.34196e-06 -3.37629e-05 0 1.18282e-05 -5.52845e-05 0 4.60775e-05 -8.54571e-05 0 0.000104794 -0.000120082 0 0.000193588 -0.000140664 0 0.000291984 -0.000120023 0 0 1.95841e-06 0 -8.94348e-07 1.96579e-06 0 -1.79549e-06 1.98795e-06 0 -2.71024e-06 2.02494e-06 0 -3.64547e-06 2.07682e-06 0 -4.60807e-06 2.14363e-06 0 -5.60503e-06 2.22535e-06 0 -6.64335e-06 2.32184e-06 0 -7.72999e-06 2.43268e-06 0 -8.87181e-06 2.55708e-06 0 -1.00754e-05 2.69357e-06 0 -1.13467e-05 2.83968e-06 0 -1.26908e-05 2.9914e-06 0 -1.41112e-05 3.14236e-06 0 -1.56087e-05 3.28256e-06 0 -1.71803e-05 3.39653e-06 0 -1.88168e-05 3.46033e-06 0 -2.04997e-05 3.43691e-06 0 -2.21961e-05 3.26889e-06 0 -2.38514e-05 2.86665e-06 0 -2.53772e-05 2.08974e-06 0 -2.66334e-05 7.15722e-07 0 -2.73965e-05 -1.60914e-06 0 -2.7311e-05 -5.45193e-06 0 -2.57868e-05 -1.17183e-05 0 -2.18325e-05 -2.18444e-05 0 -1.36055e-05 -3.80057e-05 0 2.37858e-06 -6.31927e-05 0 3.33609e-05 -0.000100001 0 9.20082e-05 -0.000145538 0 0.000191344 -0.00017664 0 0.000309784 -0.000152578 0 0 2.25529e-06 0 -8.8905e-07 2.2638e-06 0 -1.78488e-06 2.28936e-06 0 -2.6943e-06 2.33202e-06 0 -3.62417e-06 2.39186e-06 0 -4.58141e-06 2.46896e-06 0 -5.57302e-06 2.56331e-06 0 -6.60607e-06 2.67477e-06 0 -7.68765e-06 2.80292e-06 0 -8.82478e-06 2.94691e-06 0 -1.00243e-05 3.10516e-06 0 -1.12927e-05 3.27499e-06 0 -1.26356e-05 3.45202e-06 0 -1.40576e-05 3.62928e-06 0 -1.5561e-05 3.79584e-06 0 -1.71452e-05 3.93474e-06 0 -1.88046e-05 4.0198e-06 0 -2.05263e-05 4.01057e-06 0 -2.22863e-05 3.84444e-06 0 -2.40439e-05 3.42394e-06 0 -2.57329e-05 2.59648e-06 0 -2.72491e-05 1.12092e-06 0 -2.8426e-05 -1.38668e-06 0 -2.90035e-05 -5.54296e-06 0 -2.85382e-05 -1.23429e-05 0 -2.62817e-05 -2.33965e-05 0 -2.07007e-05 -4.12484e-05 0 -8.6602e-06 -6.97643e-05 0 1.75897e-05 -0.000113391 0 7.4426e-05 -0.000172253 0 0.000186228 -0.00021937 0 0.000331656 -0.000190203 0 0 2.55028e-06 0 -8.82998e-07 2.55992e-06 0 -1.77276e-06 2.58886e-06 0 -2.67608e-06 2.63719e-06 0 -3.59982e-06 2.70499e-06 0 -4.55092e-06 2.79238e-06 0 -5.5364e-06 2.89937e-06 0 -6.56341e-06 3.02584e-06 0 -7.63913e-06 3.17139e-06 0 -8.77081e-06 3.33514e-06 0 -9.96559e-06 3.51544e-06 0 -1.12304e-05 3.70947e-06 0 -1.25716e-05 3.91258e-06 0 -1.39949e-05 4.11734e-06 0 -1.55043e-05 4.3121e-06 0 -1.71016e-05 4.47879e-06 0 -1.87853e-05 4.58953e-06 0 -2.05486e-05 4.60129e-06 0 -2.23765e-05 4.44769e-06 0 -2.42439e-05 4.02557e-06 0 -2.61069e-05 3.17376e-06 0 -2.79021e-05 1.63852e-06 0 -2.95191e-05 -9.84927e-07 0 -3.0811e-05 -5.34613e-06 0 -3.14779e-05 -1.25048e-05 0 -3.10912e-05 -2.42061e-05 0 -2.84625e-05 -4.33198e-05 0 -2.11979e-05 -7.46266e-05 0 -1.42305e-06 -0.000124873 0 5.03924e-05 -0.00019965 0 0.000175862 -0.000271147 0 0.000364243 -0.000240203 0 0 2.84312e-06 0 -8.76195e-07 2.85389e-06 0 -1.75914e-06 2.88621e-06 0 -2.6556e-06 2.94019e-06 0 -3.57244e-06 3.01595e-06 0 -4.51661e-06 3.11361e-06 0 -5.49517e-06 3.23325e-06 0 -6.51533e-06 3.37479e-06 0 -7.5844e-06 3.53783e-06 0 -8.70983e-06 3.72152e-06 0 -9.89909e-06 3.92419e-06 0 -1.11596e-05 4.14292e-06 0 -1.24985e-05 4.37291e-06 0 -1.39226e-05 4.60644e-06 0 -1.54377e-05 4.83136e-06 0 -1.70485e-05 5.02892e-06 0 -1.87571e-05 5.16996e-06 0 -2.05635e-05 5.21012e-06 0 -2.24622e-05 5.08001e-06 0 -2.4444e-05 4.67429e-06 0 -2.64884e-05 3.82502e-06 0 -2.85733e-05 2.27528e-06 0 -3.06496e-05 -3.9522e-07 0 -3.26808e-05 -4.84359e-06 0 -3.45408e-05 -1.21758e-05 0 -3.61122e-05 -2.4206e-05 0 -3.67481e-05 -4.40719e-05 0 -3.48995e-05 -7.73675e-05 0 -2.39235e-05 -0.000133469 0 1.83588e-05 -0.000226193 0 0.000155519 -0.000335504 0 0.000407154 -0.000301295 0 0 3.13358e-06 0 -8.68643e-07 3.14546e-06 0 -1.74401e-06 3.18116e-06 0 -2.63286e-06 3.24077e-06 0 -3.54203e-06 3.32446e-06 0 -4.47849e-06 3.4324e-06 0 -5.44932e-06 3.56471e-06 0 -6.46181e-06 3.72134e-06 0 -7.52341e-06 3.90197e-06 0 -8.64176e-06 4.10578e-06 0 -9.82467e-06 4.33113e-06 0 -1.10801e-05 4.57509e-06 0 -1.2416e-05 4.8328e-06 0 -1.38402e-05 5.09643e-06 0 -1.53606e-05 5.35357e-06 0 -1.69844e-05 5.58515e-06 0 -1.8718e-05 5.7614e-06 0 -2.05682e-05 5.83738e-06 0 -2.25384e-05 5.74254e-06 0 -2.46371e-05 5.37101e-06 0 -2.68652e-05 4.55309e-06 0 -2.92455e-05 3.03321e-06 0 -3.17853e-05 3.89085e-07 0 -3.45666e-05 -4.02937e-06 0 -3.76399e-05 -1.13365e-05 0 -4.1209e-05 -2.33552e-05 0 -4.5315e-05 -4.33906e-05 0 -4.93834e-05 -7.75706e-05 0 -4.96388e-05 -0.000138054 0 -2.35373e-05 -0.000248679 0 0.000116762 -0.000416746 0 0.000481511 -0.000396317 0 0 3.42139e-06 0 -8.60344e-07 3.43439e-06 0 -1.72738e-06 3.47344e-06 0 -2.60785e-06 3.53868e-06 0 -3.50859e-06 3.63029e-06 0 -4.43654e-06 3.74849e-06 0 -5.39884e-06 3.89345e-06 0 -6.40284e-06 4.06522e-06 0 -7.45611e-06 4.26352e-06 0 -8.56652e-06 4.48764e-06 0 -9.7422e-06 4.73597e-06 0 -1.09916e-05 5.00572e-06 0 -1.23236e-05 5.29197e-06 0 -1.37471e-05 5.5871e-06 0 -1.5272e-05 5.87845e-06 0 -1.69079e-05 6.14746e-06 0 -1.86664e-05 6.36358e-06 0 -2.05585e-05 6.48348e-06 0 -2.26026e-05 6.43487e-06 0 -2.48116e-05 6.11683e-06 0 -2.72339e-05 5.35711e-06 0 -2.98828e-05 3.91412e-06 0 -3.29287e-05 1.36573e-06 0 -3.63546e-05 -2.90057e-06 0 -4.08098e-05 -9.99023e-06 0 -4.60054e-05 -2.16295e-05 0 -5.42973e-05 -4.12303e-05 0 -6.33717e-05 -7.48605e-05 0 -7.90468e-05 -0.000137499 0 -7.43408e-05 -0.000261686 0 4.22808e-05 -0.000516863 0 0.000600918 -0.000556539 0 0 3.70631e-06 0 -8.51302e-07 3.72043e-06 0 -1.70927e-06 3.76282e-06 0 -2.5806e-06 3.83365e-06 0 -3.47212e-06 3.93316e-06 0 -4.39078e-06 4.0616e-06 0 -5.34374e-06 4.21922e-06 0 -6.3384e-06 4.40614e-06 0 -7.38247e-06 4.62221e-06 0 -8.48402e-06 4.86678e-06 0 -9.65154e-06 5.13844e-06 0 -1.0894e-05 5.43442e-06 0 -1.2221e-05 5.7502e-06 0 -1.36428e-05 6.07794e-06 0 -1.51711e-05 6.40606e-06 0 -1.68177e-05 6.71484e-06 0 -1.86001e-05 6.97736e-06 0 -2.05318e-05 7.14586e-06 0 -2.26487e-05 7.16014e-06 0 -2.49623e-05 6.90468e-06 0 -2.75782e-05 6.24573e-06 0 -3.04768e-05 4.89913e-06 0 -3.40286e-05 2.55415e-06 0 -3.80401e-05 -1.50071e-06 0 -4.38708e-05 -8.10801e-06 0 -5.054e-05 -1.90875e-05 0 -6.29875e-05 -3.75865e-05 0 -7.70104e-05 -6.89308e-05 0 -0.000109036 -0.000131313 0 -0.000135696 -0.000256149 0 -9.13114e-05 -0.000630773 0 0.000860029 -0.000920942 0 0 3.9881e-06 0 -8.41521e-07 4.00332e-06 0 -1.68966e-06 4.04904e-06 0 -2.55111e-06 4.12545e-06 0 -3.43264e-06 4.23281e-06 0 -4.34121e-06 4.37146e-06 0 -5.284e-06 4.54173e-06 0 -6.26847e-06 4.74382e-06 0 -7.30245e-06 4.97772e-06 0 -8.3942e-06 5.2429e-06 0 -9.55257e-06 5.53818e-06 0 -1.07869e-05 5.86089e-06 0 -1.2108e-05 6.20707e-06 0 -1.35265e-05 6.56865e-06 0 -1.50573e-05 6.93572e-06 0 -1.67122e-05 7.28722e-06 0 -1.85179e-05 7.6013e-06 0 -2.04838e-05 7.82516e-06 0 -2.2674e-05 7.91447e-06 0 -2.50802e-05 7.73729e-06 0 -2.78863e-05 7.20777e-06 0 -3.10181e-05 5.99579e-06 0 -3.50263e-05 3.92435e-06 0 -3.96621e-05 1.8017e-07 0 -4.65237e-05 -5.74718e-06 0 -5.51724e-05 -1.5787e-05 0 -6.99259e-05 -3.23942e-05 0 -9.20095e-05 -6.03893e-05 0 -0.000132487 -0.000117223 0 -0.000210474 -0.00023118 0 -0.00031091 -0.000681668 0 0.00140688 -0.0020324 0 0 4.26651e-06 0 -8.31002e-07 4.28283e-06 0 -1.66859e-06 4.33185e-06 0 -2.51938e-06 4.4138e-06 0 -3.39016e-06 4.52898e-06 0 -4.28784e-06 4.67781e-06 0 -5.21964e-06 4.86069e-06 0 -6.19304e-06 5.07797e-06 0 -7.21601e-06 5.32972e-06 0 -8.29704e-06 5.61571e-06 0 -9.44498e-06 5.93475e-06 0 -1.06708e-05 6.28496e-06 0 -1.19829e-05 6.6617e-06 0 -1.34005e-05 7.05962e-06 0 -1.49236e-05 7.46523e-06 0 -1.6603e-05 7.86698e-06 0 -1.83905e-05 8.22873e-06 0 -2.04673e-05 8.53071e-06 0 -2.25617e-05 8.67683e-06 0 -2.53808e-05 8.6455e-06 0 -2.77132e-05 8.18055e-06 0 -3.23307e-05 7.29101e-06 0 -3.42888e-05 5.31471e-06 0 -4.42148e-05 2.32319e-06 0 -4.30154e-05 -3.18623e-06 0 -7.02587e-05 -1.17109e-05 0 -5.56554e-05 -2.52852e-05 0 -0.000142089 -5.20925e-05 0 -8.65865e-05 -8.69599e-05 0 -0.00038487 -0.000215131 0 -0.000513755 -0.000430221 0 0.00176446 -0.00515154 0 0 4.54129e-06 0 -8.19766e-07 4.5587e-06 0 -1.64603e-06 4.61101e-06 0 -2.48546e-06 4.69846e-06 0 -3.34466e-06 4.82143e-06 0 -4.23073e-06 4.98036e-06 0 -5.15061e-06 5.17587e-06 0 -6.11215e-06 5.40821e-06 0 -7.12318e-06 5.67807e-06 0 -8.19205e-06 5.98454e-06 0 -9.33004e-06 6.32843e-06 0 -1.05416e-05 6.7049e-06 0 -1.18546e-05 7.11616e-06 0 -1.32435e-05 7.54548e-06 0 -1.48155e-05 8.0029e-06 0 -1.63892e-05 8.43658e-06 0 -1.84273e-05 8.88905e-06 0 -2.00413e-05 9.20558e-06 0 -2.3205e-05 9.54301e-06 0 -2.40452e-05 9.45436e-06 0 -3.06699e-05 9.44743e-06 0 -2.72441e-05 8.30228e-06 0 -4.5795e-05 7.43292e-06 0 -2.45284e-05 3.88572e-06 0 -8.53574e-05 6.47684e-07 0 3.28448e-06 -7.45133e-06 0 -0.000206053 -1.91298e-05 0 0.000118963 -3.19271e-05 0 -0.000596095 -8.4471e-05 0 0.000399551 -6.78146e-05 0 -0.00133006 -0.000557084 0 -0.0268772 0.00288707 0 </DataArray> 
</PointData> 
<Points> 
<DataArray type="Float32" NumberOfComponents="3"> 