<?xml version="1.0"?> 
<VTKFile type="StructuredGrid" version="0.1"> 
<StructuredGrid WholeExtent="0 31 0 31 0 0"> 
<Piece Extent="0 31 0 31 0 0"> 
<PointData>
<DataArray type="Float32" Name="B" format="ascii" NumberOfComponents="3"> 
0.000492632 0.00154475 0 0.000319337 2.00704e-05 0 0.000196217 8.23862e-05 0 8.72363e-05 4.7246e-05 0 9.05993e-05 4.57429e-05 0 5.7507e-05 3.81964e-05 0 5.58599e-05 3.35882e-05 0 4.3322e-05 2.97634e-05 0 3.99286e-05 2.59451e-05 0 3.38658e-05 2.31197e-05 0 3.05937e-05 2.0292e-05 0 2.68912e-05 1.80786e-05 0 2.41524e-05 1.59997e-05 0 2.151e-05 1.42864e-05 0 1.92857e-05 1.27434e-05 0 1.72401e-05 1.14342e-05 0 1.54292e-05 1.02791e-05 0 1.3779e-05 9.28542e-06 0 1.22861e-05 8.41717e-06 0 1.09206e-05 7.6668e-06 0 9.66951e-06 7.0153e-06 0 8.51582e-06 6.45337e-06 0 7.44707e-06 5.96957e-06 0 6.45116e-06 5.55617e-06 0 5.51758e-06 5.20576e-06 0 4.63669e-06 4.91271e-06 0 3.79963e-06 4.67212e-06 0 2.9982e-06 4.48022e-06 0 2.2247e-06 4.33395e-06 0 1.47182e-06 4.23104e-06 0 7.32534e-07 4.16992e-06 0 0 4.14965e-06 0 -6.52501e-05 0.000412231 0 0.000135799 0.000234768 0 0.000111791 0.000125142 0 8.81667e-05 8.33524e-05 0 6.74394e-05 6.24614e-05 0 5.62041e-05 5.03394e-05 0 4.66885e-05 4.2033e-05 0 4.04883e-05 3.58872e-05 0 3.51613e-05 3.10388e-05 0 3.11109e-05 2.70835e-05 0 2.75834e-05 2.3781e-05 0 2.46422e-05 2.0987e-05 0 2.20432e-05 1.86005e-05 0 1.97715e-05 1.65514e-05 0 1.77384e-05 1.47838e-05 0 1.59186e-05 1.32554e-05 0 1.42727e-05 1.19307e-05 0 1.27794e-05 1.07817e-05 0 1.14165e-05 9.78427e-06 0 1.01675e-05 8.91895e-06 0 9.01748e-06 8.16914e-06 0 7.95364e-06 7.5211e-06 0 6.96459e-06 6.96328e-06 0 6.04021e-06 6.48605e-06 0 5.17127e-06 6.08138e-06 0 4.34937e-06 5.74266e-06 0 3.5667e-06 5.46446e-06 0 2.81601e-06 5.24242e-06 0 2.09043e-06 5.07312e-06 0 1.38342e-06 4.95397e-06 0 6.88666e-07 4.88319e-06 0 2.44575e-20 4.85972e-06 0 -4.03236e-05 0.000226251 0 3.04897e-05 0.000186858 0 5.74987e-05 0.000133113 0 5.70896e-05 9.63954e-05 0 5.12143e-05 7.33895e-05 0 4.45463e-05 5.86127e-05 0 3.90406e-05 4.84173e-05 0 3.43218e-05 4.09127e-05 0 3.04686e-05 3.51368e-05 0 2.71656e-05 3.05024e-05 0 2.43497e-05 2.67076e-05 0 2.18784e-05 2.35297e-05 0 1.97008e-05 2.08446e-05 0 1.77528e-05 1.85495e-05 0 1.60014e-05 1.65791e-05 0 1.44142e-05 1.48778e-05 0 1.29695e-05 1.34055e-05 0 1.1648e-05 1.21281e-05 0 1.04345e-05 1.10192e-05 0 9.3156e-06 1.00564e-05 0 8.27979e-06 9.22141e-06 0 7.31688e-06 8.49903e-06 0 6.41773e-06 7.87663e-06 0 5.57401e-06 7.34361e-06 0 4.7781e-06 6.89124e-06 0 4.02294e-06 6.51227e-06 0 3.30191e-06 6.20079e-06 0 2.60879e-06 5.95204e-06 0 1.93766e-06 5.76227e-06 0 1.28281e-06 5.62866e-06 0 6.38727e-07 5.54927e-06 0 2.28951e-20 5.52294e-06 0 -4.58806e-05 0.000151729 0 -2.76355e-06 0.000144151 0 2.18164e-05 0.000119939 0 3.17984e-05 9.54855e-05 0 3.36755e-05 7.65906e-05 0 3.24553e-05 6.25948e-05 0 3.00945e-05 5.22103e-05 0 2.75578e-05 4.43087e-05 0 2.50883e-05 3.81033e-05 0 2.28159e-05 3.31184e-05 0 2.07355e-05 2.90161e-05 0 1.88452e-05 2.5594e-05 0 1.71202e-05 2.2698e-05 0 1.55442e-05 2.02283e-05 0 1.40985e-05 1.81056e-05 0 1.27691e-05 1.62735e-05 0 1.1543e-05 1.46858e-05 0 1.04093e-05 1.33072e-05 0 9.3581e-06 1.21086e-05 0 8.38077e-06 1.10665e-05 0 7.46933e-06 1.01615e-05 0 6.6165e-06 9.37738e-06 0 5.81552e-06 8.70087e-06 0 5.06009e-06 8.1208e-06 0 4.34426e-06 7.62792e-06 0 3.66242e-06 7.21459e-06 0 3.00925e-06 6.87457e-06 0 2.37963e-06 6.60282e-06 0 1.76862e-06 6.39538e-06 0 1.17145e-06 6.24927e-06 0 5.83441e-07 6.16243e-06 0 0 6.13362e-06 0 -4.20271e-05 0.000122293 0 -1.71494e-05 0.000116268 0 2.19204e-06 0.000103701 0 1.35531e-05 8.87186e-05 0 1.91142e-05 7.47143e-05 0 2.11377e-05 6.30293e-05 0 2.13469e-05 5.3605e-05 0 2.06402e-05 4.60299e-05 0 1.95309e-05 3.98964e-05 0 1.82542e-05 3.48555e-05 0 1.69392e-05 3.06643e-05 0 1.56422e-05 2.71334e-05 0 1.43934e-05 2.41329e-05 0 1.32045e-05 2.15612e-05 0 1.20802e-05 1.9345e-05 0 1.10208e-05 1.74256e-05 0 1.00245e-05 1.57584e-05 0 9.0881e-06 1.4307e-05 0 8.20801e-06 1.30422e-05 0 7.38017e-06 1.19401e-05 0 6.60037e-06 1.0981e-05 0 5.86436e-06 1.01485e-05 0 5.16785e-06 9.42899e-06 0 4.50661e-06 8.81106e-06 0 3.87646e-06 8.28527e-06 0 3.2733e-06 7.84381e-06 0 2.69308e-06 7.48026e-06 0 2.13187e-06 7.18945e-06 0 1.58576e-06 6.96731e-06 0 1.05093e-06 6.81076e-06 0 5.23598e-07 6.71768e-06 0 5.27368e-22 6.68679e-06 0 -4.11612e-05 9.76285e-05 0 -2.37389e-05 9.67972e-05 0 -9.19146e-06 8.99153e-05 0 1.26296e-06 8.03357e-05 0 7.84189e-06 7.03709e-05 0 1.15699e-05 6.11595e-05 0 1.34125e-05 5.31419e-05 0 1.4105e-05 4.63381e-05 0 1.41123e-05 4.06012e-05 0 1.37261e-05 3.57619e-05 0 1.31174e-05 3.16553e-05 0 1.239e-05 2.81512e-05 0 1.1605e-05 2.51411e-05 0 1.07997e-05 2.25426e-05 0 9.99665e-06 2.02888e-05 0 9.20936e-06 1.83275e-05 0 8.44586e-06 1.66163e-05 0 7.71059e-06 1.51211e-05 0 7.00564e-06 1.38138e-05 0 6.3315e-06 1.26713e-05 0 5.68763e-06 1.16744e-05 0 5.07272e-06 1.08071e-05 0 4.48492e-06 1.00558e-05 0 3.92206e-06 9.40944e-06 0 3.3817e-06 8.85854e-06 0 2.86123e-06 8.39532e-06 0 2.35793e-06 8.0134e-06 0 1.86901e-06 7.70758e-06 0 1.39164e-06 7.47379e-06 0 9.22934e-07 7.30894e-06 0 4.60019e-07 7.21088e-06 0 4.32031e-20 7.17833e-06 0 -4.00491e-05 8.42831e-05 0 -2.73987e-05 8.27114e-05 0 -1.60889e-05 7.85034e-05 0 -7.09083e-06 7.22541e-05 0 -5.67061e-07 6.51256e-05 0 3.82287e-06 5.80309e-05 0 6.59388e-06 5.14494e-05 0 8.22042e-06 4.55691e-05 0 9.07142e-06 4.04169e-05 0 9.40821e-06 3.59366e-05 0 9.40862e-06 3.2051e-05 0 9.1912e-06 2.8677e-05 0 8.83464e-06 2.57417e-05 0 8.39135e-06 2.31811e-05 0 7.89643e-06 2.09422e-05 0 7.37355e-06 1.89804e-05 0 6.83866e-06 1.72593e-05 0 6.30253e-06 1.5748e-05 0 5.77227e-06 1.44213e-05 0 5.25247e-06 1.32575e-05 0 4.74587e-06 1.22388e-05 0 4.25389e-06 1.13499e-05 0 3.77702e-06 1.05781e-05 0 3.31498e-06 9.91261e-06 0 2.86702e-06 9.34434e-06 0 2.43197e-06 8.86575e-06 0 2.00839e-06 8.47061e-06 0 1.59461e-06 8.15385e-06 0 1.18884e-06 7.91148e-06 0 7.89145e-07 7.74047e-06 0 3.93544e-07 7.6387e-06 0 2.34288e-20 7.60491e-06 0 -3.92733e-05 7.22072e-05 0 -2.95756e-05 7.1946e-05 0 -2.05421e-05 6.92352e-05 0 -1.28778e-05 6.49429e-05 0 -6.82419e-06 5.97843e-05 0 -2.31276e-06 5.4342e-05 0 8.99053e-07 4.90256e-05 0 3.09377e-06 4.4064e-05 0 4.53057e-06 3.95543e-05 0 5.41715e-06 3.55185e-05 0 5.91115e-06 3.19352e-05 0 6.1273e-06 2.87667e-05 0 6.14823e-06 2.5969e-05 0 6.03276e-06 2.34996e-05 0 5.82296e-06 2.13194e-05 0 5.54888e-06 1.93939e-05 0 5.23212e-06 1.76931e-05 0 4.88817e-06 1.61913e-05 0 4.52816e-06 1.48663e-05 0 4.16002e-06 1.36991e-05 0 3.78931e-06 1.26736e-05 0 3.41987e-06 1.1776e-05 0 3.05418e-06 1.09944e-05 0 2.69377e-06 1.03188e-05 0 2.33939e-06 9.74068e-06 0 1.99122e-06 9.25293e-06 0 1.64902e-06 8.84961e-06 0 1.3122e-06 8.5259e-06 0 9.79945e-07 8.27796e-06 0 6.51256e-07 8.1029e-06 0 3.25008e-07 7.99866e-06 0 0 7.96406e-06 0 -3.88647e-05 6.39257e-05 0 -3.09767e-05 6.33768e-05 0 -2.35612e-05 6.15265e-05 0 -1.69962e-05 5.84983e-05 0 -1.1514e-05 5.4689e-05 0 -7.14201e-06 5.04958e-05 0 -3.78499e-06 4.62277e-05 0 -1.28337e-06 4.20928e-05 0 5.30963e-07 3.82128e-05 0 1.81176e-06 3.46443e-05 0 2.68608e-06 3.14044e-05 0 3.25484e-06 2.84856e-05 0 3.59542e-06 2.58688e-05 0 3.76656e-06 2.35297e-05 0 3.81237e-06 2.14428e-05 0 3.76593e-06 1.95833e-05 0 3.65206e-06 1.79287e-05 0 3.48936e-06 1.64582e-05 0 3.2918e-06 1.51538e-05 0 3.06984e-06 1.39994e-05 0 2.83129e-06 1.2981e-05 0 2.58192e-06 1.20864e-05 0 2.32596e-06 1.1305e-05 0 2.06644e-06 1.06277e-05 0 1.80548e-06 1.00469e-05 0 1.54445e-06 9.55585e-06 0 1.28422e-06 9.14917e-06 0 1.02519e-06 8.82232e-06 0 7.67468e-07 8.57172e-06 0 5.10914e-07 8.39464e-06 0 2.55227e-07 8.28914e-06 0 0 8.25411e-06 0 -3.84478e-05 5.64858e-05 0 -3.19396e-05 5.6334e-05 0 -2.56832e-05 5.50281e-05 0 -2.00027e-05 5.28229e-05 0 -1.50693e-05 4.99639e-05 0 -1.09486e-05 4.67076e-05 0 -7.61142e-06 4.32809e-05 0 -4.97693e-06 3.98569e-05 0 -2.9393e-06 3.65525e-05 0 -1.39188e-06 3.34383e-05 0 -2.37221e-07 3.05504e-05 0 6.07353e-07 2.79017e-05 0 1.20968e-06 2.54908e-05 0 1.62388e-06 2.33078e-05 0 1.89266e-06 2.13389e-05 0 2.04939e-06 1.95684e-05 0 2.12005e-06 1.79804e-05 0 2.12483e-06 1.65596e-05 0 2.07941e-06 1.52918e-05 0 1.99593e-06 1.41641e-05 0 1.88382e-06 1.31649e-05 0 1.75036e-06 1.22837e-05 0 1.60114e-06 1.15116e-05 0 1.44044e-06 1.08404e-05 0 1.27153e-06 1.02634e-05 0 1.09683e-06 9.7746e-06 0 9.18164e-07 9.36905e-06 0 7.36839e-07 9.04264e-06 0 5.53794e-07 8.7921e-06 0 3.69687e-07 8.61491e-06 0 1.84979e-07 8.50929e-06 0 0 8.47421e-06 0 -3.82064e-05 5.05513e-05 0 -3.2596e-05 5.03675e-05 0 -2.72172e-05 4.94373e-05 0 -2.22388e-05 4.78069e-05 0 -1.77989e-05 4.56295e-05 0 -1.39614e-05 4.30799e-05 0 -1.07324e-05 4.03223e-05 0 -8.07313e-06 3.74934e-05 0 -5.92145e-06 3.46964e-05 0 -4.20515e-06 3.20021e-05 0 -2.85308e-06 2.94548e-05 0 -1.80012e-06 2.70787e-05 0 -9.89889e-07 2.4884e-05 0 -3.74928e-07 2.28716e-05 0 8.37823e-08 2.10367e-05 0 4.17966e-07 1.93711e-05 0 6.53181e-07 1.7865e-05 0 8.09931e-07 1.6508e-05 0 9.04608e-07 1.52899e-05 0 9.50299e-07 1.42005e-05 0 9.57438e-07 1.32308e-05 0 9.34339e-07 1.23723e-05 0 8.87617e-07 1.16174e-05 0 8.22529e-07 1.09592e-05 0 7.43253e-07 1.03919e-05 0 6.53101e-07 9.91025e-06 0 5.54705e-07 9.50991e-06 0 4.5016e-07 9.18722e-06 0 3.41149e-07 8.93924e-06 0 2.29042e-07 8.76371e-06 0 1.1499e-07 8.65903e-06 0 0 8.62425e-06 0 -3.79039e-05 4.52324e-05 0 -3.30441e-05 4.5218e-05 0 -2.83358e-05 4.45575e-05 0 -2.39264e-05 4.33396e-05 0 -1.99142e-05 4.16658e-05 0 -1.63592e-05 3.96555e-05 0 -1.32791e-05 3.74289e-05 0 -1.06606e-05 3.50926e-05 0 -8.46829e-06 3.27331e-05 0 -6.65542e-06 3.04157e-05 0 -5.17127e-06 2.81858e-05 0 -3.96645e-06 2.60729e-05 0 -2.99558e-06 2.40941e-05 0 -2.21872e-06 2.22575e-05 0 -1.6016e-06 2.05649e-05 0 -1.11534e-06 1.90142e-05 0 -7.35906e-07 1.76005e-05 0 -4.43447e-07 1.63178e-05 0 -2.21645e-07 1.51592e-05 0 -5.71344e-08 1.41175e-05 0 6.10113e-08 1.31858e-05 0 1.4172e-07 1.23575e-05 0 1.92284e-07 1.16265e-05 0 2.18664e-07 1.09873e-05 0 2.25742e-07 1.04348e-05 0 2.17526e-07 9.96472e-06 0 1.97326e-07 9.57324e-06 0 1.67897e-07 9.25721e-06 0 1.31562e-07 9.01405e-06 0 9.03184e-08 8.84178e-06 0 4.59274e-08 8.73898e-06 0 0 8.70481e-06 0 -3.76295e-05 4.0659e-05 0 -3.33215e-05 4.06942e-05 0 -2.91524e-05 4.02413e-05 0 -2.52082e-05 3.93321e-05 0 -2.15663e-05 3.80381e-05 0 -1.82761e-05 3.64451e-05 0 -1.53609e-05 3.46419e-05 0 -1.282e-05 3.27113e-05 0 -1.06352e-05 3.07246e-05 0 -8.77716e-06 2.87389e-05 0 -7.2109e-06 2.67976e-05 0 -5.89975e-06 2.49315e-05 0 -4.80824e-06 2.31609e-05 0 -3.90369e-06 2.14986e-05 0 -3.15693e-06 1.99508e-05 0 -2.54252e-06 1.85199e-05 0 -2.03861e-06 1.72051e-05 0 -1.62666e-06 1.60036e-05 0 -1.29101e-06 1.49116e-05 0 -1.01854e-06 1.39244e-05 0 -7.98251e-07 1.30374e-05 0 -6.20977e-07 1.22454e-05 0 -4.79046e-07 1.1544e-05 0 -3.66044e-07 1.09287e-05 0 -2.76592e-07 1.03955e-05 0 -2.06158e-07 9.94068e-06 0 -1.50897e-07 9.56123e-06 0 -1.07515e-07 9.25442e-06 0 -7.31541e-08 9.01807e-06 0 -4.52832e-08 8.85047e-06 0 -2.16109e-08 8.75039e-06 0 0 8.71712e-06 0 -3.72983e-05 3.65519e-05 0 -3.34692e-05 3.66795e-05 0 -2.97392e-05 3.63854e-05 0 -2.61839e-05 3.57115e-05 0 -2.28616e-05 3.471e-05 0 -1.98143e-05 3.34438e-05 0 -1.70655e-05 3.19801e-05 0 -1.46213e-05 3.03837e-05 0 -1.24743e-05 2.87125e-05 0 -1.0607e-05 2.70158e-05 0 -8.99565e-06 2.53326e-05 0 -7.61389e-06 2.3693e-05 0 -6.43455e-06 2.21186e-05 0 -5.4315e-06 2.06243e-05 0 -4.58052e-06 1.92194e-05 0 -3.85975e-06 1.79092e-05 0 -3.24986e-06 1.6696e-05 0 -2.73399e-06 1.55798e-05 0 -2.29756e-06 1.4559e-05 0 -1.92805e-06 1.36314e-05 0 -1.61476e-06 1.27938e-05 0 -1.34854e-06 1.2043e-05 0 -1.12162e-06 1.13755e-05 0 -9.27344e-07 1.07881e-05 0 -7.60024e-07 1.02777e-05 0 -6.14761e-07 9.8414e-06 0 -4.87311e-07 9.47664e-06 0 -3.73962e-07 9.18126e-06 0 -2.7142e-07 8.95342e-06 0 -1.76712e-07 8.79171e-06 0 -8.71005e-08 8.69509e-06 0 -7.21653e-21 8.66295e-06 0 -3.69549e-05 3.29055e-05 0 -3.35113e-05 3.30822e-05 0 -3.015e-05 3.29123e-05 0 -2.69234e-05 3.24205e-05 0 -2.38787e-05 3.16471e-05 0 -2.10511e-05 3.06397e-05 0 -1.8463e-05 2.94501e-05 0 -1.61239e-05 2.81292e-05 0 -1.40328e-05 2.67245e-05 0 -1.21802e-05 2.52774e-05 0 -1.05508e-05 2.38227e-05 0 -9.12578e-06 2.23882e-05 0 -7.88491e-06 2.09954e-05 0 -6.80766e-06 1.96599e-05 0 -5.87432e-06 1.83928e-05 0 -5.06651e-06 1.72013e-05 0 -4.36748e-06 1.60898e-05 0 -3.76224e-06 1.50603e-05 0 -3.2375e-06 1.41133e-05 0 -2.78162e-06 1.32482e-05 0 -2.3844e-06 1.24635e-05 0 -2.037e-06 1.17571e-05 0 -1.73171e-06 1.11269e-05 0 -1.46182e-06 1.05706e-05 0 -1.22151e-06 1.00859e-05 0 -1.00564e-06 9.67061e-06 0 -8.09696e-07 9.32276e-06 0 -6.29657e-07 9.04061e-06 0 -4.6189e-07 8.82271e-06 0 -3.03069e-07 8.66791e-06 0 -1.50092e-07 8.57537e-06 0 -6.05234e-20 8.54458e-06 0 -3.65815e-05 2.96133e-05 0 -3.34737e-05 2.98378e-05 0 -3.04242e-05 2.97627e-05 0 -2.7479e-05 2.94126e-05 0 -2.46764e-05 2.88186e-05 0 -2.20463e-05 2.80178e-05 0 -1.96095e-05 2.70506e-05 0 -1.73771e-05 2.59576e-05 0 -1.53519e-05 2.47775e-05 0 -1.35297e-05 2.35454e-05 0 -1.19012e-05 2.22915e-05 0 -1.04535e-05 2.10409e-05 0 -9.17177e-06 1.9814e-05 0 -8.04015e-06 1.86265e-05 0 -7.04289e-06 1.749e-05 0 -6.16479e-06 1.6413e-05 0 -5.39161e-06 1.54012e-05 0 -4.71025e-06 1.44581e-05 0 -4.10884e-06 1.35857e-05 0 -3.57674e-06 1.27846e-05 0 -3.10443e-06 1.20547e-05 0 -2.68352e-06 1.1395e-05 0 -2.30653e-06 1.08045e-05 0 -1.96686e-06 1.02816e-05 0 -1.65865e-06 9.82473e-06 0 -1.37667e-06 9.43243e-06 0 -1.11624e-06 9.10321e-06 0 -8.73131e-07 8.83576e-06 0 -6.43451e-07 8.62897e-06 0 -4.23608e-07 8.48192e-06 0 -2.10209e-07 8.39396e-06 0 -1.05552e-20 8.36468e-06 0 -3.62013e-05 2.6641e-05 0 -3.33756e-05 2.68927e-05 0 -3.05933e-05 2.68897e-05 0 -2.78907e-05 2.66497e-05 0 -2.52998e-05 2.61975e-05 0 -2.28467e-05 2.55625e-05 0 -2.05502e-05 2.47765e-05 0 -1.84219e-05 2.38724e-05 0 -1.64671e-05 2.28819e-05 0 -1.4685e-05 2.18344e-05 0 -1.30705e-05 2.0756e-05 0 -1.16152e-05 1.96692e-05 0 -1.03085e-05 1.85926e-05 0 -9.13838e-06 1.75414e-05 0 -8.09245e-06 1.65272e-05 0 -7.15834e-06 1.55591e-05 0 -6.32412e-06 1.46435e-05 0 -5.57852e-06 1.3785e-05 0 -4.91108e-06 1.29865e-05 0 -4.31223e-06 1.22498e-05 0 -3.77325e-06 1.15755e-05 0 -3.28626e-06 1.09639e-05 0 -2.84415e-06 1.04144e-05 0 -2.44054e-06 9.92644e-06 0 -2.06964e-06 9.49902e-06 0 -1.72623e-06 9.13118e-06 0 -1.40554e-06 8.82192e-06 0 -1.10322e-06 8.5703e-06 0 -8.15211e-07 8.37551e-06 0 -5.37724e-07 8.23688e-06 0 -2.67149e-07 8.1539e-06 0 0 8.12628e-06 0 -3.58153e-05 2.39343e-05 0 -3.32344e-05 2.42045e-05 0 -3.06819e-05 2.42545e-05 0 -2.81895e-05 2.40997e-05 0 -2.57844e-05 2.37597e-05 0 -2.34893e-05 2.32581e-05 0 -2.13214e-05 2.26204e-05 0 -1.92924e-05 2.18733e-05 0 -1.74087e-05 2.10428e-05 0 -1.5672e-05 2.01536e-05 0 -1.40803e-05 1.92283e-05 0 -1.26282e-05 1.82866e-05 0 -1.13085e-05 1.73454e-05 0 -1.01124e-05 1.64187e-05 0 -9.03027e-06 1.55181e-05 0 -8.05213e-06 1.46524e-05 0 -7.16815e-06 1.38286e-05 0 -6.36877e-06 1.30517e-05 0 -5.64488e-06 1.23255e-05 0 -4.98799e-06 1.16523e-05 0 -4.3902e-06 1.10337e-05 0 -3.84422e-06 1.04705e-05 0 -3.3434e-06 9.96283e-06 0 -2.8816e-06 9.51072e-06 0 -2.45322e-06 9.11374e-06 0 -2.05312e-06 8.77136e-06 0 -1.67653e-06 8.483e-06 0 -1.31903e-06 8.24804e-06 0 -9.76481e-07 8.06593e-06 0 -6.44949e-07 7.93621e-06 0 -3.20674e-07 7.85853e-06 0 0 7.83266e-06 0 -3.54356e-05 2.14597e-05 0 -3.30639e-05 2.17372e-05 0 -3.07099e-05 2.18251e-05 0 -2.84001e-05 2.17354e-05 0 -2.6158e-05 2.1484e-05 0 -2.40037e-05 2.10899e-05 0 -2.19528e-05 2.05737e-05 0 -2.00167e-05 1.99572e-05 0 -1.82026e-05 1.92619e-05 0 -1.65137e-05 1.85086e-05 0 -1.49499e-05 1.77166e-05 0 -1.35086e-05 1.6903e-05 0 -1.21849e-05 1.60831e-05 0 -1.09725e-05 1.52697e-05 0 -9.86407e-06 1.44736e-05 0 -8.85182e-06 1.37035e-05 0 -7.92768e-06 1.29664e-05 0 -7.08361e-06 1.22676e-05 0 -6.3118e-06 1.16112e-05 0 -5.60476e-06 1.10002e-05 0 -4.95543e-06 1.04364e-05 0 -4.35714e-06 9.92134e-06 0 -3.8037e-06 9.4557e-06 0 -3.28931e-06 9.03985e-06 0 -2.80861e-06 8.67384e-06 0 -2.35656e-06 8.35754e-06 0 -1.92848e-06 8.09068e-06 0 -1.51994e-06 7.87293e-06 0 -1.12676e-06 7.70398e-06 0 -7.44935e-07 7.58354e-06 0 -3.70605e-07 7.51136e-06 0 -1.19577e-20 7.48732e-06 0 -3.50662e-05 1.91831e-05 0 -3.28756e-05 1.94604e-05 0 -3.06932e-05 1.95738e-05 0 -2.85422e-05 1.95332e-05 0 -2.64432e-05 1.93515e-05 0 -2.44139e-05 1.90439e-05 0 -2.24687e-05 1.86274e-05 0 -2.06185e-05 1.81197e-05 0 -1.88707e-05 1.75388e-05 0 -1.72297e-05 1.6902e-05 0 -1.56968e-05 1.62259e-05 0 -1.42711e-05 1.55254e-05 0 -1.29498e-05 1.48139e-05 0 -1.17284e-05 1.41031e-05 0 -1.06017e-05 1.34028e-05 0 -9.56342e-06 1.27214e-05 0 -8.60717e-06 1.20657e-05 0 -7.72625e-06 1.1441e-05 0 -6.914e-06 1.08515e-05 0 -6.16391e-06 1.03005e-05 0 -5.46968e-06 9.79037e-06 0 -4.82529e-06 9.32272e-06 0 -4.225e-06 8.89873e-06 0 -3.66341e-06 8.5191e-06 0 -3.13538e-06 8.18422e-06 0 -2.63608e-06 7.89427e-06 0 -2.16092e-06 7.64924e-06 0 -1.70552e-06 7.44904e-06 0 -1.2657e-06 7.29354e-06 0 -8.37442e-07 7.1826e-06 0 -4.16821e-07 7.11609e-06 0 -4.95487e-20 7.09392e-06 0 -3.47136e-05 1.70777e-05 0 -3.26787e-05 1.7348e-05 0 -3.06448e-05 1.7477e-05 0 -2.86318e-05 1.74725e-05 0 -2.66581e-05 1.73451e-05 0 -2.47395e-05 1.7107e-05 0 -2.28891e-05 1.67723e-05 0 -2.11173e-05 1.63554e-05 0 -1.94317e-05 1.58713e-05 0 -1.78371e-05 1.53346e-05 0 -1.63361e-05 1.47594e-05 0 -1.4929e-05 1.41585e-05 0 -1.36145e-05 1.35437e-05 0 -1.23897e-05 1.29255e-05 0 -1.12507e-05 1.23129e-05 0 -1.0193e-05 1.17135e-05 0 -9.21133e-06 1.11337e-05 0 -8.30023e-06 1.05789e-05 0 -7.45409e-06 1.00532e-05 0 -6.66725e-06 9.55996e-06 0 -5.93416e-06 9.10171e-06 0 -5.24938e-06 8.68038e-06 0 -4.60767e-06 8.29734e-06 0 -4.00398e-06 7.95355e-06 0 -3.43348e-06 7.64966e-06 0 -2.89151e-06 7.38606e-06 0 -2.37362e-06 7.16296e-06 0 -1.87554e-06 6.98045e-06 0 -1.39311e-06 6.83855e-06 0 -9.22323e-07 6.73723e-06 0 -4.59242e-07 6.67646e-06 0 -3.96998e-21 6.65621e-06 0 -3.43813e-05 1.51194e-05 0 -3.24807e-05 1.53776e-05 0 -3.05749e-05 1.5514e-05 0 -2.86818e-05 1.55351e-05 0 -2.68175e-05 1.54494e-05 0 -2.49963e-05 1.5267e-05 0 -2.32303e-05 1.49993e-05 0 -2.15294e-05 1.46582e-05 0 -1.99011e-05 1.42562e-05 0 -1.83506e-05 1.38056e-05 0 -1.68812e-05 1.33183e-05 0 -1.54942e-05 1.28052e-05 0 -1.41893e-05 1.22768e-05 0 -1.29649e-05 1.17422e-05 0 -1.18184e-05 1.12095e-05 0 -1.07465e-05 1.06856e-05 0 -9.74489e-06 1.01767e-05 0 -8.80927e-06 9.68752e-06 0 -7.93488e-06 9.22229e-06 0 -7.11687e-06 8.78428e-06 0 -6.35034e-06 8.37606e-06 0 -5.63043e-06 7.99968e-06 0 -4.95235e-06 7.65663e-06 0 -4.31141e-06 7.34807e-06 0 -3.70306e-06 7.07478e-06 0 -3.12288e-06 6.83733e-06 0 -2.56655e-06 6.63608e-06 0 -2.02992e-06 6.47125e-06 0 -1.5089e-06 6.34297e-06 0 -9.99506e-07 6.25132e-06 0 -4.9783e-07 6.19633e-06 0 0 6.17799e-06 0 -3.40731e-05 1.32876e-05 0 -3.22877e-05 1.35293e-05 0 -3.04922e-05 1.36667e-05 0 -2.87026e-05 1.37048e-05 0 -2.69334e-05 1.36507e-05 0 -2.51974e-05 1.35126e-05 0 -2.35061e-05 1.32997e-05 0 -2.18686e-05 1.3022e-05 0 -2.02924e-05 1.26898e-05 0 -1.87828e-05 1.23133e-05 0 -1.73437e-05 1.19026e-05 0 -1.5977e-05 1.14672e-05 0 -1.46833e-05 1.10159e-05 0 -1.34621e-05 1.05568e-05 0 -1.23116e-05 1.0097e-05 0 -1.12294e-05 9.64278e-06 0 -1.02125e-05 9.19961e-06 0 -9.25705e-06 8.7721e-06 0 -8.35928e-06 8.36407e-06 0 -7.51501e-06 7.97869e-06 0 -6.71992e-06 7.61851e-06 0 -5.96968e-06 7.28556e-06 0 -5.25991e-06 6.98141e-06 0 -4.58628e-06 6.70727e-06 0 -3.94451e-06 6.46404e-06 0 -3.3304e-06 6.25238e-06 0 -2.73982e-06 6.07275e-06 0 -2.1687e-06 5.92548e-06 0 -1.61306e-06 5.81077e-06 0 -1.06898e-06 5.72876e-06 0 -5.32576e-07 5.67953e-06 0 0 5.66311e-06 0 -3.37915e-05 1.15639e-05 0 -3.21045e-05 1.17858e-05 0 -3.04035e-05 1.19188e-05 0 -2.87028e-05 1.1967e-05 0 -2.70156e-05 1.19362e-05 0 -2.53537e-05 1.18329e-05 0 -2.37277e-05 1.16649e-05 0 -2.21462e-05 1.14402e-05 0 -2.06166e-05 1.11675e-05 0 -1.91443e-05 1.08551e-05 0 -1.77334e-05 1.05116e-05 0 -1.63865e-05 1.0145e-05 0 -1.51048e-05 9.76276e-06 0 -1.38884e-05 9.37193e-06 0 -1.27364e-05 8.97874e-06 0 -1.16472e-05 8.58874e-06 0 -1.06184e-05 8.2068e-06 0 -9.64714e-06 7.83707e-06 0 -8.73018e-06 7.48309e-06 0 -7.86394e-06 7.14782e-06 0 -7.04467e-06 6.83365e-06 0 -6.26845e-06 6.54257e-06 0 -5.53133e-06 6.27611e-06 0 -4.82929e-06 6.03551e-06 0 -4.15832e-06 5.82169e-06 0 -3.51442e-06 5.63537e-06 0 -2.89362e-06 5.47705e-06 0 -2.29201e-06 5.34713e-06 0 -1.70568e-06 5.24586e-06 0 -1.13079e-06 5.17341e-06 0 -5.63495e-07 5.1299e-06 0 0 5.11539e-06 0 -3.35388e-05 9.93231e-06 0 -3.19351e-05 1.01316e-05 0 -3.03143e-05 1.02558e-05 0 -2.86893e-05 1.03085e-05 0 -2.70722e-05 1.02942e-05 0 -2.5474e-05 1.02182e-05 0 -2.39044e-05 1.00868e-05 0 -2.23718e-05 9.90665e-06 0 -2.08832e-05 9.68469e-06 0 -1.94442e-05 9.42801e-06 0 -1.8059e-05 9.14358e-06 0 -1.67306e-05 8.83815e-06 0 -1.54608e-05 8.51809e-06 0 -1.425e-05 8.1893e-06 0 -1.30983e-05 7.85718e-06 0 -1.20044e-05 7.52655e-06 0 -1.09667e-05 7.20165e-06 0 -9.9829e-06 6.88619e-06 0 -9.05032e-06 6.58333e-06 0 -8.16589e-06 6.29575e-06 0 -7.32633e-06 6.02566e-06 0 -6.52813e-06 5.77489e-06 0 -5.76767e-06 5.54492e-06 0 -5.04124e-06 5.33693e-06 0 -4.34506e-06 5.15182e-06 0 -3.67533e-06 4.99032e-06 0 -3.02826e-06 4.85295e-06 0 -2.40004e-06 4.74012e-06 0 -1.78688e-06 4.65211e-06 0 -1.18499e-06 4.58912e-06 0 -5.90619e-07 4.55127e-06 0 0 4.53865e-06 0 -3.33168e-05 8.3781e-06 0 -3.17828e-05 8.55247e-06 0 -3.02292e-05 8.6646e-06 0 -2.86678e-05 8.7172e-06 0 -2.71098e-05 8.71388e-06 0 -2.55654e-05 8.65902e-06 0 -2.40438e-05 8.55756e-06 0 -2.2553e-05 8.41488e-06 0 -2.10999e-05 8.23665e-06 0 -1.969e-05 8.02862e-06 0 -1.83277e-05 7.79651e-06 0 -1.70161e-05 7.54589e-06 0 -1.57574e-05 7.28205e-06 0 -1.45527e-05 7.00992e-06 0 -1.34022e-05 6.73405e-06 0 -1.23054e-05 6.45852e-06 0 -1.1261e-05 6.18698e-06 0 -1.02674e-05 5.92263e-06 0 -9.32225e-06 5.66822e-06 0 -8.42296e-06 5.42611e-06 0 -7.56661e-06 5.19828e-06 0 -6.75006e-06 4.98637e-06 0 -5.96999e-06 4.79172e-06 0 -5.22293e-06 4.61542e-06 0 -4.50533e-06 4.45832e-06 0 -3.81359e-06 4.32111e-06 0 -3.14405e-06 4.2043e-06 0 -2.49301e-06 4.10827e-06 0 -1.85679e-06 4.03333e-06 0 -1.23169e-06 3.97966e-06 0 -6.13991e-07 3.94741e-06 0 0 3.93666e-06 0 -3.31268e-05 6.88807e-06 0 -3.16501e-05 7.03581e-06 0 -3.01517e-05 7.13305e-06 0 -2.86427e-05 7.18192e-06 0 -2.71335e-05 7.18526e-06 0 -2.56338e-05 7.1465e-06 0 -2.41522e-05 7.06955e-06 0 -2.26965e-05 6.95868e-06 0 -2.12733e-05 6.81839e-06 0 -1.98881e-05 6.65327e-06 0 -1.85454e-05 6.46792e-06 0 -1.72485e-05 6.26681e-06 0 -1.59999e-05 6.05423e-06 0 -1.48009e-05 5.83422e-06 0 -1.36523e-05 5.61048e-06 0 -1.25537e-05 5.38642e-06 0 -1.15046e-05 5.16505e-06 0 -1.05034e-05 4.94905e-06 0 -9.54827e-06 4.74074e-06 0 -8.63703e-06 4.54214e-06 0 -7.76706e-06 4.35493e-06 0 -6.93549e-06 4.18054e-06 0 -6.13926e-06 4.02013e-06 0 -5.37514e-06 3.87467e-06 0 -4.63976e-06 3.74492e-06 0 -3.92966e-06 3.63148e-06 0 -3.24132e-06 3.53483e-06 0 -2.57117e-06 3.45533e-06 0 -1.91559e-06 3.39325e-06 0 -1.27097e-06 3.34879e-06 0 -6.33659e-07 3.32206e-06 0 0 3.31314e-06 0 -3.297e-05 5.45007e-06 0 -3.1539e-05 5.56979e-06 0 -3.00848e-05 5.64998e-06 0 -2.86177e-05 5.69227e-06 0 -2.71476e-05 5.69881e-06 0 -2.56838e-05 5.67222e-06 0 -2.42345e-05 5.6155e-06 0 -2.28072e-05 5.53193e-06 0 -2.14084e-05 5.42496e-06 0 -2.00435e-05 5.29815e-06 0 -1.87171e-05 5.15504e-06 0 -1.74326e-05 4.99914e-06 0 -1.61926e-05 4.8338e-06 0 -1.49988e-05 4.66217e-06 0 -1.38521e-05 4.4872e-06 0 -1.27527e-05 4.31156e-06 0 -1.17001e-05 4.13769e-06 0 -1.06931e-05 3.96771e-06 0 -9.73038e-06 3.80352e-06 0 -8.8098e-06 3.64673e-06 0 -7.92906e-06 3.49873e-06 0 -7.08556e-06 3.36069e-06 0 -6.27642e-06 3.23357e-06 0 -5.4986e-06 3.11819e-06 0 -4.74888e-06 3.01517e-06 0 -4.02395e-06 2.92504e-06 0 -3.3204e-06 2.8482e-06 0 -2.63474e-06 2.78496e-06 0 -1.96344e-06 2.73556e-06 0 -1.30295e-06 2.70016e-06 0 -6.4967e-07 2.67888e-06 0 0 2.67178e-06 0 -3.28473e-05 4.05275e-06 0 -3.14511e-05 4.14341e-06 0 -3.00305e-05 4.20491e-06 0 -2.85955e-05 4.23844e-06 0 -2.71554e-05 4.24554e-06 0 -2.57192e-05 4.22812e-06 0 -2.42947e-05 4.18835e-06 0 -2.28894e-05 4.12859e-06 0 -2.15094e-05 4.05138e-06 0 -2.01604e-05 3.95929e-06 0 -1.88467e-05 3.85495e-06 0 -1.75719e-05 3.74089e-06 0 -1.63389e-05 3.61961e-06 0 -1.51494e-05 3.49343e-06 0 -1.40046e-05 3.36453e-06 0 -1.29048e-05 3.23491e-06 0 -1.18498e-05 3.10638e-06 0 -1.08387e-05 2.98055e-06 0 -9.87025e-06 2.85885e-06 0 -8.94266e-06 2.74249e-06 0 -8.0538e-06 2.63253e-06 0 -7.20123e-06 2.52988e-06 0 -6.38224e-06 2.43526e-06 0 -5.59392e-06 2.34931e-06 0 -4.8332e-06 2.27252e-06 0 -4.09686e-06 2.2053e-06 0 -3.38157e-06 2.14796e-06 0 -2.68394e-06 2.10075e-06 0 -2.00049e-06 2.06385e-06 0 -1.32771e-06 2.03741e-06 0 -6.62071e-07 2.02151e-06 0 0 2.01621e-06 0 -3.27592e-05 2.68541e-06 0 -3.13875e-05 2.74625e-06 0 -2.99906e-05 2.78789e-06 0 -2.85782e-05 2.81109e-06 0 -2.71593e-05 2.81685e-06 0 -2.57425e-05 2.80642e-06 0 -2.43357e-05 2.78119e-06 0 -2.29459e-05 2.74273e-06 0 -2.15794e-05 2.69267e-06 0 -2.02417e-05 2.6327e-06 0 -1.89372e-05 2.56454e-06 0 -1.76695e-05 2.48986e-06 0 -1.64415e-05 2.41029e-06 0 -1.52553e-05 2.32737e-06 0 -1.41119e-05 2.24254e-06 0 -1.3012e-05 2.15713e-06 0 -1.19554e-05 2.07234e-06 0 -1.09416e-05 1.98925e-06 0 -9.9692e-06 1.9088e-06 0 -9.03675e-06 1.83181e-06 0 -8.14222e-06 1.75901e-06 0 -7.28328e-06 1.691e-06 0 -6.45735e-06 1.62827e-06 0 -5.66163e-06 1.57126e-06 0 -4.89313e-06 1.52029e-06 0 -4.1487e-06 1.47566e-06 0 -3.42509e-06 1.43757e-06 0 -2.71894e-06 1.40621e-06 0 -2.02685e-06 1.38169e-06 0 -1.34534e-06 1.36411e-06 0 -6.70899e-07 1.35354e-06 0 0 1.35002e-06 0 -3.27061e-05 1.3378e-06 0 -3.1349e-05 1.36835e-06 0 -2.99663e-05 1.38936e-06 0 -2.85673e-05 1.4012e-06 0 -2.7161e-05 1.40439e-06 0 -2.57558e-05 1.39952e-06 0 -2.43595e-05 1.38729e-06 0 -2.2979e-05 1.36847e-06 0 -2.16206e-05 1.34386e-06 0 -2.02896e-05 1.3143e-06 0 -1.89906e-05 1.28063e-06 0 -1.77273e-05 1.2437e-06 0 -1.65024e-05 1.2043e-06 0 -1.53181e-05 1.1632e-06 0 -1.41756e-05 1.12111e-06 0 -1.30757e-05 1.07871e-06 0 -1.20183e-05 1.03658e-06 0 -1.10028e-05 9.95274e-07 0 -1.00282e-05 9.55256e-07 0 -9.09288e-06 9.16943e-07 0 -8.19499e-06 8.80695e-07 0 -7.33227e-06 8.46814e-07 0 -6.50223e-06 8.15557e-07 0 -5.7021e-06 7.87135e-07 0 -4.92896e-06 7.61724e-07 0 -4.1797e-06 7.39462e-07 0 -3.45112e-06 7.20463e-07 0 -2.73989e-06 7.04813e-07 0 -2.04263e-06 6.92578e-07 0 -1.35589e-06 6.83806e-07 0 -6.76184e-07 6.78531e-07 0 0 6.7677e-07 0 -3.26884e-05 -0 0 -3.13361e-05 -2.08369e-19 0 -2.99581e-05 1.59039e-19 0 -2.85635e-05 1.10383e-19 0 -2.71614e-05 -0 0 -2.57601e-05 -0 0 -2.43673e-05 -0 0 -2.29899e-05 -0 0 -2.16342e-05 -0 0 -2.03055e-05 -0 0 -1.90083e-05 -9.36955e-21 0 -1.77464e-05 -1.22553e-19 0 -1.65225e-05 -1.76731e-20 0 -1.53389e-05 1.08044e-19 0 -1.41968e-05 2.02238e-20 0 -1.30969e-05 -0 0 -1.20392e-05 -0 0 -1.10232e-05 -0 0 -1.00478e-05 1.60469e-20 0 -9.11153e-06 6.3641e-20 0 -8.21253e-06 4.89821e-21 0 -7.34857e-06 -0 0 -6.51716e-06 -0 0 -5.71557e-06 -0 0 -4.94088e-06 -1.40282e-20 0 -4.19002e-06 -2.6044e-20 0 -3.45979e-06 -4.26349e-22 0 -2.74687e-06 -0 0 -2.04789e-06 -0 0 -1.3594e-06 -0 0 -6.77943e-07 -0 0 0 -0 0 </DataArray> 
</PointData> 
<Points> 
<DataArray type="Float32" NumberOfComponents="3"> 