<?xml version="1.0"?> 
<VTKFile type="StructuredGrid" version="0.1"> 
<StructuredGrid WholeExtent="0 31 0 31 0 0"> 
<Piece Extent="0 31 0 31 0 0"> 
<PointData>
<DataArray type="Float32" Name="B" format="ascii" NumberOfComponents="3"> 
0 -4.6229e-06 0 -8.3205e-07 -4.64126e-06 0 -1.6708e-06 -4.69645e-06 0 -2.52315e-06 -4.78882e-06 0 -3.39591e-06 -4.919e-06 0 -4.29641e-06 -5.08773e-06 0 -5.23186e-06 -5.29607e-06 0 -6.21037e-06 -5.54487e-06 0 -7.24007e-06 -5.83563e-06 0 -8.32961e-06 -6.16852e-06 0 -9.49064e-06 -6.54574e-06 0 -1.07277e-05 -6.96435e-06 0 -1.20696e-05 -7.42897e-06 0 -1.34897e-05 -7.92636e-06 0 -1.50976e-05 -8.47075e-06 0 -1.67061e-05 -9.01694e-06 0 -1.87888e-05 -9.61468e-06 0 -2.0429e-05 -1.01227e-05 0 -2.36494e-05 -1.07099e-05 0 -2.44594e-05 -1.09581e-05 0 -3.11717e-05 -1.13943e-05 0 -2.74875e-05 -1.08632e-05 0 -4.62496e-05 -1.0808e-05 0 -2.39036e-05 -8.4188e-06 0 -8.54566e-05 -6.74483e-06 0 7.11535e-06 -8.97106e-07 0 -0.000204823 7.53905e-06 0 0.00013403 1.5821e-05 0 -0.000588451 6.04312e-05 0 0.000457927 3.43214e-05 0 -0.0012298 0.000493351 0 -0.0268105 -0.00278462 0 3.27926e-20 -4.34393e-06 0 -8.43907e-07 -4.36116e-06 0 -1.69463e-06 -4.41295e-06 0 -2.55904e-06 -4.49964e-06 0 -3.44417e-06 -4.62176e-06 0 -4.3572e-06 -4.78003e-06 0 -5.30565e-06 -4.97528e-06 0 -6.29734e-06 -5.20846e-06 0 -7.34059e-06 -5.48045e-06 0 -8.44434e-06 -5.79204e-06 0 -9.61784e-06 -6.1435e-06 0 -1.08726e-05 -6.53471e-06 0 -1.22175e-05 -6.96376e-06 0 -1.36725e-05 -7.42816e-06 0 -1.52373e-05 -7.91997e-06 0 -1.69645e-05 -8.43201e-06 0 -1.88025e-05 -8.94009e-06 0 -2.09378e-05 -9.43014e-06 0 -2.30824e-05 -9.83391e-06 0 -2.5966e-05 -1.01335e-05 0 -2.83076e-05 -1.0141e-05 0 -3.29772e-05 -9.85569e-06 0 -3.47543e-05 -8.78141e-06 0 -4.46718e-05 -6.95036e-06 0 -4.25782e-05 -3.22367e-06 0 -6.96318e-05 2.86392e-06 0 -5.15645e-05 1.2826e-05 0 -0.000137078 3.34797e-05 0 -6.82208e-05 6.05565e-05 0 -0.000357553 0.000164777 0 -0.000417474 0.000353571 0 0.00240902 0.00443432 0 2.52528e-20 -4.06114e-06 0 -8.55021e-07 -4.07722e-06 0 -1.71692e-06 -4.12559e-06 0 -2.59266e-06 -4.20653e-06 0 -3.4893e-06 -4.32052e-06 0 -4.4141e-06 -4.4682e-06 0 -5.37459e-06 -4.65032e-06 0 -6.37863e-06 -4.86767e-06 0 -7.43447e-06 -5.12101e-06 0 -8.5509e-06 -5.41085e-06 0 -9.73737e-06 -5.73738e-06 0 -1.10039e-05 -6.09981e-06 0 -1.2362e-05 -6.49657e-06 0 -1.38231e-05 -6.92316e-06 0 -1.54035e-05 -7.37383e-06 0 -1.71146e-05 -7.83455e-06 0 -1.89865e-05 -8.29087e-06 0 -2.10233e-05 -8.70451e-06 0 -2.32995e-05 -9.0444e-06 0 -2.57808e-05 -9.21018e-06 0 -2.86923e-05 -9.14012e-06 0 -3.18469e-05 -8.57557e-06 0 -3.5968e-05 -7.38717e-06 0 -4.03516e-05 -4.92629e-06 0 -4.73e-05 -8.01727e-07 0 -5.46038e-05 6.53008e-06 0 -6.93231e-05 1.90833e-05 0 -8.5967e-05 4.06348e-05 0 -0.000125484 8.60669e-05 0 -0.00018214 0.000177859 0 -0.000265391 0.000556474 0 0.00118456 0.00159651 0 0 -3.77477e-06 0 -8.65368e-07 -3.7897e-06 0 -1.73768e-06 -3.8346e-06 0 -2.62395e-06 -3.90974e-06 0 -3.5313e-06 -4.01553e-06 0 -4.46704e-06 -4.15254e-06 0 -5.43871e-06 -4.32144e-06 0 -6.45416e-06 -4.52288e-06 0 -7.52162e-06 -4.75749e-06 0 -8.64976e-06 -5.0256e-06 0 -9.8478e-06 -5.32718e-06 0 -1.11256e-05 -5.66124e-06 0 -1.24937e-05 -6.02572e-06 0 -1.39636e-05 -6.41606e-06 0 -1.55483e-05 -6.82528e-06 0 -1.72615e-05 -7.23984e-06 0 -1.91216e-05 -7.64169e-06 0 -2.11453e-05 -7.99529e-06 0 -2.33664e-05 -8.25825e-06 0 -2.58037e-05 -8.34028e-06 0 -2.8546e-05 -8.14492e-06 0 -3.1596e-05 -7.44332e-06 0 -3.52503e-05 -6.0072e-06 0 -3.93915e-05 -3.25465e-06 0 -4.51006e-05 1.45568e-06 0 -5.16624e-05 9.60969e-06 0 -6.3041e-05 2.37456e-05 0 -7.59194e-05 4.81115e-05 0 -0.000103577 9.80421e-05 0 -0.000126001 0.000198315 0 -8.23043e-05 0.000506138 0 0.000712244 0.000641198 0 4.12287e-22 -3.48508e-06 0 -8.74945e-07 -3.49886e-06 0 -1.75689e-06 -3.54026e-06 0 -2.65291e-06 -3.60954e-06 0 -3.57016e-06 -3.70707e-06 0 -4.51599e-06 -3.83335e-06 0 -5.49796e-06 -3.98894e-06 0 -6.52391e-06 -4.17441e-06 0 -7.60202e-06 -4.39023e-06 0 -8.74085e-06 -4.63664e-06 0 -9.9494e-06 -4.91334e-06 0 -1.12372e-05 -5.21929e-06 0 -1.26142e-05 -5.55192e-06 0 -1.40911e-05 -5.90689e-06 0 -1.56794e-05 -6.27589e-06 0 -1.73911e-05 -6.6467e-06 0 -1.92405e-05 -6.99718e-06 0 -2.12416e-05 -7.2968e-06 0 -2.34162e-05 -7.4901e-06 0 -2.57811e-05 -7.50344e-06 0 -2.83859e-05 -7.19984e-06 0 -3.12477e-05 -6.39912e-06 0 -3.45255e-05 -4.75815e-06 0 -3.8203e-05 -1.81045e-06 0 -4.28613e-05 3.35019e-06 0 -4.82151e-05 1.20786e-05 0 -5.63504e-05 2.71553e-05 0 -6.50945e-05 5.35389e-05 0 -7.96653e-05 0.000103279 0 -7.61122e-05 0.000203597 0 2.17491e-05 0.000404021 0 0.000453775 0.000410479 0 2.88198e-20 -3.19233e-06 0 -8.83744e-07 -3.20494e-06 0 -1.77454e-06 -3.24283e-06 0 -2.6795e-06 -3.30621e-06 0 -3.60584e-06 -3.39542e-06 0 -4.56092e-06 -3.5109e-06 0 -5.55232e-06 -3.65312e-06 0 -6.58787e-06 -3.82256e-06 0 -7.67569e-06 -4.01959e-06 0 -8.8242e-06 -4.24429e-06 0 -1.00422e-05 -4.49627e-06 0 -1.13388e-05 -4.77428e-06 0 -1.27236e-05 -5.07573e-06 0 -1.42062e-05 -5.39587e-06 0 -1.57967e-05 -5.72666e-06 0 -1.75055e-05 -6.05492e-06 0 -1.93425e-05 -6.35954e-06 0 -2.13191e-05 -6.60733e-06 0 -2.34443e-05 -6.74582e-06 0 -2.57334e-05 -6.69372e-06 0 -2.81944e-05 -6.32106e-06 0 -3.08604e-05 -5.42675e-06 0 -3.37428e-05 -3.68097e-06 0 -3.69387e-05 -5.6407e-07 0 -4.04791e-05 4.80797e-06 0 -4.46074e-05 1.39073e-05 0 -4.92731e-05 2.93933e-05 0 -5.42067e-05 5.62465e-05 0 -5.58687e-05 0.000104321 0 -3.59833e-05 0.000192608 0 7.82054e-05 0.000323415 0 0.000358704 0.00028314 0 1.33864e-20 -2.89679e-06 0 -8.91759e-07 -2.90821e-06 0 -1.79062e-06 -2.94256e-06 0 -2.70372e-06 -3.00001e-06 0 -3.63833e-06 -3.08085e-06 0 -4.60182e-06 -3.18547e-06 0 -5.60179e-06 -3.31427e-06 0 -6.64603e-06 -3.46764e-06 0 -7.74261e-06 -3.64586e-06 0 -8.89984e-06 -3.84891e-06 0 -1.01263e-05 -4.07629e-06 0 -1.14307e-05 -4.32667e-06 0 -1.28221e-05 -4.59739e-06 0 -1.43093e-05 -4.88369e-06 0 -1.59011e-05 -5.1775e-06 0 -1.76055e-05 -5.46585e-06 0 -1.94295e-05 -5.72765e-06 0 -2.1379e-05 -5.93031e-06 0 -2.34564e-05 -6.02127e-06 0 -2.56622e-05 -5.92037e-06 0 -2.79893e-05 -5.4967e-06 0 -3.04313e-05 -4.55043e-06 0 -3.29611e-05 -2.74774e-06 0 -3.55679e-05 4.30569e-07 0 -3.81636e-05 5.87283e-06 0 -4.06867e-05 1.50326e-05 0 -4.26095e-05 3.04417e-05 0 -4.27237e-05 5.66358e-05 0 -3.5456e-05 0.000101092 0 -2.73175e-06 0.000174738 0 0.000106369 0.000257962 0 0.000296316 0.000226041 0 0 -2.5987e-06 0 -8.98986e-07 -2.60894e-06 0 -1.80511e-06 -2.63973e-06 0 -2.72556e-06 -2.69121e-06 0 -3.66761e-06 -2.76365e-06 0 -4.63868e-06 -2.85736e-06 0 -5.64634e-06 -2.97269e-06 0 -6.69838e-06 -3.10997e-06 0 -7.8028e-06 -3.26936e-06 0 -8.96778e-06 -3.45081e-06 0 -1.02017e-05 -3.65373e-06 0 -1.1513e-05 -3.87678e-06 0 -1.291e-05 -4.11729e-06 0 -1.44008e-05 -4.3706e-06 0 -1.59928e-05 -4.62892e-06 0 -1.76921e-05 -4.87952e-06 0 -1.95025e-05 -5.10228e-06 0 -2.14248e-05 -5.26514e-06 0 -2.34539e-05 -5.318e-06 0 -2.55778e-05 -5.18138e-06 0 -2.77708e-05 -4.73041e-06 0 -2.99932e-05 -3.76527e-06 0 -3.21697e-05 -1.96691e-06 0 -3.41981e-05 1.18339e-06 0 -3.58554e-05 6.53107e-06 0 -3.68171e-05 1.54816e-05 0 -3.61381e-05 3.0343e-05 0 -3.18906e-05 5.49671e-05 0 -1.7627e-05 9.47308e-05 0 2.2442e-05 0.000153675 0 0.00012081 0.00020811 0 0.000262864 0.000179096 0 0 -2.29834e-06 0 -9.05421e-07 -2.30739e-06 0 -1.81801e-06 -2.33459e-06 0 -2.745e-06 -2.38008e-06 0 -3.69367e-06 -2.44408e-06 0 -4.67146e-06 -2.52684e-06 0 -5.68596e-06 -2.62868e-06 0 -6.74491e-06 -2.74983e-06 0 -7.85626e-06 -2.89042e-06 0 -9.02807e-06 -3.05031e-06 0 -1.02685e-05 -3.22893e-06 0 -1.15857e-05 -3.42492e-06 0 -1.29875e-05 -3.63574e-06 0 -1.44811e-05 -3.85692e-06 0 -1.60727e-05 -4.08108e-06 0 -1.77663e-05 -4.29623e-06 0 -1.9563e-05 -4.48328e-06 0 -2.14586e-05 -4.61207e-06 0 -2.34409e-05 -4.63501e-06 0 -2.54855e-05 -4.47708e-06 0 -2.7549e-05 -4.01921e-06 0 -2.95592e-05 -3.07203e-06 0 -3.13953e-05 -1.33104e-06 0 -3.28649e-05 1.69463e-06 0 -3.36274e-05 6.80209e-06 0 -3.31025e-05 1.52837e-05 0 -3.00636e-05 2.91862e-05 0 -2.19966e-05 5.16116e-05 0 -2.59817e-06 8.60539e-05 0 4.12026e-05 0.000132295 0 0.000128041 0.000167938 0 0.000238007 0.000144577 0 0 -1.99597e-06 0 -9.11059e-07 -2.00383e-06 0 -1.82932e-06 -2.02743e-06 0 -2.76202e-06 -2.0669e-06 0 -3.71649e-06 -2.12242e-06 0 -4.70017e-06 -2.19421e-06 0 -5.72064e-06 -2.28251e-06 0 -6.78562e-06 -2.38752e-06 0 -7.903e-06 -2.50932e-06 0 -9.08073e-06 -2.64773e-06 0 -1.03268e-05 -2.80219e-06 0 -1.1649e-05 -2.9714e-06 0 -1.30547e-05 -3.153e-06 0 -1.45504e-05 -3.34286e-06 0 -1.61411e-05 -3.53417e-06 0 -1.78291e-05 -3.71593e-06 0 -1.96125e-05 -3.8706e-06 0 -2.14827e-05 -3.97044e-06 0 -2.34207e-05 -3.97176e-06 0 -2.53909e-05 -3.80527e-06 0 -2.73325e-05 -3.36142e-06 0 -2.9144e-05 -2.46484e-06 0 -3.06598e-05 -8.35241e-07 0 -3.16087e-05 1.97998e-06 0 -3.15354e-05 6.70541e-06 0 -2.9657e-05 1.44944e-05 0 -2.45113e-05 2.70933e-05 0 -1.32881e-05 4.689e-05 0 9.82141e-06 7.59021e-05 0 5.48982e-05 0.000111554 0 0.000131545 0.000135214 0 0.00022117 0.000115878 0 0 -1.69186e-06 0 -9.15897e-07 -1.69851e-06 0 -1.83902e-06 -1.71851e-06 0 -2.77663e-06 -1.75194e-06 0 -3.73608e-06 -1.79895e-06 0 -4.7248e-06 -1.85974e-06 0 -5.75038e-06 -1.93449e-06 0 -6.82052e-06 -2.02335e-06 0 -7.94303e-06 -2.12637e-06 0 -9.12579e-06 -2.24336e-06 0 -1.03766e-05 -2.37379e-06 0 -1.1703e-05 -2.51649e-06 0 -1.31119e-05 -2.66931e-06 0 -1.46092e-05 -2.82859e-06 0 -1.61987e-05 -2.98826e-06 0 -1.78812e-05 -3.13854e-06 0 -1.96522e-05 -3.26384e-06 0 -2.14991e-05 -3.33953e-06 0 -2.33966e-05 -3.32668e-06 0 -2.52991e-05 -3.1637e-06 0 -2.71297e-05 -2.75273e-06 0 -2.87609e-05 -1.93759e-06 0 -2.99852e-05 -4.68103e-07 0 -3.04635e-05 2.05691e-06 0 -2.96366e-05 6.27518e-06 0 -2.65628e-05 1.31774e-05 0 -1.96036e-05 2.42018e-05 0 -5.85042e-06 4.11094e-05 0 1.98296e-05 6.48522e-05 0 6.48168e-05 9.19266e-05 0 0.000133078 0.000107625 0 0.000207891 9.1839e-05 0 0 -1.38627e-06 0 -9.19933e-07 -1.39171e-06 0 -1.84711e-06 -1.40809e-06 0 -2.78882e-06 -1.43546e-06 0 -3.75241e-06 -1.47396e-06 0 -4.74533e-06 -1.52372e-06 0 -5.77516e-06 -1.5849e-06 0 -6.84959e-06 -1.65761e-06 0 -7.97637e-06 -1.74186e-06 0 -9.1633e-06 -1.8375e-06 0 -1.0418e-05 -1.94402e-06 0 -1.17478e-05 -2.06043e-06 0 -1.31593e-05 -2.18489e-06 0 -1.46577e-05 -2.31425e-06 0 -1.62459e-05 -2.44334e-06 0 -1.79234e-05 -2.56383e-06 0 -1.96833e-05 -2.66245e-06 0 -2.15097e-05 -2.71821e-06 0 -2.33716e-05 -2.69794e-06 0 -2.52148e-05 -2.54906e-06 0 -2.69482e-05 -2.18805e-06 0 -2.84216e-05 -1.48146e-06 0 -2.93912e-05 -2.15944e-07 0 -2.94598e-05 1.94942e-06 0 -2.79803e-05 5.55138e-06 0 -2.38887e-05 1.14069e-05 0 -1.5426e-05 2.06519e-05 0 2.89164e-07 3.45308e-05 0 2.76854e-05 5.33147e-05 0 7.19188e-05 7.34449e-05 0 0.000133574 8.38198e-05 0 0.00019838 7.13691e-05 0 0 -1.07946e-06 0 -9.23165e-07 -1.0837e-06 0 -1.85359e-06 -1.09645e-06 0 -2.79857e-06 -1.11775e-06 0 -3.76548e-06 -1.14771e-06 0 -4.76176e-06 -1.18643e-06 0 -5.795e-06 -1.23403e-06 0 -6.87284e-06 -1.29058e-06 0 -8.00303e-06 -1.35609e-06 0 -9.19326e-06 -1.43041e-06 0 -1.04511e-05 -1.51314e-06 0 -1.17836e-05 -1.60347e-06 0 -1.3197e-05 -1.6999e-06 0 -1.46962e-05 -1.7999e-06 0 -1.62832e-05 -1.89932e-06 0 -1.79563e-05 -1.99147e-06 0 -1.97069e-05 -2.0657e-06 0 -2.15161e-05 -2.10515e-06 0 -2.33484e-05 -2.08317e-06 0 -2.51422e-05 -1.9575e-06 0 -2.67946e-05 -1.66094e-06 0 -2.81369e-05 -1.08618e-06 0 -2.88947e-05 -6.17418e-08 0 -2.86239e-05 1.68517e-06 0 -2.66072e-05 4.58079e-06 0 -2.1689e-05 9.26176e-06 0 -1.20368e-05 1.65801e-05 0 5.1441e-06 2.73721e-05 0 3.36362e-05 4.15428e-05 0 7.69142e-05 5.59977e-05 0 0.000133569 6.27288e-05 0 0.00019106 5.32264e-05 0 -9.64301e-22 -7.71719e-07 0 -9.2559e-07 -7.74749e-07 0 -1.85845e-06 -7.83856e-07 0 -2.80589e-06 -7.99081e-07 0 -3.77528e-06 -8.20488e-07 0 -4.77409e-06 -8.48155e-07 0 -5.80987e-06 -8.82158e-07 0 -6.89028e-06 -9.22552e-07 0 -8.02301e-06 -9.69334e-07 0 -9.21572e-06 -1.02239e-06 0 -1.04758e-05 -1.08142e-06 0 -1.18103e-05 -1.14582e-06 0 -1.32252e-05 -1.21449e-06 0 -1.47248e-05 -1.28559e-06 0 -1.63108e-05 -1.35607e-06 0 -1.79805e-05 -1.42103e-06 0 -1.97238e-05 -1.47271e-06 0 -2.15196e-05 -1.49875e-06 0 -2.3329e-05 -1.47967e-06 0 -2.50846e-05 -1.38452e-06 0 -2.66745e-05 -1.1641e-06 0 -2.79154e-05 -7.39821e-07 0 -2.85098e-05 1.37345e-08 0 -2.79777e-05 1.29552e-06 0 -2.55494e-05 3.41426e-06 0 -2.00055e-05 6.82441e-06 0 -9.47184e-06 1.21148e-05 0 8.74267e-06 1.98093e-05 0 3.79023e-05 2.96821e-05 0 8.02889e-05 3.93884e-05 0 0.000133369 4.35507e-05 0 0.000186063 3.69214e-05 0 -4.92251e-21 -4.63301e-07 0 -9.27207e-07 -4.6512e-07 0 -1.86169e-06 -4.70586e-07 0 -2.81077e-06 -4.79723e-07 0 -3.78182e-06 -4.92571e-07 0 -4.78231e-06 -5.09174e-07 0 -5.81979e-06 -5.29579e-07 0 -6.90191e-06 -5.53815e-07 0 -8.03633e-06 -5.81879e-07 0 -9.23068e-06 -6.13699e-07 0 -1.04923e-05 -6.4909e-07 0 -1.18281e-05 -6.8768e-07 0 -1.32439e-05 -7.28802e-07 0 -1.47438e-05 -7.71326e-07 0 -1.63291e-05 -8.13397e-07 0 -1.79964e-05 -8.52033e-07 0 -1.97347e-05 -8.8249e-07 0 -2.15214e-05 -8.97254e-07 0 -2.33151e-05 -8.84434e-07 0 -2.50447e-05 -8.25166e-07 0 -2.6592e-05 -6.89428e-07 0 -2.77639e-05 -4.29306e-07 0 -2.82472e-05 3.16457e-08 0 -2.75376e-05 8.14405e-07 0 -2.48311e-05 2.10583e-06 0 -1.88675e-05 4.17815e-06 0 -7.7529e-06 7.37598e-06 0 1.11192e-05 1.19835e-05 0 4.06504e-05 1.78043e-05 0 8.23752e-05 2.33877e-05 0 0.000133154 2.56473e-05 0 0.000182766 2.17003e-05 0 -2.92398e-22 -1.54478e-07 0 -9.28016e-07 -1.55085e-07 0 -1.86332e-06 -1.56907e-07 0 -2.81321e-06 -1.59954e-07 0 -3.78509e-06 -1.64237e-07 0 -4.78642e-06 -1.69772e-07 0 -5.82475e-06 -1.76574e-07 0 -6.90772e-06 -1.84652e-07 0 -8.04299e-06 -1.94006e-07 0 -9.23815e-06 -2.04611e-07 0 -1.05006e-05 -2.16403e-07 0 -1.1837e-05 -2.29258e-07 0 -1.32532e-05 -2.42952e-07 0 -1.47533e-05 -2.57104e-07 0 -1.63382e-05 -2.71091e-07 0 -1.80042e-05 -2.83912e-07 0 -1.974e-05 -2.93973e-07 0 -2.15221e-05 -2.98749e-07 0 -2.33079e-05 -2.94245e-07 0 -2.50243e-05 -2.74123e-07 0 -2.65501e-05 -2.28293e-07 0 -2.7687e-05 -1.40653e-07 0 -2.8114e-05 1.44765e-08 0 -2.73148e-05 2.77687e-07 0 -2.44679e-05 7.11527e-07 0 -1.8294e-05 1.40663e-06 0 -6.89091e-06 2.47634e-06 0 1.22998e-05 4.01031e-06 0 4.19962e-05 5.93307e-06 0 8.33703e-05 7.75506e-06 0 0.000133025 8.46961e-06 0 0.0001812 7.1722e-06 0 0 1.54478e-07 0 -9.28016e-07 1.55085e-07 0 -1.86332e-06 1.56907e-07 0 -2.81321e-06 1.59954e-07 0 -3.78509e-06 1.64237e-07 0 -4.78642e-06 1.69772e-07 0 -5.82475e-06 1.76574e-07 0 -6.90772e-06 1.84652e-07 0 -8.04299e-06 1.94006e-07 0 -9.23815e-06 2.04611e-07 0 -1.05006e-05 2.16403e-07 0 -1.1837e-05 2.29258e-07 0 -1.32532e-05 2.42952e-07 0 -1.47533e-05 2.57104e-07 0 -1.63382e-05 2.71091e-07 0 -1.80042e-05 2.83912e-07 0 -1.974e-05 2.93973e-07 0 -2.15221e-05 2.98749e-07 0 -2.33079e-05 2.94245e-07 0 -2.50243e-05 2.74123e-07 0 -2.65501e-05 2.28293e-07 0 -2.7687e-05 1.40653e-07 0 -2.8114e-05 -1.44765e-08 0 -2.73148e-05 -2.77687e-07 0 -2.44679e-05 -7.11527e-07 0 -1.8294e-05 -1.40663e-06 0 -6.89091e-06 -2.47634e-06 0 1.22998e-05 -4.01031e-06 0 4.19962e-05 -5.93307e-06 0 8.33703e-05 -7.75506e-06 0 0.000133025 -8.46961e-06 0 0.0001812 -7.1722e-06 0 0 4.63301e-07 0 -9.27207e-07 4.6512e-07 0 -1.86169e-06 4.70586e-07 0 -2.81077e-06 4.79723e-07 0 -3.78182e-06 4.92571e-07 0 -4.78231e-06 5.09174e-07 0 -5.81979e-06 5.29579e-07 0 -6.90191e-06 5.53815e-07 0 -8.03633e-06 5.81879e-07 0 -9.23068e-06 6.13699e-07 0 -1.04923e-05 6.4909e-07 0 -1.18281e-05 6.8768e-07 0 -1.32439e-05 7.28802e-07 0 -1.47438e-05 7.71326e-07 0 -1.63291e-05 8.13397e-07 0 -1.79964e-05 8.52033e-07 0 -1.97347e-05 8.8249e-07 0 -2.15214e-05 8.97254e-07 0 -2.33151e-05 8.84434e-07 0 -2.50447e-05 8.25166e-07 0 -2.6592e-05 6.89428e-07 0 -2.77639e-05 4.29306e-07 0 -2.82472e-05 -3.16457e-08 0 -2.75376e-05 -8.14405e-07 0 -2.48311e-05 -2.10583e-06 0 -1.88675e-05 -4.17815e-06 0 -7.7529e-06 -7.37598e-06 0 1.11192e-05 -1.19835e-05 0 4.06504e-05 -1.78043e-05 0 8.23752e-05 -2.33877e-05 0 0.000133154 -2.56473e-05 0 0.000182766 -2.17003e-05 0 1.84872e-21 7.71719e-07 0 -9.2559e-07 7.74749e-07 0 -1.85845e-06 7.83856e-07 0 -2.80589e-06 7.99081e-07 0 -3.77528e-06 8.20488e-07 0 -4.77409e-06 8.48155e-07 0 -5.80987e-06 8.82158e-07 0 -6.89028e-06 9.22552e-07 0 -8.02301e-06 9.69334e-07 0 -9.21572e-06 1.02239e-06 0 -1.04758e-05 1.08142e-06 0 -1.18103e-05 1.14582e-06 0 -1.32252e-05 1.21449e-06 0 -1.47248e-05 1.28559e-06 0 -1.63108e-05 1.35607e-06 0 -1.79805e-05 1.42103e-06 0 -1.97238e-05 1.47271e-06 0 -2.15196e-05 1.49875e-06 0 -2.3329e-05 1.47967e-06 0 -2.50846e-05 1.38452e-06 0 -2.66745e-05 1.1641e-06 0 -2.79154e-05 7.39821e-07 0 -2.85098e-05 -1.37345e-08 0 -2.79777e-05 -1.29552e-06 0 -2.55494e-05 -3.41426e-06 0 -2.00055e-05 -6.82441e-06 0 -9.47184e-06 -1.21148e-05 0 8.74267e-06 -1.98093e-05 0 3.79023e-05 -2.96821e-05 0 8.02889e-05 -3.93884e-05 0 0.000133369 -4.35507e-05 0 0.000186063 -3.69214e-05 0 1.13095e-20 1.07946e-06 0 -9.23165e-07 1.0837e-06 0 -1.85359e-06 1.09645e-06 0 -2.79857e-06 1.11775e-06 0 -3.76548e-06 1.14771e-06 0 -4.76176e-06 1.18643e-06 0 -5.795e-06 1.23403e-06 0 -6.87284e-06 1.29058e-06 0 -8.00303e-06 1.35609e-06 0 -9.19326e-06 1.43041e-06 0 -1.04511e-05 1.51314e-06 0 -1.17836e-05 1.60347e-06 0 -1.3197e-05 1.6999e-06 0 -1.46962e-05 1.7999e-06 0 -1.62832e-05 1.89932e-06 0 -1.79563e-05 1.99147e-06 0 -1.97069e-05 2.0657e-06 0 -2.15161e-05 2.10515e-06 0 -2.33484e-05 2.08317e-06 0 -2.51422e-05 1.9575e-06 0 -2.67946e-05 1.66094e-06 0 -2.81369e-05 1.08618e-06 0 -2.88947e-05 6.17418e-08 0 -2.86239e-05 -1.68517e-06 0 -2.66072e-05 -4.58079e-06 0 -2.1689e-05 -9.26176e-06 0 -1.20368e-05 -1.65801e-05 0 5.1441e-06 -2.73721e-05 0 3.36362e-05 -4.15428e-05 0 7.69142e-05 -5.59977e-05 0 0.000133569 -6.27288e-05 0 0.00019106 -5.32264e-05 0 1.24022e-21 1.38627e-06 0 -9.19933e-07 1.39171e-06 0 -1.84711e-06 1.40809e-06 0 -2.78882e-06 1.43546e-06 0 -3.75241e-06 1.47396e-06 0 -4.74533e-06 1.52372e-06 0 -5.77516e-06 1.5849e-06 0 -6.84959e-06 1.65761e-06 0 -7.97637e-06 1.74186e-06 0 -9.1633e-06 1.8375e-06 0 -1.0418e-05 1.94402e-06 0 -1.17478e-05 2.06043e-06 0 -1.31593e-05 2.18489e-06 0 -1.46577e-05 2.31425e-06 0 -1.62459e-05 2.44334e-06 0 -1.79234e-05 2.56383e-06 0 -1.96833e-05 2.66245e-06 0 -2.15097e-05 2.71821e-06 0 -2.33716e-05 2.69794e-06 0 -2.52148e-05 2.54906e-06 0 -2.69482e-05 2.18805e-06 0 -2.84216e-05 1.48146e-06 0 -2.93912e-05 2.15944e-07 0 -2.94598e-05 -1.94942e-06 0 -2.79803e-05 -5.55138e-06 0 -2.38887e-05 -1.14069e-05 0 -1.5426e-05 -2.06519e-05 0 2.89164e-07 -3.45308e-05 0 2.76854e-05 -5.33147e-05 0 7.19188e-05 -7.34449e-05 0 0.000133574 -8.38198e-05 0 0.00019838 -7.13691e-05 0 0 1.69186e-06 0 -9.15897e-07 1.69851e-06 0 -1.83902e-06 1.71851e-06 0 -2.77663e-06 1.75194e-06 0 -3.73608e-06 1.79895e-06 0 -4.7248e-06 1.85974e-06 0 -5.75038e-06 1.93449e-06 0 -6.82052e-06 2.02335e-06 0 -7.94303e-06 2.12637e-06 0 -9.12579e-06 2.24336e-06 0 -1.03766e-05 2.37379e-06 0 -1.1703e-05 2.51649e-06 0 -1.31119e-05 2.66931e-06 0 -1.46092e-05 2.82859e-06 0 -1.61987e-05 2.98826e-06 0 -1.78812e-05 3.13854e-06 0 -1.96522e-05 3.26384e-06 0 -2.14991e-05 3.33953e-06 0 -2.33966e-05 3.32668e-06 0 -2.52991e-05 3.1637e-06 0 -2.71297e-05 2.75273e-06 0 -2.87609e-05 1.93759e-06 0 -2.99852e-05 4.68103e-07 0 -3.04635e-05 -2.05691e-06 0 -2.96366e-05 -6.27518e-06 0 -2.65628e-05 -1.31774e-05 0 -1.96036e-05 -2.42018e-05 0 -5.85042e-06 -4.11094e-05 0 1.98296e-05 -6.48522e-05 0 6.48168e-05 -9.19266e-05 0 0.000133078 -0.000107625 0 0.000207891 -9.1839e-05 0 0 1.99597e-06 0 -9.11059e-07 2.00383e-06 0 -1.82932e-06 2.02743e-06 0 -2.76202e-06 2.0669e-06 0 -3.71649e-06 2.12242e-06 0 -4.70017e-06 2.19421e-06 0 -5.72064e-06 2.28251e-06 0 -6.78562e-06 2.38752e-06 0 -7.903e-06 2.50932e-06 0 -9.08073e-06 2.64773e-06 0 -1.03268e-05 2.80219e-06 0 -1.1649e-05 2.9714e-06 0 -1.30547e-05 3.153e-06 0 -1.45504e-05 3.34286e-06 0 -1.61411e-05 3.53417e-06 0 -1.78291e-05 3.71593e-06 0 -1.96125e-05 3.8706e-06 0 -2.14827e-05 3.97044e-06 0 -2.34207e-05 3.97176e-06 0 -2.53909e-05 3.80527e-06 0 -2.73325e-05 3.36142e-06 0 -2.9144e-05 2.46484e-06 0 -3.06598e-05 8.35241e-07 0 -3.16087e-05 -1.97998e-06 0 -3.15354e-05 -6.70541e-06 0 -2.9657e-05 -1.44944e-05 0 -2.45113e-05 -2.70933e-05 0 -1.32881e-05 -4.689e-05 0 9.82141e-06 -7.59021e-05 0 5.48982e-05 -0.000111554 0 0.000131545 -0.000135214 0 0.00022117 -0.000115878 0 0 2.29834e-06 0 -9.05421e-07 2.30739e-06 0 -1.81801e-06 2.33459e-06 0 -2.745e-06 2.38008e-06 0 -3.69367e-06 2.44408e-06 0 -4.67146e-06 2.52684e-06 0 -5.68596e-06 2.62868e-06 0 -6.74491e-06 2.74983e-06 0 -7.85626e-06 2.89042e-06 0 -9.02807e-06 3.05031e-06 0 -1.02685e-05 3.22893e-06 0 -1.15857e-05 3.42492e-06 0 -1.29875e-05 3.63574e-06 0 -1.44811e-05 3.85692e-06 0 -1.60727e-05 4.08108e-06 0 -1.77663e-05 4.29623e-06 0 -1.9563e-05 4.48328e-06 0 -2.14586e-05 4.61207e-06 0 -2.34409e-05 4.63501e-06 0 -2.54855e-05 4.47708e-06 0 -2.7549e-05 4.01921e-06 0 -2.95592e-05 3.07203e-06 0 -3.13953e-05 1.33104e-06 0 -3.28649e-05 -1.69463e-06 0 -3.36274e-05 -6.80209e-06 0 -3.31025e-05 -1.52837e-05 0 -3.00636e-05 -2.91862e-05 0 -2.19966e-05 -5.16116e-05 0 -2.59817e-06 -8.60539e-05 0 4.12026e-05 -0.000132295 0 0.000128041 -0.000167938 0 0.000238007 -0.000144577 0 0 2.5987e-06 0 -8.98986e-07 2.60894e-06 0 -1.80511e-06 2.63973e-06 0 -2.72556e-06 2.69121e-06 0 -3.66761e-06 2.76365e-06 0 -4.63868e-06 2.85736e-06 0 -5.64634e-06 2.97269e-06 0 -6.69838e-06 3.10997e-06 0 -7.8028e-06 3.26936e-06 0 -8.96778e-06 3.45081e-06 0 -1.02017e-05 3.65373e-06 0 -1.1513e-05 3.87678e-06 0 -1.291e-05 4.11729e-06 0 -1.44008e-05 4.3706e-06 0 -1.59928e-05 4.62892e-06 0 -1.76921e-05 4.87952e-06 0 -1.95025e-05 5.10228e-06 0 -2.14248e-05 5.26514e-06 0 -2.34539e-05 5.318e-06 0 -2.55778e-05 5.18138e-06 0 -2.77708e-05 4.73041e-06 0 -2.99932e-05 3.76527e-06 0 -3.21697e-05 1.96691e-06 0 -3.41981e-05 -1.18339e-06 0 -3.58554e-05 -6.53107e-06 0 -3.68171e-05 -1.54816e-05 0 -3.61381e-05 -3.0343e-05 0 -3.18906e-05 -5.49671e-05 0 -1.7627e-05 -9.47308e-05 0 2.2442e-05 -0.000153675 0 0.00012081 -0.00020811 0 0.000262864 -0.000179096 0 0 2.89679e-06 0 -8.91759e-07 2.90821e-06 0 -1.79062e-06 2.94256e-06 0 -2.70372e-06 3.00001e-06 0 -3.63833e-06 3.08085e-06 0 -4.60182e-06 3.18547e-06 0 -5.60179e-06 3.31427e-06 0 -6.64603e-06 3.46764e-06 0 -7.74261e-06 3.64586e-06 0 -8.89984e-06 3.84891e-06 0 -1.01263e-05 4.07629e-06 0 -1.14307e-05 4.32667e-06 0 -1.28221e-05 4.59739e-06 0 -1.43093e-05 4.88369e-06 0 -1.59011e-05 5.1775e-06 0 -1.76055e-05 5.46585e-06 0 -1.94295e-05 5.72765e-06 0 -2.1379e-05 5.93031e-06 0 -2.34564e-05 6.02127e-06 0 -2.56622e-05 5.92037e-06 0 -2.79893e-05 5.4967e-06 0 -3.04313e-05 4.55043e-06 0 -3.29611e-05 2.74774e-06 0 -3.55679e-05 -4.30569e-07 0 -3.81636e-05 -5.87283e-06 0 -4.06867e-05 -1.50326e-05 0 -4.26095e-05 -3.04417e-05 0 -4.27237e-05 -5.66358e-05 0 -3.5456e-05 -0.000101092 0 -2.73175e-06 -0.000174738 0 0.000106369 -0.000257962 0 0.000296316 -0.000226041 0 0 3.19233e-06 0 -8.83744e-07 3.20494e-06 0 -1.77454e-06 3.24283e-06 0 -2.6795e-06 3.30621e-06 0 -3.60584e-06 3.39542e-06 0 -4.56092e-06 3.5109e-06 0 -5.55232e-06 3.65312e-06 0 -6.58787e-06 3.82256e-06 0 -7.67569e-06 4.01959e-06 0 -8.8242e-06 4.24429e-06 0 -1.00422e-05 4.49627e-06 0 -1.13388e-05 4.77428e-06 0 -1.27236e-05 5.07573e-06 0 -1.42062e-05 5.39587e-06 0 -1.57967e-05 5.72666e-06 0 -1.75055e-05 6.05492e-06 0 -1.93425e-05 6.35954e-06 0 -2.13191e-05 6.60733e-06 0 -2.34443e-05 6.74582e-06 0 -2.57334e-05 6.69372e-06 0 -2.81944e-05 6.32106e-06 0 -3.08604e-05 5.42675e-06 0 -3.37428e-05 3.68097e-06 0 -3.69387e-05 5.6407e-07 0 -4.04791e-05 -4.80797e-06 0 -4.46074e-05 -1.39073e-05 0 -4.92731e-05 -2.93933e-05 0 -5.42067e-05 -5.62465e-05 0 -5.58687e-05 -0.000104321 0 -3.59833e-05 -0.000192608 0 7.82054e-05 -0.000323415 0 0.000358704 -0.00028314 0 0 3.48508e-06 0 -8.74945e-07 3.49886e-06 0 -1.75689e-06 3.54026e-06 0 -2.65291e-06 3.60954e-06 0 -3.57016e-06 3.70707e-06 0 -4.51599e-06 3.83335e-06 0 -5.49796e-06 3.98894e-06 0 -6.52391e-06 4.17441e-06 0 -7.60202e-06 4.39023e-06 0 -8.74085e-06 4.63664e-06 0 -9.9494e-06 4.91334e-06 0 -1.12372e-05 5.21929e-06 0 -1.26142e-05 5.55192e-06 0 -1.40911e-05 5.90689e-06 0 -1.56794e-05 6.27589e-06 0 -1.73911e-05 6.6467e-06 0 -1.92405e-05 6.99718e-06 0 -2.12416e-05 7.2968e-06 0 -2.34162e-05 7.4901e-06 0 -2.57811e-05 7.50344e-06 0 -2.83859e-05 7.19984e-06 0 -3.12477e-05 6.39912e-06 0 -3.45255e-05 4.75815e-06 0 -3.8203e-05 1.81045e-06 0 -4.28613e-05 -3.35019e-06 0 -4.82151e-05 -1.20786e-05 0 -5.63504e-05 -2.71553e-05 0 -6.50945e-05 -5.35389e-05 0 -7.96653e-05 -0.000103279 0 -7.61122e-05 -0.000203597 0 2.17491e-05 -0.000404021 0 0.000453775 -0.000410479 0 0 3.77477e-06 0 -8.65368e-07 3.7897e-06 0 -1.73768e-06 3.8346e-06 0 -2.62395e-06 3.90974e-06 0 -3.5313e-06 4.01553e-06 0 -4.46704e-06 4.15254e-06 0 -5.43871e-06 4.32144e-06 0 -6.45416e-06 4.52288e-06 0 -7.52162e-06 4.75749e-06 0 -8.64976e-06 5.0256e-06 0 -9.8478e-06 5.32718e-06 0 -1.11256e-05 5.66124e-06 0 -1.24937e-05 6.02572e-06 0 -1.39636e-05 6.41606e-06 0 -1.55483e-05 6.82528e-06 0 -1.72615e-05 7.23984e-06 0 -1.91216e-05 7.64169e-06 0 -2.11453e-05 7.99529e-06 0 -2.33664e-05 8.25825e-06 0 -2.58037e-05 8.34028e-06 0 -2.8546e-05 8.14492e-06 0 -3.1596e-05 7.44332e-06 0 -3.52503e-05 6.0072e-06 0 -3.93915e-05 3.25465e-06 0 -4.51006e-05 -1.45568e-06 0 -5.16624e-05 -9.60969e-06 0 -6.3041e-05 -2.37456e-05 0 -7.59194e-05 -4.81115e-05 0 -0.000103577 -9.80421e-05 0 -0.000126001 -0.000198315 0 -8.23043e-05 -0.000506138 0 0.000712244 -0.000641198 0 0 4.06114e-06 0 -8.55021e-07 4.07722e-06 0 -1.71692e-06 4.12559e-06 0 -2.59266e-06 4.20653e-06 0 -3.4893e-06 4.32052e-06 0 -4.4141e-06 4.4682e-06 0 -5.37459e-06 4.65032e-06 0 -6.37863e-06 4.86767e-06 0 -7.43447e-06 5.12101e-06 0 -8.5509e-06 5.41085e-06 0 -9.73737e-06 5.73738e-06 0 -1.10039e-05 6.09981e-06 0 -1.2362e-05 6.49657e-06 0 -1.38231e-05 6.92316e-06 0 -1.54035e-05 7.37383e-06 0 -1.71146e-05 7.83455e-06 0 -1.89865e-05 8.29087e-06 0 -2.10233e-05 8.70451e-06 0 -2.32995e-05 9.0444e-06 0 -2.57808e-05 9.21018e-06 0 -2.86923e-05 9.14012e-06 0 -3.18469e-05 8.57557e-06 0 -3.5968e-05 7.38717e-06 0 -4.03516e-05 4.92629e-06 0 -4.73e-05 8.01727e-07 0 -5.46038e-05 -6.53008e-06 0 -6.93231e-05 -1.90833e-05 0 -8.5967e-05 -4.06348e-05 0 -0.000125484 -8.60669e-05 0 -0.00018214 -0.000177859 0 -0.000265391 -0.000556474 0 0.00118456 -0.00159651 0 0 4.34393e-06 0 -8.43907e-07 4.36116e-06 0 -1.69463e-06 4.41295e-06 0 -2.55904e-06 4.49964e-06 0 -3.44417e-06 4.62176e-06 0 -4.3572e-06 4.78003e-06 0 -5.30565e-06 4.97528e-06 0 -6.29734e-06 5.20846e-06 0 -7.34059e-06 5.48045e-06 0 -8.44434e-06 5.79204e-06 0 -9.61784e-06 6.1435e-06 0 -1.08726e-05 6.53471e-06 0 -1.22175e-05 6.96376e-06 0 -1.36725e-05 7.42816e-06 0 -1.52373e-05 7.91997e-06 0 -1.69645e-05 8.43201e-06 0 -1.88025e-05 8.94009e-06 0 -2.09378e-05 9.43014e-06 0 -2.30824e-05 9.83391e-06 0 -2.5966e-05 1.01335e-05 0 -2.83076e-05 1.0141e-05 0 -3.29772e-05 9.85569e-06 0 -3.47543e-05 8.78141e-06 0 -4.46718e-05 6.95036e-06 0 -4.25782e-05 3.22367e-06 0 -6.96318e-05 -2.86392e-06 0 -5.15645e-05 -1.2826e-05 0 -0.000137078 -3.34797e-05 0 -6.82208e-05 -6.05565e-05 0 -0.000357553 -0.000164777 0 -0.000417474 -0.000353571 0 0.00240902 -0.00443432 0 0 4.6229e-06 0 -8.3205e-07 4.64126e-06 0 -1.6708e-06 4.69645e-06 0 -2.52315e-06 4.78882e-06 0 -3.39591e-06 4.919e-06 0 -4.29641e-06 5.08773e-06 0 -5.23186e-06 5.29607e-06 0 -6.21037e-06 5.54487e-06 0 -7.24007e-06 5.83563e-06 0 -8.32961e-06 6.16852e-06 0 -9.49064e-06 6.54574e-06 0 -1.07277e-05 6.96435e-06 0 -1.20696e-05 7.42897e-06 0 -1.34897e-05 7.92636e-06 0 -1.50976e-05 8.47075e-06 0 -1.67061e-05 9.01694e-06 0 -1.87888e-05 9.61468e-06 0 -2.0429e-05 1.01227e-05 0 -2.36494e-05 1.07099e-05 0 -2.44594e-05 1.09581e-05 0 -3.11717e-05 1.13943e-05 0 -2.74875e-05 1.08632e-05 0 -4.62496e-05 1.0808e-05 0 -2.39036e-05 8.4188e-06 0 -8.54566e-05 6.74483e-06 0 7.11535e-06 8.97106e-07 0 -0.000204823 -7.53905e-06 0 0.00013403 -1.5821e-05 0 -0.000588451 -6.04312e-05 0 0.000457927 -3.43214e-05 0 -0.0012298 -0.000493351 0 -0.0268105 0.00278462 0 </DataArray> 
</PointData> 
<Points> 
<DataArray type="Float32" NumberOfComponents="3"> 