<?xml version="1.0"?> 
<VTKFile type="StructuredGrid" version="0.1"> 
<StructuredGrid WholeExtent="0 31 0 31 0 0"> 
<Piece Extent="0 31 0 31 0 0"> 
<PointData>
<DataArray type="Float32" Name="B" format="ascii" NumberOfComponents="3"> 
0.00399411 -0.015072 0 -0.000121007 0.00197366 0 -0.00090624 -0.000268924 0 0.000301619 9.34286e-05 0 -0.000328391 -6.80811e-05 0 5.00369e-05 -3.59663e-05 0 -0.000132839 -3.84643e-05 0 -1.83867e-05 -3.63367e-05 0 -6.03399e-05 -2.35928e-05 0 -2.16299e-05 -2.14539e-05 0 -2.51082e-05 -1.27391e-05 0 -8.82898e-06 -1.02985e-05 0 -4.45821e-06 -5.81388e-06 0 3.49848e-06 -4.12528e-06 0 7.27899e-06 -2.0719e-06 0 1.06173e-05 -1.14836e-06 0 1.17462e-05 -2.4367e-07 0 1.14571e-05 2.32906e-07 0 9.47412e-06 6.89844e-07 0 5.59246e-06 9.68513e-07 0 3.0547e-07 1.33029e-06 0 -7.99468e-06 1.49995e-06 0 -1.6509e-05 1.95326e-06 0 -3.19398e-05 1.97872e-06 0 -4.18189e-05 2.49905e-06 0 -7.3294e-05 2.81785e-06 0 -7.55748e-05 1.71003e-06 0 -0.000155445 7.99821e-06 0 -0.000122601 -9.59551e-06 0 -0.000374168 5.6367e-05 0 -0.000543689 -0.00019475 0 0.000672059 0.00397439 0 -0.000204219 -0.00105183 0 -0.000441512 -0.000298604 0 -0.000193355 -9.86903e-05 0 -0.000164914 -6.64707e-05 0 -8.37022e-05 -6.32042e-05 0 -8.36761e-05 -5.86631e-05 0 -5.4739e-05 -5.2787e-05 0 -4.89926e-05 -4.53036e-05 0 -3.34154e-05 -3.74767e-05 0 -2.50269e-05 -3.00132e-05 0 -1.44573e-05 -2.33252e-05 0 -6.82985e-06 -1.76258e-05 0 3.52482e-07 -1.28635e-05 0 5.66126e-06 -8.95882e-06 0 9.73458e-06 -5.7266e-06 0 1.22119e-05 -3.01595e-06 0 1.32414e-05 -6.53682e-07 0 1.27273e-05 1.49342e-06 0 1.06375e-05 3.55698e-06 0 6.91515e-06 5.63764e-06 0 1.34196e-06 7.83935e-06 0 -6.07861e-06 1.02405e-05 0 -1.59932e-05 1.29456e-05 0 -2.79558e-05 1.605e-05 0 -4.39592e-05 1.97739e-05 0 -6.16785e-05 2.45011e-05 0 -8.79323e-05 3.13311e-05 0 -0.000114107 4.26559e-05 0 -0.000163896 6.56462e-05 0 -0.000208425 0.000120514 0 -0.000271257 0.000279657 0 -5.31995e-05 0.000543227 0 6.5112e-05 -0.000185633 0 -0.000122264 -0.000305082 0 -0.00015397 -0.000161748 0 -0.00011111 -0.000115652 0 -9.03999e-05 -8.99611e-05 0 -6.56742e-05 -7.73931e-05 0 -5.20122e-05 -6.7272e-05 0 -3.74701e-05 -5.74742e-05 0 -2.67829e-05 -4.8406e-05 0 -1.65282e-05 -3.95458e-05 0 -8.17641e-06 -3.17455e-05 0 -8.01945e-07 -2.46909e-05 0 5.14189e-06 -1.86482e-05 0 9.88034e-06 -1.33435e-05 0 1.32763e-05 -8.73814e-06 0 1.53737e-05 -4.60499e-06 0 1.612e-05 -8.15613e-07 0 1.54905e-05 2.8138e-06 0 1.34214e-05 6.42057e-06 0 9.81297e-06 1.01662e-05 0 4.54546e-06 1.41787e-05 0 -2.60422e-06 1.86284e-05 0 -1.18054e-05 2.36329e-05 0 -2.34908e-05 2.9427e-05 0 -3.76888e-05 3.61932e-05 0 -5.51638e-05 4.45487e-05 0 -7.49236e-05 5.56583e-05 0 -9.85315e-05 7.22555e-05 0 -0.000120952 0.000100873 0 -0.000139031 0.000148819 0 -0.000114234 0.000229693 0 -1.68051e-05 0.00023847 0 -1.59043e-06 -0.000342378 0 -5.90264e-05 -0.00020194 0 -8.20993e-05 -0.000174326 0 -8.379e-05 -0.000132043 0 -6.88601e-05 -0.000109774 0 -5.50154e-05 -9.3827e-05 0 -3.97575e-05 -8.11984e-05 0 -2.74197e-05 -6.96759e-05 0 -1.64004e-05 -5.85326e-05 0 -7.42541e-06 -4.84177e-05 0 2.51118e-07 -3.9114e-05 0 6.54578e-06 -3.09109e-05 0 1.16907e-05 -2.35763e-05 0 1.56599e-05 -1.70928e-05 0 1.85009e-05 -1.12376e-05 0 2.01891e-05 -5.87526e-06 0 2.07102e-05 -8.03477e-07 0 2.00197e-05 4.14383e-06 0 1.80548e-05 9.1572e-06 0 1.47232e-05 1.44115e-05 0 9.8864e-06 2.01069e-05 0 3.37549e-06 2.64266e-05 0 -5.06752e-06 3.35983e-05 0 -1.56667e-05 4.1788e-05 0 -2.87499e-05 5.1225e-05 0 -4.40777e-05 6.20346e-05 0 -6.12524e-05 7.48025e-05 0 -7.73024e-05 9.13521e-05 0 -8.94296e-05 0.000114159 0 -8.9178e-05 0.000146667 0 -6.86972e-05 0.000176412 0 -2.55774e-05 0.000214936 0 1.02149e-05 -0.000126211 0 -2.93587e-05 -0.000184659 0 -5.30742e-05 -0.00015612 0 -5.76895e-05 -0.000138012 0 -5.30472e-05 -0.000120858 0 -4.11847e-05 -0.000107832 0 -2.80164e-05 -9.47391e-05 0 -1.54789e-05 -8.10159e-05 0 -5.59588e-06 -6.80522e-05 0 2.47472e-06 -5.61436e-05 0 8.96047e-06 -4.55742e-05 0 1.4261e-05 -3.61206e-05 0 1.84759e-05 -2.77283e-05 0 2.17115e-05 -2.01632e-05 0 2.39822e-05 -1.32717e-05 0 2.52948e-05 -6.83802e-06 0 2.56257e-05 -6.77748e-07 0 2.49376e-05 5.41664e-06 0 2.31719e-05 1.16452e-05 0 2.02414e-05 1.8229e-05 0 1.60311e-05 2.53941e-05 0 1.03611e-05 3.34006e-05 0 3.02364e-06 4.24995e-05 0 -6.34612e-06 5.29563e-05 0 -1.80374e-05 6.48455e-05 0 -3.24766e-05 7.7807e-05 0 -4.77214e-05 9.06347e-05 0 -6.076e-05 0.000103471 0 -6.71766e-05 0.000118858 0 -6.41897e-05 0.000136003 0 -4.85186e-05 0.00015363 0 -2.2774e-05 0.0001482 0 -7.59049e-07 -0.000180497 0 -2.23638e-05 -0.00014842 0 -3.7669e-05 -0.000146721 0 -4.44862e-05 -0.000136253 0 -4.20355e-05 -0.000128652 0 -3.03786e-05 -0.000122782 0 -1.08727e-05 -0.000108952 0 1.0822e-06 -9.17057e-05 0 9.77593e-06 -7.62097e-05 0 1.62057e-05 -6.26813e-05 0 2.13658e-05 -5.07936e-05 0 2.5452e-05 -4.03376e-05 0 2.87001e-05 -3.10063e-05 0 3.11591e-05 -2.2586e-05 0 3.28692e-05 -1.4832e-05 0 3.38232e-05 -7.53639e-06 0 3.40034e-05 -4.79171e-07 0 3.33759e-05 6.55233e-06 0 3.18908e-05 1.37856e-05 0 2.94856e-05 2.14619e-05 0 2.60538e-05 2.98532e-05 0 2.14825e-05 3.92643e-05 0 1.55016e-05 5.00498e-05 0 7.89616e-06 6.25894e-05 0 -2.25509e-06 7.72239e-05 0 -1.58927e-05 9.39073e-05 0 -3.70906e-05 0.000107315 0 -5.05825e-05 0.000112707 0 -5.50022e-05 0.000119897 0 -5.15106e-05 0.000128436 0 -4.07712e-05 0.000134043 0 -2.47484e-05 0.000141663 0 -6.29555e-06 -0.000117331 0 -2.12192e-05 -0.00013796 0 -3.29604e-05 -0.000134939 0 -3.94283e-05 -0.000134136 0 -3.96753e-05 -0.000133065 0 -3.29229e-05 -0.000139715 0 -2.1175e-05 -0.000123074 0 -1.28797e-05 -0.000100269 0 -7.03358e-06 -8.24661e-05 0 -2.6866e-06 -6.75014e-05 0 7.48725e-07 -5.46355e-05 0 3.50116e-06 -4.34006e-05 0 5.692e-06 -3.33961e-05 0 7.35913e-06 -2.43319e-05 0 8.50838e-06 -1.59416e-05 0 9.12568e-06 -7.99188e-06 0 9.18837e-06 -2.55795e-07 0 8.66821e-06 7.49044e-06 0 7.53196e-06 1.5487e-05 0 5.73887e-06 2.39863e-05 0 3.23306e-06 3.33005e-05 0 -6.5444e-08 4.37586e-05 0 -4.30197e-06 5.58485e-05 0 -9.70881e-06 7.00769e-05 0 -1.6843e-05 8.72932e-05 0 -2.66146e-05 0.000109633 0 -3.99802e-05 0.000125975 0 -4.85466e-05 0.00011913 0 -5.04413e-05 0.000119915 0 -4.67487e-05 0.000121398 0 -3.84209e-05 0.000123378 0 -2.7004e-05 0.000119159 0 -1.19899e-05 -0.000126442 0 -2.37886e-05 -0.000122683 0 -3.37356e-05 -0.000126899 0 -4.05895e-05 -0.000129583 0 -4.40897e-05 -0.000133898 0 -4.4053e-05 -0.000145021 0 -4.17832e-05 -0.000129192 0 -3.93001e-05 -0.000104916 0 -3.72278e-05 -8.59268e-05 0 -3.54915e-05 -7.02488e-05 0 -3.39908e-05 -5.68753e-05 0 -3.26843e-05 -4.52402e-05 0 -3.15817e-05 -3.48539e-05 0 -3.07104e-05 -2.54079e-05 0 -3.0106e-05 -1.6612e-05 0 -2.98024e-05 -8.2336e-06 0 -2.9829e-05 -4.17713e-08 0 -3.02086e-05 8.18479e-06 0 -3.0957e-05 1.66859e-05 0 -3.20827e-05 2.57173e-05 0 -3.35889e-05 3.55959e-05 0 -3.54761e-05 4.66786e-05 0 -3.77553e-05 5.94926e-05 0 -4.04651e-05 7.46718e-05 0 -4.37039e-05 9.32432e-05 0 -4.75099e-05 0.000117244 0 -5.12853e-05 0.000132926 0 -5.29768e-05 0.000121801 0 -5.14462e-05 0.000117796 0 -4.67488e-05 0.00011547 0 -3.9342e-05 0.000113575 0 -3.01626e-05 0.000112425 0 -1.88883e-05 -0.000104332 0 -2.83082e-05 -0.000114104 0 -3.73446e-05 -0.000117978 0 -4.54266e-05 -0.00012342 0 -5.20877e-05 -0.000129949 0 -5.76469e-05 -0.000143306 0 -6.21679e-05 -0.000128619 0 -6.51297e-05 -0.000104851 0 -6.69706e-05 -8.61857e-05 0 -6.79671e-05 -7.06989e-05 0 -6.84294e-05 -5.74402e-05 0 -6.85584e-05 -4.58271e-05 0 -6.85127e-05 -3.53934e-05 0 -6.84013e-05 -2.58322e-05 0 -6.8307e-05 -1.68713e-05 0 -6.82874e-05 -8.28666e-06 0 -6.83802e-05 1.37666e-07 0 -6.86037e-05 8.61089e-06 0 -6.89557e-05 1.73581e-05 0 -6.94122e-05 2.66192e-05 0 -6.99184e-05 3.66937e-05 0 -7.03889e-05 4.79172e-05 0 -7.06758e-05 6.07988e-05 0 -7.0587e-05 7.59513e-05 0 -6.97983e-05 9.43735e-05 0 -6.80424e-05 0.000118004 0 -6.48467e-05 0.000132706 0 -6.07908e-05 0.000119551 0 -5.57225e-05 0.000113429 0 -4.94594e-05 0.000108922 0 -4.21109e-05 0.000105819 0 -3.40436e-05 0.000101503 0 -2.41641e-05 -0.000101024 0 -3.32109e-05 -0.000104106 0 -4.23411e-05 -0.000109309 0 -5.15182e-05 -0.000114973 0 -6.13421e-05 -0.000121717 0 -7.22596e-05 -0.000135195 0 -8.28546e-05 -0.000121917 0 -9.11694e-05 -0.000100301 0 -9.65168e-05 -8.33179e-05 0 -9.99829e-05 -6.89552e-05 0 -0.000102186 -5.64058e-05 0 -0.000103607 -4.52428e-05 0 -0.000104506 -3.50751e-05 0 -0.000105075 -2.56594e-05 0 -0.000105433 -1.67578e-05 0 -0.00010566 -8.17893e-06 0 -0.0001058 2.68905e-07 0 -0.000105869 8.76885e-06 0 -0.000105849 1.75194e-05 0 -0.000105686 2.67265e-05 0 -0.000105284 3.66469e-05 0 -0.000104465 4.75513e-05 0 -0.000102983 5.98573e-05 0 -0.000100356 7.40271e-05 0 -9.59704e-05 9.08921e-05 0 -8.87227e-05 0.000112503 0 -7.93141e-05 0.000125912 0 -6.96542e-05 0.000112743 0 -6.12075e-05 0.00010656 0 -5.3365e-05 0.000101668 0 -4.56215e-05 9.79161e-05 0 -3.78757e-05 9.46037e-05 0 -2.98795e-05 -8.98166e-05 0 -3.81092e-05 -9.56464e-05 0 -4.71427e-05 -9.99246e-05 0 -5.71701e-05 -0.000104801 0 -6.9108e-05 -0.000109764 0 -8.61558e-05 -0.00011831 0 -0.000108726 -0.000108326 0 -0.000121161 -9.19434e-05 0 -0.000129191 -7.79314e-05 0 -0.000134332 -6.53986e-05 0 -0.000137908 -5.40378e-05 0 -0.000140327 -4.36569e-05 0 -0.000142003 -3.40227e-05 0 -0.000143128 -2.49708e-05 0 -0.000143863 -1.63264e-05 0 -0.000144291 -7.93846e-06 0 -0.000144466 3.47632e-07 0 -0.000144396 8.68181e-06 0 -0.000144054 1.72245e-05 0 -0.000143374 2.61376e-05 0 -0.000142212 3.56126e-05 0 -0.00014039 4.58334e-05 0 -0.000137499 5.7058e-05 0 -0.000133138 6.95014e-05 0 -0.000125974 8.35e-05 0 -0.000114495 9.99682e-05 0 -9.29446e-05 0.000110169 0 -7.69891e-05 0.000102002 0 -6.61444e-05 9.76052e-05 0 -5.72405e-05 9.35694e-05 0 -4.91729e-05 9.02294e-05 0 -4.16629e-05 8.66149e-05 0 -3.42184e-05 -8.34257e-05 0 -4.22688e-05 -8.68908e-05 0 -5.11401e-05 -9.05847e-05 0 -6.11417e-05 -9.37764e-05 0 -7.30455e-05 -9.65102e-05 0 -8.79578e-05 -9.68551e-05 0 -0.000104357 -9.15086e-05 0 -0.000116673 -8.17573e-05 0 -0.000125264 -7.10903e-05 0 -0.000131342 -6.0647e-05 0 -0.000135685 -5.07172e-05 0 -0.000138804 -4.13147e-05 0 -0.000141024 -3.23978e-05 0 -0.000142571 -2.38725e-05 0 -0.00014359 -1.56414e-05 0 -0.000144174 -7.59461e-06 0 -0.00014437 3.77656e-07 0 -0.000144188 8.39022e-06 0 -0.000143596 1.65574e-05 0 -0.000142515 2.4998e-05 0 -0.000140815 3.38224e-05 0 -0.000138277 4.31412e-05 0 -0.000134585 5.30141e-05 0 -0.000129225 6.34489e-05 0 -0.000121419 7.41761e-05 0 -0.000109944 8.40804e-05 0 -9.44381e-05 8.96942e-05 0 -8.04367e-05 8.97552e-05 0 -6.94604e-05 8.75949e-05 0 -6.03175e-05 8.51381e-05 0 -5.22563e-05 8.24468e-05 0 -4.49067e-05 7.96609e-05 0 -3.81836e-05 -7.53866e-05 0 -4.56514e-05 -7.88276e-05 0 -5.39876e-05 -8.14358e-05 0 -6.335e-05 -8.33981e-05 0 -7.39056e-05 -8.41844e-05 0 -8.5646e-05 -8.30584e-05 0 -9.75741e-05 -7.87931e-05 0 -0.000107799 -7.19984e-05 0 -0.000115892 -6.39037e-05 0 -0.000122069 -5.53741e-05 0 -0.000126732 -4.68414e-05 0 -0.000130212 -3.8491e-05 0 -0.00013277 -3.0374e-05 0 -0.000134591 -2.24819e-05 0 -0.000135804 -1.477e-05 0 -0.000136495 -7.17693e-06 0 -0.000136705 3.68906e-07 0 -0.000136441 7.94255e-06 0 -0.000135673 1.56194e-05 0 -0.000134328 2.34678e-05 0 -0.000132285 3.15431e-05 0 -0.000129367 3.98663e-05 0 -0.000125316 4.8402e-05 0 -0.000119801 5.69806e-05 0 -0.000112415 6.51888e-05 0 -0.000102938 7.21785e-05 0 -9.17793e-05 7.67388e-05 0 -8.08219e-05 7.82769e-05 0 -7.10221e-05 7.80318e-05 0 -6.23828e-05 7.67611e-05 0 -5.46562e-05 7.49471e-05 0 -4.76416e-05 7.26718e-05 0 -4.11444e-05 -6.88261e-05 0 -4.81735e-05 -7.11459e-05 0 -5.58819e-05 -7.30013e-05 0 -6.4305e-05 -7.40194e-05 0 -7.34386e-05 -7.39242e-05 0 -8.3011e-05 -7.2199e-05 0 -9.23727e-05 -6.86885e-05 0 -0.000100932 -6.34711e-05 0 -0.000108162 -5.70809e-05 0 -0.000114035 -5.00579e-05 0 -0.000118672 -4.27687e-05 0 -0.000122262 -3.54213e-05 0 -0.000124972 -2.81216e-05 0 -0.000126939 -2.09075e-05 0 -0.000128265 -1.37786e-05 0 -0.000129019 -6.71096e-06 0 -0.000129236 3.31866e-07 0 -0.000128921 7.39134e-06 0 -0.000128048 1.45066e-05 0 -0.000126556 2.17077e-05 0 -0.000124351 2.9003e-05 0 -0.0001213 3.6365e-05 0 -0.000117236 4.36998e-05 0 -0.000111972 5.08127e-05 0 -0.000105381 5.73507e-05 0 -9.74826e-05 6.27881e-05 0 -8.87941e-05 6.66034e-05 0 -7.9886e-05 6.87302e-05 0 -7.13959e-05 6.93338e-05 0 -6.35544e-05 6.89285e-05 0 -5.63612e-05 6.78098e-05 0 -4.97523e-05 6.62017e-05 0 -4.35784e-05 -6.2242e-05 0 -5.00231e-05 -6.41268e-05 0 -5.70219e-05 -6.53317e-05 0 -6.45334e-05 -6.57703e-05 0 -7.24366e-05 -6.52056e-05 0 -8.05119e-05 -6.34632e-05 0 -8.84202e-05 -6.03795e-05 0 -9.56904e-05 -5.60908e-05 0 -0.000102089 -5.08568e-05 0 -0.000107491 -4.49843e-05 0 -0.000111916 -3.87349e-05 0 -0.000115442 -3.22944e-05 0 -0.000118166 -2.57766e-05 0 -0.000120178 -1.92443e-05 0 -0.000121549 -1.27239e-05 0 -0.000122331 -6.2195e-06 0 -0.00012255 2.78049e-07 0 -0.00012221 6.78249e-06 0 -0.000121291 1.33052e-05 0 -0.000119748 1.98467e-05 0 -0.000117513 2.63871e-05 0 -0.0001145 3.28717e-05 0 -0.000110611 3.91963e-05 0 -0.00010577 4.51854e-05 0 -9.99485e-05 5.05879e-05 0 -9.3267e-05 5.51076e-05 0 -8.59465e-05 5.84943e-05 0 -7.84468e-05 6.06195e-05 0 -7.10847e-05 6.16511e-05 0 -6.40687e-05 6.17668e-05 0 -5.74846e-05 6.11876e-05 0 -5.13524e-05 6.00531e-05 0 -4.53728e-05 -5.6372e-05 0 -5.13129e-05 -5.76793e-05 0 -5.76565e-05 -5.84444e-05 0 -6.43379e-05 -5.85027e-05 0 -7.12477e-05 -5.77308e-05 0 -7.81969e-05 -5.60015e-05 0 -8.49315e-05 -5.32996e-05 0 -9.12392e-05 -4.96687e-05 0 -9.68979e-05 -4.52621e-05 0 -0.000101806 -4.02721e-05 0 -0.00010593 -3.48812e-05 0 -0.000109292 -2.92354e-05 0 -0.000111939 -2.34405e-05 0 -0.000113923 -1.75653e-05 0 -0.000115289 -1.16512e-05 0 -0.000116071 -5.72027e-06 0 -0.000116289 2.16841e-07 0 -0.000115945 6.15372e-06 0 -0.000115024 1.20814e-05 0 -0.000113497 1.79815e-05 0 -0.000111321 2.38178e-05 0 -0.000108445 2.95277e-05 0 -0.000104823 3.50129e-05 0 -0.00010043 4.01354e-05 0 -9.52954e-05 4.47206e-05 0 -8.95137e-05 4.85841e-05 0 -8.32982e-05 5.15791e-05 0 -7.6848e-05 5.3667e-05 0 -7.0406e-05 5.48656e-05 0 -6.4141e-05 5.52999e-05 0 -5.81536e-05 5.50928e-05 0 -5.24946e-05 5.43689e-05 0 -4.67632e-05 -5.08489e-05 0 -5.21956e-05 -5.18169e-05 0 -5.7935e-05 -5.22512e-05 0 -6.39076e-05 -5.20774e-05 0 -7.00028e-05 -5.12038e-05 0 -7.60802e-05 -4.95757e-05 0 -8.19774e-05 -4.71664e-05 0 -8.75059e-05 -4.40261e-05 0 -9.25377e-05 -4.0248e-05 0 -9.69744e-05 -3.59551e-05 0 -0.000100772 -3.12747e-05 0 -0.000103921 -2.63197e-05 0 -0.000106438 -2.11799e-05 0 -0.000108346 -1.59221e-05 0 -0.000109672 -1.05935e-05 0 -0.000110436 -5.22649e-06 0 -0.00011065 1.55495e-07 0 -0.000110315 5.53246e-06 0 -0.000109424 1.08824e-05 0 -0.000107957 1.61756e-05 0 -0.000105891 2.13691e-05 0 -0.000103202 2.64008e-05 0 -9.98737e-05 3.11866e-05 0 -9.59124e-05 3.56196e-05 0 -9.13578e-05 3.95788e-05 0 -8.63024e-05 4.29464e-05 0 -8.08659e-05 4.56339e-05 0 -7.52278e-05 4.75939e-05 0 -6.95378e-05 4.88541e-05 0 -6.39269e-05 4.94677e-05 0 -5.84895e-05 4.9519e-05 0 -5.32877e-05 4.9088e-05 0 -4.77749e-05 -4.58046e-05 0 -5.27667e-05 -4.64649e-05 0 -5.79796e-05 -4.66721e-05 0 -6.3345e-05 -4.63517e-05 0 -6.87735e-05 -4.54485e-05 0 -7.41513e-05 -4.39227e-05 0 -7.93498e-05 -4.17732e-05 0 -8.42538e-05 -3.90274e-05 0 -8.87497e-05 -3.57491e-05 0 -9.27604e-05 -3.20226e-05 0 -9.62364e-05 -2.79391e-05 0 -9.91559e-05 -2.35847e-05 0 -0.000101515 -1.90339e-05 0 -0.000103322 -1.43474e-05 0 -0.000104586 -9.57267e-06 0 -0.000105319 -4.74707e-06 0 -0.000105528 9.8802e-08 0 -0.000105212 4.93695e-06 0 -0.000104368 9.73785e-06 0 -0.000102987 1.44664e-05 0 -0.000101058 1.9078e-05 0 -9.85731e-05 2.3516e-05 0 -9.55357e-05 2.771e-05 0 -9.19645e-05 3.15783e-05 0 -8.79052e-05 3.50343e-05 0 -8.34292e-05 3.79975e-05 0 -7.86437e-05 4.04071e-05 0 -7.36551e-05 4.22374e-05 0 -6.85842e-05 4.34893e-05 0 -6.35338e-05 4.42001e-05 0 -5.85862e-05 4.44214e-05 0 -5.38017e-05 4.42146e-05 0 -4.85249e-05 -4.11249e-05 0 -5.31135e-05 -4.15751e-05 0 -5.78652e-05 -4.162e-05 0 -6.27172e-05 -4.12141e-05 0 -6.75911e-05 -4.03171e-05 0 -7.23978e-05 -3.89074e-05 0 -7.70423e-05 -3.69817e-05 0 -8.14256e-05 -3.45643e-05 0 -8.54669e-05 -3.16993e-05 0 -8.90984e-05 -2.84464e-05 0 -9.22742e-05 -2.48722e-05 0 -9.49657e-05 -2.10435e-05 0 -9.71595e-05 -1.70214e-05 0 -9.8852e-05 -1.2859e-05 0 -0.000100045 -8.6016e-06 0 -0.00010074 -4.28749e-06 0 -0.000100942 4.95835e-08 0 -0.00010065 4.37773e-06 0 -9.98632e-05 8.66407e-06 0 -9.85783e-05 1.28719e-05 0 -9.6794e-05 1.69584e-05 0 -9.45135e-05 2.08731e-05 0 -9.17484e-05 2.45582e-05 0 -8.85247e-05 2.79502e-05 0 -8.48847e-05 3.09857e-05 0 -8.08914e-05 3.36076e-05 0 -7.66196e-05 3.57735e-05 0 -7.21621e-05 3.74602e-05 0 -6.76062e-05 3.867e-05 0 -6.30342e-05 3.94224e-05 0 -5.85165e-05 3.97531e-05 0 -5.41091e-05 3.97045e-05 0 -4.90558e-05 -3.68032e-05 0 -5.32948e-05 -3.70866e-05 0 -5.76493e-05 -3.70213e-05 0 -6.20643e-05 -3.65695e-05 0 -6.64753e-05 -3.57039e-05 0 -7.08088e-05 -3.44089e-05 0 -7.49873e-05 -3.26859e-05 0 -7.89377e-05 -3.05517e-05 0 -8.25905e-05 -2.80388e-05 0 -8.58898e-05 -2.51911e-05 0 -8.87924e-05 -2.2059e-05 0 -9.12687e-05 -1.86945e-05 0 -9.33e-05 -1.51476e-05 0 -9.48764e-05 -1.14645e-05 0 -9.59932e-05 -7.68645e-06 0 -9.66491e-05 -3.85055e-06 0 -9.68437e-05 9.10858e-09 0 -9.65772e-05 3.85969e-06 0 -9.58501e-05 7.66773e-06 0 -9.46637e-05 1.13974e-05 0 -9.30222e-05 1.50091e-05 0 -9.09344e-05 1.84589e-05 0 -8.84172e-05 2.16991e-05 0 -8.54977e-05 2.46799e-05 0 -8.22157e-05 2.73533e-05 0 -7.86229e-05 2.96771e-05 0 -7.47839e-05 3.16199e-05 0 -7.07663e-05 3.31649e-05 0 -6.6642e-05 3.431e-05 0 -6.24781e-05 3.50681e-05 0 -5.83342e-05 3.54634e-05 0 -5.42606e-05 3.55274e-05 0 -4.94284e-05 -3.27846e-05 0 -5.33588e-05 -3.29491e-05 0 -5.73704e-05 -3.28102e-05 0 -6.14146e-05 -3.23413e-05 0 -6.5436e-05 -3.1522e-05 0 -6.93741e-05 -3.03425e-05 0 -7.31666e-05 -2.88037e-05 0 -7.67514e-05 -2.69195e-05 0 -8.0073e-05 -2.47141e-05 0 -8.30827e-05 -2.22206e-05 0 -8.57417e-05 -1.94778e-05 0 -8.80207e-05 -1.6527e-05 0 -8.98992e-05 -1.34093e-05 0 -9.13636e-05 -1.01642e-05 0 -9.24059e-05 -6.82865e-06 0 -9.30217e-05 -3.43716e-06 0 -9.3209e-05 -2.23942e-08 0 -9.29676e-05 3.38377e-06 0 -9.22993e-05 6.74913e-06 0 -9.12079e-05 1.00401e-05 0 -8.97005e-05 1.32211e-05 0 -8.77893e-05 1.62541e-05 0 -8.5493e-05 1.90996e-05 0 -8.28385e-05 2.17181e-05 0 -7.98614e-05 2.40723e-05 0 -7.66068e-05 2.61301e-05 0 -7.31259e-05 2.78678e-05 0 -6.94765e-05 2.92715e-05 0 -6.57159e-05 3.03389e-05 0 -6.19001e-05 3.10778e-05 0 -5.80801e-05 3.15055e-05 0 -5.43003e-05 3.16448e-05 0 -4.96766e-05 -2.90379e-05 0 -5.33403e-05 -2.91146e-05 0 -5.70578e-05 -2.89305e-05 0 -6.07867e-05 -2.84648e-05 0 -6.44797e-05 -2.77026e-05 0 -6.80857e-05 -2.66368e-05 0 -7.15523e-05 -2.52691e-05 0 -7.48289e-05 -2.361e-05 0 -7.78677e-05 -2.16784e-05 0 -8.06268e-05 -1.94998e-05 0 -8.30713e-05 -1.71047e-05 0 -8.51734e-05 -1.45261e-05 0 -8.69121e-05 -1.17979e-05 0 -8.82724e-05 -8.9539e-06 0 -8.92443e-05 -6.02648e-06 0 -8.98218e-05 -3.04689e-06 0 -9.00019e-05 -4.53577e-08 0 -8.97842e-05 2.94841e-06 0 -8.91711e-05 5.90454e-06 0 -8.81676e-05 8.79249e-06 0 -8.67826e-05 1.15807e-05 0 -8.50296e-05 1.42366e-05 0 -8.29276e-05 1.67275e-05 0 -8.0502e-05 1.90214e-05 0 -7.77851e-05 2.10889e-05 0 -7.48154e-05 2.29051e-05 0 -7.16372e-05 2.44512e-05 0 -6.82973e-05 2.57163e-05 0 -6.48444e-05 2.66976e-05 0 -6.13254e-05 2.74001e-05 0 -5.77844e-05 2.78361e-05 0 -5.42609e-05 2.80229e-05 0 -4.98344e-05 -2.55259e-05 0 -5.32671e-05 -2.55415e-05 0 -5.67329e-05 -2.53336e-05 0 -6.01943e-05 -2.48862e-05 0 -6.361e-05 -2.41882e-05 0 -6.69366e-05 -2.32347e-05 0 -7.01297e-05 -2.20271e-05 0 -7.31456e-05 -2.05741e-05 0 -7.59437e-05 -1.88904e-05 0 -7.84874e-05 -1.69961e-05 0 -8.07451e-05 -1.49152e-05 0 -8.2691e-05 -1.26746e-05 0 -8.43046e-05 -1.03023e-05 0 -8.55706e-05 -7.82677e-06 0 -8.64782e-05 -5.27629e-06 0 -8.70204e-05 -2.67849e-06 0 -8.71936e-05 -6.05768e-08 0 -8.69974e-05 2.55055e-06 0 -8.64343e-05 5.12796e-06 0 -8.551e-05 7.64445e-06 0 -8.42342e-05 1.00725e-05 0 -8.26205e-05 1.23844e-05 0 -8.06873e-05 1.45528e-05 0 -7.84585e-05 1.65519e-05 0 -7.59628e-05 1.8358e-05 0 -7.32342e-05 1.99514e-05 0 -7.03102e-05 2.13172e-05 0 -6.72311e-05 2.24463e-05 0 -6.40382e-05 2.33361e-05 0 -6.07718e-05 2.39899e-05 0 -5.74704e-05 2.44163e-05 0 -5.41691e-05 2.46286e-05 0 -4.9925e-05 -2.22177e-05 0 -5.316e-05 -2.21923e-05 0 -5.64118e-05 -2.19769e-05 0 -5.96469e-05 -2.15591e-05 0 -6.28294e-05 -2.09306e-05 0 -6.59213e-05 -2.00876e-05 0 -6.88842e-05 -1.90318e-05 0 -7.16805e-05 -1.77699e-05 0 -7.42748e-05 -1.63138e-05 0 -7.66346e-05 -1.46792e-05 0 -7.87315e-05 -1.28857e-05 0 -8.05416e-05 -1.09548e-05 0 -8.20454e-05 -8.90975e-06 0 -8.32278e-05 -6.77455e-06 0 -8.40778e-05 -4.57332e-06 0 -8.45882e-05 -2.33017e-06 0 -8.4755e-05 -6.90124e-08 0 -8.45777e-05 2.18637e-06 0 -8.4059e-05 4.41224e-06 0 -8.32046e-05 6.58484e-06 0 -8.20243e-05 8.68048e-06 0 -8.05314e-05 1.06757e-05 0 -7.87434e-05 1.2548e-05 0 -7.66823e-05 1.4276e-05 0 -7.4374e-05 1.58407e-05 0 -7.18484e-05 1.72262e-05 0 -6.91384e-05 1.84208e-05 0 -6.62787e-05 1.94168e-05 0 -6.33051e-05 2.02117e-05 0 -6.02528e-05 2.08076e-05 0 -5.71557e-05 2.1211e-05 0 -5.40452e-05 2.14319e-05 0 -4.99686e-05 -1.90839e-05 0 -5.30357e-05 -1.90335e-05 0 -5.61068e-05 -1.88233e-05 0 -5.9152e-05 -1.84437e-05 0 -6.21392e-05 -1.78882e-05 0 -6.50351e-05 -1.71542e-05 0 -6.78058e-05 -1.62433e-05 0 -7.04182e-05 -1.51608e-05 0 -7.28411e-05 -1.39161e-05 0 -7.50454e-05 -1.25219e-05 0 -7.70055e-05 -1.09937e-05 0 -7.86992e-05 -9.34924e-06 0 -8.01082e-05 -7.60745e-06 0 -8.1218e-05 -5.78832e-06 0 -8.20177e-05 -3.91225e-06 0 -8.25001e-05 -1.99983e-06 0 -8.26612e-05 -7.16642e-08 0 -8.25002e-05 1.8517e-06 0 -8.20199e-05 3.74978e-06 0 -8.1226e-05 5.60223e-06 0 -8.01278e-05 7.38897e-06 0 -7.87382e-05 9.09038e-06 0 -7.70735e-05 1.06878e-05 0 -7.5154e-05 1.21638e-05 0 -7.30032e-05 1.35031e-05 0 -7.06476e-05 1.46929e-05 0 -6.81164e-05 1.57236e-05 0 -6.54401e-05 1.65891e-05 0 -6.26503e-05 1.7287e-05 0 -5.97782e-05 1.78186e-05 0 -5.68539e-05 1.81887e-05 0 -5.39058e-05 1.84048e-05 0 -4.99804e-05 -1.60977e-05 0 -5.29068e-05 -1.60349e-05 0 -5.58274e-05 -1.58397e-05 0 -5.87149e-05 -1.55047e-05 0 -6.15404e-05 -1.50249e-05 0 -6.42741e-05 -1.43986e-05 0 -6.68858e-05 -1.36269e-05 0 -6.9346e-05 -1.27144e-05 0 -7.16265e-05 -1.16683e-05 0 -7.37011e-05 -1.04988e-05 0 -7.55466e-05 -9.2184e-06 0 -7.71422e-05 -7.84115e-06 0 -7.84709e-05 -6.38257e-06 0 -7.95189e-05 -4.85905e-06 0 -8.02756e-05 -3.28753e-06 0 -8.07338e-05 -1.68524e-06 0 -8.08898e-05 -6.94982e-08 0 -8.07427e-05 1.54233e-06 0 -8.02949e-05 3.133e-06 0 -7.95522e-05 4.68543e-06 0 -7.85233e-05 6.18291e-06 0 -7.72205e-05 7.60929e-06 0 -7.56591e-05 8.94926e-06 0 -7.38576e-05 1.01888e-05 0 -7.18374e-05 1.13156e-05 0 -6.96227e-05 1.23193e-05 0 -6.72395e-05 1.31924e-05 0 -6.47151e-05 1.39296e-05 0 -6.20777e-05 1.45291e-05 0 -5.93553e-05 1.49915e-05 0 -5.65754e-05 1.53204e-05 0 -5.37637e-05 1.55217e-05 0 -4.99726e-05 -1.32344e-05 0 -5.27834e-05 -1.3169e-05 0 -5.55807e-05 -1.29964e-05 0 -5.83395e-05 -1.27108e-05 0 -6.10334e-05 -1.23088e-05 0 -6.36352e-05 -1.17888e-05 0 -6.61176e-05 -1.1152e-05 0 -6.84538e-05 -1.04019e-05 0 -7.06181e-05 -9.54428e-06 0 -7.25867e-05 -8.5871e-06 0 -7.43379e-05 -7.54011e-06 0 -7.58527e-05 -6.41453e-06 0 -7.7115e-05 -5.22271e-06 0 -7.81116e-05 -3.97784e-06 0 -7.88324e-05 -2.69362e-06 0 -7.92705e-05 -1.38408e-06 0 -7.9422e-05 -6.34106e-08 0 -7.92863e-05 1.25416e-06 0 -7.88655e-05 2.5545e-06 0 -7.81651e-05 3.82368e-06 0 -7.71934e-05 5.04812e-06 0 -7.5962e-05 6.21479e-06 0 -7.44852e-05 7.31146e-06 0 -7.27802e-05 8.32695e-06 0 -7.08667e-05 9.25148e-06 0 -6.87666e-05 1.0077e-05 0 -6.65038e-05 1.07973e-05 0 -6.4103e-05 1.14084e-05 0 -6.15899e-05 1.19086e-05 0 -5.899e-05 1.22984e-05 0 -5.63283e-05 1.25802e-05 0 -5.36288e-05 1.27585e-05 0 -4.99546e-05 -1.04711e-05 0 -5.26731e-05 -1.04106e-05 0 -5.53723e-05 -1.02663e-05 0 -5.8029e-05 -1.00339e-05 0 -6.06185e-05 -9.71091e-06 0 -6.31159e-05 -9.29624e-06 0 -6.54958e-05 -8.7908e-06 0 -6.77337e-05 -8.19728e-06 0 -6.98058e-05 -7.52014e-06 0 -7.169e-05 -6.76542e-06 0 -7.33661e-05 -5.94059e-06 0 -7.48163e-05 -5.05427e-06 0 -7.60253e-05 -4.11601e-06 0 -7.69805e-05 -3.13603e-06 0 -7.76724e-05 -2.12504e-06 0 -7.80942e-05 -1.09404e-06 0 -7.82421e-05 -5.42143e-08 0 -7.81154e-05 9.83252e-07 0 -7.77162e-05 2.00722e-06 0 -7.70497e-05 3.00676e-06 0 -7.61238e-05 3.97123e-06 0 -7.49494e-05 4.89049e-06 0 -7.35399e-05 5.75506e-06 0 -7.19116e-05 6.55632e-06 0 -7.00827e-05 7.28676e-06 0 -6.80736e-05 7.94015e-06 0 -6.59061e-05 8.51179e-06 0 -6.36033e-05 8.99856e-06 0 -6.11888e-05 9.39904e-06 0 -5.86862e-05 9.71347e-06 0 -5.61187e-05 9.94368e-06 0 -5.35089e-05 1.00929e-05 0 -4.99337e-05 -7.78617e-06 0 -5.25818e-05 -7.73617e-06 0 -5.52064e-05 -7.62444e-06 0 -5.77854e-05 -7.44801e-06 0 -6.02958e-05 -7.205e-06 0 -6.2714e-05 -6.89476e-06 0 -6.50163e-05 -6.51797e-06 0 -6.71796e-05 -6.07658e-06 0 -6.91817e-05 -5.57381e-06 0 -7.10018e-05 -5.01405e-06 0 -7.26207e-05 -4.40272e-06 0 -7.40216e-05 -3.74608e-06 0 -7.51898e-05 -3.0511e-06 0 -7.61134e-05 -2.32528e-06 0 -7.6783e-05 -1.57649e-06 0 -7.71922e-05 -8.12858e-07 0 -7.73373e-05 -4.26409e-08 0 -7.72175e-05 7.2587e-07 0 -7.68348e-05 1.48444e-06 0 -7.61942e-05 2.22498e-06 0 -7.53032e-05 2.93966e-06 0 -7.41722e-05 3.62103e-06 0 -7.2814e-05 4.26216e-06 0 -7.12439e-05 4.85674e-06 0 -6.94792e-05 5.39932e-06 0 -6.7539e-05 5.88536e-06 0 -6.54439e-05 6.31143e-06 0 -6.32154e-05 6.67525e-06 0 -6.08757e-05 6.97574e-06 0 -5.8447e-05 7.21301e-06 0 -5.59514e-05 7.38832e-06 0 -5.341e-05 7.50394e-06 0 -4.99152e-05 -5.15905e-06 0 -5.25137e-05 -5.12358e-06 0 -5.50858e-05 -5.04748e-06 0 -5.76104e-05 -4.92886e-06 0 -6.00653e-05 -4.76652e-06 0 -6.2428e-05 -4.56007e-06 0 -6.46759e-05 -4.30995e-06 0 -6.6787e-05 -4.01744e-06 0 -6.874e-05 -3.68464e-06 0 -7.0515e-05 -3.31441e-06 0 -7.20937e-05 -2.91027e-06 0 -7.34599e-05 -2.47632e-06 0 -7.45994e-05 -2.0171e-06 0 -7.55006e-05 -1.53754e-06 0 -7.61545e-05 -1.04281e-06 0 -7.65548e-05 -5.38264e-07 0 -7.66979e-05 -2.9351e-08 0 -7.65829e-05 4.78456e-07 0 -7.62118e-05 9.79722e-07 0 -7.55894e-05 1.46912e-06 0 -7.4723e-05 1.94149e-06 0 -7.36225e-05 2.39194e-06 0 -7.23003e-05 2.81592e-06 0 -7.07711e-05 3.20933e-06 0 -6.90514e-05 3.56858e-06 0 -6.71596e-05 3.89074e-06 0 -6.51151e-05 4.17353e-06 0 -6.29387e-05 4.41548e-06 0 -6.06515e-05 4.61585e-06 0 -5.82748e-05 4.77468e-06 0 -5.58296e-05 4.89278e-06 0 -5.33365e-05 4.97157e-06 0 -4.99026e-05 -2.57006e-06 0 -5.24717e-05 -2.55169e-06 0 -5.50127e-05 -2.51317e-06 0 -5.7505e-05 -2.45357e-06 0 -5.9927e-05 -2.3723e-06 0 -6.22568e-05 -2.26919e-06 0 -6.44725e-05 -2.14444e-06 0 -6.65527e-05 -1.99871e-06 0 -6.84766e-05 -1.83302e-06 0 -7.02249e-05 -1.64877e-06 0 -7.17797e-05 -1.44772e-06 0 -7.31252e-05 -1.23187e-06 0 -7.42476e-05 -1.00348e-06 0 -7.51356e-05 -7.64991e-07 0 -7.57801e-05 -5.18958e-07 0 -7.61751e-05 -2.68042e-07 0 -7.6317e-05 -1.49487e-08 0 -7.62048e-05 2.37602e-07 0 -7.58407e-05 4.86908e-07 0 -7.52291e-05 7.30324e-07 0 -7.43772e-05 9.65293e-07 0 -7.32948e-05 1.18939e-06 0 -7.19941e-05 1.40036e-06 0 -7.04891e-05 1.59618e-06 0 -6.87961e-05 1.77507e-06 0 -6.69328e-05 1.93559e-06 0 -6.49184e-05 2.07662e-06 0 -6.27729e-05 2.19741e-06 0 -6.05168e-05 2.2976e-06 0 -5.81709e-05 2.37721e-06 0 -5.57557e-05 2.43662e-06 0 -5.32912e-05 2.47652e-06 0 -4.98982e-05 -0 0 -5.24575e-05 -3.48815e-19 0 -5.49882e-05 2.91918e-19 0 -5.74698e-05 2.22091e-19 0 -5.98809e-05 -0 0 -6.21998e-05 -0 0 -6.44049e-05 -0 0 -6.64748e-05 -0 0 -6.8389e-05 -0 0 -7.01285e-05 -0 0 -7.16754e-05 -3.53302e-20 0 -7.30141e-05 -5.0422e-19 0 -7.41308e-05 -7.92929e-20 0 -7.50143e-05 5.28387e-19 0 -7.56558e-05 1.07774e-19 0 -7.6049e-05 -0 0 -7.61904e-05 -0 0 -7.60793e-05 -0 0 -7.57174e-05 1.20925e-19 0 -7.51094e-05 5.24614e-19 0 -7.42624e-05 4.42924e-20 0 -7.3186e-05 -0 0 -7.18923e-05 -0 0 -7.03953e-05 -0 0 -6.87112e-05 -1.95086e-19 0 -6.68574e-05 -4.15566e-19 0 -6.48529e-05 -7.99181e-21 0 -6.27176e-05 -0 0 -6.04718e-05 -0 0 -5.81361e-05 -0 0 -5.57309e-05 -0 0 -5.32759e-05 -0 0 </DataArray> 
</PointData> 
<Points> 
<DataArray type="Float32" NumberOfComponents="3"> 