<?xml version="1.0"?> 
<VTKFile type="StructuredGrid" version="0.1"> 
<StructuredGrid WholeExtent="0 31 0 31 0 0"> 
<Piece Extent="0 31 0 31 0 0"> 
<PointData>
<DataArray type="Float32" Name="B" format="ascii" NumberOfComponents="3"> 
0.0268772 0.014891 0 0.0301429 -0.00198353 0 0.0288484 0.00027005 0 0.0279183 -9.42277e-05 0 0.0287121 6.7479e-05 0 0.0291582 3.54227e-05 0 0.0298446 3.77819e-05 0 0.0303538 3.59162e-05 0 0.0307968 2.31129e-05 0 0.0311263 2.11703e-05 0 0.031368 1.24573e-05 0 0.0315379 1.01309e-05 0 0.0316509 5.66752e-06 0 0.031724 4.03938e-06 0 0.0317675 2.00689e-06 0 0.0317913 1.11561e-06 0 0.0318008 2.26912e-07 0 0.031801 -2.29564e-07 0 0.0317937 -6.74943e-07 0 0.031782 -9.3581e-07 0 0.0317633 -1.29102e-06 0 0.0317452 -1.43676e-06 0 0.0317125 -1.89265e-06 0 0.0316962 -1.87697e-06 0 0.0316339 -2.41164e-06 0 0.03165 -2.66205e-06 0 0.0314978 -1.53518e-06 0 0.0316555 -7.76222e-06 0 0.0311889 1.0271e-05 0 0.0317847 -5.5991e-05 0 0.0306652 0.00020304 0 0.0111027 -0.00396515 0 -0.00176446 0.0129472 0 -0.00258804 -0.00118801 0 -0.00220345 0.000204428 0 -0.00233072 -6.8738e-05 0 -0.0022664 1.51912e-05 0 -0.00236956 -4.76017e-06 0 -0.00238773 -1.88956e-06 0 -0.0024474 1.69776e-06 0 -0.00247383 -1.88827e-06 0 -0.00250539 1.3041e-06 0 -0.00252312 -7.92561e-07 0 -0.00253832 6.3271e-07 0 -0.00254741 -2.48807e-07 0 -0.00255389 2.73143e-07 0 -0.00255762 -6.01111e-08 0 -0.0025598 1.08522e-07 0 -0.00256069 -1.1576e-08 0 -0.0025608 3.2967e-08 0 -0.00256016 -6.01223e-09 0 -0.00255923 -7.62392e-09 0 -0.00255742 -7.37687e-09 0 -0.00255605 -4.05599e-08 0 -0.00255258 -1.43758e-09 0 -0.00255196 -7.96902e-08 0 -0.00254449 8.75647e-09 0 -0.00254891 -1.05792e-07 0 -0.00252884 -7.28162e-08 0 -0.00255309 8.60076e-08 0 -0.00248991 -9.63473e-07 0 -0.00257321 2.4966e-06 0 -0.00242287 -1.32767e-05 0 -1.16062e-05 -2.35598e-05 0 -0.00140688 0.00950973 0 0.000475072 -0.000840403 0 0.000447474 0.000137069 0 0.000393401 -5.40746e-05 0 0.000436461 6.15788e-06 0 0.000433781 -4.63259e-06 0 0.000450668 -4.57429e-06 0 0.000456342 7.30607e-07 0 0.000464525 -3.13975e-06 0 0.000468883 6.87426e-07 0 0.000472943 -1.39486e-06 0 0.000475253 3.27711e-07 0 0.00047709 -5.05251e-07 0 0.000478093 1.45439e-07 0 0.000478793 -1.47541e-07 0 0.000479115 7.33652e-08 0 0.000479268 -2.04173e-08 0 0.000479253 4.88444e-08 0 0.000479126 2.5857e-08 0 0.000478927 4.47144e-08 0 0.000478599 5.20047e-08 0 0.000478294 4.91609e-08 0 0.000477708 7.99982e-08 0 0.000477439 5.74316e-08 0 0.000476297 1.0994e-07 0 0.000476599 9.75701e-08 0 0.00047375 6.91509e-08 0 0.000476553 4.31996e-07 0 0.000467594 -6.04478e-07 0 0.000477933 3.6717e-06 0 0.000455838 -1.15829e-05 0 -1.40532e-05 0.000226009 0 -0.000860029 0.00783453 0 -9.63053e-05 -0.000654258 0 -9.40387e-05 0.000108082 0 -0.000143509 -4.76065e-05 0 -0.000113066 5.64296e-06 0 -0.000131441 -3.50705e-06 0 -0.00012272 -2.11623e-06 0 -0.000130502 1.35234e-06 0 -0.000128735 -1.30711e-06 0 -0.000132011 1.13946e-06 0 -0.000132041 -4.00259e-07 0 -0.000133388 6.0467e-07 0 -0.000133664 -4.91957e-08 0 -0.000134191 2.80728e-07 0 -0.000134365 2.72796e-08 0 -0.000134545 1.16478e-07 0 -0.000134602 1.92744e-08 0 -0.00013463 3.62719e-08 0 -0.000134605 -3.56245e-09 0 -0.000134561 -4.28876e-09 0 -0.000134471 -2.51137e-08 0 -0.000134391 -2.72813e-08 0 -0.00013422 -4.51757e-08 0 -0.000134158 -4.31912e-08 0 -0.000133806 -6.26575e-08 0 -0.00013395 -7.02982e-08 0 -0.000133028 -4.63879e-08 0 -0.000134074 -2.36926e-07 0 -0.000131129 2.79272e-07 0 -0.000135026 -1.64376e-06 0 -0.000127816 5.76148e-06 0 7.46546e-06 -0.000143488 0 -0.000600918 0.00640873 0 6.46102e-05 -0.000536563 0 6.38842e-05 9.90231e-05 0 1.90276e-05 -4.36705e-05 0 4.1475e-05 2.61892e-06 0 3.13076e-05 -4.82761e-06 0 3.96257e-05 -3.32263e-06 0 3.71047e-05 2.26904e-07 0 3.98184e-05 -1.94343e-06 0 3.9302e-05 5.40781e-07 0 4.01409e-05 -7.31554e-07 0 4.00694e-05 3.39724e-07 0 4.03108e-05 -2.00343e-07 0 4.0305e-05 1.81763e-07 0 4.03626e-05 -2.67666e-08 0 4.03546e-05 9.2343e-08 0 4.03568e-05 1.44444e-08 0 4.03412e-05 4.68103e-08 0 4.03249e-05 1.93138e-08 0 4.03024e-05 2.63307e-08 0 4.02753e-05 1.98069e-08 0 4.02459e-05 1.89355e-08 0 4.02041e-05 2.41949e-08 0 4.01739e-05 1.79894e-08 0 4.00952e-05 3.26607e-08 0 4.01036e-05 2.85116e-08 0 3.98841e-05 3.13777e-08 0 4.01022e-05 1.21434e-07 0 3.92871e-05 -5.89958e-08 0 4.02713e-05 9.96434e-07 0 3.85237e-05 -2.07557e-06 0 -3.64022e-06 5.34338e-05 0 -0.000481511 0.00559982 0 5.30554e-06 -0.000464455 0 2.19841e-05 9.16142e-05 0 -1.96194e-05 -3.85977e-05 0 -2.97068e-06 2.11934e-06 0 -1.3037e-05 -4.54163e-06 0 -7.10261e-06 -2.62052e-06 0 -9.9061e-06 2.8381e-07 0 -8.27864e-06 -1.36198e-06 0 -9.10482e-06 6.27424e-07 0 -8.73961e-06 -4.09064e-07 0 -9.00261e-06 4.11695e-07 0 -8.95046e-06 -4.95496e-08 0 -9.04313e-06 2.21669e-07 0 -9.05012e-06 3.34315e-08 0 -9.08444e-06 1.06068e-07 0 -9.09348e-06 3.02023e-08 0 -9.10451e-06 4.33193e-08 0 -9.10715e-06 1.18469e-08 0 -9.10743e-06 1.12316e-08 0 -9.10455e-06 -3.63245e-09 0 -9.09916e-06 -4.84334e-09 0 -9.09142e-06 -1.50454e-08 0 -9.08484e-06 -1.28783e-08 0 -9.06803e-06 -2.2866e-08 0 -9.07621e-06 -1.8616e-08 0 -9.02852e-06 -1.65829e-08 0 -9.11778e-06 -4.20783e-08 0 -8.94998e-06 1.01791e-07 0 -9.23479e-06 -3.05951e-07 0 -8.63707e-06 1.27526e-06 0 -1.79211e-06 -4.33898e-05 0 -0.000407154 0.0048078 0 5.08712e-06 -0.000403917 0 2.89623e-05 8.47998e-05 0 -8.16174e-06 -3.33582e-05 0 4.97807e-06 9.19213e-07 0 -4.23901e-06 -4.72042e-06 0 6.7074e-07 -2.99451e-06 0 -1.67534e-06 -1.15304e-07 0 -2.29597e-07 -1.51413e-06 0 -8.67961e-07 4.13451e-07 0 -4.8403e-07 -4.82969e-07 0 -6.68913e-07 3.20832e-07 0 -5.7791e-07 -8.26524e-08 0 -6.36326e-07 1.88965e-07 0 -6.19682e-07 2.23729e-08 0 -6.39888e-07 9.81138e-08 0 -6.39181e-07 3.06224e-08 0 -6.46346e-07 4.60339e-08 0 -6.47223e-07 1.92117e-08 0 -6.493e-07 1.95228e-08 0 -6.48863e-07 9.96491e-09 0 -6.48741e-07 7.29688e-09 0 -6.46861e-07 6.18478e-09 0 -6.45643e-07 2.69033e-09 0 -6.44295e-07 7.54558e-09 0 -6.41477e-07 7.16528e-09 0 -6.52407e-07 1.49225e-08 0 -6.38577e-07 5.54327e-08 0 -6.94719e-07 3.0608e-08 0 -5.34104e-07 3.52388e-07 0 -3.46599e-07 -6.3989e-07 0 -3.65384e-06 1.09782e-05 0 -0.000364243 0.00418293 0 3.08133e-06 -0.000351965 0 2.93987e-05 7.6273e-05 0 -2.11101e-06 -2.80085e-05 0 8.48832e-06 6.53887e-07 0 -9.59113e-08 -4.38886e-06 0 3.89623e-06 -2.74176e-06 0 1.78364e-06 -1.9684e-07 0 3.01925e-06 -1.29506e-06 0 2.48879e-06 3.70128e-07 0 2.84736e-06 -3.64965e-07 0 2.72121e-06 3.09894e-07 0 2.82405e-06 -2.97043e-08 0 2.7979e-06 1.87572e-07 0 2.82704e-06 4.29467e-08 0 2.82267e-06 9.73848e-08 0 2.83007e-06 3.63186e-08 0 2.82898e-06 4.36531e-08 0 2.82939e-06 1.76405e-08 0 2.82803e-06 1.50829e-08 0 2.82528e-06 3.71077e-09 0 2.82358e-06 8.8426e-10 0 2.81765e-06 -4.44086e-09 0 2.81643e-06 -5.39824e-09 0 2.80457e-06 -7.26915e-09 0 2.80372e-06 -4.07321e-09 0 2.77886e-06 1.90632e-09 0 2.77352e-06 1.80955e-08 0 2.74269e-06 4.80896e-08 0 2.77446e-06 3.05546e-08 0 2.7571e-06 -1.31171e-07 0 -3.63219e-07 -1.06687e-05 0 -0.000331656 0.00358209 0 -5.27534e-06 -0.000304072 0 2.23694e-05 6.74677e-05 0 -5.34963e-06 -2.32213e-05 0 4.34567e-06 3.81599e-07 0 -4.36672e-06 -4.11144e-06 0 -9.7878e-07 -2.69883e-06 0 -3.28661e-06 -3.62959e-07 0 -2.24495e-06 -1.25643e-06 0 -2.86451e-06 2.58969e-07 0 -2.56019e-06 -3.5513e-07 0 -2.71585e-06 2.58426e-07 0 -2.62326e-06 -3.1053e-08 0 -2.65489e-06 1.66744e-07 0 -2.62385e-06 4.06319e-08 0 -2.62631e-06 9.02147e-08 0 -2.61461e-06 3.58307e-08 0 -2.61215e-06 4.24022e-08 0 -2.60687e-06 1.92194e-08 0 -2.60444e-06 1.65773e-08 0 -2.60082e-06 7.34903e-09 0 -2.59903e-06 3.87096e-09 0 -2.59478e-06 1.63803e-09 0 -2.59424e-06 -1.30094e-09 0 -2.58789e-06 2.04585e-09 0 -2.59117e-06 2.88191e-09 0 -2.58109e-06 1.41381e-08 0 -2.58926e-06 3.83609e-08 0 -2.54803e-06 3.7638e-08 0 -2.50373e-06 1.36463e-07 0 -2.28966e-06 -3.67187e-07 0 -1.66634e-06 1.99776e-06 0 -0.000309784 0.00304183 0 -2.76697e-06 -0.000258875 0 2.36701e-05 5.81125e-05 0 -3.12464e-07 -1.89119e-05 0 8.73087e-06 4.00525e-07 0 4.56448e-07 -3.64866e-06 0 3.34794e-06 -2.43542e-06 0 1.12482e-06 -4.14718e-07 0 2.03457e-06 -1.10623e-06 0 1.47646e-06 1.9928e-07 0 1.7693e-06 -2.9449e-07 0 1.65823e-06 2.26615e-07 0 1.76473e-06 -1.19549e-08 0 1.75992e-06 1.51607e-07 0 1.80353e-06 4.48801e-08 0 1.81453e-06 8.31343e-08 0 1.83271e-06 3.57327e-08 0 1.84021e-06 3.89047e-08 0 1.84667e-06 1.79265e-08 0 1.84931e-06 1.44885e-08 0 1.84984e-06 5.39264e-09 0 1.84937e-06 2.23517e-09 0 1.84623e-06 -1.18837e-09 0 1.84415e-06 -2.7524e-09 0 1.83744e-06 -1.73517e-09 0 1.83436e-06 1.24386e-09 0 1.82332e-06 1.01346e-08 0 1.82285e-06 2.80026e-08 0 1.82419e-06 3.01237e-08 0 1.85117e-06 4.8665e-08 0 1.80567e-06 -2.84922e-07 0 -6.26639e-08 -2.544e-06 0 -0.000291984 0.0025256 0 -6.6572e-06 -0.000216004 0 1.91451e-05 4.8863e-05 0 -2.59252e-06 -1.51766e-05 0 6.43702e-06 4.06707e-07 0 -1.77515e-06 -3.15989e-06 0 7.48588e-07 -2.18077e-06 0 -1.63006e-06 -4.4994e-07 0 -8.77845e-07 -9.88654e-07 0 -1.50446e-06 1.34626e-07 0 -1.25786e-06 -2.61117e-07 0 -1.3879e-06 1.86325e-07 0 -1.28904e-06 -9.20815e-09 0 -1.29519e-06 1.30611e-07 0 -1.24902e-06 4.11277e-08 0 -1.23501e-06 7.33379e-08 0 -1.2129e-06 3.27816e-08 0 -1.20216e-06 3.5007e-08 0 -1.1921e-06 1.68869e-08 0 -1.18673e-06 1.35374e-08 0 -1.18234e-06 5.9055e-09 0 -1.18058e-06 2.74055e-09 0 -1.17813e-06 5.29861e-10 0 -1.17889e-06 -1.44794e-09 0 -1.17563e-06 1.09727e-09 0 -1.17902e-06 3.21426e-09 0 -1.16968e-06 1.32558e-08 0 -1.1714e-06 2.87123e-08 0 -1.13129e-06 2.50129e-08 0 -1.11216e-06 5.28216e-08 0 -1.02413e-06 -2.40401e-07 0 -7.61791e-07 1.97362e-07 0 -0.000279438 0.00203772 0 -5.39668e-06 -0.000174607 0 1.91028e-05 3.96395e-05 0 -6.79497e-07 -1.18613e-05 0 8.30364e-06 4.35379e-07 0 4.49894e-07 -2.60488e-06 0 2.6881e-06 -1.83825e-06 0 3.10969e-07 -4.26456e-07 0 9.50067e-07 -8.30235e-07 0 3.31114e-07 9.18751e-08 0 5.56961e-07 -2.13462e-07 0 4.4335e-07 1.51436e-07 0 5.47159e-07 -2.68772e-09 0 5.54529e-07 1.09641e-07 0 6.08171e-07 3.76097e-08 0 6.30219e-07 6.23602e-08 0 6.5693e-07 2.90338e-08 0 6.71303e-07 2.98824e-08 0 6.82867e-07 1.46622e-08 0 6.89081e-07 1.14495e-08 0 6.9252e-07 4.77988e-09 0 6.93653e-07 2.11691e-09 0 6.92924e-07 -1.76857e-10 0 6.91379e-07 -1.40068e-09 0 6.89048e-07 1.98128e-10 0 6.86754e-07 2.98024e-09 0 6.87816e-07 1.07233e-08 0 6.90429e-07 2.28035e-08 0 7.11204e-07 1.66916e-08 0 7.16185e-07 2.70325e-08 0 6.90424e-07 -2.07184e-07 0 -1.09655e-07 -6.20234e-07 0 -0.000269586 0.00156672 0 -6.72427e-06 -0.000134597 0 1.70036e-05 3.06193e-05 0 -1.6304e-06 -8.90584e-06 0 7.47794e-06 4.08121e-07 0 -1.90201e-07 -2.03654e-06 0 1.84927e-06 -1.47263e-06 0 -6.09242e-07 -3.73048e-07 0 -7.77457e-08 -6.67793e-07 0 -7.37566e-07 5.67848e-08 0 -5.42666e-07 -1.70687e-07 0 -6.65415e-07 1.15654e-07 0 -5.65299e-07 -1.27648e-09 0 -5.56557e-07 8.64605e-08 0 -5.00129e-07 3.08508e-08 0 -4.74957e-07 4.9875e-08 0 -4.4519e-07 2.37598e-08 0 -4.28352e-07 2.4135e-08 0 -4.14537e-07 1.21048e-08 0 -4.06716e-07 9.37792e-09 0 -4.01426e-07 4.15413e-09 0 -3.99286e-07 1.88344e-09 0 -3.97763e-07 2.81565e-10 0 -3.98706e-07 -8.51359e-10 0 -3.97078e-07 9.35654e-10 0 -3.98684e-07 3.06167e-09 0 -3.89544e-07 9.85395e-09 0 -3.85779e-07 1.865e-08 0 -3.53964e-07 1.24328e-08 0 -3.52118e-07 2.05738e-08 0 -3.25778e-07 -1.46806e-07 0 -3.78182e-07 -3.82893e-08 0 -0.000262919 0.00111004 0 -6.30122e-06 -9.5461e-05 0 1.66476e-05 2.17338e-05 0 -1.09585e-06 -6.19357e-06 0 8.06678e-06 3.38019e-07 0 6.44963e-07 -1.45369e-06 0 2.54633e-06 -1.06926e-06 0 7.11269e-08 -2.86836e-07 0 5.28064e-07 -4.86073e-07 0 -1.41882e-07 3.3516e-08 0 3.5359e-08 -1.22827e-07 0 -8.39042e-08 8.19112e-08 0 1.70189e-08 3.57102e-10 0 3.15933e-08 6.25855e-08 0 9.18257e-08 2.32615e-08 0 1.21201e-07 3.64073e-08 0 1.53687e-07 1.7705e-08 0 1.7272e-07 1.76811e-08 0 1.87712e-07 8.95761e-09 0 1.96302e-07 6.86397e-09 0 2.0154e-07 2.99922e-09 0 2.03676e-07 1.35516e-09 0 2.04182e-07 7.4954e-11 0 2.03139e-07 -6.06977e-10 0 2.03027e-07 5.62544e-10 0 2.0227e-07 2.41552e-09 0 2.09272e-07 7.07053e-09 0 2.14426e-07 1.31962e-08 0 2.39208e-07 7.27882e-09 0 2.31627e-07 1.15456e-08 0 2.19357e-07 -1.1151e-07 0 -1.45392e-07 -1.46553e-07 0 -0.000258473 0.000662354 0 -6.66859e-06 -5.70312e-05 0 1.58521e-05 1.29892e-05 0 -1.41524e-06 -3.65354e-06 0 7.82132e-06 2.21408e-07 0 5.33716e-07 -8.71852e-07 0 2.35328e-06 -6.49994e-07 0 -1.5546e-07 -1.80992e-07 0 2.4743e-07 -2.96645e-07 0 -4.42363e-07 1.68042e-08 0 -2.8088e-07 -7.48249e-08 0 -4.04073e-07 4.86458e-08 0 -3.04759e-07 3.55803e-10 0 -2.8897e-07 3.78039e-08 0 -2.27101e-07 1.42965e-08 0 -1.95878e-07 2.21458e-08 0 -1.61752e-07 1.08788e-08 0 -1.41399e-07 1.08051e-08 0 -1.25315e-07 5.5285e-09 0 -1.15968e-07 4.22012e-09 0 -1.09989e-07 1.89688e-09 0 -1.07464e-07 8.60554e-10 0 -1.06206e-07 1.40956e-10 0 -1.07011e-07 -3.16032e-10 0 -1.05807e-07 5.19436e-10 0 -1.06018e-07 1.60376e-09 0 -9.63861e-08 4.57289e-09 0 -9.03872e-08 8.02127e-09 0 -6.37124e-08 4.31461e-09 0 -7.22679e-08 6.61405e-09 0 -6.81177e-08 -6.13359e-08 0 -2.22607e-07 -2.02878e-08 0 -0.000256373 0.000220212 0 -6.57653e-06 -1.89604e-05 0 1.56941e-05 4.3188e-06 0 -1.31905e-06 -1.20692e-06 0 7.94208e-06 7.7403e-08 0 7.41937e-07 -2.9009e-07 0 2.52199e-06 -2.17504e-07 0 5.6445e-09 -6.15965e-08 0 3.82867e-07 -9.93503e-08 0 -3.1253e-07 5.16345e-09 0 -1.57748e-07 -2.49187e-08 0 -2.80739e-07 1.61862e-08 0 -1.81493e-07 2.50581e-10 0 -1.64093e-07 1.26642e-08 0 -1.01057e-07 4.86986e-09 0 -6.85196e-08 7.43559e-09 0 -3.34909e-08 3.68214e-09 0 -1.24027e-08 3.62923e-09 0 4.11406e-09 1.85963e-09 0 1.37554e-08 1.41407e-09 0 1.97924e-08 6.20827e-10 0 2.23659e-08 2.83429e-10 0 2.3415e-08 1.45993e-11 0 2.2625e-08 -1.08614e-10 0 2.34893e-08 1.30052e-10 0 2.35786e-08 5.45499e-10 0 3.28873e-08 1.46712e-09 0 3.91537e-08 2.64746e-09 0 6.40807e-08 1.18524e-09 0 5.24656e-08 1.9944e-09 0 4.78761e-08 -2.3071e-08 0 -1.67164e-07 -2.40673e-08 0 -0.000256373 -0.000220212 0 -6.57653e-06 1.89604e-05 0 1.56941e-05 -4.3188e-06 0 -1.31905e-06 1.20692e-06 0 7.94208e-06 -7.7403e-08 0 7.41937e-07 2.9009e-07 0 2.52199e-06 2.17504e-07 0 5.6445e-09 6.15965e-08 0 3.82867e-07 9.93503e-08 0 -3.1253e-07 -5.16345e-09 0 -1.57748e-07 2.49187e-08 0 -2.80739e-07 -1.61862e-08 0 -1.81493e-07 -2.50581e-10 0 -1.64093e-07 -1.26642e-08 0 -1.01057e-07 -4.86986e-09 0 -6.85196e-08 -7.43559e-09 0 -3.34909e-08 -3.68214e-09 0 -1.24027e-08 -3.62923e-09 0 4.11406e-09 -1.85963e-09 0 1.37554e-08 -1.41407e-09 0 1.97924e-08 -6.20827e-10 0 2.23659e-08 -2.83429e-10 0 2.3415e-08 -1.45993e-11 0 2.2625e-08 1.08614e-10 0 2.34893e-08 -1.30052e-10 0 2.35786e-08 -5.45499e-10 0 3.28873e-08 -1.46712e-09 0 3.91537e-08 -2.64746e-09 0 6.40807e-08 -1.18524e-09 0 5.24656e-08 -1.9944e-09 0 4.78761e-08 2.3071e-08 0 -1.67164e-07 2.40673e-08 0 -0.000258473 -0.000662354 0 -6.66859e-06 5.70312e-05 0 1.58521e-05 -1.29892e-05 0 -1.41524e-06 3.65354e-06 0 7.82132e-06 -2.21408e-07 0 5.33716e-07 8.71852e-07 0 2.35328e-06 6.49994e-07 0 -1.5546e-07 1.80992e-07 0 2.4743e-07 2.96645e-07 0 -4.42363e-07 -1.68042e-08 0 -2.8088e-07 7.48249e-08 0 -4.04073e-07 -4.86458e-08 0 -3.04759e-07 -3.55803e-10 0 -2.8897e-07 -3.78039e-08 0 -2.27101e-07 -1.42965e-08 0 -1.95878e-07 -2.21458e-08 0 -1.61752e-07 -1.08788e-08 0 -1.41399e-07 -1.08051e-08 0 -1.25315e-07 -5.5285e-09 0 -1.15968e-07 -4.22012e-09 0 -1.09989e-07 -1.89688e-09 0 -1.07464e-07 -8.60554e-10 0 -1.06206e-07 -1.40956e-10 0 -1.07011e-07 3.16032e-10 0 -1.05807e-07 -5.19436e-10 0 -1.06018e-07 -1.60376e-09 0 -9.63861e-08 -4.57289e-09 0 -9.03872e-08 -8.02127e-09 0 -6.37124e-08 -4.31461e-09 0 -7.22679e-08 -6.61405e-09 0 -6.81177e-08 6.13359e-08 0 -2.22607e-07 2.02878e-08 0 -0.000262919 -0.00111004 0 -6.30122e-06 9.5461e-05 0 1.66476e-05 -2.17338e-05 0 -1.09585e-06 6.19357e-06 0 8.06678e-06 -3.38019e-07 0 6.44963e-07 1.45369e-06 0 2.54633e-06 1.06926e-06 0 7.11269e-08 2.86836e-07 0 5.28064e-07 4.86073e-07 0 -1.41882e-07 -3.3516e-08 0 3.5359e-08 1.22827e-07 0 -8.39042e-08 -8.19112e-08 0 1.70189e-08 -3.57102e-10 0 3.15933e-08 -6.25855e-08 0 9.18257e-08 -2.32615e-08 0 1.21201e-07 -3.64073e-08 0 1.53687e-07 -1.7705e-08 0 1.7272e-07 -1.76811e-08 0 1.87712e-07 -8.95761e-09 0 1.96302e-07 -6.86397e-09 0 2.0154e-07 -2.99922e-09 0 2.03676e-07 -1.35516e-09 0 2.04182e-07 -7.4954e-11 0 2.03139e-07 6.06977e-10 0 2.03027e-07 -5.62544e-10 0 2.0227e-07 -2.41552e-09 0 2.09272e-07 -7.07053e-09 0 2.14426e-07 -1.31962e-08 0 2.39208e-07 -7.27882e-09 0 2.31627e-07 -1.15456e-08 0 2.19357e-07 1.1151e-07 0 -1.45392e-07 1.46553e-07 0 -0.000269586 -0.00156672 0 -6.72427e-06 0.000134597 0 1.70036e-05 -3.06193e-05 0 -1.6304e-06 8.90584e-06 0 7.47794e-06 -4.08121e-07 0 -1.90201e-07 2.03654e-06 0 1.84927e-06 1.47263e-06 0 -6.09242e-07 3.73048e-07 0 -7.77457e-08 6.67793e-07 0 -7.37566e-07 -5.67848e-08 0 -5.42666e-07 1.70687e-07 0 -6.65415e-07 -1.15654e-07 0 -5.65299e-07 1.27648e-09 0 -5.56557e-07 -8.64605e-08 0 -5.00129e-07 -3.08508e-08 0 -4.74957e-07 -4.9875e-08 0 -4.4519e-07 -2.37598e-08 0 -4.28352e-07 -2.4135e-08 0 -4.14537e-07 -1.21048e-08 0 -4.06716e-07 -9.37792e-09 0 -4.01426e-07 -4.15413e-09 0 -3.99286e-07 -1.88344e-09 0 -3.97763e-07 -2.81565e-10 0 -3.98706e-07 8.51359e-10 0 -3.97078e-07 -9.35654e-10 0 -3.98684e-07 -3.06167e-09 0 -3.89544e-07 -9.85395e-09 0 -3.85779e-07 -1.865e-08 0 -3.53964e-07 -1.24328e-08 0 -3.52118e-07 -2.05738e-08 0 -3.25778e-07 1.46806e-07 0 -3.78182e-07 3.82893e-08 0 -0.000279438 -0.00203772 0 -5.39668e-06 0.000174607 0 1.91028e-05 -3.96395e-05 0 -6.79497e-07 1.18613e-05 0 8.30364e-06 -4.35379e-07 0 4.49894e-07 2.60488e-06 0 2.6881e-06 1.83825e-06 0 3.10969e-07 4.26456e-07 0 9.50067e-07 8.30235e-07 0 3.31114e-07 -9.18751e-08 0 5.56961e-07 2.13462e-07 0 4.4335e-07 -1.51436e-07 0 5.47159e-07 2.68772e-09 0 5.54529e-07 -1.09641e-07 0 6.08171e-07 -3.76097e-08 0 6.30219e-07 -6.23602e-08 0 6.5693e-07 -2.90338e-08 0 6.71303e-07 -2.98824e-08 0 6.82867e-07 -1.46622e-08 0 6.89081e-07 -1.14495e-08 0 6.9252e-07 -4.77988e-09 0 6.93653e-07 -2.11691e-09 0 6.92924e-07 1.76858e-10 0 6.91379e-07 1.40068e-09 0 6.89048e-07 -1.98128e-10 0 6.86754e-07 -2.98024e-09 0 6.87816e-07 -1.07233e-08 0 6.90429e-07 -2.28035e-08 0 7.11204e-07 -1.66916e-08 0 7.16185e-07 -2.70325e-08 0 6.90424e-07 2.07184e-07 0 -1.09655e-07 6.20234e-07 0 -0.000291984 -0.0025256 0 -6.6572e-06 0.000216004 0 1.91451e-05 -4.8863e-05 0 -2.59252e-06 1.51766e-05 0 6.43702e-06 -4.06707e-07 0 -1.77515e-06 3.15989e-06 0 7.48588e-07 2.18077e-06 0 -1.63006e-06 4.4994e-07 0 -8.77845e-07 9.88654e-07 0 -1.50446e-06 -1.34626e-07 0 -1.25786e-06 2.61117e-07 0 -1.3879e-06 -1.86325e-07 0 -1.28904e-06 9.20815e-09 0 -1.29519e-06 -1.30611e-07 0 -1.24902e-06 -4.11277e-08 0 -1.23501e-06 -7.33379e-08 0 -1.2129e-06 -3.27816e-08 0 -1.20216e-06 -3.5007e-08 0 -1.1921e-06 -1.68869e-08 0 -1.18673e-06 -1.35374e-08 0 -1.18234e-06 -5.9055e-09 0 -1.18058e-06 -2.74055e-09 0 -1.17813e-06 -5.29861e-10 0 -1.17889e-06 1.44794e-09 0 -1.17563e-06 -1.09727e-09 0 -1.17902e-06 -3.21426e-09 0 -1.16968e-06 -1.32558e-08 0 -1.1714e-06 -2.87123e-08 0 -1.13129e-06 -2.50129e-08 0 -1.11216e-06 -5.28216e-08 0 -1.02413e-06 2.40401e-07 0 -7.61791e-07 -1.97362e-07 0 -0.000309784 -0.00304183 0 -2.76697e-06 0.000258875 0 2.36701e-05 -5.81125e-05 0 -3.12464e-07 1.89119e-05 0 8.73087e-06 -4.00525e-07 0 4.56448e-07 3.64866e-06 0 3.34794e-06 2.43542e-06 0 1.12482e-06 4.14718e-07 0 2.03457e-06 1.10623e-06 0 1.47646e-06 -1.9928e-07 0 1.7693e-06 2.9449e-07 0 1.65823e-06 -2.26615e-07 0 1.76473e-06 1.19549e-08 0 1.75992e-06 -1.51607e-07 0 1.80353e-06 -4.48801e-08 0 1.81453e-06 -8.31343e-08 0 1.83271e-06 -3.57327e-08 0 1.84021e-06 -3.89047e-08 0 1.84667e-06 -1.79265e-08 0 1.84931e-06 -1.44885e-08 0 1.84984e-06 -5.39264e-09 0 1.84937e-06 -2.23517e-09 0 1.84623e-06 1.18837e-09 0 1.84415e-06 2.7524e-09 0 1.83744e-06 1.73517e-09 0 1.83436e-06 -1.24386e-09 0 1.82332e-06 -1.01346e-08 0 1.82285e-06 -2.80026e-08 0 1.82419e-06 -3.01237e-08 0 1.85117e-06 -4.8665e-08 0 1.80567e-06 2.84922e-07 0 -6.26639e-08 2.544e-06 0 -0.000331656 -0.00358209 0 -5.27534e-06 0.000304072 0 2.23694e-05 -6.74677e-05 0 -5.34963e-06 2.32213e-05 0 4.34567e-06 -3.81599e-07 0 -4.36672e-06 4.11144e-06 0 -9.7878e-07 2.69883e-06 0 -3.28661e-06 3.62959e-07 0 -2.24495e-06 1.25643e-06 0 -2.86451e-06 -2.58969e-07 0 -2.56019e-06 3.5513e-07 0 -2.71585e-06 -2.58426e-07 0 -2.62326e-06 3.1053e-08 0 -2.65489e-06 -1.66744e-07 0 -2.62385e-06 -4.06319e-08 0 -2.62631e-06 -9.02147e-08 0 -2.61461e-06 -3.58307e-08 0 -2.61215e-06 -4.24022e-08 0 -2.60687e-06 -1.92194e-08 0 -2.60444e-06 -1.65773e-08 0 -2.60082e-06 -7.34903e-09 0 -2.59903e-06 -3.87096e-09 0 -2.59478e-06 -1.63803e-09 0 -2.59424e-06 1.30094e-09 0 -2.58789e-06 -2.04585e-09 0 -2.59117e-06 -2.88191e-09 0 -2.58109e-06 -1.41381e-08 0 -2.58926e-06 -3.83609e-08 0 -2.54803e-06 -3.7638e-08 0 -2.50373e-06 -1.36463e-07 0 -2.28966e-06 3.67187e-07 0 -1.66634e-06 -1.99776e-06 0 -0.000364243 -0.00418293 0 3.08133e-06 0.000351965 0 2.93987e-05 -7.6273e-05 0 -2.11101e-06 2.80085e-05 0 8.48832e-06 -6.53887e-07 0 -9.59113e-08 4.38886e-06 0 3.89623e-06 2.74176e-06 0 1.78364e-06 1.9684e-07 0 3.01925e-06 1.29506e-06 0 2.48879e-06 -3.70128e-07 0 2.84736e-06 3.64965e-07 0 2.72121e-06 -3.09894e-07 0 2.82405e-06 2.97043e-08 0 2.7979e-06 -1.87572e-07 0 2.82704e-06 -4.29467e-08 0 2.82267e-06 -9.73848e-08 0 2.83007e-06 -3.63186e-08 0 2.82898e-06 -4.36531e-08 0 2.82939e-06 -1.76405e-08 0 2.82803e-06 -1.50829e-08 0 2.82528e-06 -3.71077e-09 0 2.82358e-06 -8.8426e-10 0 2.81765e-06 4.44086e-09 0 2.81643e-06 5.39824e-09 0 2.80457e-06 7.26915e-09 0 2.80372e-06 4.07321e-09 0 2.77886e-06 -1.90632e-09 0 2.77352e-06 -1.80955e-08 0 2.74269e-06 -4.80896e-08 0 2.77446e-06 -3.05546e-08 0 2.7571e-06 1.31171e-07 0 -3.63219e-07 1.06687e-05 0 -0.000407154 -0.0048078 0 5.08712e-06 0.000403917 0 2.89623e-05 -8.47998e-05 0 -8.16174e-06 3.33582e-05 0 4.97807e-06 -9.19213e-07 0 -4.23901e-06 4.72042e-06 0 6.7074e-07 2.99451e-06 0 -1.67534e-06 1.15304e-07 0 -2.29597e-07 1.51413e-06 0 -8.67961e-07 -4.13451e-07 0 -4.8403e-07 4.82969e-07 0 -6.68913e-07 -3.20832e-07 0 -5.7791e-07 8.26524e-08 0 -6.36326e-07 -1.88965e-07 0 -6.19682e-07 -2.23729e-08 0 -6.39888e-07 -9.81138e-08 0 -6.39181e-07 -3.06224e-08 0 -6.46346e-07 -4.60339e-08 0 -6.47223e-07 -1.92117e-08 0 -6.493e-07 -1.95228e-08 0 -6.48863e-07 -9.96491e-09 0 -6.48741e-07 -7.29688e-09 0 -6.46861e-07 -6.18478e-09 0 -6.45643e-07 -2.69033e-09 0 -6.44295e-07 -7.54558e-09 0 -6.41477e-07 -7.16528e-09 0 -6.52407e-07 -1.49225e-08 0 -6.38577e-07 -5.54327e-08 0 -6.94719e-07 -3.0608e-08 0 -5.34104e-07 -3.52388e-07 0 -3.46599e-07 6.3989e-07 0 -3.65384e-06 -1.09782e-05 0 -0.000481511 -0.00559982 0 5.30554e-06 0.000464455 0 2.19841e-05 -9.16142e-05 0 -1.96194e-05 3.85977e-05 0 -2.97068e-06 -2.11934e-06 0 -1.3037e-05 4.54163e-06 0 -7.10261e-06 2.62052e-06 0 -9.9061e-06 -2.8381e-07 0 -8.27864e-06 1.36198e-06 0 -9.10482e-06 -6.27424e-07 0 -8.73961e-06 4.09064e-07 0 -9.00261e-06 -4.11695e-07 0 -8.95046e-06 4.95496e-08 0 -9.04313e-06 -2.21669e-07 0 -9.05012e-06 -3.34315e-08 0 -9.08444e-06 -1.06068e-07 0 -9.09348e-06 -3.02023e-08 0 -9.10451e-06 -4.33193e-08 0 -9.10715e-06 -1.18469e-08 0 -9.10743e-06 -1.12316e-08 0 -9.10455e-06 3.63245e-09 0 -9.09916e-06 4.84334e-09 0 -9.09142e-06 1.50454e-08 0 -9.08484e-06 1.28783e-08 0 -9.06803e-06 2.2866e-08 0 -9.07621e-06 1.8616e-08 0 -9.02852e-06 1.65829e-08 0 -9.11778e-06 4.20783e-08 0 -8.94998e-06 -1.01791e-07 0 -9.23479e-06 3.05951e-07 0 -8.63707e-06 -1.27526e-06 0 -1.79211e-06 4.33898e-05 0 -0.000600918 -0.00640873 0 6.46102e-05 0.000536563 0 6.38842e-05 -9.90231e-05 0 1.90276e-05 4.36705e-05 0 4.1475e-05 -2.61892e-06 0 3.13076e-05 4.82761e-06 0 3.96257e-05 3.32263e-06 0 3.71047e-05 -2.26904e-07 0 3.98184e-05 1.94343e-06 0 3.9302e-05 -5.40781e-07 0 4.01409e-05 7.31554e-07 0 4.00694e-05 -3.39724e-07 0 4.03108e-05 2.00343e-07 0 4.0305e-05 -1.81763e-07 0 4.03626e-05 2.67666e-08 0 4.03546e-05 -9.2343e-08 0 4.03568e-05 -1.44444e-08 0 4.03412e-05 -4.68103e-08 0 4.03249e-05 -1.93138e-08 0 4.03024e-05 -2.63307e-08 0 4.02753e-05 -1.98069e-08 0 4.02459e-05 -1.89355e-08 0 4.02041e-05 -2.41949e-08 0 4.01739e-05 -1.79894e-08 0 4.00952e-05 -3.26607e-08 0 4.01036e-05 -2.85116e-08 0 3.98841e-05 -3.13777e-08 0 4.01022e-05 -1.21434e-07 0 3.92871e-05 5.89958e-08 0 4.02713e-05 -9.96434e-07 0 3.85237e-05 2.07557e-06 0 -3.64022e-06 -5.34338e-05 0 -0.000860029 -0.00783453 0 -9.63053e-05 0.000654258 0 -9.40387e-05 -0.000108082 0 -0.000143509 4.76065e-05 0 -0.000113066 -5.64296e-06 0 -0.000131441 3.50705e-06 0 -0.00012272 2.11623e-06 0 -0.000130502 -1.35234e-06 0 -0.000128735 1.30711e-06 0 -0.000132011 -1.13946e-06 0 -0.000132041 4.00259e-07 0 -0.000133388 -6.0467e-07 0 -0.000133664 4.91957e-08 0 -0.000134191 -2.80728e-07 0 -0.000134365 -2.72796e-08 0 -0.000134545 -1.16478e-07 0 -0.000134602 -1.92744e-08 0 -0.00013463 -3.62719e-08 0 -0.000134605 3.56245e-09 0 -0.000134561 4.28876e-09 0 -0.000134471 2.51137e-08 0 -0.000134391 2.72813e-08 0 -0.00013422 4.51757e-08 0 -0.000134158 4.31912e-08 0 -0.000133806 6.26575e-08 0 -0.00013395 7.02982e-08 0 -0.000133028 4.63879e-08 0 -0.000134074 2.36926e-07 0 -0.000131129 -2.79272e-07 0 -0.000135026 1.64376e-06 0 -0.000127816 -5.76148e-06 0 7.46546e-06 0.000143488 0 -0.00140688 -0.00950973 0 0.000475072 0.000840403 0 0.000447474 -0.000137069 0 0.000393401 5.40746e-05 0 0.000436461 -6.15788e-06 0 0.000433781 4.63259e-06 0 0.000450668 4.57429e-06 0 0.000456342 -7.30607e-07 0 0.000464525 3.13975e-06 0 0.000468883 -6.87426e-07 0 0.000472943 1.39486e-06 0 0.000475253 -3.27711e-07 0 0.00047709 5.05251e-07 0 0.000478093 -1.45439e-07 0 0.000478793 1.47541e-07 0 0.000479115 -7.33652e-08 0 0.000479268 2.04173e-08 0 0.000479253 -4.88444e-08 0 0.000479126 -2.5857e-08 0 0.000478927 -4.47144e-08 0 0.000478599 -5.20047e-08 0 0.000478294 -4.91609e-08 0 0.000477708 -7.99982e-08 0 0.000477439 -5.74316e-08 0 0.000476297 -1.0994e-07 0 0.000476599 -9.75701e-08 0 0.00047375 -6.91509e-08 0 0.000476553 -4.31996e-07 0 0.000467594 6.04478e-07 0 0.000477933 -3.6717e-06 0 0.000455838 1.15829e-05 0 -1.40532e-05 -0.000226009 0 -0.00176446 -0.0129472 0 -0.00258804 0.00118801 0 -0.00220345 -0.000204428 0 -0.00233072 6.8738e-05 0 -0.0022664 -1.51912e-05 0 -0.00236956 4.76017e-06 0 -0.00238773 1.88956e-06 0 -0.0024474 -1.69776e-06 0 -0.00247383 1.88827e-06 0 -0.00250539 -1.3041e-06 0 -0.00252312 7.92561e-07 0 -0.00253832 -6.3271e-07 0 -0.00254741 2.48807e-07 0 -0.00255389 -2.73143e-07 0 -0.00255762 6.01111e-08 0 -0.0025598 -1.08522e-07 0 -0.00256069 1.1576e-08 0 -0.0025608 -3.2967e-08 0 -0.00256016 6.01223e-09 0 -0.00255923 7.62392e-09 0 -0.00255742 7.37687e-09 0 -0.00255605 4.05599e-08 0 -0.00255258 1.43758e-09 0 -0.00255196 7.96902e-08 0 -0.00254449 -8.75647e-09 0 -0.00254891 1.05792e-07 0 -0.00252884 7.28162e-08 0 -0.00255309 -8.60076e-08 0 -0.00248991 9.63473e-07 0 -0.00257321 -2.4966e-06 0 -0.00242287 1.32767e-05 0 -1.16062e-05 2.35598e-05 0 0.0268772 -0.014891 0 0.0301429 0.00198353 0 0.0288484 -0.00027005 0 0.0279183 9.42277e-05 0 0.0287121 -6.7479e-05 0 0.0291582 -3.54227e-05 0 0.0298446 -3.77819e-05 0 0.0303538 -3.59162e-05 0 0.0307968 -2.31129e-05 0 0.0311263 -2.11703e-05 0 0.031368 -1.24573e-05 0 0.0315379 -1.01309e-05 0 0.0316509 -5.66752e-06 0 0.031724 -4.03938e-06 0 0.0317675 -2.00689e-06 0 0.0317913 -1.11561e-06 0 0.0318008 -2.26912e-07 0 0.031801 2.29564e-07 0 0.0317937 6.74943e-07 0 0.031782 9.3581e-07 0 0.0317633 1.29102e-06 0 0.0317452 1.43676e-06 0 0.0317125 1.89265e-06 0 0.0316962 1.87697e-06 0 0.0316339 2.41164e-06 0 0.03165 2.66205e-06 0 0.0314978 1.53518e-06 0 0.0316555 7.76222e-06 0 0.0311889 -1.0271e-05 0 0.0317847 5.5991e-05 0 0.0306652 -0.00020304 0 0.0111027 0.00396515 0 </DataArray> 
</PointData> 
<Points> 
<DataArray type="Float32" NumberOfComponents="3"> 