<?xml version="1.0"?> 
<VTKFile type="StructuredGrid" version="0.1"> 
<StructuredGrid WholeExtent="0 31 0 31 0 0"> 
<Piece Extent="0 31 0 31 0 0"> 
<PointData>
<DataArray type="Float32" Name="B" format="ascii" NumberOfComponents="3"> 
-0.000140721 0.000787735 0 -0.000172534 6.07563e-05 0 -0.00011109 5.61758e-05 0 -4.88477e-05 3.59668e-05 0 -5.0024e-05 3.09014e-05 0 -3.11034e-05 2.52745e-05 0 -3.00407e-05 2.15257e-05 0 -2.29377e-05 1.84843e-05 0 -2.10472e-05 1.58457e-05 0 -1.76691e-05 1.37654e-05 0 -1.58886e-05 1.19129e-05 0 -1.38678e-05 1.04098e-05 0 -1.23994e-05 9.09274e-06 0 -1.0985e-05 7.99622e-06 0 -9.80863e-06 7.04731e-06 0 -8.73174e-06 6.24472e-06 0 -7.78663e-06 5.55375e-06 0 -6.93014e-06 4.96429e-06 0 -6.1606e-06 4.45767e-06 0 -5.46066e-06 4.02396e-06 0 -4.823e-06 3.65193e-06 0 -4.23802e-06 3.33386e-06 0 -3.69873e-06 3.06254e-06 0 -3.19845e-06 2.83243e-06 0 -2.7314e-06 2.63875e-06 0 -2.29231e-06 2.47772e-06 0 -1.87641e-06 2.3462e-06 0 -1.47932e-06 2.24173e-06 0 -1.09691e-06 2.16237e-06 0 -7.25343e-07 2.10669e-06 0 -3.60902e-07 2.07366e-06 0 0 2.06272e-06 0 -0.00116681 -0.000595164 0 -0.000202589 5.85195e-05 0 -8.61756e-05 2.74617e-05 0 -6.79857e-05 3.20778e-05 0 -4.2339e-05 2.57879e-05 0 -3.73385e-05 2.29571e-05 0 -2.8458e-05 1.98229e-05 0 -2.51876e-05 1.71076e-05 0 -2.10762e-05 1.49307e-05 0 -1.86635e-05 1.28971e-05 0 -1.62376e-05 1.12779e-05 0 -1.44165e-05 9.81166e-06 0 -1.27406e-05 8.6102e-06 0 -1.13388e-05 7.55342e-06 0 -1.008e-05 6.66815e-06 0 -8.97874e-06 5.90093e-06 0 -7.99102e-06 5.24984e-06 0 -7.10863e-06 4.68889e-06 0 -6.31212e-06 4.20971e-06 0 -5.59122e-06 3.79799e-06 0 -4.93451e-06 3.44575e-06 0 -4.33338e-06 3.14427e-06 0 -3.77981e-06 2.8874e-06 0 -3.26699e-06 2.66951e-06 0 -2.78875e-06 2.48623e-06 0 -2.33961e-06 2.33386e-06 0 -1.91457e-06 2.20947e-06 0 -1.50904e-06 2.11067e-06 0 -1.11875e-06 2.03563e-06 0 -7.39685e-07 1.98298e-06 0 -3.6801e-07 1.95177e-06 0 2.93119e-20 1.94143e-06 0 1.28433e-05 -0.000342393 0 -0.000163654 -2.6701e-05 0 -0.000102267 1.83052e-05 0 -5.79901e-05 2.26588e-05 0 -4.88381e-05 2.22562e-05 0 -3.52988e-05 2.02672e-05 0 -3.08339e-05 1.79944e-05 0 -2.51592e-05 1.58523e-05 0 -2.21392e-05 1.38376e-05 0 -1.9038e-05 1.20998e-05 0 -1.68339e-05 1.05492e-05 0 -1.47923e-05 9.23146e-06 0 -1.31292e-05 8.08349e-06 0 -1.16387e-05 7.10787e-06 0 -1.03524e-05 6.26668e-06 0 -9.20441e-06 5.54942e-06 0 -8.18785e-06 4.93311e-06 0 -7.27572e-06 4.40596e-06 0 -6.45611e-06 3.95344e-06 0 -5.7143e-06 3.56587e-06 0 -5.04e-06 3.23372e-06 0 -4.4234e-06 2.94985e-06 0 -3.85639e-06 2.70789e-06 0 -3.33168e-06 2.50279e-06 0 -2.84288e-06 2.33027e-06 0 -2.38424e-06 2.18691e-06 0 -1.95056e-06 2.06989e-06 0 -1.53706e-06 1.97697e-06 0 -1.13933e-06 1.90641e-06 0 -7.53207e-07 1.85691e-06 0 -3.74711e-07 1.82756e-06 0 2.26072e-20 1.81783e-06 0 -9.51691e-05 -0.000265688 0 -0.000133208 -5.08394e-05 0 -8.67427e-05 4.09672e-06 0 -6.24649e-05 1.5879e-05 0 -4.60165e-05 1.82689e-05 0 -3.74641e-05 1.769e-05 0 -3.06458e-05 1.62173e-05 0 -2.62328e-05 1.44888e-05 0 -2.25017e-05 1.27917e-05 0 -1.9673e-05 1.12257e-05 0 -1.72327e-05 9.83137e-06 0 -1.52156e-05 8.60945e-06 0 -1.34551e-05 7.55148e-06 0 -1.19373e-05 6.63928e-06 0 -1.05992e-05 5.85615e-06 0 -9.42035e-06 5.18406e-06 0 -8.37086e-06 4.60799e-06 0 -7.43358e-06 4.11394e-06 0 -6.59101e-06 3.69043e-06 0 -5.8301e-06 3.32736e-06 0 -5.13902e-06 3.01647e-06 0 -4.50796e-06 2.75072e-06 0 -3.92826e-06 2.52432e-06 0 -3.39239e-06 2.33243e-06 0 -2.89366e-06 2.17109e-06 0 -2.4261e-06 2.03704e-06 0 -1.98431e-06 1.92764e-06 0 -1.56334e-06 1.84079e-06 0 -1.15863e-06 1.77485e-06 0 -7.65882e-07 1.72859e-06 0 -3.80992e-07 1.70117e-06 0 0 1.69209e-06 0 -2.58924e-05 -0.000151055 0 -0.000100081 -6.11357e-05 0 -7.94316e-05 -5.51991e-06 0 -5.93277e-05 9.78191e-06 0 -4.61058e-05 1.46111e-05 0 -3.74298e-05 1.52142e-05 0 -3.12667e-05 1.44414e-05 0 -2.66724e-05 1.31427e-05 0 -2.30563e-05 1.17131e-05 0 -2.01163e-05 1.03446e-05 0 -1.76607e-05 9.08594e-06 0 -1.55724e-05 7.97447e-06 0 -1.37731e-05 6.99998e-06 0 -1.22068e-05 6.15835e-06 0 -1.08329e-05 5.43211e-06 0 -9.61979e-06 4.80874e-06 0 -8.54245e-06 4.27337e-06 0 -7.58047e-06 3.81434e-06 0 -6.71707e-06 3.42058e-06 0 -5.93805e-06 3.08314e-06 0 -5.23141e-06 2.79418e-06 0 -4.58681e-06 2.54725e-06 0 -3.99528e-06 2.33692e-06 0 -3.44898e-06 2.1587e-06 0 -2.94099e-06 2.00888e-06 0 -2.4651e-06 1.88443e-06 0 -2.01575e-06 1.78289e-06 0 -1.58782e-06 1.70229e-06 0 -1.17661e-06 1.64111e-06 0 -7.77685e-07 1.59819e-06 0 -3.8684e-07 1.57275e-06 0 3.7012e-22 1.56432e-06 0 -2.20748e-05 -0.000126141 0 -7.59153e-05 -5.68196e-05 0 -6.9909e-05 -1.24936e-05 0 -5.63319e-05 5.1081e-06 0 -4.51686e-05 1.12612e-05 0 -3.74247e-05 1.29042e-05 0 -3.15524e-05 1.27233e-05 0 -2.70959e-05 1.17984e-05 0 -2.34885e-05 1.06365e-05 0 -2.05323e-05 9.44383e-06 0 -1.80348e-05 8.32862e-06 0 -1.59044e-05 7.32125e-06 0 -1.40617e-05 6.43543e-06 0 -1.24567e-05 5.66357e-06 0 -1.1048e-05 4.99725e-06 0 -9.80464e-06 4.42332e-06 0 -8.70105e-06 3.93048e-06 0 -7.71654e-06 3.50739e-06 0 -6.83373e-06 3.14456e-06 0 -6.03801e-06 2.83352e-06 0 -5.31692e-06 2.56724e-06 0 -4.65977e-06 2.33971e-06 0 -4.05728e-06 2.14596e-06 0 -3.50133e-06 1.98181e-06 0 -2.98475e-06 1.84386e-06 0 -2.50116e-06 1.72928e-06 0 -2.04481e-06 1.63582e-06 0 -1.61044e-06 1.56164e-06 0 -1.19322e-06 1.50534e-06 0 -7.88592e-07 1.46585e-06 0 -3.92244e-07 1.44244e-06 0 2.59041e-20 1.43469e-06 0 -1.16119e-05 -8.66001e-05 0 -5.82133e-05 -5.18144e-05 0 -6.12697e-05 -1.57614e-05 0 -5.26832e-05 1.40548e-06 0 -4.40131e-05 8.42934e-06 0 -3.71313e-05 1.07759e-05 0 -3.17267e-05 1.10757e-05 0 -2.74051e-05 1.04868e-05 0 -2.38602e-05 9.55476e-06 0 -2.08925e-05 8.53904e-06 0 -1.8371e-05 7.55564e-06 0 -1.62034e-05 6.65652e-06 0 -1.43247e-05 5.85689e-06 0 -1.26847e-05 5.15779e-06 0 -1.12449e-05 4.5517e-06 0 -9.97393e-06 4.02915e-06 0 -8.84648e-06 3.57972e-06 0 -7.84133e-06 3.19383e-06 0 -6.94074e-06 2.86274e-06 0 -6.12969e-06 2.57896e-06 0 -5.39534e-06 2.336e-06 0 -4.72668e-06 2.12844e-06 0 -4.11412e-06 1.95171e-06 0 -3.5493e-06 1.80202e-06 0 -3.02485e-06 1.67624e-06 0 -2.5342e-06 1.5718e-06 0 -2.07143e-06 1.48661e-06 0 -1.63117e-06 1.41901e-06 0 -1.20843e-06 1.3677e-06 0 -7.9858e-07 1.33172e-06 0 -3.97193e-07 1.31039e-06 0 1.20457e-20 1.30333e-06 0 -8.33949e-06 -7.03447e-05 0 -4.56983e-05 -4.45242e-05 0 -5.34798e-05 -1.70458e-05 0 -4.90574e-05 -1.15096e-06 0 -4.25909e-05 6.06942e-06 0 -3.67037e-05 8.86406e-06 0 -3.17658e-05 9.52385e-06 0 -2.76375e-05 9.20714e-06 0 -2.41641e-05 8.48388e-06 0 -2.12058e-05 7.62797e-06 0 -1.8667e-05 6.77431e-06 0 -1.6471e-05 5.97972e-06 0 -1.45609e-05 5.26763e-06 0 -1.28906e-05 4.64134e-06 0 -1.1423e-05 4.09704e-06 0 -1.01274e-05 3.62676e-06 0 -8.97835e-06 3.22197e-06 0 -7.95453e-06 2.87416e-06 0 -7.03782e-06 2.57571e-06 0 -6.21286e-06 2.31986e-06 0 -5.46648e-06 2.10084e-06 0 -4.78736e-06 1.91374e-06 0 -4.16566e-06 1.75447e-06 0 -3.5928e-06 1.61958e-06 0 -3.06121e-06 1.50626e-06 0 -2.56415e-06 1.41218e-06 0 -2.09556e-06 1.33545e-06 0 -1.64994e-06 1.27457e-06 0 -1.22222e-06 1.22837e-06 0 -8.0763e-07 1.19597e-06 0 -4.01676e-07 1.17677e-06 0 0 1.17041e-06 0 -6.80467e-06 -5.32177e-05 0 -3.68372e-05 -3.793e-05 0 -4.685e-05 -1.66932e-05 0 -4.56173e-05 -2.8091e-06 0 -4.10682e-05 4.19633e-06 0 -3.6177e-05 7.17538e-06 0 -3.17099e-05 8.07404e-06 0 -2.78001e-05 7.97159e-06 0 -2.44097e-05 7.42485e-06 0 -2.14734e-05 6.71702e-06 0 -1.89248e-05 5.98535e-06 0 -1.6707e-05 5.29403e-06 0 -1.47706e-05 4.66849e-06 0 -1.30741e-05 4.1159e-06 0 -1.1582e-05 3.63406e-06 0 -1.02645e-05 3.21714e-06 0 -9.09634e-06 2.85787e-06 0 -8.05585e-06 2.54904e-06 0 -7.12473e-06 2.28394e-06 0 -6.28732e-06 2.05668e-06 0 -5.53016e-06 1.86214e-06 0 -4.84167e-06 1.69597e-06 0 -4.21179e-06 1.55452e-06 0 -3.63172e-06 1.43475e-06 0 -3.09373e-06 1.33415e-06 0 -2.59093e-06 1.25063e-06 0 -2.11714e-06 1.18253e-06 0 -1.66674e-06 1.1285e-06 0 -1.23454e-06 1.0875e-06 0 -8.15722e-07 1.05875e-06 0 -4.05685e-07 1.04171e-06 0 0 1.03607e-06 0 -5.01751e-06 -4.28645e-05 0 -3.04746e-05 -3.14781e-05 0 -4.14472e-05 -1.54443e-05 0 -4.24686e-05 -3.67969e-06 0 -3.95772e-05 2.75547e-06 0 -3.55903e-05 5.709e-06 0 -3.1595e-05 6.73134e-06 0 -2.79026e-05 6.78179e-06 0 -2.46063e-05 6.38309e-06 0 -2.16973e-05 5.80746e-06 0 -1.91463e-05 5.1919e-06 0 -1.69117e-05 4.60061e-06 0 -1.49538e-05 4.06129e-06 0 -1.32348e-05 3.58248e-06 0 -1.17217e-05 3.16391e-06 0 -1.03852e-05 2.80109e-06 0 -9.20018e-06 2.48818e-06 0 -8.14505e-06 2.21905e-06 0 -7.20126e-06 1.98799e-06 0 -6.35288e-06 1.78988e-06 0 -5.58623e-06 1.62029e-06 0 -4.88948e-06 1.47545e-06 0 -4.25239e-06 1.35217e-06 0 -3.66598e-06 1.2478e-06 0 -3.12235e-06 1.16014e-06 0 -2.6145e-06 1.08737e-06 0 -2.13613e-06 1.02805e-06 0 -1.68151e-06 9.80984e-07 0 -1.24538e-06 9.45275e-07 0 -8.2284e-07 9.20237e-07 0 -4.09211e-07 9.054e-07 0 0 9.00485e-07 0 -4.61179e-06 -3.31796e-05 0 -2.59291e-05 -2.57045e-05 0 -3.70882e-05 -1.35759e-05 0 -3.97485e-05 -3.95268e-06 0 -3.81733e-05 1.70007e-06 0 -3.50072e-05 4.44982e-06 0 -3.14394e-05 5.49214e-06 0 -2.79627e-05 5.63982e-06 0 -2.47582e-05 5.35933e-06 0 -2.1882e-05 4.90188e-06 0 -1.93323e-05 4.39523e-06 0 -1.70859e-05 3.90135e-06 0 -1.51104e-05 3.44723e-06 0 -1.33728e-05 3.04237e-06 0 -1.18418e-05 2.68752e-06 0 -1.0489e-05 2.37951e-06 0 -9.28961e-06 2.11363e-06 0 -8.22191e-06 1.88484e-06 0 -7.2672e-06 1.68837e-06 0 -6.40937e-06 1.51991e-06 0 -5.63454e-06 1.3757e-06 0 -4.93068e-06 1.25254e-06 0 -4.28737e-06 1.14773e-06 0 -3.69549e-06 1.05899e-06 0 -3.14701e-06 9.84475e-07 0 -2.6348e-06 9.22628e-07 0 -2.15248e-06 8.72206e-07 0 -1.69423e-06 8.32211e-07 0 -1.25472e-06 8.01866e-07 0 -8.28969e-07 7.80591e-07 0 -4.12247e-07 7.67984e-07 0 0 7.63808e-07 0 -3.69141e-06 -2.5851e-05 0 -2.26405e-05 -2.03415e-05 0 -3.37154e-05 -1.13758e-05 0 -3.74577e-05 -3.76018e-06 0 -3.69421e-05 9.6543e-07 0 -3.44561e-05 3.37585e-06 0 -3.12742e-05 4.34905e-06 0 -2.79896e-05 4.54304e-06 0 -2.4874e-05 4.35422e-06 0 -2.20298e-05 4.00099e-06 0 -1.94848e-05 3.59689e-06 0 -1.72298e-05 3.19743e-06 0 -1.52406e-05 2.82763e-06 0 -1.34878e-05 2.49665e-06 0 -1.19421e-05 2.20592e-06 0 -1.05759e-05 1.95324e-06 0 -9.36445e-06 1.73496e-06 0 -8.28623e-06 1.54705e-06 0 -7.3224e-06 1.38566e-06 0 -6.45667e-06 1.24725e-06 0 -5.67499e-06 1.12878e-06 0 -4.96517e-06 1.0276e-06 0 -4.31665e-06 9.41496e-07 0 -3.72019e-06 8.68613e-07 0 -3.16764e-06 8.07408e-07 0 -2.65179e-06 7.56616e-07 0 -2.16616e-06 7.1521e-07 0 -1.70487e-06 6.82368e-07 0 -1.26253e-06 6.57452e-07 0 -8.34096e-07 6.39984e-07 0 -4.14787e-07 6.29632e-07 0 0 6.26204e-07 0 -3.49915e-06 -1.90894e-05 0 -2.03191e-05 -1.5423e-05 0 -3.11539e-05 -8.96921e-06 0 -3.56428e-05 -3.23129e-06 0 -3.59104e-05 4.90532e-07 0 -3.39799e-05 2.45848e-06 0 -3.11148e-05 3.28976e-06 0 -2.79974e-05 3.48711e-06 0 -2.49584e-05 3.36625e-06 0 -2.21442e-05 3.10524e-06 0 -1.96048e-05 2.79768e-06 0 -1.73442e-05 2.49009e-06 0 -1.53445e-05 2.20363e-06 0 -1.35799e-05 1.94643e-06 0 -1.20225e-05 1.72008e-06 0 -1.06455e-05 1.52314e-06 0 -9.42451e-06 1.35291e-06 0 -8.33788e-06 1.20632e-06 0 -7.36672e-06 1.08039e-06 0 -6.49465e-06 9.72387e-07 0 -5.70746e-06 8.79936e-07 0 -4.99286e-06 8.00985e-07 0 -4.34016e-06 7.33802e-07 0 -3.74001e-06 6.76937e-07 0 -3.1842e-06 6.29187e-07 0 -2.66542e-06 5.89563e-07 0 -2.17714e-06 5.57263e-07 0 -1.71342e-06 5.31646e-07 0 -1.2688e-06 5.12212e-07 0 -8.3821e-07 4.98587e-07 0 -4.16825e-07 4.90514e-07 0 0 4.8784e-07 0 -3.07227e-06 -1.32718e-05 0 -1.87218e-05 -1.07936e-05 0 -2.93346e-05 -6.45925e-06 0 -3.42837e-05 -2.46231e-06 0 -3.51193e-05 2.12675e-07 0 -3.35989e-05 1.66572e-06 0 -3.09815e-05 2.29896e-06 0 -2.79939e-05 2.46508e-06 0 -2.50172e-05 2.39306e-06 0 -2.22275e-05 2.21417e-06 0 -1.96937e-05 1.99826e-06 0 -1.74294e-05 1.78027e-06 0 -1.54223e-05 1.57632e-06 0 -1.3649e-05 1.39274e-06 0 -1.20829e-05 1.23096e-06 0 -1.06979e-05 1.09008e-06 0 -9.46967e-06 9.68242e-07 0 -8.37672e-06 8.63299e-07 0 -7.40006e-06 7.7313e-07 0 -6.52321e-06 6.95797e-07 0 -5.73189e-06 6.29598e-07 0 -5.01369e-06 5.73067e-07 0 -4.35784e-06 5.24964e-07 0 -3.75492e-06 4.84251e-07 0 -3.19665e-06 4.50065e-07 0 -2.67567e-06 4.21698e-07 0 -2.18539e-06 3.98576e-07 0 -1.71984e-06 3.80238e-07 0 -1.27351e-06 3.66327e-07 0 -8.41303e-07 3.56575e-07 0 -4.18357e-07 3.50796e-07 0 -8.7189e-22 3.48882e-07 0 -2.98379e-06 -7.75659e-06 0 -1.77286e-05 -6.39379e-06 0 -2.81578e-05 -3.8915e-06 0 -3.33874e-05 -1.53677e-06 0 -3.45806e-05 7.32463e-08 0 -3.33359e-05 9.63087e-07 0 -3.08848e-05 1.3587e-06 0 -2.79877e-05 1.46853e-06 0 -2.50539e-05 1.43112e-06 0 -2.22819e-05 1.32688e-06 0 -1.97524e-05 1.19887e-06 0 -1.74861e-05 1.06879e-06 0 -1.54741e-05 9.46701e-07 0 -1.3695e-05 8.36616e-07 0 -1.21232e-05 7.39504e-07 0 -1.07328e-05 6.54893e-07 0 -9.49983e-06 5.81696e-07 0 -8.40266e-06 5.18636e-07 0 -7.42233e-06 4.64448e-07 0 -6.5423e-06 4.17973e-07 0 -5.7482e-06 3.78188e-07 0 -5.0276e-06 3.44215e-07 0 -4.36965e-06 3.15307e-07 0 -3.76488e-06 2.9084e-07 0 -3.20497e-06 2.70297e-07 0 -2.68252e-06 2.53252e-07 0 -2.19091e-06 2.39358e-07 0 -1.72413e-06 2.2834e-07 0 -1.27666e-06 2.19981e-07 0 -8.43369e-07 2.14121e-07 0 -4.19381e-07 2.10649e-07 0 -4.4518e-21 2.09499e-07 0 -2.86049e-06 -2.57944e-06 0 -1.72486e-05 -2.11545e-06 0 -2.7585e-05 -1.29991e-06 0 -3.29397e-05 -5.21759e-07 0 -3.43096e-05 1.53864e-08 0 -3.32008e-05 3.1496e-07 0 -3.08347e-05 4.49425e-07 0 -2.79831e-05 4.87729e-07 0 -2.50717e-05 4.76243e-07 0 -2.23087e-05 4.42012e-07 0 -1.97816e-05 3.99608e-07 0 -1.75143e-05 3.56366e-07 0 -1.55e-05 3.15718e-07 0 -1.37181e-05 2.79033e-07 0 -1.21434e-05 2.46656e-07 0 -1.07503e-05 2.18439e-07 0 -9.51493e-06 1.94024e-07 0 -8.41565e-06 1.72988e-07 0 -7.43348e-06 1.54911e-07 0 -6.55185e-06 1.39407e-07 0 -5.75637e-06 1.26134e-07 0 -5.03456e-06 1.14801e-07 0 -4.37556e-06 1.05157e-07 0 -3.76987e-06 9.69951e-08 0 -3.20914e-06 9.01423e-08 0 -2.68595e-06 8.44562e-08 0 -2.19367e-06 7.98215e-08 0 -1.72627e-06 7.6146e-08 0 -1.27824e-06 7.33578e-08 0 -8.44403e-07 7.14032e-08 0 -4.19893e-07 7.0245e-08 0 -2.64469e-22 6.98614e-08 0 -2.86049e-06 2.57944e-06 0 -1.72486e-05 2.11545e-06 0 -2.7585e-05 1.29991e-06 0 -3.29397e-05 5.21759e-07 0 -3.43096e-05 -1.53864e-08 0 -3.32008e-05 -3.1496e-07 0 -3.08347e-05 -4.49425e-07 0 -2.79831e-05 -4.87729e-07 0 -2.50717e-05 -4.76243e-07 0 -2.23087e-05 -4.42012e-07 0 -1.97816e-05 -3.99608e-07 0 -1.75143e-05 -3.56366e-07 0 -1.55e-05 -3.15718e-07 0 -1.37181e-05 -2.79033e-07 0 -1.21434e-05 -2.46656e-07 0 -1.07503e-05 -2.18439e-07 0 -9.51493e-06 -1.94024e-07 0 -8.41565e-06 -1.72988e-07 0 -7.43348e-06 -1.54911e-07 0 -6.55185e-06 -1.39407e-07 0 -5.75637e-06 -1.26134e-07 0 -5.03456e-06 -1.14801e-07 0 -4.37556e-06 -1.05157e-07 0 -3.76987e-06 -9.69951e-08 0 -3.20914e-06 -9.01423e-08 0 -2.68595e-06 -8.44562e-08 0 -2.19367e-06 -7.98215e-08 0 -1.72627e-06 -7.6146e-08 0 -1.27824e-06 -7.33578e-08 0 -8.44403e-07 -7.14032e-08 0 -4.19893e-07 -7.0245e-08 0 0 -6.98614e-08 0 -2.98379e-06 7.75659e-06 0 -1.77286e-05 6.39379e-06 0 -2.81578e-05 3.8915e-06 0 -3.33874e-05 1.53677e-06 0 -3.45806e-05 -7.32463e-08 0 -3.33359e-05 -9.63087e-07 0 -3.08848e-05 -1.3587e-06 0 -2.79877e-05 -1.46853e-06 0 -2.50539e-05 -1.43112e-06 0 -2.22819e-05 -1.32688e-06 0 -1.97524e-05 -1.19887e-06 0 -1.74861e-05 -1.06879e-06 0 -1.54741e-05 -9.46701e-07 0 -1.3695e-05 -8.36616e-07 0 -1.21232e-05 -7.39504e-07 0 -1.07328e-05 -6.54893e-07 0 -9.49983e-06 -5.81696e-07 0 -8.40266e-06 -5.18636e-07 0 -7.42233e-06 -4.64448e-07 0 -6.5423e-06 -4.17973e-07 0 -5.7482e-06 -3.78188e-07 0 -5.0276e-06 -3.44215e-07 0 -4.36965e-06 -3.15307e-07 0 -3.76488e-06 -2.9084e-07 0 -3.20497e-06 -2.70297e-07 0 -2.68252e-06 -2.53252e-07 0 -2.19091e-06 -2.39358e-07 0 -1.72413e-06 -2.2834e-07 0 -1.27666e-06 -2.19981e-07 0 -8.43369e-07 -2.14121e-07 0 -4.19381e-07 -2.10649e-07 0 0 -2.09499e-07 0 -3.07227e-06 1.32718e-05 0 -1.87218e-05 1.07936e-05 0 -2.93346e-05 6.45925e-06 0 -3.42837e-05 2.46231e-06 0 -3.51193e-05 -2.12675e-07 0 -3.35989e-05 -1.66572e-06 0 -3.09815e-05 -2.29896e-06 0 -2.79939e-05 -2.46508e-06 0 -2.50172e-05 -2.39306e-06 0 -2.22275e-05 -2.21417e-06 0 -1.96937e-05 -1.99826e-06 0 -1.74294e-05 -1.78027e-06 0 -1.54223e-05 -1.57632e-06 0 -1.3649e-05 -1.39274e-06 0 -1.20829e-05 -1.23096e-06 0 -1.06979e-05 -1.09008e-06 0 -9.46967e-06 -9.68242e-07 0 -8.37672e-06 -8.63299e-07 0 -7.40006e-06 -7.7313e-07 0 -6.52321e-06 -6.95797e-07 0 -5.73189e-06 -6.29598e-07 0 -5.01369e-06 -5.73067e-07 0 -4.35784e-06 -5.24964e-07 0 -3.75492e-06 -4.84251e-07 0 -3.19665e-06 -4.50065e-07 0 -2.67567e-06 -4.21698e-07 0 -2.18539e-06 -3.98576e-07 0 -1.71984e-06 -3.80238e-07 0 -1.27351e-06 -3.66327e-07 0 -8.41303e-07 -3.56575e-07 0 -4.18357e-07 -3.50796e-07 0 1.67155e-21 -3.48882e-07 0 -3.49915e-06 1.90894e-05 0 -2.03191e-05 1.5423e-05 0 -3.11539e-05 8.96921e-06 0 -3.56428e-05 3.23129e-06 0 -3.59104e-05 -4.90532e-07 0 -3.39799e-05 -2.45848e-06 0 -3.11148e-05 -3.28976e-06 0 -2.79974e-05 -3.48711e-06 0 -2.49584e-05 -3.36625e-06 0 -2.21442e-05 -3.10524e-06 0 -1.96048e-05 -2.79768e-06 0 -1.73442e-05 -2.49009e-06 0 -1.53445e-05 -2.20363e-06 0 -1.35799e-05 -1.94643e-06 0 -1.20225e-05 -1.72008e-06 0 -1.06455e-05 -1.52314e-06 0 -9.42451e-06 -1.35291e-06 0 -8.33788e-06 -1.20632e-06 0 -7.36672e-06 -1.08039e-06 0 -6.49465e-06 -9.72387e-07 0 -5.70746e-06 -8.79936e-07 0 -4.99286e-06 -8.00985e-07 0 -4.34016e-06 -7.33802e-07 0 -3.74001e-06 -6.76937e-07 0 -3.1842e-06 -6.29187e-07 0 -2.66542e-06 -5.89563e-07 0 -2.17714e-06 -5.57263e-07 0 -1.71342e-06 -5.31646e-07 0 -1.2688e-06 -5.12212e-07 0 -8.3821e-07 -4.98587e-07 0 -4.16825e-07 -4.90514e-07 0 1.02222e-20 -4.8784e-07 0 -3.69141e-06 2.5851e-05 0 -2.26405e-05 2.03415e-05 0 -3.37154e-05 1.13758e-05 0 -3.74577e-05 3.76018e-06 0 -3.69421e-05 -9.6543e-07 0 -3.44561e-05 -3.37585e-06 0 -3.12742e-05 -4.34905e-06 0 -2.79896e-05 -4.54304e-06 0 -2.4874e-05 -4.35422e-06 0 -2.20298e-05 -4.00099e-06 0 -1.94848e-05 -3.59689e-06 0 -1.72298e-05 -3.19743e-06 0 -1.52406e-05 -2.82763e-06 0 -1.34878e-05 -2.49665e-06 0 -1.19421e-05 -2.20592e-06 0 -1.05759e-05 -1.95324e-06 0 -9.36445e-06 -1.73496e-06 0 -8.28623e-06 -1.54705e-06 0 -7.3224e-06 -1.38566e-06 0 -6.45667e-06 -1.24725e-06 0 -5.67499e-06 -1.12878e-06 0 -4.96517e-06 -1.0276e-06 0 -4.31665e-06 -9.41496e-07 0 -3.72019e-06 -8.68613e-07 0 -3.16764e-06 -8.07408e-07 0 -2.65179e-06 -7.56616e-07 0 -2.16616e-06 -7.1521e-07 0 -1.70487e-06 -6.82368e-07 0 -1.26253e-06 -6.57452e-07 0 -8.34096e-07 -6.39984e-07 0 -4.14787e-07 -6.29632e-07 0 1.12046e-21 -6.26204e-07 0 -4.61179e-06 3.31796e-05 0 -2.59291e-05 2.57045e-05 0 -3.70882e-05 1.35759e-05 0 -3.97485e-05 3.95268e-06 0 -3.81733e-05 -1.70007e-06 0 -3.50072e-05 -4.44982e-06 0 -3.14394e-05 -5.49214e-06 0 -2.79627e-05 -5.63982e-06 0 -2.47582e-05 -5.35933e-06 0 -2.1882e-05 -4.90188e-06 0 -1.93323e-05 -4.39523e-06 0 -1.70859e-05 -3.90135e-06 0 -1.51104e-05 -3.44723e-06 0 -1.33728e-05 -3.04237e-06 0 -1.18418e-05 -2.68752e-06 0 -1.0489e-05 -2.37951e-06 0 -9.28961e-06 -2.11363e-06 0 -8.22191e-06 -1.88484e-06 0 -7.2672e-06 -1.68837e-06 0 -6.40937e-06 -1.51991e-06 0 -5.63454e-06 -1.3757e-06 0 -4.93068e-06 -1.25254e-06 0 -4.28737e-06 -1.14773e-06 0 -3.69549e-06 -1.05899e-06 0 -3.14701e-06 -9.84475e-07 0 -2.6348e-06 -9.22628e-07 0 -2.15248e-06 -8.72206e-07 0 -1.69423e-06 -8.32211e-07 0 -1.25472e-06 -8.01866e-07 0 -8.28969e-07 -7.80591e-07 0 -4.12247e-07 -7.67984e-07 0 0 -7.63808e-07 0 -5.01751e-06 4.28645e-05 0 -3.04746e-05 3.14781e-05 0 -4.14472e-05 1.54443e-05 0 -4.24686e-05 3.67969e-06 0 -3.95772e-05 -2.75547e-06 0 -3.55903e-05 -5.709e-06 0 -3.1595e-05 -6.73134e-06 0 -2.79026e-05 -6.78179e-06 0 -2.46063e-05 -6.38309e-06 0 -2.16973e-05 -5.80746e-06 0 -1.91463e-05 -5.1919e-06 0 -1.69117e-05 -4.60061e-06 0 -1.49538e-05 -4.06129e-06 0 -1.32348e-05 -3.58248e-06 0 -1.17217e-05 -3.16391e-06 0 -1.03852e-05 -2.80109e-06 0 -9.20018e-06 -2.48818e-06 0 -8.14505e-06 -2.21905e-06 0 -7.20126e-06 -1.98799e-06 0 -6.35288e-06 -1.78988e-06 0 -5.58623e-06 -1.62029e-06 0 -4.88948e-06 -1.47545e-06 0 -4.25239e-06 -1.35217e-06 0 -3.66598e-06 -1.2478e-06 0 -3.12235e-06 -1.16014e-06 0 -2.6145e-06 -1.08737e-06 0 -2.13613e-06 -1.02805e-06 0 -1.68151e-06 -9.80984e-07 0 -1.24538e-06 -9.45275e-07 0 -8.2284e-07 -9.20237e-07 0 -4.09211e-07 -9.054e-07 0 0 -9.00485e-07 0 -6.80467e-06 5.32177e-05 0 -3.68372e-05 3.793e-05 0 -4.685e-05 1.66932e-05 0 -4.56173e-05 2.8091e-06 0 -4.10682e-05 -4.19633e-06 0 -3.6177e-05 -7.17538e-06 0 -3.17099e-05 -8.07404e-06 0 -2.78001e-05 -7.97159e-06 0 -2.44097e-05 -7.42485e-06 0 -2.14734e-05 -6.71702e-06 0 -1.89248e-05 -5.98535e-06 0 -1.6707e-05 -5.29403e-06 0 -1.47706e-05 -4.66849e-06 0 -1.30741e-05 -4.1159e-06 0 -1.1582e-05 -3.63406e-06 0 -1.02645e-05 -3.21714e-06 0 -9.09634e-06 -2.85787e-06 0 -8.05585e-06 -2.54904e-06 0 -7.12473e-06 -2.28394e-06 0 -6.28732e-06 -2.05668e-06 0 -5.53016e-06 -1.86214e-06 0 -4.84167e-06 -1.69597e-06 0 -4.21179e-06 -1.55452e-06 0 -3.63172e-06 -1.43475e-06 0 -3.09373e-06 -1.33415e-06 0 -2.59093e-06 -1.25063e-06 0 -2.11714e-06 -1.18253e-06 0 -1.66674e-06 -1.1285e-06 0 -1.23454e-06 -1.0875e-06 0 -8.15722e-07 -1.05875e-06 0 -4.05685e-07 -1.04171e-06 0 0 -1.03607e-06 0 -8.33949e-06 7.03447e-05 0 -4.56983e-05 4.45242e-05 0 -5.34798e-05 1.70458e-05 0 -4.90574e-05 1.15096e-06 0 -4.25909e-05 -6.06942e-06 0 -3.67037e-05 -8.86406e-06 0 -3.17658e-05 -9.52385e-06 0 -2.76375e-05 -9.20714e-06 0 -2.41641e-05 -8.48388e-06 0 -2.12058e-05 -7.62797e-06 0 -1.8667e-05 -6.77431e-06 0 -1.6471e-05 -5.97972e-06 0 -1.45609e-05 -5.26763e-06 0 -1.28906e-05 -4.64134e-06 0 -1.1423e-05 -4.09704e-06 0 -1.01274e-05 -3.62676e-06 0 -8.97835e-06 -3.22197e-06 0 -7.95453e-06 -2.87416e-06 0 -7.03782e-06 -2.57571e-06 0 -6.21286e-06 -2.31986e-06 0 -5.46648e-06 -2.10084e-06 0 -4.78736e-06 -1.91374e-06 0 -4.16566e-06 -1.75447e-06 0 -3.5928e-06 -1.61958e-06 0 -3.06121e-06 -1.50626e-06 0 -2.56415e-06 -1.41218e-06 0 -2.09556e-06 -1.33545e-06 0 -1.64994e-06 -1.27457e-06 0 -1.22222e-06 -1.22837e-06 0 -8.0763e-07 -1.19597e-06 0 -4.01676e-07 -1.17677e-06 0 0 -1.17041e-06 0 -1.16119e-05 8.66001e-05 0 -5.82133e-05 5.18144e-05 0 -6.12697e-05 1.57614e-05 0 -5.26832e-05 -1.40548e-06 0 -4.40131e-05 -8.42934e-06 0 -3.71313e-05 -1.07759e-05 0 -3.17267e-05 -1.10757e-05 0 -2.74051e-05 -1.04868e-05 0 -2.38602e-05 -9.55476e-06 0 -2.08925e-05 -8.53904e-06 0 -1.8371e-05 -7.55564e-06 0 -1.62034e-05 -6.65652e-06 0 -1.43247e-05 -5.85689e-06 0 -1.26847e-05 -5.15779e-06 0 -1.12449e-05 -4.5517e-06 0 -9.97393e-06 -4.02915e-06 0 -8.84648e-06 -3.57972e-06 0 -7.84133e-06 -3.19383e-06 0 -6.94074e-06 -2.86274e-06 0 -6.12969e-06 -2.57896e-06 0 -5.39534e-06 -2.336e-06 0 -4.72668e-06 -2.12844e-06 0 -4.11412e-06 -1.95171e-06 0 -3.5493e-06 -1.80202e-06 0 -3.02485e-06 -1.67624e-06 0 -2.5342e-06 -1.5718e-06 0 -2.07143e-06 -1.48661e-06 0 -1.63117e-06 -1.41901e-06 0 -1.20843e-06 -1.3677e-06 0 -7.9858e-07 -1.33172e-06 0 -3.97193e-07 -1.31039e-06 0 0 -1.30333e-06 0 -2.20748e-05 0.000126141 0 -7.59153e-05 5.68196e-05 0 -6.9909e-05 1.24936e-05 0 -5.63319e-05 -5.1081e-06 0 -4.51686e-05 -1.12612e-05 0 -3.74247e-05 -1.29042e-05 0 -3.15524e-05 -1.27233e-05 0 -2.70959e-05 -1.17984e-05 0 -2.34885e-05 -1.06365e-05 0 -2.05323e-05 -9.44383e-06 0 -1.80348e-05 -8.32862e-06 0 -1.59044e-05 -7.32125e-06 0 -1.40617e-05 -6.43543e-06 0 -1.24567e-05 -5.66357e-06 0 -1.1048e-05 -4.99725e-06 0 -9.80464e-06 -4.42332e-06 0 -8.70105e-06 -3.93048e-06 0 -7.71654e-06 -3.50739e-06 0 -6.83373e-06 -3.14456e-06 0 -6.03801e-06 -2.83352e-06 0 -5.31692e-06 -2.56724e-06 0 -4.65977e-06 -2.33971e-06 0 -4.05728e-06 -2.14596e-06 0 -3.50133e-06 -1.98181e-06 0 -2.98475e-06 -1.84386e-06 0 -2.50116e-06 -1.72928e-06 0 -2.04481e-06 -1.63582e-06 0 -1.61044e-06 -1.56164e-06 0 -1.19322e-06 -1.50534e-06 0 -7.88592e-07 -1.46585e-06 0 -3.92244e-07 -1.44244e-06 0 0 -1.43469e-06 0 -2.58924e-05 0.000151055 0 -0.000100081 6.11357e-05 0 -7.94316e-05 5.51991e-06 0 -5.93277e-05 -9.78191e-06 0 -4.61058e-05 -1.46111e-05 0 -3.74298e-05 -1.52142e-05 0 -3.12667e-05 -1.44414e-05 0 -2.66724e-05 -1.31427e-05 0 -2.30563e-05 -1.17131e-05 0 -2.01163e-05 -1.03446e-05 0 -1.76607e-05 -9.08594e-06 0 -1.55724e-05 -7.97447e-06 0 -1.37731e-05 -6.99998e-06 0 -1.22068e-05 -6.15835e-06 0 -1.08329e-05 -5.43211e-06 0 -9.61979e-06 -4.80874e-06 0 -8.54245e-06 -4.27337e-06 0 -7.58047e-06 -3.81434e-06 0 -6.71707e-06 -3.42058e-06 0 -5.93805e-06 -3.08314e-06 0 -5.23141e-06 -2.79418e-06 0 -4.58681e-06 -2.54725e-06 0 -3.99528e-06 -2.33692e-06 0 -3.44898e-06 -2.1587e-06 0 -2.94099e-06 -2.00888e-06 0 -2.4651e-06 -1.88443e-06 0 -2.01575e-06 -1.78289e-06 0 -1.58782e-06 -1.70229e-06 0 -1.17661e-06 -1.64111e-06 0 -7.77685e-07 -1.59819e-06 0 -3.8684e-07 -1.57275e-06 0 0 -1.56432e-06 0 -9.51691e-05 0.000265688 0 -0.000133208 5.08394e-05 0 -8.67427e-05 -4.09672e-06 0 -6.24649e-05 -1.5879e-05 0 -4.60165e-05 -1.82689e-05 0 -3.74641e-05 -1.769e-05 0 -3.06458e-05 -1.62173e-05 0 -2.62328e-05 -1.44888e-05 0 -2.25017e-05 -1.27917e-05 0 -1.9673e-05 -1.12257e-05 0 -1.72327e-05 -9.83137e-06 0 -1.52156e-05 -8.60945e-06 0 -1.34551e-05 -7.55148e-06 0 -1.19373e-05 -6.63928e-06 0 -1.05992e-05 -5.85615e-06 0 -9.42035e-06 -5.18406e-06 0 -8.37086e-06 -4.60799e-06 0 -7.43358e-06 -4.11394e-06 0 -6.59101e-06 -3.69043e-06 0 -5.8301e-06 -3.32736e-06 0 -5.13902e-06 -3.01647e-06 0 -4.50796e-06 -2.75072e-06 0 -3.92826e-06 -2.52432e-06 0 -3.39239e-06 -2.33243e-06 0 -2.89366e-06 -2.17109e-06 0 -2.4261e-06 -2.03704e-06 0 -1.98431e-06 -1.92764e-06 0 -1.56334e-06 -1.84079e-06 0 -1.15863e-06 -1.77485e-06 0 -7.65882e-07 -1.72859e-06 0 -3.80992e-07 -1.70117e-06 0 0 -1.69209e-06 0 1.28433e-05 0.000342393 0 -0.000163654 2.6701e-05 0 -0.000102267 -1.83052e-05 0 -5.79901e-05 -2.26588e-05 0 -4.88381e-05 -2.22562e-05 0 -3.52988e-05 -2.02672e-05 0 -3.08339e-05 -1.79944e-05 0 -2.51592e-05 -1.58523e-05 0 -2.21392e-05 -1.38376e-05 0 -1.9038e-05 -1.20998e-05 0 -1.68339e-05 -1.05492e-05 0 -1.47923e-05 -9.23146e-06 0 -1.31292e-05 -8.08349e-06 0 -1.16387e-05 -7.10787e-06 0 -1.03524e-05 -6.26668e-06 0 -9.20441e-06 -5.54942e-06 0 -8.18785e-06 -4.93311e-06 0 -7.27572e-06 -4.40596e-06 0 -6.45611e-06 -3.95344e-06 0 -5.7143e-06 -3.56587e-06 0 -5.04e-06 -3.23372e-06 0 -4.4234e-06 -2.94985e-06 0 -3.85639e-06 -2.70789e-06 0 -3.33168e-06 -2.50279e-06 0 -2.84288e-06 -2.33027e-06 0 -2.38424e-06 -2.18691e-06 0 -1.95056e-06 -2.06989e-06 0 -1.53706e-06 -1.97697e-06 0 -1.13933e-06 -1.90641e-06 0 -7.53207e-07 -1.85691e-06 0 -3.74711e-07 -1.82756e-06 0 0 -1.81783e-06 0 -0.00116681 0.000595164 0 -0.000202589 -5.85195e-05 0 -8.61756e-05 -2.74617e-05 0 -6.79857e-05 -3.20778e-05 0 -4.2339e-05 -2.57879e-05 0 -3.73385e-05 -2.29571e-05 0 -2.8458e-05 -1.98229e-05 0 -2.51876e-05 -1.71076e-05 0 -2.10762e-05 -1.49307e-05 0 -1.86635e-05 -1.28971e-05 0 -1.62376e-05 -1.12779e-05 0 -1.44165e-05 -9.81166e-06 0 -1.27406e-05 -8.6102e-06 0 -1.13388e-05 -7.55342e-06 0 -1.008e-05 -6.66815e-06 0 -8.97874e-06 -5.90093e-06 0 -7.99102e-06 -5.24984e-06 0 -7.10863e-06 -4.68889e-06 0 -6.31212e-06 -4.20971e-06 0 -5.59122e-06 -3.79799e-06 0 -4.93451e-06 -3.44575e-06 0 -4.33338e-06 -3.14427e-06 0 -3.77981e-06 -2.8874e-06 0 -3.26699e-06 -2.66951e-06 0 -2.78875e-06 -2.48623e-06 0 -2.33961e-06 -2.33386e-06 0 -1.91457e-06 -2.20947e-06 0 -1.50904e-06 -2.11067e-06 0 -1.11875e-06 -2.03563e-06 0 -7.39685e-07 -1.98298e-06 0 -3.6801e-07 -1.95177e-06 0 0 -1.94143e-06 0 -0.000140721 -0.000787735 0 -0.000172534 -6.07563e-05 0 -0.00011109 -5.61758e-05 0 -4.88477e-05 -3.59668e-05 0 -5.0024e-05 -3.09014e-05 0 -3.11034e-05 -2.52745e-05 0 -3.00407e-05 -2.15257e-05 0 -2.29377e-05 -1.84843e-05 0 -2.10472e-05 -1.58457e-05 0 -1.76691e-05 -1.37654e-05 0 -1.58886e-05 -1.19129e-05 0 -1.38678e-05 -1.04098e-05 0 -1.23994e-05 -9.09274e-06 0 -1.0985e-05 -7.99622e-06 0 -9.80863e-06 -7.04731e-06 0 -8.73174e-06 -6.24472e-06 0 -7.78663e-06 -5.55375e-06 0 -6.93014e-06 -4.96429e-06 0 -6.1606e-06 -4.45767e-06 0 -5.46066e-06 -4.02396e-06 0 -4.823e-06 -3.65193e-06 0 -4.23802e-06 -3.33386e-06 0 -3.69873e-06 -3.06254e-06 0 -3.19845e-06 -2.83243e-06 0 -2.7314e-06 -2.63875e-06 0 -2.29231e-06 -2.47772e-06 0 -1.87641e-06 -2.3462e-06 0 -1.47932e-06 -2.24173e-06 0 -1.09691e-06 -2.16237e-06 0 -7.25343e-07 -2.10669e-06 0 -3.60902e-07 -2.07366e-06 0 0 -2.06272e-06 0 </DataArray> 
</PointData> 
<Points> 
<DataArray type="Float32" NumberOfComponents="3"> 