<?xml version="1.0"?> 
<VTKFile type="StructuredGrid" version="0.1"> 
<StructuredGrid WholeExtent="0 31 0 31 0 0"> 
<Piece Extent="0 31 0 31 0 0"> 
<PointData>
<DataArray type="Float32" Name="B" format="ascii" NumberOfComponents="3"> 
0 2.61771e-06 0 4.787e-07 2.62615e-06 0 9.60916e-07 2.65141e-06 0 1.45026e-06 2.69334e-06 0 1.95027e-06 2.75164e-06 0 2.46476e-06 2.82577e-06 0 2.99743e-06 2.91499e-06 0 3.55246e-06 3.01794e-06 0 4.13399e-06 3.13303e-06 0 4.74643e-06 3.25698e-06 0 5.39586e-06 3.3868e-06 0 6.08465e-06 3.51466e-06 0 6.82832e-06 3.63586e-06 0 7.61334e-06 3.73122e-06 0 8.49989e-06 3.79643e-06 0 9.39071e-06 3.7825e-06 0 1.05454e-05 3.69768e-06 0 1.14827e-05 3.4119e-06 0 1.33067e-05 2.99224e-06 0 1.39053e-05 2.08808e-06 0 1.78035e-05 9.66988e-07 0 1.63245e-05 -1.29235e-06 0 2.73256e-05 -3.88462e-06 0 1.68241e-05 -9.00842e-06 0 5.28179e-05 -1.49633e-05 0 7.61252e-06 -2.56722e-05 0 0.000131204 -4.11042e-05 0 -3.59887e-05 -6.04398e-05 0 0.000389864 -0.000113101 0 -0.000101289 -0.00012657 0 0.00107959 -0.000506965 0 0.0168778 0.00205312 0 -1.85512e-20 2.45742e-06 0 4.84121e-07 2.46528e-06 0 9.71743e-07 2.48878e-06 0 1.46638e-06 2.52777e-06 0 1.97159e-06 2.5819e-06 0 2.491e-06 2.65065e-06 0 3.02834e-06 2.73316e-06 0 3.58743e-06 2.82817e-06 0 4.17229e-06 2.93368e-06 0 4.78716e-06 3.04698e-06 0 5.4364e-06 3.16359e-06 0 6.12549e-06 3.27803e-06 0 6.85867e-06 3.38041e-06 0 7.64582e-06 3.46024e-06 0 8.4875e-06 3.49519e-06 0 9.41125e-06 3.46702e-06 0 1.03954e-05 3.32313e-06 0 1.15389e-05 3.0369e-06 0 1.27146e-05 2.47842e-06 0 1.43048e-05 1.62485e-06 0 1.57315e-05 1.45283e-07 0 1.84713e-05 -1.93057e-06 0 2.01445e-05 -5.43253e-06 0 2.63371e-05 -1.0217e-05 0 2.78449e-05 -1.81351e-05 0 4.52604e-05 -2.95768e-05 0 4.49116e-05 -4.71196e-05 0 0.000100969 -7.92943e-05 0 0.000100117 -0.000120606 0 0.000308123 -0.000260652 0 0.000562055 -0.000460645 0 0.000527449 -0.00501032 0 -1.42731e-20 2.29539e-06 0 4.89161e-07 2.30267e-06 0 9.81782e-07 2.32443e-06 0 1.48134e-06 2.3605e-06 0 1.99132e-06 2.41055e-06 0 2.51529e-06 2.47399e-06 0 3.05681e-06 2.54998e-06 0 3.61957e-06 2.63716e-06 0 4.2073e-06 2.7336e-06 0 4.82385e-06 2.8363e-06 0 5.47322e-06 2.94115e-06 0 6.15961e-06 3.04165e-06 0 6.88752e-06 3.1294e-06 0 7.66201e-06 3.19038e-06 0 8.48885e-06 3.20789e-06 0 9.37589e-06 3.15119e-06 0 1.03319e-05 2.98797e-06 0 1.13753e-05 2.64886e-06 0 1.25201e-05 2.07289e-06 0 1.3827e-05 1.09841e-06 0 1.53061e-05 -3.88732e-07 0 1.71957e-05 -2.77389e-06 0 1.94028e-05 -6.28713e-06 0 2.29208e-05 -1.18491e-05 0 2.69678e-05 -2.00776e-05 0 3.57344e-05 -3.3144e-05 0 4.49929e-05 -5.3686e-05 0 7.24314e-05 -8.733e-05 0 0.000100017 -0.000151398 0 0.000202262 -0.000278106 0 0.000308013 -0.000739312 0 -0.00143494 -0.00236207 0 0 2.13174e-06 0 4.93816e-07 2.13844e-06 0 9.91052e-07 2.15849e-06 0 1.49514e-06 2.19169e-06 0 2.0095e-06 2.23769e-06 0 2.53761e-06 2.29594e-06 0 3.08293e-06 2.36553e-06 0 3.64893e-06 2.44514e-06 0 4.23911e-06 2.53276e-06 0 4.85693e-06 2.62546e-06 0 5.50586e-06 2.71896e-06 0 6.1893e-06 2.80701e-06 0 6.91076e-06 2.88061e-06 0 7.67337e-06 2.92659e-06 0 8.48142e-06 2.92624e-06 0 9.33735e-06 2.85161e-06 0 1.02498e-05 2.66367e-06 0 1.12187e-05 2.30192e-06 0 1.22724e-05 1.68412e-06 0 1.33988e-05 6.74744e-07 0 1.47066e-05 -9.03253e-07 0 1.61272e-05 -3.36599e-06 0 1.80772e-05 -7.11441e-06 0 2.02443e-05 -1.29174e-05 0 2.41756e-05 -2.1806e-05 0 2.85925e-05 -3.57528e-05 0 3.90252e-05 -5.82497e-05 0 5.06278e-05 -9.53239e-05 0 8.15463e-05 -0.000165486 0 0.000108797 -0.000305003 0 7.94691e-05 -0.000706264 0 -0.000907134 -0.00127757 0 -2.3265e-22 1.9666e-06 0 4.9809e-07 1.97274e-06 0 9.99561e-07 1.99108e-06 0 1.50779e-06 2.02144e-06 0 2.02616e-06 2.06348e-06 0 2.55803e-06 2.11661e-06 0 3.10674e-06 2.17997e-06 0 3.6756e-06 2.2522e-06 0 4.26784e-06 2.33135e-06 0 4.88655e-06 2.4145e-06 0 5.53465e-06 2.49739e-06 0 6.21481e-06 2.57387e-06 0 6.92932e-06 2.63495e-06 0 7.67996e-06 2.66765e-06 0 8.46805e-06 2.65308e-06 0 9.29398e-06 2.56378e-06 0 1.01583e-05 2.35951e-06 0 1.10597e-05 1.98115e-06 0 1.20018e-05 1.34124e-06 0 1.29826e-05 3.08395e-07 0 1.40285e-05 -1.31347e-06 0 1.51386e-05 -3.82923e-06 0 1.64481e-05 -7.70046e-06 0 1.79438e-05 -1.3676e-05 0 2.02017e-05 -2.29452e-05 0 2.30332e-05 -3.75172e-05 0 2.85831e-05 -6.11049e-05 0 3.50571e-05 -0.000100276 0 4.75858e-05 -0.000171727 0 4.17544e-05 -0.000309087 0 -7.80301e-05 -0.000605725 0 -0.000744428 -0.000714105 0 -1.6251e-20 1.8001e-06 0 5.01989e-07 1.80567e-06 0 1.00732e-06 1.82234e-06 0 1.51932e-06 1.8499e-06 0 2.04131e-06 1.88803e-06 0 2.57657e-06 1.93615e-06 0 3.12832e-06 1.99341e-06 0 3.69968e-06 2.0585e-06 0 4.29363e-06 2.12948e-06 0 4.9129e-06 2.20354e-06 0 5.55988e-06 2.27651e-06 0 6.23649e-06 2.34239e-06 0 6.94388e-06 2.39239e-06 0 7.68231e-06 2.41386e-06 0 8.45062e-06 2.38813e-06 0 9.24603e-06 2.28845e-06 0 1.00633e-05 2.07452e-06 0 1.0895e-05 1.68876e-06 0 1.17295e-05 1.04175e-06 0 1.25544e-05 5.76118e-09 0 1.33526e-05 -1.6249e-06 0 1.41124e-05 -4.14639e-06 0 1.4828e-05 -8.05428e-06 0 1.55124e-05 -1.40814e-05 0 1.62458e-05 -2.35012e-05 0 1.70554e-05 -3.83304e-05 0 1.81976e-05 -6.22521e-05 0 1.85466e-05 -0.000101967 0 1.51604e-05 -0.000170843 0 -1.67328e-05 -0.000295918 0 -0.000169764 -0.000494309 0 -0.000608859 -0.000531622 0 -7.54331e-21 1.63236e-06 0 5.05517e-07 1.63738e-06 0 1.01433e-06 1.65238e-06 0 1.52974e-06 1.67719e-06 0 2.05499e-06 1.71146e-06 0 2.59328e-06 1.75467e-06 0 3.14772e-06 1.80597e-06 0 3.72125e-06 1.86412e-06 0 4.3166e-06 1.92726e-06 0 4.93616e-06 1.99268e-06 0 5.58182e-06 2.05639e-06 0 6.25472e-06 2.11262e-06 0 6.955e-06 2.15296e-06 0 7.6813e-06 2.16516e-06 0 8.43021e-06 2.13137e-06 0 9.1955e-06 2.02541e-06 0 9.96692e-06 1.80874e-06 0 1.07293e-05 1.42419e-06 0 1.14595e-05 7.86159e-07 0 1.21269e-05 -2.34314e-07 0 1.26858e-05 -1.8349e-06 0 1.30819e-05 -4.31922e-06 0 1.32298e-05 -8.16656e-06 0 1.30422e-05 -1.4133e-05 0 1.23443e-05 -2.34544e-05 0 1.09226e-05 -3.81679e-05 0 8.0748e-06 -6.17506e-05 0 1.97906e-06 -0.000100348 0 -1.41905e-05 -0.000164576 0 -6.45661e-05 -0.000270304 0 -0.000220553 -0.000404006 0 -0.000532467 -0.000376974 0 0 1.4635e-06 0 5.08677e-07 1.46797e-06 0 1.02062e-06 1.48133e-06 0 1.53907e-06 1.50342e-06 0 2.06722e-06 1.5339e-06 0 2.6082e-06 1.57229e-06 0 3.16499e-06 1.61777e-06 0 3.74038e-06 1.66919e-06 0 4.33688e-06 1.72478e-06 0 4.95652e-06 1.78199e-06 0 5.60071e-06 1.83708e-06 0 6.26991e-06 1.88459e-06 0 6.9632e-06 1.91659e-06 0 7.67776e-06 1.92152e-06 0 8.40794e-06 1.88245e-06 0 9.14424e-06 1.77458e-06 0 9.8715e-06 1.56114e-06 0 1.0567e-05 1.18766e-06 0 1.11964e-05 5.71825e-07 0 1.17111e-05 -4.10118e-07 0 1.20376e-05 -1.94989e-06 0 1.20772e-05 -4.34111e-06 0 1.16722e-05 -8.05153e-06 0 1.06195e-05 -1.38146e-05 0 8.53815e-06 -2.28292e-05 0 4.89956e-06 -3.70366e-05 0 -1.6483e-06 -5.96364e-05 0 -1.37687e-05 -9.59418e-05 0 -3.99524e-05 -0.0001536 0 -0.00010177 -0.00023999 0 -0.000248076 -0.00032744 0 -0.000481949 -0.00030334 0 0 1.29364e-06 0 5.11475e-07 1.29757e-06 0 1.02618e-06 1.30932e-06 0 1.54731e-06 1.32871e-06 0 2.07802e-06 1.35547e-06 0 2.62135e-06 1.38911e-06 0 3.18019e-06 1.42891e-06 0 3.75717e-06 1.47378e-06 0 4.35457e-06 1.5221e-06 0 4.97414e-06 1.57152e-06 0 5.61682e-06 1.61858e-06 0 6.2824e-06 1.65824e-06 0 6.96902e-06 1.68318e-06 0 7.67243e-06 1.68268e-06 0 8.38493e-06 1.64107e-06 0 9.09389e-06 1.53526e-06 0 9.77954e-06 1.33111e-06 0 1.04119e-05 9.77505e-07 0 1.0946e-05 3.97725e-07 0 1.13154e-05 -5.254e-07 0 1.14217e-05 -1.97131e-06 0 1.11193e-05 -4.22027e-06 0 1.01894e-05 -7.71126e-06 0 8.30036e-06 -1.31447e-05 0 4.9167e-06 -2.16376e-05 0 -8.50077e-07 -3.49917e-05 0 -1.07264e-05 -5.60435e-05 0 -2.8226e-05 -8.91217e-05 0 -6.1813e-05 -0.000139392 0 -0.000130001 -0.000207795 0 -0.000262423 -0.000266003 0 -0.000442209 -0.000233239 0 0 1.12291e-06 0 5.13914e-07 1.12631e-06 0 1.03102e-06 1.13645e-06 0 1.5545e-06 1.15318e-06 0 2.08742e-06 1.17626e-06 0 2.63278e-06 1.20524e-06 0 3.19337e-06 1.23947e-06 0 3.77168e-06 1.27797e-06 0 4.3698e-06 1.31929e-06 0 4.98918e-06 1.36129e-06 0 5.63036e-06 1.40087e-06 0 6.29252e-06 1.43349e-06 0 6.97293e-06 1.45253e-06 0 7.66605e-06 1.44833e-06 0 8.36225e-06 1.4067e-06 0 9.04604e-06 1.30673e-06 0 9.69332e-06 1.11737e-06 0 1.02675e-05 7.92173e-07 0 1.07134e-05 2.60946e-07 0 1.09488e-05 -5.83279e-07 0 1.08498e-05 -1.90565e-06 0 1.02313e-05 -3.96313e-06 0 8.80866e-06 -7.16074e-06 0 6.1484e-06 -1.21395e-05 0 1.54437e-06 -1.99189e-05 0 -6.14576e-06 -3.21042e-05 0 -1.90261e-05 -5.113e-05 0 -4.09617e-05 -8.03736e-05 0 -8.00649e-05 -0.000122907 0 -0.000150727 -0.000176129 0 -0.000269666 -0.000214221 0 -0.000415919 -0.000187352 0 0 9.51428e-07 0 5.15997e-07 9.54291e-07 0 1.03516e-06 9.62842e-07 0 1.56063e-06 9.76953e-07 0 2.09544e-06 9.96393e-07 0 2.64252e-06 1.02079e-06 0 3.20458e-06 1.04956e-06 0 3.78399e-06 1.08185e-06 0 4.38266e-06 1.11639e-06 0 5.00179e-06 1.15132e-06 0 5.64155e-06 1.18392e-06 0 6.30059e-06 1.21022e-06 0 6.9754e-06 1.22443e-06 0 7.65926e-06 1.21807e-06 0 8.34086e-06 1.17871e-06 0 9.00211e-06 1.08796e-06 0 9.61505e-06 9.18497e-07 0 1.01371e-05 6.29315e-07 0 1.05039e-05 1.58429e-07 0 1.06186e-05 -5.89087e-07 0 1.0335e-05 -1.7596e-06 0 9.43034e-06 -3.582e-06 0 7.56439e-06 -6.41562e-06 0 4.20507e-06 -1.08297e-05 0 -1.48808e-06 -1.77187e-05 0 -1.08936e-05 -2.84671e-05 0 -2.6337e-05 -4.50867e-05 0 -5.19071e-05 -7.00949e-05 0 -9.47965e-05 -0.000105058 0 -0.000165901 -0.000145612 0 -0.000272854 -0.000170719 0 -0.000393459 -0.000145649 0 0 7.79306e-07 0 5.17728e-07 7.81643e-07 0 1.0386e-06 7.88619e-07 0 1.56572e-06 8.00128e-07 0 2.10209e-06 8.15975e-07 0 2.65059e-06 8.35844e-07 0 3.21385e-06 8.59251e-07 0 3.79415e-06 8.85474e-07 0 4.39323e-06 9.13446e-07 0 5.01209e-06 9.41601e-07 0 5.65057e-06 9.67654e-07 0 6.30688e-06 9.88267e-07 0 6.9768e-06 9.98567e-07 0 7.65266e-06 9.91421e-07 0 8.32163e-06 9.56335e-07 0 8.96341e-06 8.77798e-07 0 9.54664e-06 7.32699e-07 0 1.00236e-05 4.86337e-07 0 1.03218e-05 8.60794e-08 0 1.0332e-05 -5.48649e-07 0 9.88767e-06 -1.54258e-06 0 8.73497e-06 -3.09041e-06 0 6.48172e-06 -5.49852e-06 0 2.51819e-06 -9.24945e-06 0 -4.12189e-06 -1.5097e-05 0 -1.49793e-05 -2.41837e-05 0 -3.25701e-05 -3.81064e-05 0 -6.09463e-05 -5.86633e-05 0 -0.000106442 -8.64076e-05 0 -0.00017672 -0.000116633 0 -0.00027397 -0.000132864 0 -0.000378011 -0.000112984 0 0 6.06664e-07 0 5.1911e-07 6.08478e-07 0 1.04134e-06 6.13891e-07 0 1.56977e-06 6.2282e-07 0 2.10739e-06 6.35109e-07 0 2.65702e-06 6.50505e-07 0 3.22123e-06 6.68627e-07 0 3.80221e-06 6.88897e-07 0 4.4016e-06 7.1047e-07 0 5.0202e-06 7.32101e-07 0 5.65759e-06 7.51973e-07 0 6.31161e-06 7.67434e-07 0 6.9775e-06 7.7461e-07 0 7.64674e-06 7.6782e-07 0 8.3053e-06 7.38711e-07 0 8.93104e-06 6.7491e-07 0 9.48981e-06 5.57975e-07 0 9.92955e-06 3.6016e-07 0 1.01713e-05 3.93562e-08 0 1.0095e-05 -4.69047e-07 0 9.51787e-06 -1.26507e-06 0 8.15937e-06 -2.50511e-06 0 5.58619e-06 -4.43482e-06 0 1.12171e-06 -7.44043e-06 0 -6.29441e-06 -1.21202e-05 0 -1.8337e-05 -1.93664e-05 0 -3.76208e-05 -3.03808e-05 0 -6.81216e-05 -4.63834e-05 0 -0.000115268 -6.73646e-05 0 -0.000184346 -8.90677e-05 0 -0.000274 -9.94139e-05 0 -0.000365503 -8.3547e-05 0 5.41829e-22 4.33619e-07 0 5.20144e-07 4.34913e-07 0 1.04339e-06 4.38773e-07 0 1.57281e-06 4.45138e-07 0 2.11136e-06 4.53895e-07 0 2.66182e-06 4.64862e-07 0 3.22673e-06 4.7776e-07 0 3.80822e-06 4.92172e-07 0 4.40782e-06 5.07481e-07 0 5.02619e-06 5.22787e-07 0 5.66274e-06 5.3677e-07 0 6.31499e-06 5.47504e-07 0 6.97777e-06 5.52176e-07 0 7.64193e-06 5.46659e-07 0 8.29251e-06 5.24878e-07 0 8.90594e-06 4.77833e-07 0 9.44593e-06 3.92088e-07 0 9.85713e-06 2.47426e-07 0 1.00554e-05 1.31063e-08 0 9.91263e-06 -3.5804e-07 0 9.23325e-06 -9.39157e-07 0 7.71651e-06 -1.84455e-06 0 4.89652e-06 -3.25382e-06 0 4.78579e-08 -5.44836e-06 0 -7.96405e-06 -8.86183e-06 0 -2.09013e-05 -1.41317e-05 0 -4.14478e-05 -2.20912e-05 0 -7.34423e-05 -3.35113e-05 0 -0.000121618 -4.81512e-05 0 -0.000189462 -6.27202e-05 0 -0.000273633 -6.89743e-05 0 -0.000357153 -5.78464e-05 0 2.76551e-21 2.60287e-07 0 5.20832e-07 2.61062e-07 0 1.04476e-06 2.63375e-07 0 1.57483e-06 2.67189e-07 0 2.11399e-06 2.72435e-07 0 2.66501e-06 2.79003e-07 0 3.23039e-06 2.86723e-07 0 3.81221e-06 2.95343e-07 0 4.41193e-06 3.04489e-07 0 5.03015e-06 3.13614e-07 0 5.66611e-06 3.21918e-07 0 6.31716e-06 3.28234e-07 0 6.97783e-06 3.30854e-07 0 7.63855e-06 3.27275e-07 0 8.28371e-06 3.13807e-07 0 8.8888e-06 2.84984e-07 0 9.41608e-06 2.32642e-07 0 9.80792e-06 1.44482e-07 0 9.97669e-06 1.80146e-09 0 9.78884e-06 -2.2413e-07 0 9.04007e-06 -5.77861e-07 0 7.41573e-06 -1.12906e-06 0 4.42837e-06 -1.98709e-06 0 -6.8134e-07 -3.32306e-06 0 -9.0951e-06 -5.39943e-06 0 -2.26342e-05 -8.59847e-06 0 -4.40114e-05 -1.34088e-05 0 -7.69633e-05 -2.02514e-05 0 -0.000125707 -2.88913e-05 0 -0.000192622 -3.72646e-05 0 -0.00027321 -4.06086e-05 0 -0.000351492 -3.38689e-05 0 1.64261e-22 8.67814e-08 0 5.21176e-07 8.70396e-08 0 1.04544e-06 8.78102e-08 0 1.57584e-06 8.90807e-08 0 2.11531e-06 9.08282e-08 0 2.66661e-06 9.30154e-08 0 3.23222e-06 9.55857e-08 0 3.81419e-06 9.84543e-08 0 4.41399e-06 1.01496e-07 0 5.03212e-06 1.04528e-07 0 5.66779e-06 1.07282e-07 0 6.31822e-06 1.09366e-07 0 6.97783e-06 1.10209e-07 0 7.6368e-06 1.08971e-07 0 8.27923e-06 1.04415e-07 0 8.88012e-06 9.47074e-08 0 9.40097e-06 7.71095e-08 0 9.78304e-06 4.74947e-08 0 9.93691e-06 -4.16985e-10 0 9.72629e-06 -7.62696e-08 0 8.94242e-06 -1.95033e-07 0 7.26372e-06 -3.80097e-07 0 4.19165e-06 -6.68204e-07 0 -1.04973e-06 -1.11674e-06 0 -9.66641e-06 -1.81359e-06 0 -2.35068e-05 -2.88605e-06 0 -4.52979e-05 -4.49506e-06 0 -7.87123e-05 -6.77387e-06 0 -0.000127713 -9.629e-06 0 -0.000194122 -1.23607e-05 0 -0.000272955 -1.34056e-05 0 -0.000348841 -1.11984e-05 0 0 -8.67814e-08 0 5.21176e-07 -8.70396e-08 0 1.04544e-06 -8.78102e-08 0 1.57584e-06 -8.90807e-08 0 2.11531e-06 -9.08282e-08 0 2.66661e-06 -9.30154e-08 0 3.23222e-06 -9.55857e-08 0 3.81419e-06 -9.84543e-08 0 4.41399e-06 -1.01496e-07 0 5.03212e-06 -1.04528e-07 0 5.66779e-06 -1.07282e-07 0 6.31822e-06 -1.09366e-07 0 6.97783e-06 -1.10209e-07 0 7.6368e-06 -1.08971e-07 0 8.27923e-06 -1.04415e-07 0 8.88012e-06 -9.47074e-08 0 9.40097e-06 -7.71095e-08 0 9.78304e-06 -4.74947e-08 0 9.93691e-06 4.16985e-10 0 9.72629e-06 7.62696e-08 0 8.94242e-06 1.95033e-07 0 7.26372e-06 3.80097e-07 0 4.19165e-06 6.68204e-07 0 -1.04973e-06 1.11674e-06 0 -9.66641e-06 1.81359e-06 0 -2.35068e-05 2.88605e-06 0 -4.52979e-05 4.49506e-06 0 -7.87123e-05 6.77387e-06 0 -0.000127713 9.629e-06 0 -0.000194122 1.23607e-05 0 -0.000272955 1.34056e-05 0 -0.000348841 1.11984e-05 0 0 -2.60287e-07 0 5.20832e-07 -2.61062e-07 0 1.04476e-06 -2.63375e-07 0 1.57483e-06 -2.67189e-07 0 2.11399e-06 -2.72435e-07 0 2.66501e-06 -2.79003e-07 0 3.23039e-06 -2.86723e-07 0 3.81221e-06 -2.95343e-07 0 4.41193e-06 -3.04489e-07 0 5.03015e-06 -3.13614e-07 0 5.66611e-06 -3.21918e-07 0 6.31716e-06 -3.28234e-07 0 6.97783e-06 -3.30854e-07 0 7.63855e-06 -3.27275e-07 0 8.28371e-06 -3.13807e-07 0 8.8888e-06 -2.84984e-07 0 9.41608e-06 -2.32642e-07 0 9.80792e-06 -1.44482e-07 0 9.97669e-06 -1.80146e-09 0 9.78884e-06 2.2413e-07 0 9.04007e-06 5.77861e-07 0 7.41573e-06 1.12906e-06 0 4.42837e-06 1.98709e-06 0 -6.8134e-07 3.32306e-06 0 -9.0951e-06 5.39943e-06 0 -2.26342e-05 8.59847e-06 0 -4.40114e-05 1.34088e-05 0 -7.69633e-05 2.02514e-05 0 -0.000125707 2.88913e-05 0 -0.000192622 3.72646e-05 0 -0.00027321 4.06086e-05 0 -0.000351492 3.38689e-05 0 -1.03877e-21 -4.33619e-07 0 5.20144e-07 -4.34913e-07 0 1.04339e-06 -4.38773e-07 0 1.57281e-06 -4.45138e-07 0 2.11136e-06 -4.53895e-07 0 2.66182e-06 -4.64862e-07 0 3.22673e-06 -4.7776e-07 0 3.80822e-06 -4.92172e-07 0 4.40782e-06 -5.07481e-07 0 5.02619e-06 -5.22787e-07 0 5.66274e-06 -5.3677e-07 0 6.31499e-06 -5.47504e-07 0 6.97777e-06 -5.52176e-07 0 7.64193e-06 -5.46659e-07 0 8.29251e-06 -5.24878e-07 0 8.90594e-06 -4.77833e-07 0 9.44593e-06 -3.92088e-07 0 9.85713e-06 -2.47426e-07 0 1.00554e-05 -1.31063e-08 0 9.91263e-06 3.5804e-07 0 9.23325e-06 9.39157e-07 0 7.71651e-06 1.84455e-06 0 4.89652e-06 3.25382e-06 0 4.78579e-08 5.44836e-06 0 -7.96405e-06 8.86183e-06 0 -2.09013e-05 1.41317e-05 0 -4.14478e-05 2.20912e-05 0 -7.34423e-05 3.35113e-05 0 -0.000121618 4.81512e-05 0 -0.000189462 6.27202e-05 0 -0.000273633 6.89743e-05 0 -0.000357153 5.78464e-05 0 -6.35602e-21 -6.06664e-07 0 5.1911e-07 -6.08478e-07 0 1.04134e-06 -6.13891e-07 0 1.56977e-06 -6.2282e-07 0 2.10739e-06 -6.35109e-07 0 2.65702e-06 -6.50505e-07 0 3.22123e-06 -6.68627e-07 0 3.80221e-06 -6.88897e-07 0 4.4016e-06 -7.1047e-07 0 5.0202e-06 -7.32101e-07 0 5.65759e-06 -7.51973e-07 0 6.31161e-06 -7.67434e-07 0 6.9775e-06 -7.7461e-07 0 7.64674e-06 -7.6782e-07 0 8.3053e-06 -7.38711e-07 0 8.93104e-06 -6.7491e-07 0 9.48981e-06 -5.57975e-07 0 9.92955e-06 -3.6016e-07 0 1.01713e-05 -3.93562e-08 0 1.0095e-05 4.69047e-07 0 9.51787e-06 1.26507e-06 0 8.15937e-06 2.50511e-06 0 5.58619e-06 4.43482e-06 0 1.12171e-06 7.44043e-06 0 -6.29441e-06 1.21202e-05 0 -1.8337e-05 1.93664e-05 0 -3.76208e-05 3.03808e-05 0 -6.81216e-05 4.63834e-05 0 -0.000115268 6.73646e-05 0 -0.000184346 8.90677e-05 0 -0.000274 9.94139e-05 0 -0.000365503 8.3547e-05 0 -6.97205e-22 -7.79306e-07 0 5.17728e-07 -7.81643e-07 0 1.0386e-06 -7.88619e-07 0 1.56572e-06 -8.00128e-07 0 2.10209e-06 -8.15975e-07 0 2.65059e-06 -8.35844e-07 0 3.21385e-06 -8.59251e-07 0 3.79415e-06 -8.85474e-07 0 4.39323e-06 -9.13446e-07 0 5.01209e-06 -9.41601e-07 0 5.65057e-06 -9.67654e-07 0 6.30688e-06 -9.88267e-07 0 6.9768e-06 -9.98567e-07 0 7.65266e-06 -9.91421e-07 0 8.32163e-06 -9.56335e-07 0 8.96341e-06 -8.77798e-07 0 9.54664e-06 -7.32699e-07 0 1.00236e-05 -4.86337e-07 0 1.03218e-05 -8.60794e-08 0 1.0332e-05 5.48649e-07 0 9.88767e-06 1.54258e-06 0 8.73497e-06 3.09041e-06 0 6.48172e-06 5.49852e-06 0 2.51819e-06 9.24945e-06 0 -4.12189e-06 1.5097e-05 0 -1.49793e-05 2.41837e-05 0 -3.25701e-05 3.81064e-05 0 -6.09463e-05 5.86633e-05 0 -0.000106442 8.64076e-05 0 -0.00017672 0.000116633 0 -0.00027397 0.000132864 0 -0.000378011 0.000112984 0 0 -9.51428e-07 0 5.15997e-07 -9.54291e-07 0 1.03516e-06 -9.62842e-07 0 1.56063e-06 -9.76953e-07 0 2.09544e-06 -9.96393e-07 0 2.64252e-06 -1.02079e-06 0 3.20458e-06 -1.04956e-06 0 3.78399e-06 -1.08185e-06 0 4.38266e-06 -1.11639e-06 0 5.00179e-06 -1.15132e-06 0 5.64155e-06 -1.18392e-06 0 6.30059e-06 -1.21022e-06 0 6.9754e-06 -1.22443e-06 0 7.65926e-06 -1.21807e-06 0 8.34086e-06 -1.17871e-06 0 9.00211e-06 -1.08796e-06 0 9.61505e-06 -9.18497e-07 0 1.01371e-05 -6.29315e-07 0 1.05039e-05 -1.58429e-07 0 1.06186e-05 5.89087e-07 0 1.0335e-05 1.7596e-06 0 9.43034e-06 3.582e-06 0 7.56439e-06 6.41562e-06 0 4.20507e-06 1.08297e-05 0 -1.48808e-06 1.77187e-05 0 -1.08936e-05 2.84671e-05 0 -2.6337e-05 4.50867e-05 0 -5.19071e-05 7.00949e-05 0 -9.47965e-05 0.000105058 0 -0.000165901 0.000145612 0 -0.000272854 0.000170719 0 -0.000393459 0.000145649 0 0 -1.12291e-06 0 5.13914e-07 -1.12631e-06 0 1.03102e-06 -1.13645e-06 0 1.5545e-06 -1.15318e-06 0 2.08742e-06 -1.17626e-06 0 2.63278e-06 -1.20524e-06 0 3.19337e-06 -1.23947e-06 0 3.77168e-06 -1.27797e-06 0 4.3698e-06 -1.31929e-06 0 4.98918e-06 -1.36129e-06 0 5.63036e-06 -1.40087e-06 0 6.29252e-06 -1.43349e-06 0 6.97293e-06 -1.45253e-06 0 7.66605e-06 -1.44833e-06 0 8.36225e-06 -1.4067e-06 0 9.04604e-06 -1.30673e-06 0 9.69332e-06 -1.11737e-06 0 1.02675e-05 -7.92173e-07 0 1.07134e-05 -2.60946e-07 0 1.09488e-05 5.83279e-07 0 1.08498e-05 1.90565e-06 0 1.02313e-05 3.96313e-06 0 8.80866e-06 7.16074e-06 0 6.1484e-06 1.21395e-05 0 1.54437e-06 1.99189e-05 0 -6.14576e-06 3.21042e-05 0 -1.90261e-05 5.113e-05 0 -4.09617e-05 8.03736e-05 0 -8.00649e-05 0.000122907 0 -0.000150727 0.000176129 0 -0.000269666 0.000214221 0 -0.000415919 0.000187352 0 0 -1.29364e-06 0 5.11475e-07 -1.29757e-06 0 1.02618e-06 -1.30932e-06 0 1.54731e-06 -1.32871e-06 0 2.07802e-06 -1.35547e-06 0 2.62135e-06 -1.38911e-06 0 3.18019e-06 -1.42891e-06 0 3.75717e-06 -1.47378e-06 0 4.35457e-06 -1.5221e-06 0 4.97414e-06 -1.57152e-06 0 5.61682e-06 -1.61858e-06 0 6.2824e-06 -1.65824e-06 0 6.96902e-06 -1.68318e-06 0 7.67243e-06 -1.68268e-06 0 8.38493e-06 -1.64107e-06 0 9.09389e-06 -1.53526e-06 0 9.77954e-06 -1.33111e-06 0 1.04119e-05 -9.77505e-07 0 1.0946e-05 -3.97725e-07 0 1.13154e-05 5.254e-07 0 1.14217e-05 1.97131e-06 0 1.11193e-05 4.22027e-06 0 1.01894e-05 7.71126e-06 0 8.30036e-06 1.31447e-05 0 4.9167e-06 2.16376e-05 0 -8.50077e-07 3.49917e-05 0 -1.07264e-05 5.60435e-05 0 -2.8226e-05 8.91217e-05 0 -6.1813e-05 0.000139392 0 -0.000130001 0.000207795 0 -0.000262423 0.000266003 0 -0.000442209 0.000233239 0 0 -1.4635e-06 0 5.08677e-07 -1.46797e-06 0 1.02062e-06 -1.48133e-06 0 1.53907e-06 -1.50342e-06 0 2.06722e-06 -1.5339e-06 0 2.6082e-06 -1.57229e-06 0 3.16499e-06 -1.61777e-06 0 3.74038e-06 -1.66919e-06 0 4.33688e-06 -1.72478e-06 0 4.95652e-06 -1.78199e-06 0 5.60071e-06 -1.83708e-06 0 6.26991e-06 -1.88459e-06 0 6.9632e-06 -1.91659e-06 0 7.67776e-06 -1.92152e-06 0 8.40794e-06 -1.88245e-06 0 9.14424e-06 -1.77458e-06 0 9.8715e-06 -1.56114e-06 0 1.0567e-05 -1.18766e-06 0 1.11964e-05 -5.71825e-07 0 1.17111e-05 4.10118e-07 0 1.20376e-05 1.94989e-06 0 1.20772e-05 4.34111e-06 0 1.16722e-05 8.05153e-06 0 1.06195e-05 1.38146e-05 0 8.53815e-06 2.28292e-05 0 4.89956e-06 3.70366e-05 0 -1.6483e-06 5.96364e-05 0 -1.37687e-05 9.59418e-05 0 -3.99524e-05 0.0001536 0 -0.00010177 0.00023999 0 -0.000248076 0.00032744 0 -0.000481949 0.00030334 0 0 -1.63236e-06 0 5.05517e-07 -1.63738e-06 0 1.01433e-06 -1.65238e-06 0 1.52974e-06 -1.67719e-06 0 2.05499e-06 -1.71146e-06 0 2.59328e-06 -1.75467e-06 0 3.14772e-06 -1.80597e-06 0 3.72125e-06 -1.86412e-06 0 4.3166e-06 -1.92726e-06 0 4.93616e-06 -1.99268e-06 0 5.58182e-06 -2.05639e-06 0 6.25472e-06 -2.11262e-06 0 6.955e-06 -2.15296e-06 0 7.6813e-06 -2.16516e-06 0 8.43021e-06 -2.13137e-06 0 9.1955e-06 -2.02541e-06 0 9.96692e-06 -1.80874e-06 0 1.07293e-05 -1.42419e-06 0 1.14595e-05 -7.86159e-07 0 1.21269e-05 2.34314e-07 0 1.26858e-05 1.8349e-06 0 1.30819e-05 4.31922e-06 0 1.32298e-05 8.16656e-06 0 1.30422e-05 1.4133e-05 0 1.23443e-05 2.34544e-05 0 1.09226e-05 3.81679e-05 0 8.0748e-06 6.17506e-05 0 1.97906e-06 0.000100348 0 -1.41905e-05 0.000164576 0 -6.45661e-05 0.000270304 0 -0.000220553 0.000404006 0 -0.000532467 0.000376974 0 0 -1.8001e-06 0 5.01989e-07 -1.80567e-06 0 1.00732e-06 -1.82234e-06 0 1.51932e-06 -1.8499e-06 0 2.04131e-06 -1.88803e-06 0 2.57657e-06 -1.93615e-06 0 3.12832e-06 -1.99341e-06 0 3.69968e-06 -2.0585e-06 0 4.29363e-06 -2.12948e-06 0 4.9129e-06 -2.20354e-06 0 5.55988e-06 -2.27651e-06 0 6.23649e-06 -2.34239e-06 0 6.94388e-06 -2.39239e-06 0 7.68231e-06 -2.41386e-06 0 8.45062e-06 -2.38813e-06 0 9.24603e-06 -2.28845e-06 0 1.00633e-05 -2.07452e-06 0 1.0895e-05 -1.68876e-06 0 1.17295e-05 -1.04175e-06 0 1.25544e-05 -5.76118e-09 0 1.33526e-05 1.6249e-06 0 1.41124e-05 4.14639e-06 0 1.4828e-05 8.05428e-06 0 1.55124e-05 1.40814e-05 0 1.62458e-05 2.35012e-05 0 1.70554e-05 3.83304e-05 0 1.81976e-05 6.22521e-05 0 1.85466e-05 0.000101967 0 1.51604e-05 0.000170843 0 -1.67328e-05 0.000295918 0 -0.000169764 0.000494309 0 -0.000608859 0.000531622 0 0 -1.9666e-06 0 4.9809e-07 -1.97274e-06 0 9.99561e-07 -1.99108e-06 0 1.50779e-06 -2.02144e-06 0 2.02616e-06 -2.06348e-06 0 2.55803e-06 -2.11661e-06 0 3.10674e-06 -2.17997e-06 0 3.6756e-06 -2.2522e-06 0 4.26784e-06 -2.33135e-06 0 4.88655e-06 -2.4145e-06 0 5.53465e-06 -2.49739e-06 0 6.21481e-06 -2.57387e-06 0 6.92932e-06 -2.63495e-06 0 7.67996e-06 -2.66765e-06 0 8.46805e-06 -2.65308e-06 0 9.29398e-06 -2.56378e-06 0 1.01583e-05 -2.35951e-06 0 1.10597e-05 -1.98115e-06 0 1.20018e-05 -1.34124e-06 0 1.29826e-05 -3.08395e-07 0 1.40285e-05 1.31347e-06 0 1.51386e-05 3.82923e-06 0 1.64481e-05 7.70046e-06 0 1.79438e-05 1.3676e-05 0 2.02017e-05 2.29452e-05 0 2.30332e-05 3.75172e-05 0 2.85831e-05 6.11049e-05 0 3.50571e-05 0.000100276 0 4.75858e-05 0.000171727 0 4.17544e-05 0.000309087 0 -7.80301e-05 0.000605725 0 -0.000744428 0.000714105 0 0 -2.13174e-06 0 4.93816e-07 -2.13844e-06 0 9.91052e-07 -2.15849e-06 0 1.49514e-06 -2.19169e-06 0 2.0095e-06 -2.23769e-06 0 2.53761e-06 -2.29594e-06 0 3.08293e-06 -2.36553e-06 0 3.64893e-06 -2.44514e-06 0 4.23911e-06 -2.53276e-06 0 4.85693e-06 -2.62546e-06 0 5.50586e-06 -2.71896e-06 0 6.1893e-06 -2.80701e-06 0 6.91076e-06 -2.88061e-06 0 7.67337e-06 -2.92659e-06 0 8.48142e-06 -2.92624e-06 0 9.33735e-06 -2.85161e-06 0 1.02498e-05 -2.66367e-06 0 1.12187e-05 -2.30192e-06 0 1.22724e-05 -1.68412e-06 0 1.33988e-05 -6.74744e-07 0 1.47066e-05 9.03253e-07 0 1.61272e-05 3.36599e-06 0 1.80772e-05 7.11441e-06 0 2.02443e-05 1.29174e-05 0 2.41756e-05 2.1806e-05 0 2.85925e-05 3.57528e-05 0 3.90252e-05 5.82497e-05 0 5.06278e-05 9.53239e-05 0 8.15463e-05 0.000165486 0 0.000108797 0.000305003 0 7.94691e-05 0.000706264 0 -0.000907134 0.00127757 0 0 -2.29539e-06 0 4.89161e-07 -2.30267e-06 0 9.81782e-07 -2.32443e-06 0 1.48134e-06 -2.3605e-06 0 1.99132e-06 -2.41055e-06 0 2.51529e-06 -2.47399e-06 0 3.05681e-06 -2.54998e-06 0 3.61957e-06 -2.63716e-06 0 4.2073e-06 -2.7336e-06 0 4.82385e-06 -2.8363e-06 0 5.47322e-06 -2.94115e-06 0 6.15961e-06 -3.04165e-06 0 6.88752e-06 -3.1294e-06 0 7.66201e-06 -3.19038e-06 0 8.48885e-06 -3.20789e-06 0 9.37589e-06 -3.15119e-06 0 1.03319e-05 -2.98797e-06 0 1.13753e-05 -2.64886e-06 0 1.25201e-05 -2.07289e-06 0 1.3827e-05 -1.09841e-06 0 1.53061e-05 3.88732e-07 0 1.71957e-05 2.77389e-06 0 1.94028e-05 6.28713e-06 0 2.29208e-05 1.18491e-05 0 2.69678e-05 2.00776e-05 0 3.57344e-05 3.3144e-05 0 4.49929e-05 5.3686e-05 0 7.24314e-05 8.733e-05 0 0.000100017 0.000151398 0 0.000202262 0.000278106 0 0.000308013 0.000739312 0 -0.00143494 0.00236207 0 0 -2.45742e-06 0 4.84121e-07 -2.46528e-06 0 9.71743e-07 -2.48878e-06 0 1.46638e-06 -2.52777e-06 0 1.97159e-06 -2.5819e-06 0 2.491e-06 -2.65065e-06 0 3.02834e-06 -2.73316e-06 0 3.58743e-06 -2.82817e-06 0 4.17229e-06 -2.93368e-06 0 4.78716e-06 -3.04698e-06 0 5.4364e-06 -3.16359e-06 0 6.12549e-06 -3.27803e-06 0 6.85867e-06 -3.38041e-06 0 7.64582e-06 -3.46024e-06 0 8.4875e-06 -3.49519e-06 0 9.41125e-06 -3.46702e-06 0 1.03954e-05 -3.32313e-06 0 1.15389e-05 -3.0369e-06 0 1.27146e-05 -2.47842e-06 0 1.43048e-05 -1.62485e-06 0 1.57315e-05 -1.45283e-07 0 1.84713e-05 1.93057e-06 0 2.01445e-05 5.43253e-06 0 2.63371e-05 1.0217e-05 0 2.78449e-05 1.81351e-05 0 4.52604e-05 2.95768e-05 0 4.49116e-05 4.71196e-05 0 0.000100969 7.92943e-05 0 0.000100117 0.000120606 0 0.000308123 0.000260652 0 0.000562055 0.000460645 0 0.000527449 0.00501032 0 0 -2.61771e-06 0 4.787e-07 -2.62615e-06 0 9.60916e-07 -2.65141e-06 0 1.45026e-06 -2.69334e-06 0 1.95027e-06 -2.75164e-06 0 2.46476e-06 -2.82577e-06 0 2.99743e-06 -2.91499e-06 0 3.55246e-06 -3.01794e-06 0 4.13399e-06 -3.13303e-06 0 4.74643e-06 -3.25698e-06 0 5.39586e-06 -3.3868e-06 0 6.08465e-06 -3.51466e-06 0 6.82832e-06 -3.63586e-06 0 7.61334e-06 -3.73122e-06 0 8.49989e-06 -3.79643e-06 0 9.39071e-06 -3.7825e-06 0 1.05454e-05 -3.69768e-06 0 1.14827e-05 -3.4119e-06 0 1.33067e-05 -2.99224e-06 0 1.39053e-05 -2.08808e-06 0 1.78035e-05 -9.66988e-07 0 1.63245e-05 1.29235e-06 0 2.73256e-05 3.88462e-06 0 1.68241e-05 9.00842e-06 0 5.28179e-05 1.49633e-05 0 7.61252e-06 2.56722e-05 0 0.000131204 4.11042e-05 0 -3.59887e-05 6.04398e-05 0 0.000389864 0.000113101 0 -0.000101289 0.00012657 0 0.00107959 0.000506965 0 0.0168778 -0.00205312 0 </DataArray> 
</PointData> 
<Points> 
<DataArray type="Float32" NumberOfComponents="3"> 