<?xml version="1.0"?> 
<VTKFile type="StructuredGrid" version="0.1"> 
<StructuredGrid WholeExtent="0 31 0 31 0 0"> 
<Piece Extent="0 31 0 31 0 0"> 
<PointData>
<DataArray type="Float32" Name="B" format="ascii" NumberOfComponents="3"> 
0 -0 0 -7.72587e-07 -0 0 -1.55003e-06 -0 0 -2.33719e-06 -0 0 -3.13894e-06 -0 0 -3.96018e-06 -0 0 -4.8058e-06 -0 0 -5.68072e-06 -0 0 -6.58989e-06 -0 0 -7.53823e-06 -0 0 -8.53064e-06 -0 0 -9.572e-06 -0 0 -1.06671e-05 -0 0 -1.18206e-05 -0 0 -1.3037e-05 -0 0 -1.43206e-05 -0 0 -1.56754e-05 -0 0 -1.71048e-05 -0 0 -1.8612e-05 -0 0 -2.01994e-05 -0 0 -2.18687e-05 -0 0 -2.36207e-05 -0 0 -2.54552e-05 -0 0 -2.73709e-05 -0 0 -2.9365e-05 -0 0 -3.14333e-05 -0 0 -3.35701e-05 -0 0 -3.57678e-05 -0 0 -3.80171e-05 -0 0 -4.03068e-05 -0 0 -4.26237e-05 -0 0 -4.49532e-05 -0 0 -1.94003e-21 7.70969e-07 0 -7.7016e-07 7.73396e-07 0 -1.54517e-06 7.8068e-07 0 -2.3299e-06 7.9283e-07 0 -3.1292e-06 8.0986e-07 0 -3.94798e-06 8.31788e-07 0 -4.79114e-06 8.58631e-07 0 -5.6636e-06 8.90404e-07 0 -6.57031e-06 9.2711e-07 0 -7.51619e-06 9.68744e-07 0 -8.50617e-06 1.01528e-06 0 -9.54513e-06 1.06665e-06 0 -1.06379e-05 1.12277e-06 0 -1.17891e-05 1.1835e-06 0 -1.30034e-05 1.24863e-06 0 -1.4285e-05 1.31791e-06 0 -1.5638e-05 1.39098e-06 0 -1.70659e-05 1.46739e-06 0 -1.85718e-05 1.54659e-06 0 -2.01584e-05 1.62791e-06 0 -2.18273e-05 1.71053e-06 0 -2.35794e-05 1.79352e-06 0 -2.54146e-05 1.87576e-06 0 -2.73316e-05 1.956e-06 0 -2.93277e-05 2.03285e-06 0 -3.1399e-05 2.10475e-06 0 -3.35395e-05 2.17003e-06 0 -3.57419e-05 2.22691e-06 0 -3.79967e-05 2.27352e-06 0 -4.0293e-05 2.30799e-06 0 -4.26174e-05 2.32845e-06 0 -4.49551e-05 2.33313e-06 0 -3.18596e-21 1.53709e-06 0 -7.62881e-07 1.54194e-06 0 -1.5306e-06 1.55649e-06 0 -2.30802e-06 1.58078e-06 0 -3.1e-06 1.61482e-06 0 -3.91142e-06 1.65866e-06 0 -4.74719e-06 1.71233e-06 0 -5.61225e-06 1.77587e-06 0 -6.51154e-06 1.84929e-06 0 -7.45004e-06 1.93259e-06 0 -8.43269e-06 2.0257e-06 0 -9.46444e-06 2.12854e-06 0 -1.05501e-05 2.24092e-06 0 -1.16946e-05 2.36257e-06 0 -1.29024e-05 2.49311e-06 0 -1.4178e-05 2.63201e-06 0 -1.55256e-05 2.77859e-06 0 -1.69488e-05 2.93196e-06 0 -1.8451e-05 3.09104e-06 0 -2.00349e-05 3.25448e-06 0 -2.17024e-05 3.42068e-06 0 -2.34547e-05 3.58775e-06 0 -2.52919e-05 3.75348e-06 0 -2.72128e-05 3.91538e-06 0 -2.92152e-05 4.07063e-06 0 -3.1295e-05 4.21611e-06 0 -3.34467e-05 4.34846e-06 0 -3.56631e-05 4.46407e-06 0 -3.79348e-05 4.55919e-06 0 -4.02506e-05 4.63001e-06 0 -4.25975e-05 4.67272e-06 0 -4.49603e-05 4.68373e-06 0 0 2.2935e-06 0 -7.50761e-07 2.30077e-06 0 -1.50635e-06 2.32258e-06 0 -2.27159e-06 2.35897e-06 0 -3.05135e-06 2.40999e-06 0 -3.8505e-06 2.4757e-06 0 -4.67395e-06 2.55616e-06 0 -5.52665e-06 2.65145e-06 0 -6.41358e-06 2.76159e-06 0 -7.33973e-06 2.88659e-06 0 -8.31012e-06 3.0264e-06 0 -9.32977e-06 3.18088e-06 0 -1.04036e-05 3.34978e-06 0 -1.15366e-05 3.53274e-06 0 -1.27336e-05 3.7292e-06 0 -1.3999e-05 3.93841e-06 0 -1.53374e-05 4.15937e-06 0 -1.67526e-05 4.3908e-06 0 -1.82484e-05 4.63108e-06 0 -1.98276e-05 4.87825e-06 0 -2.14926e-05 5.12992e-06 0 -2.3245e-05 5.38326e-06 0 -2.50852e-05 5.63499e-06 0 -2.70125e-05 5.88136e-06 0 -2.90249e-05 6.11812e-06 0 -3.11188e-05 6.34057e-06 0 -3.32891e-05 6.54359e-06 0 -3.55286e-05 6.7217e-06 0 -3.78283e-05 6.86918e-06 0 -4.0177e-05 6.98015e-06 0 -4.25614e-05 7.04878e-06 0 -4.49662e-05 7.06949e-06 0 -1.19696e-22 3.03539e-06 0 -7.33817e-07 3.04506e-06 0 -1.47243e-06 3.0741e-06 0 -2.22065e-06 3.12254e-06 0 -2.98331e-06 3.19047e-06 0 -3.76528e-06 3.27798e-06 0 -4.57147e-06 3.38518e-06 0 -5.40684e-06 3.51217e-06 0 -6.27638e-06 3.65902e-06 0 -7.18517e-06 3.82578e-06 0 -8.13829e-06 4.01241e-06 0 -9.14085e-06 4.21876e-06 0 -1.0198e-05 4.44456e-06 0 -1.13148e-05 4.68937e-06 0 -1.24962e-05 4.95249e-06 0 -1.37471e-05 5.233e-06 0 -1.50722e-05 5.52963e-06 0 -1.64759e-05 5.84071e-06 0 -1.79621e-05 6.16418e-06 0 -1.95343e-05 6.49745e-06 0 -2.11954e-05 6.83739e-06 0 -2.29473e-05 7.18029e-06 0 -2.47911e-05 7.52179e-06 0 -2.67267e-05 7.85687e-06 0 -2.87527e-05 8.17985e-06 0 -3.0866e-05 8.4844e-06 0 -3.30619e-05 8.76358e-06 0 -3.53336e-05 9.00996e-06 0 -3.76724e-05 9.21568e-06 0 -4.00672e-05 9.37268e-06 0 -4.25046e-05 9.47287e-06 0 -4.49689e-05 9.50853e-06 0 -1.13087e-20 3.75794e-06 0 -7.12078e-07 3.77e-06 0 -1.42891e-06 3.80621e-06 0 -2.15528e-06 3.86662e-06 0 -2.89598e-06 3.95136e-06 0 -3.65586e-06 4.06057e-06 0 -4.43983e-06 4.19439e-06 0 -5.25285e-06 4.35301e-06 0 -6.09996e-06 4.53654e-06 0 -6.98629e-06 4.74509e-06 0 -7.91701e-06 4.97867e-06 0 -8.89738e-06 5.23716e-06 0 -9.93267e-06 5.52031e-06 0 -1.10282e-05 5.82762e-06 0 -1.21892e-05 6.15835e-06 0 -1.34209e-05 6.51142e-06 0 -1.47284e-05 6.88534e-06 0 -1.61165e-05 7.27816e-06 0 -1.75897e-05 7.68738e-06 0 -1.91521e-05 8.10987e-06 0 -2.08071e-05 8.54181e-06 0 -2.25575e-05 8.97862e-06 0 -2.4405e-05 9.4149e-06 0 -2.63504e-05 9.84437e-06 0 -2.83929e-05 1.02599e-05 0 -3.05303e-05 1.06535e-05 0 -3.27585e-05 1.10163e-05 0 -3.50712e-05 1.13388e-05 0 -3.74602e-05 1.16109e-05 0 -3.99145e-05 1.1822e-05 0 -4.24206e-05 1.19617e-05 0 -4.49624e-05 1.20196e-05 0 -6.86448e-21 4.45638e-06 0 -6.85585e-07 4.4708e-06 0 -1.37587e-06 4.51411e-06 0 -2.07558e-06 4.58639e-06 0 -2.78947e-06 4.6878e-06 0 -3.52236e-06 4.81853e-06 0 -4.27914e-06 4.97882e-06 0 -5.06477e-06 5.16891e-06 0 -5.88434e-06 5.38903e-06 0 -6.74302e-06 5.63935e-06 0 -7.6461e-06 5.91998e-06 0 -8.59897e-06 6.23088e-06 0 -9.60712e-06 6.57184e-06 0 -1.06761e-05 6.9424e-06 0 -1.18115e-05 7.34181e-06 0 -1.3019e-05 7.76891e-06 0 -1.4304e-05 8.22207e-06 0 -1.5672e-05 8.69911e-06 0 -1.71281e-05 9.19719e-06 0 -1.86771e-05 9.71271e-06 0 -2.03233e-05 1.02412e-05 0 -2.20703e-05 1.07773e-05 0 -2.39209e-05 1.13147e-05 0 -2.58767e-05 1.18457e-05 0 -2.7938e-05 1.23618e-05 0 -3.01035e-05 1.28533e-05 0 -3.237e-05 1.33093e-05 0 -3.47322e-05 1.37181e-05 0 -3.71822e-05 1.4067e-05 0 -3.97095e-05 1.43429e-05 0 -4.23005e-05 1.45324e-05 0 -4.49386e-05 1.46223e-05 0 0 5.12598e-06 0 -6.54393e-07 5.14274e-06 0 -1.31341e-06 5.19305e-06 0 -1.98171e-06 5.27703e-06 0 -2.66398e-06 5.39491e-06 0 -3.36499e-06 5.54694e-06 0 -4.0896e-06 5.73345e-06 0 -4.84278e-06 5.95479e-06 0 -5.62962e-06 6.2113e-06 0 -6.45537e-06 6.50329e-06 0 -7.32542e-06 6.83099e-06 0 -8.24531e-06 7.19449e-06 0 -9.22075e-06 7.59371e-06 0 -1.02576e-05 8.02828e-06 0 -1.13618e-05 8.4975e-06 0 -1.25394e-05 9.00023e-06 0 -1.37966e-05 9.53481e-06 0 -1.51393e-05 1.00989e-05 0 -1.65735e-05 1.06894e-05 0 -1.81048e-05 1.13024e-05 0 -1.97385e-05 1.19329e-05 0 -2.14794e-05 1.25747e-05 0 -2.33313e-05 1.32205e-05 0 -2.52972e-05 1.38617e-05 0 -2.73785e-05 1.44881e-05 0 -2.95753e-05 1.50883e-05 0 -3.18855e-05 1.56494e-05 0 -3.43049e-05 1.61571e-05 0 -3.68265e-05 1.65961e-05 0 -3.94402e-05 1.69503e-05 0 -4.21327e-05 1.72029e-05 0 -4.48869e-05 1.73374e-05 0 0 5.76209e-06 0 -6.18579e-07 5.78113e-06 0 -1.24169e-06 5.83831e-06 0 -1.87388e-06 5.93381e-06 0 -2.51976e-06 6.06787e-06 0 -3.18404e-06 6.24088e-06 0 -3.87152e-06 6.45326e-06 0 -4.58715e-06 6.70549e-06 0 -5.33603e-06 6.99807e-06 0 -6.12345e-06 7.33149e-06 0 -6.95491e-06 7.70616e-06 0 -7.83611e-06 8.12235e-06 0 -8.773e-06 8.58017e-06 0 -9.77172e-06 9.07943e-06 0 -1.08386e-05 9.61958e-06 0 -1.19804e-05 1.01996e-05 0 -1.32036e-05 1.08179e-05 0 -1.4515e-05 1.14721e-05 0 -1.59216e-05 1.2159e-05 0 -1.743e-05 1.28744e-05 0 -1.90465e-05 1.36129e-05 0 -2.07773e-05 1.43678e-05 0 -2.26276e-05 1.51308e-05 0 -2.46019e-05 1.58922e-05 0 -2.67032e-05 1.66405e-05 0 -2.89332e-05 1.73623e-05 0 -3.12914e-05 1.80426e-05 0 -3.37749e-05 1.86646e-05 0 -3.63781e-05 1.92101e-05 0 -3.90916e-05 1.96592e-05 0 -4.19026e-05 1.99917e-05 0 -4.47937e-05 2.01869e-05 0 0 6.36013e-06 0 -5.78242e-07 6.3814e-06 0 -1.16088e-06 6.44529e-06 0 -1.75236e-06 6.55201e-06 0 -2.35717e-06 6.70191e-06 0 -2.97992e-06 6.89545e-06 0 -3.62532e-06 7.13321e-06 0 -4.2983e-06 7.41583e-06 0 -5.00392e-06 7.74401e-06 0 -5.74753e-06 8.11843e-06 0 -6.53469e-06 8.53976e-06 0 -7.37128e-06 9.00854e-06 0 -8.26344e-06 9.52513e-06 0 -9.21767e-06 1.00896e-05 0 -1.02408e-05 1.07017e-05 0 -1.13398e-05 1.13606e-05 0 -1.25222e-05 1.20649e-05 0 -1.37957e-05 1.28124e-05 0 -1.51679e-05 1.35999e-05 0 -1.66468e-05 1.44231e-05 0 -1.82402e-05 1.52764e-05 0 -1.99555e-05 1.61525e-05 0 -2.17998e-05 1.70425e-05 0 -2.37792e-05 1.79356e-05 0 -2.58989e-05 1.88189e-05 0 -2.81625e-05 1.96775e-05 0 -3.05714e-05 2.04939e-05 0 -3.31248e-05 2.12486e-05 0 -3.58185e-05 2.19201e-05 0 -3.86449e-05 2.24849e-05 0 -4.15916e-05 2.29179e-05 0 -4.46415e-05 2.31941e-05 0 0 6.91565e-06 0 -5.3351e-07 6.93908e-06 0 -1.07126e-06 7.00946e-06 0 -1.61753e-06 7.12706e-06 0 -2.17667e-06 7.29232e-06 0 -2.75315e-06 7.50583e-06 0 -3.3516e-06 7.76831e-06 0 -3.97683e-06 8.08062e-06 0 -4.63389e-06 8.44368e-06 0 -5.3281e-06 8.85845e-06 0 -6.06511e-06 9.32589e-06 0 -6.85091e-06 9.84688e-06 0 -7.69188e-06 1.04221e-05 0 -8.59481e-06 1.10521e-05 0 -9.56693e-06 1.17369e-05 0 -1.06159e-05 1.24761e-05 0 -1.175e-05 1.32686e-05 0 -1.29775e-05 1.41125e-05 0 -1.43076e-05 1.50049e-05 0 -1.57492e-05 1.59415e-05 0 -1.73118e-05 1.69167e-05 0 -1.90046e-05 1.79229e-05 0 -2.08366e-05 1.89507e-05 0 -2.28161e-05 1.99884e-05 0 -2.49505e-05 2.10219e-05 0 -2.7246e-05 2.20344e-05 0 -2.97065e-05 2.30064e-05 0 -3.23336e-05 2.39156e-05 0 -3.51257e-05 2.47367e-05 0 -3.80769e-05 2.5442e-05 0 -4.11765e-05 2.60014e-05 0 -4.44077e-05 2.6384e-05 0 0 7.42433e-06 0 -4.84544e-07 7.44983e-06 0 -9.73129e-07 7.52644e-06 0 -1.46984e-06 7.65449e-06 0 -1.97885e-06 7.83451e-06 0 -2.50445e-06 8.06724e-06 0 -3.05113e-06 8.3536e-06 0 -3.62357e-06 8.69466e-06 0 -4.22674e-06 9.09163e-06 0 -4.86594e-06 9.54579e-06 0 -5.54681e-06 1.00585e-05 0 -6.27545e-06 1.06309e-05 0 -7.05843e-06 1.12643e-05 0 -7.90282e-06 1.19597e-05 0 -8.8163e-06 1.27176e-05 0 -9.80713e-06 1.35381e-05 0 -1.08842e-05 1.44207e-05 0 -1.2057e-05 1.5364e-05 0 -1.33356e-05 1.63654e-05 0 -1.47307e-05 1.74212e-05 0 -1.62532e-05 1.85256e-05 0 -1.79145e-05 1.96713e-05 0 -1.97257e-05 2.08485e-05 0 -2.16977e-05 2.20449e-05 0 -2.38408e-05 2.32453e-05 0 -2.61639e-05 2.44313e-05 0 -2.86743e-05 2.55814e-05 0 -3.13768e-05 2.66701e-05 0 -3.42728e-05 2.76687e-05 0 -3.73595e-05 2.85447e-05 0 -4.06286e-05 2.92621e-05 0 -4.40652e-05 2.97833e-05 0 0 7.88205e-06 0 -4.31543e-07 7.90951e-06 0 -8.66887e-07 7.99202e-06 0 -1.30988e-06 8.12997e-06 0 -1.76446e-06 8.32402e-06 0 -2.23472e-06 8.57506e-06 0 -2.72494e-06 8.88421e-06 0 -3.23963e-06 9.25282e-06 0 -3.78364e-06 9.6824e-06 0 -4.36216e-06 1.01746e-05 0 -4.98082e-06 1.07312e-05 0 -5.64575e-06 1.13539e-05 0 -6.36365e-06 1.20446e-05 0 -7.14186e-06 1.28047e-05 0 -7.98843e-06 1.36355e-05 0 -8.91218e-06 1.45378e-05 0 -9.92277e-06 1.55119e-05 0 -1.10307e-05 1.6557e-05 0 -1.22473e-05 1.76714e-05 0 -1.35847e-05 1.88517e-05 0 -1.50559e-05 2.00929e-05 0 -1.66744e-05 2.13878e-05 0 -1.84538e-05 2.27267e-05 0 -2.04081e-05 2.40969e-05 0 -2.25507e-05 2.54825e-05 0 -2.48942e-05 2.68637e-05 0 -2.74496e-05 2.8217e-05 0 -3.02258e-05 2.95143e-05 0 -3.32283e-05 3.07229e-05 0 -3.64587e-05 3.18053e-05 0 -3.99122e-05 3.27194e-05 0 -4.35761e-05 3.34186e-05 0 3.45079e-21 8.28489e-06 0 -3.74749e-07 8.31418e-06 0 -7.53012e-07 8.40219e-06 0 -1.13835e-06 8.5494e-06 0 -1.53444e-06 8.75657e-06 0 -1.94508e-06 9.02479e-06 0 -2.37432e-06 9.3554e-06 0 -2.82645e-06 9.75003e-06 0 -3.3061e-06 1.02106e-05 0 -3.81833e-06 1.07391e-05 0 -4.36866e-06 1.13378e-05 0 -4.96319e-06 1.20091e-05 0 -5.60869e-06 1.27553e-05 0 -6.31267e-06 1.35788e-05 0 -7.08352e-06 1.44817e-05 0 -7.93056e-06 1.54657e-05 0 -8.86416e-06 1.65319e-05 0 -9.89583e-06 1.76806e-05 0 -1.10382e-05 1.89111e-05 0 -1.23051e-05 2.0221e-05 0 -1.37115e-05 2.16061e-05 0 -1.52732e-05 2.30599e-05 0 -1.7007e-05 2.45731e-05 0 -1.89301e-05 2.6133e-05 0 -2.10595e-05 2.77233e-05 0 -2.34121e-05 2.93234e-05 0 -2.60036e-05 3.09079e-05 0 -2.88476e-05 3.24463e-05 0 -3.19552e-05 3.39023e-05 0 -3.53333e-05 3.52337e-05 0 -3.89831e-05 3.6391e-05 0 -4.28986e-05 3.73205e-05 0 3.05614e-20 8.62921e-06 0 -3.1445e-07 8.66017e-06 0 -6.32076e-07 8.75322e-06 0 -9.56109e-07 8.90891e-06 0 -1.28988e-06 9.12814e-06 0 -1.6369e-06 9.41217e-06 0 -2.00087e-06 9.7626e-06 0 -2.3858e-06 1.01814e-05 0 -2.79607e-06 1.06708e-05 0 -3.23649e-06 1.12333e-05 0 -3.71241e-06 1.18718e-05 0 -4.22979e-06 1.25892e-05 0 -4.79538e-06 1.33888e-05 0 -5.41678e-06 1.42736e-05 0 -6.10259e-06 1.52468e-05 0 -6.86255e-06 1.63112e-05 0 -7.7077e-06 1.74691e-05 0 -8.65047e-06 1.87222e-05 0 -9.70479e-06 2.00711e-05 0 -1.08862e-05 2.15147e-05 0 -1.22118e-05 2.30501e-05 0 -1.37001e-05 2.4672e-05 0 -1.5371e-05 2.6372e-05 0 -1.72455e-05 2.8138e-05 0 -1.9345e-05 2.99536e-05 0 -2.1691e-05 3.17978e-05 0 -2.43045e-05 3.36439e-05 0 -2.72051e-05 3.54596e-05 0 -3.04105e-05 3.72055e-05 0 -3.39349e-05 3.88347e-05 0 -3.77875e-05 4.02917e-05 0 -4.19679e-05 4.1509e-05 0 5.6227e-21 8.91168e-06 0 -2.50982e-07 8.94412e-06 0 -5.04752e-07 9.04167e-06 0 -7.64151e-07 9.20494e-06 0 -1.03213e-06 9.43496e-06 0 -1.3118e-06 9.7332e-06 0 -1.60651e-06 1.01015e-05 0 -1.9199e-06 1.05422e-05 0 -2.25599e-06 1.10579e-05 0 -2.61927e-06 1.16516e-05 0 -3.0148e-06 1.23268e-05 0 -3.44834e-06 1.30873e-05 0 -3.92644e-06 1.39369e-05 0 -4.45667e-06 1.48799e-05 0 -5.04772e-06 1.59206e-05 0 -5.7096e-06 1.7063e-05 0 -6.45388e-06 1.8311e-05 0 -7.29381e-06 1.96679e-05 0 -8.24457e-06 2.11359e-05 0 -9.32337e-06 2.2716e-05 0 -1.05495e-05 2.44071e-05 0 -1.19445e-05 2.62055e-05 0 -1.35316e-05 2.81043e-05 0 -1.53359e-05 3.00925e-05 0 -1.73838e-05 3.21545e-05 0 -1.97021e-05 3.42692e-05 0 -2.23179e-05 3.64094e-05 0 -2.52574e-05 3.85414e-05 0 -2.8546e-05 4.06238e-05 0 -3.22068e-05 4.26066e-05 0 -3.62601e-05 4.44279e-05 0 -4.07237e-05 4.60202e-05 0 0 9.12933e-06 0 -1.84735e-07 9.16305e-06 0 -3.71816e-07 9.26447e-06 0 -5.63642e-07 9.43427e-06 0 -7.62718e-07 9.67364e-06 0 -9.71715e-07 9.98423e-06 0 -1.19353e-06 1.03682e-05 0 -1.43137e-06 1.0828e-05 0 -1.6888e-06 1.1367e-05 0 -1.96991e-06 1.19885e-05 0 -2.27934e-06 1.26968e-05 0 -2.62247e-06 1.34962e-05 0 -3.00558e-06 1.43917e-05 0 -3.43597e-06 1.53886e-05 0 -3.92226e-06 1.64925e-05 0 -4.47455e-06 1.77091e-05 0 -5.10471e-06 1.90439e-05 0 -5.82668e-06 2.05022e-05 0 -6.65668e-06 2.20885e-05 0 -7.61354e-06 2.3806e-05 0 -8.71883e-06 2.56562e-05 0 -9.99698e-06 2.76379e-05 0 -1.14751e-05 2.97463e-05 0 -1.3183e-05 3.19724e-05 0 -1.51522e-05 3.43017e-05 0 -1.74157e-05 3.67139e-05 0 -2.00072e-05 3.91819e-05 0 -2.29604e-05 4.16714e-05 0 -2.63086e-05 4.41402e-05 0 -3.00857e-05 4.65367e-05 0 -3.43244e-05 4.87986e-05 0 -3.90506e-05 5.08344e-05 0 0 9.27959e-06 0 -1.16151e-07 9.31437e-06 0 -2.34154e-07 9.41895e-06 0 -3.55911e-07 9.59412e-06 0 -4.83427e-07 9.84119e-06 0 -6.18862e-07 1.0162e-05 0 -7.64599e-07 1.05589e-05 0 -9.23313e-07 1.10349e-05 0 -1.09805e-06 1.15935e-05 0 -1.29235e-06 1.22388e-05 0 -1.51032e-06 1.29755e-05 0 -1.75682e-06 1.3809e-05 0 -2.03763e-06 1.47451e-05 0 -2.35964e-06 1.57904e-05 0 -2.73111e-06 1.69519e-05 0 -3.16197e-06 1.82369e-05 0 -3.66415e-06 1.96531e-05 0 -4.25193e-06 2.12082e-05 0 -4.9424e-06 2.29094e-05 0 -5.75576e-06 2.47629e-05 0 -6.71577e-06 2.67734e-05 0 -7.84989e-06 2.89428e-05 0 -9.18936e-06 3.12698e-05 0 -1.07689e-05 3.37479e-05 0 -1.26263e-05 3.63649e-05 0 -1.48014e-05 3.91017e-05 0 -1.73349e-05 4.19317e-05 0 -2.02682e-05 4.48207e-05 0 -2.36431e-05 4.77266e-05 0 -2.75021e-05 5.06001e-05 0 -3.18934e-05 5.33776e-05 0 -3.68829e-05 5.60081e-05 0 7.47455e-21 9.3604e-06 0 -4.57229e-08 9.39596e-06 0 -9.27545e-08 9.50293e-06 0 -1.42449e-07 9.68216e-06 0 -1.96252e-07 9.93508e-06 0 -2.55756e-07 1.02637e-05 0 -3.22755e-07 1.06707e-05 0 -3.99313e-07 1.11593e-05 0 -4.87851e-07 1.17335e-05 0 -5.91237e-07 1.23978e-05 0 -7.12913e-07 1.31577e-05 0 -8.57045e-07 1.40193e-05 0 -1.02871e-06 1.49895e-05 0 -1.23411e-06 1.60761e-05 0 -1.4809e-06 1.72877e-05 0 -1.77848e-06 1.86335e-05 0 -2.13844e-06 2.01235e-05 0 -2.57505e-06 2.17681e-05 0 -3.1058e-06 2.35777e-05 0 -3.75198e-06 2.55624e-05 0 -4.53923e-06 2.77308e-05 0 -5.49805e-06 3.00895e-05 0 -6.66397e-06 3.26412e-05 0 -8.07741e-06 3.53834e-05 0 -9.78304e-06 3.83071e-05 0 -1.18285e-05 4.13951e-05 0 -1.42628e-05 4.46213e-05 0 -1.7135e-05 4.79514e-05 0 -2.0493e-05 5.13446e-05 0 -2.43885e-05 5.47535e-05 0 -2.88784e-05 5.81313e-05 0 -3.40169e-05 6.13622e-05 0 3.27237e-20 9.37017e-06 0 2.60061e-08 9.40624e-06 0 5.12921e-08 9.51474e-06 0 7.50992e-08 9.69661e-06 0 9.65893e-08 9.95337e-06 0 1.148e-07 1.02872e-05 0 1.28592e-07 1.0701e-05 0 1.3659e-07 1.11983e-05 0 1.37105e-07 1.17833e-05 0 1.28045e-07 1.24614e-05 0 1.06795e-07 1.32383e-05 0 7.00676e-08 1.41211e-05 0 1.37174e-08 1.51176e-05 0 -6.75072e-08 1.6237e-05 0 -1.80272e-07 1.74893e-05 0 -3.33052e-07 1.88859e-05 0 -5.36625e-07 2.04392e-05 0 -8.04677e-07 2.21628e-05 0 -1.15452e-06 2.40708e-05 0 -1.60793e-06 2.61777e-05 0 -2.192e-06 2.84975e-05 0 -2.93996e-06 3.10423e-05 0 -3.89177e-06 3.38207e-05 0 -5.09421e-06 3.68361e-05 0 -6.60016e-06 4.00836e-05 0 -8.46676e-06 4.35487e-05 0 -1.07529e-05 4.72057e-05 0 -1.35153e-05 5.10188e-05 0 -1.68084e-05 5.4945e-05 0 -2.06819e-05 5.89429e-05 0 -2.51963e-05 6.29645e-05 0 -3.04736e-05 6.70859e-05 0 2.77577e-21 9.30791e-06 0 9.84488e-08 9.34417e-06 0 1.96804e-07 9.4533e-06 0 2.94944e-07 9.63626e-06 0 3.92681e-07 9.89468e-06 0 4.89734e-07 1.02309e-05 0 5.85681e-07 1.06479e-05 0 6.79908e-07 1.11495e-05 0 7.7155e-07 1.17404e-05 0 8.59406e-07 1.24262e-05 0 9.41836e-07 1.32132e-05 0 1.01662e-06 1.41093e-05 0 1.08078e-06 1.51231e-05 0 1.13034e-06 1.62651e-05 0 1.15999e-06 1.75469e-05 0 1.16268e-06 1.89818e-05 0 1.12906e-06 2.05849e-05 0 1.04675e-06 2.23731e-05 0 8.99422e-07 2.43649e-05 0 6.65731e-07 2.65799e-05 0 3.1798e-07 2.90386e-05 0 -1.79182e-07 3.17604e-05 0 -8.70016e-07 3.47622e-05 0 -1.80828e-06 3.80549e-05 0 -3.05682e-06 4.16407e-05 0 -4.68535e-06 4.55087e-05 0 -6.76556e-06 4.9633e-05 0 -9.36577e-06 5.39721e-05 0 -1.25416e-05 5.8477e-05 0 -1.63407e-05 6.30972e-05 0 -2.08015e-05 6.78263e-05 0 -2.59246e-05 7.24604e-05 0 0 9.17321e-06 0 1.7098e-07 9.20936e-06 0 3.42523e-07 9.31814e-06 0 5.15174e-07 9.50057e-06 0 6.89435e-07 9.75834e-06 0 8.65744e-07 1.00939e-05 0 1.04445e-06 1.05103e-05 0 1.22576e-06 1.10117e-05 0 1.40971e-06 1.16029e-05 0 1.5961e-06 1.22898e-05 0 1.7844e-06 1.30794e-05 0 1.97363e-06 1.39798e-05 0 2.16223e-06 1.50009e-05 0 2.3478e-06 1.61537e-05 0 2.52683e-06 1.74516e-05 0 2.69423e-06 1.89097e-05 0 2.84279e-06 2.05457e-05 0 2.96234e-06 2.23801e-05 0 3.03868e-06 2.44357e-05 0 3.05215e-06 2.67385e-05 0 2.97588e-06 2.93162e-05 0 2.77362e-06 3.21978e-05 0 2.39762e-06 3.5411e-05 0 1.78672e-06 3.89785e-05 0 8.65969e-07 4.29127e-05 0 -4.51271e-07 4.721e-05 0 -2.25712e-06 5.18433e-05 0 -4.63623e-06 5.67616e-05 0 -7.65458e-06 6.18926e-05 0 -1.13377e-05 6.71733e-05 0 -1.56852e-05 7.25351e-05 0 -2.07957e-05 7.84454e-05 0 0 8.96632e-06 0 2.42944e-07 9.00202e-06 0 4.87128e-07 9.10946e-06 0 7.33783e-07 9.28966e-06 0 9.84124e-07 9.54437e-06 0 1.23934e-06 9.87605e-06 0 1.50058e-06 1.0288e-05 0 1.76892e-06 1.07842e-05 0 2.04538e-06 1.13699e-05 0 2.33081e-06 1.2051e-05 0 2.62592e-06 1.28348e-05 0 2.93114e-06 1.37301e-05 0 3.24652e-06 1.4747e-05 0 3.57156e-06 1.58977e-05 0 3.90494e-06 1.71964e-05 0 4.24413e-06 1.86601e-05 0 4.58486e-06 2.03088e-05 0 4.92024e-06 2.21662e-05 0 5.23959e-06 2.42599e-05 0 5.52678e-06 2.66221e-05 0 5.75781e-06 2.92897e-05 0 5.89792e-06 3.23028e-05 0 5.89772e-06 3.57039e-05 0 5.68954e-06 3.95323e-05 0 5.18429e-06 4.38182e-05 0 4.27201e-06 4.85704e-05 0 2.82935e-06 5.37661e-05 0 7.35833e-07 5.93356e-05 0 -2.09082e-06 6.5172e-05 0 -5.67264e-06 7.1137e-05 0 -9.93219e-06 7.72121e-05 0 -1.45617e-05 8.26203e-05 0 0 8.68814e-06 0 3.13668e-07 8.72305e-06 0 6.29259e-07 8.82811e-06 0 9.48701e-07 9.00437e-06 0 1.27393e-06 9.25355e-06 0 1.60691e-06 9.57815e-06 0 1.94959e-06 9.98142e-06 0 2.30396e-06 1.04675e-05 0 2.67203e-06 1.10415e-05 0 3.05581e-06 1.17096e-05 0 3.45728e-06 1.24792e-05 0 3.8784e-06 1.33591e-05 0 4.32103e-06 1.43598e-05 0 4.78679e-06 1.54941e-05 0 5.27694e-06 1.67768e-05 0 5.79208e-06 1.82262e-05 0 6.33166e-06 1.9864e-05 0 6.89326e-06 2.17167e-05 0 7.47141e-06 2.38162e-05 0 8.05573e-06 2.62013e-05 0 8.62828e-06 2.89177e-05 0 9.15936e-06 3.20198e-05 0 9.60222e-06 3.55678e-05 0 9.8857e-06 3.96258e-05 0 9.907e-06 4.4251e-05 0 9.52649e-06 4.94811e-05 0 8.57062e-06 5.5305e-05 0 6.85691e-06 6.16435e-05 0 4.23613e-06 6.83157e-05 0 6.88773e-07 7.50928e-05 0 -3.62893e-06 8.16263e-05 0 -8.57945e-06 8.94253e-05 0 0 8.34026e-06 0 3.82469e-07 8.37403e-06 0 7.67541e-07 8.4757e-06 0 1.15783e-06 8.64627e-06 0 1.556e-06 8.88746e-06 0 1.96477e-06 9.2017e-06 0 2.3869e-06 9.59222e-06 0 2.82531e-06 1.00631e-05 0 3.28299e-06 1.06193e-05 0 3.7631e-06 1.1267e-05 0 4.26897e-06 1.20135e-05 0 4.80414e-06 1.28675e-05 0 5.37234e-06 1.38396e-05 0 5.97752e-06 1.49424e-05 0 6.62378e-06 1.61912e-05 0 7.31529e-06 1.76045e-05 0 8.05595e-06 1.92052e-05 0 8.84896e-06 2.10214e-05 0 9.69579e-06 2.30885e-05 0 1.05946e-05 2.54501e-05 0 1.15373e-05 2.81618e-05 0 1.25051e-05 3.1291e-05 0 1.34607e-05 3.49215e-05 0 1.43377e-05 3.91477e-05 0 1.50257e-05 4.40731e-05 0 1.53528e-05 4.97828e-05 0 1.50779e-05 5.63175e-05 0 1.38983e-05 6.35959e-05 0 1.15352e-05 7.13759e-05 0 7.84869e-06 7.91778e-05 0 3.08113e-06 8.66688e-05 0 -1.84021e-06 9.05359e-05 0 0 7.92492e-06 0 4.48672e-07 7.95723e-06 0 9.00607e-07 8.0545e-06 0 1.3591e-06 8.21768e-06 0 1.8275e-06 8.44844e-06 0 2.30926e-06 8.74912e-06 0 2.80798e-06 9.12283e-06 0 3.32741e-06 9.57348e-06 0 3.87154e-06 1.01059e-05 0 4.44466e-06 1.07259e-05 0 5.05141e-06 1.14405e-05 0 5.69687e-06 1.22583e-05 0 6.3867e-06 1.31891e-05 0 7.12717e-06 1.42454e-05 0 7.92536e-06 1.54417e-05 0 8.78923e-06 1.67964e-05 0 9.72765e-06 1.8332e-05 0 1.07503e-05 2.0077e-05 0 1.18672e-05 2.20677e-05 0 1.30878e-05 2.43517e-05 0 1.44185e-05 2.69899e-05 0 1.58583e-05 3.00645e-05 0 1.73904e-05 3.36791e-05 0 1.89688e-05 3.79712e-05 0 2.04919e-05 4.30996e-05 0 2.17725e-05 4.92467e-05 0 2.24847e-05 5.65479e-05 0 2.21589e-05 6.50238e-05 0 2.01985e-05 7.4363e-05 0 1.61946e-05 8.38469e-05 0 1.02569e-05 9.19618e-05 0 3.47923e-06 0.000103251 0 0 7.44507e-06 0 5.11617e-07 7.4756e-06 0 1.02713e-06 7.56748e-06 0 1.55047e-06 7.72163e-06 0 2.08565e-06 7.93962e-06 0 2.63684e-06 8.22366e-06 0 3.20838e-06 8.57665e-06 0 3.80485e-06 9.00227e-06 0 4.43117e-06 9.50503e-06 0 5.09267e-06 1.00904e-05 0 5.79522e-06 1.07648e-05 0 6.54537e-06 1.15362e-05 0 7.35054e-06 1.24137e-05 0 8.21925e-06 1.34087e-05 0 9.16143e-06 1.45347e-05 0 1.01888e-05 1.58083e-05 0 1.13152e-05 1.72508e-05 0 1.25573e-05 1.88884e-05 0 1.39346e-05 2.07567e-05 0 1.54698e-05 2.29013e-05 0 1.71882e-05 2.53874e-05 0 1.91139e-05 2.83005e-05 0 2.12662e-05 3.17679e-05 0 2.3639e-05 3.59562e-05 0 2.61821e-05 4.11105e-05 0 2.87259e-05 4.75263e-05 0 3.09205e-05 5.5569e-05 0 3.20458e-05 6.54844e-05 0 3.10435e-05 7.71653e-05 0 2.65896e-05 8.94968e-05 0 1.8421e-05 0.000100701 0 7.57282e-06 9.7857e-05 0 0 6.90427e-06 0 5.70676e-07 6.9327e-06 0 1.14583e-06 7.01828e-06 0 1.73001e-06 7.16187e-06 0 2.32784e-06 7.36488e-06 0 2.94412e-06 7.62936e-06 0 3.5839e-06 7.95798e-06 0 4.25251e-06 8.35408e-06 0 4.9557e-06 8.82177e-06 0 5.69974e-06 9.36595e-06 0 6.49158e-06 9.99245e-06 0 7.33903e-06 1.07082e-05 0 8.25107e-06 1.15213e-05 0 9.23815e-06 1.24416e-05 0 1.03127e-05 1.34806e-05 0 1.14897e-05 1.46527e-05 0 1.27876e-05 1.59753e-05 0 1.42296e-05 1.74718e-05 0 1.58444e-05 1.91708e-05 0 1.76691e-05 2.11156e-05 0 1.97487e-05 2.33605e-05 0 2.21418e-05 2.59954e-05 0 2.49102e-05 2.91393e-05 0 2.81286e-05 3.29984e-05 0 3.18282e-05 3.78552e-05 0 3.59938e-05 4.41899e-05 0 4.0315e-05 5.26337e-05 0 4.40753e-05 6.40574e-05 0 4.53614e-05 7.90352e-05 0 4.13175e-05 9.67777e-05 0 2.86709e-05 0.000112032 0 1.31424e-05 0.000136298 0 0 6.30669e-06 0 6.25262e-07 6.33275e-06 0 1.25554e-06 6.41119e-06 0 1.89592e-06 6.54276e-06 0 2.5516e-06 6.72877e-06 0 3.22796e-06 6.97103e-06 0 3.93065e-06 7.27194e-06 0 4.66568e-06 7.63445e-06 0 5.43949e-06 8.06217e-06 0 6.25916e-06 8.55937e-06 0 7.1325e-06 9.13107e-06 0 8.06836e-06 9.78306e-06 0 9.0769e-06 1.05222e-05 0 1.017e-05 1.13561e-05 0 1.1362e-05 1.22942e-05 0 1.26704e-05 1.33468e-05 0 1.41172e-05 1.4528e-05 0 1.573e-05 1.58527e-05 0 1.75466e-05 1.73447e-05 0 1.96137e-05 1.90297e-05 0 2.20005e-05 2.09569e-05 0 2.47893e-05 2.31822e-05 0 2.8112e-05 2.58275e-05 0 3.21061e-05 2.90479e-05 0 3.70085e-05 3.31858e-05 0 4.29677e-05 3.87438e-05 0 5.02052e-05 4.67508e-05 0 5.81701e-05 5.88316e-05 0 6.51607e-05 7.75238e-05 0 6.48805e-05 0.000104916 0 4.7709e-05 0.000136419 0 9.11258e-07 0.000118825 0 0 5.65708e-06 0 6.74838e-07 5.68051e-06 0 1.35518e-06 5.75103e-06 0 2.04657e-06 5.86932e-06 0 2.75473e-06 6.0365e-06 0 3.48553e-06 6.25417e-06 0 4.24515e-06 6.52439e-06 0 5.04015e-06 6.84972e-06 0 5.87757e-06 7.23322e-06 0 6.76506e-06 7.67846e-06 0 7.71113e-06 8.18951e-06 0 8.72531e-06 8.77109e-06 0 9.8185e-06 9.42824e-06 0 1.10036e-05 1.01669e-05 0 1.22957e-05 1.0993e-05 0 1.37139e-05 1.1914e-05 0 1.52813e-05 1.29363e-05 0 1.70301e-05 1.40706e-05 0 1.8998e-05 1.5323e-05 0 2.12478e-05 1.67131e-05 0 2.38453e-05 1.82494e-05 0 2.69279e-05 1.99792e-05 0 3.06165e-05 2.19332e-05 0 3.52379e-05 2.42564e-05 0 4.10215e-05 2.71126e-05 0 4.87672e-05 3.10274e-05 0 5.88823e-05 3.68975e-05 0 7.30192e-05 4.70572e-05 0 9.05827e-05 6.65983e-05 0 0.000107409 0.000106221 0 8.98078e-05 0.000173939 0 2.9206e-05 0.000263738 0 0 4.96067e-06 0 7.18925e-07 4.98125e-06 0 1.44377e-06 5.04319e-06 0 2.1805e-06 5.14706e-06 0 2.93525e-06 5.29383e-06 0 3.71433e-06 5.48484e-06 0 4.52435e-06 5.72182e-06 0 5.37231e-06 6.00692e-06 0 6.26568e-06 6.34262e-06 0 7.21257e-06 6.73178e-06 0 8.22188e-06 7.1776e-06 0 9.30347e-06 7.6835e-06 0 1.04688e-05 8.25314e-06 0 1.17303e-05 8.89004e-06 0 1.31046e-05 9.59771e-06 0 1.4608e-05 1.03788e-05 0 1.62687e-05 1.12352e-05 0 1.81072e-05 1.21667e-05 0 2.0184e-05 1.3171e-05 0 2.25152e-05 1.4242e-05 0 2.52599e-05 1.53677e-05 0 2.83867e-05 1.65363e-05 0 3.23667e-05 1.77204e-05 0 3.69523e-05 1.89192e-05 0 4.36184e-05 2.01258e-05 0 5.13768e-05 2.14433e-05 0 6.49502e-05 2.33299e-05 0 8.15296e-05 2.66488e-05 0 0.000116739 3.70516e-05 0 0.000167193 6.83334e-05 0 0.000254991 0.00021874 0 -0.000188482 0.000516739 0 0 4.22315e-06 0 7.5711e-07 4.24069e-06 0 1.52049e-06 4.29348e-06 0 2.29646e-06 4.38197e-06 0 3.0915e-06 4.50698e-06 0 3.91226e-06 4.66957e-06 0 4.76573e-06 4.87124e-06 0 5.65918e-06 5.11351e-06 0 6.60044e-06 5.39871e-06 0 7.5979e-06 5.7283e-06 0 8.66039e-06 6.10599e-06 0 9.7988e-06 6.53151e-06 0 1.10218e-05 7.01199e-06 0 1.2348e-05 7.53995e-06 0 1.37784e-05 8.13325e-06 0 1.53602e-05 8.75986e-06 0 1.705e-05 9.47309e-06 0 1.90097e-05 1.01636e-05 0 2.09954e-05 1.09971e-05 0 2.36199e-05 1.16365e-05 0 2.58222e-05 1.25753e-05 0 2.99357e-05 1.28635e-05 0 3.17665e-05 1.38245e-05 0 3.9983e-05 1.31312e-05 0 3.89767e-05 1.35794e-05 0 5.98755e-05 1.11589e-05 0 4.75486e-05 7.66023e-06 0 0.000109806 5.87855e-06 0 6.49984e-05 -2.40526e-05 0 0.00027166 1.09575e-05 0 0.000446186 -0.000360802 0 0.00218316 0.00235571 0 </DataArray> 
</PointData> 
<Points> 
<DataArray type="Float32" NumberOfComponents="3"> 