<?xml version="1.0"?> 
<VTKFile type="StructuredGrid" version="0.1"> 
<StructuredGrid WholeExtent="0 31 0 31 0 0"> 
<Piece Extent="0 31 0 31 0 0"> 
<PointData>
<DataArray type="Float32" Name="B" format="ascii" NumberOfComponents="3"> 
-4.89721e-05 -0 0 -5.14981e-05 -0 0 -5.39987e-05 -0 0 -5.64528e-05 -0 0 -5.88389e-05 -0 0 -6.11344e-05 -0 0 -6.33168e-05 -0 0 -6.53641e-05 -0 0 -6.72547e-05 -0 0 -6.89684e-05 -0 0 -7.04865e-05 -0 0 -7.17923e-05 -0 0 -7.28713e-05 -0 0 -7.37115e-05 -0 0 -7.43038e-05 -0 0 -7.46417e-05 -0 0 -7.47216e-05 -0 0 -7.45432e-05 -0 0 -7.41088e-05 -0 0 -7.34239e-05 -0 0 -7.24967e-05 -0 0 -7.13382e-05 -0 0 -6.99617e-05 -0 0 -6.83832e-05 -0 0 -6.66204e-05 -0 0 -6.46925e-05 -0 0 -6.26202e-05 -0 0 -6.0425e-05 -0 0 -5.81287e-05 -0 0 -5.5753e-05 -0 0 -5.33193e-05 -0 0 -5.08482e-05 -0 0 -4.8975e-05 2.53532e-06 0 -5.15108e-05 2.52006e-06 0 -5.40218e-05 2.48449e-06 0 -5.64869e-05 2.42748e-06 0 -5.88841e-05 2.34827e-06 0 -6.11909e-05 2.24647e-06 0 -6.33845e-05 2.12218e-06 0 -6.54425e-05 1.97591e-06 0 -6.73433e-05 1.80865e-06 0 -6.90663e-05 1.6218e-06 0 -7.05928e-05 1.41714e-06 0 -7.19058e-05 1.1968e-06 0 -7.29908e-05 9.63177e-07 0 -7.38357e-05 7.18888e-07 0 -7.44312e-05 4.66724e-07 0 -7.47708e-05 2.09585e-07 0 -7.48511e-05 -4.95589e-08 0 -7.46714e-05 -3.07718e-07 0 -7.42343e-05 -5.61923e-07 0 -7.35453e-05 -8.09267e-07 0 -7.26126e-05 -1.04696e-06 0 -7.14473e-05 -1.27236e-06 0 -7.0063e-05 -1.48306e-06 0 -6.84755e-05 -1.6769e-06 0 -6.67029e-05 -1.85207e-06 0 -6.47647e-05 -2.00711e-06 0 -6.26817e-05 -2.14098e-06 0 -6.04756e-05 -2.25308e-06 0 -5.81683e-05 -2.34322e-06 0 -5.57819e-05 -2.41167e-06 0 -5.3338e-05 -2.45909e-06 0 -5.08571e-05 -2.48647e-06 0 -4.89828e-05 5.08952e-06 0 -5.15481e-05 5.06046e-06 0 -5.40906e-05 4.99047e-06 0 -5.65887e-05 4.87725e-06 0 -5.90198e-05 4.71919e-06 0 -6.13606e-05 4.51552e-06 0 -6.35879e-05 4.2664e-06 0 -6.56784e-05 3.97289e-06 0 -6.76099e-05 3.63696e-06 0 -6.93612e-05 3.26146e-06 0 -7.0913e-05 2.85002e-06 0 -7.22479e-05 2.40693e-06 0 -7.3351e-05 1.93705e-06 0 -7.42099e-05 1.44567e-06 0 -7.4815e-05 9.38433e-07 0 -7.51599e-05 4.2118e-07 0 -7.52409e-05 -1.00106e-07 0 -7.50575e-05 -6.19402e-07 0 -7.46123e-05 -1.13072e-06 0 -7.39107e-05 -1.62822e-06 0 -7.29615e-05 -2.10624e-06 0 -7.17758e-05 -2.55947e-06 0 -7.03676e-05 -2.98302e-06 0 -6.87533e-05 -3.37254e-06 0 -6.69514e-05 -3.72434e-06 0 -6.49819e-05 -4.03547e-06 0 -6.28664e-05 -4.30382e-06 0 -6.06272e-05 -4.52817e-06 0 -5.8287e-05 -4.70819e-06 0 -5.58683e-05 -4.84444e-06 0 -5.33934e-05 -4.93826e-06 0 -5.08833e-05 -4.9917e-06 0 -4.89931e-05 7.68173e-06 0 -5.16081e-05 7.64185e-06 0 -5.42037e-05 7.53981e-06 0 -5.67574e-05 7.37199e-06 0 -5.92456e-05 7.13586e-06 0 -6.16441e-05 6.83019e-06 0 -6.39281e-05 6.45517e-06 0 -6.60736e-05 6.01242e-06 0 -6.80569e-05 5.50496e-06 0 -6.98559e-05 4.93718e-06 0 -7.14504e-05 4.31463e-06 0 -7.28222e-05 3.64392e-06 0 -7.39557e-05 2.93246e-06 0 -7.48382e-05 2.18836e-06 0 -7.54597e-05 1.42018e-06 0 -7.58134e-05 6.36816e-07 0 -7.58956e-05 -1.52651e-07 0 -7.5706e-05 -9.39081e-07 0 -7.5247e-05 -1.71339e-06 0 -7.45244e-05 -2.46669e-06 0 -7.35472e-05 -3.19038e-06 0 -7.23271e-05 -3.87635e-06 0 -7.08787e-05 -4.51713e-06 0 -6.92191e-05 -5.10604e-06 0 -6.73675e-05 -5.63741e-06 0 -6.53453e-05 -6.10674e-06 0 -6.31749e-05 -6.5108e-06 0 -6.08798e-05 -6.84774e-06 0 -5.84839e-05 -7.11709e-06 0 -5.60108e-05 -7.31974e-06 0 -5.34837e-05 -7.45787e-06 0 -5.09245e-05 -7.53467e-06 0 -4.90018e-05 1.03316e-05 0 -5.16873e-05 1.02855e-05 0 -5.43584e-05 1.01551e-05 0 -5.69914e-05 9.93525e-06 0 -5.95612e-05 9.62229e-06 0 -6.20419e-05 9.21446e-06 0 -6.44072e-05 8.71192e-06 0 -6.66311e-05 8.11687e-06 0 -6.86884e-05 7.4335e-06 0 -7.05555e-05 6.66784e-06 0 -7.22109e-05 5.82756e-06 0 -7.36352e-05 4.92175e-06 0 -7.48121e-05 3.96061e-06 0 -7.5728e-05 2.95518e-06 0 -7.63726e-05 1.91714e-06 0 -7.67388e-05 8.58566e-07 0 -7.68229e-05 -2.08242e-07 0 -7.66242e-05 -1.27091e-06 0 -7.61457e-05 -2.31714e-06 0 -7.53933e-05 -3.33484e-06 0 -7.43763e-05 -4.31235e-06 0 -7.31072e-05 -5.23857e-06 0 -7.16014e-05 -6.10326e-06 0 -6.9877e-05 -6.89726e-06 0 -6.79546e-05 -7.61275e-06 0 -6.5857e-05 -8.24352e-06 0 -6.36082e-05 -8.78515e-06 0 -6.12333e-05 -9.23511e-06 0 -5.87579e-05 -9.59287e-06 0 -5.62073e-05 -9.85977e-06 0 -5.36059e-05 -1.00389e-05 0 -5.09769e-05 -1.01349e-05 0 -4.90029e-05 1.30593e-05 0 -5.17807e-05 1.30137e-05 0 -5.4551e-05 1.28602e-05 0 -5.72884e-05 1.25919e-05 0 -5.99658e-05 1.22039e-05 0 -6.25552e-05 1.16938e-05 0 -6.50278e-05 1.10615e-05 0 -6.73554e-05 1.031e-05 0 -6.95104e-05 9.44461e-06 0 -7.14674e-05 8.47335e-06 0 -7.32029e-05 7.40622e-06 0 -7.46962e-05 6.25507e-06 0 -7.59299e-05 5.03313e-06 0 -7.68896e-05 3.75467e-06 0 -7.75644e-05 2.43467e-06 0 -7.7947e-05 1.08856e-06 0 -7.80333e-05 -2.67985e-07 0 -7.7823e-05 -1.61922e-06 0 -7.73188e-05 -2.94946e-06 0 -7.65272e-05 -4.2433e-06 0 -7.54581e-05 -5.48574e-06 0 -7.41245e-05 -6.66251e-06 0 -7.2543e-05 -7.76032e-06 0 -7.07332e-05 -8.76726e-06 0 -6.87173e-05 -9.67312e-06 0 -6.652e-05 -1.04698e-05 0 -6.41675e-05 -1.11515e-05 0 -6.16873e-05 -1.1715e-05 0 -5.91071e-05 -1.21598e-05 0 -5.64543e-05 -1.24878e-05 0 -5.37553e-05 -1.27033e-05 0 -5.1035e-05 -1.28124e-05 0 -4.8988e-05 1.58864e-05 0 -5.18814e-05 1.58499e-05 0 -5.47762e-05 1.56803e-05 0 -5.76451e-05 1.53686e-05 0 -6.04585e-05 1.49082e-05 0 -6.31853e-05 1.42956e-05 0 -6.57937e-05 1.35308e-05 0 -6.82524e-05 1.26173e-05 0 -7.0531e-05 1.1562e-05 0 -7.26012e-05 1.0375e-05 0 -7.44375e-05 9.06914e-06 0 -7.60175e-05 7.65935e-06 0 -7.73222e-05 6.16231e-06 0 -7.83366e-05 4.59579e-06 0 -7.90491e-05 2.97836e-06 0 -7.94519e-05 1.329e-06 0 -7.95411e-05 -3.33056e-07 0 -7.93161e-05 -1.98855e-06 0 -7.87799e-05 -3.61827e-06 0 -7.79393e-05 -5.20326e-06 0 -7.68047e-05 -6.72498e-06 0 -7.53902e-05 -8.16563e-06 0 -7.37135e-05 -9.50855e-06 0 -7.17959e-05 -1.07387e-05 0 -6.96618e-05 -1.18431e-05 0 -6.73383e-05 -1.28114e-05 0 -6.48546e-05 -1.36364e-05 0 -6.22411e-05 -1.43141e-05 0 -5.95286e-05 -1.48439e-05 0 -5.67472e-05 -1.52287e-05 0 -5.39258e-05 -1.54742e-05 0 -5.10913e-05 -1.55885e-05 0 -4.89465e-05 1.88353e-05 0 -5.198e-05 1.88193e-05 0 -5.50269e-05 1.8643e-05 0 -5.80571e-05 1.82946e-05 0 -6.10376e-05 1.77652e-05 0 -6.39337e-05 1.70503e-05 0 -6.67096e-05 1.61494e-05 0 -6.93299e-05 1.50669e-05 0 -7.17604e-05 1.38115e-05 0 -7.39696e-05 1.23959e-05 0 -7.59291e-05 1.08362e-05 0 -7.76146e-05 9.1511e-06 0 -7.90056e-05 7.36107e-06 0 -8.00861e-05 5.48789e-06 0 -8.08439e-05 3.554e-06 0 -8.12713e-05 1.58216e-06 0 -8.13637e-05 -4.04707e-07 0 -8.11209e-05 -2.38369e-06 0 -8.05461e-05 -4.3319e-06 0 -7.96461e-05 -6.22662e-06 0 -7.8432e-05 -8.04547e-06 0 -7.69187e-05 -9.76675e-06 0 -7.51255e-05 -1.13699e-05 0 -7.30755e-05 -1.28363e-05 0 -7.07959e-05 -1.41496e-05 0 -6.8317e-05 -1.52969e-05 0 -6.56716e-05 -1.62692e-05 0 -6.2894e-05 -1.70615e-05 0 -6.00188e-05 -1.76736e-05 0 -5.70798e-05 -1.81093e-05 0 -5.4109e-05 -1.83764e-05 0 -5.11359e-05 -1.84855e-05 0 -4.88642e-05 2.193e-05 0 -5.20648e-05 2.19493e-05 0 -5.52939e-05 2.17785e-05 0 -5.85183e-05 2.14021e-05 0 -6.1701e-05 2.08086e-05 0 -6.48023e-05 1.99916e-05 0 -6.77813e-05 1.89504e-05 0 -7.05974e-05 1.76901e-05 0 -7.32116e-05 1.62218e-05 0 -7.55882e-05 1.45614e-05 0 -7.76955e-05 1.27291e-05 0 -7.95068e-05 1.07479e-05 0 -8.10002e-05 8.6431e-06 0 -8.21587e-05 6.44076e-06 0 -8.297e-05 4.1676e-06 0 -8.34259e-05 1.85036e-06 0 -8.35222e-05 -4.84256e-07 0 -8.32585e-05 -2.80962e-06 0 -8.26379e-05 -5.09907e-06 0 -8.16676e-05 -7.32596e-06 0 -8.0359e-05 -9.46372e-06 0 -7.87278e-05 -1.14863e-05 0 -7.67947e-05 -1.33686e-05 0 -7.45853e-05 -1.50875e-05 0 -7.21298e-05 -1.66228e-05 0 -6.94624e-05 -1.79583e-05 0 -6.66209e-05 -1.90826e-05 0 -6.36443e-05 -1.999e-05 0 -6.05724e-05 -2.06803e-05 0 -5.74436e-05 -2.11591e-05 0 -5.4294e-05 -2.14367e-05 0 -5.1156e-05 -2.15272e-05 0 -4.87238e-05 2.51963e-05 0 -5.21202e-05 2.52698e-05 0 -5.55649e-05 2.51202e-05 0 -5.90208e-05 2.47275e-05 0 -6.24456e-05 2.40765e-05 0 -6.57933e-05 2.31582e-05 0 -6.90165e-05 2.19713e-05 0 -7.20675e-05 2.05223e-05 0 -7.49013e-05 1.88249e-05 0 -7.74769e-05 1.68994e-05 0 -7.97589e-05 1.47711e-05 0 -8.17179e-05 1.24687e-05 0 -8.33305e-05 1.00227e-05 0 -8.45795e-05 7.46447e-06 0 -8.54523e-05 4.82527e-06 0 -8.5941e-05 2.13593e-06 0 -8.60416e-05 -5.73063e-07 0 -8.57536e-05 -3.27144e-06 0 -8.50803e-05 -5.92883e-06 0 -8.40284e-05 -8.51449e-06 0 -8.26095e-05 -1.09974e-05 0 -8.08398e-05 -1.33464e-05 0 -7.87413e-05 -1.55311e-05 0 -7.6342e-05 -1.75229e-05 0 -7.3676e-05 -1.92966e-05 0 -7.07826e-05 -2.08317e-05 0 -6.77052e-05 -2.2114e-05 0 -6.44898e-05 -2.31363e-05 0 -6.11825e-05 -2.38994e-05 0 -5.78278e-05 -2.44108e-05 0 -5.44666e-05 -2.46845e-05 0 -5.11352e-05 -2.47389e-05 0 -4.8502e-05 2.86621e-05 0 -5.21262e-05 2.88137e-05 0 -5.58241e-05 2.87059e-05 0 -5.95538e-05 2.83124e-05 0 -6.32668e-05 2.76128e-05 0 -6.69091e-05 2.65946e-05 0 -7.04238e-05 2.52557e-05 0 -7.37553e-05 2.36039e-05 0 -7.68498e-05 2.16568e-05 0 -7.966e-05 1.94407e-05 0 -8.21461e-05 1.69875e-05 0 -8.42759e-05 1.4333e-05 0 -8.60252e-05 1.15145e-05 0 -8.73768e-05 8.5691e-06 0 -8.83189e-05 5.53299e-06 0 -8.88444e-05 2.44113e-06 0 -8.89497e-05 -6.72465e-07 0 -8.86345e-05 -3.77421e-06 0 -8.79015e-05 -6.83023e-06 0 -8.67569e-05 -9.80579e-06 0 -8.52114e-05 -1.2665e-05 0 -8.32813e-05 -1.5371e-05 0 -8.09894e-05 -1.7887e-05 0 -7.83662e-05 -2.01774e-05 0 -7.54501e-05 -2.22102e-05 0 -7.22866e-05 -2.39592e-05 0 -6.89276e-05 -2.54064e-05 0 -6.54269e-05 -2.65433e-05 0 -6.18395e-05 -2.73712e-05 0 -5.82176e-05 -2.79011e-05 0 -5.46085e-05 -2.81519e-05 0 -5.10527e-05 -2.81479e-05 0 -4.81716e-05 3.23563e-05 0 -5.20573e-05 3.26174e-05 0 -5.60501e-05 3.25783e-05 0 -6.01027e-05 3.22049e-05 0 -6.41581e-05 3.1469e-05 0 -6.8152e-05 3.03538e-05 0 -7.20163e-05 2.88547e-05 0 -7.56814e-05 2.6982e-05 0 -7.90845e-05 2.47589e-05 0 -8.21695e-05 2.22196e-05 0 -8.48915e-05 1.94054e-05 0 -8.72162e-05 1.63614e-05 0 -8.91194e-05 1.31331e-05 0 -9.05851e-05 9.76422e-06 0 -9.16035e-05 6.29627e-06 0 -9.21692e-05 2.768e-06 0 -9.22797e-05 -7.83668e-07 0 -9.19345e-05 -4.32255e-06 0 -9.11357e-05 -7.8119e-06 0 -8.98879e-05 -1.12133e-05 0 -8.81998e-05 -1.44858e-05 0 -8.60865e-05 -1.7586e-05 0 -8.35707e-05 -2.04691e-05 0 -8.06852e-05 -2.30904e-05 0 -7.7473e-05 -2.54088e-05 0 -7.39882e-05 -2.73902e-05 0 -7.02914e-05 -2.90111e-05 0 -6.64501e-05 -3.02606e-05 0 -6.25301e-05 -3.11422e-05 0 -5.85937e-05 -3.16714e-05 0 -5.46957e-05 -3.18744e-05 0 -5.08821e-05 -3.17833e-05 0 -4.76938e-05 3.63121e-05 0 -5.18795e-05 3.67208e-05 0 -5.62151e-05 3.67864e-05 0 -6.06474e-05 3.64613e-05 0 -6.51103e-05 3.57073e-05 0 -6.95252e-05 3.44987e-05 0 -7.38059e-05 3.28297e-05 0 -7.78701e-05 3.07124e-05 0 -8.16373e-05 2.81785e-05 0 -8.50424e-05 2.5274e-05 0 -8.80343e-05 2.20533e-05 0 -9.05778e-05 1.85739e-05 0 -9.26505e-05 1.48916e-05 0 -9.42398e-05 1.1058e-05 0 -9.53398e-05 7.11956e-06 0 -9.59481e-05 3.11815e-06 0 -9.60639e-05 -9.07566e-07 0 -9.56872e-05 -4.92012e-06 0 -9.48181e-05 -8.88111e-06 0 -9.34585e-05 -1.27492e-05 0 -9.16134e-05 -1.64785e-05 0 -8.92943e-05 -2.00183e-05 0 -8.65223e-05 -2.33135e-05 0 -8.33308e-05 -2.63075e-05 0 -7.9769e-05 -2.89461e-05 0 -7.58995e-05 -3.11839e-05 0 -7.18004e-05 -3.29889e-05 0 -6.75513e-05 -3.43483e-05 0 -6.32359e-05 -3.52672e-05 0 -5.89296e-05 -3.57693e-05 0 -5.46971e-05 -3.58909e-05 0 -5.05894e-05 -3.5676e-05 0 -4.70273e-05 4.05571e-05 0 -5.15496e-05 4.11689e-05 0 -5.62802e-05 4.13863e-05 0 -6.11599e-05 4.11493e-05 0 -6.6109e-05 4.04021e-05 0 -7.1031e-05 3.91091e-05 0 -7.58197e-05 3.7256e-05 0 -8.03604e-05 3.48618e-05 0 -8.45588e-05 3.19702e-05 0 -8.83343e-05 2.86449e-05 0 -9.16314e-05 2.49595e-05 0 -9.44155e-05 2.09885e-05 0 -9.66695e-05 1.68005e-05 0 -9.83879e-05 1.24558e-05 0 -9.95714e-05 8.00528e-06 0 -0.000100223 3.4924e-06 0 -0.000100344 -1.04446e-06 0 -9.99359e-05 -5.56876e-06 0 -9.89952e-05 -1.00425e-05 0 -9.7519e-05 -1.44229e-05 0 -9.5506e-05 -1.866e-05 0 -9.29609e-05 -2.26948e-05 0 -8.9899e-05 -2.64596e-05 0 -8.63534e-05 -2.98812e-05 0 -8.23772e-05 -3.28868e-05 0 -7.80482e-05 -3.54133e-05 0 -7.34578e-05 -3.74171e-05 0 -6.87177e-05 -3.88787e-05 0 -6.39303e-05 -3.98114e-05 0 -5.91896e-05 -4.02489e-05 0 -5.45715e-05 -4.02443e-05 0 -5.01323e-05 -3.98566e-05 0 -4.61049e-05 4.51355e-05 0 -5.10083e-05 4.60074e-05 0 -5.61938e-05 4.64431e-05 0 -6.15992e-05 4.63495e-05 0 -6.71333e-05 4.56491e-05 0 -7.26728e-05 4.42804e-05 0 -7.80698e-05 4.22282e-05 0 -8.31905e-05 3.9512e-05 0 -8.78986e-05 3.61972e-05 0 -9.2101e-05 3.23759e-05 0 -9.57365e-05 2.81505e-05 0 -9.87774e-05 2.36185e-05 0 -0.000101217 1.88647e-05 0 -0.000103063 1.39581e-05 0 -0.000104327 8.9525e-06 0 -0.000105019 3.8903e-06 0 -0.000105147 -1.19366e-06 0 -0.000104709 -6.26717e-06 0 -0.0001037 -1.12959e-05 0 -0.00010211 -1.62385e-05 0 -9.99251e-05 -2.10423e-05 0 -9.71389e-05 -2.56402e-05 0 -9.3756e-05 -2.99489e-05 0 -8.9802e-05 -3.38725e-05 0 -8.53355e-05 -3.731e-05 0 -8.04464e-05 -4.01703e-05 0 -7.52679e-05 -4.23883e-05 0 -6.99293e-05 -4.39443e-05 0 -6.45751e-05 -4.48526e-05 0 -5.93236e-05 -4.51725e-05 0 -5.42639e-05 -4.49796e-05 0 -4.94548e-05 -4.43581e-05 0 -4.4869e-05 5.0049e-05 0 -5.01807e-05 5.12886e-05 0 -5.588e-05 5.20282e-05 0 -6.19055e-05 5.21623e-05 0 -6.81476e-05 5.15656e-05 0 -7.44508e-05 5.0153e-05 0 -8.06282e-05 4.78716e-05 0 -8.64527e-05 4.47651e-05 0 -9.17693e-05 4.0932e-05 0 -9.64562e-05 3.65104e-05 0 -0.000100458 3.16456e-05 0 -0.000103759 2.64675e-05 0 -0.000106377 2.10792e-05 0 -0.000108338 1.55573e-05 0 -0.000109671 9.9551e-06 0 -0.000110397 4.3095e-06 0 -0.00011053 -1.35294e-06 0 -0.000110069 -7.00921e-06 0 -0.000109004 -1.26334e-05 0 -0.000107312 -1.81902e-05 0 -0.000104965 -2.36279e-05 0 -0.000101935 -2.88723e-05 0 -9.82056e-05 -3.38226e-05 0 -9.37882e-05 -3.83511e-05 0 -8.87357e-05 -4.23146e-05 0 -8.31665e-05 -4.55765e-05 0 -7.72311e-05 -4.8039e-05 0 -7.11526e-05 -4.96587e-05 0 -6.51116e-05 -5.04875e-05 0 -5.92607e-05 -5.0609e-05 0 -5.37013e-05 -5.01435e-05 0 -4.84903e-05 -4.9203e-05 0 -4.31973e-05 5.53787e-05 0 -4.89596e-05 5.70489e-05 0 -5.52362e-05 5.82235e-05 0 -6.19839e-05 5.87051e-05 0 -6.9096e-05 5.83194e-05 0 -7.6364e-05 5.68831e-05 0 -8.34846e-05 5.43513e-05 0 -9.0202e-05 5.07527e-05 0 -9.62396e-05 4.62565e-05 0 -0.000101469 4.10846e-05 0 -0.000105845 3.54496e-05 0 -0.00010939 2.95218e-05 0 -0.000112157 2.34235e-05 0 -0.000114203 1.72338e-05 0 -0.000115581 1.09994e-05 0 -0.000116329 4.74492e-06 0 -0.000116467 -1.51788e-06 0 -0.000115995 -7.78172e-06 0 -0.000114896 -1.40357e-05 0 -0.000113132 -2.02572e-05 0 -0.000110652 -2.6402e-05 0 -0.000107397 -3.23942e-05 0 -0.000103315 -3.81145e-05 0 -9.83791e-05 -4.33959e-05 0 -9.2632e-05 -4.80287e-05 0 -8.61974e-05 -5.17931e-05 0 -7.93477e-05 -5.45212e-05 0 -7.23318e-05 -5.61851e-05 0 -6.54493e-05 -5.68294e-05 0 -5.88984e-05 -5.66344e-05 0 -5.27855e-05 -5.57751e-05 0 -4.71475e-05 -5.442e-05 0 -4.10337e-05 6.09979e-05 0 -4.72188e-05 6.33359e-05 0 -5.41023e-05 6.5098e-05 0 -6.16853e-05 6.61287e-05 0 -6.98677e-05 6.61107e-05 0 -7.84013e-05 6.47894e-05 0 -8.6881e-05 6.19209e-05 0 -9.47182e-05 5.7643e-05 0 -0.00010162 5.22537e-05 0 -0.000107423 4.61151e-05 0 -0.000112148 3.95374e-05 0 -0.00011588 3.27395e-05 0 -0.000118735 2.58537e-05 0 -0.000120813 1.89514e-05 0 -0.000122199 1.20617e-05 0 -0.000122948 5.18794e-06 0 -0.00012309 -1.68128e-06 0 -0.000122626 -8.56203e-06 0 -0.000121529 -1.5467e-05 0 -0.000119746 -2.23954e-05 0 -0.000117194 -2.93218e-05 0 -0.000113773 -3.61787e-05 0 -0.000109366 -4.28384e-05 0 -0.000103884 -4.90863e-05 0 -9.73021e-05 -5.46162e-05 0 -8.97809e-05 -5.90686e-05 0 -8.16053e-05 -6.21483e-05 0 -7.33598e-05 -6.37183e-05 0 -6.54379e-05 -6.40223e-05 0 -5.8087e-05 -6.33155e-05 0 -5.13879e-05 -6.19034e-05 0 -4.53313e-05 -5.99865e-05 0 -3.81531e-05 6.71602e-05 0 -4.47732e-05 7.01049e-05 0 -5.22675e-05 7.27134e-05 0 -6.07504e-05 7.45739e-05 0 -7.02639e-05 7.52886e-05 0 -8.05141e-05 7.4157e-05 0 -9.06948e-05 7.0931e-05 0 -0.000100065 6.5662e-05 0 -0.000107951 5.89892e-05 0 -0.000114308 5.15659e-05 0 -0.000119277 4.38323e-05 0 -0.000123081 3.60342e-05 0 -0.000125917 2.82938e-05 0 -0.000127946 2.0652e-05 0 -0.000129282 1.31059e-05 0 -0.000130004 5.62546e-06 0 -0.000130148 -1.83243e-06 0 -0.000129717 -9.31613e-06 0 -0.000128678 -1.68705e-05 0 -0.000126956 -2.45292e-05 0 -0.00012444 -3.22999e-05 0 -0.000120967 -4.01474e-05 0 -0.000116342 -4.79553e-05 0 -0.000110338 -5.5484e-05 0 -0.000102808 -6.22979e-05 0 -9.37919e-05 -6.77483e-05 0 -8.39575e-05 -7.11987e-05 0 -7.40344e-05 -7.25998e-05 0 -6.48275e-05 -7.22016e-05 0 -5.66085e-05 -7.06993e-05 0 -4.93444e-05 -6.85061e-05 0 -4.29085e-05 -6.59207e-05 0 -3.46076e-05 7.32111e-05 0 -4.14604e-05 7.73615e-05 0 -4.94079e-05 8.09995e-05 0 -5.87511e-05 8.41787e-05 0 -6.98038e-05 8.62e-05 0 -8.25951e-05 8.60511e-05 0 -9.58887e-05 8.20978e-05 0 -0.000107272 7.50536e-05 0 -0.000116192 6.64331e-05 0 -0.000122904 5.72982e-05 0 -0.000127897 4.81684e-05 0 -0.000131569 3.92602e-05 0 -0.000134229 3.06269e-05 0 -0.00013609 2.22531e-05 0 -0.000137302 1.4082e-05 0 -0.000137957 6.03988e-06 0 -0.000138101 -1.95755e-06 0 -0.000137738 -9.9973e-06 0 -0.000136828 -1.81663e-05 0 -0.000135283 -2.65428e-05 0 -0.000132959 -3.51905e-05 0 -0.000129642 -4.4132e-05 0 -0.000125022 -5.33228e-05 0 -0.000118699 -6.25536e-05 0 -0.000110176 -7.13122e-05 0 -9.91932e-05 -7.85411e-05 0 -8.62915e-05 -8.27305e-05 0 -7.38824e-05 -8.31693e-05 0 -6.31792e-05 -8.14918e-05 0 -5.41641e-05 -7.87211e-05 0 -4.64741e-05 -7.5517e-05 0 -3.9795e-05 -7.20434e-05 0 -3.00025e-05 8.02514e-05 0 -3.70641e-05 8.47517e-05 0 -4.52146e-05 8.979e-05 0 -5.4979e-05 9.47237e-05 0 -6.74086e-05 9.94742e-05 0 -8.40029e-05 0.000101493 0 -0.000102831 9.64615e-05 0 -0.000116784 8.59359e-05 0 -0.000126292 7.43033e-05 0 -0.000132869 6.29674e-05 0 -0.000137469 5.22657e-05 0 -0.000140712 4.21961e-05 0 -0.000142979 3.26969e-05 0 -0.000144529 2.36473e-05 0 -0.000145525 1.49282e-05 0 -0.000146069 6.40851e-06 0 -0.00014621 -2.03963e-06 0 -0.000145953 -1.05489e-05 0 -0.000145258 -1.92505e-05 0 -0.00014403 -2.82821e-05 0 -0.000142113 -3.77715e-05 0 -0.000139249 -4.78506e-05 0 -0.000135055 -5.85915e-05 0 -0.000128908 -7.00078e-05 0 -0.000119848 -8.17693e-05 0 -0.000106346 -9.24802e-05 0 -8.79716e-05 -9.77561e-05 0 -7.18108e-05 -9.60442e-05 0 -5.98075e-05 -9.16712e-05 0 -5.04114e-05 -8.71692e-05 0 -4.26148e-05 -8.2698e-05 0 -3.58651e-05 -7.84391e-05 0 -2.48531e-05 8.56617e-05 0 -3.16285e-05 9.23545e-05 0 -3.94244e-05 9.83582e-05 0 -4.86825e-05 0.000105669 0 -6.07712e-05 0.000113619 0 -7.98079e-05 0.000126498 0 -0.000106354 0.000115935 0 -0.00012038 9.73057e-05 0 -0.00012916 8.1723e-05 0 -0.000134569 6.79953e-05 0 -0.000138246 5.56969e-05 0 -0.000140659 4.45684e-05 0 -0.000142297 3.43088e-05 0 -0.000143369 2.47143e-05 0 -0.000144053 1.55727e-05 0 -0.000144435 6.70683e-06 0 -0.000144568 -2.0624e-06 0 -0.000144458 -1.09063e-05 0 -0.000144066 -2.00087e-05 0 -0.000143317 -2.95551e-05 0 -0.000142041 -3.97705e-05 0 -0.000140032 -5.08724e-05 0 -0.0001368 -6.31787e-05 0 -0.000131871 -7.69611e-05 0 -0.000123594 -9.26591e-05 0 -0.000110087 -0.000111468 0 -8.40525e-05 -0.000122282 0 -6.55323e-05 -0.000109727 0 -5.39202e-05 -0.000102167 0 -4.51514e-05 -9.5366e-05 0 -3.7739e-05 -8.98392e-05 0 -3.12196e-05 -8.453e-05 0 -1.84514e-05 9.44709e-05 0 -2.52575e-05 9.91227e-05 0 -3.23269e-05 0.000106273 0 -3.98862e-05 0.000115034 0 -4.87844e-05 0.000125744 0 -5.97202e-05 0.000145454 0 -7.08331e-05 0.000131191 0 -7.95751e-05 0.000106324 0 -8.49716e-05 8.73248e-05 0 -8.83284e-05 7.15661e-05 0 -9.03555e-05 5.79956e-05 0 -9.1603e-05 4.60606e-05 0 -9.23494e-05 3.52698e-05 0 -9.28002e-05 2.53259e-05 0 -9.30734e-05 1.59455e-05 0 -9.32486e-05 6.90682e-06 0 -9.3366e-05 -2.00951e-06 0 -9.34352e-05 -1.10103e-05 0 -9.34341e-05 -2.03205e-05 0 -9.32986e-05 -3.01742e-05 0 -9.29228e-05 -4.08706e-05 0 -9.21058e-05 -5.27287e-05 0 -9.05694e-05 -6.62591e-05 0 -8.77512e-05 -8.20383e-05 0 -8.29316e-05 -0.000101128 0 -7.47764e-05 -0.00012617 0 -6.42628e-05 -0.000140687 0 -5.38977e-05 -0.000121307 0 -4.55973e-05 -0.000111025 0 -3.85639e-05 -0.000102722 0 -3.20843e-05 -9.64105e-05 0 -2.58714e-05 -9.1119e-05 0 -1.23756e-05 9.62913e-05 0 -1.87062e-05 0.000106328 0 -2.46503e-05 0.00011256 0 -2.99213e-05 0.000121537 0 -3.42839e-05 0.000132743 0 -3.80968e-05 0.000153025 0 -4.14015e-05 0.000137612 0 -4.33657e-05 0.00011054 0 -4.44205e-05 8.98172e-05 0 -4.47851e-05 7.2955e-05 0 -4.47586e-05 5.87267e-05 0 -4.45159e-05 4.64029e-05 0 -4.41997e-05 3.54064e-05 0 -4.39016e-05 2.5373e-05 0 -4.36923e-05 1.59831e-05 0 -4.36187e-05 6.98265e-06 0 -4.37113e-05 -1.87155e-06 0 -4.3983e-05 -1.08118e-05 0 -4.44283e-05 -2.00893e-05 0 -4.50225e-05 -2.99727e-05 0 -4.57114e-05 -4.08056e-05 0 -4.64136e-05 -5.29773e-05 0 -4.69832e-05 -6.7101e-05 0 -4.72364e-05 -8.39278e-05 0 -4.68425e-05 -0.000104717 0 -4.55667e-05 -0.000131952 0 -4.29272e-05 -0.00014763 0 -3.97926e-05 -0.000127696 0 -3.60559e-05 -0.000116875 0 -3.15165e-05 -0.000108511 0 -2.61969e-05 -0.000102525 0 -2.03432e-05 -9.62046e-05 0 -5.2222e-06 0.000112547 0 -1.25253e-05 0.000111379 0 -1.80027e-05 0.000117769 0 -2.072e-05 0.00012446 0 -2.04517e-05 0.000133884 0 -1.69817e-05 0.000152339 0 -1.16867e-05 0.000136291 0 -6.91632e-06 0.000109194 0 -3.2292e-06 8.85275e-05 0 -3.7016e-07 7.1752e-05 0 1.91689e-06 5.76169e-05 0 3.77145e-06 4.54271e-05 0 5.24847e-06 3.46007e-05 0 6.36107e-06 2.47801e-05 0 7.1013e-06 1.56366e-05 0 7.45317e-06 6.9116e-06 0 7.39846e-06 -1.64805e-06 0 6.92001e-06 -1.02832e-05 0 6.00217e-06 -1.92558e-05 0 4.63056e-06 -2.88458e-05 0 2.78735e-06 -3.94076e-05 0 4.45386e-07 -5.13437e-05 0 -2.45393e-06 -6.52708e-05 0 -6.02784e-06 -8.19443e-05 0 -1.05036e-05 -0.000102628 0 -1.60692e-05 -0.000129902 0 -2.21454e-05 -0.000146237 0 -2.63158e-05 -0.000128137 0 -2.73295e-05 -0.000119166 0 -2.53413e-05 -0.000112699 0 -2.08646e-05 -0.00010774 0 -1.47535e-05 -0.000104248 0 5.04804e-07 0.000102749 0 -8.26254e-06 0.000120748 0 -1.38736e-05 0.000120844 0 -1.47536e-05 0.000124353 0 -9.91649e-06 0.000128711 0 2.05e-06 0.000142792 0 1.90835e-05 0.000126699 0 3.08474e-05 0.000102177 0 3.89242e-05 8.34777e-05 0 4.47337e-05 6.79286e-05 0 4.91555e-05 5.46373e-05 0 5.2572e-05 4.30866e-05 0 5.52007e-05 3.28147e-05 0 5.71375e-05 2.351e-05 0 5.84257e-05 1.48787e-05 0 5.90745e-05 6.6733e-06 0 5.90751e-05 -1.34915e-06 0 5.84051e-05 -9.42469e-06 0 5.70292e-05 -1.78092e-05 0 5.48956e-05 -2.67693e-05 0 5.19244e-05 -3.66433e-05 0 4.79927e-05 -4.7782e-05 0 4.28758e-05 -6.07317e-05 0 3.62096e-05 -7.60511e-05 0 2.71734e-05 -9.47367e-05 0 1.44333e-05 -0.000119435 0 -3.48297e-06 -0.000135911 0 -1.61964e-05 -0.000122296 0 -2.16893e-05 -0.000118184 0 -2.16387e-05 -0.000115344 0 -1.72241e-05 -0.000113966 0 -9.90476e-06 -0.000107862 0 5.28543e-06 0.000150331 0 -7.59962e-06 0.000124813 0 -1.45624e-05 0.000125605 0 -1.44267e-05 0.000120695 0 -6.19944e-06 0.000119008 0 1.14068e-05 0.000118899 0 3.75359e-05 0.000107489 0 5.32428e-05 9.06999e-05 0 6.43302e-05 7.53574e-05 0 7.2289e-05 6.18619e-05 0 7.84913e-05 4.99643e-05 0 8.32644e-05 3.94683e-05 0 8.6959e-05 3.00761e-05 0 8.96794e-05 2.15686e-05 0 9.15089e-05 1.36982e-05 0 9.24641e-05 6.25116e-06 0 9.25425e-05 -9.97269e-07 0 9.1716e-05 -8.26534e-06 0 8.99313e-05 -1.57858e-05 0 8.71143e-05 -2.38057e-05 0 8.3129e-05 -3.26018e-05 0 7.7822e-05 -4.24825e-05 0 7.08241e-05 -5.37993e-05 0 6.18088e-05 -6.69172e-05 0 4.95016e-05 -8.21196e-05 0 3.25181e-05 -9.91856e-05 0 5.34843e-06 -0.000111158 0 -1.30207e-05 -0.000111919 0 -2.15175e-05 -0.000114254 0 -2.23673e-05 -0.00011815 0 -1.66329e-05 -0.0001201 0 -6.06497e-06 -0.000124731 0 1.29028e-05 0.000101607 0 -1.22371e-05 0.000148124 0 -2.41895e-05 0.000126821 0 -2.10163e-05 0.000115923 0 -1.09819e-05 0.000106104 0 5.03282e-06 9.8685e-05 0 2.17395e-05 8.91494e-05 0 3.70599e-05 7.73457e-05 0 4.88866e-05 6.54209e-05 0 5.83085e-05 5.41272e-05 0 6.57205e-05 4.39335e-05 0 7.1643e-05 3.47207e-05 0 7.62501e-05 2.64724e-05 0 7.97013e-05 1.89808e-05 0 8.20465e-05 1.21014e-05 0 8.33159e-05 5.62636e-06 0 8.34997e-05 -6.25216e-07 0 8.25659e-05 -6.85748e-06 0 8.04537e-05 -1.32675e-05 0 7.70639e-05 -2.00711e-05 0 7.22607e-05 -2.74845e-05 0 6.58235e-05 -3.57472e-05 0 5.74873e-05 -4.50678e-05 0 4.6773e-05 -5.56255e-05 0 3.32501e-05 -6.7313e-05 0 1.62456e-05 -7.93801e-05 0 -2.09558e-06 -8.99378e-05 0 -1.85144e-05 -9.88185e-05 0 -2.8593e-05 -0.000109073 0 -3.02641e-05 -0.000120725 0 -2.08903e-05 -0.000133314 0 -2.7766e-06 -0.000126394 0 1.51125e-07 0.000269555 0 -3.62249e-05 0.000152714 0 -4.37366e-05 0.000133464 0 -3.76221e-05 0.000104523 0 -1.97988e-05 9.14088e-05 0 -3.87003e-06 8.18012e-05 0 1.30813e-05 7.31764e-05 0 2.70015e-05 6.41206e-05 0 3.92807e-05 5.45306e-05 0 4.92437e-05 4.54135e-05 0 5.76244e-05 3.67982e-05 0 6.43991e-05 2.90683e-05 0 6.98317e-05 2.20667e-05 0 7.39355e-05 1.58041e-05 0 7.67832e-05 1.00846e-05 0 7.83703e-05 4.78653e-06 0 7.86935e-05 -2.79207e-07 0 7.77133e-05 -5.2688e-06 0 7.5365e-05 -1.03623e-05 0 7.15495e-05 -1.57217e-05 0 6.61142e-05 -2.15278e-05 0 5.88713e-05 -2.79294e-05 0 4.95332e-05 -3.50924e-05 0 3.78443e-05 -4.30692e-05 0 2.34362e-05 -5.18865e-05 0 6.55825e-06 -6.13306e-05 0 -1.23685e-05 -7.15411e-05 0 -3.02472e-05 -8.39364e-05 0 -4.47173e-05 -0.000100789 0 -4.86981e-05 -0.0001256 0 -3.60176e-05 -0.000148172 0 -4.0105e-06 -0.000180372 0 4.23918e-05 0.000131028 0 -8.53628e-05 0.000220421 0 -9.50158e-05 0.000112635 0 -5.2625e-05 8.572e-05 0 -3.29149e-05 7.12959e-05 0 -9.85404e-06 6.47355e-05 0 3.96256e-06 5.83157e-05 0 1.88092e-05 5.09435e-05 0 3.01932e-05 4.35252e-05 0 4.09883e-05 3.58718e-05 0 4.98051e-05 2.89457e-05 0 5.74632e-05 2.25513e-05 0 6.35612e-05 1.69898e-05 0 6.83231e-05 1.20356e-05 0 7.16403e-05 7.67207e-06 0 7.35666e-05 3.69774e-06 0 7.406e-05 1.20418e-09 0 7.3098e-05 -3.58464e-06 0 7.06166e-05 -7.1823e-06 0 6.65121e-05 -1.0937e-05 0 6.06614e-05 -1.49542e-05 0 5.28404e-05 -1.93701e-05 0 4.28876e-05 -2.42422e-05 0 3.03996e-05 -2.97048e-05 0 1.54073e-05 -3.57657e-05 0 -2.71456e-06 -4.27724e-05 0 -2.28017e-05 -5.1467e-05 0 -4.62318e-05 -6.39604e-05 0 -6.84699e-05 -8.56893e-05 0 -8.79895e-05 -0.000122703 0 -7.22789e-05 -0.000188418 0 4.24414e-06 -0.000193096 0 -0.000203716 0.000817739 0 -0.000333295 0.000175584 0 -0.000106494 5.3911e-05 0 -8.78549e-05 4.42246e-05 0 -2.19571e-05 4.84748e-05 0 -2.26969e-05 4.75867e-05 0 3.11586e-06 4.41023e-05 0 9.51902e-06 3.84932e-05 0 2.47958e-05 3.21815e-05 0 3.36788e-05 2.59615e-05 0 4.43287e-05 2.02701e-05 0 5.21085e-05 1.53538e-05 0 5.92536e-05 1.11923e-05 0 6.44723e-05 7.73582e-06 0 6.83592e-05 4.83174e-06 0 7.05905e-05 2.35471e-06 0 7.13074e-05 1.57077e-07 0 7.04202e-05 -1.87559e-06 0 6.78921e-05 -3.85641e-06 0 6.36668e-05 -5.87116e-06 0 5.75264e-05 -8.00433e-06 0 4.94884e-05 -1.03122e-05 0 3.89448e-05 -1.28586e-05 0 2.63941e-05 -1.56793e-05 0 1.00383e-05 -1.8883e-05 0 -7.70838e-06 -2.26798e-05 0 -3.2943e-05 -2.78314e-05 0 -5.72135e-05 -3.61182e-05 0 -0.000101927 -5.30218e-05 0 -0.000140968 -9.4383e-05 0 -0.000203331 -0.000221419 0 -2.87373e-05 -0.000451652 0 0.00288642 0.0123368 0 0.00015922 -0.00184146 0 -0.000733065 0.000249431 0 0.000345836 -8.94021e-05 0 -0.000246049 5.71759e-05 0 0.000103223 2.86873e-05 0 -6.91106e-05 2.99998e-05 0 3.96441e-05 2.98492e-05 0 5.32615e-08 1.79877e-05 0 3.78867e-05 1.73857e-05 0 3.47387e-05 9.5603e-06 0 5.08094e-05 8.13376e-06 0 5.50134e-05 4.24365e-06 0 6.27314e-05 3.13196e-06 0 6.62095e-05 1.4258e-06 0 6.92232e-05 8.12343e-07 0 6.99803e-05 1.06362e-07 0 6.92736e-05 -1.86967e-07 0 6.68443e-05 -5.20117e-07 0 6.24188e-05 -6.50929e-07 0 5.6631e-05 -9.32073e-07 0 4.76224e-05 -9.23681e-07 0 3.8735e-05 -1.34872e-06 0 2.24584e-05 -1.0948e-06 0 1.29922e-05 -1.65918e-06 0 -1.90963e-05 -1.48562e-06 0 -1.84368e-05 -3.61143e-07 0 -9.66782e-05 -5.60487e-06 0 -5.38977e-05 1.31758e-05 0 -0.000288276 -4.81631e-05 0 -0.000396026 0.00023094 0 0.00058718 -0.00351217 0 </DataArray> 
</PointData> 
<Points> 
<DataArray type="Float32" NumberOfComponents="3"> 