<?xml version="1.0"?> 
<VTKFile type="StructuredGrid" version="0.1"> 
<StructuredGrid WholeExtent="0 31 0 31 0 0"> 
<Piece Extent="0 31 0 31 0 0"> 
<PointData>
<DataArray type="Float32" Name="B" format="ascii" NumberOfComponents="3"> 
0 -0 0 5.8934e-07 -0 0 1.18229e-06 -0 0 1.78245e-06 -0 0 2.39344e-06 -0 0 3.0189e-06 -0 0 3.66246e-06 -0 0 4.32776e-06 -0 0 5.01847e-06 -0 0 5.73824e-06 -0 0 6.49071e-06 -0 0 7.27949e-06 -0 0 8.10814e-06 -0 0 8.98016e-06 -0 0 9.89891e-06 -0 0 1.08676e-05 -0 0 1.18893e-05 -0 0 1.29666e-05 -0 0 1.41021e-05 -0 0 1.52977e-05 -0 0 1.65548e-05 -0 0 1.78743e-05 -0 0 1.92564e-05 -0 0 2.07003e-05 -0 0 2.22042e-05 -0 0 2.37655e-05 -0 0 2.53801e-05 -0 0 2.70427e-05 -0 0 2.87464e-05 -0 0 3.04832e-05 -0 0 3.22431e-05 -0 0 3.40149e-05 -0 0 1.47996e-21 -5.88138e-07 0 5.87537e-07 -5.89941e-07 0 1.17868e-06 -5.9535e-07 0 1.77703e-06 -6.04371e-07 0 2.38621e-06 -6.17015e-07 0 3.00985e-06 -6.33292e-07 0 3.65158e-06 -6.53214e-07 0 4.31506e-06 -6.76789e-07 0 5.00394e-06 -7.04022e-07 0 5.72189e-06 -7.34906e-07 0 6.47255e-06 -7.69425e-07 0 7.25954e-06 -8.07539e-07 0 8.08645e-06 -8.49189e-07 0 8.95678e-06 -8.94281e-07 0 9.87391e-06 -9.42684e-07 0 1.08411e-05 -9.9422e-07 0 1.18614e-05 -1.04865e-06 0 1.29376e-05 -1.10569e-06 0 1.4072e-05 -1.16494e-06 0 1.52669e-05 -1.22595e-06 0 1.65236e-05 -1.28815e-06 0 1.7843e-05 -1.35088e-06 0 1.92254e-05 -1.41335e-06 0 2.06701e-05 -1.47465e-06 0 2.21755e-05 -1.53374e-06 0 2.37388e-05 -1.58948e-06 0 2.5356e-05 -1.64058e-06 0 2.7022e-05 -1.68566e-06 0 2.87299e-05 -1.72325e-06 0 3.04715e-05 -1.75183e-06 0 3.2237e-05 -1.76988e-06 0 3.40152e-05 -1.7759e-06 0 2.43063e-21 -1.17267e-06 0 5.82131e-07 -1.17628e-06 0 1.16786e-06 -1.18709e-06 0 1.76079e-06 -1.20512e-06 0 2.36453e-06 -1.2304e-06 0 2.98271e-06 -1.26294e-06 0 3.61897e-06 -1.30277e-06 0 4.27696e-06 -1.34992e-06 0 4.96035e-06 -1.40439e-06 0 5.67282e-06 -1.46618e-06 0 6.41804e-06 -1.53525e-06 0 7.19967e-06 -1.61154e-06 0 8.02133e-06 -1.69493e-06 0 8.88656e-06 -1.78524e-06 0 9.79883e-06 -1.88223e-06 0 1.07615e-05 -1.98553e-06 0 1.17776e-05 -2.0947e-06 0 1.28501e-05 -2.20914e-06 0 1.39815e-05 -2.3281e-06 0 1.51741e-05 -2.45068e-06 0 1.64294e-05 -2.57575e-06 0 1.77486e-05 -2.70199e-06 0 1.9132e-05 -2.82784e-06 0 2.05791e-05 -2.95147e-06 0 2.20886e-05 -3.07083e-06 0 2.36578e-05 -3.18358e-06 0 2.5283e-05 -3.28717e-06 0 2.6959e-05 -3.37879e-06 0 2.86793e-05 -3.4555e-06 0 3.04356e-05 -3.51421e-06 0 3.22181e-05 -3.55181e-06 0 3.40155e-05 -3.56527e-06 0 0 -1.75e-06 0 5.73129e-07 -1.7554e-06 0 1.14984e-06 -1.7716e-06 0 1.73374e-06 -1.79863e-06 0 2.32841e-06 -1.83651e-06 0 2.93749e-06 -1.88529e-06 0 3.56462e-06 -1.94502e-06 0 4.21345e-06 -2.01572e-06 0 4.88768e-06 -2.09743e-06 0 5.591e-06 -2.19015e-06 0 6.32713e-06 -2.29385e-06 0 7.09977e-06 -2.40843e-06 0 7.91261e-06 -2.53373e-06 0 8.76928e-06 -2.66952e-06 0 9.67336e-06 -2.81543e-06 0 1.06283e-05 -2.97096e-06 0 1.16374e-05 -3.13544e-06 0 1.27036e-05 -3.30803e-06 0 1.38298e-05 -3.48762e-06 0 1.50184e-05 -3.67288e-06 0 1.62713e-05 -3.86215e-06 0 1.75898e-05 -4.05347e-06 0 1.89747e-05 -4.2445e-06 0 2.04257e-05 -4.43253e-06 0 2.19417e-05 -4.61447e-06 0 2.35206e-05 -4.78682e-06 0 2.51589e-05 -4.94568e-06 0 2.68516e-05 -5.08683e-06 0 2.85924e-05 -5.20574e-06 0 3.03731e-05 -5.29771e-06 0 3.2184e-05 -5.35793e-06 0 3.40136e-05 -5.38173e-06 0 9.13494e-23 -2.31654e-06 0 5.60542e-07 -2.32373e-06 0 1.12465e-06 -2.3453e-06 0 1.69591e-06 -2.38128e-06 0 2.27789e-06 -2.43173e-06 0 2.87423e-06 -2.49671e-06 0 3.48856e-06 -2.57628e-06 0 4.12455e-06 -2.67052e-06 0 4.78591e-06 -2.77947e-06 0 5.47637e-06 -2.90315e-06 0 6.19969e-06 -3.04155e-06 0 6.95966e-06 -3.19457e-06 0 7.76004e-06 -3.36204e-06 0 8.60459e-06 -3.54365e-06 0 9.49702e-06 -3.73898e-06 0 1.04409e-05 -3.94739e-06 0 1.14399e-05 -4.16805e-06 0 1.24971e-05 -4.39987e-06 0 1.36157e-05 -4.64144e-06 0 1.47984e-05 -4.89101e-06 0 1.60474e-05 -5.14645e-06 0 1.73646e-05 -5.40516e-06 0 1.8751e-05 -5.66408e-06 0 2.0207e-05 -5.91963e-06 0 2.17319e-05 -6.16765e-06 0 2.33239e-05 -6.40348e-06 0 2.49801e-05 -6.62186e-06 0 2.66959e-05 -6.81707e-06 0 2.84652e-05 -6.98293e-06 0 3.02802e-05 -7.11297e-06 0 3.21311e-05 -7.20055e-06 0 3.40061e-05 -7.23919e-06 0 8.63273e-21 -2.86871e-06 0 5.44388e-07 -2.87767e-06 0 1.09232e-06 -2.90458e-06 0 1.64734e-06 -2.94947e-06 0 2.21303e-06 -3.01242e-06 0 2.79299e-06 -3.09352e-06 0 3.39085e-06 -3.19288e-06 0 4.01029e-06 -3.31059e-06 0 4.65504e-06 -3.44675e-06 0 5.32888e-06 -3.60142e-06 0 6.03562e-06 -3.77461e-06 0 6.77913e-06 -3.96625e-06 0 7.56329e-06 -4.17617e-06 0 8.392e-06 -4.40405e-06 0 9.26915e-06 -4.6494e-06 0 1.01986e-05 -4.91153e-06 0 1.11841e-05 -5.18946e-06 0 1.22292e-05 -5.4819e-06 0 1.33374e-05 -5.78718e-06 0 1.45118e-05 -6.1032e-06 0 1.57553e-05 -6.42738e-06 0 1.707e-05 -6.75655e-06 0 1.84576e-05 -7.08695e-06 0 1.99192e-05 -7.41414e-06 0 2.14546e-05 -7.73295e-06 0 2.30628e-05 -8.0375e-06 0 2.47414e-05 -8.32116e-06 0 2.64864e-05 -8.5766e-06 0 2.82921e-05 -8.79591e-06 0 3.01511e-05 -8.97068e-06 0 3.20536e-05 -9.09223e-06 0 3.39877e-05 -9.15201e-06 0 5.24182e-21 -3.40296e-06 0 5.24694e-07 -3.41368e-06 0 1.05289e-06 -3.44588e-06 0 1.58812e-06 -3.4996e-06 0 2.13391e-06 -3.57496e-06 0 2.69385e-06 -3.67208e-06 0 3.27156e-06 -3.79111e-06 0 3.87073e-06 -3.93221e-06 0 4.4951e-06 -4.09552e-06 0 5.14849e-06 -4.28117e-06 0 5.83479e-06 -4.48921e-06 0 6.55795e-06 -4.71963e-06 0 7.32198e-06 -4.9723e-06 0 8.13096e-06 -5.24693e-06 0 8.98898e-06 -5.54301e-06 0 9.90015e-06 -5.85982e-06 0 1.08685e-05 -6.19629e-06 0 1.18981e-05 -6.55101e-06 0 1.29928e-05 -6.92209e-06 0 1.41562e-05 -7.30715e-06 0 1.53917e-05 -7.70321e-06 0 1.67023e-05 -8.10661e-06 0 1.80902e-05 -8.51293e-06 0 1.95573e-05 -8.9169e-06 0 2.11043e-05 -9.31239e-06 0 2.27311e-05 -9.69229e-06 0 2.44359e-05 -1.00486e-05 0 2.62157e-05 -1.03722e-05 0 2.80655e-05 -1.06534e-05 0 2.99781e-05 -1.08816e-05 0 3.19442e-05 -1.10458e-05 0 3.39516e-05 -1.11351e-05 0 0 -3.91576e-06 0 5.01496e-07 -3.92823e-06 0 1.00645e-06 -3.96565e-06 0 1.51833e-06 -4.02811e-06 0 2.04065e-06 -4.11575e-06 0 2.57694e-06 -4.22874e-06 0 3.13082e-06 -4.36728e-06 0 3.70597e-06 -4.53161e-06 0 4.30615e-06 -4.72195e-06 0 4.93521e-06 -4.9385e-06 0 5.59711e-06 -5.18141e-06 0 6.2959e-06 -5.45074e-06 0 7.03574e-06 -5.74645e-06 0 7.82088e-06 -6.0683e-06 0 8.65566e-06 -6.41585e-06 0 9.54448e-06 -6.78838e-06 0 1.04918e-05 -7.18482e-06 0 1.1502e-05 -7.60366e-06 0 1.25795e-05 -8.04292e-06 0 1.37285e-05 -8.49999e-06 0 1.49531e-05 -8.97159e-06 0 1.6257e-05 -9.45361e-06 0 1.76435e-05 -9.94108e-06 0 1.91153e-05 -1.0428e-05 0 2.06742e-05 -1.09072e-05 0 2.23209e-05 -1.13706e-05 0 2.40552e-05 -1.18084e-05 0 2.58747e-05 -1.22101e-05 0 2.77756e-05 -1.25638e-05 0 2.97513e-05 -1.28565e-05 0 3.17929e-05 -1.30746e-05 0 3.38883e-05 -1.32042e-05 0 0 -4.40365e-06 0 4.74844e-07 -4.41783e-06 0 9.53081e-07 -4.46039e-06 0 1.43812e-06 -4.53145e-06 0 1.93341e-06 -4.63119e-06 0 2.44246e-06 -4.75983e-06 0 2.96884e-06 -4.91766e-06 0 3.5162e-06 -5.105e-06 0 4.08833e-06 -5.32216e-06 0 4.68911e-06 -5.56946e-06 0 5.32255e-06 -5.84716e-06 0 5.99282e-06 -6.15546e-06 0 6.70421e-06 -6.49441e-06 0 7.46118e-06 -6.86393e-06 0 8.26831e-06 -7.26366e-06 0 9.13034e-06 -7.69296e-06 0 1.00521e-05 -8.15084e-06 0 1.10385e-05 -8.6358e-06 0 1.20945e-05 -9.14582e-06 0 1.32251e-05 -9.67817e-06 0 1.44351e-05 -1.02294e-05 0 1.57291e-05 -1.0795e-05 0 1.71115e-05 -1.13696e-05 0 1.8586e-05 -1.19466e-05 0 2.01558e-05 -1.25178e-05 0 2.18231e-05 -1.30741e-05 0 2.35888e-05 -1.36043e-05 0 2.54521e-05 -1.4096e-05 0 2.74103e-05 -1.4535e-05 0 2.94581e-05 -1.49059e-05 0 3.15872e-05 -1.51918e-05 0 3.37858e-05 -1.53758e-05 0 0 -4.8632e-06 0 4.44803e-07 -4.87905e-06 0 8.92916e-07 -4.92665e-06 0 1.34767e-06 -5.00613e-06 0 1.81244e-06 -5.11773e-06 0 2.29067e-06 -5.26175e-06 0 2.78587e-06 -5.43855e-06 0 3.30169e-06 -5.64856e-06 0 3.84189e-06 -5.89222e-06 0 4.41037e-06 -6.16999e-06 0 5.0112e-06 -6.48229e-06 0 5.64864e-06 -6.82948e-06 0 6.32713e-06 -7.21179e-06 0 7.05133e-06 -7.62929e-06 0 7.82608e-06 -8.08182e-06 0 8.65648e-06 -8.5689e-06 0 9.54778e-06 -9.08968e-06 0 1.05054e-05 -9.64278e-06 0 1.1535e-05 -1.02262e-05 0 1.26423e-05 -1.08374e-05 0 1.3833e-05 -1.14725e-05 0 1.51128e-05 -1.21272e-05 0 1.64871e-05 -1.27956e-05 0 1.79613e-05 -1.34705e-05 0 1.95398e-05 -1.41432e-05 0 2.12267e-05 -1.48033e-05 0 2.30244e-05 -1.54385e-05 0 2.49341e-05 -1.60342e-05 0 2.69549e-05 -1.65742e-05 0 2.90831e-05 -1.704e-05 0 3.13115e-05 -1.74113e-05 0 3.3629e-05 -1.76671e-05 0 0 -5.29105e-06 0 4.11456e-07 -5.30853e-06 0 8.26117e-07 -5.36103e-06 0 1.24721e-06 -5.44871e-06 0 1.67802e-06 -5.57187e-06 0 2.12191e-06 -5.73088e-06 0 2.58232e-06 -5.92623e-06 0 3.06283e-06 -6.15846e-06 0 3.56719e-06 -6.42817e-06 0 4.0993e-06 -6.73599e-06 0 4.66328e-06 -7.08253e-06 0 5.26344e-06 -7.46835e-06 0 5.90438e-06 -7.89393e-06 0 6.59094e-06 -8.35957e-06 0 7.32826e-06 -8.86536e-06 0 8.12175e-06 -9.41107e-06 0 8.97712e-06 -9.99609e-06 0 9.90041e-06 -1.06193e-05 0 1.08979e-05 -1.12789e-05 0 1.19761e-05 -1.19723e-05 0 1.31418e-05 -1.2696e-05 0 1.44017e-05 -1.34455e-05 0 1.57629e-05 -1.42148e-05 0 1.7232e-05 -1.49964e-05 0 1.88154e-05 -1.57809e-05 0 2.0519e-05 -1.65572e-05 0 2.23476e-05 -1.73116e-05 0 2.43047e-05 -1.80279e-05 0 2.63917e-05 -1.86874e-05 0 2.86071e-05 -1.92684e-05 0 3.09459e-05 -1.97466e-05 0 3.3398e-05 -2.00962e-05 0 0 -5.68398e-06 0 3.74907e-07 -5.70302e-06 0 7.5289e-07 -5.76024e-06 0 1.13705e-06 -5.85583e-06 0 1.53056e-06 -5.99016e-06 0 1.93664e-06 -6.1637e-06 0 2.35868e-06 -6.37704e-06 0 2.80016e-06 -6.63089e-06 0 3.26478e-06 -6.92602e-06 0 3.75642e-06 -7.26326e-06 0 4.2792e-06 -7.64346e-06 0 4.83751e-06 -8.06744e-06 0 5.43606e-06 -8.53596e-06 0 6.07986e-06 -9.04964e-06 0 6.77431e-06 -9.6089e-06 0 7.52517e-06 -1.02139e-05 0 8.33861e-06 -1.08642e-05 0 9.22123e-06 -1.15593e-05 0 1.018e-05 -1.22975e-05 0 1.12224e-05 -1.30767e-05 0 1.23562e-05 -1.38936e-05 0 1.35895e-05 -1.47438e-05 0 1.49307e-05 -1.56214e-05 0 1.63883e-05 -1.65189e-05 0 1.79707e-05 -1.74266e-05 0 1.96861e-05 -1.83326e-05 0 2.1542e-05 -1.92224e-05 0 2.35449e-05 -2.00781e-05 0 2.56993e-05 -2.08786e-05 0 2.80069e-05 -2.1599e-05 0 3.04658e-05 -2.22107e-05 0 3.30685e-05 -2.2682e-05 0 0 -6.03882e-06 0 3.35288e-07 -6.05937e-06 0 6.73494e-07 -6.12109e-06 0 1.01757e-06 -6.22424e-06 0 1.37052e-06 -6.36926e-06 0 1.73546e-06 -6.55672e-06 0 2.11562e-06 -6.78736e-06 0 2.51439e-06 -7.06205e-06 0 2.93539e-06 -7.38176e-06 0 3.38243e-06 -7.74757e-06 0 3.85963e-06 -8.16059e-06 0 4.37141e-06 -8.62197e-06 0 4.92254e-06 -9.13281e-06 0 5.5182e-06 -9.6941e-06 0 6.16402e-06 -1.03067e-05 0 6.86608e-06 -1.09711e-05 0 7.631e-06 -1.16876e-05 0 8.46594e-06 -1.24559e-05 0 9.37865e-06 -1.3275e-05 0 1.03774e-05 -1.41431e-05 0 1.14712e-05 -1.50576e-05 0 1.26694e-05 -1.60144e-05 0 1.39821e-05 -1.70078e-05 0 1.54197e-05 -1.80307e-05 0 1.69928e-05 -1.90734e-05 0 1.87124e-05 -2.01238e-05 0 2.05892e-05 -2.11666e-05 0 2.26331e-05 -2.21828e-05 0 2.48529e-05 -2.31493e-05 0 2.72547e-05 -2.40379e-05 0 2.9841e-05 -2.48151e-05 0 3.26079e-05 -2.54426e-05 0 -2.64597e-21 -6.35261e-06 0 2.92757e-07 -6.37457e-06 0 5.88242e-07 -6.44053e-06 0 8.89219e-07 -6.55082e-06 0 1.19852e-06 -6.70594e-06 0 1.51908e-06 -6.90659e-06 0 1.85397e-06 -7.15365e-06 0 2.20645e-06 -7.44819e-06 0 2.58e-06 -7.79141e-06 0 2.97835e-06 -8.18466e-06 0 3.40555e-06 -8.62937e-06 0 3.86601e-06 -9.12703e-06 0 4.36456e-06 -9.67916e-06 0 4.90648e-06 -1.02872e-05 0 5.49757e-06 -1.09525e-05 0 6.14422e-06 -1.16762e-05 0 6.85346e-06 -1.24591e-05 0 7.633e-06 -1.33015e-05 0 8.49128e-06 -1.42032e-05 0 9.43755e-06 -1.51631e-05 0 1.04818e-05 -1.61791e-05 0 1.1635e-05 -1.72479e-05 0 1.29087e-05 -1.83645e-05 0 1.43155e-05 -1.95223e-05 0 1.58685e-05 -2.07121e-05 0 1.75816e-05 -2.1922e-05 0 1.9469e-05 -2.31366e-05 0 2.15451e-05 -2.43365e-05 0 2.38237e-05 -2.5497e-05 0 2.6317e-05 -2.65871e-05 0 2.90338e-05 -2.75688e-05 0 3.19776e-05 -2.83971e-05 0 -2.34545e-20 -6.62253e-06 0 2.47502e-07 -6.64579e-06 0 4.9751e-07 -6.71569e-06 0 7.52566e-07 -6.8326e-06 0 1.01529e-06 -6.99712e-06 0 1.28839e-06 -7.21006e-06 0 1.57477e-06 -7.47249e-06 0 1.87749e-06 -7.78567e-06 0 2.19985e-06 -8.15106e-06 0 2.54547e-06 -8.57031e-06 0 2.91827e-06 -9.04519e-06 0 3.32262e-06 -9.57762e-06 0 3.7633e-06 -1.01696e-05 0 4.24567e-06 -1.0823e-05 0 4.77566e-06 -1.154e-05 0 5.35989e-06 -1.23221e-05 0 6.00574e-06 -1.3171e-05 0 6.72143e-06 -1.40878e-05 0 7.51608e-06 -1.50731e-05 0 8.39979e-06 -1.61267e-05 0 9.38371e-06 -1.72475e-05 0 1.04801e-05 -1.84332e-05 0 1.17024e-05 -1.96797e-05 0 1.30651e-05 -2.09814e-05 0 1.45841e-05 -2.23301e-05 0 1.62763e-05 -2.37147e-05 0 1.816e-05 -2.51206e-05 0 2.02544e-05 -2.65286e-05 0 2.25794e-05 -2.79138e-05 0 2.51549e-05 -2.92434e-05 0 2.79986e-05 -3.04757e-05 0 3.11227e-05 -3.15567e-05 0 -4.31936e-21 -6.84595e-06 0 1.99748e-07 -6.8704e-06 0 4.01742e-07 -6.94389e-06 0 6.08268e-07 -7.06682e-06 0 8.21687e-07 -7.2399e-06 0 1.04448e-06 -7.46409e-06 0 1.27927e-06 -7.74062e-06 0 1.52892e-06 -8.07097e-06 0 1.79651e-06 -8.45689e-06 0 2.08546e-06 -8.90033e-06 0 2.39954e-06 -9.40348e-06 0 2.74297e-06 -9.96869e-06 0 3.12047e-06 -1.05985e-05 0 3.53736e-06 -1.12954e-05 0 3.99964e-06 -1.20621e-05 0 4.51408e-06 -1.29011e-05 0 5.08835e-06 -1.38149e-05 0 5.73107e-06 -1.48055e-05 0 6.45198e-06 -1.58745e-05 0 7.26199e-06 -1.70229e-05 0 8.17332e-06 -1.82509e-05 0 9.19957e-06 -1.95572e-05 0 1.03558e-05 -2.09394e-05 0 1.16587e-05 -2.23931e-05 0 1.31267e-05 -2.39116e-05 0 1.47798e-05 -2.54854e-05 0 1.66405e-05 -2.71015e-05 0 1.8733e-05 -2.87425e-05 0 2.10844e-05 -3.03844e-05 0 2.37236e-05 -3.19954e-05 0 2.66804e-05 -3.3531e-05 0 2.99848e-05 -3.49359e-05 0 0 -7.02053e-06 0 1.49753e-07 -7.04602e-06 0 3.01456e-07 -7.12267e-06 0 4.57097e-07 -7.25094e-06 0 6.18745e-07 -7.43163e-06 0 7.88584e-07 -7.66583e-06 0 9.68968e-07 -7.95496e-06 0 1.16246e-06 -8.30075e-06 0 1.37188e-06 -8.70522e-06 0 1.6004e-06 -9.17068e-06 0 1.85155e-06 -9.69972e-06 0 2.12935e-06 -1.02952e-05 0 2.43836e-06 -1.09602e-05 0 2.78379e-06 -1.1698e-05 0 3.1716e-06 -1.25119e-05 0 3.60862e-06 -1.34054e-05 0 4.10269e-06 -1.43819e-05 0 4.66274e-06 -1.54446e-05 0 5.299e-06 -1.65963e-05 0 6.02311e-06 -1.78395e-05 0 6.84825e-06 -1.91756e-05 0 7.78928e-06 -2.06051e-05 0 8.86287e-06 -2.21273e-05 0 1.00877e-05 -2.37395e-05 0 1.14844e-05 -2.54371e-05 0 1.30763e-05 -2.7213e-05 0 1.48894e-05 -2.90567e-05 0 1.69532e-05 -3.09539e-05 0 1.93018e-05 -3.28844e-05 0 2.19744e-05 -3.48195e-05 0 2.50156e-05 -3.67181e-05 0 2.84704e-05 -3.85146e-05 0 0 -7.14416e-06 0 9.78143e-08 -7.17055e-06 0 1.97243e-07 -7.24988e-06 0 2.99941e-07 -7.3827e-06 0 4.07638e-07 -7.56988e-06 0 5.22186e-07 -7.81268e-06 0 6.45601e-07 -8.1127e-06 0 7.80115e-07 -8.4719e-06 0 9.2823e-07 -8.8926e-06 0 1.09278e-06 -9.37748e-06 0 1.277e-06 -9.92957e-06 0 1.48462e-06 -1.05522e-05 0 1.71995e-06 -1.12492e-05 0 1.98798e-06 -1.20244e-05 0 2.29452e-06 -1.28821e-05 0 2.64632e-06 -1.38267e-05 0 3.05124e-06 -1.48626e-05 0 3.51842e-06 -1.59945e-05 0 4.05844e-06 -1.72266e-05 0 4.68349e-06 -1.85629e-05 0 5.4076e-06 -2.00066e-05 0 6.24676e-06 -2.15601e-05 0 7.21909e-06 -2.32247e-05 0 8.34502e-06 -2.50001e-05 0 9.64744e-06 -2.68839e-05 0 1.11521e-05 -2.8872e-05 0 1.28883e-05 -3.09575e-05 0 1.48896e-05 -3.31307e-05 0 1.71963e-05 -3.53776e-05 0 1.98572e-05 -3.76776e-05 0 2.29331e-05 -3.99969e-05 0 2.65046e-05 -4.22949e-05 0 -5.76145e-21 -7.21509e-06 0 4.42675e-08 -7.24218e-06 0 8.97763e-08 -7.32367e-06 0 1.37805e-07 -7.46015e-06 0 1.89707e-07 -7.65259e-06 0 2.46955e-07 -7.90238e-06 0 3.11181e-07 -8.21132e-06 0 3.84229e-07 -8.5816e-06 0 4.68209e-07 -9.01586e-06 0 5.65567e-07 -9.51713e-06 0 6.79151e-07 -1.00889e-05 0 8.12307e-07 -1.07351e-05 0 9.68978e-07 -1.146e-05 0 1.15382e-06 -1.22684e-05 0 1.37235e-06 -1.31654e-05 0 1.6311e-06 -1.41565e-05 0 1.93779e-06 -1.52475e-05 0 2.30155e-06 -1.64442e-05 0 2.73314e-06 -1.77527e-05 0 3.24514e-06 -1.91787e-05 0 3.85226e-06 -2.07275e-05 0 4.57144e-06 -2.24038e-05 0 5.42213e-06 -2.42112e-05 0 6.42633e-06 -2.61517e-05 0 7.60881e-06 -2.82261e-05 0 8.99726e-06 -3.04331e-05 0 1.0623e-05 -3.277e-05 0 1.25222e-05 -3.52328e-05 0 1.47384e-05 -3.78161e-05 0 1.73276e-05 -4.05117e-05 0 2.03643e-05 -4.33066e-05 0 2.39383e-05 -4.61453e-05 0 -2.52561e-20 -7.23188e-06 0 -1.05142e-08 -7.25949e-06 0 -2.0198e-08 -7.34255e-06 0 -2.8186e-08 -7.48169e-06 0 -3.35415e-08 -7.678e-06 0 -3.5218e-08 -7.933e-06 0 -3.2016e-08 -8.24866e-06 0 -2.25352e-08 -8.62741e-06 0 -5.1189e-09 -9.07218e-06 0 2.22107e-08 -9.58636e-06 0 6.18287e-08 -1.01739e-05 0 1.16598e-07 -1.08392e-05 0 1.89977e-07 -1.15873e-05 0 2.8615e-07 -1.24238e-05 0 4.10177e-07 -1.33546e-05 0 5.68177e-07 -1.43865e-05 0 7.67541e-07 -1.55265e-05 0 1.01717e-06 -1.67821e-05 0 1.32776e-06 -1.81612e-05 0 1.71208e-06 -1.96715e-05 0 2.18526e-06 -2.13208e-05 0 2.76507e-06 -2.31162e-05 0 3.47211e-06 -2.50641e-05 0 4.32989e-06 -2.71694e-05 0 5.36476e-06 -2.94354e-05 0 6.60594e-06 -3.18641e-05 0 8.08549e-06 -3.44564e-05 0 9.83951e-06 -3.72141e-05 0 1.19109e-05 -4.0141e-05 0 1.43551e-05 -4.32463e-05 0 1.72512e-05 -4.65387e-05 0 2.074e-05 -5.00765e-05 0 -2.14522e-21 -7.19351e-06 0 -6.61205e-08 -7.22142e-06 0 -1.31856e-07 -7.3054e-06 0 -1.96791e-07 -7.44614e-06 0 -2.60444e-07 -7.64481e-06 0 -3.22236e-07 -7.90304e-06 0 -3.81449e-07 -8.22298e-06 0 -4.37181e-07 -8.60729e-06 0 -4.88294e-07 -9.05916e-06 0 -5.33352e-07 -9.58234e-06 0 -5.70545e-07 -1.01812e-05 0 -5.976e-07 -1.08607e-05 0 -6.1167e-07 -1.16265e-05 0 -6.092e-07 -1.24849e-05 0 -5.85762e-07 -1.34429e-05 0 -5.35858e-07 -1.45085e-05 0 -4.52677e-07 -1.569e-05 0 -3.27815e-07 -1.69967e-05 0 -1.50933e-07 -1.84384e-05 0 9.05989e-08 -2.00253e-05 0 4.12112e-07 -2.17678e-05 0 8.31959e-07 -2.3676e-05 0 1.37185e-06 -2.57594e-05 0 2.05677e-06 -2.80259e-05 0 2.91494e-06 -3.04818e-05 0 3.97679e-06 -3.31314e-05 0 5.27462e-06 -3.5978e-05 0 6.84163e-06 -3.90266e-05 0 8.71402e-06 -4.2289e-05 0 1.09369e-05 -4.57892e-05 0 1.3579e-05 -4.95798e-05 0 1.67209e-05 -5.36321e-05 0 0 -7.09938e-06 0 -1.22106e-07 -7.12736e-06 0 -2.44305e-07 -7.21158e-06 0 -3.6666e-07 -7.35275e-06 0 -4.89184e-07 -7.55212e-06 0 -6.11803e-07 -7.81146e-06 0 -7.34324e-07 -8.13303e-06 0 -8.56397e-07 -8.51971e-06 0 -9.77463e-07 -8.97493e-06 0 -1.0967e-06 -9.50276e-06 0 -1.21296e-06 -1.01079e-05 0 -1.32467e-06 -1.0796e-05 0 -1.42971e-06 -1.15731e-05 0 -1.52534e-06 -1.24464e-05 0 -1.60795e-06 -1.34239e-05 0 -1.6729e-06 -1.45146e-05 0 -1.71426e-06 -1.57284e-05 0 -1.72444e-06 -1.70763e-05 0 -1.69384e-06 -1.85704e-05 0 -1.61034e-06 -2.02234e-05 0 -1.45883e-06 -2.20489e-05 0 -1.22059e-06 -2.40605e-05 0 -8.72972e-07 -2.62712e-05 0 -3.89062e-07 -2.86928e-05 0 2.61546e-07 -3.13343e-05 0 1.11199e-06 -3.4202e-05 0 2.19475e-06 -3.72984e-05 0 3.5397e-06 -4.06279e-05 0 5.17049e-06 -4.42015e-05 0 7.10828e-06 -4.80541e-05 0 9.38161e-06 -5.22483e-05 0 1.21194e-05 -5.71041e-05 0 0 -6.94935e-06 0 -1.77996e-07 -6.97717e-06 0 -3.56587e-07 -7.06087e-06 0 -5.36348e-07 -7.20124e-06 0 -7.17811e-07 -7.39957e-06 0 -9.01442e-07 -7.65772e-06 0 -1.08761e-06 -7.97809e-06 0 -1.27657e-06 -8.36369e-06 0 -1.4684e-06 -8.8182e-06 0 -1.66297e-06 -9.34593e-06 0 -1.85985e-06 -9.952e-06 0 -2.05828e-06 -1.06423e-05 0 -2.25704e-06 -1.14237e-05 0 -2.45432e-06 -1.23039e-05 0 -2.64757e-06 -1.32919e-05 0 -2.83327e-06 -1.43977e-05 0 -3.00667e-06 -1.56328e-05 0 -3.16143e-06 -1.70099e-05 0 -3.28912e-06 -1.85435e-05 0 -3.37871e-06 -2.02491e-05 0 -3.41579e-06 -2.21439e-05 0 -3.38186e-06 -2.42454e-05 0 -3.25333e-06 -2.65718e-05 0 -3.00135e-06 -2.9139e-05 0 -2.5914e-06 -3.19606e-05 0 -1.98608e-06 -3.50432e-05 0 -1.14793e-06 -3.83877e-05 0 -4.91329e-08 -4.19878e-05 0 1.32116e-06 -4.58429e-05 0 2.94761e-06 -4.99738e-05 0 4.79962e-06 -5.44838e-05 0 6.76152e-06 -5.91933e-05 0 0 -6.74378e-06 0 -2.33288e-07 -6.77116e-06 0 -4.67693e-07 -6.85359e-06 0 -7.04323e-07 -6.99186e-06 0 -9.44253e-07 -7.18731e-06 0 -1.18852e-06 -7.44185e-06 0 -1.43809e-06 -7.75801e-06 0 -1.69385e-06 -8.1389e-06 0 -1.95657e-06 -8.58835e-06 0 -2.22685e-06 -9.11092e-06 0 -2.50511e-06 -9.71197e-06 0 -2.79147e-06 -1.03978e-05 0 -3.08572e-06 -1.11756e-05 0 -3.38718e-06 -1.20539e-05 0 -3.69454e-06 -1.30422e-05 0 -4.00568e-06 -1.41518e-05 0 -4.3174e-06 -1.53954e-05 0 -4.62503e-06 -1.67875e-05 0 -4.92195e-06 -1.83447e-05 0 -5.19887e-06 -2.00859e-05 0 -5.443e-06 -2.20319e-05 0 -5.63669e-06 -2.42056e-05 0 -5.75639e-06 -2.66305e-05 0 -5.77066e-06 -2.93305e-05 0 -5.64021e-06 -3.23238e-05 0 -5.3177e-06 -3.56222e-05 0 -4.75503e-06 -3.92204e-05 0 -3.91346e-06 -4.30976e-05 0 -2.78844e-06 -4.72162e-05 0 -1.43356e-06 -5.15547e-05 0 1.78054e-08 -5.6124e-05 0 1.5088e-06 -6.17926e-05 0 0 -6.48352e-06 0 -2.87459e-07 -6.51021e-06 0 -5.76572e-07 -6.59056e-06 0 -8.6899e-07 -6.72538e-06 0 -1.16635e-06 -6.91604e-06 0 -1.47028e-06 -7.16449e-06 0 -1.78236e-06 -7.4733e-06 0 -2.10414e-06 -7.84567e-06 0 -2.43713e-06 -8.28553e-06 0 -2.78272e-06 -8.79757e-06 0 -3.1422e-06 -9.38736e-06 0 -3.5167e-06 -1.00614e-05 0 -3.9071e-06 -1.08273e-05 0 -4.31401e-06 -1.1694e-05 0 -4.73755e-06 -1.26716e-05 0 -5.17728e-06 -1.37723e-05 0 -5.6319e-06 -1.50098e-05 0 -6.09893e-06 -1.64002e-05 0 -6.57418e-06 -1.79625e-05 0 -7.0511e-06 -1.97181e-05 0 -7.51953e-06 -2.16926e-05 0 -7.9644e-06 -2.3914e-05 0 -8.36322e-06 -2.64145e-05 0 -8.68372e-06 -2.9226e-05 0 -8.88003e-06 -3.23808e-05 0 -8.89174e-06 -3.58965e-05 0 -8.64556e-06 -3.97735e-05 0 -8.07173e-06 -4.39653e-05 0 -7.14158e-06 -4.83805e-05 0 -5.92666e-06 -5.28936e-05 0 -4.66526e-06 -5.748e-05 0 -3.90039e-06 -6.09744e-05 0 0 -6.16996e-06 0 -3.39974e-07 -6.19569e-06 0 -6.82144e-07 -6.27315e-06 0 -1.02871e-06 -6.40316e-06 0 -1.38188e-06 -6.58708e-06 0 -1.74387e-06 -6.82689e-06 0 -2.11691e-06 -7.12514e-06 0 -2.50323e-06 -7.48509e-06 0 -2.90507e-06 -7.91067e-06 0 -3.32467e-06 -8.40665e-06 0 -3.76424e-06 -8.97866e-06 0 -4.22596e-06 -9.63336e-06 0 -4.71192e-06 -1.03785e-05 0 -5.22409e-06 -1.12233e-05 0 -5.76424e-06 -1.21784e-05 0 -6.33379e-06 -1.32563e-05 0 -6.93372e-06 -1.44715e-05 0 -7.56419e-06 -1.58418e-05 0 -8.22422e-06 -1.73871e-05 0 -8.91094e-06 -1.91325e-05 0 -9.61851e-06 -2.11064e-05 0 -1.03364e-05 -2.33444e-05 0 -1.10463e-05 -2.58857e-05 0 -1.17181e-05 -2.87791e-05 0 -1.23024e-05 -3.20701e-05 0 -1.27235e-05 -3.58065e-05 0 -1.28692e-05 -3.99987e-05 0 -1.26052e-05 -4.46045e-05 0 -1.18043e-05 -4.94571e-05 0 -1.04991e-05 -5.42401e-05 0 -9.00535e-06 -5.85292e-05 0 -8.03734e-06 -6.45565e-05 0 0 -5.80503e-06 0 -3.90294e-07 -5.82952e-06 0 -7.83322e-07 -5.90328e-06 0 -1.18183e-06 -6.02711e-06 0 -1.58859e-06 -6.20235e-06 0 -2.00642e-06 -6.43095e-06 0 -2.43818e-06 -6.71543e-06 0 -2.88679e-06 -7.05899e-06 0 -3.35525e-06 -7.46556e-06 0 -3.84664e-06 -7.93985e-06 0 -4.36413e-06 -8.48748e-06 0 -4.91096e-06 -9.11506e-06 0 -5.4905e-06 -9.83043e-06 0 -6.10616e-06 -1.06427e-05 0 -6.76143e-06 -1.15627e-05 0 -7.45982e-06 -1.26032e-05 0 -8.2048e-06 -1.37792e-05 0 -8.9996e-06 -1.51084e-05 0 -9.84711e-06 -1.66131e-05 0 -1.07491e-05 -1.83186e-05 0 -1.17061e-05 -2.02584e-05 0 -1.27142e-05 -2.24706e-05 0 -1.37649e-05 -2.50084e-05 0 -1.48349e-05 -2.79293e-05 0 -1.58835e-05 -3.13161e-05 0 -1.68218e-05 -3.52437e-05 0 -1.75099e-05 -3.97972e-05 0 -1.76837e-05 -4.49693e-05 0 -1.70469e-05 -5.05691e-05 0 -1.53032e-05 -5.60653e-05 0 -1.28568e-05 -6.05835e-05 0 -1.06067e-05 -5.91162e-05 0 0 -5.39118e-06 0 -4.37882e-07 -5.41418e-06 0 -8.79023e-07 -5.48344e-06 0 -1.3267e-06 -5.59974e-06 0 -1.78425e-06 -5.76438e-06 0 -2.25505e-06 -5.97922e-06 0 -2.74261e-06 -6.24674e-06 0 -3.25051e-06 -6.57003e-06 0 -3.78252e-06 -6.95288e-06 0 -4.34254e-06 -7.3999e-06 0 -4.93468e-06 -7.91652e-06 0 -5.56329e-06 -8.50924e-06 0 -6.23297e-06 -9.18563e-06 0 -6.94862e-06 -9.95473e-06 0 -7.7155e-06 -1.0827e-05 0 -8.53926e-06 -1.18152e-05 0 -9.42595e-06 -1.29337e-05 0 -1.03823e-05 -1.42012e-05 0 -1.1415e-05 -1.56382e-05 0 -1.25323e-05 -1.72732e-05 0 -1.37407e-05 -1.91371e-05 0 -1.5049e-05 -2.12774e-05 0 -1.64582e-05 -2.37442e-05 0 -1.79712e-05 -2.66243e-05 0 -1.95559e-05 -3.00086e-05 0 -2.11691e-05 -3.4059e-05 0 -2.26202e-05 -3.89358e-05 0 -2.36253e-05 -4.48394e-05 0 -2.34041e-05 -5.17633e-05 0 -2.11522e-05 -5.88994e-05 0 -1.6088e-05 -6.40964e-05 0 -1.22715e-05 -7.22766e-05 0 0 -4.93142e-06 0 -4.82217e-07 -4.95267e-06 0 -9.68193e-07 -5.01666e-06 0 -1.46172e-06 -5.12411e-06 0 -1.96666e-06 -5.27629e-06 0 -2.48696e-06 -5.47494e-06 0 -3.02671e-06 -5.7224e-06 0 -3.59017e-06 -6.02162e-06 0 -4.18181e-06 -6.3762e-06 0 -4.80634e-06 -6.79049e-06 0 -5.46881e-06 -7.26969e-06 0 -6.17459e-06 -7.81992e-06 0 -6.92952e-06 -8.44847e-06 0 -7.73992e-06 -9.16375e-06 0 -8.61279e-06 -9.97603e-06 0 -9.55578e-06 -1.08968e-05 0 -1.05777e-05 -1.19408e-05 0 -1.16882e-05 -1.31239e-05 0 -1.28992e-05 -1.44686e-05 0 -1.42228e-05 -1.59971e-05 0 -1.56776e-05 -1.77471e-05 0 -1.72771e-05 -1.97524e-05 0 -1.90536e-05 -2.20838e-05 0 -2.1014e-05 -2.48042e-05 0 -2.32136e-05 -2.80649e-05 0 -2.55995e-05 -3.20256e-05 0 -2.82067e-05 -3.70445e-05 0 -3.05777e-05 -4.36026e-05 0 -3.20596e-05 -5.2329e-05 0 -2.98023e-05 -6.35935e-05 0 -2.10625e-05 -7.3503e-05 0 -2.07398e-06 -5.98244e-05 0 0 -4.42925e-06 0 -5.22796e-07 -4.4485e-06 0 -1.04982e-06 -4.50648e-06 0 -1.58535e-06 -4.60387e-06 0 -2.13373e-06 -4.74181e-06 0 -2.69944e-06 -4.92194e-06 0 -3.28714e-06 -5.14643e-06 0 -3.90169e-06 -5.41798e-06 0 -4.54825e-06 -5.73995e-06 0 -5.23229e-06 -6.11636e-06 0 -5.95969e-06 -6.55199e-06 0 -6.73685e-06 -7.05257e-06 0 -7.57068e-06 -7.62468e-06 0 -8.46893e-06 -8.27636e-06 0 -9.43999e-06 -9.01647e-06 0 -1.04938e-05 -9.85645e-06 0 -1.16407e-05 -1.0808e-05 0 -1.2895e-05 -1.18883e-05 0 -1.42691e-05 -1.31123e-05 0 -1.57871e-05 -1.45077e-05 0 -1.74621e-05 -1.60939e-05 0 -1.9344e-05 -1.7921e-05 0 -2.14376e-05 -2.00177e-05 0 -2.38652e-05 -2.24875e-05 0 -2.65882e-05 -2.54e-05 0 -2.99308e-05 -2.90102e-05 0 -3.36825e-05 -3.3628e-05 0 -3.85986e-05 -4.01003e-05 0 -4.34343e-05 -5.02692e-05 0 -4.68647e-05 -6.74282e-05 0 -3.21757e-05 -9.38004e-05 0 -4.7037e-06 -0.000117276 0 0 -3.88864e-06 0 -5.59153e-07 -3.90567e-06 0 -1.12296e-06 -3.95697e-06 0 -1.69614e-06 -4.04314e-06 0 -2.28349e-06 -4.16523e-06 0 -2.88998e-06 -4.32469e-06 0 -3.52076e-06 -4.52348e-06 0 -4.18127e-06 -4.76404e-06 0 -4.87727e-06 -5.04939e-06 0 -5.61493e-06 -5.38312e-06 0 -6.40094e-06 -5.76956e-06 0 -7.24249e-06 -6.21377e-06 0 -8.14768e-06 -6.72176e-06 0 -9.12504e-06 -7.30043e-06 0 -1.01852e-05 -7.95802e-06 0 -1.13378e-05 -8.70379e-06 0 -1.25993e-05 -9.54907e-06 0 -1.39775e-05 -1.05062e-05 0 -1.55056e-05 -1.15909e-05 0 -1.71765e-05 -1.282e-05 0 -1.90774e-05 -1.42156e-05 0 -2.11342e-05 -1.5803e-05 0 -2.36162e-05 -1.76151e-05 0 -2.61982e-05 -1.96982e-05 0 -2.97599e-05 -2.21189e-05 0 -3.31339e-05 -2.4982e-05 0 -3.9205e-05 -2.8569e-05 0 -4.43449e-05 -3.32257e-05 0 -5.80228e-05 -4.12953e-05 0 -7.17365e-05 -5.78219e-05 0 -0.000102074 -0.00012639 0 0.000145278 -0.000245029 0 0 -3.31403e-06 0 -5.90862e-07 -3.32864e-06 0 -1.18677e-06 -3.37265e-06 0 -1.7928e-06 -3.44658e-06 0 -2.41418e-06 -3.55134e-06 0 -3.05627e-06 -3.68819e-06 0 -3.72473e-06 -3.85888e-06 0 -4.42544e-06 -4.06539e-06 0 -5.16474e-06 -4.31062e-06 0 -5.94943e-06 -4.59716e-06 0 -6.78666e-06 -4.92976e-06 0 -7.68509e-06 -5.31088e-06 0 -8.65179e-06 -5.74927e-06 0 -9.70089e-06 -6.24411e-06 0 -1.08335e-05 -6.81477e-06 0 -1.2084e-05 -7.44621e-06 0 -1.34196e-05 -8.18889e-06 0 -1.4956e-05 -8.9787e-06 0 -1.65096e-05 -9.95792e-06 0 -1.85178e-05 -1.09113e-05 0 -2.01865e-05 -1.22394e-05 0 -2.31863e-05 -1.33124e-05 0 -2.43956e-05 -1.51736e-05 0 -3.0036e-05 -1.62598e-05 0 -2.85261e-05 -1.87761e-05 0 -4.22331e-05 -2.00748e-05 0 -3.02383e-05 -2.19356e-05 0 -6.98358e-05 -2.68691e-05 0 -2.49112e-05 -1.52271e-05 0 -0.000147189 -5.49149e-05 0 -0.00017283 0.000184735 0 -0.000816143 -0.00164267 0 </DataArray> 
</PointData> 
<Points> 
<DataArray type="Float32" NumberOfComponents="3"> 