<?xml version="1.0"?> 
<VTKFile type="StructuredGrid" version="0.1"> 
<StructuredGrid WholeExtent="0 31 0 31 0 0"> 
<Piece Extent="0 31 0 31 0 0"> 
<PointData>
<DataArray type="Float32" Name="B" format="ascii" NumberOfComponents="3"> 
0 3.12481e-06 0 -5.69282e-07 3.13544e-06 0 -1.14287e-06 3.1673e-06 0 -1.72507e-06 3.22029e-06 0 -2.32033e-06 3.29426e-06 0 -2.93313e-06 3.38883e-06 0 -3.56821e-06 3.50349e-06 0 -4.23043e-06 3.63715e-06 0 -4.92502e-06 3.7886e-06 0 -5.65764e-06 3.95488e-06 0 -6.43418e-06 4.13363e-06 0 -7.26235e-06 4.31724e-06 0 -8.14801e-06 4.50219e-06 0 -9.10596e-06 4.66889e-06 0 -1.01362e-05 4.81572e-06 0 -1.1281e-05 4.89081e-06 0 -1.25047e-05 4.90969e-06 0 -1.39584e-05 4.7313e-06 0 -1.54407e-05 4.4438e-06 0 -1.75254e-05 3.66099e-06 0 -1.93204e-05 2.71099e-06 0 -2.29986e-05 5.69821e-07 0 -2.49857e-05 -1.7978e-06 0 -3.33098e-05 -6.84398e-06 0 -3.45682e-05 -1.25314e-05 0 -5.752e-05 -2.32154e-05 0 -5.48544e-05 -3.86129e-05 0 -0.000126664 -5.75376e-05 0 -0.000120656 -0.000112624 0 -0.000384507 -0.000120684 0 -0.000823175 -0.000540579 0 -0.00410979 0.00231567 0 -9.26529e-21 3.68203e-06 0 -5.45878e-07 3.69482e-06 0 -1.09609e-06 3.73316e-06 0 -1.65501e-06 3.79705e-06 0 -2.22715e-06 3.88643e-06 0 -2.81719e-06 4.00113e-06 0 -3.43009e-06 4.14084e-06 0 -4.07117e-06 4.30496e-06 0 -4.74624e-06 4.49243e-06 0 -5.46182e-06 4.70156e-06 0 -6.22541e-06 4.92968e-06 0 -7.04575e-06 5.17271e-06 0 -7.93371e-06 5.42463e-06 0 -8.90231e-06 5.67658e-06 0 -9.9699e-06 5.91585e-06 0 -1.11579e-05 6.12437e-06 0 -1.25029e-05 6.27638e-06 0 -1.40424e-05 6.33684e-06 0 -1.58616e-05 6.25499e-06 0 -1.80272e-05 5.96685e-06 0 -2.07616e-05 5.37548e-06 0 -2.41787e-05 4.37588e-06 0 -2.89066e-05 2.79721e-06 0 -3.51261e-05 5.07336e-07 0 -4.47005e-05 -2.69801e-06 0 -5.79886e-05 -6.8098e-06 0 -8.07685e-05 -1.12715e-05 0 -0.000114921 -1.45223e-05 0 -0.000179771 -6.56443e-06 0 -0.000289063 3.88861e-05 0 -0.000461252 0.00028771 0 0.000146772 0.000828568 0 -8.73382e-21 4.21369e-06 0 -5.18151e-07 4.22863e-06 0 -1.04061e-06 4.27348e-06 0 -1.57175e-06 4.34831e-06 0 -2.11611e-06 4.45324e-06 0 -2.67845e-06 4.58837e-06 0 -3.26388e-06 4.75374e-06 0 -3.87799e-06 4.94925e-06 0 -4.52705e-06 5.17454e-06 0 -5.21824e-06 5.42886e-06 0 -5.95995e-06 5.71082e-06 0 -6.76237e-06 6.01823e-06 0 -7.63806e-06 6.34756e-06 0 -8.60312e-06 6.69388e-06 0 -9.67838e-06 7.04959e-06 0 -1.08923e-05 7.40519e-06 0 -1.22828e-05 7.7462e-06 0 -1.39054e-05 8.05677e-06 0 -1.58345e-05 8.31284e-06 0 -1.81875e-05 8.49457e-06 0 -2.11195e-05 8.57262e-06 0 -2.4894e-05 8.54653e-06 0 -2.98505e-05 8.42614e-06 0 -3.66041e-05 8.34688e-06 0 -4.59321e-05 8.594e-06 0 -5.92704e-05 9.99415e-06 0 -7.83945e-05 1.43058e-05 0 -0.000106033 2.59952e-05 0 -0.000143907 5.48182e-05 0 -0.000183535 0.000122882 0 -0.000172949 0.000247422 0 -7.22609e-05 0.000444541 0 0 4.71548e-06 0 -4.86129e-07 4.73254e-06 0 -9.76471e-07 4.78381e-06 0 -1.47532e-06 4.86947e-06 0 -1.98715e-06 4.98984e-06 0 -2.51669e-06 5.14535e-06 0 -3.06908e-06 5.33646e-06 0 -3.65002e-06 5.56369e-06 0 -4.26596e-06 5.82753e-06 0 -4.92439e-06 6.12834e-06 0 -5.6342e-06 6.46635e-06 0 -6.40623e-06 6.84146e-06 0 -7.25398e-06 7.25331e-06 0 -8.19462e-06 7.70097e-06 0 -9.25055e-06 8.18344e-06 0 -1.04513e-05 8.69899e-06 0 -1.18371e-05 9.2473e-06 0 -1.34621e-05 9.82823e-06 0 -1.54025e-05 1.04489e-05 0 -1.77622e-05 1.1122e-05 0 -2.06913e-05 1.18873e-05 0 -2.43923e-05 1.28133e-05 0 -2.91615e-05 1.40602e-05 0 -3.5381e-05 1.59055e-05 0 -4.35896e-05 1.89295e-05 0 -5.4368e-05 2.41567e-05 0 -6.82662e-05 3.3597e-05 0 -8.49468e-05 5.06615e-05 0 -0.000101253 8.10148e-05 0 -0.000106711 0.000129731 0 -8.08383e-05 0.00019423 0 3.10441e-06 0.000180857 0 -2.0439e-22 5.18316e-06 0 -4.49909e-07 5.20228e-06 0 -9.03854e-07 5.25976e-06 0 -1.36596e-06 5.35593e-06 0 -1.84053e-06 5.49133e-06 0 -2.33216e-06 5.66672e-06 0 -2.84586e-06 5.88306e-06 0 -3.38722e-06 6.14153e-06 0 -3.96261e-06 6.4435e-06 0 -4.57947e-06 6.7906e-06 0 -5.24666e-06 7.18468e-06 0 -5.97498e-06 7.62794e-06 0 -6.7778e-06 8.12305e-06 0 -7.67204e-06 8.67348e-06 0 -8.67937e-06 9.28381e-06 0 -9.82802e-06 9.96102e-06 0 -1.11549e-05 1.07152e-05 0 -1.27093e-05 1.15636e-05 0 -1.45557e-05 1.25324e-05 0 -1.6781e-05 1.36685e-05 0 -1.94973e-05 1.50453e-05 0 -2.28522e-05 1.67932e-05 0 -2.70228e-05 1.91203e-05 0 -3.222e-05 2.23878e-05 0 -3.86236e-05 2.71688e-05 0 -4.63096e-05 3.4416e-05 0 -5.49013e-05 4.5528e-05 0 -6.30942e-05 6.2492e-05 0 -6.74673e-05 8.70043e-05 0 -6.19127e-05 0.000119005 0 -3.90413e-05 0.000149128 0 -4.27911e-06 0.000197285 0 -1.68899e-20 5.61262e-06 0 -4.09666e-07 5.63369e-06 0 -8.23106e-07 5.69707e-06 0 -1.24418e-06 5.8032e-06 0 -1.67692e-06 5.95286e-06 0 -2.12566e-06 6.14717e-06 0 -2.59511e-06 6.38756e-06 0 -3.09055e-06 6.67588e-06 0 -3.61801e-06 7.0144e-06 0 -4.18452e-06 7.40593e-06 0 -4.79842e-06 7.85391e-06 0 -5.46979e-06 8.36267e-06 0 -6.21099e-06 8.93774e-06 0 -7.03741e-06 9.58629e-06 0 -7.96837e-06 1.03181e-05 0 -9.02829e-06 1.11467e-05 0 -1.02482e-05 1.20914e-05 0 -1.16674e-05 1.31802e-05 0 -1.33354e-05 1.44554e-05 0 -1.5313e-05 1.59797e-05 0 -1.76732e-05 1.785e-05 0 -2.0497e-05 2.02108e-05 0 -2.38642e-05 2.32857e-05 0 -2.78224e-05 2.7402e-05 0 -3.23374e-05 3.30453e-05 0 -3.71612e-05 4.08706e-05 0 -4.16606e-05 5.17096e-05 0 -4.44655e-05 6.63007e-05 0 -4.33076e-05 8.48612e-05 0 -3.51417e-05 0.000105611 0 -1.80754e-05 0.000125786 0 7.36617e-06 0.000121556 0 -9.24222e-21 5.99999e-06 0 -3.65663e-07 6.02286e-06 0 -7.34754e-07 6.09166e-06 0 -1.11078e-06 6.20698e-06 0 -1.4974e-06 6.36982e-06 0 -1.89854e-06 6.58159e-06 0 -2.31849e-06 6.84421e-06 0 -2.76203e-06 7.16012e-06 0 -3.23459e-06 7.53241e-06 0 -3.74248e-06 7.96494e-06 0 -4.29309e-06 8.46256e-06 0 -4.89526e-06 9.0314e-06 0 -5.55962e-06 9.6793e-06 0 -6.2991e-06 1.04165e-05 0 -7.12947e-06 1.12566e-05 0 -8.06995e-06 1.22178e-05 0 -9.14382e-06 1.33254e-05 0 -1.03789e-05 1.46143e-05 0 -1.18072e-05 1.61339e-05 0 -1.34643e-05 1.79544e-05 0 -1.53849e-05 2.01745e-05 0 -1.75958e-05 2.29353e-05 0 -2.00987e-05 2.64308e-05 0 -2.28426e-05 3.09266e-05 0 -2.56688e-05 3.67605e-05 0 -2.82394e-05 4.43326e-05 0 -2.99155e-05 5.40099e-05 0 -2.96973e-05 6.5969e-05 0 -2.61963e-05 7.9765e-05 0 -1.81262e-05 9.41768e-05 0 -4.92963e-06 0.000105962 0 1.21831e-05 0.000122189 0 0 6.34168e-06 0 -3.18247e-07 6.36615e-06 0 -6.39496e-07 6.43981e-06 0 -9.66814e-07 6.56333e-06 0 -1.30341e-06 6.73791e-06 0 -1.65269e-06 6.96526e-06 0 -2.01839e-06 7.24767e-06 0 -2.40462e-06 7.58811e-06 0 -2.81603e-06 7.99034e-06 0 -3.25794e-06 8.45908e-06 0 -3.73651e-06 9.00028e-06 0 -4.25891e-06 9.62145e-06 0 -4.83359e-06 1.03321e-05 0 -5.47047e-06 1.11446e-05 0 -6.18114e-06 1.2075e-05 0 -6.97898e-06 1.31442e-05 0 -7.87905e-06 1.43804e-05 0 -8.89756e-06 1.58211e-05 0 -1.00505e-05 1.75168e-05 0 -1.13507e-05 1.95356e-05 0 -1.28028e-05 2.19686e-05 0 -1.43936e-05 2.49355e-05 0 -1.60768e-05 2.85905e-05 0 -1.77482e-05 3.31216e-05 0 -1.92127e-05 3.87413e-05 0 -2.0136e-05 4.5649e-05 0 -2.00172e-05 5.39629e-05 0 -1.8166e-05 6.35744e-05 0 -1.38474e-05 7.40302e-05 0 -6.45378e-06 8.42782e-05 0 3.96958e-06 9.34135e-05 0 1.6223e-05 9.49962e-05 0 0 6.6345e-06 0 -2.67841e-07 6.66035e-06 0 -5.38193e-07 6.73815e-06 0 -8.13615e-07 6.8687e-06 0 -1.09677e-06 7.05333e-06 0 -1.3905e-06 7.29398e-06 0 -1.69784e-06 7.59324e-06 0 -2.02214e-06 7.95448e-06 0 -2.36711e-06 8.38195e-06 0 -2.73693e-06 8.88102e-06 0 -3.1363e-06 9.45838e-06 0 -3.57054e-06 1.01224e-05 0 -4.04566e-06 1.08838e-05 0 -4.56836e-06 1.17558e-05 0 -5.14593e-06 1.27556e-05 0 -5.78598e-06 1.39053e-05 0 -6.49585e-06 1.52331e-05 0 -7.28143e-06 1.67757e-05 0 -8.14514e-06 1.85804e-05 0 -9.08252e-06 2.07078e-05 0 -1.00767e-05 2.32342e-05 0 -1.10899e-05 2.62541e-05 0 -1.20511e-05 2.98782e-05 0 -1.28398e-05 3.42282e-05 0 -1.32647e-05 3.94196e-05 0 -1.30497e-05 4.55299e-05 0 -1.18212e-05 5.25422e-05 0 -9.15388e-06 6.02824e-05 0 -4.62424e-06 6.83258e-05 0 1.97368e-06 7.60645e-05 0 1.05543e-05 8.24498e-05 0 2.08738e-05 8.9476e-05 0 0 6.87571e-06 0 -2.14934e-07 6.90267e-06 0 -4.31835e-07 6.98385e-06 0 -6.52706e-07 7.1201e-06 0 -8.79615e-07 7.31285e-06 0 -1.11474e-06 7.56421e-06 0 -1.36039e-06 7.87698e-06 0 -1.61906e-06 8.25478e-06 0 -1.89344e-06 8.7022e-06 0 -2.18647e-06 9.22495e-06 0 -2.50133e-06 9.83014e-06 0 -2.8414e-06 1.05266e-05 0 -3.21026e-06 1.13253e-05 0 -3.61144e-06 1.22399e-05 0 -4.04821e-06 1.32876e-05 0 -4.52296e-06 1.44896e-05 0 -5.0364e-06 1.58728e-05 0 -5.58607e-06 1.74705e-05 0 -6.16416e-06 1.9324e-05 0 -6.75417e-06 2.14837e-05 0 -7.32614e-06 2.40096e-05 0 -7.82989e-06 2.69704e-05 0 -8.18672e-06 3.04396e-05 0 -8.27911e-06 3.44874e-05 0 -7.94271e-06 3.91649e-05 0 -6.96022e-06 4.44793e-05 0 -5.07536e-06 5.0361e-05 0 -2.0135e-06 5.66243e-05 0 2.43566e-06 6.29585e-05 0 8.37918e-06 6.89018e-05 0 1.56758e-05 7.41122e-05 0 2.37479e-05 7.68193e-05 0 0 7.06307e-06 0 -1.60065e-07 7.09087e-06 0 -3.21521e-07 7.17458e-06 0 -4.85775e-07 7.31508e-06 0 -6.54267e-07 7.51388e-06 0 -8.28481e-07 7.77316e-06 0 -1.00996e-06 8.09584e-06 0 -1.2003e-06 8.48567e-06 0 -1.40117e-06 8.94734e-06 0 -1.61423e-06 9.48672e-06 0 -1.84116e-06 1.0111e-05 0 -2.08349e-06 1.0829e-05 0 -2.34248e-06 1.16515e-05 0 -2.61882e-06 1.25918e-05 0 -2.91223e-06 1.3666e-05 0 -3.22076e-06 1.48938e-05 0 -3.53986e-06 1.62992e-05 0 -3.86088e-06 1.7911e-05 0 -4.16904e-06 1.97631e-05 0 -4.44059e-06 2.18951e-05 0 -4.63902e-06 2.43512e-05 0 -4.71049e-06 2.71778e-05 0 -4.57843e-06 3.04193e-05 0 -4.13899e-06 3.41098e-05 0 -3.25766e-06 3.82605e-05 0 -1.77348e-06 4.28433e-05 0 4.92396e-07 4.77713e-05 0 3.70433e-06 5.28846e-05 0 7.98925e-06 5.79405e-05 0 1.3363e-05 6.26576e-05 0 1.9745e-05 6.66621e-05 0 2.70651e-05 7.04296e-05 0 0 7.19492e-06 0 -1.03808e-07 7.22327e-06 0 -2.08414e-07 7.30862e-06 0 -3.14615e-07 7.45188e-06 0 -4.23206e-07 7.65456e-06 0 -5.34971e-07 7.91886e-06 0 -6.50675e-07 8.24772e-06 0 -7.71035e-07 8.64488e-06 0 -8.96685e-07 9.11502e-06 0 -1.02811e-06 9.66388e-06 0 -1.16555e-06 1.02985e-05 0 -1.30884e-06 1.10273e-05 0 -1.4572e-06 1.18605e-05 0 -1.60887e-06 1.28103e-05 0 -1.76069e-06 1.38915e-05 0 -1.90733e-06 1.51214e-05 0 -2.04038e-06 1.65203e-05 0 -2.14706e-06 1.8112e-05 0 -2.20843e-06 1.99231e-05 0 -2.19721e-06 2.19829e-05 0 -2.07511e-06 2.43218e-05 0 -1.78986e-06 2.69688e-05 0 -1.2725e-06 2.99466e-05 0 -4.3544e-07 3.32655e-05 0 8.26537e-07 3.69141e-05 0 2.63244e-06 4.0849e-05 0 5.10197e-06 4.49847e-05 0 8.34244e-06 4.91865e-05 0 1.24159e-05 5.3278e-05 0 1.73356e-05 5.70454e-05 0 2.30236e-05 6.03235e-05 0 2.92565e-05 6.25961e-05 0 0 7.27016e-06 0 -4.67536e-08 7.29876e-06 0 -9.37121e-08 7.38486e-06 0 -1.41065e-07 7.52935e-06 0 -1.88967e-07 7.73373e-06 0 -2.37516e-07 8.00014e-06 0 -2.86721e-07 8.33146e-06 0 -3.36454e-07 8.7313e-06 0 -3.8639e-07 9.20417e-06 0 -4.35912e-07 9.75555e-06 0 -4.83984e-07 1.0392e-05 0 -5.28964e-07 1.11214e-05 0 -5.68353e-07 1.19531e-05 0 -5.98441e-07 1.2898e-05 0 -6.1382e-07 1.39689e-05 0 -6.06745e-07 1.51804e-05 0 -5.66273e-07 1.65492e-05 0 -4.77174e-07 1.8094e-05 0 -3.18576e-07 1.98345e-05 0 -6.2374e-08 2.17913e-05 0 3.28516e-07 2.39836e-05 0 9.01786e-07 2.64269e-05 0 1.71696e-06 2.91292e-05 0 2.84527e-06 3.2086e-05 0 4.36802e-06 3.52743e-05 0 6.37091e-06 3.8646e-05 0 8.93694e-06 4.21231e-05 0 1.21313e-05 4.55968e-05 0 1.59939e-05 4.89303e-05 0 2.05157e-05 5.19774e-05 0 2.56537e-05 5.45735e-05 0 3.13731e-05 5.67787e-05 0 3.03569e-21 7.28829e-06 0 1.05086e-08 7.31685e-06 0 2.13897e-08 7.40282e-06 0 3.30443e-08 7.54705e-06 0 4.59335e-08 7.75097e-06 0 6.06158e-08 8.01666e-06 0 7.77942e-08 8.34681e-06 0 9.83772e-08 8.74486e-06 0 1.2356e-07 9.21502e-06 0 1.54934e-07 9.76234e-06 0 1.94631e-07 1.03929e-05 0 2.45521e-07 1.11136e-05 0 3.11467e-07 1.19329e-05 0 3.97673e-07 1.28601e-05 0 5.11124e-07 1.39059e-05 0 6.61153e-07 1.50824e-05 0 8.60153e-07 1.64025e-05 0 1.12443e-06 1.78803e-05 0 1.47518e-06 1.95296e-05 0 1.93958e-06 2.13637e-05 0 2.55176e-06 2.33931e-05 0 3.35361e-06 2.56238e-05 0 4.39492e-06 2.80541e-05 0 5.73267e-06 3.06709e-05 0 7.42843e-06 3.34459e-05 0 9.54453e-06 3.6332e-05 0 1.21368e-05 3.92608e-05 0 1.52484e-05 4.21434e-05 0 1.8898e-05 4.48749e-05 0 2.3081e-05 4.734e-05 0 2.77562e-05 4.94381e-05 0 3.28327e-05 5.09854e-05 0 2.56746e-20 7.24939e-06 0 6.74031e-08 7.27763e-06 0 1.35728e-07 7.36261e-06 0 2.05935e-07 7.50515e-06 0 2.79065e-07 7.70657e-06 0 3.56286e-07 7.96882e-06 0 4.38952e-07 8.29439e-06 0 5.28674e-07 8.68646e-06 0 6.27409e-07 9.14884e-06 0 7.37579e-07 9.68612e-06 0 8.6222e-07 1.03036e-05 0 1.00517e-06 1.10076e-05 0 1.17132e-06 1.1805e-05 0 1.36693e-06 1.27037e-05 0 1.6e-06 1.37125e-05 0 1.88073e-06 1.48408e-05 0 2.22213e-06 1.60983e-05 0 2.64056e-06 1.74949e-05 0 3.15649e-06 1.90396e-05 0 3.79507e-06 2.07399e-05 0 4.58671e-06 2.26e-05 0 5.56718e-06 2.46193e-05 0 6.77738e-06 2.679e-05 0 8.26207e-06 2.90945e-05 0 1.00678e-05 3.1503e-05 0 1.22391e-05 3.39717e-05 0 1.48146e-05 3.64417e-05 0 1.78205e-05 3.88403e-05 0 2.12678e-05 4.10837e-05 0 2.51446e-05 4.30846e-05 0 2.9423e-05 4.4751e-05 0 3.40712e-05 4.60475e-05 0 4.51378e-21 7.1541e-06 0 1.23382e-07 7.18175e-06 0 2.48197e-07 7.26495e-06 0 3.75924e-07 7.40444e-06 0 5.08136e-07 7.60146e-06 0 6.46554e-07 7.85775e-06 0 7.93112e-07 8.1756e-06 0 9.50034e-07 8.55785e-06 0 1.11993e-06 9.00791e-06 0 1.30589e-06 9.5298e-06 0 1.51167e-06 1.01282e-05 0 1.74185e-06 1.08082e-05 0 2.00202e-06 1.15758e-05 0 2.29911e-06 1.24374e-05 0 2.64167e-06 1.33998e-05 0 3.04023e-06 1.44699e-05 0 3.50775e-06 1.56549e-05 0 4.05999e-06 1.6961e-05 0 4.71602e-06 1.83935e-05 0 5.49845e-06 1.99555e-05 0 6.43368e-06 2.16466e-05 0 7.55173e-06 2.34619e-05 0 8.88562e-06 2.539e-05 0 1.04703e-05 2.74115e-05 0 1.23403e-05 2.94974e-05 0 1.45279e-05 3.16078e-05 0 1.70586e-05 3.36924e-05 0 1.9949e-05 3.56911e-05 0 2.32019e-05 3.75368e-05 0 2.68068e-05 3.91585e-05 0 3.07358e-05 4.04885e-05 0 3.49391e-05 4.14416e-05 0 0 7.00358e-06 0 1.77936e-07 7.0304e-06 0 3.57771e-07 7.11108e-06 0 5.41453e-07 7.2463e-06 0 7.31035e-07 7.43716e-06 0 9.28729e-07 7.68522e-06 0 1.13697e-06 7.99251e-06 0 1.35851e-06 8.36153e-06 0 1.59648e-06 8.79526e-06 0 1.85452e-06 9.29713e-06 0 2.13691e-06 9.87106e-06 0 2.44874e-06 1.05214e-05 0 2.79607e-06 1.12528e-05 0 3.18616e-06 1.20704e-05 0 3.62774e-06 1.29792e-05 0 4.13126e-06 1.39842e-05 0 4.70918e-06 1.50901e-05 0 5.37627e-06 1.63004e-05 0 6.14979e-06 1.76175e-05 0 7.04965e-06 1.90411e-05 0 8.09838e-06 2.05679e-05 0 9.32075e-06 2.21903e-05 0 1.07432e-05 2.38951e-05 0 1.23925e-05 2.56625e-05 0 1.42945e-05 2.74653e-05 0 1.64717e-05 2.92681e-05 0 1.89411e-05 3.10278e-05 0 2.17117e-05 3.26946e-05 0 2.47827e-05 3.42135e-05 0 2.81408e-05 3.55278e-05 0 3.17626e-05 3.65795e-05 0 3.56169e-05 3.73255e-05 0 0 6.79948e-06 0 2.30599e-07 6.82525e-06 0 4.63513e-07 6.90276e-06 0 7.0111e-07 7.03259e-06 0 9.45861e-07 7.21572e-06 0 1.2004e-06 7.45353e-06 0 1.46761e-06 7.74777e-06 0 1.75064e-06 8.10059e-06 0 2.05306e-06 8.51453e-06 0 2.37892e-06 8.99247e-06 0 2.73288e-06 9.53762e-06 0 3.12034e-06 1.01535e-05 0 3.54759e-06 1.08437e-05 0 4.02201e-06 1.16121e-05 0 4.55221e-06 1.24623e-05 0 5.14827e-06 1.33975e-05 0 5.82189e-06 1.44205e-05 0 6.58656e-06 1.55328e-05 0 7.45765e-06 1.67343e-05 0 8.45239e-06 1.80227e-05 0 9.58972e-06 1.93927e-05 0 1.08898e-05 2.08351e-05 0 1.23736e-05 2.23362e-05 0 1.40615e-05 2.38768e-05 0 1.59724e-05 2.54318e-05 0 1.81219e-05 2.69703e-05 0 2.05206e-05 2.84554e-05 0 2.31726e-05 2.98454e-05 0 2.60734e-05 3.10954e-05 0 2.92104e-05 3.21586e-05 0 3.25601e-05 3.29894e-05 0 3.60881e-05 3.35405e-05 0 5.2255e-21 6.54391e-06 0 2.80956e-07 6.56843e-06 0 5.64592e-07 6.64218e-06 0 8.53639e-07 6.76565e-06 0 1.15093e-06 6.93969e-06 0 1.45947e-06 7.16547e-06 0 1.78248e-06 7.44451e-06 0 2.12346e-06 7.77861e-06 0 2.48631e-06 8.16986e-06 0 2.87535e-06 8.62064e-06 0 3.2955e-06 9.13352e-06 0 3.75232e-06 9.7112e-06 0 4.25217e-06 1.03565e-05 0 4.80232e-06 1.1072e-05 0 5.41111e-06 1.18602e-05 0 6.08802e-06 1.27229e-05 0 6.84386e-06 1.36614e-05 0 7.69074e-06 1.46755e-05 0 8.64215e-06 1.57637e-05 0 9.71278e-06 1.69221e-05 0 1.09184e-05 1.81443e-05 0 1.22752e-05 1.94204e-05 0 1.37996e-05 2.07368e-05 0 1.5507e-05 2.20755e-05 0 1.74109e-05 2.3414e-05 0 1.95217e-05 2.47251e-05 0 2.18455e-05 2.59774e-05 0 2.43827e-05 2.71361e-05 0 2.7127e-05 2.81639e-05 0 3.00648e-05 2.90228e-05 0 3.31752e-05 2.96749e-05 0 3.64306e-05 3.00874e-05 0 2.17899e-20 6.23935e-06 0 3.28641e-07 6.26245e-06 0 6.60277e-07 6.33192e-06 0 9.97948e-07 6.44818e-06 0 1.3448e-06 6.61195e-06 0 1.70413e-06 6.82422e-06 0 2.07943e-06 7.08624e-06 0 2.4745e-06 7.3995e-06 0 2.89344e-06 7.76571e-06 0 3.3408e-06 8.18675e-06 0 3.82159e-06 8.66461e-06 0 4.34144e-06 9.20134e-06 0 4.90662e-06 9.79891e-06 0 5.5242e-06 1.04591e-05 0 6.20208e-06 1.11833e-05 0 6.94909e-06 1.19724e-05 0 7.77501e-06 1.28263e-05 0 8.69062e-06 1.37439e-05 0 9.70759e-06 1.47225e-05 0 1.08383e-05 1.57572e-05 0 1.20958e-05 1.68412e-05 0 1.34929e-05 1.79646e-05 0 1.50423e-05 1.91143e-05 0 1.67555e-05 2.02737e-05 0 1.86417e-05 2.14229e-05 0 2.07077e-05 2.25381e-05 0 2.29559e-05 2.35928e-05 0 2.53844e-05 2.45575e-05 0 2.79856e-05 2.54016e-05 0 3.07459e-05 2.60938e-05 0 3.36454e-05 2.66034e-05 0 3.66575e-05 2.69015e-05 0 1.75608e-21 5.88861e-06 0 3.73342e-07 5.91016e-06 0 7.49942e-07 5.97492e-06 0 1.1331e-06 6.08326e-06 0 1.52622e-06 6.23577e-06 0 1.93284e-06 6.43326e-06 0 2.35669e-06 6.67676e-06 0 2.80173e-06 6.96747e-06 0 3.27225e-06 7.30675e-06 0 3.7729e-06 7.69603e-06 0 4.30874e-06 8.13684e-06 0 4.88534e-06 8.63061e-06 0 5.50883e-06 9.17868e-06 0 6.18594e-06 9.78209e-06 0 6.9241e-06 1.04415e-05 0 7.73139e-06 1.11569e-05 0 8.61663e-06 1.19274e-05 0 9.58928e-06 1.2751e-05 0 1.06593e-05 1.36245e-05 0 1.18372e-05 1.45427e-05 0 1.31334e-05 1.54983e-05 0 1.45581e-05 1.64819e-05 0 1.6121e-05 1.74814e-05 0 1.78303e-05 1.84817e-05 0 1.96922e-05 1.94651e-05 0 2.17104e-05 2.04114e-05 0 2.38851e-05 2.12977e-05 0 2.62125e-05 2.20995e-05 0 2.8684e-05 2.27914e-05 0 3.12865e-05 2.33477e-05 0 3.40014e-05 2.37433e-05 0 3.68057e-05 2.39557e-05 0 0 5.49483e-06 0 4.14791e-07 5.51469e-06 0 8.3306e-07 5.57439e-06 0 1.25832e-06 5.6742e-06 0 1.69419e-06 5.81463e-06 0 2.14438e-06 5.99632e-06 0 2.61279e-06 6.2201e-06 0 3.10354e-06 6.4869e-06 0 3.62101e-06 6.79777e-06 0 4.16989e-06 7.1538e-06 0 4.75522e-06 7.55607e-06 0 5.38246e-06 8.00554e-06 0 6.05752e-06 8.50303e-06 0 6.78676e-06 9.04901e-06 0 7.57709e-06 9.64352e-06 0 8.43587e-06 1.0286e-05 0 9.37095e-06 1.0975e-05 0 1.03906e-05 1.17081e-05 0 1.15033e-05 1.24816e-05 0 1.27177e-05 1.32902e-05 0 1.40423e-05 1.4127e-05 0 1.5485e-05 1.4983e-05 0 1.7053e-05 1.58471e-05 0 1.8752e-05 1.6706e-05 0 2.05859e-05 1.75442e-05 0 2.25561e-05 1.83442e-05 0 2.46609e-05 1.90868e-05 0 2.68954e-05 1.97515e-05 0 2.92507e-05 2.03171e-05 0 3.17138e-05 2.07625e-05 0 3.42675e-05 2.10673e-05 0 3.68904e-05 2.12131e-05 0 0 5.06134e-06 0 4.5277e-07 5.07942e-06 0 9.09196e-07 5.13376e-06 0 1.37297e-06 5.22457e-06 0 1.84785e-06 5.35225e-06 0 2.33772e-06 5.51732e-06 0 2.8466e-06 5.72042e-06 0 3.37869e-06 5.96227e-06 0 3.93842e-06 6.24364e-06 0 4.53049e-06 6.56533e-06 0 5.15987e-06 6.92805e-06 0 5.83185e-06 7.33241e-06 0 6.55209e-06 7.7788e-06 0 7.32659e-06 8.26729e-06 0 8.1617e-06 8.79747e-06 0 9.06411e-06 9.36838e-06 0 1.00408e-05 9.97828e-06 0 1.10988e-05 1.06245e-05 0 1.22455e-05 1.13032e-05 0 1.3488e-05 1.20093e-05 0 1.48329e-05 1.27361e-05 0 1.62864e-05 1.34756e-05 0 1.78537e-05 1.42177e-05 0 1.95385e-05 1.49507e-05 0 2.13428e-05 1.56612e-05 0 2.32664e-05 1.63343e-05 0 2.53064e-05 1.69538e-05 0 2.74569e-05 1.75025e-05 0 2.97089e-05 1.79631e-05 0 3.20498e-05 1.83181e-05 0 3.44636e-05 1.8551e-05 0 3.69312e-05 1.86469e-05 0 0 4.59171e-06 0 4.87101e-07 4.60794e-06 0 9.77998e-07 4.65667e-06 0 1.47652e-06 4.73809e-06 0 1.98655e-06 4.8525e-06 0 2.51209e-06 5.00031e-06 0 3.05723e-06 5.182e-06 0 3.62624e-06 5.39811e-06 0 4.22356e-06 5.64919e-06 0 4.85384e-06 5.93579e-06 0 5.52196e-06 6.25836e-06 0 6.23305e-06 6.6172e-06 0 6.99248e-06 7.01242e-06 0 7.80587e-06 7.44376e-06 0 8.67907e-06 7.91058e-06 0 9.61812e-06 8.41165e-06 0 1.06292e-05 8.94508e-06 0 1.17184e-05 9.50814e-06 0 1.2892e-05 1.00971e-05 0 1.41556e-05 1.07072e-05 0 1.55147e-05 1.13324e-05 0 1.69738e-05 1.19653e-05 0 1.85365e-05 1.25971e-05 0 2.02051e-05 1.32176e-05 0 2.198e-05 1.38154e-05 0 2.38598e-05 1.43779e-05 0 2.58407e-05 1.48914e-05 0 2.79164e-05 1.53418e-05 0 3.00776e-05 1.57147e-05 0 3.23123e-05 1.5996e-05 0 3.46056e-05 1.61721e-05 0 3.69398e-05 1.62311e-05 0 0 4.08966e-06 0 5.1764e-07 4.10396e-06 0 1.03919e-06 4.1469e-06 0 1.56857e-06 4.21863e-06 0 2.10978e-06 4.31938e-06 0 2.66688e-06 4.44944e-06 0 3.24402e-06 4.60917e-06 0 3.84551e-06 4.79897e-06 0 4.47576e-06 5.01922e-06 0 5.13938e-06 5.27026e-06 0 5.84113e-06 5.55234e-06 0 6.58594e-06 5.86557e-06 0 7.37893e-06 6.20982e-06 0 8.22536e-06 6.58467e-06 0 9.13061e-06 6.98931e-06 0 1.01001e-05 7.42242e-06 0 1.11394e-05 7.88209e-06 0 1.22537e-05 8.36569e-06 0 1.34483e-05 8.86976e-06 0 1.47277e-05 9.38992e-06 0 1.60963e-05 9.92077e-06 0 1.75574e-05 1.04558e-05 0 1.91132e-05 1.09875e-05 0 2.07649e-05 1.1507e-05 0 2.25119e-05 1.20048e-05 0 2.43517e-05 1.24702e-05 0 2.62799e-05 1.28921e-05 0 2.82898e-05 1.32586e-05 0 3.03723e-05 1.35581e-05 0 3.25157e-05 1.37791e-05 0 3.47062e-05 1.39108e-05 0 3.69275e-05 1.39433e-05 0 0 3.55903e-06 0 5.44277e-07 3.57136e-06 0 1.09254e-06 3.60837e-06 0 1.64881e-06 3.67017e-06 0 2.21714e-06 3.75694e-06 0 2.80163e-06 3.86889e-06 0 3.4065e-06 4.00628e-06 0 4.03603e-06 4.16938e-06 0 4.69464e-06 4.35844e-06 0 5.38683e-06 4.57366e-06 0 6.11727e-06 4.81515e-06 0 6.89069e-06 5.08287e-06 0 7.71198e-06 5.37656e-06 0 8.58605e-06 5.69572e-06 0 9.51787e-06 6.03946e-06 0 1.05124e-05 6.4065e-06 0 1.15745e-05 6.79502e-06 0 1.27087e-05 7.2026e-06 0 1.39195e-05 7.62613e-06 0 1.52106e-05 8.06174e-06 0 1.65853e-05 8.50474e-06 0 1.80459e-05 8.94955e-06 0 1.95939e-05 9.38976e-06 0 2.12292e-05 9.81808e-06 0 2.29505e-05 1.02264e-05 0 2.47547e-05 1.06062e-05 0 2.66369e-05 1.0948e-05 0 2.85902e-05 1.12425e-05 0 3.06055e-05 1.14802e-05 0 3.26718e-05 1.16519e-05 0 3.47758e-05 1.17488e-05 0 3.69023e-05 1.17633e-05 0 0 3.00376e-06 0 5.66929e-07 3.01408e-06 0 1.13791e-06 3.04505e-06 0 1.71701e-06 3.09676e-06 0 2.30834e-06 3.16932e-06 0 2.91604e-06 3.2629e-06 0 3.54433e-06 3.37767e-06 0 4.19751e-06 3.51381e-06 0 4.87994e-06 3.67148e-06 0 5.59607e-06 3.85077e-06 0 6.35042e-06 4.0517e-06 0 7.1476e-06 4.27414e-06 0 7.99223e-06 4.51778e-06 0 8.88897e-06 4.7821e-06 0 9.84242e-06 5.06624e-06 0 1.08571e-05 5.36901e-06 0 1.19373e-05 5.68878e-06 0 1.30871e-05 6.02343e-06 0 1.43102e-05 6.37028e-06 0 1.56098e-05 6.72603e-06 0 1.69881e-05 7.08673e-06 0 1.8447e-05 7.44777e-06 0 1.99869e-05 7.80383e-06 0 2.16072e-05 8.14897e-06 0 2.33059e-05 8.47667e-06 0 2.50795e-05 8.7799e-06 0 2.69226e-05 9.0513e-06 0 2.88283e-05 9.28334e-06 0 3.07876e-05 9.46848e-06 0 3.27898e-05 9.59947e-06 0 3.48224e-05 9.66949e-06 0 3.68712e-05 9.67255e-06 0 0 2.42787e-06 0 5.85531e-07 2.43615e-06 0 1.17516e-06 2.46101e-06 0 1.77299e-06 2.50249e-06 0 2.38317e-06 2.5607e-06 0 3.00986e-06 2.63572e-06 0 3.6573e-06 2.72769e-06 0 4.32975e-06 2.83672e-06 0 5.03155e-06 2.96288e-06 0 5.76708e-06 3.10622e-06 0 6.54076e-06 3.2667e-06 0 7.35705e-06 3.44416e-06 0 8.22038e-06 3.63829e-06 0 9.13517e-06 3.84859e-06 0 1.01057e-05 4.07431e-06 0 1.11362e-05 4.31443e-06 0 1.22305e-05 4.56757e-06 0 1.33922e-05 4.83197e-06 0 1.46245e-05 5.10542e-06 0 1.59299e-05 5.38525e-06 0 1.73103e-05 5.66829e-06 0 1.87668e-05 5.95084e-06 0 2.02993e-05 6.22872e-06 0 2.19066e-05 6.49724e-06 0 2.35862e-05 6.75129e-06 0 2.53343e-05 6.98543e-06 0 2.71454e-05 7.19396e-06 0 2.90123e-05 7.37106e-06 0 3.09264e-05 7.51097e-06 0 3.28771e-05 7.60813e-06 0 3.48525e-05 7.65737e-06 0 3.68393e-05 7.65412e-06 0 0 1.83543e-06 0 6.00039e-07 1.84165e-06 0 1.2042e-06 1.86034e-06 0 1.81664e-06 1.89152e-06 0 2.44149e-06 1.93525e-06 0 3.08296e-06 1.9916e-06 0 3.74526e-06 2.06066e-06 0 4.43265e-06 2.14247e-06 0 5.14944e-06 2.23709e-06 0 5.89994e-06 2.34452e-06 0 6.6885e-06 2.4647e-06 0 7.51945e-06 2.59747e-06 0 8.39707e-06 2.74258e-06 0 9.32558e-06 2.8996e-06 0 1.03091e-05 3.06794e-06 0 1.13514e-05 3.24677e-06 0 1.24562e-05 3.43503e-06 0 1.36266e-05 3.63137e-06 0 1.48655e-05 3.83409e-06 0 1.61749e-05 4.04117e-06 0 1.75564e-05 4.25024e-06 0 1.90104e-05 4.45852e-06 0 2.05365e-05 4.6629e-06 0 2.21333e-05 4.85991e-06 0 2.37978e-05 5.0458e-06 0 2.5526e-05 5.21656e-06 0 2.73121e-05 5.36804e-06 0 2.9149e-05 5.49601e-06 0 3.10282e-05 5.59627e-06 0 3.29394e-05 5.66481e-06 0 3.48711e-05 5.6979e-06 0 3.68105e-05 5.69223e-06 0 0 1.23055e-06 0 6.10421e-07 1.2347e-06 0 1.22499e-06 1.24718e-06 0 1.84786e-06 1.26799e-06 0 2.48321e-06 1.29718e-06 0 3.13522e-06 1.33479e-06 0 3.80813e-06 1.38085e-06 0 4.50617e-06 1.43541e-06 0 5.23362e-06 1.49848e-06 0 5.99475e-06 1.57006e-06 0 6.79385e-06 1.65008e-06 0 7.63515e-06 1.73844e-06 0 8.52284e-06 1.83493e-06 0 9.46099e-06 1.93926e-06 0 1.04535e-05 2.05102e-06 0 1.15041e-05 2.16963e-06 0 1.26161e-05 2.29437e-06 0 1.37925e-05 2.42432e-06 0 1.50358e-05 2.55833e-06 0 1.63478e-05 2.69506e-06 0 1.77296e-05 2.83291e-06 0 1.91816e-05 2.97004e-06 0 2.0703e-05 3.10438e-06 0 2.2292e-05 3.23366e-06 0 2.39456e-05 3.3554e-06 0 2.56594e-05 3.46697e-06 0 2.74276e-05 3.56565e-06 0 2.92433e-05 3.64869e-06 0 3.10977e-05 3.71335e-06 0 3.2981e-05 3.75702e-06 0 3.48819e-05 3.77728e-06 0 3.6788e-05 3.77201e-06 0 0 6.17352e-07 0 6.16658e-07 6.19431e-07 0 1.23747e-06 6.25674e-07 0 1.86661e-06 6.36089e-07 0 2.50826e-06 6.50694e-07 0 3.1666e-06 6.69507e-07 0 3.84586e-06 6.92547e-07 0 4.55028e-06 7.1983e-07 0 5.28411e-06 7.51363e-07 0 6.0516e-06 7.87136e-07 0 6.85698e-06 8.27117e-07 0 7.70445e-06 8.71244e-07 0 8.59812e-06 9.19414e-07 0 9.54199e-06 9.71474e-07 0 1.05399e-05 1.02721e-06 0 1.15953e-05 1.08633e-06 0 1.27115e-05 1.14847e-06 0 1.38914e-05 1.21316e-06 0 1.51372e-05 1.27983e-06 0 1.64506e-05 1.34779e-06 0 1.78326e-05 1.41626e-06 0 1.92833e-05 1.48431e-06 0 2.08018e-05 1.55091e-06 0 2.2386e-05 1.61493e-06 0 2.40329e-05 1.67515e-06 0 2.5738e-05 1.73026e-06 0 2.74956e-05 1.77892e-06 0 2.92985e-05 1.81976e-06 0 3.11382e-05 1.85144e-06 0 3.30049e-05 1.87268e-06 0 3.48874e-05 1.88228e-06 0 3.67736e-05 1.8792e-06 0 0 -0 0 6.18738e-07 4.11429e-21 0 1.24164e-06 -6.59153e-21 0 1.87287e-06 -7.23767e-21 0 2.51661e-06 -0 0 3.17706e-06 -0 0 3.85844e-06 -0 0 4.56498e-06 -0 0 5.30093e-06 -0 0 6.07054e-06 -0 0 6.87801e-06 3.3903e-21 0 7.72753e-06 5.33647e-20 0 8.62319e-06 9.22366e-21 0 9.56895e-06 -6.74019e-20 0 1.05686e-05 -1.50553e-20 0 1.16256e-05 -0 0 1.27433e-05 -0 0 1.39243e-05 -0 0 1.51709e-05 -2.42288e-20 0 1.64848e-05 -1.15141e-19 0 1.78668e-05 -1.06563e-20 0 1.9317e-05 -0 0 2.08345e-05 -0 0 2.24171e-05 -0 0 2.40618e-05 6.83166e-20 0 2.5764e-05 1.60142e-19 0 2.7518e-05 3.39104e-21 0 2.93167e-05 -0 0 3.11515e-05 -0 0 3.30126e-05 -0 0 3.48891e-05 -0 0 3.67687e-05 -0 0 </DataArray> 
</PointData> 
<Points> 
<DataArray type="Float32" NumberOfComponents="3"> 