<?xml version="1.0"?> 
<VTKFile type="StructuredGrid" version="0.1"> 
<StructuredGrid WholeExtent="0 31 0 31 0 0"> 
<Piece Extent="0 31 0 31 0 0"> 
<PointData>
<DataArray type="Float32" Name="B" format="ascii" NumberOfComponents="3"> 
-0.0115794 0.00209985 0 -0.000641008 -8.0288e-05 0 0.00011587 8.18348e-05 0 -0.000322318 3.89416e-05 0 2.31344e-06 4.60517e-05 0 -0.000137369 3.95803e-05 0 -3.92008e-05 3.62946e-05 0 -7.46247e-05 3.34184e-05 0 -4.36988e-05 2.97004e-05 0 -4.98769e-05 2.7221e-05 0 -3.85815e-05 2.42515e-05 0 -3.74321e-05 2.20399e-05 0 -3.20507e-05 1.9761e-05 0 -2.95027e-05 1.79066e-05 0 -2.61255e-05 1.6154e-05 0 -2.36318e-05 1.46617e-05 0 -2.11137e-05 1.33086e-05 0 -1.89505e-05 1.2134e-05 0 -1.69167e-05 1.10897e-05 0 -1.50781e-05 1.01785e-05 0 -1.33725e-05 9.37759e-06 0 -1.17989e-05 8.68083e-06 0 -1.03333e-05 8.07556e-06 0 -8.96362e-06 7.55472e-06 0 -7.67538e-06 7.1103e-06 0 -6.45638e-06 6.73662e-06 0 -5.29524e-06 6.42839e-06 0 -4.18114e-06 6.18159e-06 0 -3.10408e-06 5.9929e-06 0 -2.05435e-06 5.85986e-06 0 -1.02269e-06 5.78072e-06 0 0 5.75445e-06 0 0.000267215 -0.00151637 0 -0.000335051 -1.5379e-05 0 -0.000243124 1.15085e-05 0 -0.000105551 3.55603e-05 0 -0.000117213 3.47549e-05 0 -7.43045e-05 3.50124e-05 0 -7.40699e-05 3.28144e-05 0 -5.7797e-05 3.02996e-05 0 -5.38942e-05 2.77828e-05 0 -4.59881e-05 2.51705e-05 0 -4.18193e-05 2.28277e-05 0 -3.69339e-05 2.05958e-05 0 -3.33202e-05 1.86176e-05 0 -2.97845e-05 1.68137e-05 0 -2.67934e-05 1.52185e-05 0 -2.40212e-05 1.37929e-05 0 -2.15543e-05 1.25349e-05 0 -1.92937e-05 1.14216e-05 0 -1.72392e-05 1.04421e-05 0 -1.53518e-05 9.58103e-06 0 -1.36156e-05 8.82728e-06 0 -1.20088e-05 8.16975e-06 0 -1.05154e-05 7.59942e-06 0 -9.11955e-06 7.10818e-06 0 -7.80753e-06 6.68929e-06 0 -6.56657e-06 6.33696e-06 0 -5.38488e-06 6.04642e-06 0 -4.25151e-06 5.81378e-06 0 -3.15605e-06 5.63593e-06 0 -2.08863e-06 5.51054e-06 0 -1.03972e-06 5.43595e-06 0 8.16988e-20 5.41119e-06 0 1.18877e-05 -0.000711918 0 -0.000286183 -0.000135846 0 -0.000182891 -6.68705e-06 0 -0.00013074 1.92115e-05 0 -0.000100548 2.79117e-05 0 -8.31439e-05 2.9746e-05 0 -7.00288e-05 2.91936e-05 0 -6.1002e-05 2.75914e-05 0 -5.3395e-05 2.55057e-05 0 -4.74316e-05 2.33557e-05 0 -4.22029e-05 2.12176e-05 0 -3.77789e-05 1.92304e-05 0 -3.38388e-05 1.73912e-05 0 -3.03732e-05 1.57342e-05 0 -2.72578e-05 1.42433e-05 0 -2.44631e-05 1.29171e-05 0 -2.19312e-05 1.17388e-05 0 -1.96329e-05 1.06977e-05 0 -1.75347e-05 9.7795e-06 0 -1.56124e-05 8.97265e-06 0 -1.38428e-05 8.26579e-06 0 -1.22067e-05 7.64926e-06 0 -1.06864e-05 7.11436e-06 0 -9.26621e-06 6.65369e-06 0 -7.9318e-06 6.26085e-06 0 -6.67015e-06 5.93046e-06 0 -5.46919e-06 5.65803e-06 0 -4.31765e-06 5.43989e-06 0 -3.20491e-06 5.27314e-06 0 -2.12086e-06 5.15558e-06 0 -1.05573e-06 5.08565e-06 0 6.29583e-20 5.06244e-06 0 1.29984e-05 -0.000377234 0 -0.000206308 -0.000158238 0 -0.000163187 -2.69625e-05 0 -0.000125011 7.44335e-06 0 -9.87229e-05 2.08702e-05 0 -8.26201e-05 2.49247e-05 0 -7.03808e-05 2.57014e-05 0 -6.14609e-05 2.48667e-05 0 -5.40919e-05 2.32959e-05 0 -4.80727e-05 2.14945e-05 0 -4.28731e-05 1.96187e-05 0 -3.83779e-05 1.7831e-05 0 -3.44027e-05 1.61545e-05 0 -3.08741e-05 1.46307e-05 0 -2.7711e-05 1.3253e-05 0 -2.48641e-05 1.20231e-05 0 -2.22878e-05 1.09284e-05 0 -1.99473e-05 9.95974e-06 0 -1.78118e-05 9.10476e-06 0 -1.58555e-05 8.35307e-06 0 -1.40554e-05 7.69433e-06 0 -1.23917e-05 7.11968e-06 0 -1.08464e-05 6.62108e-06 0 -9.40334e-06 6.19167e-06 0 -8.048e-06 5.82548e-06 0 -6.76701e-06 5.51753e-06 0 -5.54801e-06 5.2636e-06 0 -4.37949e-06 5.0603e-06 0 -3.25059e-06 4.90489e-06 0 -2.15098e-06 4.79533e-06 0 -1.07069e-06 4.73016e-06 0 0 4.70853e-06 0 9.46696e-06 -0.000277401 0 -0.000148848 -0.000143817 0 -0.00014233 -4.11924e-05 0 -0.000117373 -1.36344e-06 0 -9.60046e-05 1.44861e-05 0 -8.16419e-05 2.05196e-05 0 -7.0358e-05 2.2375e-05 0 -6.17794e-05 2.22054e-05 0 -5.46163e-05 2.11246e-05 0 -4.86421e-05 1.96295e-05 0 -4.34537e-05 1.80169e-05 0 -3.89271e-05 1.64145e-05 0 -3.4913e-05 1.49033e-05 0 -3.13371e-05 1.35092e-05 0 -2.81277e-05 1.2247e-05 0 -2.52359e-05 1.11136e-05 0 -2.2618e-05 1.01042e-05 0 -2.02392e-05 9.209e-06 0 -1.8069e-05 8.41863e-06 0 -1.60813e-05 7.72312e-06 0 -1.42529e-05 7.11357e-06 0 -1.25636e-05 6.58165e-06 0 -1.0995e-05 6.12013e-06 0 -9.53074e-06 5.72262e-06 0 -8.15595e-06 5.38366e-06 0 -6.85698e-06 5.0986e-06 0 -5.62123e-06 4.86357e-06 0 -4.43693e-06 4.67539e-06 0 -3.29302e-06 4.53156e-06 0 -2.17896e-06 4.43016e-06 0 -1.08459e-06 4.36984e-06 0 1.02917e-21 4.34983e-06 0 6.69981e-06 -0.000186043 0 -0.000109216 -0.000127064 0 -0.000123123 -4.70709e-05 0 -0.000108641 -8.14511e-06 0 -9.27811e-05 9.21347e-06 0 -8.01951e-05 1.65453e-05 0 -7.01056e-05 1.92432e-05 0 -6.19125e-05 1.96629e-05 0 -5.50255e-05 1.89787e-05 0 -4.91181e-05 1.7789e-05 0 -4.39647e-05 1.64047e-05 0 -3.9418e-05 1.49927e-05 0 -3.53755e-05 1.36357e-05 0 -3.17591e-05 1.23749e-05 0 -2.85094e-05 1.12255e-05 0 -2.55771e-05 1.01909e-05 0 -2.29216e-05 9.26701e-06 0 -2.05079e-05 8.44681e-06 0 -1.8306e-05 7.72186e-06 0 -1.62894e-05 7.0837e-06 0 -1.4435e-05 6.52416e-06 0 -1.2722e-05 6.03583e-06 0 -1.1132e-05 5.61207e-06 0 -9.64821e-06 5.24709e-06 0 -8.25549e-06 4.93585e-06 0 -6.93994e-06 4.67412e-06 0 -5.68873e-06 4.45833e-06 0 -4.48989e-06 4.28556e-06 0 -3.33214e-06 4.15351e-06 0 -2.20476e-06 4.06042e-06 0 -1.0974e-06 4.00505e-06 0 7.1982e-20 3.98668e-06 0 6.35933e-06 -0.000150847 0 -8.28001e-05 -0.000107319 0 -0.000105945 -4.83915e-05 0 -0.000100105 -1.25527e-05 0 -8.90244e-05 4.9667e-06 0 -7.85538e-05 1.30612e-05 0 -6.95982e-05 1.63592e-05 0 -6.19282e-05 1.7231e-05 0 -5.53132e-05 1.68916e-05 0 -4.95184e-05 1.59649e-05 0 -4.44048e-05 1.47974e-05 0 -3.98551e-05 1.35627e-05 0 -3.57898e-05 1.23582e-05 0 -3.2141e-05 1.12274e-05 0 -2.88557e-05 1.01916e-05 0 -2.58878e-05 9.25571e-06 0 -2.31984e-05 8.4184e-06 0 -2.07532e-05 7.67396e-06 0 -1.85223e-05 7.0155e-06 0 -1.64795e-05 6.43551e-06 0 -1.46013e-05 5.92685e-06 0 -1.28668e-05 5.48283e-06 0 -1.12572e-05 5.0975e-06 0 -9.75557e-06 4.76558e-06 0 -8.34646e-06 4.48255e-06 0 -7.01576e-06 4.24454e-06 0 -5.75043e-06 4.04831e-06 0 -4.53829e-06 3.89122e-06 0 -3.36789e-06 3.77115e-06 0 -2.22833e-06 3.6865e-06 0 -1.10911e-06 3.63616e-06 0 3.34518e-20 3.61945e-06 0 2.20293e-06 -0.000113243 0 -6.49779e-05 -9.07099e-05 0 -9.13898e-05 -4.61962e-05 0 -9.21324e-05 -1.50999e-05 0 -8.50785e-05 1.76725e-06 0 -7.67804e-05 1.0079e-05 0 -6.89258e-05 1.3732e-05 0 -6.18385e-05 1.49326e-05 0 -5.55049e-05 1.48632e-05 0 -4.98462e-05 1.41687e-05 0 -4.47813e-05 1.3195e-05 0 -4.02392e-05 1.21301e-05 0 -3.61576e-05 1.10716e-05 0 -3.24827e-05 1.00696e-05 0 -2.91668e-05 9.14629e-06 0 -2.61677e-05 8.30962e-06 0 -2.3448e-05 7.55938e-06 0 -2.09746e-05 6.89159e-06 0 -1.87179e-05 6.30039e-06 0 -1.66514e-05 5.77943e-06 0 -1.47518e-05 5.32236e-06 0 -1.29978e-05 4.92333e-06 0 -1.13705e-05 4.57699e-06 0 -9.85267e-06 4.27866e-06 0 -8.42874e-06 4.02426e-06 0 -7.08433e-06 3.81033e-06 0 -5.80622e-06 3.63396e-06 0 -4.58205e-06 3.49276e-06 0 -3.40021e-06 3.38485e-06 0 -2.24965e-06 3.30877e-06 0 -1.1197e-06 3.26353e-06 0 0 3.24851e-06 0 3.23007e-06 -9.34898e-05 0 -5.25857e-05 -7.52802e-05 0 -7.96614e-05 -4.23044e-05 0 -8.4841e-05 -1.60042e-05 0 -8.12623e-05 -5.13564e-07 0 -7.49272e-05 7.59677e-06 0 -6.81763e-05 1.13702e-05 0 -6.16587e-05 1.27672e-05 0 -5.56249e-05 1.29034e-05 0 -5.01062e-05 1.24005e-05 0 -4.51008e-05 1.16028e-05 0 -4.05717e-05 1.06955e-05 0 -3.64807e-05 9.77878e-06 0 -3.27845e-05 8.9027e-06 0 -2.94427e-05 8.09141e-06 0 -2.64165e-05 7.35382e-06 0 -2.36704e-05 6.69122e-06 0 -2.1172e-05 6.10068e-06 0 -1.88923e-05 5.5775e-06 0 -1.68048e-05 5.11624e-06 0 -1.4886e-05 4.71144e-06 0 -1.31147e-05 4.35797e-06 0 -1.14716e-05 4.05115e-06 0 -9.93935e-06 3.78685e-06 0 -8.50218e-06 3.56148e-06 0 -7.14554e-06 3.37195e-06 0 -5.85602e-06 3.2157e-06 0 -4.62112e-06 3.09062e-06 0 -3.42907e-06 2.99502e-06 0 -2.26867e-06 2.92763e-06 0 -1.12915e-06 2.88754e-06 0 0 2.87424e-06 0 1.16241e-06 -7.30223e-05 0 -4.39372e-05 -6.21506e-05 0 -7.02083e-05 -3.7286e-05 0 -7.85329e-05 -1.56995e-05 0 -7.76638e-05 -1.97105e-06 0 -7.31335e-05 5.58144e-06 0 -6.73827e-05 9.26367e-06 0 -6.14307e-05 1.07381e-05 0 -5.56835e-05 1.1011e-05 0 -5.03109e-05 1.06642e-05 0 -4.53663e-05 1.00214e-05 0 -4.0856e-05 9.26191e-06 0 -3.67596e-05 8.48102e-06 0 -3.30471e-05 7.72856e-06 0 -2.96836e-05 7.0282e-06 0 -2.66343e-05 6.38969e-06 0 -2.38652e-05 5.81502e-06 0 -2.13452e-05 5.3023e-06 0 -1.90453e-05 4.84772e-06 0 -1.69394e-05 4.44678e-06 0 -1.50039e-05 4.09482e-06 0 -1.32173e-05 3.78744e-06 0 -1.15604e-05 3.5206e-06 0 -1.00155e-05 3.29073e-06 0 -8.56669e-06 3.09471e-06 0 -7.1993e-06 2.92988e-06 0 -5.89976e-06 2.79398e-06 0 -4.65543e-06 2.6852e-06 0 -3.45441e-06 2.60205e-06 0 -2.28539e-06 2.54345e-06 0 -1.13745e-06 2.50859e-06 0 0 2.49702e-06 0 1.8048e-06 -5.89591e-05 0 -3.77019e-05 -5.027e-05 0 -6.28821e-05 -3.1801e-05 0 -7.3143e-05 -1.4455e-05 0 -7.44722e-05 -2.7449e-06 0 -7.14444e-05 3.98841e-06 0 -6.66155e-05 7.39643e-06 0 -6.11726e-05 8.83755e-06 0 -5.57022e-05 9.1856e-06 0 -5.04662e-05 8.95883e-06 0 -4.55841e-05 8.45253e-06 0 -4.10938e-05 7.83001e-06 0 -3.6996e-05 7.17995e-06 0 -3.32707e-05 6.54843e-06 0 -2.98896e-05 5.95808e-06 0 -2.68209e-05 5.4184e-06 0 -2.40325e-05 4.93192e-06 0 -2.14939e-05 4.49744e-06 0 -1.91769e-05 4.11199e-06 0 -1.70552e-05 3.77188e-06 0 -1.51053e-05 3.47325e-06 0 -1.33056e-05 3.2124e-06 0 -1.16367e-05 2.98595e-06 0 -1.0081e-05 2.79086e-06 0 -8.62217e-06 2.62449e-06 0 -7.24554e-06 2.48459e-06 0 -5.93738e-06 2.36926e-06 0 -4.68494e-06 2.27693e-06 0 -3.47621e-06 2.20637e-06 0 -2.29975e-06 2.15663e-06 0 -1.14459e-06 2.12705e-06 0 0 2.11723e-06 0 9.2165e-07 -4.53401e-05 0 -3.32663e-05 -3.97233e-05 0 -5.72037e-05 -2.60545e-05 0 -6.8763e-05 -1.25485e-05 0 -7.17189e-05 -2.95604e-06 0 -6.99545e-05 2.75972e-06 0 -6.59042e-05 5.74243e-06 0 -6.09179e-05 7.05515e-06 0 -5.56916e-05 7.42151e-06 0 -5.05823e-05 7.28347e-06 0 -4.57575e-05 6.89565e-06 0 -4.1288e-05 6.40084e-06 0 -3.71908e-05 5.87654e-06 0 -3.34562e-05 5.36362e-06 0 -3.00609e-05 4.88223e-06 0 -2.69763e-05 4.44118e-06 0 -2.41719e-05 4.04303e-06 0 -2.16181e-05 3.68713e-06 0 -1.92867e-05 3.37122e-06 0 -1.71519e-05 3.09237e-06 0 -1.519e-05 2.84748e-06 0 -1.33794e-05 2.63355e-06 0 -1.17005e-05 2.44781e-06 0 -1.01357e-05 2.28779e-06 0 -8.66853e-06 2.15133e-06 0 -7.28417e-06 2.03658e-06 0 -5.96881e-06 1.94198e-06 0 -4.7096e-06 1.86625e-06 0 -3.49442e-06 1.80838e-06 0 -2.31176e-06 1.76758e-06 0 -1.15055e-06 1.74332e-06 0 0 1.73526e-06 0 1.16042e-06 -3.42003e-05 0 -3.00919e-05 -3.00081e-05 0 -5.29976e-05 -2.02477e-05 0 -6.53069e-05 -1.01649e-05 0 -6.94877e-05 -2.72909e-06 0 -6.86995e-05 1.83276e-06 0 -6.52946e-05 4.27039e-06 0 -6.06843e-05 5.37479e-06 0 -5.56674e-05 5.71176e-06 0 -5.06652e-05 5.63462e-06 0 -4.58912e-05 5.35009e-06 0 -4.14405e-05 4.97453e-06 0 -3.73452e-05 4.57168e-06 0 -3.36038e-05 4.17518e-06 0 -3.01977e-05 3.80186e-06 0 -2.71007e-05 3.45915e-06 0 -2.42836e-05 3.14942e-06 0 -2.17175e-05 2.87236e-06 0 -1.93747e-05 2.62633e-06 0 -1.72294e-05 2.40909e-06 0 -1.52578e-05 2.21828e-06 0 -1.34385e-05 2.05157e-06 0 -1.17517e-05 1.90682e-06 0 -1.01795e-05 1.78211e-06 0 -8.7057e-06 1.67576e-06 0 -7.31515e-06 1.58633e-06 0 -5.99402e-06 1.51261e-06 0 -4.72936e-06 1.45359e-06 0 -3.50902e-06 1.40848e-06 0 -2.32139e-06 1.37669e-06 0 -1.15534e-06 1.35778e-06 0 0 1.35151e-06 0 8.23669e-07 -2.36128e-05 0 -2.79319e-05 -2.09978e-05 0 -4.99939e-05 -1.44309e-05 0 -6.27724e-05 -7.46231e-06 0 -6.77894e-05 -2.17355e-06 0 -6.77301e-05 1.14107e-06 0 -6.48102e-05 2.94385e-06 0 -6.04934e-05 3.77758e-06 0 -5.56387e-05 4.04646e-06 0 -5.0722e-05 4.00798e-06 0 -4.59882e-05 3.81409e-06 0 -4.15532e-05 3.55097e-06 0 -3.74602e-05 3.26593e-06 0 -3.37142e-05 2.98408e-06 0 -3.03002e-05 2.71802e-06 0 -2.71939e-05 2.47343e-06 0 -2.43674e-05 2.25218e-06 0 -2.17922e-05 2.05415e-06 0 -1.94408e-05 1.87823e-06 0 -1.72876e-05 1.72288e-06 0 -1.53089e-05 1.5864e-06 0 -1.34829e-05 1.46715e-06 0 -1.17901e-05 1.36361e-06 0 -1.02125e-05 1.27439e-06 0 -8.73362e-06 1.19832e-06 0 -7.33842e-06 1.13434e-06 0 -6.01295e-06 1.0816e-06 0 -4.74422e-06 1.03938e-06 0 -3.51999e-06 1.00712e-06 0 -2.32862e-06 9.84374e-07 0 -1.15893e-06 9.70848e-07 0 -2.41503e-21 9.6636e-07 0 8.85072e-07 -1.39752e-05 0 -2.65731e-05 -1.24185e-05 0 -4.80804e-05 -8.64329e-06 0 -6.11005e-05 -4.55281e-06 0 -6.66535e-05 -1.39226e-06 0 -6.70674e-05 6.17522e-07 0 -6.44763e-05 1.72337e-06 0 -6.03576e-05 2.24153e-06 0 -5.56151e-05 2.41429e-06 0 -5.07569e-05 2.39792e-06 0 -4.60514e-05 2.2854e-06 0 -4.16275e-05 2.12962e-06 0 -3.75364e-05 1.95971e-06 0 -3.37875e-05 1.79115e-06 0 -3.03684e-05 1.63177e-06 0 -2.7256e-05 1.4851e-06 0 -2.44233e-05 1.35234e-06 0 -2.1842e-05 1.23347e-06 0 -1.94849e-05 1.12785e-06 0 -1.73265e-05 1.03456e-06 0 -1.53429e-05 9.52604e-07 0 -1.35126e-05 8.80987e-07 0 -1.18158e-05 8.188e-07 0 -1.02345e-05 7.6522e-07 0 -8.75226e-06 7.19528e-07 0 -7.35396e-06 6.81104e-07 0 -6.02559e-06 6.49428e-07 0 -4.75413e-06 6.24072e-07 0 -3.52731e-06 6.04694e-07 0 -2.33345e-06 5.91034e-07 0 -1.16133e-06 5.8291e-07 0 -1.23294e-20 5.80215e-07 0 8.00139e-07 -4.5857e-06 0 -2.59223e-05 -4.11331e-06 0 -4.71423e-05 -2.87743e-06 0 -6.02747e-05 -1.52992e-06 0 -6.60822e-05 -4.78542e-07 0 -6.67327e-05 1.94657e-07 0 -6.43054e-05 5.67256e-07 0 -6.02876e-05 7.42979e-07 0 -5.56017e-05 8.02467e-07 0 -5.07736e-05 7.98149e-07 0 -4.60825e-05 7.61281e-07 0 -4.16644e-05 7.09709e-07 0 -3.75744e-05 6.53258e-07 0 -3.38241e-05 5.97168e-07 0 -3.04025e-05 5.44082e-07 0 -2.72871e-05 4.95205e-07 0 -2.44512e-05 4.50951e-07 0 -2.18669e-05 4.11321e-07 0 -1.9507e-05 3.76103e-07 0 -1.73459e-05 3.44995e-07 0 -1.53599e-05 3.17662e-07 0 -1.35274e-05 2.93779e-07 0 -1.18286e-05 2.7304e-07 0 -1.02455e-05 2.55171e-07 0 -8.76159e-06 2.39932e-07 0 -7.36173e-06 2.27118e-07 0 -6.03192e-06 2.16554e-07 0 -4.75909e-06 2.08098e-07 0 -3.53097e-06 2.01635e-07 0 -2.33586e-06 1.9708e-07 0 -1.16253e-06 1.9437e-07 0 -7.32409e-22 1.93471e-07 0 8.00139e-07 4.5857e-06 0 -2.59223e-05 4.11331e-06 0 -4.71423e-05 2.87743e-06 0 -6.02747e-05 1.52992e-06 0 -6.60822e-05 4.78542e-07 0 -6.67327e-05 -1.94657e-07 0 -6.43054e-05 -5.67256e-07 0 -6.02876e-05 -7.42979e-07 0 -5.56017e-05 -8.02467e-07 0 -5.07736e-05 -7.98149e-07 0 -4.60825e-05 -7.61281e-07 0 -4.16644e-05 -7.09709e-07 0 -3.75744e-05 -6.53258e-07 0 -3.38241e-05 -5.97168e-07 0 -3.04025e-05 -5.44082e-07 0 -2.72871e-05 -4.95205e-07 0 -2.44512e-05 -4.50951e-07 0 -2.18669e-05 -4.11321e-07 0 -1.9507e-05 -3.76103e-07 0 -1.73459e-05 -3.44995e-07 0 -1.53599e-05 -3.17662e-07 0 -1.35274e-05 -2.93779e-07 0 -1.18286e-05 -2.7304e-07 0 -1.02455e-05 -2.55171e-07 0 -8.76159e-06 -2.39932e-07 0 -7.36173e-06 -2.27118e-07 0 -6.03192e-06 -2.16554e-07 0 -4.75909e-06 -2.08098e-07 0 -3.53097e-06 -2.01635e-07 0 -2.33586e-06 -1.9708e-07 0 -1.16253e-06 -1.9437e-07 0 0 -1.93471e-07 0 8.85072e-07 1.39752e-05 0 -2.65731e-05 1.24185e-05 0 -4.80804e-05 8.64329e-06 0 -6.11005e-05 4.55281e-06 0 -6.66535e-05 1.39226e-06 0 -6.70674e-05 -6.17522e-07 0 -6.44763e-05 -1.72337e-06 0 -6.03576e-05 -2.24153e-06 0 -5.56151e-05 -2.41429e-06 0 -5.07569e-05 -2.39792e-06 0 -4.60514e-05 -2.2854e-06 0 -4.16275e-05 -2.12962e-06 0 -3.75364e-05 -1.95971e-06 0 -3.37875e-05 -1.79115e-06 0 -3.03684e-05 -1.63177e-06 0 -2.7256e-05 -1.4851e-06 0 -2.44233e-05 -1.35234e-06 0 -2.1842e-05 -1.23347e-06 0 -1.94849e-05 -1.12785e-06 0 -1.73265e-05 -1.03456e-06 0 -1.53429e-05 -9.52604e-07 0 -1.35126e-05 -8.80987e-07 0 -1.18158e-05 -8.188e-07 0 -1.02345e-05 -7.6522e-07 0 -8.75226e-06 -7.19528e-07 0 -7.35396e-06 -6.81104e-07 0 -6.02559e-06 -6.49428e-07 0 -4.75413e-06 -6.24072e-07 0 -3.52731e-06 -6.04694e-07 0 -2.33345e-06 -5.91034e-07 0 -1.16133e-06 -5.8291e-07 0 0 -5.80215e-07 0 8.23669e-07 2.36128e-05 0 -2.79319e-05 2.09978e-05 0 -4.99939e-05 1.44309e-05 0 -6.27724e-05 7.46231e-06 0 -6.77894e-05 2.17355e-06 0 -6.77301e-05 -1.14107e-06 0 -6.48102e-05 -2.94385e-06 0 -6.04934e-05 -3.77758e-06 0 -5.56387e-05 -4.04646e-06 0 -5.0722e-05 -4.00798e-06 0 -4.59882e-05 -3.81409e-06 0 -4.15532e-05 -3.55097e-06 0 -3.74602e-05 -3.26593e-06 0 -3.37142e-05 -2.98408e-06 0 -3.03002e-05 -2.71802e-06 0 -2.71939e-05 -2.47343e-06 0 -2.43674e-05 -2.25218e-06 0 -2.17922e-05 -2.05415e-06 0 -1.94408e-05 -1.87823e-06 0 -1.72876e-05 -1.72288e-06 0 -1.53089e-05 -1.5864e-06 0 -1.34829e-05 -1.46715e-06 0 -1.17901e-05 -1.36361e-06 0 -1.02125e-05 -1.27439e-06 0 -8.73362e-06 -1.19832e-06 0 -7.33842e-06 -1.13434e-06 0 -6.01295e-06 -1.0816e-06 0 -4.74422e-06 -1.03938e-06 0 -3.51999e-06 -1.00712e-06 0 -2.32862e-06 -9.84374e-07 0 -1.15893e-06 -9.70848e-07 0 4.63e-21 -9.6636e-07 0 1.16042e-06 3.42003e-05 0 -3.00919e-05 3.00081e-05 0 -5.29976e-05 2.02477e-05 0 -6.53069e-05 1.01649e-05 0 -6.94877e-05 2.72909e-06 0 -6.86995e-05 -1.83276e-06 0 -6.52946e-05 -4.27039e-06 0 -6.06843e-05 -5.37479e-06 0 -5.56674e-05 -5.71176e-06 0 -5.06652e-05 -5.63462e-06 0 -4.58912e-05 -5.35009e-06 0 -4.14405e-05 -4.97453e-06 0 -3.73452e-05 -4.57168e-06 0 -3.36038e-05 -4.17518e-06 0 -3.01977e-05 -3.80186e-06 0 -2.71007e-05 -3.45915e-06 0 -2.42836e-05 -3.14942e-06 0 -2.17175e-05 -2.87236e-06 0 -1.93747e-05 -2.62633e-06 0 -1.72294e-05 -2.40909e-06 0 -1.52578e-05 -2.21828e-06 0 -1.34385e-05 -2.05157e-06 0 -1.17517e-05 -1.90682e-06 0 -1.01795e-05 -1.78211e-06 0 -8.7057e-06 -1.67576e-06 0 -7.31515e-06 -1.58633e-06 0 -5.99402e-06 -1.51261e-06 0 -4.72936e-06 -1.45359e-06 0 -3.50902e-06 -1.40848e-06 0 -2.32139e-06 -1.37669e-06 0 -1.15534e-06 -1.35778e-06 0 2.83195e-20 -1.35151e-06 0 9.2165e-07 4.53401e-05 0 -3.32663e-05 3.97233e-05 0 -5.72037e-05 2.60545e-05 0 -6.8763e-05 1.25485e-05 0 -7.17189e-05 2.95604e-06 0 -6.99545e-05 -2.75972e-06 0 -6.59042e-05 -5.74243e-06 0 -6.09179e-05 -7.05515e-06 0 -5.56916e-05 -7.42151e-06 0 -5.05823e-05 -7.28347e-06 0 -4.57575e-05 -6.89565e-06 0 -4.1288e-05 -6.40084e-06 0 -3.71908e-05 -5.87654e-06 0 -3.34562e-05 -5.36362e-06 0 -3.00609e-05 -4.88223e-06 0 -2.69763e-05 -4.44118e-06 0 -2.41719e-05 -4.04303e-06 0 -2.16181e-05 -3.68713e-06 0 -1.92867e-05 -3.37122e-06 0 -1.71519e-05 -3.09237e-06 0 -1.519e-05 -2.84748e-06 0 -1.33794e-05 -2.63355e-06 0 -1.17005e-05 -2.44781e-06 0 -1.01357e-05 -2.28779e-06 0 -8.66853e-06 -2.15133e-06 0 -7.28417e-06 -2.03658e-06 0 -5.96881e-06 -1.94198e-06 0 -4.7096e-06 -1.86625e-06 0 -3.49442e-06 -1.80838e-06 0 -2.31176e-06 -1.76758e-06 0 -1.15055e-06 -1.74332e-06 0 3.1049e-21 -1.73526e-06 0 1.8048e-06 5.89591e-05 0 -3.77019e-05 5.027e-05 0 -6.28821e-05 3.1801e-05 0 -7.3143e-05 1.4455e-05 0 -7.44722e-05 2.7449e-06 0 -7.14444e-05 -3.98841e-06 0 -6.66155e-05 -7.39643e-06 0 -6.11726e-05 -8.83755e-06 0 -5.57022e-05 -9.1856e-06 0 -5.04662e-05 -8.95883e-06 0 -4.55841e-05 -8.45253e-06 0 -4.10938e-05 -7.83001e-06 0 -3.6996e-05 -7.17995e-06 0 -3.32707e-05 -6.54843e-06 0 -2.98896e-05 -5.95808e-06 0 -2.68209e-05 -5.4184e-06 0 -2.40325e-05 -4.93192e-06 0 -2.14939e-05 -4.49744e-06 0 -1.91769e-05 -4.11199e-06 0 -1.70552e-05 -3.77188e-06 0 -1.51053e-05 -3.47325e-06 0 -1.33056e-05 -3.2124e-06 0 -1.16367e-05 -2.98595e-06 0 -1.0081e-05 -2.79086e-06 0 -8.62217e-06 -2.62449e-06 0 -7.24554e-06 -2.48459e-06 0 -5.93738e-06 -2.36926e-06 0 -4.68494e-06 -2.27693e-06 0 -3.47621e-06 -2.20637e-06 0 -2.29975e-06 -2.15663e-06 0 -1.14459e-06 -2.12705e-06 0 0 -2.11723e-06 0 1.16241e-06 7.30223e-05 0 -4.39372e-05 6.21506e-05 0 -7.02083e-05 3.7286e-05 0 -7.85329e-05 1.56995e-05 0 -7.76638e-05 1.97105e-06 0 -7.31335e-05 -5.58144e-06 0 -6.73827e-05 -9.26367e-06 0 -6.14307e-05 -1.07381e-05 0 -5.56835e-05 -1.1011e-05 0 -5.03109e-05 -1.06642e-05 0 -4.53663e-05 -1.00214e-05 0 -4.0856e-05 -9.26191e-06 0 -3.67596e-05 -8.48102e-06 0 -3.30471e-05 -7.72856e-06 0 -2.96836e-05 -7.0282e-06 0 -2.66343e-05 -6.38969e-06 0 -2.38652e-05 -5.81502e-06 0 -2.13452e-05 -5.3023e-06 0 -1.90453e-05 -4.84772e-06 0 -1.69394e-05 -4.44678e-06 0 -1.50039e-05 -4.09482e-06 0 -1.32173e-05 -3.78744e-06 0 -1.15604e-05 -3.5206e-06 0 -1.00155e-05 -3.29073e-06 0 -8.56669e-06 -3.09471e-06 0 -7.1993e-06 -2.92988e-06 0 -5.89976e-06 -2.79398e-06 0 -4.65543e-06 -2.6852e-06 0 -3.45441e-06 -2.60205e-06 0 -2.28539e-06 -2.54345e-06 0 -1.13745e-06 -2.50859e-06 0 0 -2.49702e-06 0 3.23007e-06 9.34898e-05 0 -5.25857e-05 7.52802e-05 0 -7.96614e-05 4.23044e-05 0 -8.4841e-05 1.60042e-05 0 -8.12623e-05 5.13564e-07 0 -7.49272e-05 -7.59677e-06 0 -6.81763e-05 -1.13702e-05 0 -6.16587e-05 -1.27672e-05 0 -5.56249e-05 -1.29034e-05 0 -5.01062e-05 -1.24005e-05 0 -4.51008e-05 -1.16028e-05 0 -4.05717e-05 -1.06955e-05 0 -3.64807e-05 -9.77878e-06 0 -3.27845e-05 -8.9027e-06 0 -2.94427e-05 -8.09141e-06 0 -2.64165e-05 -7.35382e-06 0 -2.36704e-05 -6.69122e-06 0 -2.1172e-05 -6.10068e-06 0 -1.88923e-05 -5.5775e-06 0 -1.68048e-05 -5.11624e-06 0 -1.4886e-05 -4.71144e-06 0 -1.31147e-05 -4.35797e-06 0 -1.14716e-05 -4.05115e-06 0 -9.93935e-06 -3.78685e-06 0 -8.50218e-06 -3.56148e-06 0 -7.14554e-06 -3.37195e-06 0 -5.85602e-06 -3.2157e-06 0 -4.62112e-06 -3.09062e-06 0 -3.42907e-06 -2.99502e-06 0 -2.26867e-06 -2.92763e-06 0 -1.12915e-06 -2.88754e-06 0 0 -2.87424e-06 0 2.20293e-06 0.000113243 0 -6.49779e-05 9.07099e-05 0 -9.13898e-05 4.61962e-05 0 -9.21324e-05 1.50999e-05 0 -8.50785e-05 -1.76725e-06 0 -7.67804e-05 -1.0079e-05 0 -6.89258e-05 -1.3732e-05 0 -6.18385e-05 -1.49326e-05 0 -5.55049e-05 -1.48632e-05 0 -4.98462e-05 -1.41687e-05 0 -4.47813e-05 -1.3195e-05 0 -4.02392e-05 -1.21301e-05 0 -3.61576e-05 -1.10716e-05 0 -3.24827e-05 -1.00696e-05 0 -2.91668e-05 -9.14629e-06 0 -2.61677e-05 -8.30962e-06 0 -2.3448e-05 -7.55938e-06 0 -2.09746e-05 -6.89159e-06 0 -1.87179e-05 -6.30039e-06 0 -1.66514e-05 -5.77943e-06 0 -1.47518e-05 -5.32236e-06 0 -1.29978e-05 -4.92333e-06 0 -1.13705e-05 -4.57699e-06 0 -9.85267e-06 -4.27866e-06 0 -8.42874e-06 -4.02426e-06 0 -7.08433e-06 -3.81033e-06 0 -5.80622e-06 -3.63396e-06 0 -4.58205e-06 -3.49276e-06 0 -3.40021e-06 -3.38485e-06 0 -2.24965e-06 -3.30877e-06 0 -1.1197e-06 -3.26353e-06 0 0 -3.24851e-06 0 6.35933e-06 0.000150847 0 -8.28001e-05 0.000107319 0 -0.000105945 4.83915e-05 0 -0.000100105 1.25527e-05 0 -8.90244e-05 -4.9667e-06 0 -7.85538e-05 -1.30612e-05 0 -6.95982e-05 -1.63592e-05 0 -6.19282e-05 -1.7231e-05 0 -5.53132e-05 -1.68916e-05 0 -4.95184e-05 -1.59649e-05 0 -4.44048e-05 -1.47974e-05 0 -3.98551e-05 -1.35627e-05 0 -3.57898e-05 -1.23582e-05 0 -3.2141e-05 -1.12274e-05 0 -2.88557e-05 -1.01916e-05 0 -2.58878e-05 -9.25571e-06 0 -2.31984e-05 -8.4184e-06 0 -2.07532e-05 -7.67396e-06 0 -1.85223e-05 -7.0155e-06 0 -1.64795e-05 -6.43551e-06 0 -1.46013e-05 -5.92685e-06 0 -1.28668e-05 -5.48283e-06 0 -1.12572e-05 -5.0975e-06 0 -9.75557e-06 -4.76558e-06 0 -8.34646e-06 -4.48255e-06 0 -7.01576e-06 -4.24454e-06 0 -5.75043e-06 -4.04831e-06 0 -4.53829e-06 -3.89122e-06 0 -3.36789e-06 -3.77115e-06 0 -2.22833e-06 -3.6865e-06 0 -1.10911e-06 -3.63616e-06 0 0 -3.61945e-06 0 6.69981e-06 0.000186043 0 -0.000109216 0.000127064 0 -0.000123123 4.70709e-05 0 -0.000108641 8.14511e-06 0 -9.27811e-05 -9.21347e-06 0 -8.01951e-05 -1.65453e-05 0 -7.01056e-05 -1.92432e-05 0 -6.19125e-05 -1.96629e-05 0 -5.50255e-05 -1.89787e-05 0 -4.91181e-05 -1.7789e-05 0 -4.39647e-05 -1.64047e-05 0 -3.9418e-05 -1.49927e-05 0 -3.53755e-05 -1.36357e-05 0 -3.17591e-05 -1.23749e-05 0 -2.85094e-05 -1.12255e-05 0 -2.55771e-05 -1.01909e-05 0 -2.29216e-05 -9.26701e-06 0 -2.05079e-05 -8.44681e-06 0 -1.8306e-05 -7.72186e-06 0 -1.62894e-05 -7.0837e-06 0 -1.4435e-05 -6.52416e-06 0 -1.2722e-05 -6.03583e-06 0 -1.1132e-05 -5.61207e-06 0 -9.64821e-06 -5.24709e-06 0 -8.25549e-06 -4.93585e-06 0 -6.93994e-06 -4.67412e-06 0 -5.68873e-06 -4.45833e-06 0 -4.48989e-06 -4.28556e-06 0 -3.33214e-06 -4.15351e-06 0 -2.20476e-06 -4.06042e-06 0 -1.0974e-06 -4.00505e-06 0 0 -3.98668e-06 0 9.46696e-06 0.000277401 0 -0.000148848 0.000143817 0 -0.00014233 4.11924e-05 0 -0.000117373 1.36344e-06 0 -9.60046e-05 -1.44861e-05 0 -8.16419e-05 -2.05196e-05 0 -7.0358e-05 -2.2375e-05 0 -6.17794e-05 -2.22054e-05 0 -5.46163e-05 -2.11246e-05 0 -4.86421e-05 -1.96295e-05 0 -4.34537e-05 -1.80169e-05 0 -3.89271e-05 -1.64145e-05 0 -3.4913e-05 -1.49033e-05 0 -3.13371e-05 -1.35092e-05 0 -2.81277e-05 -1.2247e-05 0 -2.52359e-05 -1.11136e-05 0 -2.2618e-05 -1.01042e-05 0 -2.02392e-05 -9.209e-06 0 -1.8069e-05 -8.41863e-06 0 -1.60813e-05 -7.72312e-06 0 -1.42529e-05 -7.11357e-06 0 -1.25636e-05 -6.58165e-06 0 -1.0995e-05 -6.12013e-06 0 -9.53074e-06 -5.72262e-06 0 -8.15595e-06 -5.38366e-06 0 -6.85698e-06 -5.0986e-06 0 -5.62123e-06 -4.86357e-06 0 -4.43693e-06 -4.67539e-06 0 -3.29302e-06 -4.53156e-06 0 -2.17896e-06 -4.43016e-06 0 -1.08459e-06 -4.36984e-06 0 0 -4.34983e-06 0 1.29984e-05 0.000377234 0 -0.000206308 0.000158238 0 -0.000163187 2.69625e-05 0 -0.000125011 -7.44335e-06 0 -9.87229e-05 -2.08702e-05 0 -8.26201e-05 -2.49247e-05 0 -7.03808e-05 -2.57014e-05 0 -6.14609e-05 -2.48667e-05 0 -5.40919e-05 -2.32959e-05 0 -4.80727e-05 -2.14945e-05 0 -4.28731e-05 -1.96187e-05 0 -3.83779e-05 -1.7831e-05 0 -3.44027e-05 -1.61545e-05 0 -3.08741e-05 -1.46307e-05 0 -2.7711e-05 -1.3253e-05 0 -2.48641e-05 -1.20231e-05 0 -2.22878e-05 -1.09284e-05 0 -1.99473e-05 -9.95974e-06 0 -1.78118e-05 -9.10476e-06 0 -1.58555e-05 -8.35307e-06 0 -1.40554e-05 -7.69433e-06 0 -1.23917e-05 -7.11968e-06 0 -1.08464e-05 -6.62108e-06 0 -9.40334e-06 -6.19167e-06 0 -8.048e-06 -5.82548e-06 0 -6.76701e-06 -5.51753e-06 0 -5.54801e-06 -5.2636e-06 0 -4.37949e-06 -5.0603e-06 0 -3.25059e-06 -4.90489e-06 0 -2.15098e-06 -4.79533e-06 0 -1.07069e-06 -4.73016e-06 0 0 -4.70853e-06 0 1.18877e-05 0.000711918 0 -0.000286183 0.000135846 0 -0.000182891 6.68705e-06 0 -0.00013074 -1.92115e-05 0 -0.000100548 -2.79117e-05 0 -8.31439e-05 -2.9746e-05 0 -7.00288e-05 -2.91936e-05 0 -6.1002e-05 -2.75914e-05 0 -5.3395e-05 -2.55057e-05 0 -4.74316e-05 -2.33557e-05 0 -4.22029e-05 -2.12176e-05 0 -3.77789e-05 -1.92304e-05 0 -3.38388e-05 -1.73912e-05 0 -3.03732e-05 -1.57342e-05 0 -2.72578e-05 -1.42433e-05 0 -2.44631e-05 -1.29171e-05 0 -2.19312e-05 -1.17388e-05 0 -1.96329e-05 -1.06977e-05 0 -1.75347e-05 -9.7795e-06 0 -1.56124e-05 -8.97265e-06 0 -1.38428e-05 -8.26579e-06 0 -1.22067e-05 -7.64926e-06 0 -1.06864e-05 -7.11436e-06 0 -9.26621e-06 -6.65369e-06 0 -7.9318e-06 -6.26085e-06 0 -6.67015e-06 -5.93046e-06 0 -5.46919e-06 -5.65803e-06 0 -4.31765e-06 -5.43989e-06 0 -3.20491e-06 -5.27314e-06 0 -2.12086e-06 -5.15558e-06 0 -1.05573e-06 -5.08565e-06 0 0 -5.06244e-06 0 0.000267215 0.00151637 0 -0.000335051 1.5379e-05 0 -0.000243124 -1.15085e-05 0 -0.000105551 -3.55603e-05 0 -0.000117213 -3.47549e-05 0 -7.43045e-05 -3.50124e-05 0 -7.40699e-05 -3.28144e-05 0 -5.7797e-05 -3.02996e-05 0 -5.38942e-05 -2.77828e-05 0 -4.59881e-05 -2.51705e-05 0 -4.18193e-05 -2.28277e-05 0 -3.69339e-05 -2.05958e-05 0 -3.33202e-05 -1.86176e-05 0 -2.97845e-05 -1.68137e-05 0 -2.67934e-05 -1.52185e-05 0 -2.40212e-05 -1.37929e-05 0 -2.15543e-05 -1.25349e-05 0 -1.92937e-05 -1.14216e-05 0 -1.72392e-05 -1.04421e-05 0 -1.53518e-05 -9.58103e-06 0 -1.36156e-05 -8.82728e-06 0 -1.20088e-05 -8.16975e-06 0 -1.05154e-05 -7.59942e-06 0 -9.11955e-06 -7.10818e-06 0 -7.80753e-06 -6.68929e-06 0 -6.56657e-06 -6.33696e-06 0 -5.38488e-06 -6.04642e-06 0 -4.25151e-06 -5.81378e-06 0 -3.15605e-06 -5.63593e-06 0 -2.08863e-06 -5.51054e-06 0 -1.03972e-06 -5.43595e-06 0 0 -5.41119e-06 0 -0.0115794 -0.00209985 0 -0.000641008 8.0288e-05 0 0.00011587 -8.18348e-05 0 -0.000322318 -3.89416e-05 0 2.31344e-06 -4.60517e-05 0 -0.000137369 -3.95803e-05 0 -3.92008e-05 -3.62946e-05 0 -7.46247e-05 -3.34184e-05 0 -4.36988e-05 -2.97004e-05 0 -4.98769e-05 -2.7221e-05 0 -3.85815e-05 -2.42515e-05 0 -3.74321e-05 -2.20399e-05 0 -3.20507e-05 -1.9761e-05 0 -2.95027e-05 -1.79066e-05 0 -2.61255e-05 -1.6154e-05 0 -2.36318e-05 -1.46617e-05 0 -2.11137e-05 -1.33086e-05 0 -1.89505e-05 -1.2134e-05 0 -1.69167e-05 -1.10897e-05 0 -1.50781e-05 -1.01785e-05 0 -1.33725e-05 -9.37759e-06 0 -1.17989e-05 -8.68083e-06 0 -1.03333e-05 -8.07556e-06 0 -8.96362e-06 -7.55472e-06 0 -7.67538e-06 -7.1103e-06 0 -6.45638e-06 -6.73662e-06 0 -5.29524e-06 -6.42839e-06 0 -4.18114e-06 -6.18159e-06 0 -3.10408e-06 -5.9929e-06 0 -2.05435e-06 -5.85986e-06 0 -1.02269e-06 -5.78072e-06 0 0 -5.75445e-06 0 </DataArray> 
</PointData> 
<Points> 
<DataArray type="Float32" NumberOfComponents="3"> 