<?xml version="1.0"?> 
<VTKFile type="StructuredGrid" version="0.1"> 
<StructuredGrid WholeExtent="0 31 0 31 0 0"> 
<Piece Extent="0 31 0 31 0 0"> 
<PointData>
<DataArray type="Float32" Name="B" format="ascii" NumberOfComponents="3"> 
0 5.14757e-07 0 -1.01362e-07 5.14546e-07 0 -2.03151e-07 5.13785e-07 0 -3.05783e-07 5.1209e-07 0 -4.09676e-07 5.08796e-07 0 -5.15224e-07 5.02873e-07 0 -6.22827e-07 4.92898e-07 0 -7.3286e-07 4.76824e-07 0 -8.45727e-07 4.52015e-07 0 -9.61875e-07 4.14599e-07 0 -1.08176e-06 3.59922e-07 0 -1.20636e-06 2.80546e-07 0 -1.33614e-06 1.68539e-07 0 -1.47445e-06 8.94824e-09 0 -1.62066e-06 -2.10912e-07 0 -1.78783e-06 -5.23082e-07 0 -1.96722e-06 -9.44997e-07 0 -2.20978e-06 -1.55018e-06 0 -2.46485e-06 -2.35279e-06 0 -2.92748e-06 -3.53075e-06 0 -3.3614e-06 -5.06096e-06 0 -4.49729e-06 -7.38029e-06 0 -5.35289e-06 -1.03418e-05 0 -8.59901e-06 -1.49595e-05 0 -1.04793e-05 -2.09239e-05 0 -2.05149e-05 -3.0112e-05 0 -2.54678e-05 -4.33472e-05 0 -5.87998e-05 -6.11708e-05 0 -8.0485e-05 -9.77589e-05 0 -0.000216612 -0.000127456 0 -0.000547417 -0.000317591 0 -0.00276053 0.00085976 0 -1.55051e-21 6.16172e-07 0 -1.01558e-07 6.16235e-07 0 -2.0379e-07 6.163e-07 0 -3.07385e-07 6.15994e-07 0 -4.13066e-07 6.14662e-07 0 -5.21612e-07 6.11316e-07 0 -6.33888e-07 6.0456e-07 0 -7.50894e-07 5.92478e-07 0 -8.73832e-07 5.7248e-07 0 -1.00421e-06 5.41095e-07 0 -1.14401e-06 4.93682e-07 0 -1.29589e-06 4.2405e-07 0 -1.46365e-06 3.23912e-07 0 -1.65256e-06 1.82236e-07 0 -1.87081e-06 -1.58639e-08 0 -2.12965e-06 -2.90067e-07 0 -2.44824e-06 -6.67354e-07 0 -2.85156e-06 -1.18262e-06 0 -3.38721e-06 -1.88512e-06 0 -4.11203e-06 -2.83522e-06 0 -5.15013e-06 -4.1223e-06 0 -6.63478e-06 -5.8441e-06 0 -8.90292e-06 -8.15462e-06 0 -1.22884e-05 -1.11853e-05 0 -1.77429e-05 -1.51365e-05 0 -2.6236e-05 -2.00625e-05 0 -4.0627e-05 -2.56902e-05 0 -6.45333e-05 -3.09921e-05 0 -0.000107622 -2.94636e-05 0 -0.000185733 -3.34626e-06 0 -0.000303659 0.000152521 0 3.02843e-05 0.000509206 0 -1.48702e-21 7.17424e-07 0 -1.01078e-07 7.17882e-07 0 -2.03065e-07 7.19142e-07 0 -3.069e-07 7.20869e-07 0 -4.13594e-07 7.22476e-07 0 -5.24271e-07 7.2308e-07 0 -6.40226e-07 7.21444e-07 0 -7.63006e-07 7.15889e-07 0 -8.94519e-07 7.04165e-07 0 -1.0372e-06 6.83311e-07 0 -1.19421e-06 6.49418e-07 0 -1.36984e-06 5.974e-07 0 -1.56989e-06 5.20585e-07 0 -1.80254e-06 4.10378e-07 0 -2.07925e-06 2.55561e-07 0 -2.41663e-06 4.19193e-08 0 -2.83846e-06 -2.48874e-07 0 -3.38017e-06 -6.39308e-07 0 -4.09309e-06 -1.15731e-06 0 -5.0556e-06 -1.83469e-06 0 -6.38231e-06 -2.70611e-06 0 -8.25163e-06 -3.80127e-06 0 -1.09285e-05 -5.12932e-06 0 -1.48259e-05 -6.64442e-06 0 -2.05794e-05 -8.16253e-06 0 -2.91306e-05 -9.18187e-06 0 -4.20032e-05 -8.49806e-06 0 -6.09044e-05 -3.08774e-06 0 -8.79237e-05 1.36582e-05 0 -0.000117153 5.72342e-05 0 -0.000117445 0.000139922 0 -5.42106e-05 0.000281541 0 0 8.17727e-07 0 -9.96962e-08 8.18688e-07 0 -2.00502e-07 8.21476e-07 0 -3.03575e-07 8.25818e-07 0 -4.10169e-07 8.31233e-07 0 -5.21695e-07 8.3701e-07 0 -6.39801e-07 8.42157e-07 0 -7.66473e-07 8.45345e-07 0 -9.04169e-07 8.44832e-07 0 -1.05602e-06 8.38357e-07 0 -1.22607e-06 8.23035e-07 0 -1.41971e-06 7.95194e-07 0 -1.64415e-06 7.50262e-07 0 -1.9092e-06 6.82547e-07 0 -2.22842e-06 5.85233e-07 0 -2.62062e-06 4.50192e-07 0 -3.11222e-06 2.68499e-07 0 -3.7404e-06 3.07209e-08 0 -4.5581e-06 -2.70732e-07 0 -5.64026e-06 -6.39039e-07 0 -7.09423e-06 -1.06475e-06 0 -9.07167e-06 -1.51409e-06 0 -1.17873e-05 -1.90209e-06 0 -1.55383e-05 -2.0471e-06 0 -2.0717e-05 -1.58045e-06 0 -2.78125e-05 2.11724e-07 0 -3.72376e-05 4.70343e-06 0 -4.89957e-05 1.43016e-05 0 -6.09815e-05 3.31024e-05 0 -6.66127e-05 6.48897e-05 0 -5.13525e-05 0.000109918 0 3.6676e-06 0.000107419 0 -3.61243e-23 9.16082e-07 0 -9.72113e-08 9.17634e-07 0 -1.95689e-07 9.22224e-07 0 -2.96755e-07 9.29654e-07 0 -4.01848e-07 9.39584e-07 0 -5.12592e-07 9.51514e-07 0 -6.30887e-07 9.64757e-07 0 -7.5902e-07 9.78418e-07 0 -8.99815e-07 9.9135e-07 0 -1.05683e-06 1.00213e-06 0 -1.23465e-06 1.009e-06 0 -1.43921e-06 1.00991e-06 0 -1.67836e-06 1.00248e-06 0 -1.96255e-06 9.84155e-07 0 -2.30579e-06 9.52373e-07 0 -2.727e-06 9.0517e-07 0 -3.25176e-06 8.41963e-07 0 -3.91488e-06 7.65426e-07 0 -4.76338e-06 6.8419e-07 0 -5.8609e-06 6.18324e-07 0 -7.29197e-06 6.07708e-07 0 -9.16778e-06 7.27168e-07 0 -1.16275e-05 1.11117e-06 0 -1.48355e-05 1.99368e-06 0 -1.89527e-05 3.77302e-06 0 -2.40642e-05 7.10512e-06 0 -2.99852e-05 1.29986e-05 0 -3.58542e-05 2.29024e-05 0 -3.94324e-05 3.81579e-05 0 -3.63771e-05 5.9193e-05 0 -2.13217e-05 7.98883e-05 0 3.84333e-06 0.000113048 0 -3.04332e-21 1.01131e-06 0 -9.34691e-08 1.01352e-06 0 -1.88306e-07 1.02011e-06 0 -2.85939e-07 1.03096e-06 0 -3.8792e-07 1.04591e-06 0 -4.96e-07 1.06467e-06 0 -6.12221e-07 1.0869e-06 0 -7.39025e-07 1.11217e-06 0 -8.79403e-07 1.13997e-06 0 -1.03708e-06 1.16974e-06 0 -1.21678e-06 1.20089e-06 0 -1.42453e-06 1.23293e-06 0 -1.66811e-06 1.26562e-06 0 -1.95764e-06 1.29927e-06 0 -2.30629e-06 1.3352e-06 0 -2.73128e-06 1.37659e-06 0 -3.25502e-06 1.42981e-06 0 -3.90659e-06 1.50651e-06 0 -4.72331e-06 1.62708e-06 0 -5.75209e-06 1.8259e-06 0 -7.05035e-06 2.15968e-06 0 -8.68389e-06 2.72013e-06 0 -1.0721e-05 3.65199e-06 0 -1.32127e-05 5.17981e-06 0 -1.6156e-05 7.6376e-06 0 -1.94076e-05 1.14978e-05 0 -2.25507e-05 1.73661e-05 0 -2.466e-05 2.58291e-05 0 -2.41216e-05 3.71704e-05 0 -1.87084e-05 5.02988e-05 0 -6.69063e-06 6.35497e-05 0 1.20464e-05 6.10769e-05 0 -1.69767e-21 1.10212e-06 0 -8.83689e-08 1.10502e-06 0 -1.78148e-07 1.11371e-06 0 -2.70807e-07 1.12818e-06 0 -3.67939e-07 1.14839e-06 0 -4.71334e-07 1.17434e-06 0 -5.83061e-07 1.20599e-06 0 -7.05576e-07 1.24339e-06 0 -8.41849e-07 1.28663e-06 0 -9.95529e-07 1.33597e-06 0 -1.17115e-06 1.39191e-06 0 -1.3744e-06 1.45538e-06 0 -1.61242e-06 1.52797e-06 0 -1.89427e-06 1.6124e-06 0 -2.23132e-06 1.71306e-06 0 -2.6379e-06 1.83706e-06 0 -3.1318e-06 1.99558e-06 0 -3.73481e-06 2.20605e-06 0 -4.47286e-06 2.49533e-06 0 -5.37554e-06 2.90419e-06 0 -6.47376e-06 3.49386e-06 0 -7.79482e-06 4.35438e-06 0 -9.35081e-06 5.61593e-06 0 -1.11192e-05 7.4591e-06 0 -1.3004e-05 1.01235e-05 0 -1.47833e-05 1.38965e-05 0 -1.60192e-05 1.90614e-05 0 -1.60024e-05 2.57821e-05 0 -1.37129e-05 3.38061e-05 0 -8.11736e-06 4.23566e-05 0 1.40947e-06 4.91268e-05 0 1.43334e-05 5.83763e-05 0 0 1.18712e-06 0 -8.18684e-08 1.19072e-06 0 -1.6513e-07 1.20153e-06 0 -2.51234e-07 1.21964e-06 0 -3.41742e-07 1.24516e-06 0 -4.38398e-07 1.2783e-06 0 -5.43198e-07 1.31935e-06 0 -6.5848e-07 1.36878e-06 0 -7.87034e-07 1.42723e-06 0 -9.32222e-07 1.49567e-06 0 -1.09814e-06 1.57553e-06 0 -1.28979e-06 1.66888e-06 0 -1.51331e-06 1.77878e-06 0 -1.77616e-06 1.90972e-06 0 -2.08741e-06 2.06828e-06 0 -2.45788e-06 2.26403e-06 0 -2.9002e-06 2.51093e-06 0 -3.4286e-06 2.82909e-06 0 -4.05814e-06 3.24735e-06 0 -4.80286e-06 3.80656e-06 0 -5.67233e-06 4.56367e-06 0 -6.66499e-06 5.59657e-06 0 -7.75766e-06 7.00785e-06 0 -8.88705e-06 8.92696e-06 0 -9.92627e-06 1.15026e-05 0 -1.06475e-05 1.48815e-05 0 -1.06986e-05 1.91568e-05 0 -9.57641e-06 2.42699e-05 0 -6.71831e-06 2.99174e-05 0 -1.60302e-06 3.53436e-05 0 5.87382e-06 3.98492e-05 0 1.50856e-05 3.9042e-05 0 0 1.26494e-06 0 -7.3984e-08 1.26921e-06 0 -1.49289e-07 1.28208e-06 0 -2.27285e-07 1.3037e-06 0 -3.0944e-07 1.33432e-06 0 -3.97375e-07 1.37436e-06 0 -4.92926e-07 1.42438e-06 0 -5.9821e-07 1.48519e-06 0 -7.15705e-07 1.55791e-06 0 -8.48337e-07 1.64408e-06 0 -9.9958e-07 1.74581e-06 0 -1.17355e-06 1.86606e-06 0 -1.37512e-06 2.00889e-06 0 -1.60996e-06 2.17993e-06 0 -1.8846e-06 2.38701e-06 0 -2.20628e-06 2.6409e-06 0 -2.58267e-06 2.95647e-06 0 -3.02116e-06 3.35404e-06 0 -3.52755e-06 3.86113e-06 0 -4.1038e-06 4.51447e-06 0 -4.74411e-06 5.3621e-06 0 -5.4291e-06 6.46476e-06 0 -6.1166e-06 7.89609e-06 0 -6.73006e-06 9.73812e-06 0 -7.14187e-06 1.2071e-05 0 -7.16197e-06 1.49489e-05 0 -6.52429e-06 1.83619e-05 0 -4.91607e-06 2.21846e-05 0 -2.00617e-06 2.61044e-05 0 2.39937e-06 2.96547e-05 0 8.3115e-06 3.2002e-05 0 1.55714e-05 3.42081e-05 0 0 1.33422e-06 0 -6.47863e-08 1.33912e-06 0 -1.30774e-07 1.3539e-06 0 -1.99203e-07 1.37877e-06 0 -2.71393e-07 1.41411e-06 0 -3.48784e-07 1.46047e-06 0 -4.32981e-07 1.51867e-06 0 -5.25803e-07 1.58977e-06 0 -6.29329e-07 1.67524e-06 0 -7.45951e-07 1.77704e-06 0 -8.78416e-07 1.89777e-06 0 -1.02986e-06 2.04092e-06 0 -1.2038e-06 2.21114e-06 0 -1.4041e-06 2.41462e-06 0 -1.63482e-06 2.6596e-06 0 -1.89994e-06 2.957e-06 0 -2.2028e-06 3.32121e-06 0 -2.54519e-06 3.77101e-06 0 -2.92591e-06 4.33057e-06 0 -3.33844e-06 5.03035e-06 0 -3.76762e-06 5.90763e-06 0 -4.18478e-06 7.0061e-06 0 -4.54173e-06 8.3733e-06 0 -4.76278e-06 1.0055e-05 0 -4.73864e-06 1.20838e-05 0 -4.31997e-06 1.44611e-05 0 -3.32673e-06 1.71318e-05 0 -1.55873e-06 1.99529e-05 0 1.14346e-06 2.268e-05 0 4.87329e-06 2.49367e-05 0 9.53734e-06 2.63925e-05 0 1.47483e-05 2.57572e-05 0 0 1.39372e-06 0 -5.43938e-08 1.39918e-06 0 -1.0983e-07 1.41565e-06 0 -1.67381e-07 1.4434e-06 0 -2.28173e-07 1.4829e-06 0 -2.93422e-07 1.53481e-06 0 -3.64456e-07 1.60011e-06 0 -4.42744e-07 1.68006e-06 0 -5.29918e-07 1.77636e-06 0 -6.27788e-07 1.89121e-06 0 -7.38343e-07 2.02751e-06 0 -8.63722e-07 2.18898e-06 0 -1.00615e-06 2.38048e-06 0 -1.1678e-06 2.60825e-06 0 -1.35056e-06 2.88034e-06 0 -1.55563e-06 3.20702e-06 0 -1.78291e-06 3.60127e-06 0 -2.03005e-06 4.07931e-06 0 -2.29103e-06 4.66097e-06 0 -2.55425e-06 5.36982e-06 0 -2.79983e-06 6.23277e-06 0 -2.9963e-06 7.27846e-06 0 -3.09662e-06 8.53416e-06 0 -3.03473e-06 1.00198e-05 0 -2.72246e-06 1.17389e-05 0 -2.05238e-06 1.36659e-05 0 -9.0258e-07 1.57304e-05 0 8.38983e-07 1.7804e-05 0 3.25846e-06 1.96888e-05 0 6.35591e-06 2.11422e-05 0 1.0051e-05 2.1833e-05 0 1.42126e-05 2.19477e-05 0 0 1.44232e-06 0 -4.29635e-08 1.44825e-06 0 -8.67825e-08 1.46616e-06 0 -1.3233e-07 1.49634e-06 0 -1.80516e-07 1.53931e-06 0 -2.32299e-07 1.59583e-06 0 -2.88705e-07 1.66696e-06 0 -3.50829e-07 1.75409e-06 0 -4.19841e-07 1.85902e-06 0 -4.96968e-07 1.98409e-06 0 -5.83462e-07 2.13225e-06 0 -6.80534e-07 2.30725e-06 0 -7.89236e-07 2.51384e-06 0 -9.10286e-07 2.75795e-06 0 -1.04378e-06 3.04697e-06 0 -1.18875e-06 3.39001e-06 0 -1.34258e-06 3.79817e-06 0 -1.50014e-06 4.28464e-06 0 -1.65256e-06 4.86475e-06 0 -1.78577e-06 5.55557e-06 0 -1.87859e-06 6.37497e-06 0 -1.9006e-06 7.33975e-06 0 -1.8102e-06 8.46238e-06 0 -1.55302e-06 9.74625e-06 0 -1.06268e-06 1.11787e-05 0 -2.63266e-07 1.27231e-05 0 9.2062e-07 1.43098e-05 0 2.55408e-06 1.58299e-05 0 4.6647e-06 1.71372e-05 0 7.23652e-06 1.80491e-05 0 1.01675e-05 1.84045e-05 0 1.32342e-05 1.78131e-05 0 0 1.47908e-06 0 -3.06809e-08 1.48539e-06 0 -6.20119e-08 1.50443e-06 0 -9.4651e-08 1.53652e-06 0 -1.29272e-07 1.58221e-06 0 -1.66566e-07 1.6423e-06 0 -2.07247e-07 1.71789e-06 0 -2.52037e-07 1.8104e-06 0 -3.01655e-07 1.92167e-06 0 -3.56776e-07 2.05401e-06 0 -4.17981e-07 2.2103e-06 0 -4.8566e-07 2.39414e-06 0 -5.59875e-07 2.60992e-06 0 -6.40162e-07 2.86302e-06 0 -7.25234e-07 3.1599e-06 0 -8.12582e-07 3.50827e-06 0 -8.97925e-07 3.91712e-06 0 -9.74492e-07 4.39664e-06 0 -1.03211e-06 4.95797e-06 0 -1.05613e-06 5.61259e-06 0 -1.02621e-06 6.37115e-06 0 -9.15211e-07 7.24167e-06 0 -6.88292e-07 8.22679e-06 0 -3.03125e-07 9.32004e-06 0 2.88899e-07 1.05012e-05 0 1.13817e-06 1.17314e-05 0 2.29127e-06 1.29484e-05 0 3.77837e-06 1.40655e-05 0 5.60574e-06 1.49724e-05 0 7.73359e-06 1.55487e-05 0 1.00815e-05 1.56593e-05 0 1.25393e-05 1.53173e-05 0 6.26127e-22 1.50325e-06 0 -1.77497e-08 1.50983e-06 0 -3.59357e-08 1.52969e-06 0 -5.49938e-08 1.56314e-06 0 -7.53569e-08 1.61075e-06 0 -9.745e-08 1.67333e-06 0 -1.21679e-07 1.75195e-06 0 -1.48412e-07 1.84803e-06 0 -1.77948e-07 1.96334e-06 0 -2.1047e-07 2.10008e-06 0 -2.45973e-07 2.26096e-06 0 -2.84162e-07 2.44925e-06 0 -3.24309e-07 2.66888e-06 0 -3.65052e-07 2.92451e-06 0 -4.04125e-07 3.22156e-06 0 -4.38008e-07 3.56627e-06 0 -4.61476e-07 3.96556e-06 0 -4.67041e-07 4.42689e-06 0 -4.44307e-07 4.9578e-06 0 -3.79268e-07 5.56525e-06 0 -2.53642e-07 6.2545e-06 0 -4.43748e-08 7.02749e-06 0 2.76367e-07 7.88078e-06 0 7.40553e-07 8.80278e-06 0 1.38217e-06 9.77083e-06 0 2.2341e-06 1.07484e-05 0 3.32191e-06 1.16833e-05 0 4.65842e-06 1.25077e-05 0 6.23264e-06 1.31421e-05 0 8.00804e-06 1.35005e-05 0 9.90836e-06 1.3511e-05 0 1.18092e-05 1.30615e-05 0 5.36303e-21 1.51429e-06 0 -4.38215e-09 1.52103e-06 0 -8.98721e-09 1.54138e-06 0 -1.40303e-08 1.57565e-06 0 -1.97093e-08 1.62439e-06 0 -2.61918e-08 1.68836e-06 0 -3.35963e-08 1.76862e-06 0 -4.19651e-08 1.8665e-06 0 -5.12257e-08 1.98366e-06 0 -6.11357e-08 2.12212e-06 0 -7.12069e-08 2.28432e-06 0 -8.06025e-08 2.47315e-06 0 -8.79981e-08 2.69198e-06 0 -9.14014e-08 2.9447e-06 0 -8.79198e-08 3.2357e-06 0 -7.34723e-08 3.56976e-06 0 -4.24422e-08 3.95199e-06 0 1.27195e-08 4.38747e-06 0 1.01919e-07 4.88083e-06 0 2.37818e-07 5.43559e-06 0 4.36133e-07 6.05319e-06 0 7.15681e-07 6.73168e-06 0 1.09804e-06 7.4642e-06 0 1.6065e-06 8.2371e-06 0 2.26428e-06 9.02824e-06 0 3.09139e-06 9.80553e-06 0 4.10106e-06 1.05265e-05 0 5.29407e-06 1.11396e-05 0 6.65554e-06 1.1587e-05 0 8.14741e-06 1.18119e-05 0 9.71186e-06 1.17618e-05 0 1.12763e-05 1.14326e-05 0 9.53889e-22 1.51186e-06 0 9.2096e-09 1.51867e-06 0 1.84022e-08 1.5392e-06 0 2.7574e-08 1.57374e-06 0 3.67497e-08 1.62282e-06 0 4.60009e-08 1.68716e-06 0 5.54698e-08 1.76773e-06 0 6.54016e-08 1.86576e-06 0 7.61868e-08 1.98274e-06 0 8.8418e-08 2.12049e-06 0 1.02964e-07 2.28113e-06 0 1.21069e-07 2.46712e-06 0 1.44471e-07 2.68127e-06 0 1.75563e-07 2.92671e-06 0 2.17577e-07 3.20681e-06 0 2.74807e-07 3.52511e-06 0 3.52858e-07 3.88511e-06 0 4.58911e-07 4.28997e-06 0 6.01966e-07 4.7421e-06 0 7.93026e-07 5.24253e-06 0 1.04515e-06 5.79015e-06 0 1.37326e-06 6.38072e-06 0 1.79359e-06 7.00579e-06 0 2.32271e-06 7.65152e-06 0 2.97577e-06 8.29773e-06 0 3.76438e-06 8.91735e-06 0 4.69348e-06 9.47667e-06 0 5.75868e-06 9.9368e-06 0 6.94223e-06 1.02567e-05 0 8.21287e-06 1.03972e-05 0 9.52215e-06 1.03292e-05 0 1.08045e-05 1.00242e-05 0 0 1.49585e-06 0 2.28206e-08 1.50262e-06 0 4.5817e-08 1.52302e-06 0 6.91821e-08 1.55734e-06 0 9.31451e-08 1.60603e-06 0 1.17993e-07 1.66977e-06 0 1.44097e-07 1.74943e-06 0 1.71949e-07 1.8461e-06 0 2.02199e-07 1.96112e-06 0 2.35719e-07 2.09603e-06 0 2.73661e-07 2.25264e-06 0 3.17551e-07 2.433e-06 0 3.69391e-07 2.63933e-06 0 4.31784e-07 2.87407e-06 0 5.08079e-07 3.13971e-06 0 6.0253e-07 3.4387e-06 0 7.20467e-07 3.77324e-06 0 8.68444e-07 4.14499e-06 0 1.05436e-06 4.55472e-06 0 1.2875e-06 5.00177e-06 0 1.57842e-06 5.48345e-06 0 1.93866e-06 5.99436e-06 0 2.38017e-06 6.52565e-06 0 2.91434e-06 7.06429e-06 0 3.55068e-06 7.59269e-06 0 4.29508e-06 8.08857e-06 0 5.14794e-06 8.52557e-06 0 6.10179e-06 8.8747e-06 0 7.14026e-06 9.10665e-06 0 8.23592e-06 9.19547e-06 0 9.35259e-06 9.12154e-06 0 1.04483e-05 8.88349e-06 0 0 1.46634e-06 0 3.62586e-08 1.47297e-06 0 7.28689e-08 1.49297e-06 0 1.10202e-07 1.52658e-06 0 1.4867e-07 1.57422e-06 0 1.88748e-07 1.63649e-06 0 2.31004e-07 1.71415e-06 0 2.76132e-07 1.80815e-06 0 3.24992e-07 1.91964e-06 0 3.78659e-07 2.04991e-06 0 4.38489e-07 2.20046e-06 0 5.06184e-07 2.37291e-06 0 5.83884e-07 2.56901e-06 0 6.74256e-07 2.79053e-06 0 7.80605e-07 3.03923e-06 0 9.06978e-07 3.31666e-06 0 1.05826e-06 3.624e-06 0 1.24027e-06 3.96181e-06 0 1.45976e-06 4.32969e-06 0 1.72436e-06 4.72591e-06 0 2.04244e-06 5.14693e-06 0 2.42273e-06 5.58694e-06 0 2.87379e-06 6.03736e-06 0 3.40321e-06 6.48652e-06 0 4.01655e-06 6.91947e-06 0 4.71613e-06 7.3182e-06 0 5.49961e-06 7.6623e-06 0 6.35886e-06 7.9302e-06 0 7.27874e-06 8.10113e-06 0 8.23744e-06 8.15741e-06 0 9.20616e-06 8.08779e-06 0 1.01505e-05 7.88649e-06 0 1.13676e-21 1.42357e-06 0 4.93483e-08 1.42999e-06 0 9.92048e-08 1.44934e-06 0 1.50098e-07 1.48183e-06 0 2.026e-07 1.52783e-06 0 2.57346e-07 1.58785e-06 0 3.15068e-07 1.66256e-06 0 3.76621e-07 1.75276e-06 0 4.43022e-07 1.85939e-06 0 5.15496e-07 1.98354e-06 0 5.95524e-07 2.12639e-06 0 6.84903e-07 2.28919e-06 0 7.85811e-07 2.47324e-06 0 9.00877e-07 2.67979e-06 0 1.03325e-06 2.90996e-06 0 1.18667e-06 3.1646e-06 0 1.3655e-06 3.44413e-06 0 1.57478e-06 3.74832e-06 0 1.82016e-06 4.07602e-06 0 2.10781e-06 4.42486e-06 0 2.44422e-06 4.79096e-06 0 2.83586e-06 5.16856e-06 0 3.28871e-06 5.54978e-06 0 3.80759e-06 5.92442e-06 0 4.39541e-06 6.28006e-06 0 5.05223e-06 6.60227e-06 0 5.77444e-06 6.87533e-06 0 6.55389e-06 7.08323e-06 0 7.37764e-06 7.21114e-06 0 8.22769e-06 7.24718e-06 0 9.0823e-06 7.18402e-06 0 9.91776e-06 7.0221e-06 0 4.77742e-21 1.36797e-06 0 6.19332e-08 1.37411e-06 0 1.24511e-07 1.39259e-06 0 1.88398e-07 1.42359e-06 0 2.543e-07 1.46743e-06 0 3.2299e-07 1.52455e-06 0 3.95328e-07 1.59549e-06 0 4.72295e-07 1.68094e-06 0 5.55023e-07 1.78166e-06 0 6.44832e-07 1.8985e-06 0 7.43273e-07 2.03237e-06 0 8.5217e-07 2.18422e-06 0 9.7367e-07 2.35495e-06 0 1.11029e-06 2.54538e-06 0 1.26496e-06 2.75614e-06 0 1.44105e-06 2.98754e-06 0 1.6424e-06 3.23946e-06 0 1.87329e-06 3.51112e-06 0 2.13835e-06 3.80093e-06 0 2.4425e-06 4.10625e-06 0 2.79069e-06 4.42314e-06 0 3.1876e-06 4.74619e-06 0 3.63727e-06 5.06837e-06 0 4.14257e-06 5.381e-06 0 4.70463e-06 5.67384e-06 0 5.32221e-06 5.93543e-06 0 5.99113e-06 6.15369e-06 0 6.70387e-06 6.31672e-06 0 7.44933e-06 6.41388e-06 0 8.21318e-06 6.437e-06 0 8.97833e-06 6.3817e-06 0 9.72598e-06 6.24768e-06 0 3.87719e-22 1.30013e-06 0 7.38772e-08 1.30591e-06 0 1.48515e-07 1.32333e-06 0 2.24692e-07 1.35253e-06 0 3.03229e-07 1.39377e-06 0 3.85005e-07 1.44743e-06 0 4.70984e-07 1.51395e-06 0 5.6224e-07 1.59387e-06 0 6.59981e-07 1.68781e-06 0 7.65583e-07 1.79642e-06 0 8.8062e-07 1.92037e-06 0 1.0069e-06 2.06035e-06 0 1.14648e-06 2.21693e-06 0 1.30173e-06 2.3906e-06 0 1.47532e-06 2.5816e-06 0 1.67025e-06 2.78987e-06 0 1.88984e-06 3.01489e-06 0 2.13765e-06 3.25559e-06 0 2.41747e-06 3.51013e-06 0 2.73312e-06 3.77581e-06 0 3.08832e-06 4.04887e-06 0 3.48638e-06 4.3244e-06 0 3.9299e-06 4.59627e-06 0 4.42039e-06 4.85716e-06 0 4.95783e-06 5.09875e-06 0 5.54026e-06 5.31196e-06 0 6.16342e-06 5.48751e-06 0 6.82052e-06 5.6165e-06 0 7.50226e-06 5.69124e-06 0 8.19699e-06 5.70611e-06 0 8.89149e-06 5.65828e-06 0 9.5719e-06 5.5486e-06 0 0 1.22072e-06 0 8.50641e-08 1.22611e-06 0 1.70985e-07 1.2423e-06 0 2.58637e-07 1.26944e-06 0 3.48932e-07 1.30773e-06 0 4.42835e-07 1.35747e-06 0 5.41388e-07 1.41902e-06 0 6.45728e-07 1.4928e-06 0 7.57112e-07 1.57929e-06 0 8.76939e-07 1.67898e-06 0 1.00677e-06 1.79235e-06 0 1.14836e-06 1.91984e-06 0 1.30367e-06 2.0618e-06 0 1.47488e-06 2.21844e-06 0 1.6644e-06 2.38973e-06 0 1.87485e-06 2.57534e-06 0 2.10907e-06 2.77454e-06 0 2.37002e-06 2.98606e-06 0 2.66073e-06 3.20802e-06 0 2.98414e-06 3.4378e-06 0 3.34298e-06 3.67193e-06 0 3.73952e-06 3.90607e-06 0 4.17531e-06 4.13496e-06 0 4.65094e-06 4.35252e-06 0 5.16565e-06 4.55199e-06 0 5.71714e-06 4.72623e-06 0 6.30131e-06 4.86807e-06 0 6.91216e-06 4.97085e-06 0 7.54185e-06 5.02897e-06 0 8.18098e-06 5.03846e-06 0 8.81901e-06 4.99757e-06 0 9.44493e-06 4.90691e-06 0 0 1.13057e-06 0 9.53974e-08 1.1355e-06 0 1.9173e-07 1.15035e-06 0 2.8995e-07 1.1752e-06 0 3.91039e-07 1.21024e-06 0 4.96031e-07 1.2557e-06 0 6.06023e-07 1.31185e-06 0 7.22196e-07 1.37903e-06 0 8.45829e-07 1.45758e-06 0 9.7832e-07 1.54786e-06 0 1.1212e-06 1.65019e-06 0 1.27615e-06 1.76483e-06 0 1.44501e-06 1.89195e-06 0 1.62976e-06 2.03157e-06 0 1.83257e-06 2.18346e-06 0 2.05571e-06 2.34714e-06 0 2.30159e-06 2.52175e-06 0 2.57263e-06 2.70596e-06 0 2.87124e-06 2.89796e-06 0 3.19965e-06 3.09528e-06 0 3.55981e-06 3.29483e-06 0 3.95322e-06 3.49284e-06 0 4.38068e-06 3.68486e-06 0 4.84212e-06 3.86589e-06 0 5.33638e-06 4.03046e-06 0 5.86102e-06 4.17296e-06 0 6.41221e-06 4.28787e-06 0 6.98468e-06 4.37015e-06 0 7.57183e-06 4.41568e-06 0 8.16595e-06 4.42165e-06 0 8.75862e-06 4.3869e-06 0 9.34125e-06 4.31214e-06 0 0 1.03055e-06 0 1.04798e-07 1.035e-06 0 2.10594e-07 1.04839e-06 0 3.184e-07 1.0708e-06 0 4.29256e-07 1.10235e-06 0 5.44242e-07 1.14324e-06 0 6.64496e-07 1.19367e-06 0 7.91222e-07 1.25389e-06 0 9.25709e-07 1.32415e-06 0 1.06934e-06 1.40468e-06 0 1.22359e-06 1.49569e-06 0 1.39006e-06 1.59731e-06 0 1.57047e-06 1.70958e-06 0 1.76661e-06 1.83236e-06 0 1.98042e-06 1.96535e-06 0 2.21385e-06 2.10794e-06 0 2.46894e-06 2.25925e-06 0 2.74766e-06 2.41799e-06 0 3.05189e-06 2.58245e-06 0 3.38332e-06 2.75041e-06 0 3.7433e-06 2.91917e-06 0 4.13273e-06 3.0855e-06 0 4.55188e-06 3.2457e-06 0 5.00027e-06 3.39566e-06 0 5.47649e-06 3.53103e-06 0 5.97811e-06 3.64738e-06 0 6.50159e-06 3.74044e-06 0 7.04233e-06 3.80641e-06 0 7.5947e-06 3.84223e-06 0 8.15235e-06 3.84588e-06 0 8.70838e-06 3.81657e-06 0 9.25579e-06 3.75491e-06 0 0 9.21632e-07 0 1.13203e-07 9.25575e-07 0 2.27452e-07 9.37425e-07 0 3.43808e-07 9.57245e-07 0 4.63351e-07 9.85138e-07 0 5.87197e-07 1.02124e-06 0 7.16509e-07 1.0657e-06 0 8.52505e-07 1.11871e-06 0 9.96465e-07 1.18043e-06 0 1.14975e-06 1.25101e-06 0 1.31378e-06 1.33056e-06 0 1.49007e-06 1.41913e-06 0 1.6802e-06 1.51665e-06 0 1.88582e-06 1.62292e-06 0 2.10863e-06 1.73756e-06 0 2.35034e-06 1.85997e-06 0 2.61264e-06 1.98925e-06 0 2.89713e-06 2.12423e-06 0 3.2053e-06 2.26334e-06 0 3.53836e-06 2.40466e-06 0 3.89723e-06 2.54586e-06 0 4.28237e-06 2.68423e-06 0 4.69369e-06 2.81673e-06 0 5.13042e-06 2.94002e-06 0 5.59102e-06 3.05065e-06 0 6.07315e-06 3.14515e-06 0 6.57356e-06 3.22023e-06 0 7.08819e-06 3.27299e-06 0 7.61224e-06 3.30117e-06 0 8.14034e-06 3.30328e-06 0 8.66678e-06 3.2788e-06 0 9.18584e-06 3.22821e-06 0 0 8.04838e-07 0 1.20563e-07 8.08248e-07 0 2.42209e-07 8.18496e-07 0 3.66034e-07 8.35628e-07 0 4.93149e-07 8.5972e-07 0 6.24696e-07 8.90872e-07 0 7.61851e-07 9.29196e-07 0 9.05834e-07 9.74813e-07 0 1.05792e-06 1.02783e-06 0 1.21942e-06 1.08835e-06 0 1.39171e-06 1.1564e-06 0 1.57624e-06 1.23197e-06 0 1.77445e-06 1.31494e-06 0 1.98785e-06 1.40508e-06 0 2.21795e-06 1.50198e-06 0 2.46623e-06 1.60506e-06 0 2.73411e-06 1.7135e-06 0 3.0229e-06 1.82625e-06 0 3.33374e-06 1.94195e-06 0 3.66753e-06 2.05896e-06 0 4.02481e-06 2.17531e-06 0 4.40573e-06 2.28879e-06 0 4.80995e-06 2.39692e-06 0 5.23653e-06 2.49705e-06 0 5.68389e-06 2.58644e-06 0 6.14976e-06 2.66241e-06 0 6.63118e-06 2.72242e-06 0 7.12454e-06 2.7643e-06 0 7.62567e-06 2.78634e-06 0 8.12997e-06 2.78745e-06 0 8.63263e-06 2.76728e-06 0 9.12879e-06 2.7262e-06 0 0 6.81228e-07 0 1.2684e-07 6.84089e-07 0 2.54791e-07 6.92687e-07 0 3.84974e-07 7.07055e-07 0 5.18523e-07 7.27247e-07 0 6.56594e-07 7.53334e-07 0 8.00372e-07 7.85395e-07 0 9.51074e-07 8.23509e-07 0 1.10995e-06 8.67744e-07 0 1.2783e-06 9.18144e-07 0 1.45744e-06 9.74712e-07 0 1.64872e-06 1.03739e-06 0 1.85351e-06 1.10605e-06 0 2.07318e-06 1.18043e-06 0 2.30907e-06 1.26017e-06 0 2.56249e-06 1.34473e-06 0 2.83464e-06 1.43341e-06 0 3.12658e-06 1.52528e-06 0 3.4392e-06 1.61922e-06 0 3.77312e-06 1.71385e-06 0 4.12865e-06 1.8076e-06 0 4.5057e-06 1.89867e-06 0 4.90375e-06 1.9851e-06 0 5.32176e-06 2.06482e-06 0 5.75813e-06 2.13569e-06 0 6.21071e-06 2.19567e-06 0 6.67676e-06 2.24284e-06 0 7.15304e-06 2.27555e-06 0 7.63588e-06 2.29256e-06 0 8.12126e-06 2.29305e-06 0 8.60501e-06 2.27677e-06 0 9.08296e-06 2.24402e-06 0 0 5.51898e-07 0 1.32007e-07 5.54199e-07 0 2.65145e-07 5.61112e-07 0 4.00552e-07 5.72659e-07 0 5.39378e-07 5.88881e-07 0 6.8279e-07 6.09823e-07 0 8.31974e-07 6.35539e-07 0 9.88143e-07 6.66079e-07 0 1.15253e-06 7.0148e-07 0 1.3264e-06 7.41759e-07 0 1.51102e-06 7.86896e-07 0 1.70769e-06 8.36821e-07 0 1.91768e-06 8.91396e-07 0 2.14227e-06 9.50399e-07 0 2.38266e-06 1.0135e-06 0 2.64001e-06 1.08026e-06 0 2.91534e-06 1.15008e-06 0 3.20954e-06 1.22221e-06 0 3.5233e-06 1.29575e-06 0 3.85704e-06 1.36961e-06 0 4.21088e-06 1.44255e-06 0 4.58459e-06 1.51318e-06 0 4.9775e-06 1.58e-06 0 5.38853e-06 1.64143e-06 0 5.81608e-06 1.69587e-06 0 6.25809e-06 1.74179e-06 0 6.71203e-06 1.77776e-06 0 7.17494e-06 1.8026e-06 0 7.64351e-06 1.81537e-06 0 8.11417e-06 1.8155e-06 0 8.58322e-06 1.80281e-06 0 9.04698e-06 1.77753e-06 0 0 4.17967e-07 0 1.36043e-07 4.197e-07 0 2.73231e-07 4.24903e-07 0 4.12714e-07 4.33592e-07 0 5.55652e-07 4.45794e-07 0 7.03217e-07 4.61538e-07 0 8.56597e-07 4.80858e-07 0 1.017e-06 5.03784e-07 0 1.18563e-06 5.30334e-07 0 1.36374e-06 5.60509e-07 0 1.55257e-06 5.94281e-07 0 1.75333e-06 6.31585e-07 0 1.96726e-06 6.72301e-07 0 2.19554e-06 7.16248e-07 0 2.43928e-06 7.63165e-07 0 2.69951e-06 8.12701e-07 0 2.97714e-06 8.64403e-07 0 3.27291e-06 9.17704e-07 0 3.58737e-06 9.7192e-07 0 3.9208e-06 1.02625e-06 0 4.27319e-06 1.07977e-06 0 4.64418e-06 1.13148e-06 0 5.03306e-06 1.18028e-06 0 5.43868e-06 1.22503e-06 0 5.85948e-06 1.26459e-06 0 6.29348e-06 1.29788e-06 0 6.73828e-06 1.32388e-06 0 7.19114e-06 1.34177e-06 0 7.64903e-06 1.35089e-06 0 8.10868e-06 1.35084e-06 0 8.56675e-06 1.34151e-06 0 9.0199e-06 1.32305e-06 0 0 2.80574e-07 0 1.38935e-07 2.81732e-07 0 2.79024e-07 2.85209e-07 0 4.21424e-07 2.91015e-07 0 5.67302e-07 2.99165e-07 0 7.17833e-07 3.09677e-07 0 8.74203e-07 3.2257e-07 0 1.03761e-06 3.37861e-07 0 1.20926e-06 3.55557e-07 0 1.39038e-06 3.75654e-07 0 1.58216e-06 3.98127e-07 0 1.78581e-06 4.22925e-07 0 2.00249e-06 4.49963e-07 0 2.23333e-06 4.79111e-07 0 2.47938e-06 5.10189e-07 0 2.74158e-06 5.42957e-07 0 3.02076e-06 5.77109e-07 0 3.31756e-06 6.12263e-07 0 3.63242e-06 6.47964e-07 0 3.96554e-06 6.83681e-07 0 4.31682e-06 7.1881e-07 0 4.68583e-06 7.52688e-07 0 5.07181e-06 7.84605e-07 0 5.47359e-06 8.13825e-07 0 5.88963e-06 8.39615e-07 0 6.318e-06 8.61272e-07 0 6.75642e-06 8.7816e-07 0 7.20229e-06 8.89742e-07 0 7.65275e-06 8.95611e-07 0 8.10478e-06 8.95516e-07 0 8.55523e-06 8.89381e-07 0 9.00101e-06 8.77302e-07 0 0 1.40867e-07 0 1.40673e-07 1.41446e-07 0 2.82505e-07 1.43187e-07 0 4.26659e-07 1.46094e-07 0 5.74302e-07 1.50173e-07 0 7.26611e-07 1.55433e-07 0 8.84772e-07 1.61884e-07 0 1.04998e-06 1.69531e-07 0 1.22343e-06 1.78377e-07 0 1.40634e-06 1.88419e-07 0 1.59988e-06 1.99642e-07 0 1.80524e-06 2.12019e-07 0 2.02355e-06 2.25505e-07 0 2.2559e-06 2.40033e-07 0 2.5033e-06 2.55511e-07 0 2.76665e-06 2.71818e-07 0 3.04672e-06 2.88799e-07 0 3.3441e-06 3.06262e-07 0 3.65917e-06 3.2398e-07 0 3.99207e-06 3.41689e-07 0 4.34265e-06 3.59089e-07 0 4.71046e-06 3.75852e-07 0 5.09469e-06 3.91629e-07 0 5.49417e-06 4.06058e-07 0 5.90738e-06 4.1878e-07 0 6.33242e-06 4.29452e-07 0 6.76707e-06 4.37764e-07 0 7.20881e-06 4.43456e-07 0 7.65491e-06 4.46329e-07 0 8.10244e-06 4.46262e-07 0 8.54842e-06 4.43219e-07 0 8.98985e-06 4.37246e-07 0 0 -0 0 1.41253e-07 9.3926e-22 0 2.83667e-07 -1.50591e-21 0 4.28405e-07 -1.65556e-21 0 5.76636e-07 -0 0 7.29538e-07 -0 0 8.88296e-07 -0 0 1.0541e-06 -0 0 1.22816e-06 -0 0 1.41165e-06 -0 0 1.60578e-06 7.9152e-22 0 1.81171e-06 1.25113e-20 0 2.03056e-06 2.17195e-21 0 2.26341e-06 -1.5943e-20 0 2.51125e-06 -3.57737e-21 0 2.77498e-06 -0 0 3.05534e-06 -0 0 3.3529e-06 -0 0 3.66803e-06 -5.85806e-21 0 4.00085e-06 -2.79446e-20 0 4.3512e-06 -2.5952e-21 0 4.71861e-06 -0 0 5.10225e-06 -0 0 5.50097e-06 -0 0 5.91324e-06 1.67889e-20 0 6.33717e-06 3.939e-20 0 6.77057e-06 8.34336e-22 0 7.21096e-06 -0 0 7.65561e-06 -0 0 8.10166e-06 -0 0 8.54616e-06 -0 0 8.98616e-06 -0 0 </DataArray> 
</PointData> 
<Points> 
<DataArray type="Float32" NumberOfComponents="3"> 