<?xml version="1.0"?> 
<VTKFile type="StructuredGrid" version="0.1"> 
<StructuredGrid WholeExtent="0 31 0 31 0 0"> 
<Piece Extent="0 31 0 31 0 0"> 
<PointData>
<DataArray type="Float32" Name="B" format="ascii" NumberOfComponents="3"> 
0 -4.52869e-06 0 -8.1388e-07 -4.54699e-06 0 -1.63437e-06 -4.60202e-06 0 -2.46828e-06 -4.69418e-06 0 -3.32231e-06 -4.82419e-06 0 -4.20373e-06 -4.99291e-06 0 -5.11963e-06 -5.20162e-06 0 -6.07805e-06 -5.45145e-06 0 -7.08702e-06 -5.74426e-06 0 -8.15508e-06 -6.08073e-06 0 -9.29373e-06 -6.46373e-06 0 -1.05075e-05 -6.89135e-06 0 -1.18246e-05 -7.3693e-06 0 -1.32188e-05 -7.8865e-06 0 -1.47978e-05 -8.45885e-06 0 -1.63768e-05 -9.04585e-06 0 -1.8421e-05 -9.69944e-06 0 -2.00264e-05 -1.02893e-05 0 -2.31811e-05 -1.09854e-05 0 -2.39521e-05 -1.13964e-05 0 -3.05119e-05 -1.20436e-05 0 -2.68053e-05 -1.1838e-05 0 -4.51244e-05 -1.21955e-05 0 -2.2888e-05 -1.0461e-05 0 -8.30035e-05 -9.62579e-06 0 8.8412e-06 -5.08607e-06 0 -0.000198203 1.46587e-06 0 0.000137712 7.2254e-06 0 -0.000567355 4.65231e-05 0 0.000473988 1.6405e-05 0 -0.00114316 0.00044672 0 -0.0259916 -0.00265133 0 3.21271e-20 -4.25578e-06 0 -8.25703e-07 -4.27296e-06 0 -1.65814e-06 -4.32464e-06 0 -2.50411e-06 -4.41119e-06 0 -3.37056e-06 -4.53323e-06 0 -4.26459e-06 -4.69162e-06 0 -5.19367e-06 -4.8874e-06 0 -6.16554e-06 -5.12178e-06 0 -7.18848e-06 -5.39603e-06 0 -8.27136e-06 -5.71141e-06 0 -9.4234e-06 -6.06896e-06 0 -1.0656e-05 -6.4694e-06 0 -1.19781e-05 -6.9123e-06 0 -1.34093e-05 -7.39667e-06 0 -1.49494e-05 -7.91759e-06 0 -1.66501e-05 -8.47032e-06 0 -1.84598e-05 -9.0374e-06 0 -2.05621e-05 -9.60806e-06 0 -2.26692e-05 -1.01301e-05 0 -2.55009e-05 -1.05881e-05 0 -2.77786e-05 -1.08338e-05 0 -3.23376e-05 -1.08619e-05 0 -3.39714e-05 -1.02746e-05 0 -4.35941e-05 -9.08309e-06 0 -4.11103e-05 -6.3657e-06 0 -6.72757e-05 -1.68692e-06 0 -4.79886e-05 6.15951e-06 0 -0.000130532 2.31012e-05 0 -5.69494e-05 4.54513e-05 0 -0.000333286 0.000134525 0 -0.000356631 0.000304513 0 0.00266391 0.00394229 0 2.47425e-20 -3.97906e-06 0 -8.36792e-07 -3.99511e-06 0 -1.6804e-06 -4.04339e-06 0 -2.5377e-06 -4.12425e-06 0 -3.4157e-06 -4.23825e-06 0 -4.32161e-06 -4.38616e-06 0 -5.2629e-06 -4.56893e-06 0 -6.24741e-06 -4.78762e-06 0 -7.28337e-06 -5.04335e-06 0 -8.37956e-06 -5.33716e-06 0 -9.54545e-06 -5.6699e-06 0 -1.07911e-05 -6.04178e-06 0 -1.21281e-05 -6.45245e-06 0 -1.3568e-05 -6.89937e-06 0 -1.51271e-05 -7.37905e-06 0 -1.68165e-05 -7.88142e-06 0 -1.86669e-05 -8.39619e-06 0 -2.06799e-05 -8.89354e-06 0 -2.29329e-05 -9.34999e-06 0 -2.53794e-05 -9.68408e-06 0 -2.82588e-05 -9.84807e-06 0 -3.13325e-05 -9.62694e-06 0 -3.539e-05 -8.91921e-06 0 -3.95177e-05 -7.17837e-06 0 -4.63065e-05 -4.08488e-06 0 -5.27173e-05 1.66489e-06 0 -6.69882e-05 1.18034e-05 0 -8.0398e-05 2.94702e-05 0 -0.000118272 6.78148e-05 0 -0.000162498 0.000145726 0 -0.000234634 0.000476963 0 0.00103762 0.00132967 0 0 -3.69876e-06 0 -8.47122e-07 -3.71368e-06 0 -1.70113e-06 -3.75853e-06 0 -2.56898e-06 -3.83363e-06 0 -3.45775e-06 -3.9395e-06 0 -4.3747e-06 -4.07683e-06 0 -5.32735e-06 -4.24647e-06 0 -6.32355e-06 -4.44934e-06 0 -7.37155e-06 -4.68644e-06 0 -8.48008e-06 -4.95859e-06 0 -9.65844e-06 -5.26644e-06 0 -1.09166e-05 -5.60994e-06 0 -1.22654e-05 -5.98833e-06 0 -1.37165e-05 -6.39884e-06 0 -1.52833e-05 -6.83702e-06 0 -1.698e-05 -7.29285e-06 0 -1.88247e-05 -7.75329e-06 0 -2.08356e-05 -8.18999e-06 0 -2.30443e-05 -8.5708e-06 0 -2.54727e-05 -8.82083e-06 0 -2.81985e-05 -8.86526e-06 0 -3.12357e-05 -8.50989e-06 0 -3.48346e-05 -7.57474e-06 0 -3.892e-05 -5.56036e-06 0 -4.44005e-05 -1.94582e-06 0 -5.07159e-05 4.54274e-06 0 -6.12215e-05 1.60616e-05 0 -7.31448e-05 3.61902e-05 0 -9.77863e-05 7.83716e-05 0 -0.000117415 0.000163305 0 -7.53456e-05 0.000428382 0 0.000616764 0.00048117 0 4.04015e-22 -3.41516e-06 0 -8.56688e-07 -3.42892e-06 0 -1.72033e-06 -3.4703e-06 0 -2.59795e-06 -3.53959e-06 0 -3.49667e-06 -3.63726e-06 0 -4.42382e-06 -3.76391e-06 0 -5.38696e-06 -3.92031e-06 0 -6.39395e-06 -4.10727e-06 0 -7.45302e-06 -4.32562e-06 0 -8.57285e-06 -4.57607e-06 0 -9.76259e-06 -4.85898e-06 0 -1.1032e-05 -5.17424e-06 0 -1.23914e-05 -5.52055e-06 0 -1.3852e-05 -5.89533e-06 0 -1.54258e-05 -6.29274e-06 0 -1.71257e-05 -6.70408e-06 0 -1.89668e-05 -7.11214e-06 0 -2.09644e-05 -7.49372e-06 0 -2.31411e-05 -7.80351e-06 0 -2.55154e-05 -7.98377e-06 0 -2.8136e-05 -7.91937e-06 0 -3.10216e-05 -7.4664e-06 0 -3.43204e-05 -6.33166e-06 0 -3.80172e-05 -4.13608e-06 0 -4.26417e-05 -1.00596e-07 0 -4.79186e-05 6.9025e-06 0 -5.57364e-05 1.92533e-05 0 -6.40577e-05 4.12052e-05 0 -7.7644e-05 8.29755e-05 0 -7.47771e-05 0.000168304 0 1.07454e-05 0.00033521 0 0.000366188 0.000324708 0 2.82434e-20 -3.12849e-06 0 -8.65482e-07 -3.14109e-06 0 -1.73798e-06 -3.17898e-06 0 -2.62457e-06 -3.24241e-06 0 -3.53244e-06 -3.33179e-06 0 -4.46895e-06 -3.44769e-06 0 -5.4417e-06 -3.59075e-06 0 -6.45856e-06 -3.7617e-06 0 -7.52774e-06 -3.96124e-06 0 -8.65785e-06 -4.18991e-06 0 -9.85789e-06 -4.44796e-06 0 -1.11374e-05 -4.73501e-06 0 -1.25062e-05 -5.04971e-06 0 -1.39749e-05 -5.38901e-06 0 -1.55543e-05 -5.7473e-06 0 -1.72559e-05 -6.11475e-06 0 -1.90913e-05 -6.47526e-06 0 -2.10738e-05 -6.80255e-06 0 -2.32149e-05 -7.05479e-06 0 -2.55331e-05 -7.1655e-06 0 -2.80397e-05 -7.02858e-06 0 -3.07719e-05 -6.47632e-06 0 -3.37428e-05 -5.23527e-06 0 -3.70544e-05 -2.86684e-06 0 -4.0727e-05 1.37079e-06 0 -4.50167e-05 8.72965e-06 0 -4.98284e-05 2.1465e-05 0 -5.50543e-05 4.38321e-05 0 -5.73778e-05 8.42325e-05 0 -4.12134e-05 0.000158655 0 5.64466e-05 0.000266817 0 0.00028619 0.000217702 0 1.31195e-20 -2.83903e-06 0 -8.73497e-07 -2.85046e-06 0 -1.75406e-06 -2.88482e-06 0 -2.64883e-06 -2.94234e-06 0 -3.56502e-06 -3.02339e-06 0 -4.51005e-06 -3.12845e-06 0 -5.49154e-06 -3.2581e-06 0 -6.51736e-06 -3.41296e-06 0 -7.5957e-06 -3.59361e-06 0 -8.73508e-06 -3.80049e-06 0 -9.94438e-06 -4.03368e-06 0 -1.12328e-05 -4.29272e-06 0 -1.26099e-05 -4.57607e-06 0 -1.40854e-05 -4.88063e-06 0 -1.56692e-05 -5.20062e-06 0 -1.7371e-05 -5.52635e-06 0 -1.91999e-05 -5.84146e-06 0 -2.11646e-05 -6.12023e-06 0 -2.32713e-05 -6.32015e-06 0 -2.55256e-05 -6.37612e-06 0 -2.79272e-05 -6.17975e-06 0 -3.04781e-05 -5.56589e-06 0 -3.31627e-05 -4.25417e-06 0 -3.59837e-05 -1.81024e-06 0 -3.8875e-05 2.51838e-06 0 -4.18047e-05 9.96044e-06 0 -4.43209e-05 2.2668e-05 0 -4.54228e-05 4.45091e-05 0 -4.02404e-05 8.17835e-05 0 -1.33006e-05 0.000143639 0 7.84374e-05 0.000211254 0 0.000231672 0.000181423 0 0 -2.54703e-06 0 -8.80726e-07 -2.55728e-06 0 -1.76857e-06 -2.58809e-06 0 -2.6707e-06 -2.63966e-06 0 -3.59441e-06 -2.71231e-06 0 -4.54711e-06 -2.80647e-06 0 -5.53646e-06 -2.92264e-06 0 -6.57033e-06 -3.06135e-06 0 -7.65688e-06 -3.22307e-06 0 -8.80455e-06 -3.40813e-06 0 -1.00221e-05 -3.61654e-06 0 -1.13184e-05 -3.84769e-06 0 -1.27027e-05 -4.10005e-06 0 -1.4184e-05 -4.37046e-06 0 -1.57711e-05 -4.65329e-06 0 -1.7472e-05 -4.93893e-06 0 -1.92934e-05 -5.21172e-06 0 -2.12397e-05 -5.4461e-06 0 -2.33109e-05 -5.60166e-06 0 -2.55021e-05 -5.61319e-06 0 -2.77975e-05 -5.37783e-06 0 -3.01704e-05 -4.7288e-06 0 -3.25658e-05 -3.39972e-06 0 -3.49066e-05 -9.53096e-07 0 -3.70154e-05 3.32357e-06 0 -3.86297e-05 1.0623e-05 0 -3.8955e-05 2.29021e-05 0 -3.63554e-05 4.34307e-05 0 -2.52924e-05 7.67367e-05 0 7.67213e-06 0.00012596 0 8.94746e-05 0.000170186 0 0.000203976 0.000142996 0 0 -2.25276e-06 0 -8.87166e-07 -2.26182e-06 0 -1.78149e-06 -2.28905e-06 0 -2.69019e-06 -2.33464e-06 0 -3.62057e-06 -2.39885e-06 0 -4.5801e-06 -2.48205e-06 0 -5.57643e-06 -2.58468e-06 0 -6.61745e-06 -2.70718e-06 0 -7.71127e-06 -2.84993e-06 0 -8.86627e-06 -3.01318e-06 0 -1.0091e-05 -3.19685e-06 0 -1.13943e-05 -3.40031e-06 0 -1.27847e-05 -3.622e-06 0 -1.42707e-05 -3.85888e-06 0 -1.58602e-05 -4.10556e-06 0 -1.75596e-05 -4.35291e-06 0 -1.9373e-05 -4.58597e-06 0 -2.13008e-05 -4.78069e-06 0 -2.33372e-05 -4.89842e-06 0 -2.54669e-05 -4.87768e-06 0 -2.7659e-05 -4.61985e-06 0 -2.98597e-05 -3.96718e-06 0 -3.1975e-05 -2.66426e-06 0 -3.38519e-05 -2.98089e-07 0 -3.5212e-05 3.80522e-06 0 -3.55768e-05 1.07397e-05 0 -3.39104e-05 2.22409e-05 0 -2.8086e-05 4.09342e-05 0 -1.27152e-05 6.97302e-05 0 2.32207e-05 0.000108244 0 9.49111e-05 0.000137051 0 0.00018375 0.000117305 0 0 -1.95647e-06 0 -8.9281e-07 -1.96434e-06 0 -1.79282e-06 -1.98798e-06 0 -2.70726e-06 -2.02754e-06 0 -3.6435e-06 -2.08327e-06 0 -4.609e-06 -2.15548e-06 0 -5.61144e-06 -2.24452e-06 0 -6.6587e-06 -2.35075e-06 0 -7.75886e-06 -2.47451e-06 0 -8.92023e-06 -2.61595e-06 0 -1.01512e-05 -2.77495e-06 0 -1.14604e-05 -2.95087e-06 0 -1.2856e-05 -3.14224e-06 0 -1.4346e-05 -3.34618e-06 0 -1.59372e-05 -3.5577e-06 0 -1.76345e-05 -3.76835e-06 0 -1.94398e-05 -3.96438e-06 0 -2.13498e-05 -4.12353e-06 0 -2.33529e-05 -4.21031e-06 0 -2.54245e-05 -4.16773e-06 0 -2.75191e-05 -3.90505e-06 0 -2.95579e-05 -3.27579e-06 0 -3.14094e-05 -2.04498e-06 0 -3.28529e-05 1.68944e-07 0 -3.35142e-05 3.97791e-06 0 -3.2739e-05 1.03588e-05 0 -2.92998e-05 2.07898e-05 0 -2.08092e-05 3.72851e-05 0 -2.35169e-06 6.15107e-05 0 3.45528e-05 9.11274e-05 0 9.74982e-05 0.000110337 0 0.00016995 9.39528e-05 0 0 -1.65844e-06 0 -8.97655e-07 -1.6651e-06 0 -1.80254e-06 -1.68513e-06 0 -2.72192e-06 -1.71866e-06 0 -3.66317e-06 -1.76587e-06 0 -4.6338e-06 -1.82703e-06 0 -5.64148e-06 -1.90244e-06 0 -6.69408e-06 -1.99238e-06 0 -7.79966e-06 -2.09712e-06 0 -8.96645e-06 -2.21677e-06 0 -1.02028e-05 -2.35117e-06 0 -1.15169e-05 -2.49971e-06 0 -1.29169e-05 -2.66105e-06 0 -1.441e-05 -2.8326e-06 0 -1.60023e-05 -3.00987e-06 0 -1.76973e-05 -3.18534e-06 0 -1.94948e-05 -3.34673e-06 0 -2.13883e-05 -3.47424e-06 0 -2.33608e-05 -3.53615e-06 0 -2.53793e-05 -3.48179e-06 0 -2.73847e-05 -3.2299e-06 0 -2.92765e-05 -2.65006e-06 0 -3.08871e-05 -1.53217e-06 0 -3.19391e-05 4.61792e-07 0 -3.19687e-05 3.87087e-06 0 -3.01893e-05 9.53322e-06 0 -2.52204e-05 1.86653e-05 0 -1.46052e-05 3.27481e-05 0 5.99587e-06 5.25489e-05 0 4.27333e-05 7.50181e-05 0 9.86276e-05 8.77903e-05 0 0.000159343 7.49183e-05 0 0 -1.35893e-06 0 -9.01698e-07 -1.36438e-06 0 -1.81065e-06 -1.38079e-06 0 -2.73415e-06 -1.40825e-06 0 -3.67959e-06 -1.44692e-06 0 -4.65449e-06 -1.497e-06 0 -5.66653e-06 -1.55874e-06 0 -6.72357e-06 -1.63237e-06 0 -7.83365e-06 -1.71808e-06 0 -9.00495e-06 -1.81594e-06 0 -1.02457e-05 -1.9258e-06 0 -1.15639e-05 -2.04712e-06 0 -1.29674e-05 -2.17871e-06 0 -1.4463e-05 -2.31835e-06 0 -1.60559e-05 -2.4622e-06 0 -1.77487e-05 -2.60382e-06 0 -1.95391e-05 -2.73273e-06 0 -2.14179e-05 -2.83202e-06 0 -2.33634e-05 -2.87464e-06 0 -2.53351e-05 -2.81725e-06 0 -2.72623e-05 -2.59046e-06 0 -2.9025e-05 -2.08272e-06 0 -3.04251e-05 -1.11482e-06 0 -3.11355e-05 6.00675e-07 0 -3.06187e-05 3.51728e-06 0 -2.79829e-05 8.326e-06 0 -2.17495e-05 1.59865e-05 0 -9.48469e-06 2.75419e-05 0 1.2535e-05 4.31938e-05 0 4.85982e-05 5.98882e-05 0 9.89792e-05 6.83874e-05 0 0.000151641 5.82523e-05 0 0 -1.0582e-06 0 -9.04936e-07 -1.06245e-06 0 -1.81714e-06 -1.07522e-06 0 -2.74394e-06 -1.0966e-06 0 -3.69273e-06 -1.1267e-06 0 -4.67104e-06 -1.16568e-06 0 -5.68657e-06 -1.21372e-06 0 -6.74717e-06 -1.27101e-06 0 -7.86085e-06 -1.33768e-06 0 -9.03573e-06 -1.41378e-06 0 -1.02799e-05 -1.49916e-06 0 -1.16014e-05 -1.59338e-06 0 -1.30077e-05 -1.69546e-06 0 -1.45051e-05 -1.80362e-06 0 -1.60984e-05 -1.91474e-06 0 -1.77891e-05 -2.02364e-06 0 -1.95735e-05 -2.12191e-06 0 -2.14398e-05 -2.19594e-06 0 -2.33627e-05 -2.22396e-06 0 -2.52954e-05 -2.17112e-06 0 -2.71573e-05 -1.98153e-06 0 -2.88127e-05 -1.56546e-06 0 -3.00375e-05 -7.78793e-07 0 -3.04651e-05 6.08476e-07 0 -2.94977e-05 2.95653e-06 0 -2.61675e-05 6.80358e-06 0 -1.89327e-05 1.28687e-05 0 -5.43999e-06 2.18511e-05 0 1.74877e-05 3.36508e-05 0 5.27208e-05 4.56388e-05 0 9.8969e-05 5.11825e-05 0 0.000145816 4.3559e-05 0 -9.45326e-22 -7.56533e-07 0 -9.07366e-07 -7.5957e-07 0 -1.82202e-06 -7.687e-07 0 -2.75129e-06 -7.83977e-07 0 -3.70259e-06 -8.05488e-07 0 -4.68347e-06 -8.33346e-07 0 -5.70162e-06 -8.67678e-07 0 -6.76488e-06 -9.08609e-07 0 -7.88125e-06 -9.56234e-07 0 -9.0588e-06 -1.01058e-06 0 -1.03056e-05 -1.07153e-06 0 -1.16295e-05 -1.13875e-06 0 -1.30378e-05 -1.21152e-06 0 -1.45366e-05 -1.28853e-06 0 -1.61301e-05 -1.36748e-06 0 -1.7819e-05 -1.4446e-06 0 -1.95987e-05 -1.5137e-06 0 -2.14553e-05 -1.56483e-06 0 -2.33605e-05 -1.58206e-06 0 -2.52631e-05 -1.53984e-06 0 -2.70744e-05 -1.39723e-06 0 -2.86467e-05 -1.08849e-06 0 -2.97363e-05 -5.08196e-07 0 -2.99458e-05 5.11435e-07 0 -2.86335e-05 2.23125e-06 0 -2.47772e-05 5.03534e-06 0 -1.68015e-05 9.42021e-06 0 -2.44234e-06 1.58228e-05 0 2.10346e-05 2.40402e-05 0 5.55116e-05 3.20907e-05 0 9.88141e-05 3.55419e-05 0 0.000141807 3.02326e-05 0 -4.82571e-21 -4.5419e-07 0 -9.08987e-07 -4.56013e-07 0 -1.82527e-06 -4.61493e-07 0 -2.75619e-06 -4.70663e-07 0 -3.70917e-06 -4.83575e-07 0 -4.69176e-06 -5.00295e-07 0 -5.71165e-06 -5.209e-07 0 -6.77668e-06 -5.45463e-07 0 -7.89484e-06 -5.74039e-07 0 -9.07418e-06 -6.06639e-07 0 -1.03227e-05 -6.43195e-07 0 -1.16482e-05 -6.83495e-07 0 -1.30578e-05 -7.27101e-07 0 -1.45575e-05 -7.73203e-07 0 -1.6151e-05 -8.20409e-07 0 -1.78388e-05 -8.66406e-07 0 -1.96152e-05 -9.07425e-07 0 -2.14651e-05 -9.37399e-07 0 -2.33583e-05 -9.46603e-07 0 -2.52402e-05 -9.19457e-07 0 -2.70172e-05 -8.30979e-07 0 -2.85328e-05 -6.41068e-07 0 -2.95303e-05 -2.85451e-07 0 -2.95918e-05 3.37892e-07 0 -2.80462e-05 1.38684e-06 0 -2.38373e-05 3.09141e-06 0 -1.53732e-05 5.74203e-06 0 -4.63783e-07 9.57531e-06 0 2.33195e-05 1.44187e-05 0 5.72375e-05 1.90508e-05 0 9.86519e-05 2.09326e-05 0 0.000139187 1.77899e-05 0 -2.8665e-22 -1.51442e-07 0 -9.09797e-07 -1.52049e-07 0 -1.8269e-06 -1.53877e-07 0 -2.75864e-06 -1.56934e-07 0 -3.71246e-06 -1.61239e-07 0 -4.6959e-06 -1.66813e-07 0 -5.71666e-06 -1.73682e-07 0 -6.78259e-06 -1.81871e-07 0 -7.90164e-06 -1.91396e-07 0 -9.08187e-06 -2.02262e-07 0 -1.03313e-05 -2.14445e-07 0 -1.16576e-05 -2.27873e-07 0 -1.30678e-05 -2.42398e-07 0 -1.45679e-05 -2.57749e-07 0 -1.61615e-05 -2.73456e-07 0 -1.78486e-05 -2.88742e-07 0 -1.96233e-05 -3.02341e-07 0 -2.14698e-05 -3.12214e-07 0 -2.3357e-05 -3.15092e-07 0 -2.52284e-05 -3.05739e-07 0 -2.69879e-05 -2.75757e-07 0 -2.84749e-05 -2.11669e-07 0 -2.94258e-05 -9.18838e-08 0 -2.94125e-05 1.17834e-07 0 -2.77493e-05 4.70325e-07 0 -2.33635e-05 1.04216e-06 0 -1.46571e-05 1.92885e-06 0 5.19125e-07 3.20494e-06 0 2.4438e-05 4.80465e-06 0 5.80619e-05 6.31632e-06 0 9.8554e-05 6.91341e-06 0 0.000137937 5.87909e-06 0 0 1.51442e-07 0 -9.09797e-07 1.52049e-07 0 -1.8269e-06 1.53877e-07 0 -2.75864e-06 1.56934e-07 0 -3.71246e-06 1.61239e-07 0 -4.6959e-06 1.66813e-07 0 -5.71666e-06 1.73682e-07 0 -6.78259e-06 1.81871e-07 0 -7.90164e-06 1.91396e-07 0 -9.08187e-06 2.02262e-07 0 -1.03313e-05 2.14445e-07 0 -1.16576e-05 2.27873e-07 0 -1.30678e-05 2.42398e-07 0 -1.45679e-05 2.57749e-07 0 -1.61615e-05 2.73456e-07 0 -1.78486e-05 2.88742e-07 0 -1.96233e-05 3.02341e-07 0 -2.14698e-05 3.12214e-07 0 -2.3357e-05 3.15092e-07 0 -2.52284e-05 3.05739e-07 0 -2.69879e-05 2.75757e-07 0 -2.84749e-05 2.11669e-07 0 -2.94258e-05 9.18838e-08 0 -2.94125e-05 -1.17834e-07 0 -2.77493e-05 -4.70325e-07 0 -2.33635e-05 -1.04216e-06 0 -1.46571e-05 -1.92885e-06 0 5.19125e-07 -3.20494e-06 0 2.4438e-05 -4.80465e-06 0 5.80619e-05 -6.31632e-06 0 9.8554e-05 -6.91341e-06 0 0.000137937 -5.87909e-06 0 0 4.5419e-07 0 -9.08987e-07 4.56013e-07 0 -1.82527e-06 4.61493e-07 0 -2.75619e-06 4.70663e-07 0 -3.70917e-06 4.83575e-07 0 -4.69176e-06 5.00295e-07 0 -5.71165e-06 5.209e-07 0 -6.77668e-06 5.45463e-07 0 -7.89484e-06 5.74039e-07 0 -9.07418e-06 6.06639e-07 0 -1.03227e-05 6.43195e-07 0 -1.16482e-05 6.83495e-07 0 -1.30578e-05 7.27101e-07 0 -1.45575e-05 7.73203e-07 0 -1.6151e-05 8.20409e-07 0 -1.78388e-05 8.66406e-07 0 -1.96152e-05 9.07425e-07 0 -2.14651e-05 9.37399e-07 0 -2.33583e-05 9.46603e-07 0 -2.52402e-05 9.19457e-07 0 -2.70172e-05 8.30979e-07 0 -2.85328e-05 6.41068e-07 0 -2.95303e-05 2.85451e-07 0 -2.95918e-05 -3.37892e-07 0 -2.80462e-05 -1.38684e-06 0 -2.38373e-05 -3.09141e-06 0 -1.53732e-05 -5.74203e-06 0 -4.63783e-07 -9.57531e-06 0 2.33195e-05 -1.44187e-05 0 5.72375e-05 -1.90508e-05 0 9.86519e-05 -2.09326e-05 0 0.000139187 -1.77899e-05 0 1.81234e-21 7.56533e-07 0 -9.07366e-07 7.5957e-07 0 -1.82202e-06 7.687e-07 0 -2.75129e-06 7.83977e-07 0 -3.70259e-06 8.05488e-07 0 -4.68347e-06 8.33346e-07 0 -5.70162e-06 8.67678e-07 0 -6.76488e-06 9.08609e-07 0 -7.88125e-06 9.56234e-07 0 -9.0588e-06 1.01058e-06 0 -1.03056e-05 1.07153e-06 0 -1.16295e-05 1.13875e-06 0 -1.30378e-05 1.21152e-06 0 -1.45366e-05 1.28853e-06 0 -1.61301e-05 1.36748e-06 0 -1.7819e-05 1.4446e-06 0 -1.95987e-05 1.5137e-06 0 -2.14553e-05 1.56483e-06 0 -2.33605e-05 1.58206e-06 0 -2.52631e-05 1.53984e-06 0 -2.70744e-05 1.39723e-06 0 -2.86467e-05 1.08849e-06 0 -2.97363e-05 5.08196e-07 0 -2.99458e-05 -5.11435e-07 0 -2.86335e-05 -2.23125e-06 0 -2.47772e-05 -5.03534e-06 0 -1.68015e-05 -9.42021e-06 0 -2.44234e-06 -1.58228e-05 0 2.10346e-05 -2.40402e-05 0 5.55116e-05 -3.20907e-05 0 9.88141e-05 -3.55419e-05 0 0.000141807 -3.02326e-05 0 1.10868e-20 1.0582e-06 0 -9.04936e-07 1.06245e-06 0 -1.81714e-06 1.07522e-06 0 -2.74394e-06 1.0966e-06 0 -3.69273e-06 1.1267e-06 0 -4.67104e-06 1.16568e-06 0 -5.68657e-06 1.21372e-06 0 -6.74717e-06 1.27101e-06 0 -7.86085e-06 1.33768e-06 0 -9.03573e-06 1.41378e-06 0 -1.02799e-05 1.49916e-06 0 -1.16014e-05 1.59338e-06 0 -1.30077e-05 1.69546e-06 0 -1.45051e-05 1.80362e-06 0 -1.60984e-05 1.91474e-06 0 -1.77891e-05 2.02364e-06 0 -1.95735e-05 2.12191e-06 0 -2.14398e-05 2.19594e-06 0 -2.33627e-05 2.22396e-06 0 -2.52954e-05 2.17112e-06 0 -2.71573e-05 1.98153e-06 0 -2.88127e-05 1.56546e-06 0 -3.00375e-05 7.78793e-07 0 -3.04651e-05 -6.08476e-07 0 -2.94977e-05 -2.95653e-06 0 -2.61675e-05 -6.80358e-06 0 -1.89327e-05 -1.28687e-05 0 -5.43999e-06 -2.18511e-05 0 1.74877e-05 -3.36508e-05 0 5.27208e-05 -4.56388e-05 0 9.8969e-05 -5.11825e-05 0 0.000145816 -4.3559e-05 0 1.21576e-21 1.35893e-06 0 -9.01698e-07 1.36438e-06 0 -1.81065e-06 1.38079e-06 0 -2.73415e-06 1.40825e-06 0 -3.67959e-06 1.44692e-06 0 -4.65449e-06 1.497e-06 0 -5.66653e-06 1.55874e-06 0 -6.72357e-06 1.63237e-06 0 -7.83365e-06 1.71808e-06 0 -9.00495e-06 1.81594e-06 0 -1.02457e-05 1.9258e-06 0 -1.15639e-05 2.04712e-06 0 -1.29674e-05 2.17871e-06 0 -1.4463e-05 2.31835e-06 0 -1.60559e-05 2.4622e-06 0 -1.77487e-05 2.60382e-06 0 -1.95391e-05 2.73273e-06 0 -2.14179e-05 2.83202e-06 0 -2.33634e-05 2.87464e-06 0 -2.53351e-05 2.81725e-06 0 -2.72623e-05 2.59046e-06 0 -2.9025e-05 2.08272e-06 0 -3.04251e-05 1.11482e-06 0 -3.11355e-05 -6.00675e-07 0 -3.06187e-05 -3.51728e-06 0 -2.79829e-05 -8.326e-06 0 -2.17495e-05 -1.59865e-05 0 -9.48469e-06 -2.75419e-05 0 1.2535e-05 -4.31938e-05 0 4.85982e-05 -5.98882e-05 0 9.89792e-05 -6.83874e-05 0 0.000151641 -5.82523e-05 0 0 1.65844e-06 0 -8.97655e-07 1.6651e-06 0 -1.80254e-06 1.68513e-06 0 -2.72192e-06 1.71866e-06 0 -3.66317e-06 1.76587e-06 0 -4.6338e-06 1.82703e-06 0 -5.64148e-06 1.90244e-06 0 -6.69408e-06 1.99238e-06 0 -7.79966e-06 2.09712e-06 0 -8.96645e-06 2.21677e-06 0 -1.02028e-05 2.35117e-06 0 -1.15169e-05 2.49971e-06 0 -1.29169e-05 2.66105e-06 0 -1.441e-05 2.8326e-06 0 -1.60023e-05 3.00987e-06 0 -1.76973e-05 3.18534e-06 0 -1.94948e-05 3.34673e-06 0 -2.13883e-05 3.47424e-06 0 -2.33608e-05 3.53615e-06 0 -2.53793e-05 3.48179e-06 0 -2.73847e-05 3.2299e-06 0 -2.92765e-05 2.65006e-06 0 -3.08871e-05 1.53217e-06 0 -3.19391e-05 -4.61792e-07 0 -3.19687e-05 -3.87087e-06 0 -3.01893e-05 -9.53322e-06 0 -2.52204e-05 -1.86653e-05 0 -1.46052e-05 -3.27481e-05 0 5.99587e-06 -5.25489e-05 0 4.27333e-05 -7.50181e-05 0 9.86276e-05 -8.77903e-05 0 0.000159343 -7.49183e-05 0 0 1.95647e-06 0 -8.9281e-07 1.96434e-06 0 -1.79282e-06 1.98798e-06 0 -2.70726e-06 2.02754e-06 0 -3.6435e-06 2.08327e-06 0 -4.609e-06 2.15548e-06 0 -5.61144e-06 2.24452e-06 0 -6.6587e-06 2.35075e-06 0 -7.75886e-06 2.47451e-06 0 -8.92023e-06 2.61595e-06 0 -1.01512e-05 2.77495e-06 0 -1.14604e-05 2.95087e-06 0 -1.2856e-05 3.14224e-06 0 -1.4346e-05 3.34618e-06 0 -1.59372e-05 3.5577e-06 0 -1.76345e-05 3.76835e-06 0 -1.94398e-05 3.96438e-06 0 -2.13498e-05 4.12353e-06 0 -2.33529e-05 4.21031e-06 0 -2.54245e-05 4.16773e-06 0 -2.75191e-05 3.90505e-06 0 -2.95579e-05 3.27579e-06 0 -3.14094e-05 2.04498e-06 0 -3.28529e-05 -1.68944e-07 0 -3.35142e-05 -3.97791e-06 0 -3.2739e-05 -1.03588e-05 0 -2.92998e-05 -2.07898e-05 0 -2.08092e-05 -3.72851e-05 0 -2.35169e-06 -6.15107e-05 0 3.45528e-05 -9.11274e-05 0 9.74982e-05 -0.000110337 0 0.00016995 -9.39528e-05 0 0 2.25276e-06 0 -8.87166e-07 2.26182e-06 0 -1.78149e-06 2.28905e-06 0 -2.69019e-06 2.33464e-06 0 -3.62057e-06 2.39885e-06 0 -4.5801e-06 2.48205e-06 0 -5.57643e-06 2.58468e-06 0 -6.61745e-06 2.70718e-06 0 -7.71127e-06 2.84993e-06 0 -8.86627e-06 3.01318e-06 0 -1.0091e-05 3.19685e-06 0 -1.13943e-05 3.40031e-06 0 -1.27847e-05 3.622e-06 0 -1.42707e-05 3.85888e-06 0 -1.58602e-05 4.10556e-06 0 -1.75596e-05 4.35291e-06 0 -1.9373e-05 4.58597e-06 0 -2.13008e-05 4.78069e-06 0 -2.33372e-05 4.89842e-06 0 -2.54669e-05 4.87768e-06 0 -2.7659e-05 4.61985e-06 0 -2.98597e-05 3.96718e-06 0 -3.1975e-05 2.66426e-06 0 -3.38519e-05 2.98089e-07 0 -3.5212e-05 -3.80522e-06 0 -3.55768e-05 -1.07397e-05 0 -3.39104e-05 -2.22409e-05 0 -2.8086e-05 -4.09342e-05 0 -1.27152e-05 -6.97302e-05 0 2.32207e-05 -0.000108244 0 9.49111e-05 -0.000137051 0 0.00018375 -0.000117305 0 0 2.54703e-06 0 -8.80726e-07 2.55728e-06 0 -1.76857e-06 2.58809e-06 0 -2.6707e-06 2.63966e-06 0 -3.59441e-06 2.71231e-06 0 -4.54711e-06 2.80647e-06 0 -5.53646e-06 2.92264e-06 0 -6.57033e-06 3.06135e-06 0 -7.65688e-06 3.22307e-06 0 -8.80455e-06 3.40813e-06 0 -1.00221e-05 3.61654e-06 0 -1.13184e-05 3.84769e-06 0 -1.27027e-05 4.10005e-06 0 -1.4184e-05 4.37046e-06 0 -1.57711e-05 4.65329e-06 0 -1.7472e-05 4.93893e-06 0 -1.92934e-05 5.21172e-06 0 -2.12397e-05 5.4461e-06 0 -2.33109e-05 5.60166e-06 0 -2.55021e-05 5.61319e-06 0 -2.77975e-05 5.37783e-06 0 -3.01704e-05 4.7288e-06 0 -3.25658e-05 3.39972e-06 0 -3.49066e-05 9.53096e-07 0 -3.70154e-05 -3.32357e-06 0 -3.86297e-05 -1.0623e-05 0 -3.8955e-05 -2.29021e-05 0 -3.63554e-05 -4.34307e-05 0 -2.52924e-05 -7.67367e-05 0 7.67213e-06 -0.00012596 0 8.94746e-05 -0.000170186 0 0.000203976 -0.000142996 0 0 2.83903e-06 0 -8.73497e-07 2.85046e-06 0 -1.75406e-06 2.88482e-06 0 -2.64883e-06 2.94234e-06 0 -3.56502e-06 3.02339e-06 0 -4.51005e-06 3.12845e-06 0 -5.49154e-06 3.2581e-06 0 -6.51736e-06 3.41296e-06 0 -7.5957e-06 3.59361e-06 0 -8.73508e-06 3.80049e-06 0 -9.94438e-06 4.03368e-06 0 -1.12328e-05 4.29272e-06 0 -1.26099e-05 4.57607e-06 0 -1.40854e-05 4.88063e-06 0 -1.56692e-05 5.20062e-06 0 -1.7371e-05 5.52635e-06 0 -1.91999e-05 5.84146e-06 0 -2.11646e-05 6.12023e-06 0 -2.32713e-05 6.32015e-06 0 -2.55256e-05 6.37612e-06 0 -2.79272e-05 6.17975e-06 0 -3.04781e-05 5.56589e-06 0 -3.31627e-05 4.25417e-06 0 -3.59837e-05 1.81024e-06 0 -3.8875e-05 -2.51838e-06 0 -4.18047e-05 -9.96044e-06 0 -4.43209e-05 -2.2668e-05 0 -4.54228e-05 -4.45091e-05 0 -4.02404e-05 -8.17835e-05 0 -1.33006e-05 -0.000143639 0 7.84374e-05 -0.000211254 0 0.000231672 -0.000181423 0 0 3.12849e-06 0 -8.65482e-07 3.14109e-06 0 -1.73798e-06 3.17898e-06 0 -2.62457e-06 3.24241e-06 0 -3.53244e-06 3.33179e-06 0 -4.46895e-06 3.44769e-06 0 -5.4417e-06 3.59075e-06 0 -6.45856e-06 3.7617e-06 0 -7.52774e-06 3.96124e-06 0 -8.65785e-06 4.18991e-06 0 -9.85789e-06 4.44796e-06 0 -1.11374e-05 4.73501e-06 0 -1.25062e-05 5.04971e-06 0 -1.39749e-05 5.38901e-06 0 -1.55543e-05 5.7473e-06 0 -1.72559e-05 6.11475e-06 0 -1.90913e-05 6.47526e-06 0 -2.10738e-05 6.80255e-06 0 -2.32149e-05 7.05479e-06 0 -2.55331e-05 7.1655e-06 0 -2.80397e-05 7.02858e-06 0 -3.07719e-05 6.47632e-06 0 -3.37428e-05 5.23527e-06 0 -3.70544e-05 2.86684e-06 0 -4.0727e-05 -1.37079e-06 0 -4.50167e-05 -8.72965e-06 0 -4.98284e-05 -2.1465e-05 0 -5.50543e-05 -4.38321e-05 0 -5.73778e-05 -8.42325e-05 0 -4.12134e-05 -0.000158655 0 5.64466e-05 -0.000266817 0 0.00028619 -0.000217702 0 0 3.41516e-06 0 -8.56688e-07 3.42892e-06 0 -1.72033e-06 3.4703e-06 0 -2.59795e-06 3.53959e-06 0 -3.49667e-06 3.63726e-06 0 -4.42382e-06 3.76391e-06 0 -5.38696e-06 3.92031e-06 0 -6.39395e-06 4.10727e-06 0 -7.45302e-06 4.32562e-06 0 -8.57285e-06 4.57607e-06 0 -9.76259e-06 4.85898e-06 0 -1.1032e-05 5.17424e-06 0 -1.23914e-05 5.52055e-06 0 -1.3852e-05 5.89533e-06 0 -1.54258e-05 6.29274e-06 0 -1.71257e-05 6.70408e-06 0 -1.89668e-05 7.11214e-06 0 -2.09644e-05 7.49372e-06 0 -2.31411e-05 7.80351e-06 0 -2.55154e-05 7.98377e-06 0 -2.8136e-05 7.91937e-06 0 -3.10216e-05 7.4664e-06 0 -3.43204e-05 6.33166e-06 0 -3.80172e-05 4.13608e-06 0 -4.26417e-05 1.00596e-07 0 -4.79186e-05 -6.9025e-06 0 -5.57364e-05 -1.92533e-05 0 -6.40577e-05 -4.12052e-05 0 -7.7644e-05 -8.29755e-05 0 -7.47771e-05 -0.000168304 0 1.07454e-05 -0.00033521 0 0.000366188 -0.000324708 0 0 3.69876e-06 0 -8.47122e-07 3.71368e-06 0 -1.70113e-06 3.75853e-06 0 -2.56898e-06 3.83363e-06 0 -3.45775e-06 3.9395e-06 0 -4.3747e-06 4.07683e-06 0 -5.32735e-06 4.24647e-06 0 -6.32355e-06 4.44934e-06 0 -7.37155e-06 4.68644e-06 0 -8.48008e-06 4.95859e-06 0 -9.65844e-06 5.26644e-06 0 -1.09166e-05 5.60994e-06 0 -1.22654e-05 5.98833e-06 0 -1.37165e-05 6.39884e-06 0 -1.52833e-05 6.83702e-06 0 -1.698e-05 7.29285e-06 0 -1.88247e-05 7.75329e-06 0 -2.08356e-05 8.18999e-06 0 -2.30443e-05 8.5708e-06 0 -2.54727e-05 8.82083e-06 0 -2.81985e-05 8.86526e-06 0 -3.12357e-05 8.50989e-06 0 -3.48346e-05 7.57474e-06 0 -3.892e-05 5.56036e-06 0 -4.44005e-05 1.94582e-06 0 -5.07159e-05 -4.54274e-06 0 -6.12215e-05 -1.60616e-05 0 -7.31448e-05 -3.61902e-05 0 -9.77863e-05 -7.83716e-05 0 -0.000117415 -0.000163305 0 -7.53456e-05 -0.000428382 0 0.000616764 -0.00048117 0 0 3.97906e-06 0 -8.36792e-07 3.99511e-06 0 -1.6804e-06 4.04339e-06 0 -2.5377e-06 4.12425e-06 0 -3.4157e-06 4.23825e-06 0 -4.32161e-06 4.38616e-06 0 -5.2629e-06 4.56893e-06 0 -6.24741e-06 4.78762e-06 0 -7.28337e-06 5.04335e-06 0 -8.37956e-06 5.33716e-06 0 -9.54545e-06 5.6699e-06 0 -1.07911e-05 6.04178e-06 0 -1.21281e-05 6.45245e-06 0 -1.3568e-05 6.89937e-06 0 -1.51271e-05 7.37905e-06 0 -1.68165e-05 7.88142e-06 0 -1.86669e-05 8.39619e-06 0 -2.06799e-05 8.89354e-06 0 -2.29329e-05 9.34999e-06 0 -2.53794e-05 9.68408e-06 0 -2.82588e-05 9.84807e-06 0 -3.13325e-05 9.62694e-06 0 -3.539e-05 8.91921e-06 0 -3.95177e-05 7.17837e-06 0 -4.63065e-05 4.08488e-06 0 -5.27173e-05 -1.66489e-06 0 -6.69882e-05 -1.18034e-05 0 -8.0398e-05 -2.94702e-05 0 -0.000118272 -6.78148e-05 0 -0.000162498 -0.000145726 0 -0.000234634 -0.000476963 0 0.00103762 -0.00132967 0 0 4.25578e-06 0 -8.25703e-07 4.27296e-06 0 -1.65814e-06 4.32464e-06 0 -2.50411e-06 4.41119e-06 0 -3.37056e-06 4.53323e-06 0 -4.26459e-06 4.69162e-06 0 -5.19367e-06 4.8874e-06 0 -6.16554e-06 5.12178e-06 0 -7.18848e-06 5.39603e-06 0 -8.27136e-06 5.71141e-06 0 -9.4234e-06 6.06896e-06 0 -1.0656e-05 6.4694e-06 0 -1.19781e-05 6.9123e-06 0 -1.34093e-05 7.39667e-06 0 -1.49494e-05 7.91759e-06 0 -1.66501e-05 8.47032e-06 0 -1.84598e-05 9.0374e-06 0 -2.05621e-05 9.60806e-06 0 -2.26692e-05 1.01301e-05 0 -2.55009e-05 1.05881e-05 0 -2.77786e-05 1.08338e-05 0 -3.23376e-05 1.08619e-05 0 -3.39714e-05 1.02746e-05 0 -4.35941e-05 9.08309e-06 0 -4.11103e-05 6.3657e-06 0 -6.72757e-05 1.68692e-06 0 -4.79886e-05 -6.15951e-06 0 -0.000130532 -2.31012e-05 0 -5.69494e-05 -4.54513e-05 0 -0.000333286 -0.000134525 0 -0.000356631 -0.000304513 0 0.00266391 -0.00394229 0 0 4.52869e-06 0 -8.1388e-07 4.54699e-06 0 -1.63437e-06 4.60202e-06 0 -2.46828e-06 4.69418e-06 0 -3.32231e-06 4.82419e-06 0 -4.20373e-06 4.99291e-06 0 -5.11963e-06 5.20162e-06 0 -6.07805e-06 5.45145e-06 0 -7.08702e-06 5.74426e-06 0 -8.15508e-06 6.08073e-06 0 -9.29373e-06 6.46373e-06 0 -1.05075e-05 6.89135e-06 0 -1.18246e-05 7.3693e-06 0 -1.32188e-05 7.8865e-06 0 -1.47978e-05 8.45885e-06 0 -1.63768e-05 9.04585e-06 0 -1.8421e-05 9.69944e-06 0 -2.00264e-05 1.02893e-05 0 -2.31811e-05 1.09854e-05 0 -2.39521e-05 1.13964e-05 0 -3.05119e-05 1.20436e-05 0 -2.68053e-05 1.1838e-05 0 -4.51244e-05 1.21955e-05 0 -2.2888e-05 1.0461e-05 0 -8.30035e-05 9.62579e-06 0 8.8412e-06 5.08607e-06 0 -0.000198203 -1.46587e-06 0 0.000137712 -7.2254e-06 0 -0.000567355 -4.65231e-05 0 0.000473988 -1.6405e-05 0 -0.00114316 -0.00044672 0 -0.0259916 0.00265133 0 </DataArray> 
</PointData> 
<Points> 
<DataArray type="Float32" NumberOfComponents="3"> 