<?xml version="1.0"?> 
<VTKFile type="StructuredGrid" version="0.1"> 
<StructuredGrid WholeExtent="0 31 0 31 0 0"> 
<Piece Extent="0 31 0 31 0 0"> 
<PointData>
<DataArray type="Float32" Name="B" format="ascii" NumberOfComponents="3"> 
0 -0 0 2.20037e-07 -0 0 4.41245e-07 -0 0 6.64792e-07 -0 0 8.91849e-07 -0 0 1.12359e-06 -0 0 1.36118e-06 -0 0 1.6058e-06 -0 0 1.85862e-06 -0 0 2.12081e-06 -0 0 2.39355e-06 -0 0 2.678e-06 -0 0 2.97533e-06 -0 0 3.2867e-06 -0 0 3.61326e-06 -0 0 3.95614e-06 -0 0 4.31645e-06 -0 0 4.69526e-06 -0 0 5.0936e-06 -0 0 5.51242e-06 -0 0 5.95256e-06 -0 0 6.41476e-06 -0 0 6.89955e-06 -0 0 7.40726e-06 -0 0 7.93793e-06 -0 0 8.49124e-06 -0 0 9.06641e-06 -0 0 9.66219e-06 -0 0 1.02767e-05 -0 0 1.09074e-05 -0 0 1.1551e-05 -0 0 1.22034e-05 -0 0 5.5271e-22 -2.19647e-07 0 2.19452e-07 -2.20232e-07 0 4.40075e-07 -2.21987e-07 0 6.63036e-07 -2.24912e-07 0 8.89508e-07 -2.29008e-07 0 1.12066e-06 -2.34275e-07 0 1.35767e-06 -2.40715e-07 0 1.6017e-06 -2.48328e-07 0 1.85393e-06 -2.57114e-07 0 2.11554e-06 -2.67073e-07 0 2.38769e-06 -2.78203e-07 0 2.67155e-06 -2.90502e-07 0 2.96831e-06 -3.03966e-07 0 3.2791e-06 -3.18585e-07 0 3.60509e-06 -3.34347e-07 0 3.94742e-06 -3.51232e-07 0 4.3072e-06 -3.69212e-07 0 4.6855e-06 -3.88245e-07 0 5.08336e-06 -4.08273e-07 0 5.50174e-06 -4.29213e-07 0 5.94152e-06 -4.50953e-07 0 6.40344e-06 -4.73343e-07 0 6.88807e-06 -4.96187e-07 0 7.39576e-06 -5.19231e-07 0 7.92658e-06 -5.42156e-07 0 8.48026e-06 -5.64567e-07 0 9.05606e-06 -5.85989e-07 0 9.65277e-06 -6.05866e-07 0 1.02685e-05 -6.23557e-07 0 1.09009e-05 -6.38351e-07 0 1.15465e-05 -6.49478e-07 0 1.22013e-05 -6.56146e-07 0 9.08113e-22 -4.38125e-07 0 2.17698e-07 -4.39295e-07 0 4.36565e-07 -4.42804e-07 0 6.57771e-07 -4.48653e-07 0 8.82486e-07 -4.56844e-07 0 1.11188e-06 -4.67378e-07 0 1.34713e-06 -4.80257e-07 0 1.5894e-06 -4.95482e-07 0 1.83987e-06 -5.13054e-07 0 2.09972e-06 -5.32973e-07 0 2.37011e-06 -5.55237e-07 0 2.65223e-06 -5.7984e-07 0 2.94724e-06 -6.06775e-07 0 3.25631e-06 -6.36025e-07 0 3.58059e-06 -6.67568e-07 0 3.92125e-06 -7.01367e-07 0 4.2794e-06 -7.37368e-07 0 4.65616e-06 -7.75493e-07 0 5.05257e-06 -8.15629e-07 0 5.46965e-06 -8.57619e-07 0 5.90832e-06 -9.01247e-07 0 6.36937e-06 -9.46223e-07 0 6.85347e-06 -9.92163e-07 0 7.36106e-06 -1.03857e-06 0 7.89231e-06 -1.08481e-06 0 8.44706e-06 -1.13011e-06 0 9.02472e-06 -1.17351e-06 0 9.62417e-06 -1.21391e-06 0 1.02437e-05 -1.25e-06 0 1.08809e-05 -1.28036e-06 0 1.15326e-05 -1.30342e-06 0 1.21948e-05 -1.31757e-06 0 0 -6.54264e-07 0 2.14774e-07 -6.56018e-07 0 4.30717e-07 -6.6128e-07 0 6.48997e-07 -6.70053e-07 0 8.70784e-07 -6.82338e-07 0 1.09725e-06 -6.98137e-07 0 1.32957e-06 -7.17453e-07 0 1.5689e-06 -7.4029e-07 0 1.81644e-06 -7.66648e-07 0 2.07335e-06 -7.96529e-07 0 2.34082e-06 -8.2993e-07 0 2.62001e-06 -8.66846e-07 0 2.91211e-06 -9.07267e-07 0 3.21829e-06 -9.51172e-07 0 3.53972e-06 -9.98531e-07 0 3.87758e-06 -1.0493e-06 0 4.23301e-06 -1.1034e-06 0 4.60715e-06 -1.16072e-06 0 5.00111e-06 -1.22112e-06 0 5.41596e-06 -1.28437e-06 0 5.8527e-06 -1.35018e-06 0 6.31223e-06 -1.41812e-06 0 6.79535e-06 -1.48765e-06 0 7.30264e-06 -1.55805e-06 0 7.83447e-06 -1.62839e-06 0 8.39087e-06 -1.69751e-06 0 8.97147e-06 -1.76402e-06 0 9.57538e-06 -1.82622e-06 0 1.02011e-05 -1.88216e-06 0 1.08464e-05 -1.92966e-06 0 1.15082e-05 -1.9663e-06 0 1.21826e-05 -1.98958e-06 0 3.41847e-23 -8.66894e-07 0 2.10682e-07 -8.69232e-07 0 4.22531e-07 -8.76247e-07 0 6.36716e-07 -8.87941e-07 0 8.54405e-07 -9.04316e-07 0 1.07677e-06 -9.25378e-07 0 1.30498e-06 -9.51129e-07 0 1.54021e-06 -9.81575e-07 0 1.78363e-06 -1.01672e-06 0 2.03644e-06 -1.05656e-06 0 2.29979e-06 -1.10111e-06 0 2.57488e-06 -1.15035e-06 0 2.8629e-06 -1.20427e-06 0 3.16502e-06 -1.26286e-06 0 3.48243e-06 -1.32608e-06 0 3.81633e-06 -1.39389e-06 0 4.1679e-06 -1.46619e-06 0 4.53831e-06 -1.54287e-06 0 4.92875e-06 -1.62374e-06 0 5.34036e-06 -1.70856e-06 0 5.77425e-06 -1.79695e-06 0 6.23148e-06 -1.8884e-06 0 6.71301e-06 -1.98224e-06 0 7.21964e-06 -2.07754e-06 0 7.752e-06 -2.17313e-06 0 8.31041e-06 -2.2675e-06 0 8.89481e-06 -2.35878e-06 0 9.50465e-06 -2.44474e-06 0 1.01388e-05 -2.52274e-06 0 1.07952e-05 -2.58979e-06 0 1.1471e-05 -2.64255e-06 0 1.21625e-05 -2.67756e-06 0 3.23451e-21 -1.07485e-06 0 2.05422e-07 -1.07777e-06 0 4.1201e-07 -1.08654e-06 0 6.2093e-07 -1.10115e-06 0 8.33351e-07 -1.12161e-06 0 1.05044e-06 -1.14793e-06 0 1.27337e-06 -1.18011e-06 0 1.50332e-06 -1.21816e-06 0 1.74145e-06 -1.26209e-06 0 1.98896e-06 -1.3119e-06 0 2.24703e-06 -1.36759e-06 0 2.51684e-06 -1.42916e-06 0 2.79958e-06 -1.49661e-06 0 3.09645e-06 -1.56991e-06 0 3.40866e-06 -1.64905e-06 0 3.73741e-06 -1.73397e-06 0 4.08393e-06 -1.82459e-06 0 4.44945e-06 -1.9208e-06 0 4.83522e-06 -2.02241e-06 0 5.24247e-06 -2.12915e-06 0 5.67246e-06 -2.24062e-06 0 6.12641e-06 -2.35627e-06 0 6.60552e-06 -2.47531e-06 0 7.11087e-06 -2.5967e-06 0 7.64341e-06 -2.71903e-06 0 8.20386e-06 -2.84049e-06 0 8.7926e-06 -2.95881e-06 0 9.40954e-06 -3.07117e-06 0 1.0054e-05 -3.17423e-06 0 1.07243e-05 -3.26415e-06 0 1.14181e-05 -3.33659e-06 0 1.21316e-05 -3.38695e-06 0 1.967e-21 -1.27696e-06 0 1.98997e-07 -1.28047e-06 0 3.99157e-07 -1.29098e-06 0 6.01645e-07 -1.3085e-06 0 8.07628e-07 -1.33305e-06 0 1.01827e-06 -1.36462e-06 0 1.23475e-06 -1.40322e-06 0 1.45823e-06 -1.44887e-06 0 1.6899e-06 -1.50158e-06 0 1.93094e-06 -1.56135e-06 0 2.18252e-06 -1.62819e-06 0 2.44586e-06 -1.7021e-06 0 2.72213e-06 -1.78308e-06 0 3.01255e-06 -1.87114e-06 0 3.31834e-06 -1.96623e-06 0 3.64072e-06 -2.06834e-06 0 3.98097e-06 -2.1774e-06 0 4.34035e-06 -2.29332e-06 0 4.72019e-06 -2.41592e-06 0 5.12184e-06 -2.54497e-06 0 5.54669e-06 -2.68008e-06 0 5.99618e-06 -2.82069e-06 0 6.47176e-06 -2.96599e-06 0 6.97486e-06 -3.11485e-06 0 7.50685e-06 -3.26573e-06 0 8.06895e-06 -3.41656e-06 0 8.6621e-06 -3.56469e-06 0 9.28683e-06 -3.70679e-06 0 9.94305e-06 -3.8388e-06 0 1.06298e-05 -3.95593e-06 0 1.13451e-05 -4.05272e-06 0 1.20857e-05 -4.12329e-06 0 0 -1.47207e-06 0 1.91408e-07 -1.47615e-06 0 3.83976e-07 -1.48841e-06 0 5.78867e-07 -1.50884e-06 0 7.77243e-07 -1.53746e-06 0 9.80271e-07 -1.57427e-06 0 1.18912e-06 -1.61929e-06 0 1.40497e-06 -1.67253e-06 0 1.62898e-06 -1.734e-06 0 1.86236e-06 -1.80373e-06 0 2.10628e-06 -1.88171e-06 0 2.36194e-06 -1.96796e-06 0 2.63053e-06 -2.06249e-06 0 2.91328e-06 -2.16531e-06 0 3.21142e-06 -2.2764e-06 0 3.52619e-06 -2.39576e-06 0 3.85887e-06 -2.52335e-06 0 4.2108e-06 -2.65913e-06 0 4.58336e-06 -2.80298e-06 0 4.97801e-06 -2.95471e-06 0 5.39629e-06 -3.114e-06 0 5.83987e-06 -3.28036e-06 0 6.31047e-06 -3.45304e-06 0 6.80994e-06 -3.6309e-06 0 7.34014e-06 -3.81236e-06 0 7.90291e-06 -3.99521e-06 0 8.49991e-06 -4.17649e-06 0 9.13249e-06 -4.3524e-06 0 9.80141e-06 -4.51814e-06 0 1.05066e-05 -4.66796e-06 0 1.12467e-05 -4.79511e-06 0 1.2019e-05 -4.89219e-06 0 0 -1.659e-06 0 1.82659e-07 -1.66367e-06 0 3.66474e-07 -1.67766e-06 0 5.52603e-07 -1.70099e-06 0 7.42207e-07 -1.73367e-06 0 9.36449e-07 -1.77571e-06 0 1.1365e-06 -1.82713e-06 0 1.34353e-06 -1.88795e-06 0 1.55871e-06 -1.95818e-06 0 1.78324e-06 -2.03785e-06 0 2.01829e-06 -2.12696e-06 0 2.26508e-06 -2.22555e-06 0 2.52479e-06 -2.33362e-06 0 2.79864e-06 -2.45119e-06 0 3.08787e-06 -2.57829e-06 0 3.39374e-06 -2.71493e-06 0 3.71754e-06 -2.86112e-06 0 4.06063e-06 -3.01686e-06 0 4.42445e-06 -3.18213e-06 0 4.81055e-06 -3.35684e-06 0 5.22063e-06 -3.54081e-06 0 5.65653e-06 -3.73367e-06 0 6.12033e-06 -3.93481e-06 0 6.61428e-06 -4.14326e-06 0 7.14084e-06 -4.35749e-06 0 7.70257e-06 -4.57528e-06 0 8.30206e-06 -4.79351e-06 0 8.94167e-06 -5.00799e-06 0 9.62332e-06 -5.21326e-06 0 1.03481e-05 -5.40251e-06 0 1.11158e-05 -5.56757e-06 0 1.19245e-05 -5.69925e-06 0 0 -1.83661e-06 0 1.72753e-07 -1.84185e-06 0 3.46657e-07 -1.85758e-06 0 5.22865e-07 -1.8838e-06 0 7.02533e-07 -1.92052e-06 0 8.86822e-07 -1.96778e-06 0 1.0769e-06 -2.02558e-06 0 1.27393e-06 -2.09395e-06 0 1.4791e-06 -2.17293e-06 0 1.69359e-06 -2.26252e-06 0 1.91859e-06 -2.36275e-06 0 2.15529e-06 -2.47365e-06 0 2.4049e-06 -2.59524e-06 0 2.66863e-06 -2.72756e-06 0 2.9477e-06 -2.87064e-06 0 3.24337e-06 -3.02454e-06 0 3.55693e-06 -3.18932e-06 0 3.88975e-06 -3.36505e-06 0 4.24329e-06 -3.55183e-06 0 4.61916e-06 -3.7497e-06 0 5.01916e-06 -3.95867e-06 0 5.44534e-06 -4.17862e-06 0 5.90006e-06 -4.40921e-06 0 6.38604e-06 -4.64972e-06 0 6.90637e-06 -4.8989e-06 0 7.46446e-06 -5.15472e-06 0 8.06399e-06 -5.41408e-06 0 8.70867e-06 -5.67258e-06 0 9.40191e-06 -5.92417e-06 0 1.01464e-05 -6.16103e-06 0 1.09435e-05 -6.37339e-06 0 1.17926e-05 -6.54993e-06 0 0 -2.00374e-06 0 1.61697e-07 -2.00956e-06 0 3.24538e-07 -2.027e-06 0 4.89669e-07 -2.0561e-06 0 6.5824e-07 -2.09685e-06 0 8.31409e-07 -2.1493e-06 0 1.01034e-06 -2.21346e-06 0 1.1962e-06 -2.28936e-06 0 1.39017e-06 -2.37705e-06 0 1.59343e-06 -2.47654e-06 0 1.80718e-06 -2.58787e-06 0 2.0326e-06 -2.71106e-06 0 2.2709e-06 -2.84614e-06 0 2.52327e-06 -2.99317e-06 0 2.79093e-06 -3.15218e-06 0 3.07511e-06 -3.32328e-06 0 3.37708e-06 -3.50656e-06 0 3.69817e-06 -3.70221e-06 0 4.03983e-06 -3.91042e-06 0 4.40368e-06 -4.13143e-06 0 4.79156e-06 -4.36552e-06 0 5.20566e-06 -4.61288e-06 0 5.6486e-06 -4.87358e-06 0 6.12352e-06 -5.14738e-06 0 6.63416e-06 -5.43351e-06 0 7.18492e-06 -5.73039e-06 0 7.78074e-06 -6.03526e-06 0 8.42697e-06 -6.34376e-06 0 9.12902e-06 -6.64951e-06 0 9.89176e-06 -6.94373e-06 0 1.07188e-05 -7.21495e-06 0 1.16116e-05 -7.44939e-06 0 0 -2.15925e-06 0 1.49497e-07 -2.16563e-06 0 3.00129e-07 -2.18479e-06 0 4.53033e-07 -2.21673e-06 0 6.09352e-07 -2.26149e-06 0 7.70237e-07 -2.3191e-06 0 9.36849e-07 -2.38959e-06 0 1.11036e-06 -2.473e-06 0 1.29194e-06 -2.56937e-06 0 1.48279e-06 -2.67873e-06 0 1.68409e-06 -2.80112e-06 0 1.89704e-06 -2.93657e-06 0 2.12282e-06 -3.08511e-06 0 2.36263e-06 -3.24678e-06 0 2.61765e-06 -3.42166e-06 0 2.88908e-06 -3.60983e-06 0 3.17812e-06 -3.81146e-06 0 3.48605e-06 -4.0268e-06 0 3.81424e-06 -4.2562e-06 0 4.16422e-06 -4.5001e-06 0 4.53781e-06 -4.75907e-06 0 4.93724e-06 -5.03376e-06 0 5.36526e-06 -5.32478e-06 0 5.82538e-06 -5.63257e-06 0 6.32195e-06 -5.95717e-06 0 6.86038e-06 -6.2978e-06 0 7.44708e-06 -6.65246e-06 0 8.08939e-06 -7.0173e-06 0 8.79523e-06 -7.38595e-06 0 9.57245e-06 -7.74895e-06 0 1.04279e-05 -8.09315e-06 0 1.13659e-05 -8.40177e-06 0 0 -2.30198e-06 0 1.36163e-07 -2.30893e-06 0 2.73449e-07 -2.32978e-06 0 4.12983e-07 -2.36455e-06 0 5.55898e-07 -2.41329e-06 0 7.0334e-07 -2.47602e-06 0 8.56465e-07 -2.55279e-06 0 1.01644e-06 -2.64367e-06 0 1.18445e-06 -2.74869e-06 0 1.36169e-06 -2.86789e-06 0 1.54935e-06 -3.00132e-06 0 1.74863e-06 -3.149e-06 0 1.96072e-06 -3.31095e-06 0 2.18678e-06 -3.48721e-06 0 2.42797e-06 -3.67783e-06 0 2.68544e-06 -3.88293e-06 0 2.9603e-06 -4.10267e-06 0 3.25371e-06 -4.33737e-06 0 3.56689e-06 -4.58748e-06 0 3.90121e-06 -4.8537e-06 0 4.25833e-06 -5.13691e-06 0 4.64034e-06 -5.43828e-06 0 5.04999e-06 -5.75913e-06 0 5.49094e-06 -6.10084e-06 0 5.96808e-06 -6.46458e-06 0 6.48774e-06 -6.85089e-06 0 7.05792e-06 -7.25909e-06 0 7.68827e-06 -7.6865e-06 0 8.38989e-06 -8.12746e-06 0 9.17453e-06 -8.57234e-06 0 1.00536e-05 -9.00647e-06 0 1.10363e-05 -9.41021e-06 0 -1.01248e-21 -2.43082e-06 0 1.21708e-07 -2.43833e-06 0 2.44522e-07 -2.46085e-06 0 3.69552e-07 -2.49842e-06 0 4.97921e-07 -2.55108e-06 0 6.30763e-07 -2.61889e-06 0 7.6923e-07 -2.7019e-06 0 9.14494e-07 -2.80019e-06 0 1.06774e-06 -2.91382e-06 0 1.23018e-06 -3.04283e-06 0 1.403e-06 -3.18727e-06 0 1.58742e-06 -3.34715e-06 0 1.78463e-06 -3.52248e-06 0 1.99579e-06 -3.71328e-06 0 2.22203e-06 -3.91956e-06 0 2.4644e-06 -4.1414e-06 0 2.72393e-06 -4.37895e-06 0 3.00161e-06 -4.63255e-06 0 3.29843e-06 -4.90272e-06 0 3.61548e-06 -5.19033e-06 0 3.95407e-06 -5.49663e-06 0 4.31596e-06 -5.82333e-06 0 4.7036e-06 -6.17259e-06 0 5.12057e-06 -6.54698e-06 0 5.57196e-06 -6.94922e-06 0 6.06487e-06 -7.38175e-06 0 6.60882e-06 -7.84602e-06 0 7.21605e-06 -8.34148e-06 0 7.90142e-06 -8.86424e-06 0 8.68189e-06 -9.40547e-06 0 9.57503e-06 -9.94978e-06 0 1.05968e-05 -1.04738e-05 0 -9.01223e-21 -2.54466e-06 0 1.06148e-07 -2.55271e-06 0 2.1338e-07 -2.57688e-06 0 3.22787e-07 -2.6172e-06 0 4.35473e-07 -2.67373e-06 0 5.52562e-07 -2.74655e-06 0 6.75202e-07 -2.83574e-06 0 8.04565e-07 -2.94138e-06 0 9.41847e-07 -3.06356e-06 0 1.08827e-06 -3.20234e-06 0 1.24505e-06 -3.35777e-06 0 1.41342e-06 -3.52984e-06 0 1.59459e-06 -3.71856e-06 0 1.78973e-06 -3.92387e-06 0 1.99993e-06 -4.14574e-06 0 2.22619e-06 -4.38417e-06 0 2.46942e-06 -4.63924e-06 0 2.73039e-06 -4.9112e-06 0 3.00979e-06 -5.20059e-06 0 3.30828e-06 -5.50836e-06 0 3.62664e-06 -5.83604e-06 0 3.96599e-06 -6.18588e-06 0 4.32815e-06 -6.56095e-06 0 4.71612e-06 -6.96524e-06 0 5.13474e-06 -7.40342e-06 0 5.59141e-06 -7.88054e-06 0 6.09691e-06 -8.40121e-06 0 6.66603e-06 -8.96837e-06 0 7.31806e-06 -9.58146e-06 0 8.07623e-06 -1.02343e-05 0 8.96692e-06 -1.09118e-05 0 1.00168e-05 -1.15897e-05 0 -1.66719e-21 -2.6424e-06 0 8.95052e-08 -2.65099e-06 0 1.80065e-07 -2.67676e-06 0 2.72745e-07 -2.71977e-06 0 3.68626e-07 -2.7801e-06 0 4.68816e-07 -2.85784e-06 0 5.74456e-07 -2.95312e-06 0 6.8672e-07 -3.06603e-06 0 8.06817e-07 -3.1967e-06 0 9.3599e-07 -3.34521e-06 0 1.0755e-06 -3.51161e-06 0 1.22661e-06 -3.6959e-06 0 1.39058e-06 -3.89803e-06 0 1.56859e-06 -4.11791e-06 0 1.76174e-06 -4.35539e-06 0 1.971e-06 -4.61033e-06 0 2.19715e-06 -4.88267e-06 0 2.44074e-06 -5.17248e-06 0 2.70208e-06 -5.48016e-06 0 2.98127e-06 -5.8066e-06 0 3.27834e-06 -6.15344e-06 0 3.59342e-06 -6.52333e-06 0 3.92719e-06 -6.92025e-06 0 4.28146e-06 -7.34966e-06 0 4.66004e-06 -7.81862e-06 0 5.06984e-06 -8.33553e-06 0 5.52211e-06 -8.90937e-06 0 6.03392e-06 -9.54835e-06 0 6.62892e-06 -1.02577e-05 0 7.33836e-06 -1.10362e-05 0 8.19928e-06 -1.18729e-05 0 9.25205e-06 -1.27399e-05 0 0 -2.72297e-06 0 7.1809e-08 -2.73207e-06 0 1.44635e-07 -2.75941e-06 0 2.19506e-07 -2.80503e-06 0 2.97475e-07 -2.86906e-06 0 3.79627e-07 -2.95161e-06 0 4.67092e-07 -3.05285e-06 0 5.61045e-07 -3.17293e-06 0 6.62716e-07 -3.312e-06 0 7.73379e-07 -3.47018e-06 0 8.94345e-07 -3.64755e-06 0 1.02695e-06 -3.8441e-06 0 1.1725e-06 -4.05976e-06 0 1.33227e-06 -4.29434e-06 0 1.50742e-06 -4.54758e-06 0 1.69889e-06 -4.81913e-06 0 1.9074e-06 -5.10868e-06 0 2.1333e-06 -5.41599e-06 0 2.37648e-06 -5.74111e-06 0 2.63641e-06 -6.08462e-06 0 2.9121e-06 -6.448e-06 0 3.20234e-06 -6.83403e-06 0 3.50606e-06 -7.24731e-06 0 3.82301e-06 -7.69475e-06 0 4.15488e-06 -8.186e-06 0 4.50671e-06 -8.73347e-06 0 4.88902e-06 -9.35191e-06 0 5.31969e-06 -1.0057e-05 0 5.82679e-06 -1.08629e-05 0 6.44924e-06 -1.1778e-05 0 7.23895e-06 -1.27985e-05 0 8.25816e-06 -1.39074e-05 0 0 -2.78534e-06 0 5.30982e-08 -2.79494e-06 0 1.07163e-07 -2.82376e-06 0 1.63175e-07 -2.8719e-06 0 2.22147e-07 -2.93948e-06 0 2.85134e-07 -3.02669e-06 0 3.53247e-07 -3.13373e-06 0 4.27663e-07 -3.26082e-06 0 5.0963e-07 -3.40817e-06 0 6.00467e-07 -3.57596e-06 0 7.01555e-07 -3.76429e-06 0 8.14317e-07 -3.97319e-06 0 9.40189e-07 -4.20254e-06 0 1.08056e-06 -4.4521e-06 0 1.23671e-06 -4.72144e-06 0 1.40969e-06 -5.00996e-06 0 1.6002e-06 -5.31698e-06 0 1.80848e-06 -5.64177e-06 0 2.03407e-06 -5.9838e-06 0 2.27573e-06 -6.343e-06 0 2.53133e-06 -6.72022e-06 0 2.79792e-06 -7.11787e-06 0 3.072e-06 -7.54066e-06 0 3.35023e-06 -7.99654e-06 0 3.6306e-06 -8.49756e-06 0 3.91449e-06 -9.06064e-06 0 4.20908e-06 -9.70755e-06 0 4.53132e-06 -1.0464e-05 0 4.91082e-06 -1.13572e-05 0 5.39547e-06 -1.24104e-05 0 6.05104e-06 -1.36373e-05 0 6.96245e-06 -1.50196e-05 0 -2.25866e-21 -2.82852e-06 0 3.34237e-08 -2.83859e-06 0 6.77479e-08 -2.86882e-06 0 1.03892e-07 -2.91933e-06 0 1.42814e-07 -2.99029e-06 0 1.85525e-07 -3.08195e-06 0 2.33111e-07 -3.19457e-06 0 2.86741e-07 -3.32845e-06 0 3.47685e-07 -3.4839e-06 0 4.17312e-07 -3.66117e-06 0 4.97091e-07 -3.86044e-06 0 5.88572e-07 -4.08179e-06 0 6.93357e-07 -4.3251e-06 0 8.13039e-07 -4.59006e-06 0 9.49113e-07 -4.87609e-06 0 1.10285e-06 -5.18229e-06 0 1.27514e-06 -5.50752e-06 0 1.46621e-06 -5.85039e-06 0 1.67543e-06 -6.20946e-06 0 1.90096e-06 -6.58359e-06 0 2.13948e-06 -6.97241e-06 0 2.38602e-06 -7.37712e-06 0 2.63402e-06 -7.80164e-06 0 2.87579e-06 -8.25397e-06 0 3.10388e-06 -8.74793e-06 0 3.31299e-06 -9.30466e-06 0 3.50403e-06 -9.95389e-06 0 3.68805e-06 -1.07339e-05 0 3.8941e-06 -1.16894e-05 0 4.17282e-06 -1.28672e-05 0 4.60809e-06 -1.43036e-05 0 5.32039e-06 -1.60366e-05 0 -9.9587e-21 -2.85159e-06 0 1.28518e-08 -2.86208e-06 0 2.65194e-08 -2.89361e-06 0 4.18417e-08 -2.94631e-06 0 5.97032e-08 -3.02042e-06 0 8.10569e-08 -3.11624e-06 0 1.06946e-07 -3.23414e-06 0 1.38524e-07 -3.37452e-06 0 1.77074e-07 -3.53779e-06 0 2.2402e-07 -3.72435e-06 0 2.80933e-07 -3.93449e-06 0 3.49523e-07 -4.16838e-06 0 4.31614e-07 -4.42597e-06 0 5.29086e-07 -4.70691e-06 0 6.43787e-07 -5.01051e-06 0 7.77379e-07 -5.33557e-06 0 9.31126e-07 -5.68041e-06 0 1.10559e-06 -6.04283e-06 0 1.30023e-06 -6.42021e-06 0 1.51291e-06 -6.80977e-06 0 1.73932e-06 -7.20913e-06 0 1.97246e-06 -7.61724e-06 0 2.20221e-06 -8.03573e-06 0 2.41549e-06 -8.47106e-06 0 2.59694e-06 -8.93695e-06 0 2.73161e-06 -9.45767e-06 0 2.80831e-06 -1.00706e-05 0 2.82769e-06 -1.08285e-05 0 2.80814e-06 -1.17989e-05 0 2.80204e-06 -1.30584e-05 0 2.89804e-06 -1.46919e-05 0 3.23454e-06 -1.67217e-05 0 -8.51015e-22 -2.85369e-06 0 -8.5322e-09 -2.86456e-06 0 -1.63561e-08 -2.89724e-06 0 -2.27366e-08 -2.9519e-06 0 -2.68843e-08 -3.02884e-06 0 -2.79279e-08 -3.12846e-06 0 -2.48864e-08 -3.25122e-06 0 -1.66411e-08 -3.39768e-06 0 -1.90825e-09 -3.56839e-06 0 2.07848e-08 -3.76393e-06 0 5.31178e-08 -3.98476e-06 0 9.6985e-08 -4.23122e-06 0 1.54484e-07 -4.50341e-06 0 2.27877e-07 -4.80104e-06 0 3.19503e-07 -5.12337e-06 0 4.31631e-07 -5.46897e-06 0 5.66217e-07 -5.83565e-06 0 7.2453e-07 -6.22029e-06 0 9.06637e-07 -6.61882e-06 0 1.11067e-06 -7.02633e-06 0 1.33192e-06 -7.43757e-06 0 1.56174e-06 -7.84774e-06 0 1.78655e-06 -8.25426e-06 0 1.98686e-06 -8.65924e-06 0 2.13768e-06 -9.07346e-06 0 2.20949e-06 -9.52095e-06 0 2.17405e-06 -1.0045e-05 0 2.00972e-06 -1.07128e-05 0 1.71872e-06 -1.16179e-05 0 1.33384e-06 -1.28813e-05 0 9.51395e-07 -1.46261e-05 0 7.46064e-07 -1.70701e-05 0 0 -2.83406e-06 0 -3.06199e-08 -2.84525e-06 0 -6.06661e-08 -2.8789e-06 0 -8.95341e-08 -2.93523e-06 0 -1.16557e-07 -3.01461e-06 0 -1.40975e-07 -3.11754e-06 0 -1.61895e-07 -3.24462e-06 0 -1.78262e-07 -3.39658e-06 0 -1.88816e-07 -3.57417e-06 0 -1.92054e-07 -3.77818e-06 0 -1.86197e-07 -4.00936e-06 0 -1.69157e-07 -4.26828e-06 0 -1.38524e-07 -4.55531e-06 0 -9.15751e-08 -4.87037e-06 0 -2.53316e-08 -5.21281e-06 0 6.3318e-08 -5.58114e-06 0 1.77379e-07 -5.97277e-06 0 3.19361e-07 -6.38372e-06 0 4.9064e-07 -6.80835e-06 0 6.90556e-07 -7.23927e-06 0 9.15062e-07 -7.66738e-06 0 1.15508e-06 -8.08268e-06 0 1.39427e-06 -8.47565e-06 0 1.60718e-06 -8.84052e-06 0 1.75695e-06 -9.17974e-06 0 1.7967e-06 -9.51183e-06 0 1.67056e-06 -9.88015e-06 0 1.3272e-06 -1.03633e-05 0 7.27496e-07 -1.10849e-05 0 -1.17665e-07 -1.22076e-05 0 -1.1457e-06 -1.39609e-05 0 -2.21193e-06 -1.63989e-05 0 0 -2.79207e-06 0 -5.32762e-08 -2.8035e-06 0 -1.06144e-07 -2.8379e-06 0 -1.5816e-07 -2.89554e-06 0 -2.08815e-07 -2.97686e-06 0 -2.5749e-07 -3.08247e-06 0 -3.03423e-07 -3.21317e-06 0 -3.45656e-07 -3.36984e-06 0 -3.82992e-07 -3.55351e-06 0 -4.13936e-07 -3.76526e-06 0 -4.36639e-07 -4.00616e-06 0 -4.48838e-07 -4.27718e-06 0 -4.47802e-07 -4.57908e-06 0 -4.30297e-07 -4.91218e-06 0 -3.92585e-07 -5.27618e-06 0 -3.30486e-07 -5.66978e-06 0 -2.39556e-07 -6.09029e-06 0 -1.15446e-07 -6.53314e-06 0 4.54659e-08 -6.99133e-06 0 2.44992e-07 -7.45478e-06 0 4.81544e-07 -7.91011e-06 0 7.47591e-07 -8.34041e-06 0 1.02659e-06 -8.72664e-06 0 1.28835e-06 -9.04981e-06 0 1.48556e-06 -9.2975e-06 0 1.54858e-06 -9.47228e-06 0 1.38945e-06 -9.60748e-06 0 9.03279e-07 -9.78495e-06 0 6.88337e-10 -1.01501e-05 0 -1.38193e-06 -1.09378e-05 0 -3.20469e-06 -1.23983e-05 0 -5.29656e-06 -1.52077e-05 0 0 -2.72724e-06 0 -7.63355e-08 -2.73882e-06 0 -1.52461e-07 -2.7737e-06 0 -2.28131e-07 -2.83219e-06 0 -3.03028e-07 -2.91483e-06 0 -3.76718e-07 -3.02236e-06 0 -4.48609e-07 -3.15574e-06 0 -5.17897e-07 -3.31611e-06 0 -5.835e-07 -3.50478e-06 0 -6.4399e-07 -3.72317e-06 0 -6.97508e-07 -3.97279e-06 0 -7.4167e-07 -4.25514e-06 0 -7.73464e-07 -4.57153e-06 0 -7.89151e-07 -4.92294e-06 0 -7.84176e-07 -5.30972e-06 0 -7.53128e-07 -5.73118e-06 0 -6.89785e-07 -6.18504e-06 0 -5.87331e-07 -6.66674e-06 0 -4.38894e-07 -7.1684e-06 0 -2.38517e-07 -7.6779e-06 0 1.69494e-08 -8.17732e-06 0 3.25071e-07 -8.64237e-06 0 6.72878e-07 -9.04129e-06 0 1.03099e-06 -9.33744e-06 0 1.34367e-06 -9.49262e-06 0 1.52211e-06 -9.48055e-06 0 1.43262e-06 -9.30446e-06 0 9.08882e-07 -9.02821e-06 0 -2.44061e-07 -8.81879e-06 0 -2.16941e-06 -8.94298e-06 0 -4.94254e-06 -9.90297e-06 0 -8.49819e-06 -1.15145e-05 0 0 -2.63926e-06 0 -9.95989e-08 -2.65089e-06 0 -1.99222e-07 -2.68592e-06 0 -2.98857e-07 -2.74472e-06 0 -3.9842e-07 -2.82793e-06 0 -4.97708e-07 -2.93643e-06 0 -5.96354e-07 -3.07136e-06 0 -6.93765e-07 -3.23412e-06 0 -7.8905e-07 -3.42633e-06 0 -8.80929e-07 -3.64985e-06 0 -9.67629e-07 -3.90669e-06 0 -1.04675e-06 -4.19899e-06 0 -1.1151e-06 -4.52885e-06 0 -1.16852e-06 -4.89816e-06 0 -1.2017e-06 -5.30833e-06 0 -1.20796e-06 -5.75979e-06 0 -1.17909e-06 -6.25145e-06 0 -1.10535e-06 -6.77958e-06 0 -9.75594e-07 -7.33678e-06 0 -7.78076e-07 -7.90981e-06 0 -5.01859e-07 -8.47789e-06 0 -1.40089e-07 -9.00908e-06 0 3.05036e-07 -9.45897e-06 0 8.12464e-07 -9.76681e-06 0 1.33027e-06 -9.86063e-06 0 1.75389e-06 -9.66228e-06 0 1.91139e-06 -9.11633e-06 0 1.53905e-06 -8.23371e-06 0 3.16387e-07 -7.14805e-06 0 -2.10405e-06 -6.24477e-06 0 -5.90744e-06 -5.92775e-06 0 -1.10008e-05 -8.21237e-06 0 0 -2.52806e-06 0 -1.22832e-07 -2.53961e-06 0 -2.45958e-07 -2.57441e-06 0 -3.69637e-07 -2.6329e-06 0 -4.9406e-07 -2.71579e-06 0 -6.19304e-07 -2.82411e-06 0 -7.45286e-07 -2.9592e-06 0 -8.71697e-07 -3.1227e-06 0 -9.97923e-07 -3.31661e-06 0 -1.12294e-06 -3.54321e-06 0 -1.2452e-06 -3.80513e-06 0 -1.36243e-06 -4.10525e-06 0 -1.47146e-06 -4.44663e-06 0 -1.5679e-06 -4.83238e-06 0 -1.64589e-06 -5.26536e-06 0 -1.69765e-06 -5.74783e-06 0 -1.71305e-06 -6.28068e-06 0 -1.67923e-06 -6.86252e-06 0 -1.5802e-06 -7.48784e-06 0 -1.39686e-06 -8.14516e-06 0 -1.1078e-06 -8.81267e-06 0 -6.9129e-07 -9.45517e-06 0 -1.30714e-07 -1.00153e-05 0 5.76087e-07 -1.04106e-05 0 1.39745e-06 -1.05219e-05 0 2.24009e-06 -1.02027e-05 0 2.90123e-06 -9.28941e-06 0 3.02741e-06 -7.66272e-06 0 2.07682e-06 -5.38696e-06 0 -5.83123e-07 -2.76166e-06 0 -5.48789e-06 -9.42049e-07 0 -1.26879e-05 1.45747e-06 0 0 -2.39379e-06 0 -1.45767e-07 -2.40512e-06 0 -2.9213e-07 -2.43927e-06 0 -4.39656e-07 -2.49671e-06 0 -5.88852e-07 -2.57827e-06 0 -7.40126e-07 -2.68508e-06 0 -8.93739e-07 -2.81867e-06 0 -1.04975e-06 -2.98095e-06 0 -1.20791e-06 -3.17424e-06 0 -1.36761e-06 -3.40131e-06 0 -1.52765e-06 -3.66542e-06 0 -1.68614e-06 -3.97026e-06 0 -1.84015e-06 -4.32002e-06 0 -1.98543e-06 -4.71924e-06 0 -2.11594e-06 -5.17271e-06 0 -2.22323e-06 -5.68507e-06 0 -2.29572e-06 -6.26036e-06 0 -2.31778e-06 -6.90079e-06 0 -2.26865e-06 -7.6056e-06 0 -2.12132e-06 -8.36743e-06 0 -1.84178e-06 -9.16985e-06 0 -1.38894e-06 -9.97775e-06 0 -7.17588e-07 -1.07325e-05 0 2.14619e-07 -1.13299e-05 0 1.42685e-06 -1.16137e-05 0 2.87978e-06 -1.13413e-05 0 4.39716e-06 -1.01954e-05 0 5.56408e-06 -7.82302e-06 0 5.57205e-06 -3.95657e-06 0 3.247e-06 1.02794e-06 0 -2.65008e-06 6.59034e-06 0 -1.26516e-05 5.87445e-06 0 0 -2.23692e-06 0 -1.681e-07 -2.24787e-06 0 -3.37128e-07 -2.28088e-06 0 -5.07989e-07 -2.33648e-06 0 -6.81543e-07 -2.41554e-06 0 -8.58575e-07 -2.51933e-06 0 -1.03975e-06 -2.64952e-06 0 -1.22557e-06 -2.80825e-06 0 -1.41629e-06 -2.99816e-06 0 -1.6118e-06 -3.22247e-06 0 -1.8115e-06 -3.48503e-06 0 -2.01409e-06 -3.79042e-06 0 -2.21727e-06 -4.14397e-06 0 -2.41735e-06 -4.55187e-06 0 -2.60869e-06 -5.02103e-06 0 -2.78294e-06 -5.5592e-06 0 -2.92797e-06 -6.17421e-06 0 -3.02651e-06 -6.87402e-06 0 -3.05408e-06 -7.66414e-06 0 -2.97687e-06 -8.5473e-06 0 -2.74803e-06 -9.51567e-06 0 -2.30575e-06 -1.05492e-05 0 -1.56774e-06 -1.15937e-05 0 -4.37391e-07 -1.25545e-05 0 1.19756e-06 -1.32413e-05 0 3.41014e-06 -1.33468e-05 0 6.18868e-06 -1.23528e-05 0 9.16647e-06 -9.49963e-06 0 1.14124e-05 -3.9847e-06 0 1.07545e-05 4.86399e-06 0 4.39888e-06 1.45111e-05 0 -8.62372e-06 3.00446e-05 0 0 -2.05821e-06 0 -1.89503e-07 -2.0686e-06 0 -3.80286e-07 -2.09997e-06 0 -5.73616e-07 -2.15285e-06 0 -7.70738e-07 -2.22817e-06 0 -9.7285e-07 -2.32726e-06 0 -1.18108e-06 -2.45192e-06 0 -1.39645e-06 -2.60447e-06 0 -1.61979e-06 -2.78779e-06 0 -1.85168e-06 -3.00549e-06 0 -2.0923e-06 -3.26196e-06 0 -2.34123e-06 -3.56255e-06 0 -2.59718e-06 -3.91375e-06 0 -2.85757e-06 -4.32329e-06 0 -3.11792e-06 -4.80052e-06 0 -3.37099e-06 -5.35624e-06 0 -3.60561e-06 -6.00337e-06 0 -3.80452e-06 -6.7557e-06 0 -3.94246e-06 -7.62935e-06 0 -3.98092e-06 -8.63774e-06 0 -3.86556e-06 -9.7946e-06 0 -3.51309e-06 -1.10974e-05 0 -2.81216e-06 -1.25319e-05 0 -1.58927e-06 -1.40225e-05 0 3.60697e-07 -1.54275e-05 0 3.35643e-06 -1.64041e-05 0 7.62592e-06 -1.63186e-05 0 1.34072e-05 -1.39853e-05 0 1.97831e-05 -7.2886e-06 0 2.43031e-05 5.83507e-06 0 1.97226e-05 2.75467e-05 0 -3.25554e-06 3.31179e-05 0 0 -1.85877e-06 0 -2.09625e-07 -1.86843e-06 0 -4.20893e-07 -1.8976e-06 0 -6.35447e-07 -1.94684e-06 0 -8.54931e-07 -2.01709e-06 0 -1.08099e-06 -2.1097e-06 0 -1.31525e-06 -2.22655e-06 0 -1.55931e-06 -2.37002e-06 0 -1.81468e-06 -2.54319e-06 0 -2.08275e-06 -2.7499e-06 0 -2.36466e-06 -2.99495e-06 0 -2.66116e-06 -3.28432e-06 0 -2.97236e-06 -3.62538e-06 0 -3.2974e-06 -4.0274e-06 0 -3.63376e-06 -4.50165e-06 0 -3.97669e-06 -5.0625e-06 0 -4.31738e-06 -5.72691e-06 0 -4.64202e-06 -6.51708e-06 0 -4.92656e-06 -7.45748e-06 0 -5.13662e-06 -8.58127e-06 0 -5.21082e-06 -9.9192e-06 0 -5.06846e-06 -1.15147e-05 0 -4.55426e-06 -1.33881e-05 0 -3.48536e-06 -1.55656e-05 0 -1.46311e-06 -1.79733e-05 0 1.90611e-06 -2.04441e-05 0 7.63874e-06 -2.24202e-05 0 1.6362e-05 -2.25376e-05 0 2.99632e-05 -1.78096e-05 0 4.56064e-05 -7.05168e-07 0 5.33623e-05 3.49454e-05 0 2.98691e-05 0.000107201 0 0 -1.64005e-06 0 -2.28105e-07 -1.6488e-06 0 -4.58214e-07 -1.67524e-06 0 -6.92344e-07 -1.7199e-06 0 -9.32547e-07 -1.78371e-06 0 -1.18092e-06 -1.86801e-06 0 -1.43961e-06 -1.97465e-06 0 -1.71083e-06 -2.10601e-06 0 -1.99683e-06 -2.26521e-06 0 -2.29991e-06 -2.45616e-06 0 -2.62232e-06 -2.68387e-06 0 -2.9662e-06 -2.95464e-06 0 -3.33348e-06 -3.2765e-06 0 -3.7254e-06 -3.65959e-06 0 -4.1426e-06 -4.11703e-06 0 -4.5833e-06 -4.66533e-06 0 -5.0446e-06 -5.3264e-06 0 -5.51569e-06 -6.12742e-06 0 -5.98531e-06 -7.10581e-06 0 -6.41594e-06 -8.30628e-06 0 -6.77862e-06 -9.79341e-06 0 -6.95573e-06 -1.16385e-05 0 -6.88556e-06 -1.39504e-05 0 -6.20133e-06 -1.68312e-05 0 -4.79012e-06 -2.04346e-05 0 -1.47166e-06 -2.48472e-05 0 3.96837e-06 -3.00515e-05 0 1.5558e-05 -3.56138e-05 0 3.4169e-05 -3.88683e-05 0 7.36263e-05 -3.18387e-05 0 0.000128224 2.56304e-05 0 5.69439e-05 0.000176895 0 0 -1.40388e-06 0 -2.44589e-07 -1.41155e-06 0 -4.91526e-07 -1.43472e-06 0 -7.43187e-07 -1.47389e-06 0 -1.00202e-06 -1.52992e-06 0 -1.27056e-06 -1.60409e-06 0 -1.55148e-06 -1.69813e-06 0 -1.8476e-06 -1.8143e-06 0 -2.16196e-06 -1.95566e-06 0 -2.49778e-06 -2.12585e-06 0 -2.8585e-06 -2.3301e-06 0 -3.248e-06 -2.57411e-06 0 -3.66965e-06 -2.86711e-06 0 -4.12875e-06 -3.2176e-06 0 -4.62622e-06 -3.64314e-06 0 -5.17208e-06 -4.15504e-06 0 -5.75459e-06 -4.78975e-06 0 -6.40314e-06 -5.55796e-06 0 -7.05308e-06 -6.54156e-06 0 -7.81399e-06 -7.73544e-06 0 -8.41679e-06 -9.33262e-06 0 -9.2884e-06 -1.12682e-05 0 -9.40285e-06 -1.39933e-05 0 -1.03803e-05 -1.7305e-05 0 -8.4807e-06 -2.21572e-05 0 -9.57676e-06 -2.83015e-05 0 -4.348e-07 -3.71471e-05 0 -1.01518e-06 -5.03122e-05 0 3.50923e-05 -6.61012e-05 0 5.30778e-05 -0.000104279 0 0.000236926 -9.38588e-05 0 0.00122338 -0.000335656 0 </DataArray> 
</PointData> 
<Points> 
<DataArray type="Float32" NumberOfComponents="3"> 