<?xml version="1.0"?> 
<VTKFile type="StructuredGrid" version="0.1"> 
<StructuredGrid WholeExtent="0 31 0 31 0 0"> 
<Piece Extent="0 31 0 31 0 0"> 
<PointData>
<DataArray type="Float32" Name="B" format="ascii" NumberOfComponents="3"> 
-0.000525307 0.00474821 0 -0.000456327 -0.00105439 0 0.000268812 0.000140835 0 -0.000284465 -5.41845e-05 0 5.9906e-05 2.42237e-05 0 -0.000134972 9.89091e-06 0 -3.40055e-05 9.27628e-06 0 -9.89183e-05 1.16516e-05 0 -7.56484e-05 4.89843e-06 0 -9.96143e-05 6.42399e-06 0 -9.79424e-05 2.35347e-06 0 -0.000108328 2.67804e-06 0 -0.000110904 8.45323e-07 0 -0.000115718 8.31173e-07 0 -0.000117643 1.35613e-07 0 -0.000119233 1.17445e-07 0 -0.00011927 -1.0145e-07 0 -0.000118278 -6.63424e-08 0 -0.00011611 -1.32059e-07 0 -0.000112498 -3.35986e-08 0 -0.000108037 -1.1889e-07 0 -0.000101182 1.09592e-07 0 -9.48269e-05 -1.36594e-07 0 -8.29853e-05 3.81403e-07 0 -7.72312e-05 -4.76133e-08 0 -5.52057e-05 6.83802e-07 0 -5.93239e-05 1.44958e-06 0 -9.53029e-06 -7.16541e-07 0 -5.03124e-05 1.32111e-05 0 8.3436e-05 -2.16351e-05 0 7.74773e-05 0.0001983 0 -0.000282717 -0.00174799 0 0.000134326 0.00024864 0 8.53078e-05 -3.77041e-05 0 -3.8203e-05 -2.03502e-05 0 -3.82777e-05 1.4448e-06 0 -6.27599e-05 1.36716e-05 0 -6.13109e-05 1.76569e-05 0 -7.44992e-05 1.83429e-05 0 -7.95635e-05 1.69737e-05 0 -8.93077e-05 1.46895e-05 0 -9.58113e-05 1.21258e-05 0 -0.000102967 9.60324e-06 0 -0.000108312 7.32679e-06 0 -0.000112998 5.32217e-06 0 -0.000116343 3.59349e-06 0 -0.000118685 2.08049e-06 0 -0.000119855 7.32037e-07 0 -0.000119938 -5.17698e-07 0 -0.000118883 -1.721e-06 0 -0.00011666 -2.92963e-06 0 -0.000113231 -4.18181e-06 0 -0.000108453 -5.50915e-06 0 -0.000102355 -6.92123e-06 0 -9.45828e-05 -8.40947e-06 0 -8.55321e-05 -9.92283e-06 0 -7.42556e-05 -1.13939e-05 0 -6.24649e-05 -1.27443e-05 0 -4.70237e-05 -1.40557e-05 0 -3.33294e-05 -1.57417e-05 0 -1.00633e-05 -1.93193e-05 0 8.92958e-06 -2.98089e-05 0 4.96544e-05 -7.37676e-05 0 -1.15895e-05 -0.00018455 0 3.62954e-07 1.84342e-05 0 1.03491e-05 4.00251e-05 0 -1.08672e-05 1.31257e-05 0 -3.83624e-05 1.93117e-05 0 -5.01671e-05 2.38619e-05 0 -6.33596e-05 2.70376e-05 0 -7.27062e-05 2.74188e-05 0 -8.2923e-05 2.55718e-05 0 -9.13369e-05 2.2723e-05 0 -9.91648e-05 1.9164e-05 0 -0.000105588 1.56703e-05 0 -0.000111016 1.22607e-05 0 -0.000115249 9.17885e-06 0 -0.000118433 6.33572e-06 0 -0.000120532 3.74774e-06 0 -0.000121594 1.31375e-06 0 -0.000121604 -1.01885e-06 0 -0.00012055 -3.3398e-06 0 -0.00011839 -5.71172e-06 0 -0.00011505 -8.21042e-06 0 -0.000110444 -1.08775e-05 0 -0.000104422 -1.37606e-05 0 -9.68881e-05 -1.68224e-05 0 -8.76103e-05 -2.00262e-05 0 -7.66839e-05 -2.31583e-05 0 -6.38689e-05 -2.61112e-05 0 -5.0152e-05 -2.88476e-05 0 -3.48531e-05 -3.1986e-05 0 -2.035e-05 -3.77557e-05 0 -5.61496e-06 -4.85885e-05 0 -4.64628e-06 -7.3144e-05 0 -2.91655e-05 -7.11096e-05 0 -2.28056e-06 8.73967e-05 0 -4.5501e-06 3.95355e-05 0 -1.90567e-05 3.72555e-05 0 -3.28796e-05 3.47866e-05 0 -4.83094e-05 3.75621e-05 0 -6.14709e-05 3.91339e-05 0 -7.4821e-05 3.84331e-05 0 -8.60237e-05 3.55223e-05 0 -9.57357e-05 3.11141e-05 0 -0.000103573 2.63236e-05 0 -0.000110006 2.14781e-05 0 -0.000115095 1.69499e-05 0 -0.000119055 1.27285e-05 0 -0.000121942 8.85626e-06 0 -0.000123837 5.23724e-06 0 -0.000124761 1.80779e-06 0 -0.000124728 -1.5405e-06 0 -0.000123716 -4.89888e-06 0 -0.00012168 -8.37343e-06 0 -0.000118546 -1.20555e-05 0 -0.000114196 -1.60404e-05 0 -0.000108482 -2.03838e-05 0 -0.000101175 -2.51182e-05 0 -9.20671e-05 -3.01359e-05 0 -8.08634e-05 -3.52012e-05 0 -6.77416e-05 -3.97479e-05 0 -5.30097e-05 -4.33101e-05 0 -3.88762e-05 -4.63204e-05 0 -2.63567e-05 -5.00301e-05 0 -1.84206e-05 -5.68287e-05 0 -1.7055e-05 -6.28009e-05 0 -2.43453e-05 -7.62158e-05 0 -1.1913e-05 3.65061e-05 0 -1.33299e-05 5.2384e-05 0 -2.01393e-05 4.73309e-05 0 -3.19927e-05 4.91389e-05 0 -4.53912e-05 5.18193e-05 0 -6.1199e-05 5.39228e-05 0 -7.66969e-05 5.206e-05 0 -9.03302e-05 4.66438e-05 0 -0.000100599 4.00446e-05 0 -0.000108532 3.33329e-05 0 -0.000114602 2.70501e-05 0 -0.000119304 2.12486e-05 0 -0.000122847 1.59646e-05 0 -0.000125404 1.10936e-05 0 -0.00012705 6.55144e-06 0 -0.000127837 2.21026e-06 0 -0.000127775 -2.04551e-06 0 -0.000126849 -6.3468e-06 0 -0.000125015 -1.08203e-05 0 -0.000122195 -1.56027e-05 0 -0.000118271 -2.08247e-05 0 -0.000113046 -2.66194e-05 0 -0.000106273 -3.30714e-05 0 -9.74914e-05 -4.01918e-05 0 -8.62398e-05 -4.76819e-05 0 -7.1763e-05 -5.45562e-05 0 -5.57359e-05 -5.87082e-05 0 -4.0627e-05 -5.96393e-05 0 -2.93653e-05 -6.00054e-05 0 -2.24263e-05 -6.0847e-05 0 -2.07519e-05 -6.2879e-05 0 -2.31976e-05 -5.64306e-05 0 -1.10692e-05 6.182e-05 0 -1.34505e-05 5.31277e-05 0 -1.92827e-05 5.67706e-05 0 -2.80778e-05 6.04772e-05 0 -4.07603e-05 6.67652e-05 0 -5.98726e-05 7.39049e-05 0 -8.54746e-05 6.93768e-05 0 -0.000100577 5.88263e-05 0 -0.000110919 4.88545e-05 0 -0.000118106 3.99556e-05 0 -0.00012352 3.20614e-05 0 -0.000127542 2.5058e-05 0 -0.000130548 1.87596e-05 0 -0.000132678 1.30145e-05 0 -0.000134039 7.65506e-06 0 -0.000134674 2.53204e-06 0 -0.000134598 -2.50918e-06 0 -0.000133801 -7.62022e-06 0 -0.000132244 -1.29618e-05 0 -0.000129862 -1.87049e-05 0 -0.000126529 -2.50388e-05 0 -0.000122092 -3.21725e-05 0 -0.000116183 -4.03345e-05 0 -0.000108446 -4.97489e-05 0 -9.75933e-05 -6.0531e-05 0 -8.21532e-05 -7.23155e-05 0 -5.66774e-05 -7.84496e-05 0 -3.84021e-05 -7.31563e-05 0 -2.76687e-05 -6.86249e-05 0 -2.16703e-05 -6.53932e-05 0 -1.92027e-05 -6.21047e-05 0 -1.93741e-05 -6.14304e-05 0 -8.84855e-06 4.98097e-05 0 -1.07483e-05 5.84414e-05 0 -1.47061e-05 6.24079e-05 0 -2.11192e-05 7.01299e-05 0 -3.06892e-05 7.9816e-05 0 -4.51446e-05 9.84463e-05 0 -6.30464e-05 8.84724e-05 0 -7.51823e-05 7.00778e-05 0 -8.33259e-05 5.65678e-05 0 -8.90055e-05 4.55353e-05 0 -9.31698e-05 3.61976e-05 0 -9.62645e-05 2.81504e-05 0 -9.85542e-05 2.10107e-05 0 -0.000100175 1.45455e-05 0 -0.000101202 8.52585e-06 0 -0.000101671 2.76994e-06 0 -0.000101594 -2.90319e-06 0 -0.000100963 -8.66524e-06 0 -9.97512e-05 -1.47054e-05 0 -9.79115e-05 -2.12182e-05 0 -9.53605e-05 -2.84602e-05 0 -9.1963e-05 -3.66913e-05 0 -8.74709e-05 -4.63464e-05 0 -8.14781e-05 -5.78609e-05 0 -7.31107e-05 -7.20793e-05 0 -6.09541e-05 -9.13931e-05 0 -4.33878e-05 -0.000102477 0 -2.97734e-05 -8.49809e-05 0 -2.16295e-05 -7.61262e-05 0 -1.71032e-05 -6.88304e-05 0 -1.51284e-05 -6.37152e-05 0 -1.4847e-05 -5.73108e-05 0 -5.01373e-06 5.71616e-05 0 -5.80426e-06 5.96316e-05 0 -7.77169e-06 6.65863e-05 0 -1.11505e-05 7.60356e-05 0 -1.60466e-05 8.86774e-05 0 -2.26437e-05 0.000110081 0 -2.99391e-05 9.9177e-05 0 -3.59631e-05 7.76931e-05 0 -4.04275e-05 6.19025e-05 0 -4.37272e-05 4.94153e-05 0 -4.62268e-05 3.90977e-05 0 -4.81416e-05 3.03278e-05 0 -4.95888e-05 2.26047e-05 0 -5.0628e-05 1.56301e-05 0 -5.12885e-05 9.13742e-06 0 -5.15819e-05 2.92354e-06 0 -5.15105e-05 -3.20746e-06 0 -5.10698e-05 -9.43958e-06 0 -5.02497e-05 -1.59739e-05 0 -4.90331e-05 -2.30263e-05 0 -4.73901e-05 -3.08784e-05 0 -4.52693e-05 -3.98541e-05 0 -4.25722e-05 -5.04741e-05 0 -3.91227e-05 -6.33906e-05 0 -3.46089e-05 -7.97374e-05 0 -2.8719e-05 -0.000101904 0 -2.1813e-05 -0.000113543 0 -1.59465e-05 -9.28195e-05 0 -1.20896e-05 -8.06588e-05 0 -1.00147e-05 -7.11897e-05 0 -9.31197e-06 -6.40686e-05 0 -9.51873e-06 -5.88231e-05 0 4.44728e-08 5.37229e-05 0 3.70403e-07 6.07037e-05 0 4.3663e-07 6.77842e-05 0 4.0912e-07 7.81568e-05 0 4.21303e-07 9.14351e-05 0 7.6084e-07 0.000113542 0 1.42724e-06 0.000102422 0 1.47951e-06 8.03508e-05 0 1.19401e-06 6.40475e-05 0 6.44367e-07 5.11548e-05 0 1.47738e-08 4.05151e-05 0 -6.11303e-07 3.14612e-05 0 -1.1595e-06 2.34719e-05 0 -1.59064e-06 1.62338e-05 0 -1.87341e-06 9.47629e-06 0 -1.98961e-06 2.99313e-06 0 -1.92854e-06 -3.41069e-06 0 -1.68822e-06 -9.91796e-06 0 -1.27637e-06 -1.67281e-05 0 -7.10305e-07 -2.40546e-05 0 -2.52726e-08 -3.21806e-05 0 7.30026e-07 -4.1431e-05 0 1.46122e-06 -5.23425e-05 0 2.05733e-06 -6.5586e-05 0 2.29045e-06 -8.23213e-05 0 2.04652e-06 -0.000104876 0 9.94277e-07 -0.000116486 0 7.11096e-08 -9.47923e-05 0 -7.37103e-07 -8.17389e-05 0 -1.58613e-06 -7.13702e-05 0 -2.57005e-06 -6.37946e-05 0 -3.67651e-06 -5.70989e-05 0 5.07099e-06 5.43793e-05 0 6.77452e-06 5.94267e-05 0 8.87758e-06 6.66023e-05 0 1.18597e-05 7.62818e-05 0 1.65955e-05 8.8343e-05 0 2.38632e-05 0.000109204 0 3.18735e-05 9.85203e-05 0 3.81996e-05 7.79768e-05 0 4.18359e-05 6.28663e-05 0 4.3923e-05 5.0679e-05 0 4.50452e-05 4.04105e-05 0 4.56545e-05 3.15375e-05 0 4.59585e-05 2.36087e-05 0 4.61089e-05 1.63601e-05 0 4.6184e-05 9.54643e-06 0 4.62351e-05 2.98283e-06 0 4.62837e-05 -3.5105e-06 0 4.63302e-05 -1.01002e-05 0 4.63527e-05 -1.69686e-05 0 4.62979e-05 -2.4306e-05 0 4.60819e-05 -3.23636e-05 0 4.55427e-05 -4.14132e-05 0 4.44575e-05 -5.19096e-05 0 4.23509e-05 -6.43777e-05 0 3.86146e-05 -7.98095e-05 0 3.20758e-05 -0.000100695 0 2.37275e-05 -0.000111699 0 1.59779e-05 -9.10844e-05 0 1.06625e-05 -7.91407e-05 0 7.01619e-06 -6.93692e-05 0 4.30591e-06 -6.19836e-05 0 2.10935e-06 -5.60004e-05 0 1.01712e-05 5.1546e-05 0 1.28389e-05 5.70602e-05 0 1.6454e-05 6.31978e-05 0 2.16238e-05 7.10883e-05 0 2.98211e-05 8.00965e-05 0 4.49223e-05 9.40524e-05 0 6.74874e-05 8.63292e-05 0 7.87698e-05 7.11753e-05 0 8.55247e-05 5.88859e-05 0 8.94436e-05 4.82956e-05 0 9.20054e-05 3.89745e-05 0 9.35978e-05 3.06664e-05 0 9.46349e-05 2.30868e-05 0 9.52793e-05 1.60512e-05 0 9.56679e-05 9.37267e-06 0 9.58632e-05 2.90103e-06 0 9.58991e-05 -3.51318e-06 0 9.57748e-05 -1.00101e-05 0 9.54542e-05 -1.67409e-05 0 9.48713e-05 -2.38581e-05 0 9.38831e-05 -3.15523e-05 0 9.23182e-05 -4.00101e-05 0 8.97496e-05 -4.9517e-05 0 8.57749e-05 -6.03237e-05 0 7.88967e-05 -7.28507e-05 0 6.7411e-05 -8.82415e-05 0 4.45488e-05 -9.61737e-05 0 2.90688e-05 -8.23622e-05 0 2.04153e-05 -7.33943e-05 0 1.47756e-05 -6.54262e-05 0 1.06855e-05 -5.90268e-05 0 7.60669e-06 -5.33879e-05 0 1.45973e-05 4.91895e-05 0 1.80373e-05 5.3467e-05 0 2.25342e-05 5.84878e-05 0 2.8706e-05 6.39372e-05 0 3.75983e-05 6.96092e-05 0 5.06975e-05 7.30424e-05 0 6.62113e-05 7.01036e-05 0 7.75049e-05 6.21613e-05 0 8.495e-05 5.3246e-05 0 8.99316e-05 4.46189e-05 0 9.33032e-05 3.6563e-05 0 9.56067e-05 2.9057e-05 0 9.71663e-05 2.20351e-05 0 9.8197e-05 1.53836e-05 0 9.88282e-05 8.99647e-06 0 9.91384e-05 2.76041e-06 0 9.91623e-05 -3.43199e-06 0 9.88985e-05 -9.69101e-06 0 9.83091e-05 -1.61247e-05 0 9.73117e-05 -2.28476e-05 0 9.5771e-05 -2.99667e-05 0 9.34644e-05 -3.75957e-05 0 9.00589e-05 -4.57979e-05 0 8.50011e-05 -5.45895e-05 0 7.74282e-05 -6.36762e-05 0 6.59456e-05 -7.17816e-05 0 5.01819e-05 -7.48536e-05 0 3.67724e-05 -7.15e-05 0 2.75348e-05 -6.58326e-05 0 2.09932e-05 -6.02896e-05 0 1.61595e-05 -5.50991e-05 0 1.24392e-05 -5.04336e-05 0 1.84491e-05 4.5776e-05 0 2.22189e-05 4.94137e-05 0 2.69972e-05 5.31131e-05 0 3.31627e-05 5.67428e-05 0 4.11071e-05 5.96281e-05 0 5.08967e-05 6.07529e-05 0 6.14128e-05 5.85245e-05 0 7.04051e-05 5.35457e-05 0 7.73495e-05 4.71766e-05 0 8.24654e-05 4.0367e-05 0 8.61865e-05 3.35713e-05 0 8.88593e-05 2.69716e-05 0 9.0748e-05 2.06059e-05 0 9.2032e-05 1.44554e-05 0 9.28328e-05 8.46741e-06 0 9.32229e-05 2.57761e-06 0 9.32361e-05 -3.28581e-06 0 9.28709e-05 -9.19544e-06 0 9.20898e-05 -1.52233e-05 0 9.08163e-05 -2.14337e-05 0 8.8924e-05 -2.7879e-05 0 8.62274e-05 -3.45767e-05 0 8.24554e-05 -4.14854e-05 0 7.72548e-05 -4.84171e-05 0 7.0185e-05 -5.49085e-05 0 6.10241e-05 -5.9997e-05 0 5.02945e-05 -6.23079e-05 0 4.02561e-05 -6.12221e-05 0 3.20346e-05 -5.83175e-05 0 2.55918e-05 -5.46039e-05 0 2.05435e-05 -5.07409e-05 0 1.65387e-05 -4.69394e-05 0 2.153e-05 4.24056e-05 0 2.54035e-05 4.51387e-05 0 3.01001e-05 4.78097e-05 0 3.57945e-05 5.00968e-05 0 4.25727e-05 5.15842e-05 0 5.02117e-05 5.15779e-05 0 5.79814e-05 4.97969e-05 0 6.52038e-05 4.6242e-05 0 7.12495e-05 4.14677e-05 0 7.60665e-05 3.60486e-05 0 7.97736e-05 3.03691e-05 0 8.25629e-05 2.46389e-05 0 8.46002e-05 1.89592e-05 0 8.60206e-05 1.33614e-05 0 8.69188e-05 7.83994e-06 0 8.73557e-05 2.36762e-06 0 8.73599e-05 -3.09265e-06 0 8.69296e-05 -8.58147e-06 0 8.6033e-05 -1.41357e-05 0 8.46055e-05 -1.97823e-05 0 8.25481e-05 -2.55254e-05 0 7.97209e-05 -3.13319e-05 0 7.59535e-05 -3.70967e-05 0 7.10491e-05 -4.26047e-05 0 6.48856e-05 -4.74642e-05 0 5.7513e-05 -5.10913e-05 0 4.95635e-05 -5.29201e-05 0 4.17189e-05 -5.29397e-05 0 3.47223e-05 -5.14217e-05 0 2.88047e-05 -4.9053e-05 0 2.39038e-05 -4.62547e-05 0 1.98568e-05 -4.33184e-05 0 2.39974e-05 3.88514e-05 0 2.77699e-05 4.09678e-05 0 3.21854e-05 4.28326e-05 0 3.72985e-05 4.42568e-05 0 4.30686e-05 4.49293e-05 0 4.92956e-05 4.45812e-05 0 5.56286e-05 4.29503e-05 0 6.15303e-05 4.01299e-05 0 6.67331e-05 3.63651e-05 0 7.10803e-05 3.19654e-05 0 7.45843e-05 2.7197e-05 0 7.73155e-05 2.22462e-05 0 7.93693e-05 1.72237e-05 0 8.08304e-05 1.2188e-05 0 8.17663e-05 7.16141e-06 0 8.22217e-05 2.14531e-06 0 8.22184e-05 -2.87065e-06 0 8.17548e-05 -7.90006e-06 0 8.08061e-05 -1.29529e-05 0 7.93244e-05 -1.80271e-05 0 7.72387e-05 -2.3099e-05 0 7.44607e-05 -2.81076e-05 0 7.08916e-05 -3.2939e-05 0 6.64582e-05 -3.74021e-05 0 6.11461e-05 -4.12248e-05 0 5.51121e-05 -4.40902e-05 0 4.86255e-05 -4.57459e-05 0 4.22294e-05 -4.60909e-05 0 3.62805e-05 -4.53813e-05 0 3.09916e-05 -4.38834e-05 0 2.64096e-05 -4.19051e-05 0 2.24919e-05 -3.96556e-05 0 2.58929e-05 3.54429e-05 0 2.94876e-05 3.70037e-05 0 3.35618e-05 3.82946e-05 0 3.81149e-05 3.91436e-05 0 4.30797e-05 3.93714e-05 0 4.82937e-05 3.87869e-05 0 5.34942e-05 3.73227e-05 0 5.84573e-05 3.4979e-05 0 6.29313e-05 3.18883e-05 0 6.67982e-05 2.82343e-05 0 7.0012e-05 2.41958e-05 0 7.25897e-05 1.99157e-05 0 7.45717e-05 1.5496e-05 0 7.60063e-05 1.10017e-05 0 7.69348e-05 6.47068e-06 0 7.73871e-05 1.9222e-06 0 7.73778e-05 -2.63447e-06 0 7.69056e-05 -7.1934e-06 0 7.59532e-05 -1.17449e-05 0 7.4488e-05 -1.62689e-05 0 7.24658e-05 -2.07259e-05 0 6.98358e-05 -2.50489e-05 0 6.65552e-05 -2.91327e-05 0 6.26052e-05 -3.28306e-05 0 5.80309e-05 -3.59591e-05 0 5.29507e-05 -3.83289e-05 0 4.76189e-05 -3.98021e-05 0 4.22629e-05 -4.03734e-05 0 3.7152e-05 -4.01063e-05 0 3.24544e-05 -3.91892e-05 0 2.82476e-05 -3.78033e-05 0 2.45389e-05 -3.61153e-05 0 2.73526e-05 3.21543e-05 0 3.07203e-05 3.33155e-05 0 3.44457e-05 3.41877e-05 0 3.85036e-05 3.4662e-05 0 4.28228e-05 3.46134e-05 0 4.72811e-05 3.39474e-05 0 5.17243e-05 3.25961e-05 0 5.59532e-05 3.05805e-05 0 5.98319e-05 2.79725e-05 0 6.32502e-05 2.48821e-05 0 6.61561e-05 2.14284e-05 0 6.85342e-05 1.77188e-05 0 7.03954e-05 1.38382e-05 0 7.17604e-05 9.84931e-06 0 7.26516e-05 5.7956e-06 0 7.30858e-05 1.70682e-06 0 7.30719e-05 -2.39549e-06 0 7.26087e-05 -6.49226e-06 0 7.16853e-05 -1.05615e-05 0 7.02823e-05 -1.45726e-05 0 6.83754e-05 -1.84808e-05 0 6.59419e-05 -2.22213e-05 0 6.29693e-05 -2.57066e-05 0 5.9472e-05 -2.88262e-05 0 5.55014e-05 -3.14573e-05 0 5.11688e-05 -3.34857e-05 0 4.66121e-05 -3.48355e-05 0 4.20338e-05 -3.54823e-05 0 3.75924e-05 -3.54913e-05 0 3.34161e-05 -3.49556e-05 0 2.95804e-05 -3.40001e-05 0 2.61167e-05 -3.27393e-05 0 2.84522e-05 2.90629e-05 0 3.15897e-05 2.99056e-05 0 3.49905e-05 3.04802e-05 0 3.86215e-05 3.07022e-05 0 4.24201e-05 3.04922e-05 0 4.62921e-05 2.97822e-05 0 5.01159e-05 2.85445e-05 0 5.37796e-05 2.67821e-05 0 5.71643e-05 2.45404e-05 0 6.01881e-05 2.18903e-05 0 6.27963e-05 1.89134e-05 0 6.49628e-05 1.56888e-05 0 6.66802e-05 1.22854e-05 0 6.79528e-05 8.75934e-06 0 6.87889e-05 5.15427e-06 0 6.91961e-05 1.5045e-06 0 6.91787e-05 -2.16153e-06 0 6.87357e-05 -5.81724e-06 0 6.78612e-05 -9.43378e-06 0 6.65456e-05 -1.29761e-05 0 6.4779e-05 -1.63991e-05 0 6.25556e-05 -1.96453e-05 0 5.98819e-05 -2.26433e-05 0 5.67832e-05 -2.53117e-05 0 5.33146e-05 -2.75658e-05 0 4.95585e-05 -2.93318e-05 0 4.56358e-05 -3.05612e-05 0 4.16609e-05 -3.12487e-05 0 3.77593e-05 -3.14202e-05 0 3.40286e-05 -3.11426e-05 0 3.05364e-05 -3.04962e-05 0 2.73197e-05 -2.95654e-05 0 2.9279e-05 2.61568e-05 0 3.21918e-05 2.67644e-05 0 3.52992e-05 2.71245e-05 0 3.85666e-05 2.71789e-05 0 4.19394e-05 2.68713e-05 0 4.53443e-05 2.6161e-05 0 4.86973e-05 2.50242e-05 0 5.19024e-05 2.34671e-05 0 5.48804e-05 2.15182e-05 0 5.75617e-05 1.92248e-05 0 5.98979e-05 1.66441e-05 0 6.18582e-05 1.38353e-05 0 6.34267e-05 1.08533e-05 0 6.45976e-05 7.74674e-06 0 6.53703e-05 4.55663e-06 0 6.57462e-05 1.31813e-06 0 6.57262e-05 -1.93752e-06 0 6.53097e-05 -5.18029e-06 0 6.44941e-05 -8.3786e-06 0 6.32767e-05 -1.14966e-05 0 6.16569e-05 -1.44921e-05 0 5.96395e-05 -1.73153e-05 0 5.72395e-05 -1.99092e-05 0 5.44877e-05 -2.22128e-05 0 5.14326e-05 -2.41666e-05 0 4.81446e-05 -2.5721e-05 0 4.47046e-05 -2.68453e-05 0 4.12106e-05 -2.75318e-05 0 3.77494e-05 -2.78026e-05 0 3.43976e-05 -2.76983e-05 0 3.12125e-05 -2.72754e-05 0 2.82319e-05 -2.6594e-05 0 2.98904e-05 2.34407e-05 0 3.25965e-05 2.38683e-05 0 3.54449e-05 2.40757e-05 0 3.84029e-05 2.40189e-05 0 4.14243e-05 2.3659e-05 0 4.44509e-05 2.29667e-05 0 4.74148e-05 2.19286e-05 0 5.02496e-05 2.05472e-05 0 5.28885e-05 1.88422e-05 0 5.52766e-05 1.68468e-05 0 5.73705e-05 1.46024e-05 0 5.91397e-05 1.21536e-05 0 6.05645e-05 9.54464e-06 0 6.16336e-05 6.8166e-06 0 6.23411e-05 4.00671e-06 0 6.26846e-05 1.14869e-06 0 6.26628e-05 -1.72611e-06 0 6.22752e-05 -4.58709e-06 0 6.15217e-05 -7.4026e-06 0 6.0404e-05 -1.01383e-05 0 5.89269e-05 -1.27561e-05 0 5.7101e-05 -1.52138e-05 0 5.49455e-05 -1.74657e-05 0 5.24908e-05 -1.94655e-05 0 4.97809e-05 -2.11701e-05 0 4.68712e-05 -2.25447e-05 0 4.38299e-05 -2.3568e-05 0 4.07252e-05 -2.42362e-05 0 3.76271e-05 -2.45618e-05 0 3.45962e-05 -2.45739e-05 0 3.16813e-05 -2.43118e-05 0 2.89172e-05 -2.38201e-05 0 3.03384e-05 2.08986e-05 0 3.28567e-05 2.11926e-05 0 3.54784e-05 2.12917e-05 0 3.81735e-05 2.11639e-05 0 4.09026e-05 2.07808e-05 0 4.36182e-05 2.01226e-05 0 4.62682e-05 1.91791e-05 0 4.87967e-05 1.79529e-05 0 5.11531e-05 1.64581e-05 0 5.32911e-05 1.47185e-05 0 5.51731e-05 1.27648e-05 0 5.67703e-05 1.06316e-05 0 5.80622e-05 8.35434e-06 0 5.90348e-05 5.96769e-06 0 5.96796e-05 3.50453e-06 0 5.99916e-05 9.9592e-07 0 5.99686e-05 -1.52836e-06 0 5.961e-05 -4.03891e-06 0 5.89174e-05 -6.50571e-06 0 5.7895e-05 -8.89721e-06 0 5.65505e-05 -1.11798e-05 0 5.48974e-05 -1.33178e-05 0 5.2956e-05 -1.52747e-05 0 5.07552e-05 -1.70147e-05 0 4.83329e-05 -1.85057e-05 0 4.57361e-05 -1.97226e-05 0 4.30167e-05 -2.06502e-05 0 4.02318e-05 -2.1285e-05 0 3.74353e-05 -2.16364e-05 0 3.46766e-05 -2.17244e-05 0 3.19968e-05 -2.15776e-05 0 2.94279e-05 -2.12288e-05 0 3.06604e-05 1.85172e-05 0 3.30117e-05 1.87114e-05 0 3.54369e-05 1.87355e-05 0 3.79087e-05 1.85652e-05 0 4.03935e-05 1.818e-05 0 4.28518e-05 1.75653e-05 0 4.52405e-05 1.67144e-05 0 4.75161e-05 1.56291e-05 0 4.96359e-05 1.43199e-05 0 5.15616e-05 1.28047e-05 0 5.32605e-05 1.11069e-05 0 5.47061e-05 9.25345e-06 0 5.58785e-05 7.27312e-06 0 5.67629e-05 5.19496e-06 0 5.73497e-05 3.04756e-06 0 5.76326e-05 8.58746e-07 0 5.76088e-05 -1.34421e-06 0 5.72779e-05 -3.5342e-06 0 5.66422e-05 -5.68377e-06 0 5.57073e-05 -7.76467e-06 0 5.44825e-05 -9.74772e-06 0 5.29821e-05 -1.16031e-05 0 5.1226e-05 -1.33012e-05 0 4.92408e-05 -1.48141e-05 0 4.70597e-05 -1.61172e-05 0 4.47213e-05 -1.71919e-05 0 4.22697e-05 -1.80268e-05 0 3.97491e-05 -1.86193e-05 0 3.72044e-05 -1.89758e-05 0 3.46762e-05 -1.91108e-05 0 3.21999e-05 -1.90451e-05 0 2.98038e-05 -1.88037e-05 0 3.08874e-05 1.62791e-05 0 3.30919e-05 1.64003e-05 0 3.53476e-05 1.63742e-05 0 3.76301e-05 1.61825e-05 0 3.99101e-05 1.58099e-05 0 4.21544e-05 1.52458e-05 0 4.43275e-05 1.44854e-05 0 4.63925e-05 1.35304e-05 0 4.83144e-05 1.23887e-05 0 5.00607e-05 1.10742e-05 0 5.16028e-05 9.60488e-06 0 5.29169e-05 8.00225e-06 0 5.39841e-05 6.28965e-06 0 5.47901e-05 4.49135e-06 0 5.53247e-05 2.63189e-06 0 5.55815e-05 7.35687e-07 0 5.55572e-05 -1.17296e-06 0 5.52516e-05 -3.06979e-06 0 5.46675e-05 -4.93034e-06 0 5.38109e-05 -6.72986e-06 0 5.26918e-05 -8.44336e-06 0 5.13242e-05 -1.00459e-05 0 4.9727e-05 -1.15136e-05 0 4.79242e-05 -1.28241e-05 0 4.59447e-05 -1.39585e-05 0 4.38216e-05 -1.49025e-05 0 4.15908e-05 -1.56473e-05 0 3.92901e-05 -1.61909e-05 0 3.6956e-05 -1.65378e-05 0 3.46229e-05 -1.66984e-05 0 3.23214e-05 -1.66885e-05 0 3.00769e-05 -1.65267e-05 0 3.10428e-05 1.41677e-05 0 3.31198e-05 1.42365e-05 0 3.52307e-05 1.41791e-05 0 3.73533e-05 1.39816e-05 0 3.9462e-05 1.36323e-05 0 4.15284e-05 1.31236e-05 0 4.3522e-05 1.24521e-05 0 4.54123e-05 1.16192e-05 0 4.71691e-05 1.06313e-05 0 4.87645e-05 9.49892e-06 0 5.01736e-05 8.23652e-06 0 5.1375e-05 6.86117e-06 0 5.23513e-05 5.3919e-06 0 5.30889e-05 3.84888e-06 0 5.35778e-05 2.25292e-06 0 5.38117e-05 6.25074e-07 0 5.37872e-05 -1.0135e-06 0 5.35042e-05 -2.64159e-06 0 5.29656e-05 -4.23789e-06 0 5.21776e-05 -5.78109e-06 0 5.11501e-05 -7.25003e-06 0 4.98964e-05 -8.62406e-06 0 4.84341e-05 -9.88361e-06 0 4.67847e-05 -1.1011e-05 0 4.49736e-05 -1.19913e-05 0 4.30292e-05 -1.28133e-05 0 4.09821e-05 -1.34702e-05 0 3.88639e-05 -1.39603e-05 0 3.67058e-05 -1.42868e-05 0 3.45373e-05 -1.44573e-05 0 3.2385e-05 -1.44837e-05 0 3.02717e-05 -1.43803e-05 0 3.11457e-05 1.21665e-05 0 3.31133e-05 1.2199e-05 0 3.51014e-05 1.21247e-05 0 3.70899e-05 1.19329e-05 0 3.9056e-05 1.16149e-05 0 4.09749e-05 1.11651e-05 0 4.28204e-05 1.05809e-05 0 4.4566e-05 9.86384e-06 0 4.61857e-05 9.01878e-06 0 4.76553e-05 8.0542e-06 0 4.89528e-05 6.98144e-06 0 5.0059e-05 5.81421e-06 0 5.0958e-05 4.56798e-06 0 5.1637e-05 3.2594e-06 0 5.20867e-05 1.90586e-06 0 5.23009e-05 5.25201e-07 0 5.22763e-05 -8.64528e-07 0 5.2013e-05 -2.24517e-06 0 5.15137e-05 -3.59855e-06 0 5.07847e-05 -4.90666e-06 0 4.98353e-05 -6.1518e-06 0 4.8678e-05 -7.31696e-06 0 4.7329e-05 -8.38627e-06 0 4.58077e-05 -9.34557e-06 0 4.41363e-05 -1.01831e-05 0 4.23397e-05 -1.08899e-05 0 4.04443e-05 -1.14608e-05 0 3.84773e-05 -1.18942e-05 0 3.64657e-05 -1.21923e-05 0 3.4435e-05 -1.23608e-05 0 3.24087e-05 -1.24088e-05 0 3.04078e-05 -1.2347e-05 0 3.12104e-05 1.02597e-05 0 3.30857e-05 1.02683e-05 0 3.49712e-05 1.01881e-05 0 3.68485e-05 1.00109e-05 0 3.8697e-05 9.73006e-06 0 4.04948e-05 9.34144e-06 0 4.22188e-05 8.84337e-06 0 4.38457e-05 8.237e-06 0 4.53528e-05 7.52635e-06 0 4.67187e-05 6.71805e-06 0 4.79238e-05 5.8211e-06 0 4.89508e-05 4.84645e-06 0 4.97851e-05 3.80654e-06 0 5.0415e-05 2.71494e-06 0 5.08317e-05 1.58596e-06 0 5.10292e-05 4.34413e-07 0 5.10047e-05 -7.24642e-07 0 5.07581e-05 -1.87602e-06 0 5.02922e-05 -3.00456e-06 0 4.96128e-05 -4.09531e-06 0 4.87288e-05 -5.13374e-06 0 4.76518e-05 -6.106e-06 0 4.63968e-05 -6.99934e-06 0 4.4981e-05 -7.80246e-06 0 4.34245e-05 -8.50606e-06 0 4.17491e-05 -9.10319e-06 0 3.99781e-05 -9.58959e-06 0 3.81352e-05 -9.96394e-06 0 3.62442e-05 -1.02278e-05 0 3.43276e-05 -1.03855e-05 0 3.24067e-05 -1.04436e-05 0 3.05004e-05 -1.04106e-05 0 3.12486e-05 8.43216e-06 0 3.30476e-05 8.42661e-06 0 3.48489e-05 8.34887e-06 0 3.66355e-05 8.19277e-06 0 3.83886e-05 7.95343e-06 0 4.00884e-05 7.62774e-06 0 4.17143e-05 7.21456e-06 0 4.32454e-05 6.71491e-06 0 4.46615e-05 6.13195e-06 0 4.59434e-05 5.47088e-06 0 4.70734e-05 4.73874e-06 0 4.80357e-05 3.94413e-06 0 4.88171e-05 3.09692e-06 0 4.94067e-05 2.20794e-06 0 4.97962e-05 1.28869e-06 0 4.99802e-05 3.51147e-07 0 4.99558e-05 -5.92443e-07 0 4.9723e-05 -1.52973e-06 0 4.92846e-05 -2.44842e-06 0 4.8646e-05 -3.33641e-06 0 4.78156e-05 -4.18202e-06 0 4.68043e-05 -4.97423e-06 0 4.56257e-05 -5.70294e-06 0 4.42955e-05 -6.35929e-06 0 4.28319e-05 -6.936e-06 0 4.12544e-05 -7.42765e-06 0 3.95837e-05 -7.8309e-06 0 3.78411e-05 -8.14463e-06 0 3.60479e-05 -8.36992e-06 0 3.42243e-05 -8.50992e-06 0 3.23897e-05 -8.56962e-06 0 3.05615e-05 -8.55539e-06 0 3.1269e-05 6.66957e-06 0 3.30069e-05 6.65718e-06 0 3.47411e-05 6.58824e-06 0 3.64557e-05 6.4582e-06 0 3.81334e-05 6.26348e-06 0 3.9756e-05 6.00187e-06 0 4.13046e-05 5.67259e-06 0 4.27603e-05 5.27648e-06 0 4.41047e-05 4.81597e-06 0 4.53203e-05 4.29504e-06 0 4.63909e-05 3.71905e-06 0 4.73021e-05 3.09458e-06 0 4.80414e-05 2.4292e-06 0 4.85989e-05 1.73128e-06 0 4.89668e-05 1.00975e-06 0 4.91399e-05 2.73947e-07 0 4.91156e-05 -4.66552e-07 0 4.8894e-05 -1.20209e-06 0 4.84775e-05 -1.92304e-06 0 4.78716e-05 -2.61999e-06 0 4.70839e-05 -3.28387e-06 0 4.61246e-05 -3.90618e-06 0 4.50064e-05 -4.47916e-06 0 4.37438e-05 -4.99606e-06 0 4.23533e-05 -5.45134e-06 0 4.08528e-05 -5.84087e-06 0 3.92611e-05 -6.1621e-06 0 3.75977e-05 -6.41411e-06 0 3.58816e-05 -6.59764e-06 0 3.41318e-05 -6.71493e-06 0 3.23659e-05 -6.76967e-06 0 3.06002e-05 -6.76654e-06 0 3.12785e-05 4.95813e-06 0 3.29696e-05 4.94438e-06 0 3.46527e-05 4.88891e-06 0 3.63127e-05 4.78851e-06 0 3.79333e-05 4.64069e-06 0 3.94975e-05 4.44392e-06 0 4.09878e-05 4.19771e-06 0 4.23867e-05 3.9027e-06 0 4.3677e-05 3.56066e-06 0 4.48425e-05 3.17447e-06 0 4.58682e-05 2.74801e-06 0 4.67406e-05 2.28606e-06 0 4.74481e-05 1.79412e-06 0 4.79812e-05 1.27829e-06 0 4.83326e-05 7.45116e-07 0 4.84975e-05 2.01461e-07 0 4.84733e-05 -3.45634e-07 0 4.82601e-05 -8.89054e-07 0 4.78605e-05 -1.42172e-06 0 4.72793e-05 -1.93672e-06 0 4.6524e-05 -2.42742e-06 0 4.56042e-05 -2.88761e-06 0 4.45317e-05 -3.31167e-06 0 4.33201e-05 -3.6947e-06 0 4.19849e-05 -4.0327e-06 0 4.05425e-05 -4.32268e-06 0 3.90104e-05 -4.5628e-06 0 3.74066e-05 -4.75234e-06 0 3.5749e-05 -4.89179e-06 0 3.40551e-05 -4.98271e-06 0 3.23415e-05 -5.02766e-06 0 3.06237e-05 -5.02994e-06 0 3.1282e-05 3.28458e-06 0 3.294e-05 3.27335e-06 0 3.45872e-05 3.23463e-06 0 3.62089e-05 3.16639e-06 0 3.77896e-05 3.06703e-06 0 3.9313e-05 2.93561e-06 0 4.07626e-05 2.77183e-06 0 4.21217e-05 2.57612e-06 0 4.33743e-05 2.34966e-06 0 4.45048e-05 2.09431e-06 0 4.54991e-05 1.8126e-06 0 4.63443e-05 1.50763e-06 0 4.70295e-05 1.183e-06 0 4.75455e-05 8.42692e-07 0 4.78853e-05 4.91001e-07 0 4.80444e-05 1.32427e-07 0 4.80204e-05 -2.28399e-07 0 4.78132e-05 -5.86799e-07 0 4.74254e-05 -9.38123e-07 0 4.68616e-05 -1.27783e-06 0 4.6129e-05 -1.60158e-06 0 4.52369e-05 -1.90531e-06 0 4.41963e-05 -2.18536e-06 0 4.30204e-05 -2.43854e-06 0 4.17237e-05 -2.66225e-06 0 4.03219e-05 -2.85456e-06 0 3.88314e-05 -3.01425e-06 0 3.72694e-05 -3.14085e-06 0 3.56526e-05 -3.23464e-06 0 3.39979e-05 -3.2966e-06 0 3.23211e-05 -3.32836e-06 0 3.0637e-05 -3.33203e-06 0 3.12828e-05 1.63606e-06 0 3.29211e-05 1.62984e-06 0 3.4547e-05 1.60997e-06 0 3.61459e-05 1.57547e-06 0 3.7703e-05 1.52555e-06 0 3.92023e-05 1.45977e-06 0 4.06278e-05 1.37799e-06 0 4.19635e-05 1.28043e-06 0 4.31937e-05 1.16766e-06 0 4.43036e-05 1.04061e-06 0 4.52793e-05 9.00526e-07 0 4.61084e-05 7.48932e-07 0 4.67804e-05 5.87606e-07 0 4.72862e-05 4.18518e-07 0 4.76193e-05 2.43791e-07 0 4.7775e-05 6.56545e-08 0 4.7751e-05 -1.13595e-07 0 4.75474e-05 -2.9164e-07 0 4.71665e-05 -4.66174e-07 0 4.66131e-05 -6.34949e-07 0 4.5894e-05 -7.95817e-07 0 4.50182e-05 -9.46774e-07 0 4.39965e-05 -1.08601e-06 0 4.28417e-05 -1.21196e-06 0 4.15678e-05 -1.32333e-06 0 4.01899e-05 -1.41919e-06 0 3.87241e-05 -1.49891e-06 0 3.71867e-05 -1.56228e-06 0 3.55942e-05 -1.60942e-06 0 3.39626e-05 -1.64079e-06 0 3.23076e-05 -1.6572e-06 0 3.06436e-05 -1.65966e-06 0 3.12828e-05 -0 0 3.29147e-05 2.18865e-19 0 3.45334e-05 -1.83329e-19 0 3.61249e-05 -1.39604e-19 0 3.76741e-05 -0 0 3.91654e-05 -0 0 4.0583e-05 -0 0 4.19109e-05 -0 0 4.31337e-05 -0 0 4.42367e-05 -0 0 4.52063e-05 2.2283e-20 0 4.60301e-05 3.17875e-19 0 4.66977e-05 4.99495e-20 0 4.72002e-05 -3.32469e-19 0 4.7531e-05 -6.77096e-20 0 4.76855e-05 -0 0 4.76616e-05 -0 0 4.74591e-05 -0 0 4.70806e-05 -7.51904e-20 0 4.65306e-05 -3.25001e-19 0 4.5816e-05 -2.73261e-20 0 4.49456e-05 -0 0 4.39302e-05 -0 0 4.27824e-05 -0 0 4.1516e-05 1.17873e-19 0 4.0146e-05 2.49536e-19 0 3.86883e-05 4.76755e-21 0 3.71591e-05 -0 0 3.55746e-05 -0 0 3.39507e-05 -0 0 3.23029e-05 -0 0 3.06456e-05 -0 0 </DataArray> 
</PointData> 
<Points> 
<DataArray type="Float32" NumberOfComponents="3"> 