<?xml version="1.0"?> 
<VTKFile type="StructuredGrid" version="0.1"> 
<StructuredGrid WholeExtent="0 31 0 31 0 0"> 
<Piece Extent="0 31 0 31 0 0"> 
<PointData>
<DataArray type="Float32" Name="B" format="ascii" NumberOfComponents="3"> 
-0.0101408 0.00215071 0 -0.00062875 -4.50665e-05 0 5.54662e-05 9.4236e-05 0 -0.000300651 4.86198e-05 0 -1.84441e-05 5.27396e-05 0 -0.000132341 4.48031e-05 0 -4.64219e-05 4.04087e-05 0 -7.43639e-05 3.66602e-05 0 -4.66606e-05 3.23435e-05 0 -5.06588e-05 2.93337e-05 0 -4.00947e-05 2.59902e-05 0 -3.82673e-05 2.34496e-05 0 -3.29806e-05 2.09265e-05 0 -3.01834e-05 1.88632e-05 0 -2.67614e-05 1.69491e-05 0 -2.41495e-05 1.53213e-05 0 -2.15703e-05 1.38604e-05 0 -1.93362e-05 1.25965e-05 0 -1.72505e-05 1.148e-05 0 -1.53632e-05 1.05091e-05 0 -1.36173e-05 9.65952e-06 0 -1.20077e-05 8.9227e-06 0 -1.05109e-05 8.28467e-06 0 -9.11358e-06 7.73701e-06 0 -7.80077e-06 7.27081e-06 0 -6.55969e-06 6.87954e-06 0 -5.37848e-06 6.55735e-06 0 -4.24592e-06 6.29972e-06 0 -3.15163e-06 6.10295e-06 0 -2.08557e-06 5.96433e-06 0 -1.03816e-06 5.8819e-06 0 0 5.85456e-06 0 -0.000244509 -0.00156385 0 -0.000374616 1.05412e-05 0 -0.000246955 2.12527e-05 0 -0.000119718 4.40848e-05 0 -0.000119384 4.08111e-05 0 -7.99746e-05 3.98776e-05 0 -7.61384e-05 3.66818e-05 0 -6.06305e-05 3.33814e-05 0 -5.55505e-05 3.02994e-05 0 -4.76792e-05 2.7193e-05 0 -4.30569e-05 2.44906e-05 0 -3.80579e-05 2.19475e-05 0 -3.42257e-05 1.97335e-05 0 -3.05735e-05 1.77305e-05 0 -2.74541e-05 1.59793e-05 0 -2.45897e-05 1.44242e-05 0 -2.20375e-05 1.30624e-05 0 -1.97081e-05 1.18635e-05 0 -1.75933e-05 1.08146e-05 0 -1.56549e-05 9.89641e-06 0 -1.38745e-05 9.09599e-06 0 -1.22295e-05 8.40012e-06 0 -1.07026e-05 7.79842e-06 0 -9.27739e-06 7.28154e-06 0 -7.9393e-06 6.84181e-06 0 -6.67499e-06 6.47269e-06 0 -5.47215e-06 6.16882e-06 0 -4.31935e-06 5.92583e-06 0 -3.20581e-06 5.74027e-06 0 -2.12129e-06 5.60955e-06 0 -1.05589e-06 5.53183e-06 0 8.31309e-20 5.50604e-06 0 1.56044e-05 -0.000759966 0 -0.000316138 -0.000129214 0 -0.000201086 1.66334e-06 0 -0.000137564 2.59963e-05 0 -0.000107531 3.34076e-05 0 -8.68378e-05 3.41915e-05 0 -7.35911e-05 3.27809e-05 0 -6.34098e-05 3.05097e-05 0 -5.55505e-05 2.78695e-05 0 -4.90894e-05 2.52866e-05 0 -4.36348e-05 2.27905e-05 0 -3.89474e-05 2.05212e-05 0 -3.48362e-05 1.84502e-05 0 -3.12088e-05 1.66083e-05 0 -2.79699e-05 1.4966e-05 0 -2.50668e-05 1.35177e-05 0 -2.24462e-05 1.22396e-05 0 -2.00718e-05 1.11175e-05 0 -1.79095e-05 1.01328e-05 0 -1.59322e-05 9.27171e-06 0 -1.41155e-05 8.52034e-06 0 -1.24386e-05 7.86736e-06 0 -1.08829e-05 7.30262e-06 0 -9.43155e-06 6.81759e-06 0 -8.06965e-06 6.40495e-06 0 -6.78344e-06 6.05861e-06 0 -5.56028e-06 5.77352e-06 0 -4.38841e-06 5.54557e-06 0 -3.25679e-06 5.37151e-06 0 -2.15488e-06 5.24889e-06 0 -1.07257e-06 5.17599e-06 0 6.40696e-20 5.1518e-06 0 -2.7603e-05 -0.000437154 0 -0.000234131 -0.000158585 0 -0.000177578 -2.18034e-05 0 -0.000134406 1.29758e-05 0 -0.000104787 2.56452e-05 0 -8.72672e-05 2.89391e-05 0 -7.38207e-05 2.90132e-05 0 -6.42485e-05 2.75794e-05 0 -5.63056e-05 2.55175e-05 0 -4.99073e-05 2.33084e-05 0 -4.43815e-05 2.11047e-05 0 -3.96422e-05 1.90483e-05 0 -3.54606e-05 1.71557e-05 0 -3.17671e-05 1.54556e-05 0 -2.84654e-05 1.39356e-05 0 -2.55043e-05 1.25898e-05 0 -2.28316e-05 1.1401e-05 0 -2.04102e-05 1.03554e-05 0 -1.8206e-05 9.43769e-06 0 -1.61912e-05 8.63463e-06 0 -1.43412e-05 7.93386e-06 0 -1.26343e-05 7.32477e-06 0 -1.10515e-05 6.798e-06 0 -9.5758e-06 6.34559e-06 0 -8.19161e-06 5.96073e-06 0 -6.8849e-06 5.63774e-06 0 -5.64272e-06 5.37188e-06 0 -4.45301e-06 5.15933e-06 0 -3.30446e-06 4.99703e-06 0 -2.18629e-06 4.88271e-06 0 -1.08817e-06 4.81474e-06 0 0 4.7922e-06 0 -2.34562e-06 -0.000303338 0 -0.000170547 -0.000150238 0 -0.000156426 -3.81277e-05 0 -0.000126472 2.8133e-06 0 -0.000102457 1.859e-05 0 -8.64013e-05 2.40906e-05 0 -7.40548e-05 2.53903e-05 0 -6.47056e-05 2.47114e-05 0 -5.69892e-05 2.31856e-05 0 -5.05845e-05 2.1324e-05 0 -4.50621e-05 1.9405e-05 0 -4.02663e-05 1.7555e-05 0 -3.60349e-05 1.58406e-05 0 -3.22805e-05 1.42824e-05 0 -2.89239e-05 1.28862e-05 0 -2.59095e-05 1.16443e-05 0 -2.31893e-05 1.05464e-05 0 -2.07244e-05 9.57914e-06 0 -1.84815e-05 8.72985e-06 0 -1.6432e-05 7.9862e-06 0 -1.45509e-05 7.33722e-06 0 -1.28162e-05 6.77304e-06 0 -1.12084e-05 6.28513e-06 0 -9.70988e-06 5.86609e-06 0 -8.30496e-06 5.50965e-06 0 -6.9792e-06 5.21053e-06 0 -5.71933e-06 4.96433e-06 0 -4.51304e-06 4.76751e-06 0 -3.34876e-06 4.61724e-06 0 -2.21549e-06 4.51138e-06 0 -1.10267e-06 4.44846e-06 0 1.04757e-21 4.42758e-06 0 -3.1939e-06 -0.000213594 0 -0.000126153 -0.000133885 0 -0.000135807 -4.60988e-05 0 -0.000117642 -5.00363e-06 0 -9.92663e-05 1.26286e-05 0 -8.51394e-05 1.96851e-05 0 -7.39518e-05 2.19604e-05 0 -6.49947e-05 2.19476e-05 0 -5.75222e-05 2.08766e-05 0 -5.11691e-05 1.93529e-05 0 -4.566e-05 1.76914e-05 0 -4.08295e-05 1.60498e-05 0 -3.65557e-05 1.45059e-05 0 -3.27502e-05 1.30923e-05 0 -2.93443e-05 1.18189e-05 0 -2.62823e-05 1.06833e-05 0 -2.35186e-05 9.67715e-06 0 -2.10141e-05 8.78989e-06 0 -1.87356e-05 8.01022e-06 0 -1.66541e-05 7.3273e-06 0 -1.47444e-05 6.73115e-06 0 -1.2984e-05 6.21286e-06 0 -1.1353e-05 5.76462e-06 0 -9.83358e-06 5.37965e-06 0 -8.40954e-06 5.05221e-06 0 -7.06619e-06 4.77744e-06 0 -5.79e-06 4.5513e-06 0 -4.56841e-06 4.37053e-06 0 -3.38961e-06 4.23251e-06 0 -2.24241e-06 4.1353e-06 0 -1.11603e-06 4.07751e-06 0 7.32758e-20 4.05834e-06 0 7.88672e-07 -0.000166774 0 -9.59099e-05 -0.000114644 0 -0.000117314 -4.85851e-05 0 -0.000108718 -1.0356e-05 0 -9.55225e-05 7.77239e-06 0 -8.35902e-05 1.57807e-05 0 -7.35813e-05 1.87752e-05 0 -6.51349e-05 1.92936e-05 0 -5.79248e-05 1.86168e-05 0 -5.1665e-05 1.73944e-05 0 -4.61808e-05 1.59756e-05 0 -4.13325e-05 1.45327e-05 0 -3.7024e-05 1.31568e-05 0 -3.3176e-05 1.18862e-05 0 -2.97263e-05 1.07363e-05 0 -2.66221e-05 9.70766e-06 0 -2.38191e-05 8.79473e-06 0 -2.12787e-05 7.98865e-06 0 -1.89678e-05 7.27986e-06 0 -1.68572e-05 6.65875e-06 0 -1.49214e-05 6.11645e-06 0 -1.31375e-05 5.64491e-06 0 -1.14853e-05 5.23708e-06 0 -9.9467e-06 4.88684e-06 0 -8.50516e-06 4.58893e-06 0 -7.14573e-06 4.33896e-06 0 -5.85462e-06 4.13324e-06 0 -4.61903e-06 3.9688e-06 0 -3.42696e-06 3.84326e-06 0 -2.26702e-06 3.75483e-06 0 -1.12825e-06 3.70227e-06 0 3.40561e-20 3.68483e-06 0 -1.49236e-06 -0.00012738 0 -7.5272e-05 -9.71991e-05 0 -0.000101454 -4.71988e-05 0 -0.000100292 -1.36197e-05 0 -9.15047e-05 4.02117e-06 0 -8.1871e-05 1.2402e-05 0 -7.30118e-05 1.58528e-05 0 -6.51518e-05 1.67687e-05 0 -5.8216e-05 1.64125e-05 0 -5.20785e-05 1.54577e-05 0 -4.66298e-05 1.42607e-05 0 -4.17764e-05 1.30084e-05 0 -3.7441e-05 1.17954e-05 0 -3.35578e-05 1.06668e-05 0 -3.007e-05 9.64014e-06 0 -2.69286e-05 8.71925e-06 0 -2.40904e-05 7.90038e-06 0 -2.15178e-05 7.17663e-06 0 -1.91777e-05 6.53976e-06 0 -1.70409e-05 5.98147e-06 0 -1.50814e-05 5.49389e-06 0 -1.32763e-05 5.06989e-06 0 -1.1605e-05 4.70316e-06 0 -1.0049e-05 4.38821e-06 0 -8.59167e-06 4.12033e-06 0 -7.21768e-06 3.89557e-06 0 -5.91307e-06 3.7106e-06 0 -4.66482e-06 3.56275e-06 0 -3.46075e-06 3.44988e-06 0 -2.28929e-06 3.37039e-06 0 -1.13931e-06 3.32314e-06 0 0 3.30746e-06 0 2.97802e-08 -0.000103175 0 -6.0857e-05 -8.10661e-05 0 -8.85294e-05 -4.36656e-05 0 -9.25356e-05 -1.50852e-05 0 -8.75589e-05 1.26899e-06 0 -8.00419e-05 9.5498e-06 0 -7.23362e-05 1.32032e-05 0 -6.50617e-05 1.43778e-05 0 -5.8421e-05 1.42729e-05 0 -5.24144e-05 1.35454e-05 0 -4.70134e-05 1.25515e-05 0 -4.21624e-05 1.14788e-05 0 -3.7808e-05 1.04246e-05 0 -3.38956e-05 9.43574e-06 0 -3.03754e-05 8.53221e-06 0 -2.72013e-05 7.71941e-06 0 -2.43323e-05 6.99549e-06 0 -2.17312e-05 6.35495e-06 0 -1.93652e-05 5.79095e-06 0 -1.72049e-05 5.29633e-06 0 -1.52244e-05 4.86427e-06 0 -1.34003e-05 4.48851e-06 0 -1.17119e-05 4.16349e-06 0 -1.01404e-05 3.88436e-06 0 -8.66893e-06 3.64695e-06 0 -7.28194e-06 3.44776e-06 0 -5.96526e-06 3.28384e-06 0 -4.70571e-06 3.15282e-06 0 -3.49092e-06 3.05281e-06 0 -2.30916e-06 2.98237e-06 0 -1.14918e-06 2.9405e-06 0 0 2.92661e-06 0 -1.03982e-06 -8.11181e-05 0 -5.07237e-05 -6.69942e-05 0 -7.80881e-05 -3.87849e-05 0 -8.57548e-05 -1.5176e-05 0 -8.38155e-05 -5.89463e-07 0 -7.824e-05 7.19514e-06 0 -7.15982e-05 1.08197e-05 0 -6.49051e-05 1.21243e-05 0 -5.85524e-05 1.21989e-05 0 -5.26842e-05 1.16614e-05 0 -4.73352e-05 1.085e-05 0 -4.24937e-05 9.94678e-06 0 -3.81258e-05 9.04621e-06 0 -3.419e-05 8.19515e-06 0 -3.06423e-05 7.41409e-06 0 -2.74403e-05 6.7097e-06 0 -2.45444e-05 6.0813e-06 0 -2.19184e-05 5.52476e-06 0 -1.95297e-05 5.03442e-06 0 -1.7349e-05 4.60425e-06 0 -1.535e-05 4.22841e-06 0 -1.35093e-05 3.90151e-06 0 -1.18058e-05 3.61873e-06 0 -1.02207e-05 3.37588e-06 0 -8.73681e-06 3.16933e-06 0 -7.33839e-06 2.99603e-06 0 -6.01112e-06 2.85344e-06 0 -4.74163e-06 2.73946e-06 0 -3.51742e-06 2.65245e-06 0 -2.32663e-06 2.59118e-06 0 -1.15785e-06 2.55476e-06 0 0 2.54267e-06 0 -3.14508e-07 -6.4911e-05 0 -4.34351e-05 -5.42875e-05 0 -6.99257e-05 -3.32444e-05 0 -7.99489e-05 -1.42039e-05 0 -8.04621e-05 -1.69495e-06 0 -7.65306e-05 5.29297e-06 0 -7.08665e-05 8.68694e-06 0 -6.47049e-05 1.00023e-05 0 -5.86308e-05 1.01906e-05 0 -5.2895e-05 9.80607e-06 0 -4.76009e-05 9.15798e-06 0 -4.2772e-05 8.4139e-06 0 -3.83957e-05 7.66211e-06 0 -3.44412e-05 6.9466e-06 0 -3.08708e-05 6.2874e-06 0 -2.76453e-05 5.69149e-06 0 -2.47266e-05 5.15912e-06 0 -2.20794e-05 4.68721e-06 0 -1.96712e-05 4.27121e-06 0 -1.74729e-05 3.90614e-06 0 -1.5458e-05 3.58712e-06 0 -1.3603e-05 3.30961e-06 0 -1.18866e-05 3.06954e-06 0 -1.02898e-05 2.86337e-06 0 -8.7952e-06 2.68802e-06 0 -7.38696e-06 2.5409e-06 0 -6.05056e-06 2.41985e-06 0 -4.77253e-06 2.3231e-06 0 -3.54022e-06 2.24924e-06 0 -2.34165e-06 2.19723e-06 0 -1.1653e-06 2.16631e-06 0 0 2.15606e-06 0 -7.07132e-07 -5.00544e-05 0 -3.82276e-05 -4.29101e-05 0 -6.36016e-05 -2.73406e-05 0 -7.51979e-05 -1.2465e-05 0 -7.7561e-05 -2.17927e-06 0 -7.50078e-05 3.7838e-06 0 -7.01795e-05 6.77914e-06 0 -6.44941e-05 8.00159e-06 0 -5.86689e-05 8.24339e-06 0 -5.30565e-05 7.97872e-06 0 -4.78143e-05 7.47575e-06 0 -4.3e-05 6.8815e-06 0 -3.86186e-05 6.2737e-06 0 -3.46497e-05 5.69169e-06 0 -3.1061e-05 5.1536e-06 0 -2.78162e-05 4.66619e-06 0 -2.48787e-05 4.23021e-06 0 -2.22138e-05 3.84344e-06 0 -1.97895e-05 3.50234e-06 0 -1.75764e-05 3.20292e-06 0 -1.55483e-05 2.94122e-06 0 -1.36813e-05 2.71355e-06 0 -1.19542e-05 2.51659e-06 0 -1.03476e-05 2.34744e-06 0 -8.84401e-06 2.20358e-06 0 -7.42754e-06 2.08288e-06 0 -6.08353e-06 1.98357e-06 0 -4.79835e-06 1.9042e-06 0 -3.55927e-06 1.84361e-06 0 -2.3542e-06 1.80094e-06 0 -1.17154e-06 1.77558e-06 0 0 1.76716e-06 0 -4.20584e-07 -3.75886e-05 0 -3.45139e-05 -3.24386e-05 0 -5.88913e-05 -2.12998e-05 0 -7.14461e-05 -1.01731e-05 0 -7.51961e-05 -2.17586e-06 0 -7.37203e-05 2.60142e-06 0 -6.95835e-05 5.06408e-06 0 -6.42939e-05 6.10649e-06 0 -5.86823e-05 6.3505e-06 0 -5.31755e-05 6.17658e-06 0 -4.79798e-05 5.80303e-06 0 -4.31796e-05 5.35019e-06 0 -3.87956e-05 4.88223e-06 0 -3.4816e-05 4.43177e-06 0 -3.1213e-05 4.01411e-06 0 -2.79529e-05 3.63514e-06 0 -2.50005e-05 3.29581e-06 0 -2.23215e-05 2.9946e-06 0 -1.98842e-05 2.72885e-06 0 -1.76594e-05 2.49551e-06 0 -1.56207e-05 2.29154e-06 0 -1.37442e-05 2.11408e-06 0 -1.20083e-05 1.96056e-06 0 -1.03939e-05 1.82871e-06 0 -8.88315e-06 1.71657e-06 0 -7.46009e-06 1.62249e-06 0 -6.10996e-06 1.54508e-06 0 -4.81906e-06 1.48321e-06 0 -3.57455e-06 1.43599e-06 0 -2.36426e-06 1.40273e-06 0 -1.17653e-06 1.38296e-06 0 0 1.3764e-06 0 -5.3924e-07 -2.59898e-05 0 -3.19798e-05 -2.26991e-05 0 -5.55317e-05 -1.5208e-05 0 -6.86832e-05 -7.50517e-06 0 -7.33937e-05 -1.80574e-06 0 -7.27202e-05 1.67488e-06 0 -6.91072e-05 3.50372e-06 0 -6.41263e-05 4.29766e-06 0 -5.86814e-05 4.50235e-06 0 -5.3259e-05 4.39568e-06 0 -4.81006e-05 4.13853e-06 0 -4.33126e-05 3.82026e-06 0 -3.89275e-05 3.48864e-06 0 -3.49403e-05 3.16813e-06 0 -3.13269e-05 2.87028e-06 0 -2.80555e-05 2.59967e-06 0 -2.50919e-05 2.35717e-06 0 -2.24024e-05 2.14181e-06 0 -1.99554e-05 1.95175e-06 0 -1.77218e-05 1.78484e-06 0 -1.56751e-05 1.63892e-06 0 -1.37914e-05 1.51196e-06 0 -1.20491e-05 1.40212e-06 0 -1.04287e-05 1.30778e-06 0 -8.91256e-06 1.22756e-06 0 -7.48455e-06 1.16024e-06 0 -6.12983e-06 1.10486e-06 0 -4.83462e-06 1.0606e-06 0 -3.58603e-06 1.02681e-06 0 -2.37183e-06 1.00302e-06 0 -1.18029e-06 9.88878e-07 0 -2.45958e-21 9.84187e-07 0 -4.49586e-07 -1.53418e-05 0 -3.03904e-05 -1.34289e-05 0 -5.33841e-05 -9.11808e-06 0 -6.68607e-05 -4.59307e-06 0 -7.21842e-05 -1.18242e-06 0 -7.20356e-05 9.31616e-07 0 -6.87769e-05 2.05638e-06 0 -6.40055e-05 2.55251e-06 0 -5.86759e-05 2.68765e-06 0 -5.33117e-05 2.63076e-06 0 -4.81797e-05 2.48043e-06 0 -4.34004e-05 2.29158e-06 0 -3.90151e-05 2.09369e-06 0 -3.5023e-05 1.90189e-06 0 -3.14028e-05 1.72338e-06 0 -2.81239e-05 1.56105e-06 0 -2.51529e-05 1.41551e-06 0 -2.24564e-05 1.28621e-06 0 -2.0003e-05 1.17208e-06 0 -1.77635e-05 1.07184e-06 0 -1.57114e-05 9.84194e-07 0 -1.38229e-05 9.07936e-07 0 -1.20762e-05 8.41961e-07 0 -1.04519e-05 7.85298e-07 0 -8.93219e-06 7.37107e-07 0 -7.50088e-06 6.96676e-07 0 -6.14309e-06 6.63411e-07 0 -4.84501e-06 6.36825e-07 0 -3.59369e-06 6.16532e-07 0 -2.37688e-06 6.02241e-07 0 -1.1828e-06 5.93747e-07 0 -1.25571e-20 5.90929e-07 0 -4.73117e-07 -5.04814e-06 0 -2.96273e-05 -4.44702e-06 0 -5.23329e-05 -3.03728e-06 0 -6.59585e-05 -1.54563e-06 0 -7.1576e-05 -4.1042e-07 0 -7.16889e-05 2.98318e-07 0 -6.86075e-05 6.77769e-07 0 -6.39426e-05 8.46453e-07 0 -5.86715e-05 8.93558e-07 0 -5.33372e-05 8.75797e-07 0 -4.82187e-05 8.2635e-07 0 -4.34441e-05 7.63757e-07 0 -3.90587e-05 6.97975e-07 0 -3.50643e-05 6.3413e-07 0 -3.14407e-05 5.74661e-07 0 -2.81581e-05 5.20559e-07 0 -2.51834e-05 4.72038e-07 0 -2.24834e-05 4.28925e-07 0 -2.00267e-05 3.90864e-07 0 -1.77843e-05 3.57434e-07 0 -1.57296e-05 3.28205e-07 0 -1.38386e-05 3.02772e-07 0 -1.20898e-05 2.80768e-07 0 -1.04635e-05 2.6187e-07 0 -8.94202e-06 2.45798e-07 0 -7.50905e-06 2.32314e-07 0 -6.14973e-06 2.21219e-07 0 -4.8502e-06 2.12352e-07 0 -3.59752e-06 2.05585e-07 0 -2.3794e-06 2.00818e-07 0 -1.18405e-06 1.97986e-07 0 -7.4594e-22 1.97046e-07 0 -4.73117e-07 5.04814e-06 0 -2.96273e-05 4.44702e-06 0 -5.23329e-05 3.03728e-06 0 -6.59585e-05 1.54563e-06 0 -7.1576e-05 4.1042e-07 0 -7.16889e-05 -2.98318e-07 0 -6.86075e-05 -6.77769e-07 0 -6.39426e-05 -8.46453e-07 0 -5.86715e-05 -8.93558e-07 0 -5.33372e-05 -8.75797e-07 0 -4.82187e-05 -8.2635e-07 0 -4.34441e-05 -7.63757e-07 0 -3.90587e-05 -6.97975e-07 0 -3.50643e-05 -6.3413e-07 0 -3.14407e-05 -5.74661e-07 0 -2.81581e-05 -5.20559e-07 0 -2.51834e-05 -4.72038e-07 0 -2.24834e-05 -4.28925e-07 0 -2.00267e-05 -3.90864e-07 0 -1.77843e-05 -3.57434e-07 0 -1.57296e-05 -3.28205e-07 0 -1.38386e-05 -3.02772e-07 0 -1.20898e-05 -2.80768e-07 0 -1.04635e-05 -2.6187e-07 0 -8.94202e-06 -2.45798e-07 0 -7.50905e-06 -2.32314e-07 0 -6.14973e-06 -2.21219e-07 0 -4.8502e-06 -2.12352e-07 0 -3.59752e-06 -2.05585e-07 0 -2.3794e-06 -2.00818e-07 0 -1.18405e-06 -1.97986e-07 0 0 -1.97046e-07 0 -4.49586e-07 1.53418e-05 0 -3.03904e-05 1.34289e-05 0 -5.33841e-05 9.11808e-06 0 -6.68607e-05 4.59307e-06 0 -7.21842e-05 1.18242e-06 0 -7.20356e-05 -9.31616e-07 0 -6.87769e-05 -2.05638e-06 0 -6.40055e-05 -2.55251e-06 0 -5.86759e-05 -2.68765e-06 0 -5.33117e-05 -2.63076e-06 0 -4.81797e-05 -2.48043e-06 0 -4.34004e-05 -2.29158e-06 0 -3.90151e-05 -2.09369e-06 0 -3.5023e-05 -1.90189e-06 0 -3.14028e-05 -1.72338e-06 0 -2.81239e-05 -1.56105e-06 0 -2.51529e-05 -1.41551e-06 0 -2.24564e-05 -1.28621e-06 0 -2.0003e-05 -1.17208e-06 0 -1.77635e-05 -1.07184e-06 0 -1.57114e-05 -9.84194e-07 0 -1.38229e-05 -9.07936e-07 0 -1.20762e-05 -8.41961e-07 0 -1.04519e-05 -7.85298e-07 0 -8.93219e-06 -7.37107e-07 0 -7.50088e-06 -6.96676e-07 0 -6.14309e-06 -6.63411e-07 0 -4.84501e-06 -6.36825e-07 0 -3.59369e-06 -6.16532e-07 0 -2.37688e-06 -6.02241e-07 0 -1.1828e-06 -5.93747e-07 0 0 -5.90929e-07 0 -5.3924e-07 2.59898e-05 0 -3.19798e-05 2.26991e-05 0 -5.55317e-05 1.5208e-05 0 -6.86832e-05 7.50517e-06 0 -7.33937e-05 1.80574e-06 0 -7.27202e-05 -1.67488e-06 0 -6.91072e-05 -3.50372e-06 0 -6.41263e-05 -4.29766e-06 0 -5.86814e-05 -4.50235e-06 0 -5.3259e-05 -4.39568e-06 0 -4.81006e-05 -4.13853e-06 0 -4.33126e-05 -3.82026e-06 0 -3.89275e-05 -3.48864e-06 0 -3.49403e-05 -3.16813e-06 0 -3.13269e-05 -2.87028e-06 0 -2.80555e-05 -2.59967e-06 0 -2.50919e-05 -2.35717e-06 0 -2.24024e-05 -2.14181e-06 0 -1.99554e-05 -1.95175e-06 0 -1.77218e-05 -1.78484e-06 0 -1.56751e-05 -1.63892e-06 0 -1.37914e-05 -1.51196e-06 0 -1.20491e-05 -1.40212e-06 0 -1.04287e-05 -1.30778e-06 0 -8.91256e-06 -1.22756e-06 0 -7.48455e-06 -1.16024e-06 0 -6.12983e-06 -1.10486e-06 0 -4.83462e-06 -1.0606e-06 0 -3.58603e-06 -1.02681e-06 0 -2.37183e-06 -1.00302e-06 0 -1.18029e-06 -9.88878e-07 0 4.71541e-21 -9.84187e-07 0 -4.20584e-07 3.75886e-05 0 -3.45139e-05 3.24386e-05 0 -5.88913e-05 2.12998e-05 0 -7.14461e-05 1.01731e-05 0 -7.51961e-05 2.17586e-06 0 -7.37203e-05 -2.60142e-06 0 -6.95835e-05 -5.06408e-06 0 -6.42939e-05 -6.10649e-06 0 -5.86823e-05 -6.3505e-06 0 -5.31755e-05 -6.17658e-06 0 -4.79798e-05 -5.80303e-06 0 -4.31796e-05 -5.35019e-06 0 -3.87956e-05 -4.88223e-06 0 -3.4816e-05 -4.43177e-06 0 -3.1213e-05 -4.01411e-06 0 -2.79529e-05 -3.63514e-06 0 -2.50005e-05 -3.29581e-06 0 -2.23215e-05 -2.9946e-06 0 -1.98842e-05 -2.72885e-06 0 -1.76594e-05 -2.49551e-06 0 -1.56207e-05 -2.29154e-06 0 -1.37442e-05 -2.11408e-06 0 -1.20083e-05 -1.96056e-06 0 -1.03939e-05 -1.82871e-06 0 -8.88315e-06 -1.71657e-06 0 -7.46009e-06 -1.62249e-06 0 -6.10996e-06 -1.54508e-06 0 -4.81906e-06 -1.48321e-06 0 -3.57455e-06 -1.43599e-06 0 -2.36426e-06 -1.40273e-06 0 -1.17653e-06 -1.38296e-06 0 2.88411e-20 -1.3764e-06 0 -7.07132e-07 5.00544e-05 0 -3.82276e-05 4.29101e-05 0 -6.36016e-05 2.73406e-05 0 -7.51979e-05 1.2465e-05 0 -7.7561e-05 2.17927e-06 0 -7.50078e-05 -3.7838e-06 0 -7.01795e-05 -6.77914e-06 0 -6.44941e-05 -8.00159e-06 0 -5.86689e-05 -8.24339e-06 0 -5.30565e-05 -7.97872e-06 0 -4.78143e-05 -7.47575e-06 0 -4.3e-05 -6.8815e-06 0 -3.86186e-05 -6.2737e-06 0 -3.46497e-05 -5.69169e-06 0 -3.1061e-05 -5.1536e-06 0 -2.78162e-05 -4.66619e-06 0 -2.48787e-05 -4.23021e-06 0 -2.22138e-05 -3.84344e-06 0 -1.97895e-05 -3.50234e-06 0 -1.75764e-05 -3.20292e-06 0 -1.55483e-05 -2.94122e-06 0 -1.36813e-05 -2.71355e-06 0 -1.19542e-05 -2.51659e-06 0 -1.03476e-05 -2.34744e-06 0 -8.84401e-06 -2.20358e-06 0 -7.42754e-06 -2.08288e-06 0 -6.08353e-06 -1.98357e-06 0 -4.79835e-06 -1.9042e-06 0 -3.55927e-06 -1.84361e-06 0 -2.3542e-06 -1.80094e-06 0 -1.17154e-06 -1.77558e-06 0 3.16198e-21 -1.76716e-06 0 -3.14508e-07 6.4911e-05 0 -4.34351e-05 5.42875e-05 0 -6.99257e-05 3.32444e-05 0 -7.99489e-05 1.42039e-05 0 -8.04621e-05 1.69495e-06 0 -7.65306e-05 -5.29297e-06 0 -7.08665e-05 -8.68694e-06 0 -6.47049e-05 -1.00023e-05 0 -5.86308e-05 -1.01906e-05 0 -5.2895e-05 -9.80607e-06 0 -4.76009e-05 -9.15798e-06 0 -4.2772e-05 -8.4139e-06 0 -3.83957e-05 -7.66211e-06 0 -3.44412e-05 -6.9466e-06 0 -3.08708e-05 -6.2874e-06 0 -2.76453e-05 -5.69149e-06 0 -2.47266e-05 -5.15912e-06 0 -2.20794e-05 -4.68721e-06 0 -1.96712e-05 -4.27121e-06 0 -1.74729e-05 -3.90614e-06 0 -1.5458e-05 -3.58712e-06 0 -1.3603e-05 -3.30961e-06 0 -1.18866e-05 -3.06954e-06 0 -1.02898e-05 -2.86337e-06 0 -8.7952e-06 -2.68802e-06 0 -7.38696e-06 -2.5409e-06 0 -6.05056e-06 -2.41985e-06 0 -4.77253e-06 -2.3231e-06 0 -3.54022e-06 -2.24924e-06 0 -2.34165e-06 -2.19723e-06 0 -1.1653e-06 -2.16631e-06 0 0 -2.15606e-06 0 -1.03982e-06 8.11181e-05 0 -5.07237e-05 6.69942e-05 0 -7.80881e-05 3.87849e-05 0 -8.57548e-05 1.5176e-05 0 -8.38155e-05 5.89463e-07 0 -7.824e-05 -7.19514e-06 0 -7.15982e-05 -1.08197e-05 0 -6.49051e-05 -1.21243e-05 0 -5.85524e-05 -1.21989e-05 0 -5.26842e-05 -1.16614e-05 0 -4.73352e-05 -1.085e-05 0 -4.24937e-05 -9.94678e-06 0 -3.81258e-05 -9.04621e-06 0 -3.419e-05 -8.19515e-06 0 -3.06423e-05 -7.41409e-06 0 -2.74403e-05 -6.7097e-06 0 -2.45444e-05 -6.0813e-06 0 -2.19184e-05 -5.52476e-06 0 -1.95297e-05 -5.03442e-06 0 -1.7349e-05 -4.60425e-06 0 -1.535e-05 -4.22841e-06 0 -1.35093e-05 -3.90151e-06 0 -1.18058e-05 -3.61873e-06 0 -1.02207e-05 -3.37588e-06 0 -8.73681e-06 -3.16933e-06 0 -7.33839e-06 -2.99603e-06 0 -6.01112e-06 -2.85344e-06 0 -4.74163e-06 -2.73946e-06 0 -3.51742e-06 -2.65245e-06 0 -2.32663e-06 -2.59118e-06 0 -1.15785e-06 -2.55476e-06 0 0 -2.54267e-06 0 2.97802e-08 0.000103175 0 -6.0857e-05 8.10661e-05 0 -8.85294e-05 4.36656e-05 0 -9.25356e-05 1.50852e-05 0 -8.75589e-05 -1.26899e-06 0 -8.00419e-05 -9.5498e-06 0 -7.23362e-05 -1.32032e-05 0 -6.50617e-05 -1.43778e-05 0 -5.8421e-05 -1.42729e-05 0 -5.24144e-05 -1.35454e-05 0 -4.70134e-05 -1.25515e-05 0 -4.21624e-05 -1.14788e-05 0 -3.7808e-05 -1.04246e-05 0 -3.38956e-05 -9.43574e-06 0 -3.03754e-05 -8.53221e-06 0 -2.72013e-05 -7.71941e-06 0 -2.43323e-05 -6.99549e-06 0 -2.17312e-05 -6.35495e-06 0 -1.93652e-05 -5.79095e-06 0 -1.72049e-05 -5.29633e-06 0 -1.52244e-05 -4.86427e-06 0 -1.34003e-05 -4.48851e-06 0 -1.17119e-05 -4.16349e-06 0 -1.01404e-05 -3.88436e-06 0 -8.66893e-06 -3.64695e-06 0 -7.28194e-06 -3.44776e-06 0 -5.96526e-06 -3.28384e-06 0 -4.70571e-06 -3.15282e-06 0 -3.49092e-06 -3.05281e-06 0 -2.30916e-06 -2.98237e-06 0 -1.14918e-06 -2.9405e-06 0 0 -2.92661e-06 0 -1.49236e-06 0.00012738 0 -7.5272e-05 9.71991e-05 0 -0.000101454 4.71988e-05 0 -0.000100292 1.36197e-05 0 -9.15047e-05 -4.02117e-06 0 -8.1871e-05 -1.2402e-05 0 -7.30118e-05 -1.58528e-05 0 -6.51518e-05 -1.67687e-05 0 -5.8216e-05 -1.64125e-05 0 -5.20785e-05 -1.54577e-05 0 -4.66298e-05 -1.42607e-05 0 -4.17764e-05 -1.30084e-05 0 -3.7441e-05 -1.17954e-05 0 -3.35578e-05 -1.06668e-05 0 -3.007e-05 -9.64014e-06 0 -2.69286e-05 -8.71925e-06 0 -2.40904e-05 -7.90038e-06 0 -2.15178e-05 -7.17663e-06 0 -1.91777e-05 -6.53976e-06 0 -1.70409e-05 -5.98147e-06 0 -1.50814e-05 -5.49389e-06 0 -1.32763e-05 -5.06989e-06 0 -1.1605e-05 -4.70316e-06 0 -1.0049e-05 -4.38821e-06 0 -8.59167e-06 -4.12033e-06 0 -7.21768e-06 -3.89557e-06 0 -5.91307e-06 -3.7106e-06 0 -4.66482e-06 -3.56275e-06 0 -3.46075e-06 -3.44988e-06 0 -2.28929e-06 -3.37039e-06 0 -1.13931e-06 -3.32314e-06 0 0 -3.30746e-06 0 7.88672e-07 0.000166774 0 -9.59099e-05 0.000114644 0 -0.000117314 4.85851e-05 0 -0.000108718 1.0356e-05 0 -9.55225e-05 -7.77239e-06 0 -8.35902e-05 -1.57807e-05 0 -7.35813e-05 -1.87752e-05 0 -6.51349e-05 -1.92936e-05 0 -5.79248e-05 -1.86168e-05 0 -5.1665e-05 -1.73944e-05 0 -4.61808e-05 -1.59756e-05 0 -4.13325e-05 -1.45327e-05 0 -3.7024e-05 -1.31568e-05 0 -3.3176e-05 -1.18862e-05 0 -2.97263e-05 -1.07363e-05 0 -2.66221e-05 -9.70766e-06 0 -2.38191e-05 -8.79473e-06 0 -2.12787e-05 -7.98865e-06 0 -1.89678e-05 -7.27986e-06 0 -1.68572e-05 -6.65875e-06 0 -1.49214e-05 -6.11645e-06 0 -1.31375e-05 -5.64491e-06 0 -1.14853e-05 -5.23708e-06 0 -9.9467e-06 -4.88684e-06 0 -8.50516e-06 -4.58893e-06 0 -7.14573e-06 -4.33896e-06 0 -5.85462e-06 -4.13324e-06 0 -4.61903e-06 -3.9688e-06 0 -3.42696e-06 -3.84326e-06 0 -2.26702e-06 -3.75483e-06 0 -1.12825e-06 -3.70227e-06 0 0 -3.68483e-06 0 -3.1939e-06 0.000213594 0 -0.000126153 0.000133885 0 -0.000135807 4.60988e-05 0 -0.000117642 5.00363e-06 0 -9.92663e-05 -1.26286e-05 0 -8.51394e-05 -1.96851e-05 0 -7.39518e-05 -2.19604e-05 0 -6.49947e-05 -2.19476e-05 0 -5.75222e-05 -2.08766e-05 0 -5.11691e-05 -1.93529e-05 0 -4.566e-05 -1.76914e-05 0 -4.08295e-05 -1.60498e-05 0 -3.65557e-05 -1.45059e-05 0 -3.27502e-05 -1.30923e-05 0 -2.93443e-05 -1.18189e-05 0 -2.62823e-05 -1.06833e-05 0 -2.35186e-05 -9.67715e-06 0 -2.10141e-05 -8.78989e-06 0 -1.87356e-05 -8.01022e-06 0 -1.66541e-05 -7.3273e-06 0 -1.47444e-05 -6.73115e-06 0 -1.2984e-05 -6.21286e-06 0 -1.1353e-05 -5.76462e-06 0 -9.83358e-06 -5.37965e-06 0 -8.40954e-06 -5.05221e-06 0 -7.06619e-06 -4.77744e-06 0 -5.79e-06 -4.5513e-06 0 -4.56841e-06 -4.37053e-06 0 -3.38961e-06 -4.23251e-06 0 -2.24241e-06 -4.1353e-06 0 -1.11603e-06 -4.07751e-06 0 0 -4.05834e-06 0 -2.34562e-06 0.000303338 0 -0.000170547 0.000150238 0 -0.000156426 3.81277e-05 0 -0.000126472 -2.8133e-06 0 -0.000102457 -1.859e-05 0 -8.64013e-05 -2.40906e-05 0 -7.40548e-05 -2.53903e-05 0 -6.47056e-05 -2.47114e-05 0 -5.69892e-05 -2.31856e-05 0 -5.05845e-05 -2.1324e-05 0 -4.50621e-05 -1.9405e-05 0 -4.02663e-05 -1.7555e-05 0 -3.60349e-05 -1.58406e-05 0 -3.22805e-05 -1.42824e-05 0 -2.89239e-05 -1.28862e-05 0 -2.59095e-05 -1.16443e-05 0 -2.31893e-05 -1.05464e-05 0 -2.07244e-05 -9.57914e-06 0 -1.84815e-05 -8.72985e-06 0 -1.6432e-05 -7.9862e-06 0 -1.45509e-05 -7.33722e-06 0 -1.28162e-05 -6.77304e-06 0 -1.12084e-05 -6.28513e-06 0 -9.70988e-06 -5.86609e-06 0 -8.30496e-06 -5.50965e-06 0 -6.9792e-06 -5.21053e-06 0 -5.71933e-06 -4.96433e-06 0 -4.51304e-06 -4.76751e-06 0 -3.34876e-06 -4.61724e-06 0 -2.21549e-06 -4.51138e-06 0 -1.10267e-06 -4.44846e-06 0 0 -4.42758e-06 0 -2.7603e-05 0.000437154 0 -0.000234131 0.000158585 0 -0.000177578 2.18034e-05 0 -0.000134406 -1.29758e-05 0 -0.000104787 -2.56452e-05 0 -8.72672e-05 -2.89391e-05 0 -7.38207e-05 -2.90132e-05 0 -6.42485e-05 -2.75794e-05 0 -5.63056e-05 -2.55175e-05 0 -4.99073e-05 -2.33084e-05 0 -4.43815e-05 -2.11047e-05 0 -3.96422e-05 -1.90483e-05 0 -3.54606e-05 -1.71557e-05 0 -3.17671e-05 -1.54556e-05 0 -2.84654e-05 -1.39356e-05 0 -2.55043e-05 -1.25898e-05 0 -2.28316e-05 -1.1401e-05 0 -2.04102e-05 -1.03554e-05 0 -1.8206e-05 -9.43769e-06 0 -1.61912e-05 -8.63463e-06 0 -1.43412e-05 -7.93386e-06 0 -1.26343e-05 -7.32477e-06 0 -1.10515e-05 -6.798e-06 0 -9.5758e-06 -6.34559e-06 0 -8.19161e-06 -5.96073e-06 0 -6.8849e-06 -5.63774e-06 0 -5.64272e-06 -5.37188e-06 0 -4.45301e-06 -5.15933e-06 0 -3.30446e-06 -4.99703e-06 0 -2.18629e-06 -4.88271e-06 0 -1.08817e-06 -4.81474e-06 0 0 -4.7922e-06 0 1.56044e-05 0.000759966 0 -0.000316138 0.000129214 0 -0.000201086 -1.66334e-06 0 -0.000137564 -2.59963e-05 0 -0.000107531 -3.34076e-05 0 -8.68378e-05 -3.41915e-05 0 -7.35911e-05 -3.27809e-05 0 -6.34098e-05 -3.05097e-05 0 -5.55505e-05 -2.78695e-05 0 -4.90894e-05 -2.52866e-05 0 -4.36348e-05 -2.27905e-05 0 -3.89474e-05 -2.05212e-05 0 -3.48362e-05 -1.84502e-05 0 -3.12088e-05 -1.66083e-05 0 -2.79699e-05 -1.4966e-05 0 -2.50668e-05 -1.35177e-05 0 -2.24462e-05 -1.22396e-05 0 -2.00718e-05 -1.11175e-05 0 -1.79095e-05 -1.01328e-05 0 -1.59322e-05 -9.27171e-06 0 -1.41155e-05 -8.52034e-06 0 -1.24386e-05 -7.86736e-06 0 -1.08829e-05 -7.30262e-06 0 -9.43155e-06 -6.81759e-06 0 -8.06965e-06 -6.40495e-06 0 -6.78344e-06 -6.05861e-06 0 -5.56028e-06 -5.77352e-06 0 -4.38841e-06 -5.54557e-06 0 -3.25679e-06 -5.37151e-06 0 -2.15488e-06 -5.24889e-06 0 -1.07257e-06 -5.17599e-06 0 0 -5.1518e-06 0 -0.000244509 0.00156385 0 -0.000374616 -1.05412e-05 0 -0.000246955 -2.12527e-05 0 -0.000119718 -4.40848e-05 0 -0.000119384 -4.08111e-05 0 -7.99746e-05 -3.98776e-05 0 -7.61384e-05 -3.66818e-05 0 -6.06305e-05 -3.33814e-05 0 -5.55505e-05 -3.02994e-05 0 -4.76792e-05 -2.7193e-05 0 -4.30569e-05 -2.44906e-05 0 -3.80579e-05 -2.19475e-05 0 -3.42257e-05 -1.97335e-05 0 -3.05735e-05 -1.77305e-05 0 -2.74541e-05 -1.59793e-05 0 -2.45897e-05 -1.44242e-05 0 -2.20375e-05 -1.30624e-05 0 -1.97081e-05 -1.18635e-05 0 -1.75933e-05 -1.08146e-05 0 -1.56549e-05 -9.89641e-06 0 -1.38745e-05 -9.09599e-06 0 -1.22295e-05 -8.40012e-06 0 -1.07026e-05 -7.79842e-06 0 -9.27739e-06 -7.28154e-06 0 -7.9393e-06 -6.84181e-06 0 -6.67499e-06 -6.47269e-06 0 -5.47215e-06 -6.16882e-06 0 -4.31935e-06 -5.92583e-06 0 -3.20581e-06 -5.74027e-06 0 -2.12129e-06 -5.60955e-06 0 -1.05589e-06 -5.53183e-06 0 0 -5.50604e-06 0 -0.0101408 -0.00215071 0 -0.00062875 4.50665e-05 0 5.54662e-05 -9.4236e-05 0 -0.000300651 -4.86198e-05 0 -1.84441e-05 -5.27396e-05 0 -0.000132341 -4.48031e-05 0 -4.64219e-05 -4.04087e-05 0 -7.43639e-05 -3.66602e-05 0 -4.66606e-05 -3.23435e-05 0 -5.06588e-05 -2.93337e-05 0 -4.00947e-05 -2.59902e-05 0 -3.82673e-05 -2.34496e-05 0 -3.29806e-05 -2.09265e-05 0 -3.01834e-05 -1.88632e-05 0 -2.67614e-05 -1.69491e-05 0 -2.41495e-05 -1.53213e-05 0 -2.15703e-05 -1.38604e-05 0 -1.93362e-05 -1.25965e-05 0 -1.72505e-05 -1.148e-05 0 -1.53632e-05 -1.05091e-05 0 -1.36173e-05 -9.65952e-06 0 -1.20077e-05 -8.9227e-06 0 -1.05109e-05 -8.28467e-06 0 -9.11358e-06 -7.73701e-06 0 -7.80077e-06 -7.27081e-06 0 -6.55969e-06 -6.87954e-06 0 -5.37848e-06 -6.55735e-06 0 -4.24592e-06 -6.29972e-06 0 -3.15163e-06 -6.10295e-06 0 -2.08557e-06 -5.96433e-06 0 -1.03816e-06 -5.8819e-06 0 0 -5.85456e-06 0 </DataArray> 
</PointData> 
<Points> 
<DataArray type="Float32" NumberOfComponents="3"> 