<?xml version="1.0"?> 
<VTKFile type="StructuredGrid" version="0.1"> 
<StructuredGrid WholeExtent="0 31 0 31 0 0"> 
<Piece Extent="0 31 0 31 0 0"> 
<PointData>
<DataArray type="Float32" Name="B" format="ascii" NumberOfComponents="3"> 
-0.00382036 0.0122786 0 0.000480729 -0.0012735 0 0.000751177 0.000175713 0 -9.93005e-05 -5.69833e-05 0 0.000301186 5.33178e-05 0 5.13706e-05 3.04132e-05 0 0.000166845 3.35314e-05 0 9.59076e-05 2.94443e-05 0 0.000122316 2.11788e-05 0 9.98774e-05 1.77364e-05 0 0.000102266 1.16609e-05 0 9.30665e-05 8.82754e-06 0 9.04327e-05 5.49861e-06 0 8.57339e-05 3.72275e-06 0 8.32218e-05 2.08757e-06 0 8.09182e-05 1.12437e-06 0 7.97516e-05 3.36247e-07 0 7.92915e-05 -1.95175e-07 0 7.97142e-05 -6.27891e-07 0 8.10293e-05 -9.98862e-07 0 8.31759e-05 -1.31576e-06 0 8.66606e-05 -1.67187e-06 0 9.07586e-05 -1.96127e-06 0 9.79345e-05 -2.38855e-06 0 0.000103941 -2.60757e-06 0 0.000120223 -3.5102e-06 0 0.000125819 -2.92981e-06 0 0.000171849 -7.90948e-06 0 0.000168615 -5.71036e-08 0 0.000331439 -4.29233e-05 0 0.000515422 5.28127e-05 0 -0.000492632 -0.0028545 0 0.000112276 0.00092082 0 0.000401252 0.000345108 0 0.000234124 0.000120157 0 0.000204087 6.92191e-05 0 0.000137075 5.63129e-05 0 0.000135927 4.84276e-05 0 0.000115501 4.16796e-05 0 0.000113334 3.48193e-05 0 0.000104382 2.83027e-05 0 0.000100533 2.23866e-05 0 9.4879e-05 1.72594e-05 0 9.09387e-05 1.2988e-05 0 8.69611e-05 9.49808e-06 0 8.39285e-05 6.70243e-06 0 8.14281e-05 4.45163e-06 0 7.9711e-05 2.62555e-06 0 7.86862e-05 1.09181e-06 0 7.84151e-05 -2.50134e-07 0 7.89079e-05 -1.49956e-06 0 8.01964e-05 -2.73342e-06 0 8.2401e-05 -4.03729e-06 0 8.55401e-05 -5.48666e-06 0 9.00241e-05 -7.19891e-06 0 9.56872e-05 -9.31408e-06 0 0.000103906 -1.21176e-05 0 0.000113543 -1.6076e-05 0 0.000129389 -2.22896e-05 0 0.000146501 -3.29698e-05 0 0.000181203 -5.45318e-05 0 0.000213643 -0.000104483 0 0.000248654 -0.000238905 0 6.52501e-05 -0.00043218 0 -6.91786e-05 0.00018218 0 0.000121375 0.000291887 0 0.000171322 0.000161009 0 0.000147221 0.000107451 0 0.000134429 7.67498e-05 0 0.000118462 6.09965e-05 0 0.00011123 4.99923e-05 0 0.000103738 4.10523e-05 0 9.89326e-05 3.36586e-05 0 9.41316e-05 2.70338e-05 0 9.02584e-05 2.14801e-05 0 8.66507e-05 1.66505e-05 0 8.36326e-05 1.26384e-05 0 8.10793e-05 9.22261e-06 0 7.91082e-05 6.34969e-06 0 7.77095e-05 3.85739e-06 0 7.69277e-05 1.65049e-06 0 7.67796e-05 -3.96154e-07 0 7.72995e-05 -2.37944e-06 0 7.85362e-05 -4.41166e-06 0 8.055e-05 -6.5962e-06 0 8.34614e-05 -9.0763e-06 0 8.73746e-05 -1.20054e-05 0 9.25689e-05 -1.56603e-05 0 9.91476e-05 -2.03991e-05 0 0.000107734 -2.69583e-05 0 0.000118042 -3.6599e-05 0 0.000131198 -5.17356e-05 0 0.000143714 -7.75581e-05 0 0.000151455 -0.00011992 0 0.000124468 -0.000186518 0 4.03236e-05 -0.000197378 0 3.4455e-06 0.000294739 0 6.59753e-05 0.000183126 0 0.000101602 0.000155669 0 0.000114074 0.000112835 0 0.000110201 8.71258e-05 0 0.000105724 6.90371e-05 0 9.98968e-05 5.62158e-05 0 9.54999e-05 4.6273e-05 0 9.1346e-05 3.78887e-05 0 8.79064e-05 3.08882e-05 0 8.47558e-05 2.47884e-05 0 8.20283e-05 1.96081e-05 0 7.96442e-05 1.51096e-05 0 7.76756e-05 1.12419e-05 0 7.6134e-05 7.84324e-06 0 7.50623e-05 4.81969e-06 0 7.44849e-05 2.04082e-06 0 7.44333e-05 -5.98548e-07 0 7.49392e-05 -3.21802e-06 0 7.60426e-05 -5.93204e-06 0 7.77986e-05 -8.87879e-06 0 8.02714e-05 -1.2209e-05 0 8.35581e-05 -1.61386e-05 0 8.77343e-05 -2.09264e-05 0 9.29192e-05 -2.69974e-05 0 9.89967e-05 -3.49215e-05 0 0.000105784 -4.56786e-05 0 0.000111844 -6.08639e-05 0 0.000115 -8.213e-05 0 0.0001086 -0.000111274 0 8.58732e-05 -0.000138133 0 4.58806e-05 -0.000168528 0 -1.6016e-06 0.000105335 0 4.13682e-05 0.00015491 0 7.17255e-05 0.000128617 0 8.57704e-05 0.000108059 0 9.12136e-05 8.78351e-05 0 9.08788e-05 7.24268e-05 0 8.89228e-05 6.00119e-05 0 8.61932e-05 4.96768e-05 0 8.36717e-05 4.10596e-05 0 8.12634e-05 3.36459e-05 0 7.90918e-05 2.73178e-05 0 7.71173e-05 2.17983e-05 0 7.53956e-05 1.7002e-05 0 7.39477e-05 1.27617e-05 0 7.28177e-05 8.97997e-06 0 7.2037e-05 5.52737e-06 0 7.16386e-05 2.29809e-06 0 7.16508e-05 -8.26294e-07 0 7.21023e-05 -3.95959e-06 0 7.30233e-05 -7.22997e-06 0 7.44454e-05 -1.07758e-05 0 7.64069e-05 -1.47692e-05 0 7.89363e-05 -1.94105e-05 0 8.20641e-05 -2.49722e-05 0 8.57392e-05 -3.17637e-05 0 8.98291e-05 -4.01659e-05 0 9.35734e-05 -5.05305e-05 0 9.56928e-05 -6.33932e-05 0 9.37786e-05 -7.93924e-05 0 8.5255e-05 -9.68843e-05 0 6.73785e-05 -0.000113966 0 4.20271e-05 -0.000113204 0 9.35832e-06 0.000143213 0 3.40598e-05 0.000115989 0 5.47626e-05 0.000111376 0 6.87737e-05 9.74346e-05 0 7.59825e-05 8.4531e-05 0 7.84193e-05 7.28023e-05 0 7.75663e-05 6.16673e-05 0 7.65889e-05 5.15726e-05 0 7.53827e-05 4.28825e-05 0 7.41336e-05 3.54453e-05 0 7.28574e-05 2.89676e-05 0 7.16423e-05 2.33164e-05 0 7.0529e-05 1.83103e-05 0 6.95729e-05 1.38407e-05 0 6.88155e-05 9.77797e-06 0 6.82963e-05 6.01766e-06 0 6.80473e-05 2.44633e-06 0 6.80956e-05 -1.04382e-06 0 6.84634e-05 -4.56934e-06 0 6.91677e-05 -8.25326e-06 0 7.02229e-05 -1.22371e-05 0 7.16308e-05 -1.6682e-05 0 7.33924e-05 -2.17864e-05 0 7.546e-05 -2.7779e-05 0 7.78139e-05 -3.49311e-05 0 8.03113e-05 -4.34767e-05 0 8.30521e-05 -5.2923e-05 0 8.32039e-05 -6.27193e-05 0 7.9585e-05 -7.38296e-05 0 7.12544e-05 -8.53629e-05 0 5.79833e-05 -9.38378e-05 0 4.11612e-05 -0.000102422 0 1.35005e-05 8.56571e-05 0 3.07601e-05 0.000100814 0 4.62429e-05 9.45517e-05 0 5.80435e-05 8.77341e-05 0 6.57013e-05 7.9114e-05 0 6.97285e-05 7.17523e-05 0 7.11335e-05 6.18517e-05 0 7.17354e-05 5.19382e-05 0 7.18433e-05 4.35413e-05 0 7.16332e-05 3.62332e-05 0 7.12167e-05 2.98361e-05 0 7.0696e-05 2.41674e-05 0 7.01474e-05 1.90993e-05 0 6.9636e-05 1.45049e-05 0 6.92138e-05 1.02791e-05 0 6.89233e-05 6.31576e-06 0 6.87973e-05 2.51448e-06 0 6.88596e-05 -1.22881e-06 0 6.91256e-05 -5.02209e-06 0 6.96011e-05 -8.982e-06 0 7.0281e-05 -1.32406e-05 0 7.11455e-05 -1.79451e-05 0 7.21565e-05 -2.32758e-05 0 7.3246e-05 -2.94322e-05 0 7.43281e-05 -3.66605e-05 0 7.52723e-05 -4.53726e-05 0 7.58384e-05 -5.40976e-05 0 7.43807e-05 -6.03771e-05 0 7.00913e-05 -6.8051e-05 0 6.26857e-05 -7.52599e-05 0 5.23473e-05 -8.13083e-05 0 4.00491e-05 -8.17932e-05 0 1.65621e-05 8.96152e-05 0 2.96578e-05 8.37286e-05 0 4.17038e-05 8.28152e-05 0 5.15676e-05 7.8352e-05 0 5.90554e-05 7.31466e-05 0 6.41154e-05 6.83751e-05 0 6.73521e-05 6.00523e-05 0 6.93804e-05 5.09689e-05 0 7.0638e-05 4.30801e-05 0 7.1351e-05 3.61415e-05 0 7.16949e-05 2.99647e-05 0 7.17925e-05 2.44311e-05 0 7.17442e-05 1.94099e-05 0 7.16255e-05 1.48051e-05 0 7.14964e-05 1.05159e-05 0 7.14019e-05 6.45282e-06 0 7.13748e-05 2.52317e-06 0 7.14359e-05 -1.36507e-06 0 7.1594e-05 -5.31025e-06 0 7.18449e-05 -9.41617e-06 0 7.21688e-05 -1.38005e-05 0 7.25266e-05 -1.85904e-05 0 7.28539e-05 -2.39415e-05 0 7.30551e-05 -3.00205e-05 0 7.29936e-05 -3.70378e-05 0 7.24688e-05 -4.53025e-05 0 7.11262e-05 -5.29002e-05 0 6.8382e-05 -5.7145e-05 0 6.37814e-05 -6.23058e-05 0 5.72072e-05 -6.71635e-05 0 4.88266e-05 -7.06617e-05 0 3.92733e-05 -7.34992e-05 0 1.99523e-05 6.88771e-05 0 2.96679e-05 7.3822e-05 0 3.91786e-05 7.24488e-05 0 4.77518e-05 7.01911e-05 0 5.47908e-05 6.68371e-05 0 6.04109e-05 6.38842e-05 0 6.46798e-05 5.69373e-05 0 6.77733e-05 4.88466e-05 0 6.9942e-05 4.16963e-05 0 7.14212e-05 3.52733e-05 0 7.2397e-05 2.9467e-05 0 7.30174e-05 2.41762e-05 0 7.33927e-05 1.93106e-05 0 7.3608e-05 1.47875e-05 0 7.37268e-05 1.05283e-05 0 7.37959e-05 6.45518e-06 0 7.38469e-05 2.49038e-06 0 7.38977e-05 -1.44621e-06 0 7.39518e-05 -5.43869e-06 0 7.39973e-05 -9.57576e-06 0 7.40035e-05 -1.39557e-05 0 7.39176e-05 -1.86823e-05 0 7.36561e-05 -2.38797e-05 0 7.31014e-05 -2.96777e-05 0 7.20867e-05 -3.62368e-05 0 7.04172e-05 -4.381e-05 0 6.78489e-05 -5.0393e-05 0 6.42707e-05 -5.32395e-05 0 5.95323e-05 -5.68506e-05 0 5.35612e-05 -6.00955e-05 0 4.65459e-05 -6.26666e-05 0 3.88647e-05 -6.32744e-05 0 2.16499e-05 6.48695e-05 0 2.99061e-05 6.42295e-05 0 3.79418e-05 6.41893e-05 0 4.53478e-05 6.27017e-05 0 5.20827e-05 6.05164e-05 0 5.80179e-05 5.86546e-05 0 6.30381e-05 5.28619e-05 0 6.6947e-05 4.58666e-05 0 6.9795e-05 3.95746e-05 0 7.18495e-05 3.3796e-05 0 7.33136e-05 2.84532e-05 0 7.43463e-05 2.34989e-05 0 7.5062e-05 1.8868e-05 0 7.55481e-05 1.45071e-05 0 7.58686e-05 1.0354e-05 0 7.60695e-05 6.34915e-06 0 7.61808e-05 2.42865e-06 0 7.62174e-05 -1.4725e-06 0 7.61792e-05 -5.4234e-06 0 7.60488e-05 -9.49494e-06 0 7.57901e-05 -1.37646e-05 0 7.53407e-05 -1.83089e-05 0 7.46106e-05 -2.32181e-05 0 7.34592e-05 -2.85755e-05 0 7.17065e-05 -3.44942e-05 0 6.90909e-05 -4.12194e-05 0 6.55875e-05 -4.6904e-05 0 6.13555e-05 -4.8902e-05 0 5.65257e-05 -5.15905e-05 0 5.10453e-05 -5.39656e-05 0 4.49464e-05 -5.57038e-05 0 3.84478e-05 -5.68231e-05 0 2.37558e-05 5.52004e-05 0 3.04023e-05 5.71074e-05 0 3.71669e-05 5.68908e-05 0 4.37819e-05 5.59525e-05 0 5.00784e-05 5.42411e-05 0 5.64461e-05 5.24984e-05 0 6.28882e-05 4.79029e-05 0 6.73263e-05 4.22798e-05 0 7.06032e-05 3.69513e-05 0 7.30141e-05 3.18747e-05 0 7.48185e-05 2.70575e-05 0 7.6147e-05 2.2494e-05 0 7.71185e-05 1.81577e-05 0 7.78114e-05 1.40172e-05 0 7.82882e-05 1.00318e-05 0 7.8591e-05 6.15792e-06 0 7.87476e-05 2.34741e-06 0 7.87703e-05 -1.45002e-06 0 7.8656e-05 -5.2874e-06 0 7.83864e-05 -9.21801e-06 0 7.7921e-05 -1.32973e-05 0 7.72024e-05 -1.75756e-05 0 7.61287e-05 -2.21051e-05 0 7.45857e-05 -2.69198e-05 0 7.23214e-05 -3.20506e-05 0 6.90517e-05 -3.75811e-05 0 6.39184e-05 -4.22443e-05 0 5.89992e-05 -4.42768e-05 0 5.4212e-05 -4.65558e-05 0 4.91492e-05 -4.84437e-05 0 4.37736e-05 -4.98554e-05 0 3.82064e-05 -5.03889e-05 0 2.49261e-05 5.02592e-05 0 3.0786e-05 5.06197e-05 0 3.66976e-05 5.0648e-05 0 4.25106e-05 4.98136e-05 0 4.8234e-05 4.83226e-05 0 5.38893e-05 4.60341e-05 0 5.92515e-05 4.26481e-05 0 6.35557e-05 3.84682e-05 0 6.68921e-05 3.40713e-05 0 6.94733e-05 2.96885e-05 0 7.14626e-05 2.54075e-05 0 7.29827e-05 2.12595e-05 0 7.41269e-05 1.72512e-05 0 7.49673e-05 1.3371e-05 0 7.55573e-05 9.59774e-06 0 7.5935e-05 5.90275e-06 0 7.61244e-05 2.2529e-06 0 7.61355e-05 -1.38812e-06 0 7.59644e-05 -5.05766e-06 0 7.55923e-05 -8.79316e-06 0 7.49833e-05 -1.26285e-05 0 7.4081e-05 -1.65928e-05 0 7.28057e-05 -2.07005e-05 0 7.10432e-05 -2.49473e-05 0 6.86368e-05 -2.92753e-05 0 6.5369e-05 -3.3491e-05 0 6.11449e-05 -3.7057e-05 0 5.66933e-05 -3.97135e-05 0 5.22183e-05 -4.18078e-05 0 4.75996e-05 -4.34921e-05 0 4.28055e-05 -4.46559e-05 0 3.79039e-05 -4.53139e-05 0 2.6145e-05 4.43908e-05 0 3.11334e-05 4.52205e-05 0 3.62612e-05 4.51212e-05 0 4.14029e-05 4.43922e-05 0 4.64323e-05 4.29942e-05 0 5.12892e-05 4.09334e-05 0 5.57832e-05 3.81424e-05 0 5.96527e-05 3.48006e-05 0 6.28487e-05 3.11577e-05 0 6.54312e-05 2.73952e-05 0 6.74891e-05 2.36186e-05 0 6.91061e-05 1.98834e-05 0 7.0353e-05 1.62143e-05 0 7.12871e-05 1.26169e-05 0 7.19526e-05 9.08452e-06 0 7.23814e-05 5.60207e-06 0 7.25934e-05 2.14918e-06 0 7.25967e-05 -1.29743e-06 0 7.23873e-05 -4.76192e-06 0 7.19486e-05 -8.26676e-06 0 7.12499e-05 -1.18301e-05 0 7.0246e-05 -1.54609e-05 0 6.88746e-05 -1.91532e-05 0 6.70582e-05 -2.28734e-05 0 6.47074e-05 -2.65418e-05 0 6.1759e-05 -3.00051e-05 0 5.82445e-05 -3.30445e-05 0 5.44085e-05 -3.55113e-05 0 5.03929e-05 -3.74967e-05 0 4.62309e-05 -3.90224e-05 0 4.19567e-05 -4.00885e-05 0 3.76295e-05 -4.06191e-05 0 2.68968e-05 4.00538e-05 0 3.13408e-05 4.03962e-05 0 3.58676e-05 4.0295e-05 0 4.03794e-05 3.96047e-05 0 4.48053e-05 3.83544e-05 0 4.90303e-05 3.65337e-05 0 5.29314e-05 3.41956e-05 0 5.64058e-05 3.14223e-05 0 5.93845e-05 2.83505e-05 0 6.18754e-05 2.51074e-05 0 6.39173e-05 2.17839e-05 0 6.55604e-05 1.84381e-05 0 6.68527e-05 1.51036e-05 0 6.78365e-05 1.17965e-05 0 6.85458e-05 8.52052e-06 0 6.90058e-05 5.2713e-06 0 6.92322e-05 2.03908e-06 0 6.92315e-05 -1.1887e-06 0 6.90004e-05 -4.42498e-06 0 6.85252e-05 -7.68066e-06 0 6.77825e-05 -1.09614e-05 0 6.67382e-05 -1.42638e-05 0 6.53503e-05 -1.75696e-05 0 6.35708e-05 -2.08391e-05 0 6.13597e-05 -2.40014e-05 0 5.87005e-05 -2.69517e-05 0 5.56507e-05 -2.95753e-05 0 5.22876e-05 -3.18108e-05 0 4.87113e-05 -3.36226e-05 0 4.49874e-05 -3.50245e-05 0 4.11637e-05 -3.60034e-05 0 3.72983e-05 -3.65713e-05 0 2.75653e-05 3.58338e-05 0 3.1469e-05 3.61925e-05 0 3.54622e-05 3.60262e-05 0 3.94586e-05 3.53896e-05 0 4.33618e-05 3.42722e-05 0 4.7094e-05 3.26976e-05 0 5.05675e-05 3.06951e-05 0 5.36992e-05 2.83368e-05 0 5.64491e-05 2.57082e-05 0 5.88045e-05 2.28946e-05 0 6.07792e-05 1.99672e-05 0 6.23992e-05 1.69786e-05 0 6.36945e-05 1.39636e-05 0 6.46938e-05 1.09435e-05 0 6.54217e-05 7.92889e-06 0 6.58969e-05 4.92308e-06 0 6.61315e-05 1.92444e-06 0 6.61302e-05 -1.07109e-06 0 6.58906e-05 -4.06784e-06 0 6.54027e-05 -7.06794e-06 0 6.46497e-05 -1.00687e-05 0 6.36085e-05 -1.30594e-05 0 6.22524e-05 -1.60177e-05 0 6.05559e-05 -1.89055e-05 0 5.85017e-05 -2.16677e-05 0 5.60953e-05 -2.42356e-05 0 5.33625e-05 -2.65396e-05 0 5.03701e-05 -2.85217e-05 0 4.71777e-05 -3.01617e-05 0 4.38414e-05 -3.14418e-05 0 4.04158e-05 -3.23579e-05 0 3.69549e-05 -3.2896e-05 0 2.7999e-05 3.22568e-05 0 3.15063e-05 3.24339e-05 0 3.50699e-05 3.22457e-05 0 3.86208e-05 3.16512e-05 0 4.20952e-05 3.06584e-05 0 4.54187e-05 2.92803e-05 0 4.85256e-05 2.75529e-05 0 5.13641e-05 2.55223e-05 0 5.3894e-05 2.32482e-05 0 5.60988e-05 2.07922e-05 0 5.79785e-05 1.8209e-05 0 5.95446e-05 1.5543e-05 0 6.08136e-05 1.2827e-05 0 6.18038e-05 1.00837e-05 0 6.25315e-05 7.32769e-06 0 6.30098e-05 4.56726e-06 0 6.32475e-05 1.80667e-06 0 6.32481e-05 -9.51924e-07 0 6.301e-05 -3.70653e-06 0 6.25266e-05 -6.45325e-06 0 6.17866e-05 -9.18412e-06 0 6.07758e-05 -1.18849e-05 0 5.94789e-05 -1.45328e-05 0 5.78835e-05 -1.70951e-05 0 5.59858e-05 -1.9529e-05 0 5.37942e-05 -2.17855e-05 0 5.13381e-05 -2.38161e-05 0 4.86525e-05 -2.55838e-05 0 4.5786e-05 -2.70586e-05 0 4.27873e-05 -2.82269e-05 0 3.97031e-05 -2.90789e-05 0 3.65815e-05 -2.96175e-05 0 2.8342e-05 2.89543e-05 0 3.14876e-05 2.9081e-05 0 3.46814e-05 2.88665e-05 0 3.7865e-05 2.8316e-05 0 4.09765e-05 2.74292e-05 0 4.39615e-05 2.62213e-05 0 4.67676e-05 2.47162e-05 0 4.93491e-05 2.29511e-05 0 5.16757e-05 2.0969e-05 0 5.37285e-05 1.8815e-05 0 5.5501e-05 1.65317e-05 0 5.69956e-05 1.41557e-05 0 5.82199e-05 1.17162e-05 0 5.91841e-05 9.23566e-06 0 5.98983e-05 6.7302e-06 0 6.03711e-05 4.21124e-06 0 6.06082e-05 1.68689e-06 0 6.06123e-05 -8.36431e-07 0 6.03826e-05 -3.35243e-06 0 5.9915e-05 -5.85332e-06 0 5.92028e-05 -8.3282e-06 0 5.82381e-05 -1.07615e-05 0 5.70135e-05 -1.31319e-05 0 5.55248e-05 -1.54117e-05 0 5.37741e-05 -1.75675e-05 0 5.17734e-05 -1.95632e-05 0 4.95425e-05 -2.13637e-05 0 4.71151e-05 -2.29378e-05 0 4.45269e-05 -2.42644e-05 0 4.18176e-05 -2.53277e-05 0 3.90285e-05 -2.61204e-05 0 3.62013e-05 -2.66388e-05 0 2.85628e-05 2.6006e-05 0 3.142e-05 2.60533e-05 0 3.43076e-05 2.58285e-05 0 3.71786e-05 2.53179e-05 0 3.99869e-05 2.45245e-05 0 4.26849e-05 2.34587e-05 0 4.52303e-05 2.21407e-05 0 4.75879e-05 2.05974e-05 0 4.97292e-05 1.88611e-05 0 5.16361e-05 1.69662e-05 0 5.32984e-05 1.4946e-05 0 5.47132e-05 1.28305e-05 0 5.58823e-05 1.06455e-05 0 5.68102e-05 8.41171e-06 0 5.75022e-05 6.14567e-06 0 5.79634e-05 3.86031e-06 0 5.81973e-05 1.56605e-06 0 5.82058e-05 -7.28008e-07 0 5.79886e-05 -3.01291e-06 0 5.75436e-05 -5.27862e-06 0 5.68676e-05 -7.51282e-06 0 5.5957e-05 -9.69999e-06 0 5.48094e-05 -1.18207e-05 0 5.34255e-05 -1.38517e-05 0 5.1811e-05 -1.57664e-05 0 4.99777e-05 -1.7537e-05 0 4.79457e-05 -1.91366e-05 0 4.57392e-05 -2.05419e-05 0 4.33889e-05 -2.17341e-05 0 4.09282e-05 -2.27008e-05 0 3.83919e-05 -2.34346e-05 0 3.58153e-05 -2.39351e-05 0 2.87174e-05 2.33003e-05 0 3.13216e-05 2.3307e-05 0 3.39479e-05 2.30762e-05 0 3.65567e-05 2.26047e-05 0 3.91073e-05 2.18932e-05 0 4.15618e-05 2.09505e-05 0 4.3885e-05 1.97915e-05 0 4.6046e-05 1.8437e-05 0 4.80207e-05 1.69116e-05 0 4.97911e-05 1.5242e-05 0 5.13459e-05 1.34546e-05 0 5.26788e-05 1.15742e-05 0 5.3788e-05 9.62279e-06 0 5.46739e-05 7.61943e-06 0 5.53386e-05 5.58004e-06 0 5.57844e-05 3.51804e-06 0 5.60133e-05 1.445e-06 0 5.60264e-05 -6.28553e-07 0 5.58239e-05 -2.69222e-06 0 5.54051e-05 -4.73487e-06 0 5.47691e-05 -6.74381e-06 0 5.39151e-05 -8.7042e-06 0 5.28442e-05 -1.05987e-05 0 5.15598e-05 -1.24077e-05 0 5.00694e-05 -1.41096e-05 0 4.83851e-05 -1.56825e-05 0 4.65236e-05 -1.71055e-05 0 4.45073e-05 -1.83597e-05 0 4.23616e-05 -1.94305e-05 0 4.01144e-05 -2.03073e-05 0 3.77956e-05 -2.09841e-05 0 3.54356e-05 -2.14592e-05 0 2.88066e-05 2.08265e-05 0 3.12007e-05 2.07958e-05 0 3.36069e-05 2.05664e-05 0 3.59925e-05 2.01323e-05 0 3.83247e-05 1.94945e-05 0 4.0571e-05 1.86592e-05 0 4.27018e-05 1.76383e-05 0 4.46909e-05 1.64477e-05 0 4.65166e-05 1.51064e-05 0 4.8162e-05 1.36354e-05 0 4.9615e-05 1.20558e-05 0 5.08679e-05 1.03882e-05 0 5.19162e-05 8.65155e-06 0 5.2758e-05 6.86272e-06 0 5.33929e-05 5.03669e-06 0 5.38214e-05 3.18665e-06 0 5.40441e-05 1.32444e-06 0 5.40618e-05 -5.38857e-07 0 5.38747e-05 -2.39229e-06 0 5.34832e-05 -4.22444e-06 0 5.28878e-05 -6.02291e-06 0 5.20899e-05 -7.77388e-06 0 5.10923e-05 -9.46201e-06 0 4.99001e-05 -1.10706e-05 0 4.85218e-05 -1.2582e-05 0 4.69689e-05 -1.39785e-05 0 4.52572e-05 -1.52433e-05 0 4.34055e-05 -1.63618e-05 0 4.14358e-05 -1.73217e-05 0 3.93723e-05 -1.81146e-05 0 3.72405e-05 -1.87354e-05 0 3.50662e-05 -1.91832e-05 0 2.88546e-05 1.85388e-05 0 3.10673e-05 1.84857e-05 0 3.32858e-05 1.82621e-05 0 3.54823e-05 1.78647e-05 0 3.76282e-05 1.72939e-05 0 3.96964e-05 1.65545e-05 0 4.16614e-05 1.56555e-05 0 4.35004e-05 1.46093e-05 0 4.51939e-05 1.3431e-05 0 4.67262e-05 1.21371e-05 0 4.80853e-05 1.07448e-05 0 4.92624e-05 9.27107e-06 0 5.02516e-05 7.73212e-06 0 5.10495e-05 6.14291e-06 0 5.1654e-05 4.51714e-06 0 5.20644e-05 2.86729e-06 0 5.22804e-05 1.20493e-06 0 5.23022e-05 -4.58943e-07 0 5.21303e-05 -2.11346e-06 0 5.17656e-05 -3.74747e-06 0 5.12097e-05 -5.34924e-06 0 5.04651e-05 -6.90615e-06 0 4.95357e-05 -8.4047e-06 0 4.84278e-05 -9.83064e-06 0 4.71497e-05 -1.11693e-05 0 4.57128e-05 -1.24063e-05 0 4.41313e-05 -1.35282e-05 0 4.2422e-05 -1.45228e-05 0 4.06042e-05 -1.53807e-05 0 3.86987e-05 -1.60946e-05 0 3.67277e-05 -1.66606e-05 0 3.47136e-05 -1.70776e-05 0 2.88684e-05 1.64148e-05 0 3.09279e-05 1.63459e-05 0 3.29872e-05 1.61325e-05 0 3.50225e-05 1.57713e-05 0 3.70098e-05 1.52625e-05 0 3.89255e-05 1.46098e-05 0 4.07475e-05 1.38202e-05 0 4.24558e-05 1.29035e-05 0 4.4033e-05 1.18714e-05 0 4.54642e-05 1.07372e-05 0 4.67379e-05 9.51501e-06 0 4.78448e-05 8.21892e-06 0 4.87785e-05 6.86271e-06 0 4.95343e-05 5.45947e-06 0 5.01093e-05 4.02151e-06 0 5.05017e-05 2.56036e-06 0 5.07107e-05 1.08691e-06 0 5.07361e-05 -3.88341e-07 0 5.05786e-05 -1.85501e-06 0 5.02393e-05 -3.30261e-06 0 4.97204e-05 -4.72027e-06 0 4.90251e-05 -6.09665e-06 0 4.81581e-05 -7.41995e-06 0 4.71258e-05 -8.67798e-06 0 4.59367e-05 -9.85853e-06 0 4.46016e-05 -1.09497e-05 0 4.31335e-05 -1.19405e-05 0 4.15474e-05 -1.28212e-05 0 3.98604e-05 -1.3584e-05 0 3.80908e-05 -1.42231e-05 0 3.62579e-05 -1.47351e-05 0 3.43813e-05 -1.51194e-05 0 2.88599e-05 1.44284e-05 0 3.07885e-05 1.43513e-05 0 3.27124e-05 1.41514e-05 0 3.46109e-05 1.38261e-05 0 3.64631e-05 1.33756e-05 0 3.82485e-05 1.28026e-05 0 3.99478e-05 1.21125e-05 0 4.1543e-05 1.13132e-05 0 4.30184e-05 1.04139e-05 0 4.43604e-05 9.42535e-06 0 4.55576e-05 8.35907e-06 0 4.6601e-05 7.22679e-06 0 4.74836e-05 6.04019e-06 0 4.82003e-05 4.81061e-06 0 4.87474e-05 3.54896e-06 0 4.91226e-05 2.26565e-06 0 4.93247e-05 9.70655e-07 0 4.93533e-05 -3.26289e-07 0 4.92089e-05 -1.61559e-06 0 4.88929e-05 -2.88759e-06 0 4.84079e-05 -4.13248e-06 0 4.77573e-05 -5.34019e-06 0 4.69462e-05 -6.50045e-06 0 4.5981e-05 -7.60288e-06 0 4.48702e-05 -8.63723e-06 0 4.36238e-05 -9.5937e-06 0 4.22539e-05 -1.04632e-05 0 4.0774e-05 -1.12379e-05 0 3.91994e-05 -1.19114e-05 0 3.75462e-05 -1.2479e-05 0 3.58317e-05 -1.29379e-05 0 3.40731e-05 -1.32875e-05 0 2.88356e-05 1.25597e-05 0 3.06536e-05 1.24797e-05 0 3.2463e-05 1.22961e-05 0 3.42457e-05 1.20067e-05 0 3.59834e-05 1.16115e-05 0 3.7658e-05 1.11127e-05 0 3.92524e-05 1.05145e-05 0 4.07504e-05 9.82298e-06 0 4.21377e-05 9.04571e-06 0 4.34016e-05 8.1913e-06 0 4.45314e-05 7.26912e-06 0 4.55182e-05 6.28892e-06 0 4.63549e-05 5.26055e-06 0 4.7036e-05 4.19375e-06 0 4.75575e-05 3.09801e-06 0 4.79168e-05 1.98256e-06 0 4.81123e-05 8.5634e-07 0 4.81435e-05 -2.71876e-07 0 4.80108e-05 -1.39342e-06 0 4.77158e-05 -2.49965e-06 0 4.7261e-05 -3.58183e-06 0 4.66502e-05 -4.63116e-06 0 4.58885e-05 -5.63879e-06 0 4.49823e-05 -6.59592e-06 0 4.39396e-05 -7.49396e-06 0 4.27699e-05 -8.3248e-06 0 4.14844e-05 -9.08102e-06 0 4.00955e-05 -9.75617e-06 0 3.86169e-05 -1.0345e-05 0 3.70632e-05 -1.08438e-05 0 3.54495e-05 -1.12503e-05 0 3.37915e-05 -1.15639e-05 0 2.88024e-05 1.07903e-05 0 3.0527e-05 1.0712e-05 0 3.22402e-05 1.05469e-05 0 3.39256e-05 1.02934e-05 0 3.55669e-05 9.95138e-06 0 3.71481e-05 9.52246e-06 0 3.86535e-05 9.00999e-06 0 4.00688e-05 8.41877e-06 0 4.13807e-05 7.75482e-06 0 4.25774e-05 7.02508e-06 0 4.36486e-05 6.2372e-06 0 4.45859e-05 5.3992e-06 0 4.5382e-05 4.51931e-06 0 4.60315e-05 3.60578e-06 0 4.65301e-05 2.66674e-06 0 4.6875e-05 1.7102e-06 0 4.70644e-05 7.44006e-07 0 4.70977e-05 -2.24131e-07 0 4.69753e-05 -1.18658e-06 0 4.66987e-05 -2.13574e-06 0 4.62704e-05 -3.06402e-06 0 4.56944e-05 -3.96385e-06 0 4.49756e-05 -4.82768e-06 0 4.41203e-05 -5.64811e-06 0 4.31361e-05 -6.41802e-06 0 4.20321e-05 -7.1307e-06 0 4.08186e-05 -7.78009e-06 0 3.9507e-05 -8.36094e-06 0 3.81097e-05 -8.86901e-06 0 3.66401e-05 -9.30124e-06 0 3.51118e-05 -9.65582e-06 0 3.35388e-05 -9.93228e-06 0 2.87648e-05 9.10424e-06 0 3.0412e-05 9.03116e-06 0 3.20451e-05 8.88658e-06 0 3.36496e-05 8.66904e-06 0 3.52108e-05 8.37842e-06 0 3.67139e-05 8.01603e-06 0 3.81451e-05 7.58445e-06 0 3.94909e-05 7.08746e-06 0 4.07391e-05 6.52982e-06 0 4.18788e-05 5.91709e-06 0 4.29001e-05 5.25543e-06 0 4.37948e-05 4.55137e-06 0 4.4556e-05 3.8117e-06 0 4.5178e-05 3.04328e-06 0 4.56567e-05 2.25294e-06 0 4.59889e-05 1.44748e-06 0 4.61729e-05 6.336e-07 0 4.62078e-05 -1.82082e-07 0 4.60941e-05 -9.93015e-07 0 4.58333e-05 -1.7927e-06 0 4.54279e-05 -2.57468e-06 0 4.48816e-05 -3.33255e-06 0 4.41994e-05 -4.06e-06 0 4.33873e-05 -4.75091e-06 0 4.24527e-05 -5.3994e-06 0 4.14041e-05 -6.00003e-06 0 4.0251e-05 -6.54786e-06 0 3.90042e-05 -7.03867e-06 0 3.7675e-05 -7.46906e-06 0 3.62756e-05 -7.83654e-06 0 3.48186e-05 -8.13967e-06 0 3.33168e-05 -8.37807e-06 0 2.8727e-05 7.48694e-06 0 3.03108e-05 7.42204e-06 0 3.18786e-05 7.29942e-06 0 3.3417e-05 7.11793e-06 0 3.49126e-05 6.87745e-06 0 3.6352e-05 6.57897e-06 0 3.77221e-05 6.22449e-06 0 3.90107e-05 5.81692e-06 0 4.02064e-05 5.36e-06 0 4.12987e-05 4.85809e-06 0 4.22785e-05 4.31608e-06 0 4.31376e-05 3.73918e-06 0 4.38693e-05 3.13285e-06 0 4.44682e-05 2.50267e-06 0 4.49299e-05 1.85424e-06 0 4.52513e-05 1.19316e-06 0 4.54305e-05 5.24984e-07 0 4.54668e-05 -1.4479e-07 0 4.53604e-05 -8.1071e-07 0 4.51127e-05 -1.46738e-06 0 4.47264e-05 -2.10946e-06 0 4.42049e-05 -2.73169e-06 0 4.35532e-05 -3.32892e-06 0 4.27771e-05 -3.89618e-06 0 4.18835e-05 -4.42875e-06 0 4.08806e-05 -4.92226e-06 0 3.97774e-05 -5.3728e-06 0 3.85838e-05 -5.777e-06 0 3.73106e-05 -6.13217e-06 0 3.59688e-05 -6.43636e-06 0 3.45703e-05 -6.68843e-06 0 3.31268e-05 -6.88806e-06 0 2.86922e-05 5.92522e-06 0 3.02256e-05 5.87077e-06 0 3.17414e-05 5.77132e-06 0 3.32274e-05 5.62598e-06 0 3.46708e-05 5.43466e-06 0 3.60593e-05 5.19808e-06 0 3.73808e-05 4.91774e-06 0 3.86237e-05 4.59586e-06 0 3.97772e-05 4.23525e-06 0 4.08315e-05 3.83927e-06 0 4.17776e-05 3.41165e-06 0 4.26079e-05 2.95643e-06 0 4.33158e-05 2.47787e-06 0 4.38957e-05 1.98031e-06 0 4.43435e-05 1.46819e-06 0 4.4656e-05 9.45933e-07 0 4.48313e-05 4.17955e-07 0 4.48685e-05 -1.1136e-07 0 4.4768e-05 -6.37664e-07 0 4.4531e-05 -1.15666e-06 0 4.41601e-05 -1.66411e-06 0 4.36588e-05 -2.15586e-06 0 4.30317e-05 -2.62786e-06 0 4.22845e-05 -3.07621e-06 0 4.14239e-05 -3.49724e-06 0 4.04576e-05 -3.88757e-06 0 3.93943e-05 -4.24417e-06 0 3.82433e-05 -4.56447e-06 0 3.70146e-05 -4.8464e-06 0 3.57189e-05 -5.08845e-06 0 3.4367e-05 -5.28975e-06 0 3.297e-05 -5.45006e-06 0 2.86627e-05 4.40689e-06 0 3.01578e-05 4.36461e-06 0 3.16342e-05 4.28925e-06 0 3.30802e-05 4.18016e-06 0 3.4484e-05 4.03726e-06 0 3.58338e-05 3.86107e-06 0 3.71182e-05 3.65265e-06 0 3.83262e-05 3.4136e-06 0 3.94475e-05 3.14596e-06 0 4.04725e-05 2.85213e-06 0 4.13929e-05 2.53485e-06 0 4.22009e-05 2.19706e-06 0 4.28903e-05 1.84188e-06 0 4.34556e-05 1.47253e-06 0 4.38925e-05 1.09227e-06 0 4.41981e-05 7.04419e-07 0 4.43703e-05 3.12254e-07 0 4.44083e-05 -8.09468e-08 0 4.43122e-05 -4.71935e-07 0 4.40835e-05 -8.57503e-07 0 4.37244e-05 -1.23449e-06 0 4.32386e-05 -1.59981e-06 0 4.26304e-05 -1.95047e-06 0 4.19054e-05 -2.28359e-06 0 4.107e-05 -2.59649e-06 0 4.01318e-05 -2.88667e-06 0 3.9099e-05 -3.15194e-06 0 3.79804e-05 -3.39042e-06 0 3.67858e-05 -3.6006e-06 0 3.55251e-05 -3.7814e-06 0 3.42088e-05 -3.93217e-06 0 3.28473e-05 -4.05274e-06 0 2.86404e-05 2.92046e-06 0 3.01085e-05 2.89161e-06 0 3.15572e-05 2.841e-06 0 3.29752e-05 2.76823e-06 0 3.43512e-05 2.67324e-06 0 3.56738e-05 2.55636e-06 0 3.69321e-05 2.41827e-06 0 3.81155e-05 2.26001e-06 0 3.9214e-05 2.08289e-06 0 4.02185e-05 1.88849e-06 0 4.11206e-05 1.67858e-06 0 4.19129e-05 1.45509e-06 0 4.25891e-05 1.22007e-06 0 4.31439e-05 9.75642e-07 0 4.35732e-05 7.23961e-07 0 4.38738e-05 4.67212e-07 0 4.40437e-05 2.07582e-07 0 4.40822e-05 -5.27526e-08 0 4.39893e-05 -3.11635e-07 0 4.37664e-05 -5.66934e-07 0 4.34158e-05 -8.16555e-07 0 4.29408e-05 -1.05845e-06 0 4.2346e-05 -1.29065e-06 0 4.16367e-05 -1.51125e-06 0 4.08192e-05 -1.71849e-06 0 3.99008e-05 -1.91074e-06 0 3.88894e-05 -2.08657e-06 0 3.77938e-05 -2.24473e-06 0 3.66231e-05 -2.38426e-06 0 3.53871e-05 -2.50444e-06 0 3.40957e-05 -2.60486e-06 0 3.27592e-05 -2.6854e-06 0 2.86266e-05 1.45503e-06 0 3.00787e-05 1.4404e-06 0 3.15109e-05 1.41499e-06 0 3.29123e-05 1.37859e-06 0 3.42718e-05 1.33118e-06 0 3.55783e-05 1.27291e-06 0 3.68211e-05 1.20412e-06 0 3.79898e-05 1.12531e-06 0 3.90748e-05 1.03714e-06 0 4.0067e-05 9.4038e-07 0 4.09582e-05 8.35904e-07 0 4.17411e-05 7.24669e-07 0 4.24094e-05 6.07687e-07 0 4.2958e-05 4.8601e-07 0 4.33826e-05 3.60714e-07 0 4.36803e-05 2.32885e-07 0 4.38489e-05 1.03613e-07 0 4.38876e-05 -2.60154e-08 0 4.37966e-05 -1.54925e-07 0 4.35772e-05 -2.82052e-07 0 4.32316e-05 -4.06352e-07 0 4.27632e-05 -5.26808e-07 0 4.21763e-05 -6.42436e-07 0 4.14764e-05 -7.52297e-07 0 4.06695e-05 -8.55514e-07 0 3.97629e-05 -9.51283e-07 0 3.87643e-05 -1.03889e-06 0 3.76822e-05 -1.11773e-06 0 3.65257e-05 -1.18732e-06 0 3.53044e-05 -1.24731e-06 0 3.40279e-05 -1.29749e-06 0 3.27061e-05 -1.3378e-06 0 2.86219e-05 -0 0 3.00687e-05 1.99941e-19 0 3.14955e-05 -1.67201e-19 0 3.28914e-05 -1.27108e-19 0 3.42454e-05 -0 0 3.55465e-05 -0 0 3.67842e-05 -0 0 3.79481e-05 -0 0 3.90286e-05 -0 0 4.00166e-05 -0 0 4.09042e-05 2.01625e-20 0 4.1684e-05 2.87861e-19 0 4.23497e-05 4.52987e-20 0 4.28962e-05 -3.02153e-19 0 4.33193e-05 -6.17099e-20 0 4.3616e-05 -0 0 4.37841e-05 -0 0 4.38229e-05 -0 0 4.37326e-05 -6.98434e-20 0 4.35143e-05 -3.03933e-19 0 4.31704e-05 -2.57482e-20 0 4.27041e-05 -0 0 4.21199e-05 -0 0 4.14231e-05 -0 0 4.06198e-05 1.15328e-19 0 3.9717e-05 2.46869e-19 0 3.87226e-05 4.77178e-21 0 3.76451e-05 -0 0 3.64933e-05 -0 0 3.52768e-05 -0 0 3.40052e-05 -0 0 3.26884e-05 -0 0 </DataArray> 
</PointData> 
<Points> 
<DataArray type="Float32" NumberOfComponents="3"> 