<?xml version="1.0"?> 
<VTKFile type="StructuredGrid" version="0.1"> 
<StructuredGrid WholeExtent="0 31 0 31 0 0"> 
<Piece Extent="0 31 0 31 0 0"> 
<PointData>
<DataArray type="Float32" Name="B" format="ascii" NumberOfComponents="3"> 
0 -0 0 -5.2764e-07 -0 0 -1.05888e-06 -0 0 -1.59732e-06 -0 0 -2.14658e-06 -0 0 -2.7103e-06 -0 0 -3.29211e-06 -0 0 -3.8957e-06 -0 0 -4.52472e-06 -0 0 -5.18286e-06 -0 0 -5.87376e-06 -0 0 -6.60104e-06 -0 0 -7.36824e-06 -0 0 -8.17876e-06 -0 0 -9.03586e-06 -0 0 -9.94258e-06 -0 0 -1.09016e-05 -0 0 -1.19154e-05 -0 0 -1.29857e-05 -0 0 -1.41139e-05 -0 0 -1.53007e-05 -0 0 -1.6546e-05 -0 0 -1.78488e-05 -0 0 -1.92073e-05 -0 0 -2.06186e-05 -0 0 -2.20785e-05 -0 0 -2.35821e-05 -0 0 -2.5123e-05 -0 0 -2.66937e-05 -0 0 -2.82859e-05 -0 0 -2.98899e-05 -0 0 -3.14954e-05 -0 0 -1.32471e-21 5.2644e-07 0 -5.25841e-07 5.28239e-07 0 -1.05528e-06 5.33637e-07 0 -1.59191e-06 5.42644e-07 0 -2.13936e-06 5.55275e-07 0 -2.70125e-06 5.71546e-07 0 -3.28123e-06 5.91476e-07 0 -3.88298e-06 6.15078e-07 0 -4.51016e-06 6.42359e-07 0 -5.16647e-06 6.73308e-07 0 -5.85557e-06 7.07899e-07 0 -6.58108e-06 7.46074e-07 0 -7.34656e-06 7.87742e-07 0 -8.15545e-06 8.32762e-07 0 -9.01104e-06 8.80944e-07 0 -9.91638e-06 9.32026e-07 0 -1.08742e-05 9.85678e-07 0 -1.1887e-05 1.04148e-06 0 -1.29567e-05 1.09892e-06 0 -1.40845e-05 1.1574e-06 0 -1.52714e-05 1.2162e-06 0 -1.65171e-05 1.27453e-06 0 -1.78209e-05 1.33146e-06 0 -1.91809e-05 1.38601e-06 0 -2.05941e-05 1.43712e-06 0 -2.20567e-05 1.48366e-06 0 -2.35634e-05 1.5245e-06 0 -2.51079e-05 1.55846e-06 0 -2.6683e-05 1.58445e-06 0 -2.82799e-05 1.6014e-06 0 -2.98891e-05 1.60835e-06 0 -3.15002e-05 1.60447e-06 0 -2.17488e-21 1.04929e-06 0 -5.20447e-07 1.05288e-06 0 -1.04448e-06 1.06367e-06 0 -1.57569e-06 1.08166e-06 0 -2.11769e-06 1.10691e-06 0 -2.67411e-06 1.13943e-06 0 -3.24859e-06 1.17928e-06 0 -3.84482e-06 1.22648e-06 0 -4.46648e-06 1.28104e-06 0 -5.11729e-06 1.34297e-06 0 -5.80095e-06 1.41221e-06 0 -6.52113e-06 1.48865e-06 0 -7.28144e-06 1.57212e-06 0 -8.08541e-06 1.66235e-06 0 -8.93641e-06 1.75897e-06 0 -9.8376e-06 1.86147e-06 0 -1.07919e-05 1.96919e-06 0 -1.18017e-05 2.0813e-06 0 -1.28693e-05 2.1968e-06 0 -1.39961e-05 2.31446e-06 0 -1.5183e-05 2.43288e-06 0 -1.64301e-05 2.55043e-06 0 -1.77367e-05 2.66529e-06 0 -1.91009e-05 2.77546e-06 0 -2.05202e-05 2.8788e-06 0 -2.19904e-05 2.97304e-06 0 -2.35066e-05 3.05586e-06 0 -2.50623e-05 3.12492e-06 0 -2.66501e-05 3.17796e-06 0 -2.82614e-05 3.21282e-06 0 -2.98863e-05 3.22755e-06 0 -3.15142e-05 3.22047e-06 0 0 1.56495e-06 0 -5.1147e-07 1.57033e-06 0 -1.02651e-06 1.58648e-06 0 -1.54869e-06 1.61344e-06 0 -2.08161e-06 1.65126e-06 0 -2.6289e-06 1.7e-06 0 -3.19421e-06 1.75973e-06 0 -3.78122e-06 1.8305e-06 0 -4.39365e-06 1.91236e-06 0 -5.03526e-06 2.00531e-06 0 -5.7098e-06 2.1093e-06 0 -6.42102e-06 2.22418e-06 0 -7.17264e-06 2.34972e-06 0 -7.96831e-06 2.48554e-06 0 -8.81154e-06 2.6311e-06 0 -9.70567e-06 2.78566e-06 0 -1.06538e-05 2.94827e-06 0 -1.16587e-05 3.11771e-06 0 -1.27226e-05 3.29246e-06 0 -1.38475e-05 3.47073e-06 0 -1.50343e-05 3.65038e-06 0 -1.62835e-05 3.82898e-06 0 -1.75945e-05 4.00377e-06 0 -1.89659e-05 4.17173e-06 0 -2.0395e-05 4.32957e-06 0 -2.18781e-05 4.47384e-06 0 -2.341e-05 4.60099e-06 0 -2.49844e-05 4.70743e-06 0 -2.65937e-05 4.78967e-06 0 -2.82291e-05 4.84441e-06 0 -2.98804e-05 4.86862e-06 0 -3.15367e-05 4.85972e-06 0 -8.16214e-23 2.06985e-06 0 -4.98927e-07 2.07701e-06 0 -1.00139e-06 2.0985e-06 0 -1.51095e-06 2.13437e-06 0 -2.03118e-06 2.18469e-06 0 -2.56568e-06 2.24958e-06 0 -3.11812e-06 2.32912e-06 0 -3.6922e-06 2.42343e-06 0 -4.29165e-06 2.53258e-06 0 -4.9203e-06 2.65661e-06 0 -5.58196e-06 2.79547e-06 0 -6.28051e-06 2.94903e-06 0 -7.01979e-06 3.11701e-06 0 -7.80361e-06 3.29895e-06 0 -8.63572e-06 3.49418e-06 0 -9.5197e-06 3.70177e-06 0 -1.04589e-05 3.92049e-06 0 -1.14565e-05 4.14874e-06 0 -1.2515e-05 4.38456e-06 0 -1.36367e-05 4.62556e-06 0 -1.4823e-05 4.86889e-06 0 -1.60748e-05 5.1113e-06 0 -1.73918e-05 5.34906e-06 0 -1.87729e-05 5.57808e-06 0 -2.02157e-05 5.79389e-06 0 -2.17166e-05 5.99177e-06 0 -2.32706e-05 6.16684e-06 0 -2.48714e-05 6.31417e-06 0 -2.65111e-05 6.42894e-06 0 -2.81806e-05 6.50658e-06 0 -2.98694e-05 6.5429e-06 0 -3.15661e-05 6.53432e-06 0 -7.70506e-21 2.56044e-06 0 -4.82846e-07 2.56936e-06 0 -9.69191e-07 2.59613e-06 0 -1.46255e-06 2.64083e-06 0 -1.96647e-06 2.70357e-06 0 -2.48454e-06 2.78449e-06 0 -3.02041e-06 2.88375e-06 0 -3.5778e-06 3.00151e-06 0 -4.16048e-06 3.13792e-06 0 -4.77232e-06 3.29305e-06 0 -5.41725e-06 3.46693e-06 0 -6.09925e-06 3.65944e-06 0 -6.82236e-06 3.8703e-06 0 -7.59061e-06 4.09902e-06 0 -8.408e-06 4.34485e-06 0 -9.27843e-06 4.6067e-06 0 -1.02057e-05 4.8831e-06 0 -1.11932e-05 5.17214e-06 0 -1.22441e-05 5.47142e-06 0 -1.33611e-05 5.77796e-06 0 -1.45462e-05 6.08826e-06 0 -1.58007e-05 6.39819e-06 0 -1.71249e-05 6.70304e-06 0 -1.8518e-05 6.99759e-06 0 -1.99781e-05 7.2761e-06 0 -2.15018e-05 7.5325e-06 0 -2.30843e-05 7.76044e-06 0 -2.47192e-05 7.95351e-06 0 -2.63984e-05 8.10542e-06 0 -2.81125e-05 8.21015e-06 0 -2.98505e-05 8.26223e-06 0 -3.16001e-05 8.25692e-06 0 -4.67227e-21 3.03321e-06 0 -4.63268e-07 3.04386e-06 0 -9.29979e-07 3.07585e-06 0 -1.4036e-06 3.12927e-06 0 -1.88762e-06 3.20428e-06 0 -2.38561e-06 3.30107e-06 0 -2.9012e-06 3.41988e-06 0 -3.43811e-06 3.56095e-06 0 -4.00015e-06 3.72451e-06 0 -4.59126e-06 3.91074e-06 0 -5.21546e-06 4.11973e-06 0 -5.8769e-06 4.35145e-06 0 -6.5798e-06 4.60567e-06 0 -7.32846e-06 4.88193e-06 0 -8.1272e-06 5.17943e-06 0 -8.98033e-06 5.49699e-06 0 -9.89205e-06 5.83299e-06 0 -1.08664e-05 6.18522e-06 0 -1.1907e-05 6.5509e-06 0 -1.30173e-05 6.92653e-06 0 -1.41999e-05 7.3079e-06 0 -1.54567e-05 7.69005e-06 0 -1.67888e-05 8.06725e-06 0 -1.81959e-05 8.43306e-06 0 -1.96767e-05 8.7804e-06 0 -2.1228e-05 9.10167e-06 0 -2.28454e-05 9.38893e-06 0 -2.45223e-05 9.63408e-06 0 -2.62506e-05 9.82915e-06 0 -2.80203e-05 9.9665e-06 0 -2.98198e-05 1.00391e-05 0 -3.16358e-05 1.0041e-05 0 0 3.48469e-06 0 -4.40249e-07 3.49704e-06 0 -8.83867e-07 3.53414e-06 0 -1.33424e-06 3.59613e-06 0 -1.79482e-06 3.6832e-06 0 -2.2691e-06 3.79563e-06 0 -2.76069e-06 3.93374e-06 0 -3.27331e-06 4.09788e-06 0 -3.81079e-06 4.28841e-06 0 -4.37712e-06 4.50563e-06 0 -4.97646e-06 4.74977e-06 0 -5.61309e-06 5.02092e-06 0 -6.29148e-06 5.31897e-06 0 -7.01622e-06 5.64353e-06 0 -7.79201e-06 5.99386e-06 0 -8.62361e-06 6.36877e-06 0 -9.51578e-06 6.76653e-06 0 -1.04732e-05 7.18474e-06 0 -1.15002e-05 7.62029e-06 0 -1.2601e-05 8.06922e-06 0 -1.37791e-05 8.52664e-06 0 -1.50373e-05 8.98675e-06 0 -1.63773e-05 9.44275e-06 0 -1.78e-05 9.88693e-06 0 -1.93043e-05 1.03107e-05 0 -2.0888e-05 1.07048e-05 0 -2.25465e-05 1.10595e-05 0 -2.42737e-05 1.13648e-05 0 -2.60611e-05 1.16107e-05 0 -2.78982e-05 1.17877e-05 0 -2.97724e-05 1.1887e-05 0 -3.16694e-05 1.19011e-05 0 0 3.91147e-06 0 -4.13867e-07 3.92548e-06 0 -8.31003e-07 3.96757e-06 0 -1.2547e-06 4.03791e-06 0 -1.68832e-06 4.13677e-06 0 -2.1353e-06 4.26451e-06 0 -2.59918e-06 4.42156e-06 0 -3.08366e-06 4.60843e-06 0 -3.59259e-06 4.82561e-06 0 -4.13001e-06 5.07358e-06 0 -4.70018e-06 5.35277e-06 0 -5.30755e-06 5.66345e-06 0 -5.95683e-06 6.00569e-06 0 -6.65294e-06 6.37929e-06 0 -7.401e-06 6.78362e-06 0 -8.2063e-06 7.2176e-06 0 -9.07425e-06 7.67948e-06 0 -1.00102e-05 8.16679e-06 0 -1.10196e-05 8.67617e-06 0 -1.21074e-05 9.20324e-06 0 -1.32781e-05 9.74253e-06 0 -1.45357e-05 1.02874e-05 0 -1.58831e-05 1.08299e-05 0 -1.7322e-05 1.13611e-05 0 -1.88524e-05 1.18706e-05 0 -2.04726e-05 1.23474e-05 0 -2.21787e-05 1.27796e-05 0 -2.39646e-05 1.3155e-05 0 -2.58216e-05 1.34613e-05 0 -2.77385e-05 1.36868e-05 0 -2.97019e-05 1.38205e-05 0 -3.16958e-05 1.38531e-05 0 0 4.31025e-06 0 -3.84221e-07 4.32586e-06 0 -7.71583e-07 4.37277e-06 0 -1.16526e-06 4.45119e-06 0 -1.56849e-06 4.56147e-06 0 -1.98462e-06 4.70407e-06 0 -2.4171e-06 4.87959e-06 0 -2.8696e-06 5.08866e-06 0 -3.34594e-06 5.332e-06 0 -3.8502e-06 5.6103e-06 0 -4.38672e-06 5.92424e-06 0 -4.96014e-06 6.27436e-06 0 -5.57538e-06 6.661e-06 0 -6.23773e-06 7.08421e-06 0 -6.95276e-06 7.54364e-06 0 -7.72636e-06 8.03839e-06 0 -8.56465e-06 8.56686e-06 0 -9.47392e-06 9.12661e-06 0 -1.04605e-05 9.71415e-06 0 -1.15306e-05 1.03248e-05 0 -1.26901e-05 1.09527e-05 0 -1.39442e-05 1.15902e-05 0 -1.52972e-05 1.22283e-05 0 -1.67521e-05 1.28566e-05 0 -1.83103e-05 1.34631e-05 0 -1.99709e-05 1.40345e-05 0 -2.17308e-05 1.45565e-05 0 -2.3584e-05 1.50142e-05 0 -2.55217e-05 1.53928e-05 0 -2.75321e-05 1.56778e-05 0 -2.96004e-05 1.58556e-05 0 -3.17092e-05 1.59145e-05 0 0 4.67783e-06 0 -3.5144e-07 4.69497e-06 0 -7.0586e-07 4.74648e-06 0 -1.06628e-06 4.83263e-06 0 -1.43579e-06 4.95386e-06 0 -1.81759e-06 5.11075e-06 0 -2.21505e-06 5.30406e-06 0 -2.63173e-06 5.53463e-06 0 -3.07141e-06 5.80341e-06 0 -3.53818e-06 6.11138e-06 0 -4.03643e-06 6.45951e-06 0 -4.57094e-06 6.8487e-06 0 -5.14689e-06 7.27966e-06 0 -5.76989e-06 7.75283e-06 0 -6.446e-06 8.26823e-06 0 -7.18175e-06 8.82532e-06 0 -7.98408e-06 9.4228e-06 0 -8.86026e-06 1.00584e-05 0 -9.81782e-06 1.07288e-05 0 -1.08644e-05 1.14291e-05 0 -1.20073e-05 1.21529e-05 0 -1.32535e-05 1.2892e-05 0 -1.46091e-05 1.36363e-05 0 -1.60787e-05 1.43739e-05 0 -1.76653e-05 1.50906e-05 0 -1.93695e-05 1.57708e-05 0 -2.1189e-05 1.63975e-05 0 -2.31184e-05 1.69527e-05 0 -2.51486e-05 1.74182e-05 0 -2.72673e-05 1.77762e-05 0 -2.9458e-05 1.80101e-05 0 -3.17012e-05 1.8105e-05 0 0 5.01115e-06 0 -3.15685e-07 5.02973e-06 0 -6.34152e-07 5.08558e-06 0 -9.58226e-07 5.17902e-06 0 -1.29081e-06 5.3106e-06 0 -1.63495e-06 5.48104e-06 0 -1.99383e-06 5.69128e-06 0 -2.3709e-06 5.9424e-06 0 -2.76986e-06 6.23562e-06 0 -3.19473e-06 6.57227e-06 0 -3.64995e-06 6.95369e-06 0 -4.14039e-06 7.38122e-06 0 -4.67143e-06 7.85604e-06 0 -5.24901e-06 8.37912e-06 0 -5.87968e-06 8.95101e-06 0 -6.57064e-06 9.5717e-06 0 -7.32968e-06 1.02404e-05 0 -8.16522e-06 1.09553e-05 0 -9.08614e-06 1.17132e-05 0 -1.01017e-05 1.25094e-05 0 -1.1221e-05 1.33374e-05 0 -1.24533e-05 1.41882e-05 0 -1.38066e-05 1.50509e-05 0 -1.52879e-05 1.59116e-05 0 -1.69023e-05 1.67543e-05 0 -1.86522e-05 1.75606e-05 0 -2.05367e-05 1.831e-05 0 -2.25512e-05 1.8981e-05 0 -2.46867e-05 1.95514e-05 0 -2.69297e-05 1.99992e-05 0 -2.92626e-05 2.03038e-05 0 -3.16636e-05 2.04475e-05 0 0 5.30735e-06 0 -2.77154e-07 5.32726e-06 0 -5.56852e-07 5.38712e-06 0 -8.41682e-07 5.48732e-06 0 -1.13432e-06 5.6285e-06 0 -1.43758e-06 5.81157e-06 0 -1.75447e-06 6.03764e-06 0 -2.08824e-06 6.30808e-06 0 -2.44244e-06 6.62442e-06 0 -2.82102e-06 6.98838e-06 0 -3.22834e-06 7.40175e-06 0 -3.66933e-06 7.8664e-06 0 -4.14952e-06 8.38411e-06 0 -4.67514e-06 8.9565e-06 0 -5.25319e-06 9.58485e-06 0 -5.89153e-06 1.02699e-05 0 -6.59888e-06 1.10116e-05 0 -7.38486e-06 1.18088e-05 0 -8.25988e-06 1.2659e-05 0 -9.23504e-06 1.35578e-05 0 -1.03218e-05 1.44986e-05 0 -1.15317e-05 1.54723e-05 0 -1.28757e-05 1.64669e-05 0 -1.43637e-05 1.7467e-05 0 -1.60033e-05 1.84542e-05 0 -1.77996e-05 1.94069e-05 0 -1.97537e-05 2.03009e-05 0 -2.18622e-05 2.11101e-05 0 -2.41163e-05 2.18073e-05 0 -2.65018e-05 2.23656e-05 0 -2.89989e-05 2.27595e-05 0 -3.15817e-05 2.29659e-05 0 2.3174e-21 5.56377e-06 0 -2.36088e-07 5.58488e-06 0 -4.74436e-07 5.64836e-06 0 -7.17352e-07 5.75467e-06 0 -9.67236e-07 5.90457e-06 0 -1.22663e-06 6.09912e-06 0 -1.49829e-06 6.33968e-06 0 -1.78521e-06 6.62788e-06 0 -2.09074e-06 6.96563e-06 0 -2.41864e-06 7.35507e-06 0 -2.77317e-06 7.79853e-06 0 -3.1592e-06 8.29849e-06 0 -3.58232e-06 8.85744e-06 0 -4.04898e-06 9.47783e-06 0 -4.56657e-06 1.01619e-05 0 -5.14355e-06 1.09113e-05 0 -5.78959e-06 1.1727e-05 0 -6.51556e-06 1.26091e-05 0 -7.33356e-06 1.35558e-05 0 -8.2568e-06 1.45636e-05 0 -9.29937e-06 1.56264e-05 0 -1.04758e-05 1.67351e-05 0 -1.18006e-05 1.78768e-05 0 -1.32872e-05 1.90347e-05 0 -1.4947e-05 2.0188e-05 0 -1.67885e-05 2.13115e-05 0 -1.88155e-05 2.23764e-05 0 -2.10265e-05 2.33511e-05 0 -2.34135e-05 2.42023e-05 0 -2.59613e-05 2.48968e-05 0 -2.86479e-05 2.54027e-05 0 -3.14458e-05 2.56939e-05 0 2.04636e-20 5.77803e-06 0 -1.92768e-07 5.80018e-06 0 -3.87468e-07 5.86682e-06 0 -5.86079e-07 5.97848e-06 0 -7.90673e-07 6.13603e-06 0 -1.00347e-06 6.34071e-06 0 -1.22689e-06 6.59411e-06 0 -1.46364e-06 6.89817e-06 0 -1.71675e-06 7.25519e-06 0 -1.98973e-06 7.66777e-06 0 -2.28661e-06 8.13883e-06 0 -2.61211e-06 8.67156e-06 0 -2.97176e-06 9.26929e-06 0 -3.37208e-06 9.93546e-06 0 -3.82074e-06 1.06734e-05 0 -4.32674e-06 1.14861e-05 0 -4.90059e-06 1.23759e-05 0 -5.55443e-06 1.33443e-05 0 -6.30215e-06 1.43911e-05 0 -7.15932e-06 1.55139e-05 0 -8.14303e-06 1.67078e-05 0 -9.27149e-06 1.79641e-05 0 -1.05634e-05 1.92697e-05 0 -1.20369e-05 2.06065e-05 0 -1.37084e-05 2.19511e-05 0 -1.55909e-05 2.32743e-05 0 -1.76922e-05 2.45419e-05 0 -2.00138e-05 2.57156e-05 0 -2.25486e-05 2.67544e-05 0 -2.52811e-05 2.76169e-05 0 -2.8186e-05 2.82641e-05 0 -3.12274e-05 2.86565e-05 0 3.75283e-21 5.94803e-06 0 -1.47523e-07 5.97105e-06 0 -2.96604e-07 6.04033e-06 0 -4.48846e-07 6.15645e-06 0 -6.05942e-07 6.32042e-06 0 -7.69725e-07 6.53364e-06 0 -9.42233e-07 6.79794e-06 0 -1.12577e-06 7.11557e-06 0 -1.323e-06 7.48923e-06 0 -1.53704e-06 7.92202e-06 0 -1.77157e-06 8.41751e-06 0 -2.03103e-06 8.97964e-06 0 -2.32072e-06 9.6127e-06 0 -2.64706e-06 1.03213e-05 0 -3.01782e-06 1.111e-05 0 -3.44235e-06 1.19836e-05 0 -3.93187e-06 1.2946e-05 0 -4.49972e-06 1.40008e-05 0 -5.16156e-06 1.51497e-05 0 -5.9355e-06 1.63926e-05 0 -6.84201e-06 1.77262e-05 0 -7.90363e-06 1.9143e-05 0 -9.14426e-06 2.06304e-05 0 -1.05881e-05 2.21696e-05 0 -1.22579e-05 2.37346e-05 0 -1.41731e-05 2.5292e-05 0 -1.63474e-05 2.6801e-05 0 -1.87862e-05 2.82149e-05 0 -2.14849e-05 2.9483e-05 0 -2.44265e-05 3.05537e-05 0 -2.75836e-05 3.13763e-05 0 -3.09216e-05 3.19158e-05 0 0 6.07204e-06 0 -1.00727e-07 6.09574e-06 0 -2.02595e-07 6.16705e-06 0 -3.06784e-07 6.28665e-06 0 -4.14556e-07 6.45563e-06 0 -5.27302e-07 6.67556e-06 0 -6.46603e-07 6.94851e-06 0 -7.7429e-07 7.27703e-06 0 -9.12538e-07 7.6642e-06 0 -1.06397e-06 8.11366e-06 0 -1.23177e-06 8.6296e-06 0 -1.4199e-06 9.21681e-06 0 -1.63325e-06 9.88063e-06 0 -1.8779e-06 1.06269e-05 0 -2.16145e-06 1.14619e-05 0 -2.49334e-06 1.2392e-05 0 -2.88523e-06 1.34236e-05 0 -3.35143e-06 1.45627e-05 0 -3.90927e-06 1.5814e-05 0 -4.57945e-06 1.718e-05 0 -5.38613e-06 1.86604e-05 0 -6.35682e-06 2.02501e-05 0 -7.52174e-06 2.19381e-05 0 -8.91268e-06 2.37056e-05 0 -1.0561e-05 2.55246e-05 0 -1.24949e-05 2.7357e-05 0 -1.47362e-05 2.91544e-05 0 -1.7297e-05 3.08598e-05 0 -2.01754e-05 3.24097e-05 0 -2.33556e-05 3.37382e-05 0 -2.68037e-05 3.47844e-05 0 -3.04646e-05 3.54734e-05 0 0 6.14873e-06 0 -5.27981e-08 6.17288e-06 0 -1.0628e-07 6.24558e-06 0 -1.61161e-07 6.36753e-06 0 -2.18226e-07 6.53995e-06 0 -2.78368e-07 6.76456e-06 0 -3.42642e-07 7.0436e-06 0 -4.12322e-07 7.37992e-06 0 -4.88991e-07 7.77698e-06 0 -5.74639e-07 8.2389e-06 0 -6.71806e-07 8.77052e-06 0 -7.83758e-07 9.37748e-06 0 -9.14716e-07 1.00662e-05 0 -1.07015e-06 1.08439e-05 0 -1.25712e-06 1.17185e-05 0 -1.48477e-06 1.26988e-05 0 -1.76479e-06 1.37936e-05 0 -2.11206e-06 1.50122e-05 0 -2.54526e-06 1.63628e-05 0 -3.08748e-06 1.78522e-05 0 -3.76673e-06 1.94842e-05 0 -4.61603e-06 2.12577e-05 0 -5.67317e-06 2.31649e-05 0 -6.9794e-06 2.51885e-05 0 -8.5774e-06 2.72995e-05 0 -1.05075e-05 2.94554e-05 0 -1.28037e-05 3.15989e-05 0 -1.5487e-05 3.36598e-05 0 -1.85627e-05 3.55576e-05 0 -2.20124e-05 3.7209e-05 0 -2.58001e-05 3.85281e-05 0 -2.98831e-05 3.94857e-05 0 4.93266e-21 6.17718e-06 0 -4.19067e-09 6.20155e-06 0 -8.57553e-09 6.27492e-06 0 -1.33717e-08 6.39804e-06 0 -1.8845e-08 6.57219e-06 0 -2.53408e-08 6.79921e-06 0 -3.33246e-08 7.08152e-06 0 -4.34348e-08 7.4222e-06 0 -5.65553e-08 7.82502e-06 0 -7.39138e-08 8.29456e-06 0 -9.72143e-08 8.83625e-06 0 -1.28818e-07 9.45653e-06 0 -1.71984e-07 1.01629e-05 0 -2.31191e-07 1.0964e-05 0 -3.12554e-07 1.18696e-05 0 -4.24362e-07 1.28909e-05 0 -5.77749e-07 1.40399e-05 0 -7.87512e-07 1.53294e-05 0 -1.07305e-06 1.67724e-05 0 -1.45937e-06 1.83812e-05 0 -1.97807e-06 2.01653e-05 0 -2.66806e-06 2.213e-05 0 -3.57572e-06 2.42732e-05 0 -4.7541e-06 2.65815e-05 0 -6.26044e-06 2.90272e-05 0 -8.15232e-06 3.15638e-05 0 -1.04804e-05 3.41244e-05 0 -1.32821e-05 3.6622e-05 0 -1.65698e-05 3.89539e-05 0 -2.03312e-05 4.10077e-05 0 -2.45153e-05 4.26859e-05 0 -2.902e-05 4.38154e-05 0 2.15022e-20 6.15698e-06 0 4.46072e-08 6.18132e-06 0 8.9532e-08 6.2546e-06 0 1.35081e-07 6.3776e-06 0 1.81539e-07 6.55165e-06 0 2.29146e-07 6.77867e-06 0 2.78079e-07 7.06119e-06 0 3.28406e-07 7.40246e-06 0 3.80039e-07 7.80649e-06 0 4.32645e-07 8.27822e-06 0 4.85532e-07 8.82358e-06 0 5.37482e-07 9.44971e-06 0 5.86516e-07 1.01651e-05 0 6.29557e-07 1.09797e-05 0 6.61984e-07 1.19053e-05 0 6.77014e-07 1.29554e-05 0 6.64896e-07 1.41456e-05 0 6.11861e-07 1.54929e-05 0 4.98829e-07 1.7016e-05 0 2.99885e-07 1.87339e-05 0 -1.94076e-08 2.06645e-05 0 -5.03568e-07 2.28221e-05 0 -1.20838e-06 2.52137e-05 0 -2.20078e-06 2.78342e-05 0 -3.5572e-06 3.06604e-05 0 -5.35802e-06 3.36447e-05 0 -7.68057e-06 3.67101e-05 0 -1.0584e-05 3.97491e-05 0 -1.41018e-05 4.26264e-05 0 -1.82173e-05 4.51966e-05 0 -2.2877e-05 4.72963e-05 0 -2.80271e-05 4.89766e-05 0 1.81559e-21 6.08818e-06 0 9.30857e-08 6.11223e-06 0 1.87011e-07 6.18464e-06 0 2.8262e-07 6.3062e-06 0 3.80762e-07 6.47826e-06 0 4.82291e-07 6.70275e-06 0 5.88061e-07 6.98226e-06 0 6.98903e-07 7.3201e-06 0 8.15602e-07 7.72045e-06 0 9.38835e-07 8.18844e-06 0 1.06909e-06 8.73038e-06 0 1.20652e-06 9.35391e-06 0 1.35075e-06 1.00683e-05 0 1.50056e-06 1.08848e-05 0 1.65342e-06 1.18168e-05 0 1.80487e-06 1.28803e-05 0 1.94757e-06 1.40943e-05 0 2.07008e-06 1.54808e-05 0 2.15519e-06 1.70647e-05 0 2.17777e-06 1.88734e-05 0 2.10222e-06 2.09356e-05 0 1.8796e-06 2.32782e-05 0 1.44498e-06 2.59224e-05 0 7.15508e-07 2.88772e-05 0 -4.08548e-07 3.21306e-05 0 -2.04023e-06 3.56391e-05 0 -4.29298e-06 3.9318e-05 0 -7.26795e-06 4.30341e-05 0 -1.10212e-05 4.66115e-05 0 -1.55596e-05 4.98364e-05 0 -2.07966e-05 5.25388e-05 0 -2.6501e-05 5.4214e-05 0 0 5.97136e-06 0 1.40725e-07 5.99486e-06 0 2.82808e-07 6.06562e-06 0 4.27627e-07 6.18441e-06 0 5.76597e-07 6.35255e-06 0 7.31194e-07 6.57193e-06 0 8.92962e-07 6.84512e-06 0 1.06353e-06 7.17541e-06 0 1.2446e-06 7.56695e-06 0 1.43795e-06 8.02496e-06 0 1.64538e-06 8.55584e-06 0 1.86862e-06 9.16755e-06 0 2.1092e-06 9.86985e-06 0 2.36819e-06 1.06748e-05 0 2.64581e-06 1.15972e-05 0 2.9408e-06 1.26552e-05 0 3.24948e-06 1.38711e-05 0 3.5644e-06 1.52716e-05 0 3.87232e-06 1.68886e-05 0 4.15154e-06 1.87593e-05 0 4.36817e-06 2.09254e-05 0 4.47177e-06 2.34306e-05 0 4.39005e-06 2.6317e-05 0 4.02441e-06 2.96164e-05 0 3.24655e-06 3.33386e-05 0 1.90245e-06 3.74553e-05 0 -1.79574e-07 4.18801e-05 0 -3.15735e-06 4.64552e-05 0 -7.15264e-06 5.09396e-05 0 -1.21781e-05 5.50514e-05 0 -1.81504e-05 5.84134e-05 0 -2.49824e-05 6.14497e-05 0 0 5.80762e-06 0 1.8701e-07 5.83032e-06 0 3.75877e-07 5.89866e-06 0 5.68491e-07 6.01337e-06 0 7.66819e-07 6.17569e-06 0 9.72939e-07 6.38743e-06 0 1.18908e-06 6.65103e-06 0 1.41766e-06 6.96962e-06 0 1.66133e-06 7.34721e-06 0 1.92299e-06 7.78884e-06 0 2.20583e-06 8.3008e-06 0 2.51331e-06 8.89097e-06 0 2.8491e-06 9.56921e-06 0 3.21696e-06 1.03479e-05 0 3.62044e-06 1.12427e-05 0 4.06241e-06 1.22732e-05 0 4.5442e-06 1.34642e-05 0 5.0643e-06 1.48468e-05 0 5.61617e-06 1.64597e-05 0 6.1851e-06 1.83504e-05 0 6.74356e-06 2.05756e-05 0 7.24469e-06 2.32004e-05 0 7.61421e-06 2.62951e-05 0 7.74034e-06 2.99263e-05 0 7.46593e-06 3.41427e-05 0 6.58208e-06 3.89502e-05 0 4.84145e-06 4.42804e-05 0 1.97727e-06 4.99509e-05 0 -2.21614e-06 5.56558e-05 0 -7.84643e-06 6.09371e-05 0 -1.47786e-05 6.54435e-05 0 -2.24598e-05 6.74552e-05 0 0 5.59857e-06 0 2.31446e-07 5.62022e-06 0 4.65209e-07 5.68542e-06 0 7.0366e-07 5.7948e-06 0 9.49275e-07 5.94952e-06 0 1.2047e-06 6.15121e-06 0 1.4728e-06 6.40207e-06 0 1.75675e-06 6.705e-06 0 2.0601e-06 7.06365e-06 0 2.38689e-06 7.48266e-06 0 2.74168e-06 7.96789e-06 0 3.1297e-06 8.52675e-06 0 3.55692e-06 9.16865e-06 0 4.03001e-06 9.90566e-06 0 4.55635e-06 1.07533e-05 0 5.14373e-06 1.17316e-05 0 5.79983e-06 1.28669e-05 0 6.5311e-06 1.41931e-05 0 7.34086e-06 1.57546e-05 0 8.226e-06 1.76085e-05 0 9.17166e-06 1.98271e-05 0 1.01431e-05 2.25002e-05 0 1.10736e-05 2.57337e-05 0 1.18488e-05 2.96443e-05 0 1.22857e-05 3.4343e-05 0 1.21187e-05 3.99048e-05 0 1.09866e-05 4.63138e-05 0 8.47532e-06 5.34011e-05 0 4.16845e-06 6.07535e-05 0 -2.14452e-06 6.77752e-05 0 -1.03978e-05 7.3431e-05 0 -2.03591e-05 7.95653e-05 0 0 5.34626e-06 0 2.73573e-07 5.36666e-06 0 5.49873e-07 5.42805e-06 0 8.31693e-07 5.53099e-06 0 1.12196e-06 5.67648e-06 0 1.42383e-06 5.86591e-06 0 1.74073e-06 6.1012e-06 0 2.07651e-06 6.38481e-06 0 2.43555e-06 6.71992e-06 0 2.82289e-06 7.11051e-06 0 3.24441e-06 7.56169e-06 0 3.70704e-06 8.07992e-06 0 4.21897e-06 8.67358e-06 0 4.78989e-06 9.35354e-06 0 5.4312e-06 1.01342e-05 0 6.15616e-06 1.10345e-05 0 6.97979e-06 1.20803e-05 0 7.9184e-06 1.33063e-05 0 8.98831e-06 1.47598e-05 0 1.02031e-05 1.65046e-05 0 1.15688e-05 1.86272e-05 0 1.30744e-05 2.12414e-05 0 1.46776e-05 2.44949e-05 0 1.628e-05 2.85683e-05 0 1.76957e-05 3.36667e-05 0 1.8604e-05 3.9984e-05 0 1.85211e-05 4.76367e-05 0 1.67769e-05 5.65242e-05 0 1.26509e-05 6.62126e-05 0 5.53427e-06 7.56825e-05 0 -4.56133e-06 8.40459e-05 0 -1.65294e-05 8.51189e-05 0 0 5.05322e-06 0 3.12984e-07 5.07217e-06 0 6.29038e-07 5.12919e-06 0 9.51311e-07 5.22472e-06 0 1.28311e-06 5.35957e-06 0 1.62799e-06 5.53485e-06 0 1.98986e-06 5.75211e-06 0 2.37313e-06 6.01328e-06 0 2.78284e-06 6.32087e-06 0 3.22488e-06 6.67803e-06 0 3.70625e-06 7.08873e-06 0 4.23533e-06 7.55809e-06 0 4.82232e-06 8.09277e-06 0 5.47969e-06 8.70158e-06 0 6.22272e-06 9.39637e-06 0 7.07016e-06 1.01935e-05 0 8.04482e-06 1.11156e-05 0 9.17404e-06 1.2195e-05 0 1.04896e-05 1.34772e-05 0 1.20269e-05 1.5028e-05 0 1.38209e-05 1.69409e-05 0 1.58996e-05 1.93497e-05 0 1.82671e-05 2.24403e-05 0 2.08774e-05 2.64676e-05 0 2.3581e-05 3.17581e-05 0 2.60555e-05 3.86994e-05 0 2.76869e-05 4.76517e-05 0 2.75086e-05 5.87949e-05 0 2.41702e-05 7.17138e-05 0 1.63996e-05 8.52492e-05 0 3.60363e-06 9.62655e-05 0 -1.31246e-05 0.000111416 0 0 4.72233e-06 0 3.49337e-07 4.73968e-06 0 7.02012e-07 4.79186e-06 0 1.06145e-06 4.87919e-06 0 1.43123e-06 5.00227e-06 0 1.81523e-06 5.16191e-06 0 2.2177e-06 5.35918e-06 0 2.64344e-06 5.59545e-06 0 3.09797e-06 5.87241e-06 0 3.58779e-06 6.19217e-06 0 4.12067e-06 6.55736e-06 0 4.70608e-06 6.9713e-06 0 5.35577e-06 7.43835e-06 0 6.08439e-06 7.96433e-06 0 6.91051e-06 8.55736e-06 0 7.85771e-06 9.22893e-06 0 8.95608e-06 9.99608e-06 0 1.02439e-05 1.08839e-05 0 1.17695e-05 1.1931e-05 0 1.35926e-05 1.31955e-05 0 1.57852e-05 1.47684e-05 0 1.84273e-05 1.67867e-05 0 2.15991e-05 1.94633e-05 0 2.53506e-05 2.31128e-05 0 2.96536e-05 2.82021e-05 0 3.42764e-05 3.53663e-05 0 3.86143e-05 4.5413e-05 0 4.1354e-05 5.90709e-05 0 4.03018e-05 7.65808e-05 0 3.24978e-05 9.62622e-05 0 1.60212e-05 0.000115514 0 -8.73575e-06 0.00011155 0 0 4.35676e-06 0 3.82365e-07 4.3724e-06 0 7.68254e-07 4.4194e-06 0 1.16127e-06 4.49797e-06 0 1.5652e-06 4.60847e-06 0 1.98409e-06 4.75137e-06 0 2.4224e-06 4.9273e-06 0 2.88513e-06 5.13698e-06 0 3.37804e-06 5.38123e-06 0 3.90791e-06 5.66102e-06 0 4.48291e-06 5.9774e-06 0 5.11306e-06 6.33166e-06 0 5.81091e-06 6.72535e-06 0 6.59244e-06 7.16064e-06 0 7.47828e-06 7.6406e-06 0 8.49545e-06 8.17032e-06 0 9.67954e-06 8.75774e-06 0 1.1078e-05 9.4172e-06 0 1.27537e-05 1.01718e-05 0 1.47909e-05 1.10636e-05 0 1.72993e-05 1.21607e-05 0 2.0423e-05 1.35851e-05 0 2.43365e-05 1.55347e-05 0 2.92472e-05 1.83535e-05 0 3.53367e-05 2.25934e-05 0 4.26859e-05 2.91708e-05 0 5.09501e-05 3.94416e-05 0 5.88836e-05 5.53359e-05 0 6.32236e-05 7.85263e-05 0 5.80636e-05 0.000109066 0 3.62312e-05 0.000138026 0 2.50778e-06 0.000184341 0 0 3.95993e-06 0 4.11883e-07 3.97379e-06 0 8.27394e-07 4.01539e-06 0 1.25024e-06 4.08484e-06 0 1.68428e-06 4.18227e-06 0 2.13363e-06 4.30784e-06 0 2.6028e-06 4.4617e-06 0 3.0968e-06 4.64395e-06 0 3.62136e-06 4.85456e-06 0 4.18321e-06 5.09329e-06 0 4.79041e-06 5.35963e-06 0 5.45289e-06 5.65264e-06 0 6.18314e-06 5.97096e-06 0 6.9972e-06 6.31248e-06 0 7.91617e-06 6.67478e-06 0 8.96811e-06 7.05458e-06 0 1.01913e-05 7.44951e-06 0 1.1638e-05 7.85721e-06 0 1.33814e-05 8.28158e-06 0 1.55224e-05 8.73195e-06 0 1.82061e-05 9.24247e-06 0 2.16304e-05 9.87564e-06 0 2.60826e-05 1.07797e-05 0 3.19383e-05 1.22192e-05 0 3.97208e-05 1.4745e-05 0 5.00098e-05 1.93444e-05 0 6.3342e-05 2.7948e-05 0 7.94491e-05 4.38503e-05 0 9.5311e-05 7.25454e-05 0 0.000101004 0.000118982 0 7.67255e-05 0.00018116 0 -3.34793e-06 0.000169887 0 0 3.5354e-06 0 4.37787e-07 3.54744e-06 0 8.79228e-07 3.58355e-06 0 1.32805e-06 3.64373e-06 0 1.78809e-06 3.72792e-06 0 2.26344e-06 3.836e-06 0 2.75849e-06 3.96769e-06 0 3.27806e-06 4.12253e-06 0 3.82762e-06 4.2997e-06 0 4.41345e-06 4.49789e-06 0 5.04305e-06 4.71507e-06 0 5.72554e-06 4.94829e-06 0 6.47233e-06 5.19314e-06 0 7.29822e-06 5.44365e-06 0 8.22256e-06 5.69111e-06 0 9.27202e-06 5.92455e-06 0 1.04825e-05 6.12806e-06 0 1.19067e-05 6.28368e-06 0 1.36164e-05 6.36555e-06 0 1.57236e-05 6.35031e-06 0 1.83796e-05 6.20632e-06 0 2.18369e-05 5.92617e-06 0 2.64296e-05 5.51557e-06 0 3.27466e-05 5.09353e-06 0 4.15592e-05 4.93145e-06 0 5.42374e-05 5.80841e-06 0 7.256e-05 9.41413e-06 0 9.91104e-05 2.00316e-05 0 0.000135758 4.70179e-05 0 0.000174331 0.000111699 0 0.000165945 0.000230749 0 7.05515e-05 0.000421722 0 0 3.08678e-06 0 4.60046e-07 3.09701e-06 0 9.2371e-07 3.12765e-06 0 1.39466e-06 3.17861e-06 0 1.87666e-06 3.24968e-06 0 2.37363e-06 3.3405e-06 0 2.88975e-06 3.45049e-06 0 3.42949e-06 3.57871e-06 0 3.99778e-06 3.72371e-06 0 4.6002e-06 3.88332e-06 0 5.24319e-06 4.05429e-06 0 5.93437e-06 4.23192e-06 0 6.68331e-06 4.40942e-06 0 7.50167e-06 4.57711e-06 0 8.40605e-06 4.72131e-06 0 9.4162e-06 4.82293e-06 0 1.05659e-05 4.85501e-06 0 1.1891e-05 4.7813e-06 0 1.34709e-05 4.54959e-06 0 1.53722e-05 4.09449e-06 0 1.7802e-05 3.3174e-06 0 2.08828e-05 2.11133e-06 0 2.51961e-05 3.03351e-07 0 3.09653e-05 -2.2432e-06 0 3.99039e-05 -5.73888e-06 0 5.25283e-05 -1.01894e-05 0 7.41303e-05 -1.50855e-05 0 0.000107069 -1.89373e-05 0 0.000169068 -1.22193e-05 0 0.000274855 3.02665e-05 0 0.000440306 0.000265911 0 -0.0001244 0.000782356 0 0 2.61771e-06 0 4.78693e-07 2.62615e-06 0 9.60923e-07 2.65141e-06 0 1.45024e-06 2.69334e-06 0 1.95028e-06 2.75164e-06 0 2.46472e-06 2.82577e-06 0 2.99745e-06 2.91499e-06 0 3.55242e-06 3.01794e-06 0 4.13392e-06 3.13303e-06 0 4.74657e-06 3.25698e-06 0 5.39519e-06 3.3868e-06 0 6.08617e-06 3.51466e-06 0 6.82428e-06 3.63586e-06 0 7.62216e-06 3.73122e-06 0 8.47963e-06 3.79643e-06 0 9.43356e-06 3.7825e-06 0 1.04535e-05 3.69768e-06 0 1.1672e-05 3.4119e-06 0 1.29163e-05 2.99224e-06 0 1.46909e-05 2.08808e-06 0 1.62274e-05 9.66988e-07 0 1.94341e-05 -1.29235e-06 0 2.12238e-05 -3.88462e-06 0 2.8641e-05 -9.00842e-06 0 3.00913e-05 -1.49633e-05 0 5.07994e-05 -2.56722e-05 0 4.98431e-05 -4.11042e-05 0 0.00011509 -6.04398e-05 0 0.000115427 -0.000113101 0 0.000358399 -0.00012657 0 0.000787095 -0.000506965 0 0.00393617 0.00205312 0 </DataArray> 
</PointData> 
<Points> 
<DataArray type="Float32" NumberOfComponents="3"> 