<?xml version="1.0"?> 
<VTKFile type="StructuredGrid" version="0.1"> 
<StructuredGrid WholeExtent="0 31 0 31 0 0"> 
<Piece Extent="0 31 0 31 0 0"> 
<PointData>
<DataArray type="Float32" Name="B" format="ascii" NumberOfComponents="3"> 
-4.72885e-05 -0 0 -4.51672e-05 -0 0 -4.30257e-05 -0 0 -4.08782e-05 -0 0 -3.87379e-05 -0 0 -3.66167e-05 -0 0 -3.45254e-05 -0 0 -3.24731e-05 -0 0 -3.0468e-05 -0 0 -2.85164e-05 -0 0 -2.66237e-05 -0 0 -2.47938e-05 -0 0 -2.30295e-05 -0 0 -2.13326e-05 -0 0 -1.97036e-05 -0 0 -1.81424e-05 -0 0 -1.66478e-05 -0 0 -1.52181e-05 -0 0 -1.38508e-05 -0 0 -1.25432e-05 -0 0 -1.12917e-05 -0 0 -1.00926e-05 -0 0 -8.94194e-06 -0 0 -7.83528e-06 -0 0 -6.76815e-06 -0 0 -5.73586e-06 -0 0 -4.73363e-06 -0 0 -3.75656e-06 -0 0 -2.79969e-06 -0 0 -1.858e-06 -0 0 -9.26463e-07 -0 0 0 -0 0 -4.73062e-05 -2.10874e-06 0 -4.51773e-05 -2.13631e-06 0 -4.30286e-05 -2.14909e-06 0 -4.08745e-05 -2.1481e-06 0 -3.87282e-05 -2.1345e-06 0 -3.66017e-05 -2.10958e-06 0 -3.45057e-05 -2.07466e-06 0 -3.24495e-05 -2.03112e-06 0 -3.0441e-05 -1.98034e-06 0 -2.84868e-05 -1.92367e-06 0 -2.65921e-05 -1.86241e-06 0 -2.47609e-05 -1.79779e-06 0 -2.29958e-05 -1.73098e-06 0 -2.12985e-05 -1.66302e-06 0 -1.96697e-05 -1.59488e-06 0 -1.8109e-05 -1.52744e-06 0 -1.66153e-05 -1.46144e-06 0 -1.51868e-05 -1.39757e-06 0 -1.3821e-05 -1.33638e-06 0 -1.25151e-05 -1.27838e-06 0 -1.12655e-05 -1.22396e-06 0 -1.00684e-05 -1.17348e-06 0 -8.9199e-06 -1.12721e-06 0 -7.81551e-06 -1.08536e-06 0 -6.75071e-06 -1.04813e-06 0 -5.72083e-06 -1.01564e-06 0 -4.72104e-06 -9.88008e-07 0 -3.74645e-06 -9.65308e-07 0 -2.79209e-06 -9.47601e-07 0 -1.85293e-06 -9.34926e-07 0 -9.23924e-07 -9.2731e-07 0 -4.65409e-21 -9.2477e-07 0 -4.73588e-05 -4.23316e-06 0 -4.5207e-05 -4.28744e-06 0 -4.30368e-05 -4.31197e-06 0 -4.08628e-05 -4.30882e-06 0 -3.86985e-05 -4.28035e-06 0 -3.6556e-05 -4.22915e-06 0 -3.4446e-05 -4.15794e-06 0 -3.23779e-05 -4.06949e-06 0 -3.03596e-05 -3.96657e-06 0 -2.83976e-05 -3.85192e-06 0 -2.6497e-05 -3.72816e-06 0 -2.46616e-05 -3.59777e-06 0 -2.28941e-05 -3.46308e-06 0 -2.11959e-05 -3.32619e-06 0 -1.95675e-05 -3.18906e-06 0 -1.80084e-05 -3.05341e-06 0 -1.65175e-05 -2.92075e-06 0 -1.50927e-05 -2.79243e-06 0 -1.37314e-05 -2.66957e-06 0 -1.24305e-05 -2.55315e-06 0 -1.11866e-05 -2.44399e-06 0 -9.99572e-06 -2.34275e-06 0 -8.85369e-06 -2.24997e-06 0 -7.7561e-06 -2.16611e-06 0 -6.69835e-06 -2.0915e-06 0 -5.67568e-06 -2.02642e-06 0 -4.68325e-06 -1.97108e-06 0 -3.71612e-06 -1.92562e-06 0 -2.76928e-06 -1.89017e-06 0 -1.8377e-06 -1.86479e-06 0 -9.16302e-07 -1.84954e-06 0 -7.64611e-21 -1.84446e-06 0 -4.74453e-05 -6.38914e-06 0 -4.52549e-05 -6.46841e-06 0 -4.30485e-05 -6.50259e-06 0 -4.08413e-05 -6.49489e-06 0 -3.86468e-05 -6.44895e-06 0 -3.64775e-05 -6.36876e-06 0 -3.43442e-05 -6.25846e-06 0 -3.22563e-05 -6.1223e-06 0 -3.02217e-05 -5.96452e-06 0 -2.82467e-05 -5.78926e-06 0 -2.63364e-05 -5.60052e-06 0 -2.44943e-05 -5.40204e-06 0 -2.27229e-05 -5.19732e-06 0 -2.10233e-05 -4.98959e-06 0 -1.93958e-05 -4.78173e-06 0 -1.78397e-05 -4.57635e-06 0 -1.63535e-05 -4.3757e-06 0 -1.49349e-05 -4.18179e-06 0 -1.35812e-05 -3.99629e-06 0 -1.2289e-05 -3.82065e-06 0 -1.10547e-05 -3.65607e-06 0 -9.87411e-06 -3.50352e-06 0 -8.74301e-06 -3.36381e-06 0 -7.65683e-06 -3.23759e-06 0 -6.61087e-06 -3.12534e-06 0 -5.60029e-06 -3.02747e-06 0 -4.62016e-06 -2.94426e-06 0 -3.66548e-06 -2.87593e-06 0 -2.73121e-06 -2.82265e-06 0 -1.81228e-06 -2.78452e-06 0 -9.03581e-07 -2.76161e-06 0 0 -2.75397e-06 0 -4.75636e-05 -8.59303e-06 0 -4.53185e-05 -8.69457e-06 0 -4.3061e-05 -8.73516e-06 0 -4.08067e-05 -8.71923e-06 0 -3.85697e-05 -8.65185e-06 0 -3.63627e-05 -8.53848e-06 0 -3.41968e-05 -8.38483e-06 0 -3.20812e-05 -8.19672e-06 0 -3.00239e-05 -7.97991e-06 0 -2.8031e-05 -7.74006e-06 0 -2.61073e-05 -7.48256e-06 0 -2.42562e-05 -7.21248e-06 0 -2.24796e-05 -6.93454e-06 0 -2.07785e-05 -6.65305e-06 0 -1.91526e-05 -6.37188e-06 0 -1.7601e-05 -6.09449e-06 0 -1.61217e-05 -5.82388e-06 0 -1.47122e-05 -5.56268e-06 0 -1.33694e-05 -5.31312e-06 0 -1.20896e-05 -5.07706e-06 0 -1.08689e-05 -4.85608e-06 0 -9.703e-06 -4.65143e-06 0 -8.58738e-06 -4.46416e-06 0 -7.51734e-06 -4.29506e-06 0 -6.488e-06 -4.14479e-06 0 -5.49443e-06 -4.01383e-06 0 -4.5316e-06 -3.90254e-06 0 -3.59442e-06 -3.81119e-06 0 -2.67781e-06 -3.73997e-06 0 -1.77663e-06 -3.68902e-06 0 -8.85741e-07 -3.65841e-06 0 -2.87723e-22 -3.64821e-06 0 -4.7711e-05 -1.08618e-05 0 -4.53943e-05 -1.09819e-05 0 -4.307e-05 -1.10243e-05 0 -4.07545e-05 -1.09951e-05 0 -3.84623e-05 -1.09008e-05 0 -3.62066e-05 -1.07485e-05 0 -3.39986e-05 -1.05457e-05 0 -3.18476e-05 -1.02998e-05 0 -2.97614e-05 -1.00183e-05 0 -2.77459e-05 -9.70846e-06 0 -2.58056e-05 -9.37711e-06 0 -2.39433e-05 -9.03071e-06 0 -2.21607e-05 -8.67524e-06 0 -2.04582e-05 -8.31611e-06 0 -1.88351e-05 -7.95819e-06 0 -1.72898e-05 -7.60576e-06 0 -1.58201e-05 -7.26259e-06 0 -1.44228e-05 -6.93188e-06 0 -1.30944e-05 -6.61638e-06 0 -1.1831e-05 -6.31836e-06 0 -1.06283e-05 -6.0397e-06 0 -9.48158e-06 -5.78193e-06 0 -8.38617e-06 -5.54628e-06 0 -7.33711e-06 -5.3337e-06 0 -6.32936e-06 -5.14492e-06 0 -5.35783e-06 -4.9805e-06 0 -4.41737e-06 -4.84086e-06 0 -3.50281e-06 -4.7263e-06 0 -2.60898e-06 -4.63702e-06 0 -1.73068e-06 -4.57316e-06 0 -8.62753e-07 -4.53481e-06 0 -2.7216e-20 -4.52202e-06 0 -4.78835e-05 -1.32134e-05 0 -4.54775e-05 -1.33469e-05 0 -4.30701e-05 -1.33854e-05 0 -4.06785e-05 -1.33361e-05 0 -3.83183e-05 -1.32077e-05 0 -3.60026e-05 -1.30091e-05 0 -3.37431e-05 -1.27495e-05 0 -3.1549e-05 -1.24384e-05 0 -2.94279e-05 -1.20851e-05 0 -2.73854e-05 -1.16983e-05 0 -2.54255e-05 -1.12866e-05 0 -2.35505e-05 -1.08579e-05 0 -2.17616e-05 -1.04195e-05 0 -2.00584e-05 -9.97787e-06 0 -1.84396e-05 -9.5389e-06 0 -1.69031e-05 -9.10771e-06 0 -1.54459e-05 -8.68875e-06 0 -1.40643e-05 -8.28581e-06 0 -1.27545e-05 -7.90209e-06 0 -1.15118e-05 -7.54023e-06 0 -1.03316e-05 -7.20238e-06 0 -9.20886e-06 -6.89028e-06 0 -8.13859e-06 -6.6053e-06 0 -7.11555e-06 -6.34849e-06 0 -6.13449e-06 -6.12065e-06 0 -5.19015e-06 -5.92238e-06 0 -4.27723e-06 -5.7541e-06 0 -3.39047e-06 -5.61612e-06 0 -2.5246e-06 -5.50864e-06 0 -1.67438e-06 -5.43178e-06 0 -8.34586e-07 -5.38565e-06 0 -1.65444e-20 -5.37026e-06 0 -4.80761e-05 -1.56668e-05 0 -4.55617e-05 -1.58074e-05 0 -4.30539e-05 -1.58341e-05 0 -4.0571e-05 -1.57565e-05 0 -3.81292e-05 -1.55849e-05 0 -3.57422e-05 -1.53306e-05 0 -3.34217e-05 -1.50049e-05 0 -3.11771e-05 -1.46193e-05 0 -2.90154e-05 -1.41851e-05 0 -2.6942e-05 -1.37129e-05 0 -2.49601e-05 -1.3213e-05 0 -2.30716e-05 -1.26948e-05 0 -2.12765e-05 -1.21668e-05 0 -1.95739e-05 -1.16369e-05 0 -1.79617e-05 -1.11117e-05 0 -1.6437e-05 -1.05973e-05 0 -1.49959e-05 -1.00988e-05 0 -1.36342e-05 -9.62043e-06 0 -1.23472e-05 -9.16586e-06 0 -1.113e-05 -8.73801e-06 0 -9.97731e-06 -8.33925e-06 0 -8.88371e-06 -7.97147e-06 0 -7.84377e-06 -7.63611e-06 0 -6.852e-06 -7.33428e-06 0 -5.90292e-06 -7.06679e-06 0 -4.99104e-06 -6.83424e-06 0 -4.11094e-06 -6.63703e-06 0 -3.25723e-06 -6.47543e-06 0 -2.42457e-06 -6.34961e-06 0 -1.60765e-06 -6.25969e-06 0 -8.01211e-07 -6.20572e-06 0 0 -6.18772e-06 0 -4.82821e-05 -1.82426e-05 0 -4.5639e-05 -1.8382e-05 0 -4.30125e-05 -1.83875e-05 0 -4.04221e-05 -1.82709e-05 0 -3.78848e-05 -1.8045e-05 0 -3.5415e-05 -1.77235e-05 0 -3.30242e-05 -1.73202e-05 0 -3.07218e-05 -1.68488e-05 0 -2.85144e-05 -1.63229e-05 0 -2.64068e-05 -1.57552e-05 0 -2.44013e-05 -1.51576e-05 0 -2.24989e-05 -1.45412e-05 0 -2.06988e-05 -1.3916e-05 0 -1.8999e-05 -1.32909e-05 0 -1.73964e-05 -1.26736e-05 0 -1.5887e-05 -1.20709e-05 0 -1.44663e-05 -1.14885e-05 0 -1.31292e-05 -1.09312e-05 0 -1.18703e-05 -1.04028e-05 0 -1.06838e-05 -9.90661e-06 0 -9.56392e-06 -9.44508e-06 0 -8.50488e-06 -9.02016e-06 0 -7.50078e-06 -8.63334e-06 0 -6.54578e-06 -8.28568e-06 0 -5.63414e-06 -7.97798e-06 0 -4.76016e-06 -7.71074e-06 0 -3.91827e-06 -7.48433e-06 0 -3.10296e-06 -7.29894e-06 0 -2.30881e-06 -7.15469e-06 0 -1.53046e-06 -7.05164e-06 0 -7.62607e-07 -6.98981e-06 0 0 -6.9692e-06 0 -4.84932e-05 -2.0963e-05 0 -4.56993e-05 -2.10908e-05 0 -4.29345e-05 -2.10632e-05 0 -4.02197e-05 -2.08946e-05 0 -3.75726e-05 -2.06007e-05 0 -3.50082e-05 -2.01981e-05 0 -3.2538e-05 -1.97034e-05 0 -3.01711e-05 -1.91328e-05 0 -2.79135e-05 -1.85024e-05 0 -2.5769e-05 -1.78271e-05 0 -2.37392e-05 -1.71208e-05 0 -2.18237e-05 -1.63963e-05 0 -2.00206e-05 -1.5665e-05 0 -1.83267e-05 -1.49369e-05 0 -1.67376e-05 -1.42208e-05 0 -1.52483e-05 -1.35241e-05 0 -1.38532e-05 -1.2853e-05 0 -1.25461e-05 -1.22128e-05 0 -1.13208e-05 -1.16075e-05 0 -1.01708e-05 -1.10404e-05 0 -9.08974e-06 -1.05142e-05 0 -8.07113e-06 -1.00307e-05 0 -7.10868e-06 -9.59134e-06 0 -6.19622e-06 -9.1971e-06 0 -5.3277e-06 -8.84865e-06 0 -4.49722e-06 -8.5464e-06 0 -3.69904e-06 -8.29059e-06 0 -2.92755e-06 -8.0813e-06 0 -2.17725e-06 -7.91857e-06 0 -1.44276e-06 -7.80238e-06 0 -7.18764e-07 -7.73268e-06 0 0 -7.70945e-06 0 -4.86988e-05 -2.38523e-05 0 -4.57302e-05 -2.39556e-05 0 -4.2806e-05 -2.38801e-05 0 -3.99489e-05 -2.36436e-05 0 -3.71773e-05 -2.32653e-05 0 -3.45066e-05 -2.27649e-05 0 -3.19482e-05 -2.21622e-05 0 -2.95105e-05 -2.14766e-05 0 -2.7199e-05 -2.07267e-05 0 -2.50162e-05 -1.99298e-05 0 -2.29624e-05 -1.91021e-05 0 -2.10358e-05 -1.8258e-05 0 -1.92331e-05 -1.74105e-05 0 -1.75494e-05 -1.65707e-05 0 -1.5979e-05 -1.57483e-05 0 -1.45155e-05 -1.49514e-05 0 -1.3152e-05 -1.41866e-05 0 -1.18812e-05 -1.34593e-05 0 -1.0696e-05 -1.27738e-05 0 -9.58902e-06 -1.21334e-05 0 -8.55309e-06 -1.15405e-05 0 -7.58122e-06 -1.0997e-05 0 -6.66663e-06 -1.05042e-05 0 -5.80275e-06 -1.00627e-05 0 -4.98324e-06 -9.67309e-06 0 -4.202e-06 -9.33561e-06 0 -3.45314e-06 -9.0503e-06 0 -2.73095e-06 -8.8171e-06 0 -2.0299e-06 -8.63592e-06 0 -1.34458e-06 -8.50661e-06 0 -6.69693e-07 -8.42908e-06 0 0 -8.40324e-06 0 -4.88854e-05 -2.69373e-05 0 -4.57158e-05 -2.69998e-05 0 -4.261e-05 -2.68582e-05 0 -3.95918e-05 -2.65345e-05 0 -3.66807e-05 -2.60519e-05 0 -3.3892e-05 -2.54338e-05 0 -3.12371e-05 -2.47038e-05 0 -2.87235e-05 -2.38846e-05 0 -2.63554e-05 -2.29976e-05 0 -2.41341e-05 -2.20631e-05 0 -2.20582e-05 -2.10994e-05 0 -2.0124e-05 -2.01229e-05 0 -1.83263e-05 -1.91479e-05 0 -1.66586e-05 -1.81869e-05 0 -1.51134e-05 -1.72501e-05 0 -1.36826e-05 -1.63463e-05 0 -1.23579e-05 -1.54824e-05 0 -1.11308e-05 -1.46638e-05 0 -9.993e-06 -1.38949e-05 0 -8.93617e-06 -1.31786e-05 0 -7.95241e-06 -1.25174e-05 0 -7.03409e-06 -1.19127e-05 0 -6.17391e-06 -1.13655e-05 0 -5.36493e-06 -1.08763e-05 0 -4.60054e-06 -1.04454e-05 0 -3.87444e-06 -1.00726e-05 0 -3.18059e-06 -9.75789e-06 0 -2.51325e-06 -9.5009e-06 0 -1.86684e-06 -9.30138e-06 0 -1.23599e-06 -9.15908e-06 0 -6.1543e-07 -9.07379e-06 0 0 -9.04537e-06 0 -4.90358e-05 -3.02472e-05 0 -4.56371e-05 -3.02484e-05 0 -4.23256e-05 -3.00186e-05 0 -3.91269e-05 -2.95845e-05 0 -3.60609e-05 -2.89738e-05 0 -3.31431e-05 -2.82147e-05 0 -3.0384e-05 -2.73345e-05 0 -2.77903e-05 -2.63599e-05 0 -2.53647e-05 -2.53158e-05 0 -2.31064e-05 -2.42253e-05 0 -2.10119e-05 -2.31092e-05 0 -1.90754e-05 -2.19858e-05 0 -1.72894e-05 -2.08711e-05 0 -1.56452e-05 -1.97784e-05 0 -1.41333e-05 -1.87188e-05 0 -1.27436e-05 -1.77012e-05 0 -1.14662e-05 -1.67327e-05 0 -1.02913e-05 -1.58186e-05 0 -9.20902e-06 -1.49631e-05 0 -8.21031e-06 -1.41688e-05 0 -7.28635e-06 -1.34376e-05 0 -6.42886e-06 -1.27708e-05 0 -5.63005e-06 -1.21688e-05 0 -4.88259e-06 -1.16317e-05 0 -4.17961e-06 -1.11595e-05 0 -3.51465e-06 -1.07516e-05 0 -2.88158e-06 -1.04077e-05 0 -2.27463e-06 -1.01272e-05 0 -1.68825e-06 -9.90963e-06 0 -1.11711e-06 -9.75455e-06 0 -5.56048e-07 -9.66164e-06 0 0 -9.63069e-06 0 -4.9129e-05 -3.38144e-05 0 -4.54699e-05 -3.37286e-05 0 -4.19277e-05 -3.33834e-05 0 -3.85284e-05 -3.28109e-05 0 -3.52923e-05 -3.20443e-05 0 -3.22346e-05 -3.11164e-05 0 -2.9365e-05 -3.00595e-05 0 -2.66886e-05 -2.89044e-05 0 -2.42061e-05 -2.76801e-05 0 -2.19144e-05 -2.64127e-05 0 -1.98072e-05 -2.51258e-05 0 -1.78761e-05 -2.38398e-05 0 -1.61107e-05 -2.25719e-05 0 -1.44996e-05 -2.13365e-05 0 -1.30308e-05 -2.0145e-05 0 -1.16924e-05 -1.90067e-05 0 -1.04723e-05 -1.79282e-05 0 -9.35898e-06 -1.69148e-05 0 -8.34159e-06 -1.59698e-05 0 -7.40978e-06 -1.50956e-05 0 -6.55391e-06 -1.42935e-05 0 -5.76504e-06 -1.3564e-05 0 -5.03491e-06 -1.2907e-05 0 -4.35583e-06 -1.23223e-05 0 -3.72073e-06 -1.18091e-05 0 -3.12301e-06 -1.13667e-05 0 -2.55651e-06 -1.09941e-05 0 -2.01547e-06 -1.06906e-05 0 -1.49443e-06 -1.04554e-05 0 -9.8817e-07 -1.02879e-05 0 -4.91662e-07 -1.01875e-05 0 8.45873e-21 -1.01541e-05 0 -4.91359e-05 -3.76726e-05 0 -4.51851e-05 -3.7469e-05 0 -4.13859e-05 -3.69756e-05 0 -3.77656e-05 -3.62316e-05 0 -3.43445e-05 -3.52758e-05 0 -3.11371e-05 -3.41468e-05 0 -2.8152e-05 -3.28823e-05 0 -2.53924e-05 -3.15178e-05 0 -2.28562e-05 -3.00868e-05 0 -2.05374e-05 -2.86191e-05 0 -1.84263e-05 -2.7141e-05 0 -1.65109e-05 -2.5675e-05 0 -1.47775e-05 -2.42397e-05 0 -1.32115e-05 -2.28501e-05 0 -1.17982e-05 -2.15179e-05 0 -1.05228e-05 -2.02519e-05 0 -9.37152e-06 -1.90585e-05 0 -8.33094e-06 -1.79422e-05 0 -7.38871e-06 -1.69056e-05 0 -6.53341e-06 -1.59502e-05 0 -5.75457e-06 -1.50766e-05 0 -5.0426e-06 -1.42845e-05 0 -4.38879e-06 -1.35731e-05 0 -3.7852e-06 -1.29414e-05 0 -3.22455e-06 -1.23881e-05 0 -2.7002e-06 -1.19119e-05 0 -2.20604e-06 -1.15115e-05 0 -1.73637e-06 -1.11857e-05 0 -1.28587e-06 -1.09335e-05 0 -8.495e-07 -1.0754e-05 0 -4.22441e-07 -1.06466e-05 0 7.51589e-20 -1.06108e-05 0 -4.9025e-05 -4.18612e-05 0 -4.47469e-05 -4.1499e-05 0 -4.06643e-05 -4.08185e-05 0 -3.68026e-05 -3.98639e-05 0 -3.31821e-05 -3.86803e-05 0 -2.98164e-05 -3.73126e-05 0 -2.67128e-05 -3.58045e-05 0 -2.38719e-05 -3.41974e-05 0 -2.12884e-05 -3.25296e-05 0 -1.89522e-05 -3.08352e-05 0 -1.68494e-05 -2.91435e-05 0 -1.49636e-05 -2.7479e-05 0 -1.32768e-05 -2.58614e-05 0 -1.17709e-05 -2.43059e-05 0 -1.04275e-05 -2.28241e-05 0 -9.22945e-06 -2.14242e-05 0 -8.16021e-06 -2.01116e-05 0 -7.20469e-06 -1.88896e-05 0 -6.34905e-06 -1.776e-05 0 -5.58075e-06 -1.67231e-05 0 -4.88849e-06 -1.57782e-05 0 -4.26213e-06 -1.49242e-05 0 -3.69259e-06 -1.41594e-05 0 -3.17171e-06 -1.34819e-05 0 -2.69215e-06 -1.28899e-05 0 -2.2473e-06 -1.23813e-05 0 -1.83113e-06 -1.19543e-05 0 -1.43813e-06 -1.16073e-05 0 -1.0632e-06 -1.1339e-05 0 -7.01547e-07 -1.11481e-05 0 -3.48612e-07 -1.1034e-05 0 1.38755e-20 -1.0996e-05 0 -4.87478e-05 -4.64119e-05 0 -4.41133e-05 -4.58486e-05 0 -3.97206e-05 -4.49355e-05 0 -3.55974e-05 -4.37251e-05 0 -3.17635e-05 -4.22689e-05 0 -2.82325e-05 -4.06185e-05 0 -2.50098e-05 -3.8825e-05 0 -2.20931e-05 -3.69368e-05 0 -1.94727e-05 -3.49982e-05 0 -1.71332e-05 -3.30477e-05 0 -1.50553e-05 -3.11181e-05 0 -1.3217e-05 -2.92354e-05 0 -1.15954e-05 -2.74202e-05 0 -1.01677e-05 -2.56875e-05 0 -8.91189e-06 -2.4048e-05 0 -7.80741e-06 -2.25087e-05 0 -6.83541e-06 -2.10736e-05 0 -5.97879e-06 -1.97446e-05 0 -5.22227e-06 -1.85216e-05 0 -4.55224e-06 -1.74037e-05 0 -3.95669e-06 -1.63888e-05 0 -3.42501e-06 -1.54746e-05 0 -2.94787e-06 -1.46583e-05 0 -2.51701e-06 -1.39372e-05 0 -2.12515e-06 -1.33083e-05 0 -1.76579e-06 -1.27691e-05 0 -1.43312e-06 -1.23171e-05 0 -1.12189e-06 -1.19504e-05 0 -8.27305e-07 -1.1667e-05 0 -5.44898e-07 -1.14656e-05 0 -2.70474e-07 -1.13452e-05 0 0 -1.13052e-05 0 -4.82629e-05 -5.13716e-05 0 -4.32348e-05 -5.05461e-05 0 -3.85069e-05 -4.93497e-05 0 -3.41015e-05 -4.78323e-05 0 -3.00409e-05 -4.60515e-05 0 -2.63389e-05 -4.40672e-05 0 -2.29998e-05 -4.19396e-05 0 -2.0017e-05 -3.97259e-05 0 -1.73753e-05 -3.74775e-05 0 -1.50523e-05 -3.52385e-05 0 -1.30214e-05 -3.30446e-05 0 -1.12538e-05 -3.09235e-05 0 -9.72035e-06 -2.88957e-05 0 -8.3929e-06 -2.69752e-05 0 -7.24518e-06 -2.51712e-05 0 -6.25321e-06 -2.34886e-05 0 -5.39552e-06 -2.19294e-05 0 -4.65309e-06 -2.04932e-05 0 -4.00925e-06 -1.9178e-05 0 -3.44949e-06 -1.79811e-05 0 -2.96123e-06 -1.68988e-05 0 -2.53355e-06 -1.59272e-05 0 -2.15702e-06 -1.50622e-05 0 -1.82346e-06 -1.43001e-05 0 -1.52575e-06 -1.3637e-05 0 -1.25768e-06 -1.30696e-05 0 -1.01374e-06 -1.25949e-05 0 -7.89073e-07 -1.22101e-05 0 -5.79267e-07 -1.19131e-05 0 -3.80295e-07 -1.17022e-05 0 -1.884e-07 -1.15762e-05 0 0 -1.15343e-05 0 -4.74951e-05 -5.67448e-05 0 -4.20602e-05 -5.56197e-05 0 -3.69696e-05 -5.40854e-05 0 -3.22598e-05 -5.22035e-05 0 -2.79577e-05 -5.00376e-05 0 -2.40808e-05 -4.76587e-05 0 -2.06317e-05 -4.51393e-05 0 -1.75987e-05 -4.25483e-05 0 -1.49584e-05 -3.99461e-05 0 -1.2679e-05 -3.73828e-05 0 -1.07243e-05 -3.4897e-05 0 -9.05666e-06 -3.25173e-05 0 -7.63957e-06 -3.02629e-05 0 -6.43875e-06 -2.81459e-05 0 -5.42313e-06 -2.61725e-05 0 -4.56516e-06 -2.43449e-05 0 -3.84077e-06 -2.26619e-05 0 -3.22915e-06 -2.11205e-05 0 -2.71248e-06 -1.97162e-05 0 -2.27554e-06 -1.84439e-05 0 -1.90542e-06 -1.7298e-05 0 -1.59114e-06 -1.6273e-05 0 -1.32338e-06 -1.53634e-05 0 -1.09421e-06 -1.4564e-05 0 -8.96858e-07 -1.38702e-05 0 -7.25525e-07 -1.32776e-05 0 -5.75186e-07 -1.27827e-05 0 -4.41452e-07 -1.23821e-05 0 -3.20439e-07 -1.20732e-05 0 -2.08644e-07 -1.18541e-05 0 -1.02846e-07 -1.17232e-05 0 1.8653e-20 -1.16796e-05 0 -4.64223e-05 -6.26005e-05 0 -4.05352e-05 -6.10948e-05 0 -3.50521e-05 -5.91704e-05 0 -3.0008e-05 -5.68601e-05 0 -2.5447e-05 -5.42372e-05 0 -2.13922e-05 -5.13898e-05 0 -1.78454e-05 -4.84092e-05 0 -1.47865e-05 -4.538e-05 0 -1.21799e-05 -4.23741e-05 0 -9.98077e-06 -3.94477e-05 0 -8.14012e-06 -3.6642e-05 0 -6.60941e-06 -3.39844e-05 0 -5.34308e-06 -3.14918e-05 0 -4.29998e-06 -2.91722e-05 0 -3.44403e-06 -2.70277e-05 0 -2.7441e-06 -2.50561e-05 0 -2.17375e-06 -2.32526e-05 0 -1.71071e-06 -2.16105e-05 0 -1.33635e-06 -2.01223e-05 0 -1.03511e-06 -1.87802e-05 0 -7.94055e-07 -1.75764e-05 0 -6.02447e-07 -1.65035e-05 0 -4.5134e-07 -1.55543e-05 0 -3.3329e-07 -1.47224e-05 0 -2.42078e-07 -1.40021e-05 0 -1.72486e-07 -1.33882e-05 0 -1.20105e-07 -1.28762e-05 0 -8.11747e-08 -1.24624e-05 0 -5.24387e-08 -1.21437e-05 0 -3.10286e-08 -1.19178e-05 0 -1.43528e-08 -1.17829e-05 0 8.1986e-20 -1.1738e-05 0 -4.4956e-05 -6.88521e-05 0 -3.86226e-05 -6.70113e-05 0 -3.26922e-05 -6.46456e-05 0 -2.72709e-05 -6.18315e-05 0 -2.24253e-05 -5.86617e-05 0 -1.81924e-05 -5.5253e-05 0 -1.45685e-05 -5.17255e-05 0 -1.15203e-05 -4.81859e-05 0 -8.99344e-06 -4.47198e-05 0 -6.92414e-06 -4.13897e-05 0 -5.24657e-06 -3.82368e-05 0 -3.89857e-06 -3.52854e-05 0 -2.82419e-06 -3.25466e-05 0 -1.97494e-06 -3.00226e-05 0 -1.30969e-06 -2.77094e-05 0 -7.94149e-07 -2.5599e-05 0 -4.00025e-07 -2.36817e-05 0 -1.04126e-07 -2.19465e-05 0 1.12469e-07 -2.03824e-05 0 2.65158e-07 -1.89783e-05 0 3.66449e-07 -1.77241e-05 0 4.26498e-07 -1.66103e-05 0 4.53549e-07 -1.5628e-05 0 4.54298e-07 -1.47695e-05 0 4.34188e-07 -1.40278e-05 0 3.97657e-07 -1.33969e-05 0 3.4834e-07 -1.28716e-05 0 2.89233e-07 -1.24477e-05 0 2.22841e-07 -1.21215e-05 0 1.51292e-07 -1.18905e-05 0 7.64483e-08 -1.17526e-05 0 6.98231e-21 -1.17068e-05 0 -4.32057e-05 -7.57212e-05 0 -3.62872e-05 -7.34284e-05 0 -2.98244e-05 -7.05762e-05 0 -2.39497e-05 -6.71635e-05 0 -1.87856e-05 -6.33253e-05 0 -1.43776e-05 -5.92327e-05 0 -1.07128e-05 -5.50501e-05 0 -7.73098e-06 -5.09143e-05 0 -5.34932e-06 -4.69261e-05 0 -3.47636e-06 -4.31515e-05 0 -2.0246e-06 -3.96281e-05 0 -9.15353e-07 -3.63721e-05 0 -8.14539e-08 -3.33857e-05 0 5.32961e-07 -3.06617e-05 0 9.73357e-07 -2.81878e-05 0 1.27636e-06 -2.59488e-05 0 1.47121e-06 -2.39287e-05 0 1.58118e-06 -2.21117e-05 0 1.62471e-06 -2.04824e-05 0 1.61643e-06 -1.90267e-05 0 1.56788e-06 -1.77317e-05 0 1.48818e-06 -1.65856e-05 0 1.38453e-06 -1.55781e-05 0 1.26258e-06 -1.46998e-05 0 1.12674e-06 -1.39428e-05 0 9.80481e-07 -1.33001e-05 0 8.26492e-07 -1.27659e-05 0 6.66865e-07 -1.23353e-05 0 5.03232e-07 -1.20044e-05 0 3.36878e-07 -1.17702e-05 0 1.6884e-07 -1.16305e-05 0 0 -1.15841e-05 0 -4.11071e-05 -8.29169e-05 0 -3.35336e-05 -8.04889e-05 0 -2.63521e-05 -7.70841e-05 0 -1.99093e-05 -7.29237e-05 0 -1.43769e-05 -6.82424e-05 0 -9.8133e-06 -6.32975e-05 0 -6.16945e-06 -5.83215e-05 0 -3.3409e-06 -5.34893e-05 0 -1.1969e-06 -4.89139e-05 0 3.90845e-07 -4.46588e-05 0 1.53799e-06 -4.07494e-05 0 2.34123e-06 -3.71879e-05 0 2.87905e-06 -3.39615e-05 0 3.21338e-06 -3.10504e-05 0 3.39257e-06 -2.84311e-05 0 3.45401e-06 -2.60796e-05 0 3.42653e-06 -2.39728e-05 0 3.33227e-06 -2.20892e-05 0 3.18826e-06 -2.0409e-05 0 3.00756e-06 -1.89147e-05 0 2.80013e-06 -1.75905e-05 0 2.57357e-06 -1.64227e-05 0 2.33362e-06 -1.5399e-05 0 2.08457e-06 -1.4509e-05 0 1.82959e-06 -1.37436e-05 0 1.57094e-06 -1.30951e-05 0 1.31021e-06 -1.25568e-05 0 1.04845e-06 -1.21235e-05 0 7.86305e-07 -1.17908e-05 0 5.24121e-07 -1.15555e-05 0 2.62022e-07 -1.14152e-05 0 0 -1.13686e-05 0 -3.90685e-05 -9.14105e-05 0 -3.03205e-05 -8.84424e-05 0 -2.21319e-05 -8.43566e-05 0 -1.49309e-05 -7.92151e-05 0 -8.98545e-06 -7.34162e-05 0 -4.31742e-06 -6.73829e-05 0 -8.08475e-07 -6.14395e-05 0 1.73405e-06 -5.57984e-05 0 3.50881e-06 -5.05759e-05 0 4.69569e-06 -4.58159e-05 0 5.44122e-06 -4.15207e-05 0 5.86053e-06 -3.76671e-05 0 6.04073e-06 -3.42218e-05 0 6.04713e-06 -3.11472e-05 0 5.92811e-06 -2.84067e-05 0 5.7195e-06 -2.5966e-05 0 5.44776e-06 -2.37941e-05 0 5.13246e-06 -2.18635e-05 0 4.78801e-06 -2.01501e-05 0 4.42502e-06 -1.86328e-05 0 4.05121e-06 -1.72933e-05 0 3.67211e-06 -1.61158e-05 0 3.29162e-06 -1.50866e-05 0 2.91237e-06 -1.41939e-05 0 2.53599e-06 -1.34279e-05 0 2.16338e-06 -1.27799e-05 0 1.79488e-06 -1.22429e-05 0 1.43036e-06 -1.18111e-05 0 1.06938e-06 -1.14799e-05 0 7.11255e-07 -1.12459e-05 0 3.55117e-07 -1.11064e-05 0 0 -1.10601e-05 0 -3.69973e-05 -0.000100331 0 -2.65983e-05 -9.77747e-05 0 -1.68652e-05 -9.2737e-05 0 -8.66458e-06 -8.61487e-05 0 -2.28728e-06 -7.88106e-05 0 2.34537e-06 -7.13592e-05 0 5.52143e-06 -6.42372e-05 0 7.57171e-06 -5.76787e-05 0 8.79736e-06 -5.17673e-05 0 9.43611e-06 -4.65053e-05 0 9.66621e-06 -4.18482e-05 0 9.6152e-06 -3.77378e-05 0 9.37348e-06 -3.41112e-05 0 9.00421e-06 -3.09104e-05 0 8.55172e-06 -2.80832e-05 0 8.04698e-06 -2.55842e-05 0 7.51173e-06 -2.33746e-05 0 6.96116e-06 -2.14212e-05 0 6.40584e-06 -1.96955e-05 0 5.85295e-06 -1.81735e-05 0 5.30729e-06 -1.68345e-05 0 4.77183e-06 -1.56609e-05 0 4.24823e-06 -1.46379e-05 0 3.73716e-06 -1.37526e-05 0 3.23851e-06 -1.29942e-05 0 2.75166e-06 -1.23539e-05 0 2.27552e-06 -1.18239e-05 0 1.8087e-06 -1.13983e-05 0 1.34959e-06 -1.10722e-05 0 8.96383e-07 -1.08418e-05 0 4.47182e-07 -1.07046e-05 0 0 -1.0659e-05 0 -3.55299e-05 -0.000113239 0 -2.2066e-05 -0.000109323 0 -9.98967e-06 -0.000102626 0 -5.03291e-07 -9.38405e-05 0 6.18417e-06 -8.42731e-05 0 1.04729e-05 -7.49698e-05 0 1.29687e-05 -6.64502e-05 0 1.4224e-05 -5.88954e-05 0 1.46619e-05 -5.23047e-05 0 1.45771e-05 -4.65858e-05 0 1.4166e-05 -4.16297e-05 0 1.35563e-05 -3.73249e-05 0 1.28306e-05 -3.35762e-05 0 1.20424e-05 -3.03011e-05 0 1.12261e-05 -2.74325e-05 0 1.04039e-05 -2.4914e-05 0 9.59026e-06 -2.26999e-05 0 8.79409e-06 -2.07518e-05 0 8.02082e-06 -1.90379e-05 0 7.27337e-06 -1.75317e-05 0 6.55296e-06 -1.62107e-05 0 5.85954e-06 -1.5056e-05 0 5.19221e-06 -1.40517e-05 0 4.54943e-06 -1.31845e-05 0 3.92919e-06 -1.24429e-05 0 3.32917e-06 -1.18177e-05 0 2.74679e-06 -1.13009e-05 0 2.1793e-06 -1.08863e-05 0 1.62386e-06 -1.05688e-05 0 1.0775e-06 -1.03447e-05 0 5.37223e-07 -1.02113e-05 0 0 -1.0167e-05 0 -3.47567e-05 -0.000127179 0 -1.59663e-05 -0.0001244 0 -3.63286e-07 -0.000114767 0 1.05698e-05 -0.000102171 0 1.70744e-05 -8.94007e-05 0 2.03836e-05 -7.77417e-05 0 2.16313e-05 -6.76633e-05 0 2.16726e-05 -5.9141e-05 0 2.10327e-05 -5.19632e-05 0 2.00336e-05 -4.59072e-05 0 1.88569e-05 -4.07604e-05 0 1.76086e-05 -3.63596e-05 0 1.63473e-05 -3.25693e-05 0 1.51067e-05 -2.92878e-05 0 1.39049e-05 -2.64329e-05 0 1.27515e-05 -2.3941e-05 0 1.16507e-05 -2.17601e-05 0 1.06037e-05 -1.98491e-05 0 9.6097e-06 -1.81735e-05 0 8.66657e-06 -1.67053e-05 0 7.77148e-06 -1.5421e-05 0 6.92105e-06 -1.4301e-05 0 6.11156e-06 -1.33289e-05 0 5.33909e-06 -1.2491e-05 0 4.59962e-06 -1.17756e-05 0 3.88901e-06 -1.11732e-05 0 3.20314e-06 -1.06759e-05 0 2.53786e-06 -1.02773e-05 0 1.88903e-06 -9.97235e-06 0 1.25252e-06 -9.75717e-06 0 6.24211e-07 -9.62911e-06 0 0 -9.5866e-06 0 -3.4027e-05 -0.000154257 0 -6.64305e-06 -0.000145706 0 1.44346e-05 -0.000129396 0 2.6131e-05 -0.000110597 0 3.11792e-05 -9.32334e-05 0 3.22724e-05 -7.88575e-05 0 3.14611e-05 -6.7306e-05 0 2.97607e-05 -5.80296e-05 0 2.77448e-05 -5.05132e-05 0 2.56533e-05 -4.43202e-05 0 2.36133e-05 -3.9155e-05 0 2.16692e-05 -3.47863e-05 0 1.98413e-05 -3.10587e-05 0 1.81308e-05 -2.78499e-05 0 1.65347e-05 -2.5073e-05 0 1.50459e-05 -2.26581e-05 0 1.36571e-05 -2.05521e-05 0 1.23602e-05 -1.87117e-05 0 1.11476e-05 -1.71024e-05 0 1.00117e-05 -1.56955e-05 0 8.94531e-06 -1.44675e-05 0 7.94159e-06 -1.33986e-05 0 6.99387e-06 -1.24724e-05 0 6.09577e-06 -1.16752e-05 0 5.24116e-06 -1.09956e-05 0 4.42412e-06 -1.04239e-05 0 3.63891e-06 -9.95251e-06 0 2.87998e-06 -9.57494e-06 0 2.14189e-06 -9.28624e-06 0 1.41934e-06 -9.08264e-06 0 7.07101e-07 -8.96152e-06 0 0 -8.92133e-06 0 -3.75657e-05 -0.000187103 0 1.19127e-05 -0.000176658 0 3.88534e-05 -0.000146701 0 4.85608e-05 -0.000116757 0 4.89052e-05 -9.39175e-05 0 4.6002e-05 -7.71025e-05 0 4.20491e-05 -6.46636e-05 0 3.81464e-05 -5.51988e-05 0 3.44972e-05 -4.77432e-05 0 3.12188e-05 -4.17309e-05 0 2.82651e-05 -3.67558e-05 0 2.56136e-05 -3.25834e-05 0 2.32157e-05 -2.90312e-05 0 2.10407e-05 -2.59853e-05 0 1.90567e-05 -2.33526e-05 0 1.72406e-05 -2.10686e-05 0 1.55715e-05 -1.90795e-05 0 1.40325e-05 -1.73446e-05 0 1.26087e-05 -1.58298e-05 0 1.12873e-05 -1.45077e-05 0 1.00566e-05 -1.33554e-05 0 8.90618e-06 -1.23539e-05 0 7.8266e-06 -1.14872e-05 0 6.809e-06 -1.07423e-05 0 5.84518e-06 -1.01078e-05 0 4.92742e-06 -9.57473e-06 0 4.04844e-06 -9.13545e-06 0 3.20127e-06 -8.78387e-06 0 2.37923e-06 -8.51521e-06 0 1.57586e-06 -8.32582e-06 0 7.84855e-07 -8.21319e-06 0 0 -8.17581e-06 0 -2.96933e-05 -0.000274072 0 5.30774e-05 -0.000225699 0 8.24847e-05 -0.00015957 0 7.889e-05 -0.000115566 0 6.98098e-05 -8.83561e-05 0 6.02917e-05 -7.106e-05 0 5.26467e-05 -5.91601e-05 0 4.61626e-05 -5.03796e-05 0 4.09139e-05 -4.35925e-05 0 3.6432e-05 -3.81051e-05 0 3.26282e-05 -3.35805e-05 0 2.92983e-05 -2.97597e-05 0 2.6372e-05 -2.65081e-05 0 2.37585e-05 -2.37077e-05 0 2.14125e-05 -2.12878e-05 0 1.92883e-05 -1.91848e-05 0 1.73564e-05 -1.73546e-05 0 1.55898e-05 -1.5758e-05 0 1.39678e-05 -1.43653e-05 0 1.24723e-05 -1.31506e-05 0 1.10876e-05 -1.2093e-05 0 9.8001e-06 -1.11747e-05 0 8.59745e-06 -1.03809e-05 0 7.46854e-06 -9.69907e-06 0 6.4032e-06 -9.11898e-06 0 5.39201e-06 -8.63194e-06 0 4.42619e-06 -8.23088e-06 0 3.49746e-06 -7.9101e-06 0 2.59793e-06 -7.66508e-06 0 1.72005e-06 -7.49242e-06 0 8.56466e-07 -7.38976e-06 0 0 -7.3557e-06 0 -6.32757e-05 -0.000504568 0 0.000184493 -0.000278911 0 0.000146964 -0.000145706 0 0.000115641 -9.72654e-05 0 8.82598e-05 -7.35639e-05 0 7.38186e-05 -5.99833e-05 0 6.13551e-05 -5.06503e-05 0 5.33396e-05 -4.36957e-05 0 4.6364e-05 -3.81459e-05 0 4.10888e-05 -3.35655e-05 0 3.64646e-05 -2.96955e-05 0 3.2615e-05 -2.63861e-05 0 2.92024e-05 -2.35309e-05 0 2.62191e-05 -2.10572e-05 0 2.35437e-05 -1.89056e-05 0 2.11468e-05 -1.70315e-05 0 1.89756e-05 -1.53962e-05 0 1.70034e-05 -1.3969e-05 0 1.52007e-05 -1.27233e-05 0 1.35468e-05 -1.16372e-05 0 1.20218e-05 -1.06918e-05 0 1.06093e-05 -9.87144e-06 0 9.29469e-06 -9.16274e-06 0 8.06463e-06 -8.55451e-06 0 6.90716e-06 -8.03733e-06 0 5.81131e-06 -7.60339e-06 0 4.76692e-06 -7.24626e-06 0 3.76449e-06 -6.96074e-06 0 2.79502e-06 -6.74275e-06 0 1.84995e-06 -6.58918e-06 0 9.20973e-07 -6.49789e-06 0 0 -6.4676e-06 0 0.000636055 -0.00203466 0 0.000397295 2.40859e-05 0 0.000253744 -9.43513e-05 0 0.000106179 -5.03559e-05 0 0.000117915 -5.2675e-05 0 7.2614e-05 -4.45138e-05 0 7.27545e-05 -3.98429e-05 0 5.58152e-05 -3.58961e-05 0 5.21186e-05 -3.15584e-05 0 4.40931e-05 -2.84763e-05 0 4.00678e-05 -2.51625e-05 0 3.52338e-05 -2.26215e-05 0 3.17447e-05 -2.01402e-05 0 2.83076e-05 -1.81064e-05 0 2.54319e-05 -1.6236e-05 0 2.27653e-05 -1.46465e-05 0 2.04048e-05 -1.32271e-05 0 1.82447e-05 -1.2001e-05 0 1.62873e-05 -1.09213e-05 0 1.44921e-05 -9.98399e-06 0 1.2844e-05 -9.16567e-06 0 1.13211e-05 -8.45704e-06 0 9.9077e-06 -7.8444e-06 0 8.58836e-06 -7.3192e-06 0 7.3497e-06 -6.87265e-06 0 6.17932e-06 -6.49824e-06 0 5.06583e-06 -6.1902e-06 0 3.99865e-06 -5.94404e-06 0 2.9678e-06 -5.75614e-06 0 1.9638e-06 -5.62381e-06 0 9.775e-07 -5.54516e-06 0 0 -5.51906e-06 0 </DataArray> 
</PointData> 
<Points> 
<DataArray type="Float32" NumberOfComponents="3"> 