<?xml version="1.0"?> 
<VTKFile type="StructuredGrid" version="0.1"> 
<StructuredGrid WholeExtent="0 31 0 31 0 0"> 
<Piece Extent="0 31 0 31 0 0"> 
<PointData>
<DataArray type="Float32" Name="B" format="ascii" NumberOfComponents="3"> 
-0.0179607 -0.00574485 0 -0.017729 0.00116913 0 -0.0175802 -0.000156572 0 -0.015439 5.94601e-05 0 -0.0166551 -2.86244e-05 0 -0.0164253 -1.23217e-05 0 -0.0170518 -1.19233e-05 0 -0.0172028 -1.4047e-05 0 -0.0175158 -6.5509e-06 0 -0.0176606 -7.85484e-06 0 -0.0178079 -3.25637e-06 0 -0.017888 -3.37969e-06 0 -0.0179496 -1.26573e-06 0 -0.0179829 -1.12104e-06 0 -0.0180037 -2.91472e-07 0 -0.0180131 -2.02289e-07 0 -0.0180164 7.88393e-08 0 -0.0180156 8.19998e-08 0 -0.0180119 1.80784e-07 0 -0.0180072 1.07541e-07 0 -0.0179996 2.17801e-07 0 -0.0179944 1.08166e-08 0 -0.0179811 2.83209e-07 0 -0.0179817 -2.13927e-07 0 -0.0179528 2.39832e-07 0 -0.0179823 -4.40175e-07 0 -0.0179015 -1.26402e-06 0 -0.0180424 1.31117e-06 0 -0.0177877 -1.34742e-05 0 -0.0182928 2.5221e-05 0 -0.017938 -0.000206185 0 -0.00907665 0.00199272 0 0.00313093 -0.00180577 0 0.00235682 0.000204116 0 0.00225466 -6.08362e-05 0 0.00213278 1.0942e-05 0 0.00221997 -6.51751e-06 0 0.00224055 -1.69094e-06 0 0.00229967 -8.60226e-07 0 0.00233584 -1.96425e-06 0 0.00237073 -1.54254e-07 0 0.00239525 -1.04361e-06 0 0.00241347 -6.30081e-08 0 0.00242606 -4.39298e-07 0 0.00243429 -2.40821e-08 0 0.00243955 -1.55309e-07 0 0.00244258 2.97685e-09 0 0.00244418 -4.0309e-08 0 0.00244477 2.06704e-08 0 0.00244473 1.84482e-09 0 0.00244417 3.80406e-08 0 0.00244339 1.29314e-08 0 0.00244209 6.74938e-08 0 0.00244099 1.20926e-09 0 0.00243873 1.21355e-07 0 0.00243805 -3.28284e-08 0 0.00243354 1.67809e-07 0 0.00243596 4.5807e-08 0 0.00242433 -2.1245e-07 0 0.00243968 1.44371e-06 0 0.0024031 -4.2322e-06 0 0.00246012 1.59588e-05 0 0.00239008 -7.51437e-05 0 0.00102673 0.000938473 0 0.000281983 0.00045962 0 -0.00042787 1.91547e-05 0 -0.000510333 -2.85183e-05 0 -0.000414128 -9.81116e-07 0 -0.000468411 -1.84549e-06 0 -0.000448817 1.1159e-08 0 -0.000472514 9.15004e-07 0 -0.000472922 3.36828e-07 0 -0.000483493 9.14469e-07 0 -0.000486644 3.37048e-07 0 -0.000491379 5.54678e-07 0 -0.000493531 2.21272e-07 0 -0.000495528 2.75238e-07 0 -0.000496541 1.10983e-07 0 -0.000497267 1.14222e-07 0 -0.000497603 3.89406e-08 0 -0.00049776 3.33009e-08 0 -0.000497767 -2.38028e-09 0 -0.000497659 -4.59209e-09 0 -0.000497517 -2.83831e-08 0 -0.000497225 -2.16873e-08 0 -0.000497062 -5.12467e-08 0 -0.000496474 -2.8489e-08 0 -0.000496591 -7.61881e-08 0 -0.000495148 -3.50887e-08 0 -0.000496686 -8.0812e-08 0 -0.000492249 -1.05796e-07 0 -0.000499345 1.36349e-07 0 -0.00048431 -7.52038e-07 0 -0.000508198 2.23858e-06 0 -0.000475511 -1.72168e-05 0 4.48432e-07 9.49052e-05 0 0.000136635 0.000384707 0 0.000163269 4.55621e-05 0 0.000117157 -1.95948e-05 0 0.000120888 -3.1244e-06 0 0.000119364 -4.27965e-06 0 0.000125534 -2.35724e-06 0 0.0001272 -1.45332e-06 0 0.000130561 -1.31151e-06 0 0.000132062 -5.6704e-07 0 0.000133741 -5.90654e-07 0 0.000134605 -2.00017e-07 0 0.000135358 -2.1767e-07 0 0.000135749 -4.89495e-08 0 0.000136038 -5.876e-08 0 0.000136175 4.93695e-09 0 0.000136254 -1.54704e-09 0 0.000136272 2.17272e-08 0 0.000136261 1.64387e-08 0 0.000136224 3.06492e-08 0 0.000136172 2.19726e-08 0 0.000136098 4.54871e-08 0 0.000136023 2.14209e-08 0 0.000135899 7.24266e-08 0 0.000135834 1.36217e-08 0 0.0001356 9.84611e-08 0 0.000135665 4.00318e-08 0 0.000135142 -2.02958e-08 0 0.000135704 5.05238e-07 0 0.000134564 -1.4297e-06 0 0.000136956 4.61926e-06 0 0.000133462 -2.82182e-05 0 7.67735e-05 0.000371054 0 -3.65212e-05 0.000771753 0 -1.33977e-05 -7.40646e-06 0 -3.58707e-05 -7.75219e-06 0 -3.10207e-05 -5.94309e-06 0 -3.66818e-05 -2.41723e-06 0 -3.39721e-05 -1.49141e-06 0 -3.57378e-05 -3.40263e-07 0 -3.53548e-05 -2.77745e-07 0 -3.61473e-05 1.50874e-07 0 -3.62798e-05 5.16094e-08 0 -3.6665e-05 1.95741e-07 0 -3.68143e-05 1.00995e-07 0 -3.69925e-05 1.33862e-07 0 -3.70772e-05 7.25998e-08 0 -3.71497e-05 7.11952e-08 0 -3.71842e-05 3.72849e-08 0 -3.72054e-05 3.065e-08 0 -3.72125e-05 1.29021e-08 0 -3.72085e-05 9.83228e-09 0 -3.72049e-05 -1.2786e-09 0 -3.71823e-05 2.55012e-09 0 -3.71842e-05 -1.07407e-08 0 -3.71288e-05 4.36658e-09 0 -3.71725e-05 -2.12968e-08 0 -3.70211e-05 9.4481e-09 0 -3.72203e-05 -3.21573e-08 0 -3.67366e-05 -1.15503e-08 0 -3.74513e-05 -1.25177e-08 0 -3.56837e-05 -3.6975e-07 0 -3.79408e-05 -2.58216e-07 0 -3.68844e-05 -5.02891e-06 0 2.55866e-05 5.02695e-05 0 -4.40085e-05 0.000586077 0 1.98757e-05 7.39403e-06 0 9.28138e-06 -4.40649e-06 0 5.70171e-06 -5.1083e-06 0 3.73861e-06 -3.31588e-06 0 4.60279e-06 -2.28148e-06 0 4.59243e-06 -1.15583e-06 0 5.07847e-06 -8.69862e-07 0 5.11126e-06 -3.3554e-07 0 5.2854e-06 -2.72813e-07 0 5.2879e-06 -4.72559e-08 0 5.3365e-06 -4.82739e-08 0 5.32796e-06 3.10911e-08 0 5.33505e-06 1.6166e-08 0 5.32588e-06 3.75381e-08 0 5.32239e-06 2.43133e-08 0 5.3155e-06 2.80914e-08 0 5.31054e-06 1.96954e-08 0 5.30589e-06 2.20631e-08 0 5.30018e-06 1.64016e-08 0 5.29795e-06 2.46374e-08 0 5.28772e-06 1.56365e-08 0 5.29276e-06 3.59057e-08 0 5.26751e-06 1.33984e-08 0 5.30134e-06 4.61867e-08 0 5.23782e-06 1.68869e-08 0 5.37892e-06 -1.80951e-08 0 5.2515e-06 1.25386e-07 0 5.7699e-06 -7.79003e-07 0 5.22106e-06 1.18297e-06 0 4.19073e-06 -9.22392e-06 0 2.07275e-05 0.000141257 0 -5.8254e-05 0.000627477 0 1.44983e-05 -6.68517e-06 0 8.91348e-06 -5.30055e-07 0 5.7199e-06 -4.72859e-06 0 3.39344e-06 -2.64147e-06 0 3.74417e-06 -1.96056e-06 0 3.58061e-06 -8.56437e-07 0 3.93617e-06 -5.72758e-07 0 3.94858e-06 -1.34832e-07 0 4.08876e-06 -8.50245e-08 0 4.10103e-06 6.76842e-08 0 4.14582e-06 4.7105e-08 0 4.14971e-06 8.56585e-08 0 4.16106e-06 5.63856e-08 0 4.16055e-06 5.79261e-08 0 4.16149e-06 3.66409e-08 0 4.15939e-06 3.12581e-08 0 4.15717e-06 1.8905e-08 0 4.15463e-06 1.61712e-08 0 4.15055e-06 9.26135e-09 0 4.14844e-06 1.19919e-08 0 4.14057e-06 5.44362e-09 0 4.14285e-06 1.52051e-08 0 4.12429e-06 1.86469e-09 0 4.14916e-06 1.6108e-08 0 4.10177e-06 -8.98443e-09 0 4.22139e-06 -3.56451e-08 0 4.10609e-06 -4.58378e-08 0 4.49534e-06 -5.07323e-07 0 3.74661e-06 1.15116e-07 0 3.20499e-06 -2.85275e-06 0 1.31496e-05 4.35036e-05 0 -5.87986e-05 0.000519004 0 1.91755e-06 -2.6939e-06 0 1.7276e-07 7.25493e-07 0 -2.37517e-06 -3.64952e-06 0 -4.72456e-06 -2.63532e-06 0 -5.05827e-06 -2.08852e-06 0 -5.48628e-06 -1.09015e-06 0 -5.45148e-06 -7.40486e-07 0 -5.58021e-06 -2.85636e-07 0 -5.57652e-06 -1.81083e-07 0 -5.63164e-06 -8.00373e-09 0 -5.63975e-06 2.10554e-09 0 -5.66282e-06 5.33686e-08 0 -5.66854e-06 3.89519e-08 0 -5.67684e-06 4.7021e-08 0 -5.67884e-06 3.23739e-08 0 -5.68059e-06 3.00264e-08 0 -5.68016e-06 2.07374e-08 0 -5.67861e-06 1.95195e-08 0 -5.67689e-06 1.44395e-08 0 -5.67228e-06 1.82634e-08 0 -5.671e-06 1.31548e-08 0 -5.65953e-06 2.39428e-08 0 -5.66415e-06 1.13541e-08 0 -5.62849e-06 2.47444e-08 0 -5.65622e-06 -2.18919e-10 0 -5.52821e-06 -4.49202e-08 0 -5.64213e-06 -2.65234e-08 0 -5.29603e-06 -5.64668e-07 0 -6.11024e-06 6.52016e-07 0 -6.0117e-06 -3.96014e-06 0 7.57049e-06 6.57561e-05 0 -5.75681e-05 0.000481685 0 1.01329e-05 -6.37595e-06 0 9.27841e-06 1.78418e-06 0 7.10921e-06 -2.89386e-06 0 5.25136e-06 -2.14745e-06 0 4.76187e-06 -1.85245e-06 0 4.4523e-06 -9.69151e-07 0 4.52708e-06 -6.36378e-07 0 4.51555e-06 -2.30394e-07 0 4.59603e-06 -1.26397e-07 0 4.62206e-06 1.9374e-08 0 4.668e-06 2.73703e-08 0 4.68972e-06 6.48489e-08 0 4.71253e-06 4.85829e-08 0 4.72472e-06 5.04614e-08 0 4.73451e-06 3.47539e-08 0 4.73961e-06 2.97194e-08 0 4.74261e-06 1.99076e-08 0 4.74377e-06 1.71626e-08 0 4.7433e-06 1.20172e-08 0 4.74291e-06 1.40016e-08 0 4.74023e-06 9.77903e-09 0 4.74104e-06 1.68959e-08 0 4.73561e-06 6.85176e-09 0 4.74588e-06 1.34007e-08 0 4.73488e-06 -1.26546e-08 0 4.78428e-06 -5.51435e-08 0 4.73599e-06 -8.28217e-08 0 4.807e-06 -4.22111e-07 0 4.30535e-06 3.95381e-07 0 4.27157e-06 -2.13472e-06 0 7.31231e-06 3.46881e-05 0 -5.72008e-05 0.000404713 0 9.67003e-07 -5.11649e-06 0 1.38369e-06 2.01452e-06 0 1.14504e-07 -2.13984e-06 0 -1.65435e-06 -1.84914e-06 0 -2.42895e-06 -1.71319e-06 0 -3.00808e-06 -9.68524e-07 0 -3.17255e-06 -6.45121e-07 0 -3.33656e-06 -2.64691e-07 0 -3.36809e-06 -1.4743e-07 0 -3.40972e-06 -5.67511e-09 0 -3.40777e-06 1.26445e-08 0 -3.4112e-06 5.1011e-08 0 -3.40227e-06 4.07077e-08 0 -3.39674e-06 4.41171e-08 0 -3.389e-06 3.14936e-08 0 -3.38331e-06 2.75225e-08 0 -3.3779e-06 1.92647e-08 0 -3.37305e-06 1.7018e-08 0 -3.36897e-06 1.27835e-08 0 -3.36328e-06 1.4769e-08 0 -3.3599e-06 1.13302e-08 0 -3.34962e-06 1.78319e-08 0 -3.34919e-06 8.49785e-09 0 -3.32394e-06 1.31515e-08 0 -3.33787e-06 -1.3305e-08 0 -3.26623e-06 -5.78104e-08 0 -3.36234e-06 -7.71559e-08 0 -3.2375e-06 -3.64207e-07 0 -3.7817e-06 5.05411e-07 0 -3.42684e-06 -2.17359e-06 0 4.42569e-06 3.62309e-05 0 -5.56306e-05 0.000347722 0 5.527e-06 -5.56071e-06 0 5.99219e-06 2.05712e-06 0 4.99752e-06 -1.5875e-06 0 3.6886e-06 -1.45173e-06 0 2.90256e-06 -1.45537e-06 0 2.37301e-06 -8.47712e-07 0 2.20211e-06 -5.6397e-07 0 2.07721e-06 -2.33354e-07 0 2.07387e-06 -1.23171e-07 0 2.06857e-06 -1.04528e-09 0 2.09709e-06 1.71385e-08 0 2.11715e-06 4.84654e-08 0 2.14207e-06 3.94388e-08 0 2.15957e-06 4.08455e-08 0 2.1747e-06 2.93794e-08 0 2.185e-06 2.49874e-08 0 2.1926e-06 1.74412e-08 0 2.19786e-06 1.49209e-08 0 2.20139e-06 1.11219e-08 0 2.20482e-06 1.23063e-08 0 2.20659e-06 9.52166e-09 0 2.21145e-06 1.40718e-08 0 2.21129e-06 6.25935e-09 0 2.22257e-06 7.46363e-09 0 2.21318e-06 -1.76505e-08 0 2.23904e-06 -5.83483e-08 0 2.16715e-06 -8.34434e-08 0 2.16777e-06 -2.69877e-07 0 1.83706e-06 3.93094e-07 0 2.04687e-06 -1.50054e-06 0 4.6513e-06 2.41999e-05 0 -5.49812e-05 0.000280764 0 1.49249e-06 -4.60867e-06 0 2.34256e-06 1.83502e-06 0 1.79988e-06 -1.13153e-06 0 6.79846e-07 -1.13808e-06 0 -1.80887e-07 -1.21588e-06 0 -8.38587e-07 -7.41314e-07 0 -1.14248e-06 -4.99566e-07 0 -1.35572e-06 -2.17486e-07 0 -1.42149e-06 -1.15392e-07 0 -1.46278e-06 -8.82293e-09 0 -1.45592e-06 1.0842e-08 0 -1.44701e-06 3.8687e-08 0 -1.42735e-06 3.26327e-08 0 -1.41161e-06 3.42555e-08 0 -1.39622e-06 2.50607e-08 0 -1.38464e-06 2.14515e-08 0 -1.37516e-06 1.52327e-08 0 -1.36758e-06 1.31218e-08 0 -1.36152e-06 1.00191e-08 0 -1.35487e-06 1.10148e-08 0 -1.35008e-06 8.76884e-09 0 -1.3406e-06 1.24362e-08 0 -1.33846e-06 5.62624e-09 0 -1.32112e-06 5.57505e-09 0 -1.3353e-06 -1.72076e-08 0 -1.30412e-06 -5.31048e-08 0 -1.40217e-06 -7.03901e-08 0 -1.3645e-06 -2.0642e-07 0 -1.68061e-06 3.60865e-07 0 -1.33741e-06 -1.27937e-06 0 3.30866e-06 2.08744e-05 0 -5.40202e-05 0.000219306 0 3.21876e-06 -3.93519e-06 0 3.99882e-06 1.51933e-06 0 3.61305e-06 -7.87773e-07 0 2.77662e-06 -8.31319e-07 0 1.95342e-06 -9.43318e-07 0 1.30971e-06 -5.90727e-07 0 9.81137e-07 -4.00761e-07 0 7.65568e-07 -1.77116e-07 0 6.9928e-07 -9.22615e-08 0 6.66878e-07 -7.30019e-09 0 6.81962e-07 9.76763e-09 0 7.0001e-07 3.15405e-08 0 7.26598e-07 2.70066e-08 0 7.48064e-07 2.78987e-08 0 7.6733e-07 2.05454e-08 0 7.81593e-07 1.74036e-08 0 7.92658e-07 1.23855e-08 0 8.00967e-07 1.05284e-08 0 8.07325e-07 8.04856e-09 0 8.13438e-07 8.65062e-09 0 8.18048e-07 6.94731e-09 0 8.25449e-07 9.42763e-09 0 8.27513e-07 4.05542e-09 0 8.38091e-07 2.77786e-09 0 8.23686e-07 -1.61141e-08 0 8.32173e-07 -4.52515e-08 0 7.41775e-07 -5.85308e-08 0 7.40902e-07 -1.45038e-07 0 5.25807e-07 2.72971e-07 0 7.89746e-07 -9.13901e-07 0 3.36357e-06 1.45337e-05 0 -5.35056e-05 0.000155652 0 1.74617e-06 -2.85013e-06 0 2.62248e-06 1.12072e-06 0 2.41877e-06 -5.12048e-07 0 1.72418e-06 -5.71081e-07 0 9.0245e-07 -6.76981e-07 0 2.13068e-07 -4.35314e-07 0 -1.7859e-07 -2.9814e-07 0 -4.38006e-07 -1.34997e-07 0 -5.35137e-07 -7.05595e-08 0 -5.84335e-07 -7.66369e-09 0 -5.78599e-07 6.08034e-09 0 -5.64621e-07 2.23447e-08 0 -5.39413e-07 1.95071e-08 0 -5.17839e-07 2.02745e-08 0 -4.97756e-07 1.50541e-08 0 -4.82398e-07 1.27879e-08 0 -4.70136e-07 9.16853e-09 0 -4.60564e-07 7.81716e-09 0 -4.52952e-07 6.03063e-09 0 -4.45368e-07 6.46386e-09 0 -4.39433e-07 5.23526e-09 0 -4.30207e-07 6.96862e-09 0 -4.27391e-07 2.94023e-09 0 -4.15431e-07 1.61285e-09 0 -4.3313e-07 -1.26714e-08 0 -4.26089e-07 -3.40201e-08 0 -5.25493e-07 -4.1822e-08 0 -5.07943e-07 -9.74416e-08 0 -7.03104e-07 2.02463e-07 0 -4.05293e-07 -6.58137e-07 0 2.79857e-06 1.05403e-05 0 -5.3053e-05 9.35732e-05 0 2.25806e-06 -1.77757e-06 0 3.08928e-06 6.86671e-07 0 2.95203e-06 -2.88647e-07 0 2.38632e-06 -3.29975e-07 0 1.59485e-06 -4.04404e-07 0 9.10033e-07 -2.63756e-07 0 5.01688e-07 -1.815e-07 0 2.33879e-07 -8.28036e-08 0 1.31246e-07 -4.29677e-08 0 8.23283e-08 -4.74557e-09 0 8.9576e-08 3.90934e-09 0 1.06358e-07 1.37069e-08 0 1.34022e-07 1.20537e-08 0 1.57852e-07 1.24352e-08 0 1.79597e-07 9.264e-09 0 1.96197e-07 7.82934e-09 0 2.09284e-07 5.62101e-09 0 2.19344e-07 4.75972e-09 0 2.27277e-07 3.67616e-09 0 2.34856e-07 3.89226e-09 0 2.40924e-07 3.16835e-09 0 2.49519e-07 4.11257e-09 0 2.52337e-07 1.67966e-09 0 2.61515e-07 5.78962e-10 0 2.42874e-07 -8.21703e-09 0 2.40703e-07 -2.12484e-08 0 1.44007e-07 -2.55379e-08 0 1.53007e-07 -5.51904e-08 0 -4.42051e-09 1.19512e-07 0 2.61344e-07 -3.80261e-07 0 2.78542e-06 5.98259e-06 0 -5.28655e-05 3.10289e-05 0 1.90097e-06 -5.8702e-07 0 2.74781e-06 2.30674e-07 0 2.65772e-06 -9.29197e-08 0 2.14145e-06 -1.08866e-07 0 1.35725e-06 -1.35317e-07 0 6.62283e-07 -8.91885e-08 0 2.35621e-07 -6.16565e-08 0 -4.54809e-08 -2.84537e-08 0 -1.57508e-07 -1.48631e-08 0 -2.114e-07 -1.89565e-09 0 -2.06785e-07 1.13006e-09 0 -1.91007e-07 4.49187e-09 0 -1.6356e-07 3.98541e-09 0 -1.39531e-07 4.14668e-09 0 -1.1742e-07 3.0991e-09 0 -1.00406e-07 2.63244e-09 0 -8.69098e-08 1.89633e-09 0 -7.64454e-08 1.61623e-09 0 -6.81308e-08 1.25277e-09 0 -6.0127e-08 1.33546e-09 0 -5.36868e-08 1.086e-09 0 -4.46248e-08 1.41619e-09 0 -4.16537e-08 5.73059e-10 0 -3.23652e-08 2.0784e-10 0 -5.21618e-08 -2.80343e-09 0 -5.54422e-08 -7.14643e-09 0 -1.53939e-07 -8.39831e-09 0 -1.39483e-07 -1.80588e-08 0 -2.89289e-07 4.09143e-08 0 -1.81806e-08 -1.29142e-07 0 2.632e-06 2.06838e-06 0 -5.28655e-05 -3.10289e-05 0 1.90097e-06 5.8702e-07 0 2.74781e-06 -2.30674e-07 0 2.65772e-06 9.29197e-08 0 2.14145e-06 1.08866e-07 0 1.35725e-06 1.35317e-07 0 6.62283e-07 8.91885e-08 0 2.35621e-07 6.16565e-08 0 -4.54809e-08 2.84537e-08 0 -1.57508e-07 1.48631e-08 0 -2.114e-07 1.89565e-09 0 -2.06785e-07 -1.13006e-09 0 -1.91007e-07 -4.49187e-09 0 -1.6356e-07 -3.98541e-09 0 -1.39531e-07 -4.14668e-09 0 -1.1742e-07 -3.0991e-09 0 -1.00406e-07 -2.63244e-09 0 -8.69098e-08 -1.89633e-09 0 -7.64454e-08 -1.61623e-09 0 -6.81308e-08 -1.25277e-09 0 -6.0127e-08 -1.33546e-09 0 -5.36868e-08 -1.086e-09 0 -4.46248e-08 -1.41619e-09 0 -4.16537e-08 -5.73059e-10 0 -3.23652e-08 -2.0784e-10 0 -5.21618e-08 2.80343e-09 0 -5.54422e-08 7.14643e-09 0 -1.53939e-07 8.39831e-09 0 -1.39483e-07 1.80588e-08 0 -2.89289e-07 -4.09143e-08 0 -1.81806e-08 1.29142e-07 0 2.632e-06 -2.06838e-06 0 -5.3053e-05 -9.35732e-05 0 2.25806e-06 1.77757e-06 0 3.08928e-06 -6.86671e-07 0 2.95203e-06 2.88647e-07 0 2.38632e-06 3.29975e-07 0 1.59485e-06 4.04404e-07 0 9.10033e-07 2.63756e-07 0 5.01688e-07 1.815e-07 0 2.33879e-07 8.28036e-08 0 1.31246e-07 4.29677e-08 0 8.23283e-08 4.74557e-09 0 8.9576e-08 -3.90934e-09 0 1.06358e-07 -1.37069e-08 0 1.34022e-07 -1.20537e-08 0 1.57852e-07 -1.24352e-08 0 1.79597e-07 -9.264e-09 0 1.96197e-07 -7.82934e-09 0 2.09284e-07 -5.62101e-09 0 2.19344e-07 -4.75972e-09 0 2.27277e-07 -3.67616e-09 0 2.34856e-07 -3.89226e-09 0 2.40924e-07 -3.16835e-09 0 2.49519e-07 -4.11257e-09 0 2.52337e-07 -1.67966e-09 0 2.61515e-07 -5.78962e-10 0 2.42874e-07 8.21703e-09 0 2.40703e-07 2.12484e-08 0 1.44007e-07 2.55379e-08 0 1.53007e-07 5.51904e-08 0 -4.42051e-09 -1.19512e-07 0 2.61344e-07 3.80261e-07 0 2.78542e-06 -5.98259e-06 0 -5.35056e-05 -0.000155652 0 1.74617e-06 2.85013e-06 0 2.62248e-06 -1.12072e-06 0 2.41877e-06 5.12048e-07 0 1.72418e-06 5.71081e-07 0 9.0245e-07 6.76981e-07 0 2.13068e-07 4.35314e-07 0 -1.7859e-07 2.9814e-07 0 -4.38006e-07 1.34997e-07 0 -5.35137e-07 7.05595e-08 0 -5.84335e-07 7.66369e-09 0 -5.78599e-07 -6.08034e-09 0 -5.64621e-07 -2.23447e-08 0 -5.39413e-07 -1.95071e-08 0 -5.17839e-07 -2.02745e-08 0 -4.97756e-07 -1.50541e-08 0 -4.82398e-07 -1.27879e-08 0 -4.70136e-07 -9.16853e-09 0 -4.60564e-07 -7.81716e-09 0 -4.52952e-07 -6.03063e-09 0 -4.45368e-07 -6.46386e-09 0 -4.39433e-07 -5.23526e-09 0 -4.30207e-07 -6.96862e-09 0 -4.27391e-07 -2.94023e-09 0 -4.15431e-07 -1.61285e-09 0 -4.3313e-07 1.26714e-08 0 -4.26089e-07 3.40201e-08 0 -5.25493e-07 4.1822e-08 0 -5.07943e-07 9.74416e-08 0 -7.03104e-07 -2.02463e-07 0 -4.05293e-07 6.58137e-07 0 2.79857e-06 -1.05403e-05 0 -5.40202e-05 -0.000219306 0 3.21876e-06 3.93519e-06 0 3.99882e-06 -1.51933e-06 0 3.61305e-06 7.87773e-07 0 2.77662e-06 8.31319e-07 0 1.95342e-06 9.43318e-07 0 1.30971e-06 5.90727e-07 0 9.81137e-07 4.00761e-07 0 7.65568e-07 1.77116e-07 0 6.9928e-07 9.22615e-08 0 6.66878e-07 7.30019e-09 0 6.81962e-07 -9.76763e-09 0 7.0001e-07 -3.15405e-08 0 7.26598e-07 -2.70066e-08 0 7.48064e-07 -2.78987e-08 0 7.6733e-07 -2.05454e-08 0 7.81593e-07 -1.74036e-08 0 7.92658e-07 -1.23855e-08 0 8.00967e-07 -1.05284e-08 0 8.07325e-07 -8.04856e-09 0 8.13438e-07 -8.65062e-09 0 8.18048e-07 -6.94731e-09 0 8.25449e-07 -9.42763e-09 0 8.27513e-07 -4.05542e-09 0 8.38091e-07 -2.77786e-09 0 8.23686e-07 1.61141e-08 0 8.32173e-07 4.52515e-08 0 7.41775e-07 5.85308e-08 0 7.40902e-07 1.45038e-07 0 5.25807e-07 -2.72971e-07 0 7.89746e-07 9.13901e-07 0 3.36357e-06 -1.45337e-05 0 -5.49812e-05 -0.000280764 0 1.49249e-06 4.60867e-06 0 2.34256e-06 -1.83502e-06 0 1.79988e-06 1.13153e-06 0 6.79846e-07 1.13808e-06 0 -1.80887e-07 1.21588e-06 0 -8.38587e-07 7.41314e-07 0 -1.14248e-06 4.99566e-07 0 -1.35572e-06 2.17486e-07 0 -1.42149e-06 1.15392e-07 0 -1.46278e-06 8.82293e-09 0 -1.45592e-06 -1.0842e-08 0 -1.44701e-06 -3.8687e-08 0 -1.42735e-06 -3.26327e-08 0 -1.41161e-06 -3.42555e-08 0 -1.39622e-06 -2.50607e-08 0 -1.38464e-06 -2.14515e-08 0 -1.37516e-06 -1.52327e-08 0 -1.36758e-06 -1.31218e-08 0 -1.36152e-06 -1.00191e-08 0 -1.35487e-06 -1.10148e-08 0 -1.35008e-06 -8.76884e-09 0 -1.3406e-06 -1.24362e-08 0 -1.33846e-06 -5.62624e-09 0 -1.32112e-06 -5.57505e-09 0 -1.3353e-06 1.72076e-08 0 -1.30412e-06 5.31048e-08 0 -1.40217e-06 7.03901e-08 0 -1.3645e-06 2.0642e-07 0 -1.68061e-06 -3.60865e-07 0 -1.33741e-06 1.27937e-06 0 3.30866e-06 -2.08744e-05 0 -5.56306e-05 -0.000347722 0 5.527e-06 5.56071e-06 0 5.99219e-06 -2.05712e-06 0 4.99752e-06 1.5875e-06 0 3.6886e-06 1.45173e-06 0 2.90256e-06 1.45537e-06 0 2.37301e-06 8.47712e-07 0 2.20211e-06 5.6397e-07 0 2.07721e-06 2.33354e-07 0 2.07387e-06 1.23171e-07 0 2.06857e-06 1.04528e-09 0 2.09709e-06 -1.71385e-08 0 2.11715e-06 -4.84654e-08 0 2.14207e-06 -3.94388e-08 0 2.15957e-06 -4.08455e-08 0 2.1747e-06 -2.93794e-08 0 2.185e-06 -2.49874e-08 0 2.1926e-06 -1.74412e-08 0 2.19786e-06 -1.49209e-08 0 2.20139e-06 -1.11219e-08 0 2.20482e-06 -1.23063e-08 0 2.20659e-06 -9.52166e-09 0 2.21145e-06 -1.40718e-08 0 2.21129e-06 -6.25935e-09 0 2.22257e-06 -7.46363e-09 0 2.21318e-06 1.76505e-08 0 2.23904e-06 5.83483e-08 0 2.16715e-06 8.34434e-08 0 2.16777e-06 2.69877e-07 0 1.83706e-06 -3.93094e-07 0 2.04687e-06 1.50054e-06 0 4.6513e-06 -2.41999e-05 0 -5.72008e-05 -0.000404713 0 9.67003e-07 5.11649e-06 0 1.38369e-06 -2.01452e-06 0 1.14504e-07 2.13984e-06 0 -1.65435e-06 1.84914e-06 0 -2.42895e-06 1.71319e-06 0 -3.00808e-06 9.68524e-07 0 -3.17255e-06 6.45121e-07 0 -3.33656e-06 2.64691e-07 0 -3.36809e-06 1.4743e-07 0 -3.40972e-06 5.67511e-09 0 -3.40777e-06 -1.26445e-08 0 -3.4112e-06 -5.1011e-08 0 -3.40227e-06 -4.07077e-08 0 -3.39674e-06 -4.41171e-08 0 -3.389e-06 -3.14936e-08 0 -3.38331e-06 -2.75225e-08 0 -3.3779e-06 -1.92647e-08 0 -3.37305e-06 -1.7018e-08 0 -3.36897e-06 -1.27835e-08 0 -3.36328e-06 -1.4769e-08 0 -3.3599e-06 -1.13302e-08 0 -3.34962e-06 -1.78319e-08 0 -3.34919e-06 -8.49785e-09 0 -3.32394e-06 -1.31515e-08 0 -3.33787e-06 1.3305e-08 0 -3.26623e-06 5.78104e-08 0 -3.36234e-06 7.71559e-08 0 -3.2375e-06 3.64207e-07 0 -3.7817e-06 -5.05411e-07 0 -3.42684e-06 2.17359e-06 0 4.42569e-06 -3.62309e-05 0 -5.75681e-05 -0.000481685 0 1.01329e-05 6.37595e-06 0 9.27841e-06 -1.78418e-06 0 7.10921e-06 2.89386e-06 0 5.25136e-06 2.14745e-06 0 4.76187e-06 1.85245e-06 0 4.4523e-06 9.69151e-07 0 4.52708e-06 6.36378e-07 0 4.51555e-06 2.30394e-07 0 4.59603e-06 1.26397e-07 0 4.62206e-06 -1.9374e-08 0 4.668e-06 -2.73703e-08 0 4.68972e-06 -6.48489e-08 0 4.71253e-06 -4.85829e-08 0 4.72472e-06 -5.04614e-08 0 4.73451e-06 -3.47539e-08 0 4.73961e-06 -2.97194e-08 0 4.74261e-06 -1.99076e-08 0 4.74377e-06 -1.71626e-08 0 4.7433e-06 -1.20172e-08 0 4.74291e-06 -1.40016e-08 0 4.74023e-06 -9.77903e-09 0 4.74104e-06 -1.68959e-08 0 4.73561e-06 -6.85176e-09 0 4.74588e-06 -1.34007e-08 0 4.73488e-06 1.26546e-08 0 4.78428e-06 5.51435e-08 0 4.73599e-06 8.28217e-08 0 4.807e-06 4.22111e-07 0 4.30535e-06 -3.95381e-07 0 4.27157e-06 2.13472e-06 0 7.31231e-06 -3.46881e-05 0 -5.87986e-05 -0.000519004 0 1.91755e-06 2.6939e-06 0 1.7276e-07 -7.25493e-07 0 -2.37517e-06 3.64952e-06 0 -4.72456e-06 2.63532e-06 0 -5.05827e-06 2.08852e-06 0 -5.48628e-06 1.09015e-06 0 -5.45148e-06 7.40486e-07 0 -5.58021e-06 2.85636e-07 0 -5.57652e-06 1.81083e-07 0 -5.63164e-06 8.00373e-09 0 -5.63975e-06 -2.10554e-09 0 -5.66282e-06 -5.33686e-08 0 -5.66854e-06 -3.89519e-08 0 -5.67684e-06 -4.7021e-08 0 -5.67884e-06 -3.23739e-08 0 -5.68059e-06 -3.00264e-08 0 -5.68016e-06 -2.07374e-08 0 -5.67861e-06 -1.95195e-08 0 -5.67689e-06 -1.44395e-08 0 -5.67228e-06 -1.82634e-08 0 -5.671e-06 -1.31548e-08 0 -5.65953e-06 -2.39428e-08 0 -5.66415e-06 -1.13541e-08 0 -5.62849e-06 -2.47444e-08 0 -5.65622e-06 2.18919e-10 0 -5.52821e-06 4.49202e-08 0 -5.64213e-06 2.65234e-08 0 -5.29603e-06 5.64668e-07 0 -6.11024e-06 -6.52016e-07 0 -6.0117e-06 3.96014e-06 0 7.57049e-06 -6.57561e-05 0 -5.8254e-05 -0.000627477 0 1.44983e-05 6.68517e-06 0 8.91348e-06 5.30055e-07 0 5.7199e-06 4.72859e-06 0 3.39344e-06 2.64147e-06 0 3.74417e-06 1.96056e-06 0 3.58061e-06 8.56437e-07 0 3.93617e-06 5.72758e-07 0 3.94858e-06 1.34832e-07 0 4.08876e-06 8.50245e-08 0 4.10103e-06 -6.76842e-08 0 4.14582e-06 -4.7105e-08 0 4.14971e-06 -8.56585e-08 0 4.16106e-06 -5.63856e-08 0 4.16055e-06 -5.79261e-08 0 4.16149e-06 -3.66409e-08 0 4.15939e-06 -3.12581e-08 0 4.15717e-06 -1.8905e-08 0 4.15463e-06 -1.61712e-08 0 4.15055e-06 -9.26135e-09 0 4.14844e-06 -1.19919e-08 0 4.14057e-06 -5.44362e-09 0 4.14285e-06 -1.52051e-08 0 4.12429e-06 -1.86469e-09 0 4.14916e-06 -1.6108e-08 0 4.10177e-06 8.98443e-09 0 4.22139e-06 3.56451e-08 0 4.10609e-06 4.58378e-08 0 4.49534e-06 5.07323e-07 0 3.74661e-06 -1.15116e-07 0 3.20499e-06 2.85275e-06 0 1.31496e-05 -4.35036e-05 0 -4.40085e-05 -0.000586077 0 1.98757e-05 -7.39403e-06 0 9.28138e-06 4.40649e-06 0 5.70171e-06 5.1083e-06 0 3.73861e-06 3.31588e-06 0 4.60279e-06 2.28148e-06 0 4.59243e-06 1.15583e-06 0 5.07847e-06 8.69862e-07 0 5.11126e-06 3.3554e-07 0 5.2854e-06 2.72813e-07 0 5.2879e-06 4.72559e-08 0 5.3365e-06 4.82739e-08 0 5.32796e-06 -3.10911e-08 0 5.33505e-06 -1.6166e-08 0 5.32588e-06 -3.75381e-08 0 5.32239e-06 -2.43133e-08 0 5.3155e-06 -2.80914e-08 0 5.31054e-06 -1.96954e-08 0 5.30589e-06 -2.20631e-08 0 5.30018e-06 -1.64016e-08 0 5.29795e-06 -2.46374e-08 0 5.28772e-06 -1.56365e-08 0 5.29276e-06 -3.59057e-08 0 5.26751e-06 -1.33984e-08 0 5.30134e-06 -4.61867e-08 0 5.23782e-06 -1.68869e-08 0 5.37892e-06 1.80951e-08 0 5.2515e-06 -1.25386e-07 0 5.7699e-06 7.79003e-07 0 5.22106e-06 -1.18297e-06 0 4.19073e-06 9.22392e-06 0 2.07275e-05 -0.000141257 0 -3.65212e-05 -0.000771753 0 -1.33977e-05 7.40646e-06 0 -3.58707e-05 7.75219e-06 0 -3.10207e-05 5.94309e-06 0 -3.66818e-05 2.41723e-06 0 -3.39721e-05 1.49141e-06 0 -3.57378e-05 3.40263e-07 0 -3.53548e-05 2.77745e-07 0 -3.61473e-05 -1.50874e-07 0 -3.62798e-05 -5.16094e-08 0 -3.6665e-05 -1.95741e-07 0 -3.68143e-05 -1.00995e-07 0 -3.69925e-05 -1.33862e-07 0 -3.70772e-05 -7.25998e-08 0 -3.71497e-05 -7.11952e-08 0 -3.71842e-05 -3.72849e-08 0 -3.72054e-05 -3.065e-08 0 -3.72125e-05 -1.29021e-08 0 -3.72085e-05 -9.83228e-09 0 -3.72049e-05 1.2786e-09 0 -3.71823e-05 -2.55012e-09 0 -3.71842e-05 1.07407e-08 0 -3.71288e-05 -4.36658e-09 0 -3.71725e-05 2.12968e-08 0 -3.70211e-05 -9.4481e-09 0 -3.72203e-05 3.21573e-08 0 -3.67366e-05 1.15503e-08 0 -3.74513e-05 1.25177e-08 0 -3.56837e-05 3.6975e-07 0 -3.79408e-05 2.58216e-07 0 -3.68844e-05 5.02891e-06 0 2.55866e-05 -5.02695e-05 0 0.000136635 -0.000384707 0 0.000163269 -4.55621e-05 0 0.000117157 1.95948e-05 0 0.000120888 3.1244e-06 0 0.000119364 4.27965e-06 0 0.000125534 2.35724e-06 0 0.0001272 1.45332e-06 0 0.000130561 1.31151e-06 0 0.000132062 5.6704e-07 0 0.000133741 5.90654e-07 0 0.000134605 2.00017e-07 0 0.000135358 2.1767e-07 0 0.000135749 4.89495e-08 0 0.000136038 5.876e-08 0 0.000136175 -4.93695e-09 0 0.000136254 1.54704e-09 0 0.000136272 -2.17272e-08 0 0.000136261 -1.64387e-08 0 0.000136224 -3.06492e-08 0 0.000136172 -2.19726e-08 0 0.000136098 -4.54871e-08 0 0.000136023 -2.14209e-08 0 0.000135899 -7.24266e-08 0 0.000135834 -1.36217e-08 0 0.0001356 -9.84611e-08 0 0.000135665 -4.00318e-08 0 0.000135142 2.02958e-08 0 0.000135704 -5.05238e-07 0 0.000134564 1.4297e-06 0 0.000136956 -4.61926e-06 0 0.000133462 2.82182e-05 0 7.67735e-05 -0.000371054 0 0.000281983 -0.00045962 0 -0.00042787 -1.91547e-05 0 -0.000510333 2.85183e-05 0 -0.000414128 9.81116e-07 0 -0.000468411 1.84549e-06 0 -0.000448817 -1.1159e-08 0 -0.000472514 -9.15004e-07 0 -0.000472922 -3.36828e-07 0 -0.000483493 -9.14469e-07 0 -0.000486644 -3.37048e-07 0 -0.000491379 -5.54678e-07 0 -0.000493531 -2.21272e-07 0 -0.000495528 -2.75238e-07 0 -0.000496541 -1.10983e-07 0 -0.000497267 -1.14222e-07 0 -0.000497603 -3.89406e-08 0 -0.00049776 -3.33009e-08 0 -0.000497767 2.38028e-09 0 -0.000497659 4.59209e-09 0 -0.000497517 2.83831e-08 0 -0.000497225 2.16873e-08 0 -0.000497062 5.12467e-08 0 -0.000496474 2.8489e-08 0 -0.000496591 7.61881e-08 0 -0.000495148 3.50887e-08 0 -0.000496686 8.0812e-08 0 -0.000492249 1.05796e-07 0 -0.000499345 -1.36349e-07 0 -0.00048431 7.52038e-07 0 -0.000508198 -2.23858e-06 0 -0.000475511 1.72168e-05 0 4.48432e-07 -9.49052e-05 0 0.00313093 0.00180577 0 0.00235682 -0.000204116 0 0.00225466 6.08362e-05 0 0.00213278 -1.0942e-05 0 0.00221997 6.51751e-06 0 0.00224055 1.69094e-06 0 0.00229967 8.60226e-07 0 0.00233584 1.96425e-06 0 0.00237073 1.54254e-07 0 0.00239525 1.04361e-06 0 0.00241347 6.30081e-08 0 0.00242606 4.39298e-07 0 0.00243429 2.40821e-08 0 0.00243955 1.55309e-07 0 0.00244258 -2.97685e-09 0 0.00244418 4.0309e-08 0 0.00244477 -2.06704e-08 0 0.00244473 -1.84482e-09 0 0.00244417 -3.80406e-08 0 0.00244339 -1.29314e-08 0 0.00244209 -6.74938e-08 0 0.00244099 -1.20926e-09 0 0.00243873 -1.21355e-07 0 0.00243805 3.28284e-08 0 0.00243354 -1.67809e-07 0 0.00243596 -4.5807e-08 0 0.00242433 2.1245e-07 0 0.00243968 -1.44371e-06 0 0.0024031 4.2322e-06 0 0.00246012 -1.59588e-05 0 0.00239008 7.51437e-05 0 0.00102673 -0.000938473 0 -0.0179607 0.00574485 0 -0.017729 -0.00116913 0 -0.0175802 0.000156572 0 -0.015439 -5.94601e-05 0 -0.0166551 2.86244e-05 0 -0.0164253 1.23217e-05 0 -0.0170518 1.19233e-05 0 -0.0172028 1.4047e-05 0 -0.0175158 6.5509e-06 0 -0.0176606 7.85484e-06 0 -0.0178079 3.25637e-06 0 -0.017888 3.37969e-06 0 -0.0179496 1.26573e-06 0 -0.0179829 1.12104e-06 0 -0.0180037 2.91472e-07 0 -0.0180131 2.02289e-07 0 -0.0180164 -7.88393e-08 0 -0.0180156 -8.19998e-08 0 -0.0180119 -1.80784e-07 0 -0.0180072 -1.07541e-07 0 -0.0179996 -2.17801e-07 0 -0.0179944 -1.08166e-08 0 -0.0179811 -2.83209e-07 0 -0.0179817 2.13927e-07 0 -0.0179528 -2.39832e-07 0 -0.0179823 4.40175e-07 0 -0.0179015 1.26402e-06 0 -0.0180424 -1.31117e-06 0 -0.0177877 1.34742e-05 0 -0.0182928 -2.5221e-05 0 -0.017938 0.000206185 0 -0.00907665 -0.00199272 0 </DataArray> 
</PointData> 
<Points> 
<DataArray type="Float32" NumberOfComponents="3"> 