<?xml version="1.0"?> 
<VTKFile type="StructuredGrid" version="0.1"> 
<StructuredGrid WholeExtent="0 31 0 31 0 0"> 
<Piece Extent="0 31 0 31 0 0"> 
<PointData>
<DataArray type="Float32" Name="B" format="ascii" NumberOfComponents="3"> 
-0.000649313 -0.000580419 0 0.000537107 0.000550029 0 -1.66161e-05 -7.18403e-05 0 0.000219189 3.07177e-05 0 3.50704e-05 -5.66315e-06 0 0.000132544 1.925e-07 0 7.79982e-05 1.63201e-06 0 0.000114023 -1.62314e-06 0 0.000101393 1.86813e-06 0 0.000115781 -4.59386e-07 0 0.000115015 1.32806e-06 0 0.000121402 2.23963e-07 0 0.000122885 8.5675e-07 0 0.000125719 3.54402e-07 0 0.00012667 4.86809e-07 0 0.000127388 2.2349e-07 0 0.000127081 1.85886e-07 0 0.000126084 1.26485e-09 0 0.000124317 -6.68606e-08 0 0.000121548 -2.60204e-07 0 0.000118282 -2.777e-07 0 0.000113316 -5.80077e-07 0 0.000108965 -4.4935e-07 0 0.000100722 -1.02473e-06 0 9.74469e-05 -7.14226e-07 0 8.29662e-05 -1.6134e-06 0 8.8178e-05 -2.11273e-06 0 5.81132e-05 -1.66773e-06 0 9.27259e-05 -1.15327e-05 0 2.3327e-05 6.41923e-06 0 8.18437e-05 -0.000157552 0 0.000103669 0.000696429 0 -8.4552e-05 5.01341e-05 0 4.19288e-05 0.000132887 0 0.000101156 5.25635e-05 0 9.25156e-05 1.88018e-05 0 9.44353e-05 4.40319e-06 0 9.28396e-05 -1.35612e-06 0 9.84158e-05 -3.90983e-06 0 0.000102202 -4.70455e-06 0 0.000108102 -4.60213e-06 0 0.000112656 -4.08196e-06 0 0.000117255 -3.36901e-06 0 0.000120772 -2.62257e-06 0 0.000123704 -1.88659e-06 0 0.000125741 -1.18994e-06 0 0.000127057 -5.23381e-07 0 0.00012758 1.22825e-07 0 0.000127355 7.67709e-07 0 0.000126357 1.4277e-06 0 0.000124562 2.11916e-06 0 0.000121946 2.85309e-06 0 0.00011842 3.63224e-06 0 0.000114015 4.44309e-06 0 0.000108539 5.24414e-06 0 0.000102291 5.95032e-06 0 9.48429e-05 6.42011e-06 0 8.7358e-05 6.45e-06 0 7.84905e-05 5.79238e-06 0 7.15127e-05 4.16673e-06 0 6.12889e-05 1.03614e-06 0 5.41344e-05 -4.29702e-06 0 2.87815e-05 -4.93671e-06 0 2.90135e-05 3.56175e-05 0 -2.03659e-05 3.67307e-05 0 2.61557e-05 4.97055e-05 0 5.91259e-05 3.52223e-05 0 7.61084e-05 1.43076e-05 0 8.26914e-05 1.44335e-06 0 8.95637e-05 -5.89055e-06 0 9.5615e-05 -9.41212e-06 0 0.00010235 -1.03931e-05 0 0.000108291 -1.00527e-05 0 0.000113724 -8.87028e-06 0 0.0001182 -7.4344e-06 0 0.000121886 -5.86202e-06 0 0.000124701 -4.33832e-06 0 0.000126737 -2.84994e-06 0 0.000127995 -1.42663e-06 0 0.000128515 -2.72382e-08 0 0.000128298 1.36649e-06 0 0.000127336 2.7965e-06 0 0.000125604 4.2893e-06 0 0.000123051 5.87844e-06 0 0.000119619 7.57021e-06 0 0.000115214 9.36466e-06 0 0.000109781 1.11847e-05 0 0.000103199 1.29182e-05 0 9.55807e-05 1.4275e-05 0 8.68984e-05 1.49481e-05 0 7.79287e-05 1.45393e-05 0 6.84056e-05 1.28881e-05 0 5.93905e-05 1.04336e-05 0 4.87897e-05 7.59925e-06 0 4.01236e-05 9.70269e-06 0 3.71103e-05 4.7819e-06 0 2.98656e-06 9.23798e-06 0 2.30875e-05 1.86109e-05 0 4.60582e-05 1.26405e-05 0 6.17224e-05 2.37866e-06 0 7.40502e-05 -7.49195e-06 0 8.42255e-05 -1.41046e-05 0 9.41739e-05 -1.72096e-05 0 0.000102665 -1.75539e-05 0 0.000109927 -1.61412e-05 0 0.000115762 -1.39942e-05 0 0.000120457 -1.15383e-05 0 0.000124102 -9.09236e-06 0 0.000126863 -6.71636e-06 0 0.000128809 -4.46187e-06 0 0.000130014 -2.29217e-06 0 0.000130509 -1.79004e-07 0 0.000130313 1.93433e-06 0 0.000129416 4.09689e-06 0 0.000127788 6.36648e-06 0 0.000125376 8.78959e-06 0 0.000122093 1.14092e-05 0 0.000117828 1.42302e-05 0 0.000112411 1.72182e-05 0 0.000105682 2.02046e-05 0 9.74188e-05 2.28605e-05 0 8.77419e-05 2.45273e-05 0 7.68673e-05 2.45148e-05 0 6.63033e-05 2.27379e-05 0 5.63048e-05 1.98082e-05 0 4.75321e-05 1.7288e-05 0 3.97549e-05 1.47097e-05 0 3.4519e-05 1.75942e-05 0 9.92039e-06 -1.2939e-06 0 2.36091e-05 -7.668e-07 0 3.83431e-05 -3.98229e-06 0 5.27462e-05 -1.15167e-05 0 6.60034e-05 -1.97144e-05 0 7.9686e-05 -2.60137e-05 0 9.26286e-05 -2.7988e-05 0 0.000103722 -2.6262e-05 0 0.000111942 -2.3007e-05 0 0.000118159 -1.93051e-05 0 0.000122821 -1.56623e-05 0 0.000126348 -1.22048e-05 0 0.000128937 -8.98881e-06 0 0.000130746 -5.97172e-06 0 0.000131854 -3.10831e-06 0 0.000132314 -3.2473e-07 0 0.000132144 2.44912e-06 0 0.00013134 5.29304e-06 0 0.000129873 8.28449e-06 0 0.000127681 1.15055e-05 0 0.000124673 1.50299e-05 0 0.000120686 1.89237e-05 0 0.000115515 2.32028e-05 0 0.000108767 2.77977e-05 0 0.000100025 3.23586e-05 0 8.85904e-05 3.59158e-05 0 7.57047e-05 3.65312e-05 0 6.31485e-05 3.36149e-05 0 5.27769e-05 2.92972e-05 0 4.42578e-05 2.49612e-05 0 3.76172e-05 2.17819e-05 0 3.24018e-05 1.63817e-05 0 1.23613e-05 -1.23823e-05 0 2.15961e-05 -1.26954e-05 0 3.26802e-05 -1.72078e-05 0 4.44076e-05 -2.44793e-05 0 5.75522e-05 -3.37004e-05 0 7.49188e-05 -4.33233e-05 0 9.69888e-05 -4.26033e-05 0 0.000109871 -3.63321e-05 0 0.000118536 -3.01583e-05 0 0.000124439 -2.45565e-05 0 0.000128788 -1.95525e-05 0 0.000131942 -1.50855e-05 0 0.00013424 -1.10461e-05 0 0.000135819 -7.33343e-06 0 0.000136786 -3.83906e-06 0 0.000137189 -4.63133e-07 0 0.000137051 2.89626e-06 0 0.000136371 6.34004e-06 0 0.00013512 9.97453e-06 0 0.000133248 1.39131e-05 0 0.000130648 1.82798e-05 0 0.000127188 2.321e-05 0 0.000122548 2.88455e-05 0 0.000116402 3.53152e-05 0 0.000107624 4.26412e-05 0 9.48891e-05 5.04371e-05 0 7.34762e-05 5.30464e-05 0 5.75895e-05 4.55931e-05 0 4.71844e-05 3.8423e-05 0 3.95412e-05 3.22633e-05 0 3.35439e-05 2.69405e-05 0 2.88178e-05 2.38648e-05 0 1.1626e-05 -1.85938e-05 0 1.82842e-05 -2.17254e-05 0 2.62215e-05 -2.69979e-05 0 3.5232e-05 -3.5705e-05 0 4.57935e-05 -4.66467e-05 0 5.95615e-05 -6.50204e-05 0 7.55737e-05 -5.91955e-05 0 8.6327e-05 -4.60341e-05 0 9.34571e-05 -3.6691e-05 0 9.83472e-05 -2.9192e-05 0 0.000101856 -2.29064e-05 0 0.000104403 -1.75345e-05 0 0.00010624 -1.27797e-05 0 0.000107505 -8.47548e-06 0 0.000108278 -4.45288e-06 0 0.000108603 -5.84118e-07 0 0.000108499 3.25947e-06 0 0.000107966 7.19737e-06 0 0.000106987 1.13632e-05 0 0.000105522 1.58927e-05 0 0.000103495 2.09714e-05 0 0.000100784 2.6783e-05 0 9.71611e-05 3.36544e-05 0 9.22529e-05 4.19074e-05 0 8.52727e-05 5.22066e-05 0 7.49494e-05 6.65176e-05 0 5.98008e-05 7.36508e-05 0 4.75108e-05 5.65794e-05 0 3.91684e-05 4.66367e-05 0 3.30766e-05 3.81876e-05 0 2.83588e-05 3.19757e-05 0 2.45493e-05 2.62525e-05 0 9.17054e-06 -2.38554e-05 0 1.36551e-05 -2.77146e-05 0 1.88613e-05 -3.40417e-05 0 2.46654e-05 -4.35722e-05 0 3.11034e-05 -5.61007e-05 0 3.83207e-05 -7.61409e-05 0 4.56181e-05 -6.90482e-05 0 5.14571e-05 -5.29533e-05 0 5.57132e-05 -4.14749e-05 0 5.87961e-05 -3.26007e-05 0 6.10747e-05 -2.53971e-05 0 6.27722e-05 -1.93561e-05 0 6.40197e-05 -1.40791e-05 0 6.48912e-05 -9.33389e-06 0 6.54295e-05 -4.91736e-06 0 6.56579e-05 -6.78279e-07 0 6.55878e-05 3.52722e-06 0 6.52213e-05 7.83287e-06 0 6.45523e-05 1.23854e-05 0 6.35645e-05 1.7343e-05 0 6.22262e-05 2.29171e-05 0 6.04811e-05 2.9353e-05 0 5.8225e-05 3.70596e-05 0 5.52763e-05 4.65571e-05 0 5.13238e-05 5.87729e-05 0 4.60374e-05 7.57e-05 0 3.96284e-05 8.36439e-05 0 3.37192e-05 6.4349e-05 0 2.90238e-05 5.22528e-05 0 2.53098e-05 4.25907e-05 0 2.22683e-05 3.53693e-05 0 1.96798e-05 2.99745e-05 0 5.74384e-06 -2.68682e-05 0 8.27554e-06 -3.15202e-05 0 1.09742e-05 -3.80904e-05 0 1.34829e-05 -4.77865e-05 0 1.55123e-05 -6.03332e-05 0 1.68452e-05 -8.046e-05 0 1.75015e-05 -7.278e-05 0 1.83525e-05 -5.58851e-05 0 1.92299e-05 -4.37458e-05 0 2.01378e-05 -3.43688e-05 0 2.09694e-05 -2.67769e-05 0 2.16949e-05 -2.0418e-05 0 2.22816e-05 -1.48638e-05 0 2.27198e-05 -9.86528e-06 0 2.30007e-05 -5.20916e-06 0 2.3122e-05 -7.38259e-07 0 2.30836e-05 3.69487e-06 0 2.28888e-05 8.22636e-06 0 2.25455e-05 1.30056e-05 0 2.20652e-05 1.81932e-05 0 2.14699e-05 2.40072e-05 0 2.07866e-05 3.07009e-05 0 2.00734e-05 3.87062e-05 0 1.9393e-05 4.85702e-05 0 1.88957e-05 6.12574e-05 0 1.86245e-05 7.8723e-05 0 1.87974e-05 8.6936e-05 0 1.85651e-05 6.72006e-05 0 1.78963e-05 5.47754e-05 0 1.69059e-05 4.47965e-05 0 1.57303e-05 3.74476e-05 0 1.44687e-05 3.14349e-05 0 1.85423e-06 -2.86019e-05 0 2.76209e-06 -3.31872e-05 0 3.25778e-06 -3.94538e-05 0 2.8047e-06 -4.83226e-05 0 6.28409e-07 -5.94697e-05 0 -3.98668e-06 -7.81936e-05 0 -9.51432e-06 -7.05597e-05 0 -1.38959e-05 -5.46794e-05 0 -1.62403e-05 -4.33311e-05 0 -1.74642e-05 -3.43822e-05 0 -1.80181e-05 -2.69796e-05 0 -1.82499e-05 -2.06808e-05 0 -1.83075e-05 -1.51113e-05 0 -1.82977e-05 -1.00566e-05 0 -1.82703e-05 -5.32082e-06 0 -1.82565e-05 -7.60017e-07 0 -1.82667e-05 3.76398e-06 0 -1.82966e-05 8.37762e-06 0 -1.83273e-05 1.32198e-05 0 -1.83173e-05 1.84357e-05 0 -1.8204e-05 2.42221e-05 0 -1.78643e-05 3.07936e-05 0 -1.71299e-05 3.85205e-05 0 -1.56272e-05 4.78363e-05 0 -1.28782e-05 5.95729e-05 0 -7.93646e-06 7.583e-05 0 -1.67462e-06 8.37744e-05 0 3.85425e-06 6.52255e-05 0 7.08787e-06 5.4035e-05 0 8.67805e-06 4.48288e-05 0 9.27298e-06 3.7887e-05 0 9.30432e-06 3.23471e-05 0 -1.98131e-06 -2.89345e-05 0 -2.38041e-06 -3.31885e-05 0 -3.57118e-06 -3.86014e-05 0 -6.16051e-06 -4.57515e-05 0 -1.14813e-05 -5.40999e-05 0 -2.27995e-05 -6.67704e-05 0 -4.06024e-05 -6.137e-05 0 -4.91512e-05 -4.979e-05 0 -5.40897e-05 -4.06216e-05 0 -5.68071e-05 -3.28614e-05 0 -5.85172e-05 -2.61322e-05 0 -5.95203e-05 -2.02126e-05 0 -6.01427e-05 -1.48622e-05 0 -6.05037e-05 -9.9294e-06 0 -6.07042e-05 -5.26273e-06 0 -6.07867e-05 -7.44126e-07 0 -6.07726e-05 3.74278e-06 0 -6.06577e-05 8.30559e-06 0 -6.04113e-05 1.30606e-05 0 -5.99814e-05 1.81255e-05 0 -5.92548e-05 2.36503e-05 0 -5.8099e-05 2.97831e-05 0 -5.61711e-05 3.67575e-05 0 -5.31535e-05 4.47823e-05 0 -4.7814e-05 5.42151e-05 0 -3.87495e-05 6.60284e-05 0 -2.03083e-05 7.15915e-05 0 -8.24002e-06 5.89629e-05 0 -2.08421e-06 5.0485e-05 0 1.36464e-06 4.2992e-05 0 3.37202e-06 3.70046e-05 0 4.44231e-06 3.19345e-05 0 -5.50036e-06 -2.83124e-05 0 -6.80067e-06 -3.19366e-05 0 -9.00734e-06 -3.6305e-05 0 -1.27025e-05 -4.12971e-05 0 -1.87952e-05 -4.66735e-05 0 -2.85747e-05 -5.03295e-05 0 -4.05441e-05 -4.8749e-05 0 -4.91413e-05 -4.30372e-05 0 -5.46642e-05 -3.654e-05 0 -5.82586e-05 -3.02899e-05 0 -6.06211e-05 -2.45084e-05 0 -6.21885e-05 -1.91676e-05 0 -6.32164e-05 -1.42083e-05 0 -6.38713e-05 -9.53472e-06 0 -6.42505e-05 -5.0606e-06 0 -6.44115e-05 -6.95503e-07 0 -6.43774e-05 3.64461e-06 0 -6.41442e-05 8.04536e-06 0 -6.368e-05 1.25901e-05 0 -6.29184e-05 1.73679e-05 0 -6.17519e-05 2.2462e-05 0 -6.00028e-05 2.79633e-05 0 -5.74038e-05 3.39227e-05 0 -5.35057e-05 4.03555e-05 0 -4.76019e-05 4.7022e-05 0 -3.85395e-05 5.28657e-05 0 -2.60225e-05 5.451e-05 0 -1.56235e-05 5.08168e-05 0 -8.86813e-06 4.52696e-05 0 -4.50438e-06 3.99496e-05 0 -1.68032e-06 3.50877e-05 0 1.42111e-07 3.083e-05 0 -8.50471e-06 -2.70376e-05 0 -1.03451e-05 -2.99681e-05 0 -1.30242e-05 -3.32216e-05 0 -1.69085e-05 -3.65969e-05 0 -2.2376e-05 -3.95172e-05 0 -2.9502e-05 -4.1095e-05 0 -3.73665e-05 -3.99614e-05 0 -4.40836e-05 -3.65899e-05 0 -4.92108e-05 -3.20937e-05 0 -5.29218e-05 -2.72482e-05 0 -5.55691e-05 -2.24189e-05 0 -5.74303e-05 -1.77485e-05 0 -5.87153e-05 -1.3263e-05 0 -5.95639e-05 -8.94416e-06 0 -6.00691e-05 -4.74816e-06 0 -6.02848e-05 -6.23302e-07 0 -6.02349e-05 3.48713e-06 0 -5.99156e-05 7.63965e-06 0 -5.92954e-05 1.189e-05 0 -5.83125e-05 1.62879e-05 0 -5.68653e-05 2.08736e-05 0 -5.48057e-05 2.56596e-05 0 -5.19151e-05 3.06119e-05 0 -4.79081e-05 3.5576e-05 0 -4.24267e-05 4.01714e-05 0 -3.52957e-05 4.36033e-05 0 -2.69612e-05 4.47368e-05 0 -1.93225e-05 4.30755e-05 0 -1.33197e-05 3.99681e-05 0 -8.9097e-06 3.62888e-05 0 -5.74778e-06 3.26124e-05 0 -3.51091e-06 2.91449e-05 0 -1.09724e-05 -2.53565e-05 0 -1.3061e-05 -2.76398e-05 0 -1.58431e-05 -2.99974e-05 0 -1.94993e-05 -3.21912e-05 0 -2.41251e-05 -3.38501e-05 0 -2.95596e-05 -3.43722e-05 0 -3.52018e-05 -3.34974e-05 0 -4.04906e-05 -3.12023e-05 0 -4.48974e-05 -2.79308e-05 0 -4.83744e-05 -2.4147e-05 0 -5.10141e-05 -2.01594e-05 0 -5.29694e-05 -1.6134e-05 0 -5.43708e-05 -1.21494e-05 0 -5.53238e-05 -8.22824e-06 0 -5.59011e-05 -4.36465e-06 0 -5.61487e-05 -5.36119e-07 0 -5.60867e-05 3.28684e-06 0 -5.57118e-05 7.13597e-06 0 -5.49973e-05 1.10397e-05 0 -5.38906e-05 1.50182e-05 0 -5.23124e-05 1.90737e-05 0 -5.01506e-05 2.31781e-05 0 -4.72688e-05 2.72451e-05 0 -4.35094e-05 3.1099e-05 0 -3.87775e-05 3.44185e-05 0 -3.31214e-05 3.67251e-05 0 -2.70758e-05 3.7559e-05 0 -2.12123e-05 3.69281e-05 0 -1.61499e-05 3.50798e-05 0 -1.20708e-05 3.26087e-05 0 -8.90684e-06 2.98857e-05 0 -6.49935e-06 2.71616e-05 0 -1.29295e-05 -2.34814e-05 0 -1.50867e-05 -2.52223e-05 0 -1.77783e-05 -2.68961e-05 0 -2.10772e-05 -2.8322e-05 0 -2.49758e-05 -2.92321e-05 0 -2.93222e-05 -2.9385e-05 0 -3.3836e-05 -2.85437e-05 0 -3.80728e-05 -2.67687e-05 0 -4.18111e-05 -2.42487e-05 0 -4.4918e-05 -2.12289e-05 0 -4.74001e-05 -1.79207e-05 0 -4.93114e-05 -1.44713e-05 0 -5.07263e-05 -1.0967e-05 0 -5.17103e-05 -7.45263e-06 0 -5.23151e-05 -3.94464e-06 0 -5.25744e-05 -4.43257e-07 0 -5.25035e-05 3.06009e-06 0 -5.20998e-05 6.57607e-06 0 -5.13423e-05 1.01121e-05 0 -5.01921e-05 1.36658e-05 0 -4.85922e-05 1.72173e-05 0 -4.64723e-05 2.07165e-05 0 -4.37542e-05 2.40707e-05 0 -4.03813e-05 2.71242e-05 0 -3.6346e-05 2.96559e-05 0 -3.17836e-05 3.14095e-05 0 -2.69213e-05 3.2185e-05 0 -2.22131e-05 3.19113e-05 0 -1.79526e-05 3.08175e-05 0 -1.43092e-05 2.91407e-05 0 -1.13079e-05 2.71507e-05 0 -8.89588e-06 2.50338e-05 0 -1.44562e-05 -2.15469e-05 0 -1.65731e-05 -2.28561e-05 0 -1.90918e-05 -2.40359e-05 0 -2.20316e-05 -2.49483e-05 0 -2.53525e-05 -2.54347e-05 0 -2.89343e-05 -2.53245e-05 0 -3.25672e-05 -2.45488e-05 0 -3.60708e-05 -2.30943e-05 0 -3.92377e-05 -2.10592e-05 0 -4.19694e-05 -1.85859e-05 0 -4.42261e-05 -1.58142e-05 0 -4.60192e-05 -1.28558e-05 0 -4.73792e-05 -9.79037e-06 0 -4.83427e-05 -6.66775e-06 0 -4.89412e-05 -3.51678e-06 0 -4.91968e-05 -3.51896e-07 0 -4.91198e-05 2.82008e-06 0 -4.87081e-05 5.99461e-06 0 -4.79468e-05 9.16385e-06 0 -4.68097e-05 1.23113e-05 0 -4.52615e-05 1.5405e-05 0 -4.32618e-05 1.83906e-05 0 -4.0778e-05 2.11831e-05 0 -3.77971e-05 2.3664e-05 0 -3.43597e-05 2.56856e-05 0 -3.05665e-05 2.70975e-05 0 -2.66306e-05 2.77931e-05 0 -2.27401e-05 2.77788e-05 0 -1.91157e-05 2.71185e-05 0 -1.58899e-05 2.59805e-05 0 -1.31166e-05 2.45255e-05 0 -1.07885e-05 2.2898e-05 0 -1.56292e-05 -1.96373e-05 0 -1.76531e-05 -2.06129e-05 0 -1.9975e-05 -2.14353e-05 0 -2.25896e-05 -2.20083e-05 0 -2.54528e-05 -2.2223e-05 0 -2.8474e-05 -2.19925e-05 0 -3.15338e-05 -2.12508e-05 0 -3.44721e-05 -2.00054e-05 0 -3.71788e-05 -1.83064e-05 0 -3.95636e-05 -1.62367e-05 0 -4.15829e-05 -1.38879e-05 0 -4.32228e-05 -1.13429e-05 0 -4.44904e-05 -8.66715e-06 0 -4.54008e-05 -5.90896e-06 0 -4.59706e-05 -3.10147e-06 0 -4.62122e-05 -2.67324e-07 0 -4.61313e-05 2.57705e-06 0 -4.57264e-05 5.4169e-06 0 -4.4988e-05 8.23489e-06 0 -4.39005e-05 1.10066e-05 0 -4.24447e-05 1.3696e-05 0 -4.0603e-05 1.62514e-05 0 -3.83667e-05 1.86026e-05 0 -3.57495e-05 2.06612e-05 0 -3.27958e-05 2.23299e-05 0 -2.95989e-05 2.35197e-05 0 -2.62733e-05 2.41745e-05 0 -2.2986e-05 2.42821e-05 0 -1.98645e-05 2.39054e-05 0 -1.70092e-05 2.31303e-05 0 -1.44739e-05 2.20677e-05 0 -1.2274e-05 2.08184e-05 0 -1.65237e-05 -1.7797e-05 0 -1.84306e-05 -1.85179e-05 0 -2.05582e-05 -1.9084e-05 0 -2.28913e-05 -1.94255e-05 0 -2.53886e-05 -1.94723e-05 0 -2.79819e-05 -1.91623e-05 0 -3.05774e-05 -1.84655e-05 0 -3.30878e-05 -1.73765e-05 0 -3.54175e-05 -1.59255e-05 0 -3.75008e-05 -1.41646e-05 0 -3.92926e-05 -1.21552e-05 0 -4.07711e-05 -9.95736e-06 0 -4.19293e-05 -7.62394e-06 0 -4.27697e-05 -5.19763e-06 0 -4.32979e-05 -2.71183e-06 0 -4.35193e-05 -1.92669e-07 0 -4.34363e-05 2.33809e-06 0 -4.30477e-05 4.8599e-06 0 -4.23484e-05 7.35023e-06 0 -4.13305e-05 9.78143e-06 0 -3.99864e-05 1.21178e-05 0 -3.83123e-05 1.43135e-05 0 -3.63142e-05 1.63123e-05 0 -3.40142e-05 1.80497e-05 0 -3.14584e-05 1.94597e-05 0 -2.87156e-05 2.0486e-05 0 -2.58851e-05 2.10941e-05 0 -2.30597e-05 2.1286e-05 0 -2.03398e-05 2.109e-05 0 -1.78008e-05 2.05679e-05 0 -1.54918e-05 1.97917e-05 0 -1.34346e-05 1.88353e-05 0 -1.71996e-05 -1.6048e-05 0 -1.8984e-05 -1.65757e-05 0 -2.09316e-05 -1.69565e-05 0 -2.30236e-05 -1.71405e-05 0 -2.52245e-05 -1.70787e-05 0 -2.74812e-05 -1.67326e-05 0 -2.97306e-05 -1.60776e-05 0 -3.18983e-05 -1.51129e-05 0 -3.39219e-05 -1.38561e-05 0 -3.5746e-05 -1.23408e-05 0 -3.73319e-05 -1.06093e-05 0 -3.86544e-05 -8.70578e-06 0 -3.97002e-05 -6.67197e-06 0 -4.04641e-05 -4.54457e-06 0 -4.0945e-05 -2.3548e-06 0 -4.11435e-05 -1.29407e-07 0 -4.10598e-05 2.10773e-06 0 -4.06928e-05 4.3335e-06 0 -4.00406e-05 6.52337e-06 0 -3.91008e-05 8.64934e-06 0 -3.78731e-05 1.06783e-05 0 -3.6362e-05 1.25711e-05 0 -3.45804e-05 1.42832e-05 0 -3.25538e-05 1.57669e-05 0 -3.03227e-05 1.69768e-05 0 -2.79447e-05 1.78759e-05 0 -2.54855e-05 1.84436e-05 0 -2.30242e-05 1.86784e-05 0 -2.06289e-05 1.86042e-05 0 -1.83584e-05 1.82592e-05 0 -1.6254e-05 1.76944e-05 0 -1.43398e-05 1.69627e-05 0 -1.77067e-05 -1.43973e-05 0 -1.93718e-05 -1.4779e-05 0 -2.11573e-05 -1.50262e-05 0 -2.30444e-05 -1.51025e-05 0 -2.50023e-05 -1.49737e-05 0 -2.69896e-05 -1.46122e-05 0 -2.89556e-05 -1.40032e-05 0 -3.08502e-05 -1.31441e-05 0 -3.26214e-05 -1.20466e-05 0 -3.42263e-05 -1.07336e-05 0 -3.56305e-05 -9.23488e-06 0 -3.68095e-05 -7.58358e-06 0 -3.77477e-05 -5.81267e-06 0 -3.84356e-05 -3.95307e-06 0 -3.88684e-05 -2.03291e-06 0 -3.90437e-05 -7.77565e-08 0 -3.89601e-05 1.88851e-06 0 -3.86171e-05 3.8424e-06 0 -3.80145e-05 5.75952e-06 0 -3.71537e-05 7.61326e-06 0 -3.60387e-05 9.37397e-06 0 -3.46782e-05 1.10088e-05 0 -3.30884e-05 1.24825e-05 0 -3.12942e-05 1.37596e-05 0 -2.93314e-05 1.48075e-05 0 -2.7245e-05 1.5601e-05 0 -2.50901e-05 1.61264e-05 0 -2.29203e-05 1.63847e-05 0 -2.07906e-05 1.63903e-05 0 -1.87466e-05 1.61711e-05 0 -1.68235e-05 1.57627e-05 0 -1.50442e-05 1.52043e-05 0 -1.80833e-05 -1.28444e-05 0 -1.96372e-05 -1.31161e-05 0 -2.12796e-05 -1.32672e-05 0 -2.29924e-05 -1.3271e-05 0 -2.47494e-05 -1.31026e-05 0 -2.65172e-05 -1.27431e-05 0 -2.82576e-05 -1.21812e-05 0 -2.99288e-05 -1.14155e-05 0 -3.1492e-05 -1.04539e-05 0 -3.29116e-05 -9.3125e-06 0 -3.41583e-05 -8.01301e-06 0 -3.52095e-05 -6.58061e-06 0 -3.60488e-05 -5.04155e-06 0 -3.66654e-05 -3.42169e-06 0 -3.70523e-05 -1.74573e-06 0 -3.72054e-05 -3.71398e-08 0 -3.71227e-05 1.68149e-06 0 -3.68038e-05 3.38771e-06 0 -3.62499e-05 5.05851e-06 0 -3.54643e-05 6.66961e-06 0 -3.44535e-05 8.19509e-06 0 -3.32283e-05 9.60759e-06 0 -3.18052e-05 1.08791e-05 0 -3.02079e-05 1.19826e-05 0 -2.84669e-05 1.28944e-05 0 -2.66197e-05 1.35966e-05 0 -2.47075e-05 1.40801e-05 0 -2.27753e-05 1.43451e-05 0 -2.08644e-05 1.44029e-05 0 -1.90119e-05 1.42727e-05 0 -1.72472e-05 1.39806e-05 0 -1.55916e-05 1.35557e-05 0 -1.836e-05 -1.13841e-05 0 -1.98128e-05 -1.15733e-05 0 -2.133e-05 -1.16562e-05 0 -2.28948e-05 -1.16124e-05 0 -2.44848e-05 -1.14241e-05 0 -2.60725e-05 -1.10774e-05 0 -2.76267e-05 -1.05645e-05 0 -2.91152e-05 -9.88419e-06 0 -3.0506e-05 -9.04212e-06 0 -3.17698e-05 -8.05001e-06 0 -3.28816e-05 -6.92423e-06 0 -3.38209e-05 -5.68422e-06 0 -3.45723e-05 -4.35103e-06 0 -3.51242e-05 -2.94618e-06 0 -3.5469e-05 -1.49104e-06 0 -3.5602e-05 -6.52209e-09 0 -3.55206e-05 1.48676e-06 0 -3.52248e-05 2.96822e-06 0 -3.47163e-05 4.41693e-06 0 -3.39997e-05 5.81131e-06 0 -3.30824e-05 7.12907e-06 0 -3.1976e-05 8.3475e-06 0 -3.06965e-05 9.44423e-06 0 -2.92652e-05 1.03984e-05 0 -2.77085e-05 1.11922e-05 0 -2.60571e-05 1.18127e-05 0 -2.43455e-05 1.22533e-05 0 -2.2608e-05 1.25146e-05 0 -2.08787e-05 1.26043e-05 0 -1.91878e-05 1.25367e-05 0 -1.75603e-05 1.23311e-05 0 -1.60156e-05 1.20092e-05 0 -1.85603e-05 -1.00088e-05 0 -1.9923e-05 -1.01368e-05 0 -2.13318e-05 -1.0172e-05 0 -2.27712e-05 -1.00992e-05 0 -2.42219e-05 -9.90499e-06 0 -2.56608e-05 -9.57932e-06 0 -2.70626e-05 -9.11644e-06 0 -2.84003e-05 -8.51563e-06 0 -2.96481e-05 -7.78111e-06 0 -3.07813e-05 -6.9217e-06 0 -3.17786e-05 -5.94995e-06 0 -3.26217e-05 -4.88109e-06 0 -3.32962e-05 -3.73212e-06 0 -3.37911e-05 -2.52089e-06 0 -3.40986e-05 -1.26565e-06 0 -3.42137e-05 1.53345e-08 0 -3.41339e-05 1.30379e-06 0 -3.38593e-05 2.58137e-06 0 -3.33919e-05 3.82955e-06 0 -3.27368e-05 5.02954e-06 0 -3.19018e-05 6.1624e-06 0 -3.08982e-05 7.20936e-06 0 -2.9741e-05 8.15244e-06 0 -2.84493e-05 8.97531e-06 0 -2.70457e-05 9.66441e-06 0 -2.55562e-05 1.02101e-05 0 -2.40087e-05 1.06073e-05 0 -2.2432e-05 1.08567e-05 0 -2.08538e-05 1.09638e-05 0 -1.92991e-05 1.09394e-05 0 -1.77898e-05 1.07977e-05 0 -1.63429e-05 1.05554e-05 0 -1.87029e-05 -8.7099e-06 0 -1.99865e-05 -8.79308e-06 0 -2.13022e-05 -8.79628e-06 0 -2.26358e-05 -8.70794e-06 0 -2.39703e-05 -8.51805e-06 0 -2.52862e-05 -8.21917e-06 0 -2.6562e-05 -7.80716e-06 0 -2.77756e-05 -7.28155e-06 0 -2.89049e-05 -6.64563e-06 0 -2.99293e-05 -5.9062e-06 0 -3.08302e-05 -5.07304e-06 0 -3.15915e-05 -4.15823e-06 0 -3.22e-05 -3.1755e-06 0 -3.26456e-05 -2.13963e-06 0 -3.29207e-05 -1.066e-06 0 -3.30204e-05 2.97112e-08 0 -3.29424e-05 1.13166e-06 0 -3.26866e-05 2.22388e-06 0 -3.22556e-05 3.29033e-06 0 -3.16542e-05 4.31493e-06 0 -3.08903e-05 5.28177e-06 0 -2.99745e-05 6.17539e-06 0 -2.89206e-05 6.98131e-06 0 -2.77455e-05 7.68665e-06 0 -2.64689e-05 8.2809e-06 0 -2.51129e-05 8.75664e-06 0 -2.3701e-05 9.11014e-06 0 -2.22572e-05 9.3417e-06 0 -2.08045e-05 9.45557e-06 0 -1.93645e-05 9.45967e-06 0 -1.7956e-05 9.36485e-06 0 -1.65943e-05 9.18382e-06 0 -1.88022e-05 -7.47824e-06 0 -2.00175e-05 -7.52928e-06 0 -2.1254e-05 -7.51236e-06 0 -2.24989e-05 -7.41865e-06 0 -2.37371e-05 -7.24064e-06 0 -2.49516e-05 -6.9728e-06 0 -2.6124e-05 -6.61212e-06 0 -2.72354e-05 -6.15837e-06 0 -2.82671e-05 -5.61417e-06 0 -2.92013e-05 -4.98483e-06 0 -3.00219e-05 -4.27805e-06 0 -3.07145e-05 -3.50345e-06 0 -3.12674e-05 -2.67212e-06 0 -3.16711e-05 -1.79619e-06 0 -3.19186e-05 -8.88463e-07 0 -3.20053e-05 3.78355e-08 0 -3.1929e-05 9.6924e-07 0 -3.16898e-05 1.89216e-06 0 -3.12901e-05 2.79297e-06 0 -3.07348e-05 3.65816e-06 0 -3.00313e-05 4.47451e-06 0 -2.91894e-05 5.2294e-06 0 -2.82219e-05 5.91116e-06 0 -2.71436e-05 6.5096e-06 0 -2.59719e-05 7.01651e-06 0 -2.47258e-05 7.42613e-06 0 -2.34252e-05 7.73558e-06 0 -2.20908e-05 7.94501e-06 0 -2.07421e-05 8.05759e-06 0 -1.93979e-05 8.07926e-06 0 -1.80746e-05 8.01826e-06 0 -1.67862e-05 7.88434e-06 0 -1.88695e-05 -6.30475e-06 0 -2.00268e-05 -6.33347e-06 0 -2.11971e-05 -6.30546e-06 0 -2.23685e-05 -6.21401e-06 0 -2.35274e-05 -6.05346e-06 0 -2.46589e-05 -5.81973e-06 0 -2.57469e-05 -5.51064e-06 0 -2.6775e-05 -5.12611e-06 0 -2.7727e-05 -4.66824e-06 0 -2.85874e-05 -4.14123e-06 0 -2.93418e-05 -3.55113e-06 0 -2.99778e-05 -2.90557e-06 0 -3.04844e-05 -2.21345e-06 0 -3.08532e-05 -1.48461e-06 0 -3.10777e-05 -7.29537e-07 0 -3.11537e-05 4.08331e-08 0 -3.1079e-05 8.15303e-07 0 -3.08538e-05 1.58256e-06 0 -3.04807e-05 2.33128e-06 0 -2.9964e-05 3.05033e-06 0 -2.93109e-05 3.72889e-06 0 -2.85305e-05 4.35677e-06 0 -2.76342e-05 4.92465e-06 0 -2.66354e-05 5.4245e-06 0 -2.55495e-05 5.84988e-06 0 -2.4393e-05 6.19632e-06 0 -2.31833e-05 6.46155e-06 0 -2.19383e-05 6.64562e-06 0 -2.0675e-05 6.75089e-06 0 -1.941e-05 6.78182e-06 0 -1.81578e-05 6.74463e-06 0 -1.69313e-05 6.64679e-06 0 -1.89137e-05 -5.18044e-06 0 -2.00229e-05 -5.19442e-06 0 -2.11387e-05 -5.16219e-06 0 -2.22502e-05 -5.07872e-06 0 -2.3345e-05 -4.93978e-06 0 -2.44095e-05 -4.74238e-06 0 -2.54297e-05 -4.48495e-06 0 -2.63909e-05 -4.16753e-06 0 -2.72788e-05 -3.79178e-06 0 -2.80796e-05 -3.36099e-06 0 -2.87807e-05 -2.87987e-06 0 -2.93706e-05 -2.35441e-06 0 -2.98397e-05 -1.79162e-06 0 -3.018e-05 -1.19933e-06 0 -3.03858e-05 -5.8595e-07 0 -3.0453e-05 3.97098e-08 0 -3.03797e-05 6.68585e-07 0 -3.01663e-05 1.29151e-06 0 -2.9815e-05 1.89933e-06 0 -2.93302e-05 2.48307e-06 0 -2.87183e-05 3.03411e-06 0 -2.79878e-05 3.54434e-06 0 -2.71493e-05 4.00646e-06 0 -2.62147e-05 4.4142e-06 0 -2.51978e-05 4.76257e-06 0 -2.41134e-05 5.04811e-06 0 -2.29768e-05 5.26905e-06 0 -2.18037e-05 5.42539e-06 0 -2.06096e-05 5.51884e-06 0 -1.94088e-05 5.55271e-06 0 -1.82149e-05 5.53169e-06 0 -1.70396e-05 5.46143e-06 0 -1.89416e-05 -4.09661e-06 0 -2.00121e-05 -4.1016e-06 0 -2.10845e-05 -4.07033e-06 0 -2.21485e-05 -3.99909e-06 0 -2.31926e-05 -3.8848e-06 0 -2.42046e-05 -3.72532e-06 0 -2.51715e-05 -3.51953e-06 0 -2.60802e-05 -3.26753e-06 0 -2.69178e-05 -2.97062e-06 0 -2.76719e-05 -2.63129e-06 0 -2.83309e-05 -2.25313e-06 0 -2.88846e-05 -1.84071e-06 0 -2.93239e-05 -1.3994e-06 0 -2.96418e-05 -9.35217e-07 0 -2.98327e-05 -4.54683e-07 0 -2.9893e-05 3.53527e-08 0 -2.98211e-05 5.27827e-07 0 -2.96171e-05 1.01559e-06 0 -2.92832e-05 1.49151e-06 0 -2.88237e-05 1.94862e-06 0 -2.82445e-05 2.38026e-06 0 -2.75536e-05 2.7802e-06 0 -2.67606e-05 3.14288e-06 0 -2.58765e-05 3.46352e-06 0 -2.49139e-05 3.73837e-06 0 -2.38859e-05 3.9648e-06 0 -2.28067e-05 4.14146e-06 0 -2.16902e-05 4.26831e-06 0 -2.05504e-05 4.34658e-06 0 -1.94006e-05 4.37867e-06 0 -1.82531e-05 4.36804e-06 0 -1.71188e-05 4.31886e-06 0 -1.89585e-05 -3.04479e-06 0 -1.99993e-05 -3.04506e-06 0 -2.10385e-05 -3.01855e-06 0 -2.20665e-05 -2.96265e-06 0 -2.30723e-05 -2.87521e-06 0 -2.40446e-05 -2.75475e-06 0 -2.49715e-05 -2.60053e-06 0 -2.58408e-05 -2.41265e-06 0 -2.66406e-05 -2.19206e-06 0 -2.73594e-05 -1.94058e-06 0 -2.79868e-05 -1.66079e-06 0 -2.85131e-05 -1.35601e-06 0 -2.893e-05 -1.03012e-06 0 -2.92309e-05 -6.87514e-07 0 -2.94106e-05 -3.32953e-07 0 -2.94657e-05 2.85426e-08 0 -2.93948e-05 3.91788e-07 0 -2.91979e-05 7.51529e-07 0 -2.88774e-05 1.10254e-06 0 -2.84371e-05 1.43972e-06 0 -2.78828e-05 1.7582e-06 0 -2.72218e-05 2.05348e-06 0 -2.64631e-05 2.3215e-06 0 -2.56171e-05 2.55884e-06 0 -2.46953e-05 2.76279e-06 0 -2.37098e-05 2.93147e-06 0 -2.26737e-05 3.06389e-06 0 -2.15999e-05 3.16001e-06 0 -2.05012e-05 3.22065e-06 0 -1.93899e-05 3.24751e-06 0 -1.82777e-05 3.24299e-06 0 -1.71749e-05 3.21004e-06 0 -1.89679e-05 -2.01676e-06 0 -1.99878e-05 -2.01533e-06 0 -2.10037e-05 -1.99625e-06 0 -2.20064e-05 -1.95785e-06 0 -2.29855e-05 -1.89877e-06 0 -2.39301e-05 -1.81809e-06 0 -2.4829e-05 -1.71534e-06 0 -2.56708e-05 -1.59061e-06 0 -2.64443e-05 -1.44454e-06 0 -2.71387e-05 -1.27829e-06 0 -2.7744e-05 -1.09356e-06 0 -2.82511e-05 -8.92486e-07 0 -2.86524e-05 -6.77618e-07 0 -2.89414e-05 -4.51814e-07 0 -2.91133e-05 -2.18187e-07 0 -2.91648e-05 1.99714e-08 0 -2.90946e-05 2.59258e-07 0 -2.89029e-05 4.96225e-07 0 -2.85917e-05 7.27445e-07 0 -2.81649e-05 9.49578e-07 0 -2.76279e-05 1.15944e-06 0 -2.69878e-05 1.3541e-06 0 -2.62532e-05 1.53092e-06 0 -2.54337e-05 1.68768e-06 0 -2.45403e-05 1.82263e-06 0 -2.35845e-05 1.93455e-06 0 -2.25784e-05 2.02279e-06 0 -2.15343e-05 2.08731e-06 0 -2.04643e-05 2.12863e-06 0 -1.93801e-05 2.14781e-06 0 -1.82926e-05 2.14639e-06 0 -1.7212e-05 2.12625e-06 0 -1.89726e-05 -1.00446e-06 0 -1.99799e-05 -1.00328e-06 0 -2.09821e-05 -9.93322e-07 0 -2.19698e-05 -9.7379e-07 0 -2.2933e-05 -9.44024e-07 0 -2.38613e-05 -9.03572e-07 0 -2.47438e-05 -8.5222e-07 0 -2.55694e-05 -7.90013e-07 0 -2.63273e-05 -7.17267e-07 0 -2.70072e-05 -6.34561e-07 0 -2.75994e-05 -5.42726e-07 0 -2.80953e-05 -4.4282e-07 0 -2.84873e-05 -3.36096e-07 0 -2.87693e-05 -2.23966e-07 0 -2.89366e-05 -1.0797e-07 0 -2.8986e-05 1.02641e-08 0 -2.89162e-05 1.29051e-07 0 -2.87275e-05 2.46683e-07 0 -2.84219e-05 3.61464e-07 0 -2.80031e-05 4.71742e-07 0 -2.74764e-05 5.75945e-07 0 -2.68487e-05 6.72624e-07 0 -2.61282e-05 7.60485e-07 0 -2.53244e-05 8.38432e-07 0 -2.44478e-05 9.05605e-07 0 -2.35095e-05 9.61405e-07 0 -2.25211e-05 1.00551e-06 0 -2.14946e-05 1.0379e-06 0 -2.04415e-05 1.05882e-06 0 -1.93733e-05 1.06879e-06 0 -1.83006e-05 1.06854e-06 0 -1.72331e-05 1.05901e-06 0 -1.8974e-05 -0 0 -1.99772e-05 -1.32838e-19 0 -2.09747e-05 1.11349e-19 0 -2.19574e-05 8.48542e-20 0 -2.29155e-05 -0 0 -2.38384e-05 -0 0 -2.47154e-05 -0 0 -2.55356e-05 -0 0 -2.62884e-05 -0 0 -2.69635e-05 -0 0 -2.75515e-05 -1.35806e-20 0 -2.80436e-05 -1.93663e-19 0 -2.84326e-05 -3.04124e-20 0 -2.87122e-05 2.02243e-19 0 -2.88779e-05 4.11377e-20 0 -2.89267e-05 -0 0 -2.8857e-05 -0 0 -2.86693e-05 -0 0 -2.83656e-05 4.53014e-20 0 -2.79494e-05 1.95217e-19 0 -2.74261e-05 1.63578e-20 0 -2.68025e-05 -0 0 -2.60867e-05 -0 0 -2.52881e-05 -0 0 -2.4417e-05 -6.93251e-20 0 -2.34845e-05 -1.45973e-19 0 -2.2502e-05 -2.77291e-21 0 -2.14812e-05 -0 0 -2.04338e-05 -0 0 -1.93709e-05 -0 0 -1.83031e-05 -0 0 -1.724e-05 -0 0 </DataArray> 
</PointData> 
<Points> 
<DataArray type="Float32" NumberOfComponents="3"> 