<?xml version="1.0"?> 
<VTKFile type="StructuredGrid" version="0.1"> 
<StructuredGrid WholeExtent="0 31 0 31 0 0"> 
<Piece Extent="0 31 0 31 0 0"> 
<PointData>
<DataArray type="Float32" Name="B" format="ascii" NumberOfComponents="3"> 
-4.79557e-05 -0 0 -5.04111e-05 -0 0 -5.28383e-05 -0 0 -5.52178e-05 -0 0 -5.75292e-05 -0 0 -5.97521e-05 -0 0 -6.18658e-05 -0 0 -6.38504e-05 -0 0 -6.56867e-05 -0 0 -6.73565e-05 -0 0 -6.88432e-05 -0 0 -7.01322e-05 -0 0 -7.12105e-05 -0 0 -7.20675e-05 -0 0 -7.26951e-05 -0 0 -7.30872e-05 -0 0 -7.32406e-05 -0 0 -7.31543e-05 -0 0 -7.283e-05 -0 0 -7.22718e-05 -0 0 -7.14862e-05 -0 0 -7.0482e-05 -0 0 -6.92703e-05 -0 0 -6.7864e-05 -0 0 -6.6278e-05 -0 0 -6.45286e-05 -0 0 -6.26333e-05 -0 0 -6.06106e-05 -0 0 -5.84796e-05 -0 0 -5.62595e-05 -0 0 -5.39695e-05 -0 0 -5.16284e-05 -0 0 -4.79604e-05 2.46617e-06 0 -5.04251e-05 2.4477e-06 0 -5.28621e-05 2.41001e-06 0 -5.52518e-05 2.35228e-06 0 -5.75735e-05 2.27402e-06 0 -5.98066e-05 2.1751e-06 0 -6.19305e-05 2.05576e-06 0 -6.39247e-05 1.91666e-06 0 -6.577e-05 1.7588e-06 0 -6.74481e-05 1.58351e-06 0 -6.89423e-05 1.39246e-06 0 -7.02376e-05 1.18753e-06 0 -7.13213e-05 9.70847e-07 0 -7.21825e-05 7.44668e-07 0 -7.2813e-05 5.11385e-07 0 -7.32068e-05 2.73462e-07 0 -7.33606e-05 3.34075e-08 0 -7.32735e-05 -2.06259e-07 0 -7.29471e-05 -4.43036e-07 0 -7.23856e-05 -6.74472e-07 0 -7.15956e-05 -8.98194e-07 0 -7.05859e-05 -1.11195e-06 0 -6.93677e-05 -1.31363e-06 0 -6.7954e-05 -1.50133e-06 0 -6.63598e-05 -1.67338e-06 0 -6.46016e-05 -1.82839e-06 0 -6.26971e-05 -1.96527e-06 0 -6.06648e-05 -2.08327e-06 0 -5.85241e-05 -2.18199e-06 0 -5.62944e-05 -2.26137e-06 0 -5.39951e-05 -2.32169e-06 0 -5.16449e-05 -2.36353e-06 0 -4.79738e-05 4.95044e-06 0 -5.04666e-05 4.91465e-06 0 -5.29333e-05 4.84012e-06 0 -5.53535e-05 4.72517e-06 0 -5.77064e-05 4.56877e-06 0 -5.99706e-05 4.37066e-06 0 -6.21248e-05 4.13136e-06 0 -6.41482e-05 3.85214e-06 0 -6.60208e-05 3.53506e-06 0 -6.7724e-05 3.18284e-06 0 -6.92405e-05 2.79883e-06 0 -7.05552e-05 2.38686e-06 0 -7.16549e-05 1.95121e-06 0 -7.25286e-05 1.49645e-06 0 -7.31679e-05 1.02742e-06 0 -7.35669e-05 5.49057e-07 0 -7.3722e-05 6.6424e-08 0 -7.36324e-05 -4.15415e-07 0 -7.32998e-05 -8.91427e-07 0 -7.27285e-05 -1.35668e-06 0 -7.19251e-05 -1.80639e-06 0 -7.08988e-05 -2.236e-06 0 -6.96609e-05 -2.64127e-06 0 -6.82248e-05 -3.01835e-06 0 -6.66059e-05 -3.36385e-06 0 -6.48211e-05 -3.67496e-06 0 -6.28886e-05 -3.94948e-06 0 -6.08275e-05 -4.18588e-06 0 -5.86576e-05 -4.38338e-06 0 -5.63989e-05 -4.54186e-06 0 -5.40712e-05 -4.66191e-06 0 -5.16939e-05 -4.74471e-06 0 -4.79939e-05 7.47118e-06 0 -5.05341e-05 7.4204e-06 0 -5.30507e-05 7.31076e-06 0 -5.55227e-05 7.13962e-06 0 -5.79281e-05 6.90536e-06 0 -6.02446e-05 6.60756e-06 0 -6.24501e-05 6.24698e-06 0 -6.45226e-05 5.8256e-06 0 -6.64413e-05 5.34656e-06 0 -6.81867e-05 4.81406e-06 0 -6.9741e-05 4.23321e-06 0 -7.10882e-05 3.60992e-06 0 -7.22148e-05 2.9507e-06 0 -7.31095e-05 2.26255e-06 0 -7.37637e-05 1.55278e-06 0 -7.41712e-05 8.28929e-07 0 -7.43284e-05 9.86399e-08 0 -7.42347e-05 -6.30412e-07 0 -7.38916e-05 -1.35061e-06 0 -7.33037e-05 -2.05446e-06 0 -7.24779e-05 -2.73472e-06 0 -7.14235e-05 -3.38446e-06 0 -7.01525e-05 -3.9972e-06 0 -6.86787e-05 -4.56704e-06 0 -6.70181e-05 -5.08883e-06 0 -6.51885e-05 -5.55824e-06 0 -6.32087e-05 -5.97191e-06 0 -6.1099e-05 -6.32753e-06 0 -5.88799e-05 -6.62389e-06 0 -5.65723e-05 -6.86088e-06 0 -5.41969e-05 -7.03943e-06 0 -5.17738e-05 -7.16141e-06 0 -4.80175e-05 1.00472e-05 0 -5.0625e-05 9.98513e-06 0 -5.32126e-05 9.84308e-06 0 -5.57582e-05 9.61737e-06 0 -5.82386e-05 9.30571e-06 0 -6.06299e-05 8.90744e-06 0 -6.29084e-05 8.4236e-06 0 -6.5051e-05 7.8569e-06 0 -6.70354e-05 7.21169e-06 0 -6.8841e-05 6.49375e-06 0 -7.04488e-05 5.71015e-06 0 -7.18422e-05 4.86899e-06 0 -7.3007e-05 3.9792e-06 0 -7.39315e-05 3.0503e-06 0 -7.46066e-05 2.09225e-06 0 -7.50261e-05 1.11524e-06 0 -7.51864e-05 1.2961e-07 0 -7.50867e-05 -8.54289e-07 0 -7.47288e-05 -1.82617e-06 0 -7.41173e-05 -2.7759e-06 0 -7.32595e-05 -3.69366e-06 0 -7.21653e-05 -4.57001e-06 0 -7.08471e-05 -5.39613e-06 0 -6.93196e-05 -6.16394e-06 0 -6.75996e-05 -6.86635e-06 0 -6.5706e-05 -7.49743e-06 0 -6.3659e-05 -8.05256e-06 0 -6.14799e-05 -8.52861e-06 0 -5.91907e-05 -8.92396e-06 0 -5.68135e-05 -9.23851e-06 0 -5.43702e-05 -9.47363e-06 0 -5.1882e-05 -9.63201e-06 0 -4.80397e-05 1.26983e-05 0 -5.07354e-05 1.263e-05 0 -5.34164e-05 1.24593e-05 0 -5.6059e-05 1.21813e-05 0 -5.86381e-05 1.17929e-05 0 -6.1128e-05 1.12932e-05 0 -6.35029e-05 1.06833e-05 0 -6.57379e-05 9.96697e-06 0 -6.78087e-05 9.14975e-06 0 -6.96933e-05 8.23928e-06 0 -7.13714e-05 7.24478e-06 0 -7.28253e-05 6.17679e-06 0 -7.404e-05 5.04686e-06 0 -7.50032e-05 3.86725e-06 0 -7.57056e-05 2.6507e-06 0 -7.61407e-05 1.41018e-06 0 -7.63049e-05 1.58834e-07 0 -7.61972e-05 -1.09022e-06 0 -7.58199e-05 -2.32391e-06 0 -7.51776e-05 -3.52939e-06 0 -7.42781e-05 -4.69409e-06 0 -7.31316e-05 -5.80594e-06 0 -7.17514e-05 -6.85353e-06 0 -7.01532e-05 -7.82644e-06 0 -6.83551e-05 -8.71543e-06 0 -6.63772e-05 -9.5128e-06 0 -6.42415e-05 -1.02126e-05 0 -6.19709e-05 -1.08107e-05 0 -5.95894e-05 -1.13051e-05 0 -5.71206e-05 -1.16958e-05 0 -5.45883e-05 -1.19847e-05 0 -5.20149e-05 -1.21756e-05 0 -4.80539e-05 1.54451e-05 0 -5.08601e-05 1.53773e-05 0 -5.36585e-05 1.51832e-05 0 -5.64232e-05 1.48561e-05 0 -5.91268e-05 1.43919e-05 0 -6.17411e-05 1.37894e-05 0 -6.42377e-05 1.30499e-05 0 -6.6589e-05 1.21782e-05 0 -6.87687e-05 1.11814e-05 0 -7.07525e-05 1.00691e-05 0 -7.25187e-05 8.85307e-06 0 -7.40481e-05 7.54665e-06 0 -7.53249e-05 6.16428e-06 0 -7.63362e-05 4.7212e-06 0 -7.70724e-05 3.23312e-06 0 -7.75267e-05 1.71596e-06 0 -7.76955e-05 1.85746e-07 0 -7.7578e-05 -1.34152e-06 0 -7.71764e-05 -2.84993e-06 0 -7.64957e-05 -4.32374e-06 0 -7.55439e-05 -5.7475e-06 0 -7.43321e-05 -7.10626e-06 0 -7.28742e-05 -8.38583e-06 0 -7.11871e-05 -9.57309e-06 0 -6.92906e-05 -1.06564e-05 0 -6.72065e-05 -1.16261e-05 0 -6.49589e-05 -1.24746e-05 0 -6.25731e-05 -1.31967e-05 0 -6.00751e-05 -1.37902e-05 0 -5.74913e-05 -1.42551e-05 0 -5.48471e-05 -1.45942e-05 0 -5.21671e-05 -1.48122e-05 0 -4.80514e-05 1.83096e-05 0 -5.09922e-05 1.82513e-05 0 -5.3934e-05 1.80404e-05 0 -5.68484e-05 1.76684e-05 0 -5.97049e-05 1.71298e-05 0 -6.2472e-05 1.64229e-05 0 -6.5118e-05 1.55494e-05 0 -6.76121e-05 1.4515e-05 0 -6.9925e-05 1.33287e-05 0 -7.203e-05 1.20029e-05 0 -7.39031e-05 1.0552e-05 0 -7.5524e-05 8.99258e-06 0 -7.68758e-05 7.34248e-06 0 -7.79449e-05 5.6202e-06 0 -7.87215e-05 3.84463e-06 0 -7.91988e-05 2.03479e-06 0 -7.9373e-05 2.09698e-07 0 -7.92435e-05 -1.61172e-06 0 -7.88125e-05 -3.41061e-06 0 -7.80853e-05 -5.16822e-06 0 -7.70703e-05 -6.86604e-06 0 -7.57791e-05 -8.48598e-06 0 -7.42265e-05 -1.00107e-05 0 -7.2431e-05 -1.1424e-05 0 -7.04139e-05 -1.27115e-05 0 -6.81995e-05 -1.3861e-05 0 -6.58146e-05 -1.48633e-05 0 -6.32873e-05 -1.5712e-05 0 -6.06467e-05 -1.64043e-05 0 -5.7922e-05 -1.69407e-05 0 -5.51415e-05 -1.73249e-05 0 -5.23319e-05 -1.75632e-05 0 -4.80212e-05 2.13158e-05 0 -5.11227e-05 2.12783e-05 0 -5.42367e-05 2.10593e-05 0 -5.73313e-05 2.06478e-05 0 -6.03723e-05 2.00367e-05 0 -6.3324e-05 1.92235e-05 0 -6.61505e-05 1.82103e-05 0 -6.88167e-05 1.7004e-05 0 -7.12898e-05 1.56162e-05 0 -7.35397e-05 1.4062e-05 0 -7.55404e-05 1.23596e-05 0 -7.72697e-05 1.05294e-05 0 -7.87098e-05 8.59293e-06 0 -7.98467e-05 6.57249e-06 0 -8.06705e-05 4.4904e-06 0 -8.11743e-05 2.36888e-06 0 -8.13546e-05 2.29961e-07 0 -8.12109e-05 -1.90447e-06 0 -8.07453e-05 -4.01258e-06 0 -7.99634e-05 -6.07256e-06 0 -7.88735e-05 -8.0626e-06 0 -7.74879e-05 -9.96112e-06 0 -7.58224e-05 -1.17472e-05 0 -7.38968e-05 -1.34011e-05 0 -7.17348e-05 -1.4905e-05 0 -6.93634e-05 -1.62438e-05 0 -6.68128e-05 -1.74061e-05 0 -6.41148e-05 -1.83841e-05 0 -6.13024e-05 -1.91747e-05 0 -5.84084e-05 -1.97789e-05 0 -5.54645e-05 -2.02017e-05 0 -5.25004e-05 -2.04514e-05 0 -4.79494e-05 2.44894e-05 0 -5.12404e-05 2.44872e-05 0 -5.45584e-05 2.42712e-05 0 -5.78676e-05 2.38275e-05 0 -6.11289e-05 2.31466e-05 0 -6.43014e-05 2.2225e-05 0 -6.73437e-05 2.1065e-05 0 -7.02152e-05 1.96754e-05 0 -7.28784e-05 1.80705e-05 0 -7.52996e-05 1.62696e-05 0 -7.74498e-05 1.42952e-05 0 -7.93054e-05 1.21725e-05 0 -8.08476e-05 9.9274e-06 0 -8.20624e-05 7.58642e-06 0 -8.294e-05 5.17556e-06 0 -8.34739e-05 2.72032e-06 0 -8.3661e-05 2.45725e-07 0 -8.35006e-05 -2.22352e-06 0 -8.29952e-05 -4.6627e-06 0 -8.21499e-05 -7.04687e-06 0 -8.09732e-05 -9.35076e-06 0 -7.94774e-05 -1.15489e-05 0 -7.76791e-05 -1.36162e-05 0 -7.55998e-05 -1.55286e-05 0 -7.32656e-05 -1.72641e-05 0 -7.07071e-05 -1.88039e-05 0 -6.79584e-05 -2.01338e-05 0 -6.50566e-05 -2.12445e-05 0 -6.20394e-05 -2.21323e-05 0 -5.89444e-05 -2.27991e-05 0 -5.58074e-05 -2.32519e-05 0 -5.26616e-05 -2.35016e-05 0 -4.78175e-05 2.78591e-05 0 -5.13303e-05 2.79102e-05 0 -5.48884e-05 2.77117e-05 0 -5.84514e-05 2.72453e-05 0 -6.19743e-05 2.64984e-05 0 -6.54093e-05 2.54658e-05 0 -6.87076e-05 2.41503e-05 0 -7.18224e-05 2.25628e-05 0 -7.47096e-05 2.07216e-05 0 -7.73311e-05 1.86509e-05 0 -7.96546e-05 1.63794e-05 0 -8.16551e-05 1.39379e-05 0 -8.33133e-05 1.13577e-05 0 -8.46157e-05 8.67013e-06 0 -8.55534e-05 5.905e-06 0 -8.61206e-05 3.09109e-06 0 -8.63149e-05 2.56138e-07 0 -8.61358e-05 -2.5726e-06 0 -8.55854e-05 -5.36778e-06 0 -8.46683e-05 -8.10144e-06 0 -8.33925e-05 -1.07447e-05 0 -8.17699e-05 -1.32678e-05 0 -7.98175e-05 -1.56406e-05 0 -7.75583e-05 -1.78336e-05 0 -7.50212e-05 -1.98195e-05 0 -7.22409e-05 -2.15749e-05 0 -6.92575e-05 -2.30817e-05 0 -6.61137e-05 -2.43286e-05 0 -6.2854e-05 -2.53117e-05 0 -5.95219e-05 -2.60342e-05 0 -5.61585e-05 -2.65056e-05 0 -5.28011e-05 -2.67407e-05 0 -4.76048e-05 3.14549e-05 0 -5.13738e-05 3.15834e-05 0 -5.52127e-05 3.14211e-05 0 -5.90748e-05 3.09447e-05 0 -6.29074e-05 3.01371e-05 0 -6.6654e-05 2.89909e-05 0 -7.02567e-05 2.75088e-05 0 -7.36584e-05 2.57049e-05 0 -7.68083e-05 2.36027e-05 0 -7.96619e-05 2.12336e-05 0 -8.21842e-05 1.86339e-05 0 -8.43484e-05 1.58418e-05 0 -8.6136e-05 1.28954e-05 0 -8.7535e-05 9.83115e-06 0 -8.8538e-05 6.68306e-06 0 -8.91413e-05 3.48281e-06 0 -8.9343e-05 2.60353e-07 0 -8.91432e-05 -2.95512e-06 0 -8.85433e-05 -6.13421e-06 0 -8.75467e-05 -9.24625e-06 0 -8.61598e-05 -1.22587e-05 0 -8.43935e-05 -1.5137e-05 0 -8.22643e-05 -1.7845e-05 0 -7.97962e-05 -2.03463e-05 0 -7.70211e-05 -2.26065e-05 0 -7.39793e-05 -2.45956e-05 0 -7.07171e-05 -2.62907e-05 0 -6.72867e-05 -2.76777e-05 0 -6.37405e-05 -2.87527e-05 0 -6.013e-05 -2.9521e-05 0 -5.65028e-05 -2.99962e-05 0 -5.2901e-05 -3.01977e-05 0 -4.72799e-05 3.53136e-05 0 -5.13464e-05 3.55472e-05 0 -5.5513e-05 3.5446e-05 0 -5.97268e-05 3.49768e-05 0 -6.39263e-05 3.41165e-05 0 -6.80432e-05 3.28534e-05 0 -7.20057e-05 3.11909e-05 0 -7.57469e-05 2.91465e-05 0 -7.92034e-05 2.67516e-05 0 -8.23248e-05 2.40473e-05 0 -8.5072e-05 2.10806e-05 0 -8.74183e-05 1.78996e-05 0 -8.93471e-05 1.45505e-05 0 -9.08496e-05 1.10756e-05 0 -9.19218e-05 7.51298e-06 0 -9.25626e-05 3.89658e-06 0 -9.27719e-05 2.5764e-07 0 -9.25499e-05 -3.37384e-06 0 -9.18972e-05 -6.96734e-06 0 -9.08149e-05 -1.04903e-05 0 -8.93067e-05 -1.39066e-05 0 -8.73802e-05 -1.71765e-05 0 -8.50505e-05 -2.02564e-05 0 -8.23413e-05 -2.31009e-05 0 -7.92881e-05 -2.56658e-05 0 -7.59369e-05 -2.79119e-05 0 -7.23456e-05 -2.98091e-05 0 -6.85751e-05 -3.13406e-05 0 -6.46907e-05 -3.25017e-05 0 -6.0754e-05 -3.33021e-05 0 -5.68206e-05 -3.37609e-05 0 -5.2938e-05 -3.39048e-05 0 -4.68128e-05 3.9466e-05 0 -5.12172e-05 3.98483e-05 0 -5.5764e-05 3.984e-05 0 -6.03922e-05 3.94021e-05 0 -6.50273e-05 3.85006e-05 0 -6.95862e-05 3.71189e-05 0 -7.39816e-05 3.52573e-05 0 -7.81235e-05 3.29404e-05 0 -8.19386e-05 3.02106e-05 0 -8.53662e-05 2.71236e-05 0 -8.83648e-05 2.37413e-05 0 -9.09093e-05 2.01248e-05 0 -9.29878e-05 1.63305e-05 0 -9.45974e-05 1.24072e-05 0 -9.57396e-05 8.39619e-06 0 -9.64178e-05 4.33269e-06 0 -9.66344e-05 2.47547e-07 0 -9.639e-05 -3.83015e-06 0 -9.56835e-05 -7.87048e-06 0 -9.45123e-05 -1.18402e-05 0 -9.28751e-05 -1.57004e-05 0 -9.07743e-05 -1.94056e-05 0 -8.82202e-05 -2.29033e-05 0 -8.52351e-05 -2.61359e-05 0 -8.18564e-05 -2.90454e-05 0 -7.81401e-05 -3.1579e-05 0 -7.41526e-05 -3.36968e-05 0 -6.99769e-05 -3.53753e-05 0 -6.5692e-05 -3.66135e-05 0 -6.13732e-05 -3.74258e-05 0 -5.7086e-05 -3.78412e-05 0 -5.28839e-05 -3.78952e-05 0 -4.61472e-05 4.39678e-05 0 -5.09435e-05 4.4536e-05 0 -5.59329e-05 4.46663e-05 0 -6.1048e-05 4.42929e-05 0 -6.6204e-05 4.33697e-05 0 -7.1295e-05 4.18651e-05 0 -7.62036e-05 3.97822e-05 0 -8.08255e-05 3.71497e-05 0 -8.50587e-05 3.40279e-05 0 -8.88344e-05 3.04951e-05 0 -9.21086e-05 2.66351e-05 0 -9.48624e-05 2.25267e-05 0 -9.7093e-05 1.82383e-05 0 -9.88073e-05 1.38253e-05 0 -0.000100016 9.33119e-06 0 -0.000100729 4.79014e-06 0 -0.000100952 2.30154e-07 0 -0.000100687 -4.32326e-06 0 -9.99291e-05 -8.84331e-06 0 -9.86711e-05 -1.32983e-05 0 -9.69032e-05 -1.7648e-05 0 -9.46185e-05 -2.18414e-05 0 -9.18184e-05 -2.58151e-05 0 -8.85194e-05 -2.94952e-05 0 -8.47612e-05 -3.28031e-05 0 -8.06066e-05 -3.56651e-05 0 -7.61502e-05 -3.80244e-05 0 -7.1487e-05 -3.98547e-05 0 -6.67254e-05 -4.11529e-05 0 -6.1959e-05 -4.1948e-05 0 -5.72644e-05 -4.22823e-05 0 -5.26998e-05 -4.22075e-05 0 -4.52469e-05 4.88267e-05 0 -5.04738e-05 4.96712e-05 0 -5.597e-05 4.99957e-05 0 -6.16616e-05 4.97384e-05 0 -6.74424e-05 4.88214e-05 0 -7.31829e-05 4.72019e-05 0 -7.8735e-05 4.48617e-05 0 -8.39301e-05 4.18509e-05 0 -8.86539e-05 3.82569e-05 0 -9.28193e-05 3.4193e-05 0 -9.63877e-05 2.97752e-05 0 -9.9352e-05 2.51065e-05 0 -0.000101727 2.02687e-05 0 -0.000103535 1.53229e-05 0 -0.000104799 1.03121e-05 0 -0.000105541 5.26611e-06 0 -0.000105769 2.06392e-07 0 -0.000105487 -4.84887e-06 0 -0.000104687 -9.87981e-06 0 -0.000103352 -1.48597e-05 0 -0.000101461 -1.975e-05 0 -9.89925e-05 -2.44951e-05 0 -9.59307e-05 -2.90195e-05 0 -9.22805e-05 -3.32273e-05 0 -8.80759e-05 -3.70092e-05 0 -8.33974e-05 -4.02585e-05 0 -7.83504e-05 -4.28933e-05 0 -7.30934e-05 -4.48671e-05 0 -6.77603e-05 -4.61992e-05 0 -6.24698e-05 -4.69314e-05 0 -5.73102e-05 -4.71337e-05 0 -5.23423e-05 -4.68728e-05 0 -4.40017e-05 5.41617e-05 0 -4.97307e-05 5.53034e-05 0 -5.58122e-05 5.59131e-05 0 -6.21771e-05 5.58433e-05 0 -6.87199e-05 5.49913e-05 0 -7.52659e-05 5.32519e-05 0 -8.15868e-05 5.06196e-05 0 -8.74927e-05 4.71405e-05 0 -9.27877e-05 4.29562e-05 0 -9.73824e-05 3.82419e-05 0 -0.000101248 3.31629e-05 0 -0.000104407 2.78516e-05 0 -0.000106901 2.2404e-05 0 -0.000108778 1.68832e-05 0 -0.00011008 1.13268e-05 0 -0.000110838 5.75524e-06 0 -0.00011107 1.78483e-07 0 -0.000110778 -5.39769e-06 0 -0.000109952 -1.09653e-05 0 -0.000108563 -1.6508e-05 0 -0.000106573 -2.19934e-05 0 -0.000103937 -2.7366e-05 0 -0.000100612 -3.25378e-05 0 -9.65756e-05 -3.73855e-05 0 -9.18509e-05 -4.17529e-05 0 -8.65196e-05 -4.54741e-05 0 -8.07683e-05 -4.84151e-05 0 -7.47724e-05 -5.0536e-05 0 -6.87472e-05 -5.18457e-05 0 -6.28452e-05 -5.24472e-05 0 -5.71611e-05 -5.24427e-05 0 -5.17473e-05 -5.1938e-05 0 -4.23965e-05 5.98453e-05 0 -4.86317e-05 6.1512e-05 0 -5.53539e-05 6.24982e-05 0 -6.25104e-05 6.27418e-05 0 -6.99797e-05 6.204e-05 0 -7.75603e-05 6.02503e-05 0 -8.49478e-05 5.72398e-05 0 -9.1727e-05 5.31384e-05 0 -9.76924e-05 4.81831e-05 0 -0.000102735 4.26503e-05 0 -0.000106875 3.67759e-05 0 -0.000110183 3.07275e-05 0 -0.000112747 2.46084e-05 0 -0.00011465 1.84761e-05 0 -0.000115956 1.23549e-05 0 -0.000116713 6.24896e-06 0 -0.000116945 1.50286e-07 0 -0.000116657 -5.95359e-06 0 -0.000115831 -1.20732e-05 0 -0.000114428 -1.82093e-05 0 -0.000112386 -2.43447e-05 0 -0.000109628 -3.04308e-05 0 -0.000106066 -3.63751e-05 0 -0.000101629 -4.20213e-05 0 -9.62921e-05 -4.71461e-05 0 -9.01565e-05 -5.14848e-05 0 -8.34147e-05 -5.48121e-05 0 -7.64693e-05 -5.70074e-05 0 -6.96003e-05 -5.82089e-05 0 -6.29952e-05 -5.85633e-05 0 -5.67378e-05 -5.82567e-05 0 -5.08557e-05 -5.74045e-05 0 -4.02031e-05 6.62619e-05 0 -4.7041e-05 6.82934e-05 0 -5.44705e-05 6.9843e-05 0 -6.25016e-05 7.05663e-05 0 -7.11167e-05 7.02352e-05 0 -8.00629e-05 6.84106e-05 0 -8.87659e-05 6.49718e-05 0 -9.6704e-05 6.00014e-05 0 -0.000103419 5.39789e-05 0 -0.000108887 4.73867e-05 0 -0.00011322 4.05531e-05 0 -0.000116587 3.36657e-05 0 -0.000119138 2.6821e-05 0 -0.000121 2.00542e-05 0 -0.000122265 1.33659e-05 0 -0.000122995 6.73457e-06 0 -0.000123224 1.27716e-07 0 -0.000122957 -6.49234e-06 0 -0.000122172 -1.31613e-05 0 -0.000120814 -1.99068e-05 0 -0.0001188 -2.6737e-05 0 -0.000116008 -3.3628e-05 0 -0.000112292 -4.04966e-05 0 -0.000107482 -4.71703e-05 0 -0.000101461 -5.33359e-05 0 -9.42454e-05 -5.85279e-05 0 -8.62826e-05 -6.22818e-05 0 -7.80713e-05 -6.45293e-05 0 -7.01708e-05 -6.5403e-05 0 -6.27897e-05 -6.53409e-05 0 -5.59371e-05 -6.45904e-05 0 -4.95705e-05 -6.33435e-05 0 -3.75472e-05 7.2682e-05 0 -4.48655e-05 7.57598e-05 0 -5.29464e-05 7.79469e-05 0 -6.18986e-05 7.94612e-05 0 -7.18379e-05 7.98464e-05 0 -8.2745e-05 7.84808e-05 0 -9.37384e-05 7.43126e-05 0 -0.000103165 6.78936e-05 0 -0.000110653 6.03145e-05 0 -0.000116398 5.23434e-05 0 -0.000120755 4.43668e-05 0 -0.000124024 3.65528e-05 0 -0.000126438 2.89494e-05 0 -0.000128166 2.15508e-05 0 -0.000129326 1.43177e-05 0 -0.000129996 7.19512e-06 0 -0.000130216 1.18433e-07 0 -0.000129994 -6.98053e-06 0 -0.000129302 -1.41704e-05 0 -0.000128076 -2.15135e-05 0 -0.000126208 -2.90603e-05 0 -0.000123537 -3.68304e-05 0 -0.000119835 -4.47926e-05 0 -0.000114804 -5.27968e-05 0 -0.000108084 -6.04771e-05 0 -9.94739e-05 -6.70853e-05 0 -8.93282e-05 -7.15529e-05 0 -7.92881e-05 -7.33486e-05 0 -7.01914e-05 -7.3539e-05 0 -6.20475e-05 -7.27695e-05 0 -5.46533e-05 -7.14481e-05 0 -4.7851e-05 -6.96292e-05 0 -3.39478e-05 8.066e-05 0 -4.19337e-05 8.36642e-05 0 -5.06245e-05 8.67955e-05 0 -6.02519e-05 8.93289e-05 0 -7.1471e-05 9.13435e-05 0 -8.52221e-05 9.11768e-05 0 -0.000100172 8.59744e-05 0 -0.000111456 7.6886e-05 0 -0.000119394 6.69792e-05 0 -0.000125054 5.72645e-05 0 -0.000129127 4.80047e-05 0 -0.000132071 3.92177e-05 0 -0.000134179 3.08696e-05 0 -0.000135656 2.28786e-05 0 -0.000136636 1.51579e-05 0 -0.000137206 7.60878e-06 0 -0.00013741 1.31809e-07 0 -0.000137258 -7.37749e-06 0 -0.000136723 -1.50233e-05 0 -0.000135734 -2.29138e-05 0 -0.000134173 -3.11489e-05 0 -0.000131845 -3.98282e-05 0 -0.000128465 -4.90052e-05 0 -0.000123577 -5.86855e-05 0 -0.00011649 -6.86293e-05 0 -0.000106126 -7.78545e-05 0 -9.2159e-05 -8.33191e-05 0 -7.94199e-05 -8.39029e-05 0 -6.92358e-05 -8.24945e-05 0 -6.05742e-05 -8.07531e-05 0 -5.27926e-05 -7.87091e-05 0 -4.55917e-05 -7.64836e-05 0 -3.0042e-05 8.70575e-05 0 -3.83371e-05 9.23725e-05 0 -4.73361e-05 9.59491e-05 0 -5.71461e-05 9.98875e-05 0 -6.85088e-05 0.000103743 0 -8.42096e-05 0.000110626 0 -0.000104598 0.000101257 0 -0.000116009 8.62686e-05 0 -0.00012346 7.33448e-05 0 -0.000128293 6.1723e-05 0 -0.000131681 5.1145e-05 0 -0.000133994 4.14469e-05 0 -0.000135606 3.24261e-05 0 -0.000136697 2.39374e-05 0 -0.000137414 1.58244e-05 0 -0.000137838 7.95086e-06 0 -0.000138016 1.76149e-07 0 -0.000137962 -7.63662e-06 0 -0.00013765 -1.56338e-05 0 -0.00013702 -2.39631e-05 0 -0.000135944 -3.27977e-05 0 -0.000134258 -4.23032e-05 0 -0.000131597 -5.27083e-05 0 -0.000127597 -6.42019e-05 0 -0.000121082 -7.70748e-05 0 -0.000110714 -9.21174e-05 0 -9.1451e-05 -0.000101683 0 -7.69647e-05 -9.51794e-05 0 -6.68293e-05 -9.1916e-05 0 -5.8281e-05 -8.88793e-05 0 -5.03776e-05 -8.6336e-05 0 -4.29076e-05 -8.33845e-05 0 -2.47839e-05 9.84777e-05 0 -3.4093e-05 0.000100957 0 -4.34285e-05 0.000105352 0 -5.26775e-05 0.000109846 0 -6.23393e-05 0.000115115 0 -7.27662e-05 0.000126146 0 -8.2737e-05 0.000113751 0 -9.05556e-05 9.40589e-05 0 -9.5651e-05 7.84281e-05 0 -9.89954e-05 6.51174e-05 0 -0.000101153 5.34283e-05 0 -0.000102562 4.29902e-05 0 -0.000103466 3.3459e-05 0 -0.000104045 2.46181e-05 0 -0.000104412 1.6254e-05 0 -0.000104644 8.19264e-06 0 -0.000104786 2.5904e-07 0 -0.000104851 -7.71478e-06 0 -0.000104827 -1.59106e-05 0 -0.000104662 -2.45169e-05 0 -0.00010427 -3.37665e-05 0 -0.000103488 -4.39037e-05 0 -0.000102087 -5.53e-05 0 -9.96335e-05 -6.83631e-05 0 -9.55716e-05 -8.38192e-05 0 -8.89149e-05 -0.000103453 0 -8.02519e-05 -0.000115938 0 -7.12304e-05 -0.000105195 0 -6.31155e-05 -0.000100502 0 -5.53816e-05 -9.68381e-05 0 -4.76076e-05 -9.40118e-05 0 -3.97515e-05 -9.14333e-05 0 -1.99797e-05 0.00010208 0 -2.98968e-05 0.000111339 0 -3.94485e-05 0.000114342 0 -4.80046e-05 0.000118495 0 -5.50512e-05 0.000123347 0 -6.08811e-05 0.000134057 0 -6.55618e-05 0.000120238 0 -6.86877e-05 9.85062e-05 0 -7.06799e-05 8.12798e-05 0 -7.18194e-05 6.68888e-05 0 -7.24061e-05 5.45067e-05 0 -7.26396e-05 4.36203e-05 0 -7.26761e-05 3.3817e-05 0 -7.2625e-05 2.48206e-05 0 -7.2569e-05 1.63849e-05 0 -7.25662e-05 8.30504e-06 0 -7.2655e-05 3.82455e-07 0 -7.28543e-05 -7.57585e-06 0 -7.31629e-05 -1.57772e-05 0 -7.35583e-05 -2.44423e-05 0 -7.39879e-05 -3.38444e-05 0 -7.43688e-05 -4.42881e-05 0 -7.45592e-05 -5.62292e-05 0 -7.43729e-05 -7.0212e-05 0 -7.35023e-05 -8.71141e-05 0 -7.1682e-05 -0.000108627 0 -6.84634e-05 -0.000122385 0 -6.43146e-05 -0.000111824 0 -5.90768e-05 -0.000107368 0 -5.2581e-05 -0.000104205 0 -4.49575e-05 -0.000102094 0 -3.65925e-05 -9.85634e-05 0 -1.34634e-05 0.000124943 0 -2.60706e-05 0.000120583 0 -3.69006e-05 0.000123968 0 -4.46762e-05 0.000125345 0 -4.91381e-05 0.000127952 0 -5.01208e-05 0.000136409 0 -4.88487e-05 0.000121347 0 -4.71539e-05 9.89858e-05 0 -4.56525e-05 8.1338e-05 0 -4.43261e-05 6.66819e-05 0 -4.31252e-05 5.41284e-05 0 -4.20393e-05 4.31747e-05 0 -4.10966e-05 3.33804e-05 0 -4.03356e-05 2.4465e-05 0 -3.97983e-05 1.61631e-05 0 -3.95225e-05 8.25967e-06 0 -3.95395e-05 5.40856e-07 0 -3.9873e-05 -7.19905e-06 0 -4.0538e-05 -1.51827e-05 0 -4.15408e-05 -2.36472e-05 0 -4.28801e-05 -3.28844e-05 0 -4.45486e-05 -4.32216e-05 0 -4.65428e-05 -5.51363e-05 0 -4.88759e-05 -6.91981e-05 0 -5.16041e-05 -8.63182e-05 0 -5.47195e-05 -0.000108282 0 -5.7645e-05 -0.000123074 0 -5.85265e-05 -0.000114511 0 -5.63096e-05 -0.000112156 0 -5.10178e-05 -0.000111161 0 -4.30715e-05 -0.000110258 0 -3.33904e-05 -0.000109854 0 -8.03176e-06 0.000116441 0 -2.41173e-05 0.000136932 0 -3.71541e-05 0.000133122 0 -4.49911e-05 0.000131077 0 -4.67344e-05 0.000128443 0 -4.18276e-05 0.000132596 0 -3.21687e-05 0.000116531 0 -2.52702e-05 9.52487e-05 0 -2.03451e-05 7.85021e-05 0 -1.66248e-05 6.43755e-05 0 -1.36346e-05 5.22074e-05 0 -1.12013e-05 4.15653e-05 0 -9.23758e-06 3.20846e-05 0 -7.72448e-06 2.34945e-05 0 -6.66746e-06 1.55484e-05 0 -6.08693e-06 8.02767e-06 0 -6.00863e-06 7.20211e-07 0 -6.46125e-06 -6.58423e-06 0 -7.47598e-06 -1.41105e-05 0 -9.08845e-06 -2.20955e-05 0 -1.1345e-05 -3.08299e-05 0 -1.43092e-05 -4.06216e-05 0 -1.80965e-05 -5.19195e-05 0 -2.28898e-05 -6.51923e-05 0 -2.91431e-05 -8.1208e-05 0 -3.76005e-05 -0.000101857 0 -4.90233e-05 -0.000117432 0 -5.59797e-05 -0.000112898 0 -5.67235e-05 -0.0001151 0 -5.21153e-05 -0.000117799 0 -4.29975e-05 -0.000120686 0 -3.08732e-05 -0.000117213 0 -2.51719e-06 0.00018142 0 -2.5747e-05 0.000148823 0 -4.28452e-05 0.000146462 0 -5.14207e-05 0.000134812 0 -5.07912e-05 0.000125794 0 -4.1416e-05 0.000118478 0 -2.47401e-05 0.000104544 0 -1.44287e-05 8.79292e-05 0 -6.83084e-06 7.30763e-05 0 -1.13998e-06 6.01392e-05 0 3.48191e-06 4.87826e-05 0 7.18287e-06 3.88031e-05 0 1.01543e-05 2.99044e-05 0 1.24265e-05 2.18841e-05 0 1.40253e-05 1.45091e-05 0 1.49365e-05 7.58254e-06 0 1.51389e-05 8.95566e-07 0 1.45982e-05 -5.75338e-06 0 1.32679e-05 -1.25802e-05 0 1.10916e-05 -1.98135e-05 0 7.97642e-06 -2.77119e-05 0 3.82641e-06 -3.65657e-05 0 -1.58726e-06 -4.67145e-05 0 -8.43689e-06 -5.85255e-05 0 -1.7498e-05 -7.23413e-05 0 -2.95378e-05 -8.81701e-05 0 -4.80235e-05 -0.000101408 0 -5.94701e-05 -0.000107932 0 -6.24848e-05 -0.000116242 0 -5.78613e-05 -0.000125778 0 -4.61154e-05 -0.000132221 0 -2.91874e-05 -0.000140388 0 8.96424e-06 0.000127897 0 -3.31298e-05 0.000187285 0 -5.92787e-05 0.000157869 0 -6.59978e-05 0.000138428 0 -6.31603e-05 0.000119861 0 -5.30558e-05 0.000105753 0 -4.15216e-05 9.21868e-05 0 -3.03661e-05 7.85042e-05 0 -2.14984e-05 6.58086e-05 0 -1.41869e-05 5.42468e-05 0 -8.26396e-06 4.40357e-05 0 -3.38334e-06 3.49307e-05 0 5.28095e-07 2.68686e-05 0 3.55591e-06 1.96179e-05 0 5.70366e-06 1.3029e-05 0 6.97075e-06 6.89339e-06 0 7.33059e-06 1.03389e-06 0 6.74587e-06 -4.74883e-06 0 5.16143e-06 -1.06469e-05 0 2.49724e-06 -1.6873e-05 0 -1.35022e-06 -2.36461e-05 0 -6.54093e-06 -3.12209e-05 0 -1.32562e-05 -3.98498e-05 0 -2.18111e-05 -4.98121e-05 0 -3.244e-05 -6.12328e-05 0 -4.54771e-05 -7.38835e-05 0 -5.91267e-05 -8.68142e-05 0 -7.05839e-05 -0.000100252 0 -7.56298e-05 -0.000116478 0 -7.13947e-05 -0.00013449 0 -5.45531e-05 -0.000152827 0 -2.76902e-05 -0.00014808 0 -2.03604e-06 0.000348753 0 -6.31632e-05 0.000207561 0 -8.9824e-05 0.000178694 0 -9.37534e-05 0.000134335 0 -8.03446e-05 0.00011034 0 -6.77328e-05 9.32232e-05 0 -5.36549e-05 7.99687e-05 0 -4.23343e-05 6.82269e-05 0 -3.21781e-05 5.71183e-05 0 -2.38948e-05 4.7157e-05 0 -1.67681e-05 3.80626e-05 0 -1.08955e-05 3.00837e-05 0 -6.06443e-06 2.29762e-05 0 -2.31153e-06 1.67154e-05 0 4.01257e-07 1.108e-05 0 2.04449e-06 5.93697e-06 0 2.60104e-06 1.08873e-06 0 2.02717e-06 -3.62622e-06 0 2.63139e-07 -8.39309e-06 0 -2.77691e-06 -1.33828e-05 0 -7.22139e-06 -1.87923e-05 0 -1.3226e-05 -2.48069e-05 0 -2.10285e-05 -3.16625e-05 0 -3.08337e-05 -3.95514e-05 0 -4.29428e-05 -4.87529e-05 0 -5.71301e-05 -5.9487e-05 0 -7.30223e-05 -7.24458e-05 0 -8.78171e-05 -8.94915e-05 0 -9.87108e-05 -0.00011305 0 -9.72158e-05 -0.000146396 0 -7.53327e-05 -0.000176946 0 -3.08344e-05 -0.000215632 0 6.89543e-05 0.000193573 0 -0.000127771 0.000316624 0 -0.000164606 0.000169121 0 -0.000123511 0.000119386 0 -0.000103424 9.14973e-05 0 -7.93038e-05 7.77066e-05 0 -6.62947e-05 6.6938e-05 0 -5.2489e-05 5.68565e-05 0 -4.24833e-05 4.77022e-05 0 -3.28444e-05 3.88778e-05 0 -2.50015e-05 3.11649e-05 0 -1.80388e-05 2.42281e-05 0 -1.24048e-05 1.83113e-05 0 -7.88379e-06 1.31383e-05 0 -4.61543e-06 8.66592e-06 0 -2.56044e-06 4.66933e-06 0 -1.77235e-06 1.0208e-06 0 -2.27532e-06 -2.46027e-06 0 -4.13026e-06 -5.90948e-06 0 -7.43129e-06 -9.48598e-06 0 -1.22919e-05 -1.33189e-05 0 -1.89248e-05 -1.75808e-05 0 -2.74945e-05 -2.24022e-05 0 -3.84227e-05 -2.80372e-05 0 -5.17544e-05 -3.47118e-05 0 -6.82611e-05 -4.30959e-05 0 -8.70459e-05 -5.44278e-05 0 -0.000109658 -7.15041e-05 0 -0.000131137 -0.000100892 0 -0.000147985 -0.000149949 0 -0.000121596 -0.000231723 0 -2.22983e-05 -0.000241326 0 -0.000195294 0.00107449 0 -0.000453975 0.000321805 0 -0.000210514 0.00010758 0 -0.00018043 7.01121e-05 0 -9.82873e-05 6.47624e-05 0 -9.80353e-05 5.93401e-05 0 -6.94577e-05 5.30161e-05 0 -6.41614e-05 4.53096e-05 0 -4.91872e-05 3.73813e-05 0 -4.1318e-05 2.98808e-05 0 -3.12418e-05 2.31945e-05 0 -2.39984e-05 1.75162e-05 0 -1.71242e-05 1.27874e-05 0 -1.20246e-05 8.92332e-06 0 -8.077e-06 5.73744e-06 0 -5.63677e-06 3.07797e-06 0 -4.56039e-06 7.71854e-07 0 -4.94108e-06 -1.31377e-06 0 -6.8081e-06 -3.31017e-06 0 -1.02159e-05 -5.31793e-06 0 -1.53733e-05 -7.44213e-06 0 -2.22812e-05 -9.76421e-06 0 -3.15688e-05 -1.23962e-05 0 -4.28255e-05 -1.54467e-05 0 -5.80133e-05 -1.91594e-05 0 -7.49373e-05 -2.39524e-05 0 -0.000100327 -3.09765e-05 0 -0.000125903 -4.26987e-05 0 -0.000174984 -6.64718e-05 0 -0.000219161 -0.000122906 0 -0.000279342 -0.000284496 0 -5.80874e-05 -0.000546238 0 0.00414501 0.0152131 0 -0.000198703 -0.00192515 0 -0.000917312 0.000262754 0 0.000275109 -9.04711e-05 0 -0.00033821 6.82889e-05 0 3.20468e-05 3.65261e-05 0 -0.000145829 3.92645e-05 0 -3.47727e-05 3.66454e-05 0 -7.55622e-05 2.42062e-05 0 -3.83123e-05 2.17067e-05 0 -4.1734e-05 1.31154e-05 0 -2.61163e-05 1.04827e-05 0 -2.18903e-05 6.02105e-06 0 -1.42163e-05 4.23645e-06 0 -1.05142e-05 2.17138e-06 0 -7.22791e-06 1.19695e-06 0 -6.03899e-06 2.73547e-07 0 -6.1914e-06 -2.36177e-07 0 -7.95402e-06 -7.09508e-07 0 -1.1502e-05 -1.01963e-06 0 -1.64056e-05 -1.38924e-06 0 -2.41269e-05 -1.60414e-06 0 -3.21524e-05 -2.04569e-06 0 -4.66468e-05 -2.15283e-06 0 -5.62093e-05 -2.63699e-06 0 -8.61041e-05 -3.08758e-06 0 -8.91552e-05 -2.03392e-06 0 -0.000165959 -8.35233e-06 0 -0.000137521 8.1078e-06 0 -0.000383005 -5.62945e-05 0 -0.000563306 0.000175369 0 0.000667361 -0.00393482 0 </DataArray> 
</PointData> 
<Points> 
<DataArray type="Float32" NumberOfComponents="3"> 