<?xml version="1.0"?> 
<VTKFile type="StructuredGrid" version="0.1"> 
<StructuredGrid WholeExtent="0 31 0 31 0 0"> 
<Piece Extent="0 31 0 31 0 0"> 
<PointData>
<DataArray type="Float32" Name="B" format="ascii" NumberOfComponents="3"> 
0 4.6229e-06 0 -8.3204e-07 4.64126e-06 0 -1.67082e-06 4.69645e-06 0 -2.52314e-06 4.78882e-06 0 -3.39595e-06 4.919e-06 0 -4.29638e-06 5.08773e-06 0 -5.23192e-06 5.29607e-06 0 -6.21034e-06 5.54487e-06 0 -7.24002e-06 5.83563e-06 0 -8.32995e-06 6.16852e-06 0 -9.48955e-06 6.54574e-06 0 -1.07306e-05 6.96435e-06 0 -1.20625e-05 7.42897e-06 0 -1.35058e-05 7.92636e-06 0 -1.50615e-05 8.47075e-06 0 -1.67838e-05 9.01694e-06 0 -1.8624e-05 9.61468e-06 0 -2.07705e-05 1.01227e-05 0 -2.29489e-05 1.07099e-05 0 -2.58731e-05 1.09581e-05 0 -2.83434e-05 1.13943e-05 0 -3.30744e-05 1.08632e-05 0 -3.5306e-05 1.0808e-05 0 -4.51074e-05 8.4188e-06 0 -4.47262e-05 6.74483e-06 0 -7.02961e-05 8.97106e-07 0 -5.91239e-05 -7.53905e-06 0 -0.000136532 -1.5821e-05 0 -9.72459e-05 -6.04312e-05 0 -0.000363364 -3.43214e-05 0 -0.000665724 -0.000493351 0 -0.00328686 0.00278462 0 -1.36748e-20 5.43437e-06 0 -7.91985e-07 5.45602e-06 0 -1.59043e-06 5.52113e-06 0 -2.40186e-06 5.63017e-06 0 -3.23297e-06 5.78391e-06 0 -4.09068e-06 5.98343e-06 0 -4.98225e-06 6.23003e-06 0 -5.91538e-06 6.52527e-06 0 -6.89837e-06 6.87084e-06 0 -7.94026e-06 7.26849e-06 0 -9.05114e-06 7.71992e-06 0 -1.02423e-05 8.22649e-06 0 -1.15272e-05 8.78906e-06 0 -1.29208e-05 9.40738e-06 0 -1.44434e-05 1.00798e-05 0 -1.61163e-05 1.08019e-05 0 -1.7976e-05 1.15662e-05 0 -2.00529e-05 1.23598e-05 0 -2.24279e-05 1.31624e-05 0 -2.51382e-05 1.39462e-05 0 -2.83958e-05 1.46663e-05 0 -3.22153e-05 1.5275e-05 0 -3.72133e-05 1.56884e-05 0 -4.32494e-05 1.58582e-05 0 -5.22158e-05 1.57053e-05 0 -6.34229e-05 1.53182e-05 0 -8.28615e-05 1.52768e-05 0 -0.000108881 1.68577e-05 0 -0.000161376 2.83389e-05 0 -0.000242483 7.06028e-05 0 -0.000377152 0.000284706 0 0.000208952 0.000726122 0 -1.28562e-20 6.20258e-06 0 -7.45485e-07 6.22737e-06 0 -1.49707e-06 6.30193e-06 0 -2.26095e-06 6.42685e-06 0 -3.04346e-06 6.60311e-06 0 -3.85121e-06 6.83205e-06 0 -4.69114e-06 7.11542e-06 0 -5.57069e-06 7.45529e-06 0 -6.49796e-06 7.85405e-06 0 -7.48187e-06 8.31442e-06 0 -8.53248e-06 8.83926e-06 0 -9.66136e-06 9.43169e-06 0 -1.08821e-05 1.00946e-05 0 -1.2211e-05 1.08312e-05 0 -1.36683e-05 1.16436e-05 0 -1.528e-05 1.25346e-05 0 -1.70787e-05 1.35042e-05 0 -1.91112e-05 1.45557e-05 0 -2.14355e-05 1.56856e-05 0 -2.41458e-05 1.69027e-05 0 -2.73524e-05 1.82037e-05 0 -3.12638e-05 1.96275e-05 0 -3.61026e-05 2.12033e-05 0 -4.23605e-05 2.30997e-05 0 -5.05071e-05 2.55551e-05 0 -6.17216e-05 2.93023e-05 0 -7.69801e-05 3.57166e-05 0 -9.86327e-05 4.83383e-05 0 -0.000126805 7.48947e-05 0 -0.000154998 0.000132202 0 -0.000136608 0.000233098 0 -5.01856e-05 0.00037839 0 0 6.92128e-06 0 -6.92892e-07 6.94901e-06 0 -1.39146e-06 7.03243e-06 0 -2.10145e-06 7.17226e-06 0 -2.82878e-06 7.36967e-06 0 -3.57962e-06 7.62632e-06 0 -4.3605e-06 7.94437e-06 0 -5.17843e-06 8.32645e-06 0 -6.0411e-06 8.77573e-06 0 -6.95702e-06 9.29586e-06 0 -7.93591e-06 9.89111e-06 0 -8.98897e-06 1.05662e-05 0 -1.01295e-05 1.13267e-05 0 -1.13735e-05 1.21786e-05 0 -1.27409e-05 1.31294e-05 0 -1.42567e-05 1.4187e-05 0 -1.59538e-05 1.53629e-05 0 -1.78746e-05 1.66694e-05 0 -2.00775e-05 1.81289e-05 0 -2.26389e-05 1.9767e-05 0 -2.56698e-05 2.16391e-05 0 -2.93115e-05 2.38158e-05 0 -3.37797e-05 2.64561e-05 0 -3.93257e-05 2.9788e-05 0 -4.63396e-05 3.4304e-05 0 -5.51534e-05 4.0789e-05 0 -6.61481e-05 5.08182e-05 0 -7.87463e-05 6.69647e-05 0 -9.04025e-05 9.3368e-05 0 -9.21331e-05 0.000133583 0 -6.86011e-05 0.000182881 0 3.61378e-07 0.000163494 0 -2.99087e-22 7.5846e-06 0 -6.34638e-07 7.61503e-06 0 -1.27444e-06 7.70662e-06 0 -1.92465e-06 7.86017e-06 0 -2.59065e-06 8.07707e-06 0 -3.27809e-06 8.35928e-06 0 -3.99292e-06 8.70936e-06 0 -4.74159e-06 9.13051e-06 0 -5.53115e-06 9.62662e-06 0 -6.36947e-06 1.02023e-05 0 -7.26549e-06 1.08631e-05 0 -8.22959e-06 1.16156e-05 0 -9.27398e-06 1.24674e-05 0 -1.04134e-05 1.34278e-05 0 -1.1666e-05 1.45082e-05 0 -1.30543e-05 1.57229e-05 0 -1.46069e-05 1.70899e-05 0 -1.63607e-05 1.8635e-05 0 -1.83626e-05 2.03912e-05 0 -2.06748e-05 2.24111e-05 0 -2.33747e-05 2.47662e-05 0 -2.6564e-05 2.75781e-05 0 -3.03576e-05 3.10198e-05 0 -3.48933e-05 3.53924e-05 0 -4.02615e-05 4.11359e-05 0 -4.6477e-05 4.89909e-05 0 -5.31472e-05 5.99832e-05 0 -5.92092e-05 7.55491e-05 0 -6.18475e-05 9.67743e-05 0 -5.64993e-05 0.000122983 0 -3.77958e-05 0.000146456 0 -1.24282e-05 0.000183879 0 -2.46373e-20 8.18713e-06 0 -5.71232e-07 8.22e-06 0 -1.14705e-06 8.31892e-06 0 -1.73209e-06 8.48482e-06 0 -2.33115e-06 8.71926e-06 0 -2.94923e-06 9.02447e-06 0 -3.5916e-06 9.4034e-06 0 -4.26399e-06 9.85974e-06 0 -4.97262e-06 1.0398e-05 0 -5.72444e-06 1.10238e-05 0 -6.52732e-06 1.17438e-05 0 -7.39031e-06 1.25658e-05 0 -8.32399e-06 1.34998e-05 0 -9.34097e-06 1.45574e-05 0 -1.04564e-05 1.57535e-05 0 -1.16888e-05 1.71068e-05 0 -1.30608e-05 1.86417e-05 0 -1.46003e-05 2.03901e-05 0 -1.63414e-05 2.23967e-05 0 -1.83246e-05 2.47218e-05 0 -2.05972e-05 2.74543e-05 0 -2.32083e-05 3.0717e-05 0 -2.62024e-05 3.46958e-05 0 -2.9592e-05 3.96464e-05 0 -3.33228e-05 4.59465e-05 0 -3.71652e-05 5.40765e-05 0 -4.06016e-05 6.46383e-05 0 -4.25427e-05 7.81011e-05 0 -4.12959e-05 9.44542e-05 0 -3.46688e-05 0.000112134 0 -2.17632e-05 0.000128673 0 -3.62553e-06 0.000124795 0 -1.34382e-20 8.72403e-06 0 -5.03254e-07 8.75902e-06 0 -1.01044e-06 8.86435e-06 0 -1.52556e-06 9.04104e-06 0 -2.05269e-06 9.29079e-06 0 -2.59613e-06 9.61609e-06 0 -3.16037e-06 1.00202e-05 0 -3.75025e-06 1.05072e-05 0 -4.37104e-06 1.10822e-05 0 -5.02856e-06 1.17515e-05 0 -5.7293e-06 1.25225e-05 0 -6.48066e-06 1.34046e-05 0 -7.29114e-06 1.44089e-05 0 -8.1706e-06 1.55492e-05 0 -9.13057e-06 1.68425e-05 0 -1.01846e-05 1.83107e-05 0 -1.13483e-05 1.99813e-05 0 -1.26398e-05 2.18907e-05 0 -1.40789e-05 2.40866e-05 0 -1.56861e-05 2.66337e-05 0 -1.74793e-05 2.96181e-05 0 -1.94674e-05 3.31584e-05 0 -2.1637e-05 3.74103e-05 0 -2.39315e-05 4.25834e-05 0 -2.62099e-05 4.89306e-05 0 -2.81954e-05 5.67469e-05 0 -2.93883e-05 6.62767e-05 0 -2.90398e-05 7.76002e-05 0 -2.61565e-05 9.02997e-05 0 -1.99369e-05 0.00010334 0 -1.02713e-05 0.000114303 0 1.49853e-06 0.000129492 0 0 9.19104e-06 0 -4.31349e-07 9.22782e-06 0 -8.65933e-07 9.33855e-06 0 -1.30703e-06 9.5243e-06 0 -1.75798e-06 9.78692e-06 0 -2.22228e-06 1.01291e-05 0 -2.70356e-06 1.05542e-05 0 -3.2057e-06 1.10668e-05 0 -3.73287e-06 1.16723e-05 0 -4.28959e-06 1.23775e-05 0 -4.88084e-06 1.31906e-05 0 -5.51213e-06 1.41216e-05 0 -6.18959e-06 1.51827e-05 0 -6.92005e-06 1.63886e-05 0 -7.71109e-06 1.77578e-05 0 -8.57097e-06 1.93134e-05 0 -9.50834e-06 2.10842e-05 0 -1.05317e-05 2.31072e-05 0 -1.16479e-05 2.54297e-05 0 -1.28603e-05 2.81125e-05 0 -1.41636e-05 3.12342e-05 0 -1.55375e-05 3.48939e-05 0 -1.69346e-05 3.92165e-05 0 -1.82623e-05 4.43476e-05 0 -1.9359e-05 5.04496e-05 0 -1.99621e-05 5.76646e-05 0 -1.96916e-05 6.60688e-05 0 -1.80485e-05 7.55559e-05 0 -1.45375e-05 8.57623e-05 0 -8.82405e-06 9.59121e-05 0 -1.12536e-06 0.000105404 0 7.35885e-06 0.000109177 0 0 9.58459e-06 0 -3.56215e-07 9.6228e-06 0 -7.14926e-07 9.73784e-06 0 -1.07865e-06 9.93082e-06 0 -1.44996e-06 1.02037e-05 0 -1.83148e-06 1.05592e-05 0 -2.22593e-06 1.10009e-05 0 -2.63618e-06 1.15336e-05 0 -3.06521e-06 1.21629e-05 0 -3.51619e-06 1.2896e-05 0 -3.99246e-06 1.37412e-05 0 -4.49755e-06 1.47091e-05 0 -5.03515e-06 1.58121e-05 0 -5.60904e-06 1.70654e-05 0 -6.22287e-06 1.84878e-05 0 -6.87987e-06 2.01022e-05 0 -7.58223e-06 2.19367e-05 0 -8.33006e-06 2.40266e-05 0 -9.1197e-06 2.64152e-05 0 -9.94095e-06 2.91564e-05 0 -1.07729e-05 3.23157e-05 0 -1.15773e-05 3.5972e-05 0 -1.22899e-05 4.0215e-05 0 -1.28084e-05 4.51417e-05 0 -1.29789e-05 5.08409e-05 0 -1.25862e-05 5.73717e-05 0 -1.13525e-05 6.4719e-05 0 -8.97331e-06 7.27544e-05 0 -5.17288e-06 8.11753e-05 0 1.39087e-07 8.95736e-05 0 6.80235e-06 9.72833e-05 0 1.46153e-05 0.000106272 0 0 9.90182e-06 0 -2.7859e-07 9.94109e-06 0 -5.58914e-07 1.00593e-05 0 -8.42712e-07 1.02576e-05 0 -1.13174e-06 1.0538e-05 0 -1.42776e-06 1.09032e-05 0 -1.73255e-06 1.1357e-05 0 -2.04791e-06 1.1904e-05 0 -2.37565e-06 1.25501e-05 0 -2.71753e-06 1.33025e-05 0 -3.07527e-06 1.41696e-05 0 -3.45047e-06 1.51619e-05 0 -3.84443e-06 1.62917e-05 0 -4.25802e-06 1.7574e-05 0 -4.69131e-06 1.90268e-05 0 -5.14309e-06 2.06719e-05 0 -5.61004e-06 2.25353e-05 0 -6.0856e-06 2.46488e-05 0 -6.5581e-06 2.70502e-05 0 -7.00823e-06 2.97841e-05 0 -7.40534e-06 3.29027e-05 0 -7.70259e-06 3.64641e-05 0 -7.83075e-06 4.05297e-05 0 -7.69149e-06 4.51574e-05 0 -7.15188e-06 5.03907e-05 0 -6.04267e-06 5.62394e-05 0 -4.1695e-06 6.26595e-05 0 -1.33378e-06 6.95266e-05 0 2.60829e-06 7.66403e-05 0 7.71348e-06 8.37201e-05 0 1.38668e-05 9.06275e-05 0 2.06056e-05 9.6082e-05 0 0 1.01406e-05 0 -1.9923e-07 1.01806e-05 0 -3.99428e-07 1.03008e-05 0 -6.01549e-07 1.05025e-05 0 -8.06529e-07 1.07876e-05 0 -1.01526e-06 1.11588e-05 0 -1.22859e-06 1.16199e-05 0 -1.44727e-06 1.21755e-05 0 -1.67192e-06 1.28314e-05 0 -1.90298e-06 1.35945e-05 0 -2.14061e-06 1.44732e-05 0 -2.38455e-06 1.54775e-05 0 -2.63395e-06 1.66193e-05 0 -2.88709e-06 1.79127e-05 0 -3.14094e-06 1.93743e-05 0 -3.39059e-06 2.1024e-05 0 -3.62844e-06 2.2885e-05 0 -3.84294e-06 2.49845e-05 0 -4.01701e-06 2.73538e-05 0 -4.12583e-06 3.00284e-05 0 -4.134e-06 3.30475e-05 0 -3.99211e-06 3.64517e-05 0 -3.63308e-06 4.02797e-05 0 -2.96888e-06 4.45627e-05 0 -1.88903e-06 4.93152e-05 0 -2.63874e-07 5.45239e-05 0 2.04724e-06 6.0135e-05 0 5.17357e-06 6.6049e-05 0 9.21541e-06 7.21186e-05 0 1.41996e-05 7.81904e-05 0 2.00969e-05 8.4073e-05 0 2.69637e-05 9.0325e-05 0 0 1.02996e-05 0 -1.18903e-07 1.03399e-05 0 -2.38015e-07 1.0461e-05 0 -3.57522e-07 1.06641e-05 0 -4.77555e-07 1.09511e-05 0 -5.98163e-07 1.13247e-05 0 -7.1927e-07 1.17885e-05 0 -8.40627e-07 1.2347e-05 0 -9.61745e-07 1.30057e-05 0 -1.0818e-06 1.37712e-05 0 -1.19953e-06 1.46515e-05 0 -1.31302e-06 1.56561e-05 0 -1.41954e-06 1.67958e-05 0 -1.51514e-06 1.80835e-05 0 -1.59431e-06 1.95344e-05 0 -1.64927e-06 2.11656e-05 0 -1.66926e-06 2.29969e-05 0 -1.63943e-06 2.5051e-05 0 -1.53943e-06 2.73526e-05 0 -1.34176e-06 2.99287e-05 0 -1.00972e-06 3.2807e-05 0 -4.95207e-07 3.60141e-05 0 2.63243e-07 3.95721e-05 0 1.34168e-06 4.34938e-05 0 2.83001e-06 4.7777e-05 0 4.82879e-06 5.2397e-05 0 7.44047e-06 5.73016e-05 0 1.07603e-05 6.24079e-05 0 1.48566e-05 6.76118e-05 0 1.97735e-05 7.27948e-05 0 2.55152e-05 7.7892e-05 0 3.20014e-05 8.25489e-05 0 0 1.03783e-05 0 -3.83613e-08 1.04185e-05 0 -7.61996e-08 1.05393e-05 0 -1.12954e-07 1.0742e-05 0 -1.47987e-07 1.10282e-05 0 -1.80535e-07 1.14006e-05 0 -2.09657e-07 1.18626e-05 0 -2.34169e-07 1.24184e-05 0 -2.52554e-07 1.30733e-05 0 -2.62857e-07 1.38333e-05 0 -2.62537e-07 1.4706e-05 0 -2.48282e-07 1.56997e-05 0 -2.15758e-07 1.68245e-05 0 -1.59278e-07 1.80918e-05 0 -7.13758e-08 1.95145e-05 0 5.77569e-08 2.11073e-05 0 2.40985e-07 2.28867e-05 0 4.95124e-07 2.48703e-05 0 8.42029e-07 2.70771e-05 0 1.30984e-06 2.95265e-05 0 1.93435e-06 3.2237e-05 0 2.76025e-06 3.52242e-05 0 3.84204e-06 3.84981e-05 0 5.2441e-06 4.20599e-05 0 7.03948e-06 4.58972e-05 0 9.30637e-06 4.99808e-05 0 1.21234e-05 5.42613e-05 0 1.5561e-05 5.86699e-05 0 1.96785e-05 6.31218e-05 0 2.45141e-05 6.75302e-05 0 3.01023e-05 7.17959e-05 0 3.65318e-05 7.60038e-05 0 4.32207e-21 1.03767e-05 0 4.16635e-08 1.04164e-05 0 8.45452e-08 1.0536e-05 0 1.29911e-07 1.07364e-05 0 1.79126e-07 1.10193e-05 0 2.33709e-07 1.13871e-05 0 2.95399e-07 1.1843e-05 0 3.66235e-07 1.2391e-05 0 4.4865e-07 1.30358e-05 0 5.45595e-07 1.37831e-05 0 6.60687e-07 1.46395e-05 0 7.98411e-07 1.56126e-05 0 9.6436e-07 1.67111e-05 0 1.16555e-06 1.79448e-05 0 1.41083e-06 1.93248e-05 0 1.71135e-06 2.08629e-05 0 2.08116e-06 2.25723e-05 0 2.53796e-06 2.44664e-05 0 3.10386e-06 2.65589e-05 0 3.80627e-06 2.88629e-05 0 4.67871e-06 3.13894e-05 0 5.76151e-06 3.41459e-05 0 7.10203e-06 3.71341e-05 0 8.75424e-06 4.03473e-05 0 1.07773e-05 4.37678e-05 0 1.32331e-05 4.73642e-05 0 1.61823e-05 5.10906e-05 0 1.96811e-05 5.48865e-05 0 2.37759e-05 5.86803e-05 0 2.85079e-05 6.23912e-05 0 3.39093e-05 6.59445e-05 0 3.99925e-05 6.91779e-05 0 3.64637e-20 1.02958e-05 0 1.20478e-07 1.03347e-05 0 2.42822e-07 1.0452e-05 0 3.68954e-07 1.06483e-05 0 5.00907e-07 1.09255e-05 0 6.40894e-07 1.12856e-05 0 7.91376e-07 1.17316e-05 0 9.55146e-07 1.2267e-05 0 1.13544e-06 1.28961e-05 0 1.33604e-06 1.3624e-05 0 1.56147e-06 1.44565e-05 0 1.81712e-06 1.54002e-05 0 2.10954e-06 1.64626e-05 0 2.44669e-06 1.76519e-05 0 2.83829e-06 1.8977e-05 0 3.29625e-06 2.04475e-05 0 3.8351e-06 2.20732e-05 0 4.4726e-06 2.38639e-05 0 5.23023e-06 2.58289e-05 0 6.1338e-06 2.79761e-05 0 7.21392e-06 3.03109e-05 0 8.50621e-06 3.28346e-05 0 1.00513e-05 3.55433e-05 0 1.1894e-05 3.84253e-05 0 1.40823e-05 4.14598e-05 0 1.66653e-05 4.46152e-05 0 1.96908e-05 4.78483e-05 0 2.32021e-05 5.11046e-05 0 2.72381e-05 5.43191e-05 0 3.18298e-05 5.74196e-05 0 3.70068e-05 6.03201e-05 0 4.28126e-05 6.29659e-05 0 6.3958e-21 1.0137e-05 0 1.97436e-07 1.01749e-05 0 3.9733e-07 1.02888e-05 0 6.02204e-07 1.04797e-05 0 8.14697e-07 1.07489e-05 0 1.03764e-06 1.10984e-05 0 1.27414e-06 1.15308e-05 0 1.52763e-06 1.20493e-05 0 1.80203e-06 1.26577e-05 0 2.10182e-06 1.33604e-05 0 2.43221e-06 1.41624e-05 0 2.79929e-06 1.50693e-05 0 3.21028e-06 1.60874e-05 0 3.67373e-06 1.72232e-05 0 4.19984e-06 1.8484e-05 0 4.80078e-06 1.98768e-05 0 5.49104e-06 2.14089e-05 0 6.28783e-06 2.30869e-05 0 7.21146e-06 2.49164e-05 0 8.28566e-06 2.69012e-05 0 9.5378e-06 2.90424e-05 0 1.09989e-05 3.13372e-05 0 1.27033e-05 3.37775e-05 0 1.46883e-05 3.63489e-05 0 1.69924e-05 3.9029e-05 0 1.96546e-05 4.17867e-05 0 2.27119e-05 4.45812e-05 0 2.61983e-05 4.73627e-05 0 3.01423e-05 5.0072e-05 0 3.45682e-05 5.26408e-05 0 3.94932e-05 5.49933e-05 0 4.49207e-05 5.70228e-05 0 0 9.90253e-06 0 2.71944e-07 9.93906e-06 0 5.46881e-07 1.00489e-05 0 8.27866e-07 1.02328e-05 0 1.11808e-06 1.0492e-05 0 1.4209e-06 1.08283e-05 0 1.73997e-06 1.1244e-05 0 2.0793e-06 1.17419e-05 0 2.44335e-06 1.23251e-05 0 2.83715e-06 1.29976e-05 0 3.26643e-06 1.37634e-05 0 3.73779e-06 1.46274e-05 0 4.25883e-06 1.55944e-05 0 4.83845e-06 1.66697e-05 0 5.48697e-06 1.78588e-05 0 6.21646e-06 1.91668e-05 0 7.04097e-06 2.05985e-05 0 7.9768e-06 2.21581e-05 0 9.04274e-06 2.38481e-05 0 1.02602e-05 2.56693e-05 0 1.16533e-05 2.76195e-05 0 1.32487e-05 2.9693e-05 0 1.50753e-05 3.18794e-05 0 1.71634e-05 3.41623e-05 0 1.95442e-05 3.65192e-05 0 2.2248e-05 3.89196e-05 0 2.53034e-05 4.13258e-05 0 2.87354e-05 4.36917e-05 0 3.25646e-05 4.59633e-05 0 3.68054e-05 4.80788e-05 0 4.14663e-05 4.99661e-05 0 4.65508e-05 5.15537e-05 0 0 9.59509e-06 0 3.4347e-07 9.63e-06 0 6.90405e-07 9.73498e-06 0 1.04433e-06 9.91067e-06 0 1.4089e-06 1.01582e-05 0 1.78796e-06 1.0479e-05 0 2.18563e-06 1.08752e-05 0 2.60635e-06 1.13491e-05 0 3.05505e-06 1.19034e-05 0 3.53715e-06 1.25414e-05 0 4.05877e-06 1.32665e-05 0 4.62679e-06 1.40824e-05 0 5.24907e-06 1.49931e-05 0 5.93455e-06 1.60025e-05 0 6.69345e-06 1.71146e-05 0 7.53749e-06 1.83329e-05 0 8.47999e-06 1.96602e-05 0 9.53613e-06 2.10985e-05 0 1.0723e-05 2.26482e-05 0 1.20596e-05 2.43076e-05 0 1.35669e-05 2.60725e-05 0 1.52676e-05 2.79351e-05 0 1.71857e-05 2.98835e-05 0 1.93458e-05 3.19007e-05 0 2.17726e-05 3.39643e-05 0 2.44894e-05 3.60456e-05 0 2.75174e-05 3.81093e-05 0 3.08745e-05 4.01136e-05 0 3.45736e-05 4.20097e-05 0 3.86219e-05 4.37419e-05 0 4.30186e-05 4.5248e-05 0 4.77511e-05 4.64547e-05 0 7.36075e-21 9.21789e-06 0 4.11541e-07 9.25097e-06 0 8.26958e-07 9.35042e-06 0 1.25018e-06 9.51679e-06 0 1.68528e-06 9.75104e-06 0 2.13648e-06 1.00545e-05 0 2.60829e-06 1.04287e-05 0 3.10553e-06 1.08759e-05 0 3.63344e-06 1.13981e-05 0 4.19777e-06 1.19982e-05 0 4.80485e-06 1.26787e-05 0 5.46174e-06 1.34426e-05 0 6.17633e-06 1.4293e-05 0 6.95747e-06 1.52326e-05 0 7.81509e-06 1.62642e-05 0 8.76035e-06 1.73897e-05 0 9.80572e-06 1.86106e-05 0 1.09651e-05 1.99272e-05 0 1.22538e-05 2.1338e-05 0 1.36885e-05 2.28399e-05 0 1.52873e-05 2.44271e-05 0 1.70693e-05 2.60906e-05 0 1.9054e-05 2.78177e-05 0 2.12614e-05 2.95917e-05 0 2.37105e-05 3.13907e-05 0 2.64189e-05 3.3188e-05 0 2.94017e-05 3.49512e-05 0 3.26706e-05 3.66425e-05 0 3.62324e-05 3.82186e-05 0 4.00878e-05 3.96306e-05 0 4.42305e-05 4.0824e-05 0 4.86455e-05 4.17424e-05 0 3.06437e-20 8.77458e-06 0 4.75747e-07 8.80564e-06 0 9.55721e-07 8.89899e-06 0 1.4442e-06 9.0551e-06 0 1.94559e-06 9.27478e-06 0 2.46445e-06 9.55911e-06 0 3.00559e-06 9.9095e-06 0 3.57412e-06 1.03276e-05 0 4.17553e-06 1.08152e-05 0 4.81575e-06 1.13744e-05 0 5.50125e-06 1.20075e-05 0 6.23914e-06 1.27165e-05 0 7.03722e-06 1.35036e-05 0 7.90411e-06 1.43708e-05 0 8.84932e-06 1.53196e-05 0 9.88335e-06 1.6351e-05 0 1.10177e-05 1.74652e-05 0 1.2265e-05 1.86612e-05 0 1.36387e-05 1.99364e-05 0 1.51535e-05 2.12865e-05 0 1.68247e-05 2.27047e-05 0 1.86681e-05 2.41816e-05 0 2.06997e-05 2.57044e-05 0 2.2935e-05 2.72567e-05 0 2.53887e-05 2.8818e-05 0 2.80733e-05 3.03635e-05 0 3.09992e-05 3.1864e-05 0 3.41728e-05 3.32859e-05 0 3.7596e-05 3.45908e-05 0 4.12652e-05 3.57366e-05 0 4.51694e-05 3.66773e-05 0 4.92884e-05 3.73638e-05 0 2.46601e-21 8.2692e-06 0 5.35737e-07 8.29808e-06 0 1.07599e-06 8.38484e-06 0 1.62535e-06 8.5299e-06 0 2.18847e-06 8.7339e-06 0 2.77019e-06 8.99776e-06 0 3.37557e-06 9.32259e-06 0 4.00992e-06 9.70973e-06 0 4.6789e-06 1.01607e-05 0 5.38855e-06 1.06769e-05 0 6.1454e-06 1.12602e-05 0 6.95648e-06 1.19121e-05 0 7.82945e-06 1.26341e-05 0 8.77259e-06 1.34272e-05 0 9.79492e-06 1.42923e-05 0 1.09062e-05 1.52294e-05 0 1.2117e-05 1.62378e-05 0 1.34385e-05 1.73156e-05 0 1.48827e-05 1.84595e-05 0 1.64622e-05 1.96644e-05 0 1.81899e-05 2.09232e-05 0 2.00787e-05 2.22262e-05 0 2.21414e-05 2.3561e-05 0 2.43901e-05 2.4912e-05 0 2.68354e-05 2.62603e-05 0 2.9486e-05 2.75833e-05 0 3.23481e-05 2.88549e-05 0 3.54242e-05 3.00454e-05 0 3.87126e-05 3.11216e-05 0 4.2206e-05 3.20474e-05 0 4.5891e-05 3.27841e-05 0 4.97469e-05 3.32924e-05 0 0 7.70611e-06 0 5.91214e-07 7.73267e-06 0 1.18719e-06 7.81245e-06 0 1.79274e-06 7.94579e-06 0 2.41277e-06 8.13322e-06 0 3.05232e-06 8.37546e-06 0 3.71663e-06 8.67342e-06 0 4.41115e-06 9.02813e-06 0 5.14166e-06 9.44075e-06 0 5.91425e-06 9.91245e-06 0 6.73541e-06 1.04444e-05 0 7.61206e-06 1.10377e-05 0 8.55162e-06 1.16933e-05 0 9.56201e-06 1.24116e-05 0 1.06517e-05 1.31928e-05 0 1.18297e-05 1.40363e-05 0 1.31056e-05 1.49407e-05 0 1.44894e-05 1.59036e-05 0 1.59916e-05 1.69212e-05 0 1.76228e-05 1.7988e-05 0 1.93939e-05 1.90969e-05 0 2.13153e-05 2.02384e-05 0 2.33971e-05 2.14008e-05 0 2.56482e-05 2.25695e-05 0 2.80762e-05 2.37272e-05 0 3.06866e-05 2.48539e-05 0 3.34823e-05 2.59263e-05 0 3.64626e-05 2.69186e-05 0 3.9623e-05 2.78024e-05 0 4.29541e-05 2.85469e-05 0 4.64407e-05 2.91201e-05 0 5.00612e-05 2.94895e-05 0 0 7.08994e-06 0 6.41936e-07 7.11407e-06 0 1.28883e-06 7.18654e-06 0 1.94569e-06 7.30763e-06 0 2.61759e-06 7.47774e-06 0 3.30974e-06 7.69747e-06 0 4.02751e-06 7.9675e-06 0 4.77646e-06 8.28865e-06 0 5.56241e-06 8.66175e-06 0 6.39145e-06 9.08767e-06 0 7.27001e-06 9.56721e-06 0 8.20483e-06 1.0101e-05 0 9.20306e-06 1.06896e-05 0 1.02722e-05 1.1333e-05 0 1.14202e-05 1.20308e-05 0 1.26554e-05 1.27821e-05 0 1.39864e-05 1.3585e-05 0 1.5422e-05 1.44367e-05 0 1.69714e-05 1.53333e-05 0 1.86435e-05 1.62693e-05 0 2.04474e-05 1.72376e-05 0 2.23914e-05 1.82294e-05 0 2.44831e-05 1.92337e-05 0 2.67291e-05 2.02374e-05 0 2.91342e-05 2.12248e-05 0 3.17015e-05 2.21782e-05 0 3.44311e-05 2.30774e-05 0 3.73201e-05 2.39001e-05 0 4.03619e-05 2.46221e-05 0 4.35455e-05 2.52177e-05 0 4.68551e-05 2.56603e-05 0 5.02696e-05 2.59236e-05 0 0 6.42553e-06 0 6.87704e-07 6.44715e-06 0 1.38052e-06 6.51205e-06 0 2.08361e-06 6.62045e-06 0 2.80219e-06 6.77268e-06 0 3.54158e-06 6.96919e-06 0 4.30725e-06 7.21049e-06 0 5.10482e-06 7.4972e-06 0 5.94012e-06 7.82992e-06 0 6.81921e-06 8.20924e-06 0 7.7484e-06 8.63568e-06 0 8.73425e-06 9.10957e-06 0 9.78363e-06 9.63103e-06 0 1.09036e-05 1.01998e-05 0 1.21017e-05 1.08152e-05 0 1.33854e-05 1.1476e-05 0 1.47625e-05 1.21802e-05 0 1.62408e-05 1.29247e-05 0 1.78283e-05 1.37057e-05 0 1.95325e-05 1.45178e-05 0 2.13607e-05 1.53545e-05 0 2.33195e-05 1.62076e-05 0 2.54146e-05 1.7067e-05 0 2.76504e-05 1.7921e-05 0 3.00298e-05 1.8756e-05 0 3.25535e-05 1.95563e-05 0 3.52198e-05 2.03047e-05 0 3.8024e-05 2.09821e-05 0 4.09581e-05 2.15681e-05 0 4.40101e-05 2.20414e-05 0 4.71639e-05 2.23802e-05 0 5.03987e-05 2.25632e-05 0 0 5.71793e-06 0 7.28361e-07 5.73696e-06 0 1.46196e-06 5.79408e-06 0 2.20606e-06 5.88947e-06 0 2.966e-06 6.02336e-06 0 3.74718e-06 6.19611e-06 0 4.55511e-06 6.40809e-06 0 5.39548e-06 6.65973e-06 0 6.27408e-06 6.95147e-06 0 7.19692e-06 7.28368e-06 0 8.17017e-06 7.65665e-06 0 9.20021e-06 8.07048e-06 0 1.02936e-05 8.52505e-06 0 1.14571e-05 9.01993e-06 0 1.26975e-05 9.55422e-06 0 1.40219e-05 1.01265e-05 0 1.54373e-05 1.07348e-05 0 1.69505e-05 1.13761e-05 0 1.85684e-05 1.20466e-05 0 2.02974e-05 1.27416e-05 0 2.21432e-05 1.34549e-05 0 2.41111e-05 1.41791e-05 0 2.6205e-05 1.49054e-05 0 2.84278e-05 1.56235e-05 0 3.07805e-05 1.63215e-05 0 3.32624e-05 1.69862e-05 0 3.587e-05 1.76028e-05 0 3.85974e-05 1.81553e-05 0 4.14356e-05 1.86268e-05 0 4.43721e-05 1.89997e-05 0 4.73907e-05 1.92563e-05 0 5.04716e-05 1.93795e-05 0 0 4.9723e-06 0 7.63785e-07 4.98868e-06 0 1.5329e-06 5.03787e-06 0 2.3127e-06 5.11999e-06 0 3.10859e-06 5.23521e-06 0 3.92603e-06 5.38379e-06 0 4.77059e-06 5.56601e-06 0 5.64793e-06 5.78217e-06 0 6.56384e-06 6.03254e-06 0 7.52424e-06 6.31735e-06 0 8.53518e-06 6.63671e-06 0 9.60284e-06 6.99058e-06 0 1.07335e-05 7.37871e-06 0 1.19336e-05 7.80052e-06 0 1.32094e-05 8.25508e-06 0 1.45675e-05 8.74095e-06 0 1.60142e-05 9.25614e-06 0 1.75556e-05 9.79798e-06 0 1.91975e-05 1.0363e-05 0 2.09452e-05 1.09468e-05 0 2.28036e-05 1.1544e-05 0 2.47764e-05 1.21482e-05 0 2.68664e-05 1.27517e-05 0 2.90749e-05 1.33457e-05 0 3.14019e-05 1.39202e-05 0 3.3845e-05 1.4464e-05 0 3.63998e-05 1.49647e-05 0 3.90595e-05 1.54094e-05 0 4.18142e-05 1.5784e-05 0 4.46513e-05 1.60743e-05 0 4.75547e-05 1.62661e-05 0 5.05053e-05 1.63459e-05 0 0 4.19391e-06 0 7.93882e-07 4.20761e-06 0 1.59316e-06 4.24875e-06 0 2.40326e-06 4.3174e-06 0 3.22963e-06 4.41371e-06 0 4.07778e-06 4.53785e-06 0 4.9533e-06 4.69e-06 0 5.86183e-06 4.87038e-06 0 6.80914e-06 5.07915e-06 0 7.80105e-06 5.31643e-06 0 8.84349e-06 5.58222e-06 0 9.94247e-06 5.87639e-06 0 1.1104e-05 6.19862e-06 0 1.23342e-05 6.5483e-06 0 1.36391e-05 6.92452e-06 0 1.50245e-05 7.32594e-06 0 1.64964e-05 7.75075e-06 0 1.806e-05 8.19658e-06 0 1.97205e-05 8.66037e-06 0 2.14823e-05 9.13837e-06 0 2.33493e-05 9.62597e-06 0 2.53242e-05 1.01177e-05 0 2.74088e-05 1.06073e-05 0 2.96034e-05 1.10872e-05 0 3.19066e-05 1.15494e-05 0 3.43154e-05 1.19845e-05 0 3.68244e-05 1.23828e-05 0 3.9426e-05 1.27334e-05 0 4.211e-05 1.30254e-05 0 4.48636e-05 1.32475e-05 0 4.7671e-05 1.33884e-05 0 5.05138e-05 1.34375e-05 0 0 3.38813e-06 0 8.18583e-07 3.39912e-06 0 1.64261e-06 3.43212e-06 0 2.47756e-06 3.48717e-06 0 3.3289e-06 3.56439e-06 0 4.20219e-06 3.66387e-06 0 5.103e-06 3.78577e-06 0 6.03698e-06 3.9302e-06 0 7.00984e-06 4.09725e-06 0 8.02734e-06 4.28697e-06 0 9.09529e-06 4.49931e-06 0 1.02195e-05 4.7341e-06 0 1.14059e-05 4.99101e-06 0 1.26602e-05 5.26947e-06 0 1.39881e-05 5.56867e-06 0 1.53952e-05 5.88744e-06 0 1.68866e-05 6.22424e-06 0 1.84674e-05 6.57708e-06 0 2.0142e-05 6.94343e-06 0 2.19142e-05 7.3202e-06 0 2.37869e-05 7.70365e-06 0 2.57622e-05 8.08938e-06 0 2.78411e-05 8.47226e-06 0 3.00229e-05 8.84646e-06 0 3.23055e-05 9.20543e-06 0 3.46852e-05 9.54197e-06 0 3.71559e-05 9.84829e-06 0 3.97096e-05 1.01161e-05 0 4.23358e-05 1.03369e-05 0 4.50215e-05 1.05019e-05 0 4.77515e-05 1.06026e-05 0 5.05077e-05 1.0631e-05 0 0 2.56037e-06 0 8.3784e-07 2.56863e-06 0 1.68116e-06 2.59342e-06 0 2.53546e-06 2.63479e-06 0 3.40625e-06 2.69279e-06 0 4.29908e-06 2.7675e-06 0 5.21954e-06 2.859e-06 0 6.17326e-06 2.96737e-06 0 7.1659e-06 3.09266e-06 0 8.20317e-06 3.23487e-06 0 9.29079e-06 3.39392e-06 0 1.04345e-05 3.56966e-06 0 1.16398e-05 3.7618e-06 0 1.29125e-05 3.96986e-06 0 1.42579e-05 4.19317e-06 0 1.56813e-05 4.43083e-06 0 1.71875e-05 4.68161e-06 0 1.8781e-05 4.94397e-06 0 2.04659e-05 5.21597e-06 0 2.22453e-05 5.49523e-06 0 2.41217e-05 5.77894e-06 0 2.60965e-05 6.06375e-06 0 2.817e-05 6.34583e-06 0 3.03411e-05 6.62081e-06 0 3.26071e-05 6.88383e-06 0 3.49636e-05 7.12955e-06 0 3.74041e-05 7.35224e-06 0 3.99203e-05 7.54584e-06 0 4.25015e-05 7.70409e-06 0 4.51349e-05 7.82069e-06 0 4.78052e-05 7.88945e-06 0 5.04952e-05 7.90457e-06 0 0 1.7161e-06 0 8.51616e-07 1.72162e-06 0 1.70874e-06 1.73816e-06 0 2.57687e-06 1.76577e-06 0 3.46156e-06 1.80448e-06 0 4.36835e-06 1.85432e-06 0 5.30283e-06 1.91536e-06 0 6.27062e-06 1.98762e-06 0 7.27735e-06 2.07114e-06 0 8.32867e-06 2.1659e-06 0 9.43023e-06 2.27183e-06 0 1.05876e-05 2.38881e-06 0 1.18065e-05 2.51662e-06 0 1.30921e-05 2.65494e-06 0 1.44498e-05 2.80329e-06 0 1.58845e-05 2.96103e-06 0 1.74009e-05 3.12734e-06 0 1.90032e-05 3.30115e-06 0 2.0695e-05 3.48116e-06 0 2.24792e-05 3.66575e-06 0 2.43578e-05 3.85303e-06 0 2.63318e-05 4.04077e-06 0 2.84012e-05 4.2264e-06 0 3.05642e-05 4.40703e-06 0 3.2818e-05 4.57944e-06 0 3.51575e-05 4.74011e-06 0 3.75763e-05 4.88526e-06 0 4.00656e-05 5.01091e-06 0 4.26148e-05 5.11298e-06 0 4.52109e-05 5.18736e-06 0 4.7839e-05 5.23004e-06 0 5.04822e-05 5.23726e-06 0 0 8.6081e-07 0 8.5989e-07 8.63568e-07 0 1.7253e-06 8.71848e-07 0 2.60174e-06 8.85661e-07 0 3.49477e-06 9.05024e-07 0 4.40993e-06 9.29958e-07 0 5.35282e-06 9.60485e-07 0 6.32903e-06 9.96622e-07 0 7.34419e-06 1.03838e-06 0 8.40392e-06 1.08574e-06 0 9.51381e-06 1.13867e-06 0 1.06794e-05 1.1971e-06 0 1.19062e-05 1.26093e-06 0 1.31995e-05 1.32996e-06 0 1.45645e-05 1.40398e-06 0 1.6006e-05 1.48264e-06 0 1.75284e-05 1.56553e-06 0 1.91358e-05 1.6521e-06 0 2.08316e-05 1.7417e-06 0 2.26185e-05 1.83352e-06 0 2.44983e-05 1.9266e-06 0 2.64717e-05 2.01983e-06 0 2.85383e-05 2.11192e-06 0 3.06964e-05 2.20144e-06 0 3.29426e-05 2.28677e-06 0 3.5272e-05 2.36616e-06 0 3.76776e-05 2.43775e-06 0 4.01508e-05 2.49956e-06 0 4.26807e-05 2.54958e-06 0 4.52545e-05 2.58577e-06 0 4.78575e-05 2.60618e-06 0 5.04728e-05 2.60895e-06 0 0 -0 0 8.62649e-07 5.73617e-21 0 1.73082e-06 -9.18846e-21 0 2.61003e-06 -1.00864e-20 0 3.50584e-06 -0 0 4.4238e-06 -0 0 5.36949e-06 -0 0 6.34851e-06 -0 0 7.36647e-06 -0 0 8.429e-06 -0 0 9.54166e-06 4.70326e-21 0 1.071e-05 7.39611e-20 0 1.19395e-05 1.27708e-20 0 1.32353e-05 -9.32271e-20 0 1.46027e-05 -2.08021e-20 0 1.60464e-05 -0 0 1.75708e-05 -0 0 1.91799e-05 -0 0 2.0877e-05 -3.33418e-20 0 2.26648e-05 -1.58306e-19 0 2.45449e-05 -1.46394e-20 0 2.65181e-05 -0 0 2.85838e-05 -0 0 3.07402e-05 -0 0 3.29839e-05 9.36483e-20 0 3.53098e-05 2.19475e-19 0 3.7711e-05 4.64712e-21 0 4.01788e-05 -0 0 4.27023e-05 -0 0 4.52687e-05 -0 0 4.78633e-05 -0 0 5.04694e-05 -0 0 </DataArray> 
</PointData> 
<Points> 
<DataArray type="Float32" NumberOfComponents="3"> 