<?xml version="1.0"?> 
<VTKFile type="StructuredGrid" version="0.1"> 
<StructuredGrid WholeExtent="0 31 0 31 0 0"> 
<Piece Extent="0 31 0 31 0 0"> 
<PointData>
<DataArray type="Float32" Name="B" format="ascii" NumberOfComponents="3"> 
0.0238223 0.0102164 0 0.0250053 -0.00164722 0 0.0243657 0.000222418 0 0.0224639 -8.10308e-05 0 0.0236537 4.81331e-05 0 0.0236747 2.33497e-05 0 0.0244021 2.40406e-05 0 0.0247192 2.47765e-05 0 0.0251239 1.41798e-05 0 0.0253625 1.43029e-05 0 0.0255667 7.44802e-06 0 0.0256935 6.57569e-06 0 0.0257838 3.23554e-06 0 0.0258376 2.46126e-06 0 0.0258703 1.0346e-06 0 0.0258867 6.03669e-07 0 0.025893 3.77161e-08 0 0.0258926 -1.52844e-07 0 0.0258869 -4.06624e-07 0 0.0258788 -4.62316e-07 0 0.0258656 -6.87031e-07 0 0.0258545 -6.00406e-07 0 0.0258315 -9.81608e-07 0 0.0258253 -6.22674e-07 0 0.0257791 -1.16496e-06 0 0.0258066 -7.86146e-07 0 0.0256865 2.62843e-07 0 0.0258515 -4.13192e-06 0 0.0254784 1.37905e-05 0 0.0260824 -4.09808e-05 0 0.025369 0.000229949 0 0.0110158 -0.00304866 0 -0.00294775 0.00662169 0 -0.00273867 -0.00063483 0 -0.00250758 0.00012747 0 -0.00247368 -3.61158e-05 0 -0.00250895 1.0888e-05 0 -0.00256611 -7.64941e-07 0 -0.00261552 -1.69643e-07 0 -0.00266578 2.09306e-06 0 -0.00270142 -6.69641e-07 0 -0.00273183 1.27793e-06 0 -0.00275206 -2.82299e-07 0 -0.00276726 5.72486e-07 0 -0.00277684 -8.55716e-08 0 -0.00278325 2.22799e-07 0 -0.00278693 -2.69095e-08 0 -0.00278897 7.33499e-08 0 -0.00278975 -1.94309e-08 0 -0.00278977 1.22926e-08 0 -0.00278911 -2.9451e-08 0 -0.00278817 -1.23136e-08 0 -0.0027865 -5.08962e-08 0 -0.00278515 -1.75904e-08 0 -0.00278212 -8.66331e-08 0 -0.00278138 -9.60103e-09 0 -0.0027751 -1.15363e-07 0 -0.00277865 -7.61216e-08 0 -0.00276212 1.20586e-07 0 -0.00278301 -9.88103e-07 0 -0.00273101 2.60314e-06 0 -0.0028058 -1.02848e-05 0 -0.00269412 4.77993e-05 0 -0.000732735 -0.000675094 0 -0.000780333 0.00359738 0 0.00049935 -0.000360289 0 0.00054643 7.67674e-05 0 0.000455914 -2.16129e-05 0 0.000512164 3.84888e-06 0 0.000497167 -1.91909e-06 0 0.000520934 -2.53586e-06 0 0.000523564 6.26024e-08 0 0.000534436 -1.94366e-06 0 0.000538468 4.4632e-08 0 0.000543499 -9.68716e-07 0 0.000545978 -2.16839e-08 0 0.000548152 -4.03585e-07 0 0.000549284 -1.86856e-08 0 0.000550087 -1.41851e-07 0 0.000550459 2.6581e-09 0 0.000550633 -3.20334e-08 0 0.000550631 2.18384e-08 0 0.000550502 1.39231e-08 0 0.00055032 3.85705e-08 0 0.000549977 3.68308e-08 0 0.000549736 5.66151e-08 0 0.000549077 5.32019e-08 0 0.000549049 7.77106e-08 0 0.000547555 7.02337e-08 0 0.00054877 9.75481e-08 0 0.000544449 1.03537e-07 0 0.000550637 8.15496e-08 0 0.000536281 2.83815e-07 0 0.000557483 -7.23845e-08 0 0.000525192 7.42812e-06 0 -6.11558e-06 2.59527e-05 0 -0.000451679 0.00295938 0 -0.000155488 -0.000302218 0 -0.00012186 5.84818e-05 0 -0.000144914 -1.74249e-05 0 -0.000131275 5.36227e-06 0 -0.000143229 2.24441e-07 0 -0.000140813 1.57347e-07 0 -0.000146406 1.48776e-06 0 -0.000146741 -1.37218e-07 0 -0.000149283 8.88857e-07 0 -0.000149908 -2.33154e-08 0 -0.000150998 4.03785e-07 0 -0.000151389 1.44093e-08 0 -0.000151812 1.57475e-07 0 -0.00015198 7.75394e-09 0 -0.000152111 4.91501e-08 0 -0.000152146 -7.45286e-09 0 -0.000152151 3.30899e-09 0 -0.000152114 -2.31999e-08 0 -0.000152059 -1.73479e-08 0 -0.000151969 -4.26109e-08 0 -0.000151883 -2.64423e-08 0 -0.000151724 -6.99875e-08 0 -0.000151653 -2.74763e-08 0 -0.000151342 -9.56581e-08 0 -0.000151447 -5.7384e-08 0 -0.000150696 -4.74773e-09 0 -0.000151526 -4.55956e-07 0 -0.000149503 1.12887e-06 0 -0.000152806 -3.95317e-06 0 -0.000147355 2.23835e-05 0 -5.13523e-05 -0.000322272 0 -0.000222016 0.00209676 0 3.61539e-05 -0.000216108 0 5.17877e-05 4.63483e-05 0 2.98434e-05 -1.38027e-05 0 4.31178e-05 2.79425e-06 0 3.70021e-05 -9.34232e-07 0 4.16856e-05 -1.12951e-06 0 4.0374e-05 2.9053e-07 0 4.20554e-05 -9.08735e-07 0 4.19364e-05 1.86509e-07 0 4.25556e-05 -4.40583e-07 0 4.26319e-05 6.85485e-08 0 4.28578e-05 -1.7756e-07 0 4.29155e-05 2.35135e-08 0 4.29906e-05 -6.15198e-08 0 4.30118e-05 1.16613e-08 0 4.30278e-05 -1.57717e-08 0 4.30264e-05 1.01641e-08 0 4.30168e-05 9.9687e-10 0 4.3005e-05 1.17693e-08 0 4.29777e-05 6.36331e-09 0 4.2967e-05 1.5427e-08 0 4.29104e-05 6.88573e-09 0 4.2929e-05 2.25209e-08 0 4.27891e-05 6.77553e-09 0 4.29338e-05 3.45619e-08 0 4.25004e-05 2.11341e-08 0 4.3097e-05 5.89729e-08 0 4.15076e-05 2.37813e-07 0 4.35139e-05 5.94154e-07 0 4.20439e-05 2.70921e-06 0 -1.96426e-05 -1.35968e-05 0 -0.000167446 0.00189468 0 -1.1903e-05 -0.000196854 0 2.48911e-06 4.09197e-05 0 -1.21365e-05 -1.23017e-05 0 -3.87622e-06 3.22528e-06 0 -8.6418e-06 -2.56093e-07 0 -6.18621e-06 -2.61615e-07 0 -7.68739e-06 7.33816e-07 0 -7.03922e-06 -3.23988e-07 0 -7.50354e-06 4.52268e-07 0 -7.35464e-06 -1.35256e-07 0 -7.4976e-06 2.04071e-07 0 -7.47003e-06 -4.24852e-08 0 -7.51329e-06 7.99879e-08 0 -7.50967e-06 -1.28222e-08 0 -7.52136e-06 2.65204e-08 0 -7.5202e-06 -7.45674e-09 0 -7.52124e-06 3.90741e-09 0 -7.51903e-06 -1.07552e-08 0 -7.51509e-06 -6.99511e-09 0 -7.51232e-06 -1.89664e-08 0 -7.50285e-06 -1.30844e-08 0 -7.50323e-06 -3.1664e-08 0 -7.4826e-06 -1.48124e-08 0 -7.49966e-06 -4.21796e-08 0 -7.458e-06 -1.96528e-08 0 -7.53836e-06 5.98812e-09 0 -7.48484e-06 -1.06258e-07 0 -7.78317e-06 5.94305e-07 0 -7.51154e-06 -9.64944e-07 0 -6.53444e-06 7.06584e-06 0 -1.54351e-05 -0.000118051 0 -0.00012667 0.00153858 0 -8.18057e-06 -0.000161897 0 5.62878e-06 3.536e-05 0 -7.42252e-06 -1.04094e-05 0 -3.52232e-07 2.25201e-06 0 -4.40341e-06 -5.57381e-07 0 -2.26193e-06 -6.28179e-07 0 -3.4819e-06 3.58516e-07 0 -2.89425e-06 -5.29059e-07 0 -3.257e-06 2.30852e-07 0 -3.10731e-06 -2.47237e-07 0 -3.21533e-06 9.89624e-08 0 -3.18055e-06 -9.48299e-08 0 -3.21269e-06 3.79804e-08 0 -3.20547e-06 -3.18395e-08 0 -3.21447e-06 1.44986e-08 0 -3.21269e-06 -9.52864e-09 0 -3.21407e-06 5.5877e-09 0 -3.21264e-06 -3.53953e-09 0 -3.21059e-06 1.48786e-09 0 -3.20892e-06 -4.39122e-09 0 -3.20329e-06 -8.49173e-10 0 -3.20413e-06 -8.22884e-09 0 -3.19047e-06 -2.12164e-10 0 -3.20754e-06 -8.30761e-09 0 -3.17279e-06 9.32598e-09 0 -3.2621e-06 3.14286e-08 0 -3.17465e-06 5.53677e-08 0 -3.47379e-06 3.72318e-07 0 -2.87668e-06 6.37609e-08 0 -2.41532e-06 1.7586e-06 0 -1.08304e-05 -2.63149e-05 0 -0.000108581 0.0013577 0 -8.83355e-08 -0.000143293 0 1.2006e-05 3.09521e-05 0 8.13089e-07 -8.96745e-06 0 6.85157e-06 2.13819e-06 0 3.54673e-06 -3.29871e-07 0 5.49715e-06 -3.58199e-07 0 4.60093e-06 4.43796e-07 0 5.20195e-06 -3.31763e-07 0 4.98049e-06 2.81084e-07 0 5.1675e-06 -1.44892e-07 0 5.1212e-06 1.26354e-07 0 5.17999e-06 -5.00927e-08 0 5.17326e-06 4.97662e-08 0 5.19116e-06 -1.562e-08 0 5.19078e-06 1.72232e-08 0 5.19507e-06 -6.30538e-09 0 5.19431e-06 3.30635e-09 0 5.19339e-06 -6.56164e-09 0 5.19161e-06 -4.01511e-09 0 5.1872e-06 -1.14178e-08 0 5.18559e-06 -8.96188e-09 0 5.17501e-06 -1.88074e-08 0 5.17779e-06 -1.0277e-08 0 5.14761e-06 -2.05426e-08 0 5.16692e-06 -1.52519e-09 0 5.06591e-06 3.26347e-08 0 5.14448e-06 2.62704e-08 0 4.88637e-06 4.20188e-07 0 5.47675e-06 -4.49672e-07 0 5.39972e-06 2.75361e-06 0 -5.51731e-06 -5.10222e-05 0 -9.60094e-05 0.00113628 0 -9.36057e-06 -0.000120924 0 2.65016e-06 2.65689e-05 0 -7.24741e-06 -7.52821e-06 0 -1.93039e-06 1.67996e-06 0 -5.17765e-06 -3.82799e-07 0 -3.56046e-06 -4.2628e-07 0 -4.56559e-06 3.01451e-07 0 -4.12767e-06 -3.54991e-07 0 -4.44033e-06 1.96453e-07 0 -4.33324e-06 -1.60245e-07 0 -4.43002e-06 8.72085e-08 0 -4.40722e-06 -5.87887e-08 0 -4.43645e-06 3.43451e-08 0 -4.43228e-06 -1.90143e-08 0 -4.44024e-06 1.25777e-08 0 -4.43903e-06 -6.28896e-09 0 -4.44014e-06 3.37862e-09 0 -4.43878e-06 -4.23927e-09 0 -4.43745e-06 -1.68114e-09 0 -4.43568e-06 -6.89521e-09 0 -4.43304e-06 -5.33634e-09 0 -4.43186e-06 -1.13034e-08 0 -4.42779e-06 -5.39458e-09 0 -4.43245e-06 -8.65701e-09 0 -4.42601e-06 1.0161e-08 0 -4.45687e-06 4.49292e-08 0 -4.426e-06 7.45462e-08 0 -4.45934e-06 3.14803e-07 0 -4.0854e-06 -2.24026e-07 0 -3.97313e-06 1.36202e-06 0 -5.87186e-06 -2.37696e-05 0 -8.72463e-05 0.000967968 0 -1.82712e-06 -0.000103172 0 8.78407e-06 2.25461e-05 0 -2.10091e-07 -6.28498e-06 0 4.77485e-06 1.47627e-06 0 1.91043e-06 -2.90611e-07 0 3.51391e-06 -3.18055e-07 0 2.71337e-06 2.86296e-07 0 3.20498e-06 -2.68712e-07 0 2.99708e-06 1.8674e-07 0 3.14741e-06 -1.17468e-07 0 3.1002e-06 8.45252e-08 0 3.14657e-06 -4.10987e-08 0 3.13826e-06 3.3684e-08 0 3.15233e-06 -1.27636e-08 0 3.15138e-06 1.19683e-08 0 3.15484e-06 -4.77181e-09 0 3.1541e-06 2.39153e-09 0 3.15333e-06 -4.67011e-09 0 3.15152e-06 -3.08619e-09 0 3.1477e-06 -8.24647e-09 0 3.14512e-06 -7.11093e-09 0 3.13654e-06 -1.31331e-08 0 3.13537e-06 -7.16045e-09 0 3.1147e-06 -1.00402e-08 0 3.1233e-06 9.94637e-09 0 3.06796e-06 4.51684e-08 0 3.13591e-06 6.62558e-08 0 3.04795e-06 2.7065e-07 0 3.44492e-06 -3.38258e-07 0 3.17455e-06 1.42353e-06 0 -3.16365e-06 -2.67371e-05 0 -8.10163e-05 0.000795404 0 -6.66506e-06 -8.51702e-05 0 3.64986e-06 1.87e-05 0 -4.61277e-06 -5.13557e-06 0 4.03942e-08 1.19706e-06 0 -2.79024e-06 -2.71762e-07 0 -1.37362e-06 -2.98655e-07 0 -2.23377e-06 2.1423e-07 0 -1.83489e-06 -2.42423e-07 0 -2.09103e-06 1.42868e-07 0 -1.98554e-06 -1.06983e-07 0 -2.05941e-06 6.47176e-08 0 -2.03285e-06 -3.81607e-08 0 -2.05305e-06 2.59218e-08 0 -2.04641e-06 -1.19921e-08 0 -2.05136e-06 9.42573e-09 0 -2.04954e-06 -4.19192e-09 0 -2.0505e-06 2.07639e-09 0 -2.05008e-06 -3.6122e-09 0 -2.05036e-06 -2.30057e-09 0 -2.05099e-06 -6.28883e-09 0 -2.05151e-06 -5.62021e-09 0 -2.05395e-06 -9.75825e-09 0 -2.05415e-06 -5.03521e-09 0 -2.06081e-06 -4.83901e-09 0 -2.05554e-06 1.38402e-08 0 -2.07003e-06 4.68375e-08 0 -2.01977e-06 7.10064e-08 0 -2.00365e-06 2.01661e-07 0 -1.76129e-06 -2.56911e-07 0 -1.87373e-06 9.647e-07 0 -3.61204e-06 -1.70763e-05 0 -7.63007e-05 0.000641604 0 -3.28458e-06 -6.87666e-05 0 6.22e-06 1.50523e-05 0 -1.55644e-06 -4.09113e-06 0 2.94366e-06 9.86511e-07 0 3.13852e-07 -2.12587e-07 0 1.70353e-06 -2.32782e-07 0 9.38307e-07 1.78256e-07 0 1.35315e-06 -1.88317e-07 0 1.14443e-06 1.19715e-07 0 1.26688e-06 -8.18086e-08 0 1.21515e-06 5.4788e-08 0 1.25166e-06 -2.85378e-08 0 1.24076e-06 2.20962e-08 0 1.25173e-06 -8.77113e-09 0 1.24992e-06 7.95883e-09 0 1.25273e-06 -3.23112e-09 0 1.25193e-06 1.52808e-09 0 1.25133e-06 -3.25446e-09 0 1.24959e-06 -2.38003e-09 0 1.2463e-06 -5.83749e-09 0 1.24337e-06 -5.34375e-09 0 1.23635e-06 -8.89018e-09 0 1.2342e-06 -4.56684e-09 0 1.22094e-06 -3.87096e-09 0 1.23004e-06 1.34296e-08 0 1.20838e-06 4.20751e-08 0 1.27897e-06 5.9314e-08 0 1.26084e-06 1.53237e-07 0 1.48701e-06 -2.447e-07 0 1.23306e-06 8.21599e-07 0 -2.39107e-06 -1.50558e-05 0 -7.29176e-05 0.000490865 0 -5.05619e-06 -5.27382e-05 0 4.1797e-06 1.15548e-05 0 -3.23427e-06 -3.11558e-06 0 1.11642e-06 7.57773e-07 0 -1.46344e-06 -1.71366e-07 0 -1.65658e-07 -1.88712e-07 0 -9.46967e-07 1.30237e-07 0 -5.7486e-07 -1.49924e-07 0 -8.00071e-07 8.88398e-08 0 -6.96692e-07 -6.52412e-08 0 -7.58026e-07 4.0788e-08 0 -7.2952e-07 -2.28887e-08 0 -7.44764e-07 1.65218e-08 0 -7.36704e-07 -7.05255e-09 0 -7.39979e-07 6.00934e-09 0 -7.37811e-07 -2.53695e-09 0 -7.3871e-07 1.17562e-09 0 -7.38901e-07 -2.4708e-09 0 -7.40182e-07 -1.83754e-09 0 -7.42334e-07 -4.41947e-09 0 -7.4472e-07 -4.14861e-09 0 -7.49339e-07 -6.568e-09 0 -7.51191e-07 -3.22651e-09 0 -7.58019e-07 -1.58349e-09 0 -7.48468e-07 1.26879e-08 0 -7.50715e-07 3.61485e-08 0 -6.8507e-07 4.91922e-08 0 -6.71326e-07 1.07961e-07 0 -5.18062e-07 -1.85048e-07 0 -6.94328e-07 5.87389e-07 0 -2.54078e-06 -1.03202e-05 0 -7.05323e-05 0.000347593 0 -3.8376e-06 -3.73618e-05 0 5.00866e-06 8.17173e-06 0 -2.16699e-06 -2.19212e-06 0 2.10552e-06 5.44345e-07 0 -3.73755e-07 -1.19745e-07 0 8.99427e-07 -1.32488e-07 0 1.55964e-07 9.3046e-08 0 5.28399e-07 -1.04817e-07 0 3.20877e-07 6.38535e-08 0 4.28879e-07 -4.52389e-08 0 3.7561e-07 2.94816e-08 0 4.07336e-07 -1.5695e-08 0 3.95476e-07 1.19892e-08 0 4.05029e-07 -4.77801e-09 0 4.02909e-07 4.34652e-09 0 4.05423e-07 -1.76233e-09 0 4.04581e-07 7.939e-10 0 4.03979e-07 -1.84687e-09 0 4.02127e-07 -1.44397e-09 0 3.9891e-07 -3.34553e-09 0 3.95583e-07 -3.15272e-09 0 3.89251e-07 -4.90981e-09 0 3.86824e-07 -2.33503e-09 0 3.78298e-07 -9.1143e-10 0 3.90535e-07 9.9805e-09 0 3.88431e-07 2.70371e-08 0 4.61035e-07 3.50958e-08 0 4.58815e-07 7.20887e-08 0 5.94056e-07 -1.38782e-07 0 3.77847e-07 4.20613e-07 0 -2.04416e-06 -7.53351e-06 0 -6.9019e-05 0.000206912 0 -4.35209e-06 -2.2268e-05 0 4.34952e-06 4.87185e-06 0 -2.67684e-06 -1.30262e-06 0 1.5348e-06 3.25293e-07 0 -9.10562e-07 -7.29622e-08 0 3.25637e-07 -8.11537e-08 0 -4.19831e-07 5.40146e-08 0 -6.37422e-08 -6.36735e-08 0 -2.7555e-07 3.73966e-08 0 -1.74248e-07 -2.75045e-08 0 -2.3021e-07 1.72971e-08 0 -2.01136e-07 -9.57139e-09 0 -2.14236e-07 7.04999e-09 0 -2.05608e-07 -2.91851e-09 0 -2.08143e-07 2.56813e-09 0 -2.05834e-07 -1.06293e-09 0 -2.06716e-07 4.72366e-10 0 -2.07213e-07 -1.09384e-09 0 -2.08982e-07 -8.65375e-10 0 -2.11889e-07 -1.97704e-09 0 -2.15149e-07 -1.89133e-09 0 -2.20723e-07 -2.85765e-09 0 -2.23054e-07 -1.32125e-09 0 -2.29064e-07 -1.96189e-10 0 -2.15935e-07 6.48749e-09 0 -2.10422e-07 1.69516e-08 0 -1.3939e-07 2.14155e-08 0 -1.34766e-07 4.09098e-08 0 -2.66801e-08 -8.2005e-08 0 -2.13394e-07 2.443e-07 0 -2.06669e-06 -4.25001e-06 0 -6.82856e-05 6.88491e-05 0 -4.06094e-06 -7.40592e-06 0 4.52644e-06 1.61818e-06 0 -2.42849e-06 -4.32034e-07 0 1.75823e-06 1.09118e-07 0 -6.562e-07 -2.37376e-08 0 5.7089e-07 -2.64968e-08 0 -1.64726e-07 1.83026e-08 0 1.90198e-07 -2.08135e-08 0 -1.7262e-08 1.26681e-08 0 8.48027e-08 -8.93621e-09 0 3.07911e-08 5.87643e-09 0 6.05482e-08 -3.08135e-09 0 4.82666e-08 2.39896e-09 0 5.72356e-08 -9.30918e-10 0 5.49824e-08 8.70307e-10 0 5.73712e-08 -3.47319e-10 0 5.65021e-08 1.52745e-10 0 5.58968e-08 -3.78711e-10 0 5.39793e-08 -3.04834e-10 0 5.07953e-08 -6.90715e-10 0 4.72909e-08 -6.5304e-10 0 4.12987e-08 -9.98053e-10 0 3.88663e-08 -4.51106e-10 0 3.26374e-08 -9.37048e-11 0 4.67099e-08 2.21267e-09 0 5.2876e-08 5.67206e-09 0 1.25295e-07 7.04659e-09 0 1.2533e-07 1.32926e-08 0 2.2675e-07 -2.81853e-08 0 3.26413e-08 8.20434e-08 0 -1.93504e-06 -1.47641e-06 0 -6.82856e-05 -6.88491e-05 0 -4.06094e-06 7.40592e-06 0 4.52644e-06 -1.61818e-06 0 -2.42849e-06 4.32034e-07 0 1.75823e-06 -1.09118e-07 0 -6.562e-07 2.37376e-08 0 5.7089e-07 2.64968e-08 0 -1.64726e-07 -1.83026e-08 0 1.90198e-07 2.08135e-08 0 -1.7262e-08 -1.26681e-08 0 8.48027e-08 8.93621e-09 0 3.07911e-08 -5.87643e-09 0 6.05482e-08 3.08135e-09 0 4.82666e-08 -2.39896e-09 0 5.72356e-08 9.30918e-10 0 5.49824e-08 -8.70307e-10 0 5.73712e-08 3.47319e-10 0 5.65021e-08 -1.52745e-10 0 5.58968e-08 3.78711e-10 0 5.39793e-08 3.04834e-10 0 5.07953e-08 6.90715e-10 0 4.72909e-08 6.5304e-10 0 4.12987e-08 9.98053e-10 0 3.88663e-08 4.51106e-10 0 3.26374e-08 9.37048e-11 0 4.67099e-08 -2.21267e-09 0 5.2876e-08 -5.67206e-09 0 1.25295e-07 -7.04659e-09 0 1.2533e-07 -1.32926e-08 0 2.2675e-07 2.81853e-08 0 3.26413e-08 -8.20434e-08 0 -1.93504e-06 1.47641e-06 0 -6.9019e-05 -0.000206912 0 -4.35209e-06 2.2268e-05 0 4.34952e-06 -4.87185e-06 0 -2.67684e-06 1.30262e-06 0 1.5348e-06 -3.25293e-07 0 -9.10562e-07 7.29622e-08 0 3.25637e-07 8.11537e-08 0 -4.19831e-07 -5.40146e-08 0 -6.37422e-08 6.36735e-08 0 -2.7555e-07 -3.73966e-08 0 -1.74248e-07 2.75045e-08 0 -2.3021e-07 -1.72971e-08 0 -2.01136e-07 9.57139e-09 0 -2.14236e-07 -7.04999e-09 0 -2.05608e-07 2.91851e-09 0 -2.08143e-07 -2.56813e-09 0 -2.05834e-07 1.06293e-09 0 -2.06716e-07 -4.72366e-10 0 -2.07213e-07 1.09384e-09 0 -2.08982e-07 8.65375e-10 0 -2.11889e-07 1.97704e-09 0 -2.15149e-07 1.89133e-09 0 -2.20723e-07 2.85765e-09 0 -2.23054e-07 1.32125e-09 0 -2.29064e-07 1.96189e-10 0 -2.15935e-07 -6.48749e-09 0 -2.10422e-07 -1.69516e-08 0 -1.3939e-07 -2.14155e-08 0 -1.34766e-07 -4.09098e-08 0 -2.66801e-08 8.2005e-08 0 -2.13394e-07 -2.443e-07 0 -2.06669e-06 4.25001e-06 0 -7.05323e-05 -0.000347593 0 -3.8376e-06 3.73618e-05 0 5.00866e-06 -8.17173e-06 0 -2.16699e-06 2.19212e-06 0 2.10552e-06 -5.44345e-07 0 -3.73755e-07 1.19745e-07 0 8.99427e-07 1.32488e-07 0 1.55964e-07 -9.3046e-08 0 5.28399e-07 1.04817e-07 0 3.20877e-07 -6.38535e-08 0 4.28879e-07 4.52389e-08 0 3.7561e-07 -2.94816e-08 0 4.07336e-07 1.5695e-08 0 3.95476e-07 -1.19892e-08 0 4.05029e-07 4.77801e-09 0 4.02909e-07 -4.34652e-09 0 4.05423e-07 1.76233e-09 0 4.04581e-07 -7.939e-10 0 4.03979e-07 1.84687e-09 0 4.02127e-07 1.44397e-09 0 3.9891e-07 3.34553e-09 0 3.95583e-07 3.15272e-09 0 3.89251e-07 4.90981e-09 0 3.86824e-07 2.33503e-09 0 3.78298e-07 9.1143e-10 0 3.90535e-07 -9.9805e-09 0 3.88431e-07 -2.70371e-08 0 4.61035e-07 -3.50958e-08 0 4.58815e-07 -7.20887e-08 0 5.94056e-07 1.38782e-07 0 3.77847e-07 -4.20613e-07 0 -2.04416e-06 7.53351e-06 0 -7.29176e-05 -0.000490865 0 -5.05619e-06 5.27382e-05 0 4.1797e-06 -1.15548e-05 0 -3.23427e-06 3.11558e-06 0 1.11642e-06 -7.57773e-07 0 -1.46344e-06 1.71366e-07 0 -1.65658e-07 1.88712e-07 0 -9.46967e-07 -1.30237e-07 0 -5.7486e-07 1.49924e-07 0 -8.00071e-07 -8.88398e-08 0 -6.96692e-07 6.52412e-08 0 -7.58026e-07 -4.0788e-08 0 -7.2952e-07 2.28887e-08 0 -7.44764e-07 -1.65218e-08 0 -7.36704e-07 7.05255e-09 0 -7.39979e-07 -6.00934e-09 0 -7.37811e-07 2.53695e-09 0 -7.3871e-07 -1.17562e-09 0 -7.38901e-07 2.4708e-09 0 -7.40182e-07 1.83754e-09 0 -7.42334e-07 4.41947e-09 0 -7.4472e-07 4.14861e-09 0 -7.49339e-07 6.568e-09 0 -7.51191e-07 3.22651e-09 0 -7.58019e-07 1.58349e-09 0 -7.48468e-07 -1.26879e-08 0 -7.50715e-07 -3.61485e-08 0 -6.8507e-07 -4.91922e-08 0 -6.71326e-07 -1.07961e-07 0 -5.18062e-07 1.85048e-07 0 -6.94328e-07 -5.87389e-07 0 -2.54078e-06 1.03202e-05 0 -7.63007e-05 -0.000641604 0 -3.28458e-06 6.87666e-05 0 6.22e-06 -1.50523e-05 0 -1.55644e-06 4.09113e-06 0 2.94366e-06 -9.86511e-07 0 3.13852e-07 2.12587e-07 0 1.70353e-06 2.32782e-07 0 9.38307e-07 -1.78256e-07 0 1.35315e-06 1.88317e-07 0 1.14443e-06 -1.19715e-07 0 1.26688e-06 8.18086e-08 0 1.21515e-06 -5.4788e-08 0 1.25166e-06 2.85378e-08 0 1.24076e-06 -2.20962e-08 0 1.25173e-06 8.77113e-09 0 1.24992e-06 -7.95883e-09 0 1.25273e-06 3.23112e-09 0 1.25193e-06 -1.52808e-09 0 1.25133e-06 3.25446e-09 0 1.24959e-06 2.38003e-09 0 1.2463e-06 5.83749e-09 0 1.24337e-06 5.34375e-09 0 1.23635e-06 8.89018e-09 0 1.2342e-06 4.56684e-09 0 1.22094e-06 3.87096e-09 0 1.23004e-06 -1.34296e-08 0 1.20838e-06 -4.20751e-08 0 1.27897e-06 -5.9314e-08 0 1.26084e-06 -1.53237e-07 0 1.48701e-06 2.447e-07 0 1.23306e-06 -8.21599e-07 0 -2.39107e-06 1.50558e-05 0 -8.10163e-05 -0.000795404 0 -6.66506e-06 8.51702e-05 0 3.64986e-06 -1.87e-05 0 -4.61277e-06 5.13557e-06 0 4.03942e-08 -1.19706e-06 0 -2.79024e-06 2.71762e-07 0 -1.37362e-06 2.98655e-07 0 -2.23377e-06 -2.1423e-07 0 -1.83489e-06 2.42423e-07 0 -2.09103e-06 -1.42868e-07 0 -1.98554e-06 1.06983e-07 0 -2.05941e-06 -6.47176e-08 0 -2.03285e-06 3.81607e-08 0 -2.05305e-06 -2.59218e-08 0 -2.04641e-06 1.19921e-08 0 -2.05136e-06 -9.42573e-09 0 -2.04954e-06 4.19192e-09 0 -2.0505e-06 -2.07639e-09 0 -2.05008e-06 3.6122e-09 0 -2.05036e-06 2.30057e-09 0 -2.05099e-06 6.28883e-09 0 -2.05151e-06 5.62021e-09 0 -2.05395e-06 9.75825e-09 0 -2.05415e-06 5.03521e-09 0 -2.06081e-06 4.83901e-09 0 -2.05554e-06 -1.38402e-08 0 -2.07003e-06 -4.68375e-08 0 -2.01977e-06 -7.10064e-08 0 -2.00365e-06 -2.01661e-07 0 -1.76129e-06 2.56911e-07 0 -1.87373e-06 -9.647e-07 0 -3.61204e-06 1.70763e-05 0 -8.72463e-05 -0.000967968 0 -1.82712e-06 0.000103172 0 8.78407e-06 -2.25461e-05 0 -2.10091e-07 6.28498e-06 0 4.77485e-06 -1.47627e-06 0 1.91043e-06 2.90611e-07 0 3.51391e-06 3.18055e-07 0 2.71337e-06 -2.86296e-07 0 3.20498e-06 2.68712e-07 0 2.99708e-06 -1.8674e-07 0 3.14741e-06 1.17468e-07 0 3.1002e-06 -8.45252e-08 0 3.14657e-06 4.10987e-08 0 3.13826e-06 -3.3684e-08 0 3.15233e-06 1.27636e-08 0 3.15138e-06 -1.19683e-08 0 3.15484e-06 4.77181e-09 0 3.1541e-06 -2.39153e-09 0 3.15333e-06 4.67011e-09 0 3.15152e-06 3.08619e-09 0 3.1477e-06 8.24647e-09 0 3.14512e-06 7.11093e-09 0 3.13654e-06 1.31331e-08 0 3.13537e-06 7.16045e-09 0 3.1147e-06 1.00402e-08 0 3.1233e-06 -9.94637e-09 0 3.06796e-06 -4.51684e-08 0 3.13591e-06 -6.62558e-08 0 3.04795e-06 -2.7065e-07 0 3.44492e-06 3.38258e-07 0 3.17455e-06 -1.42353e-06 0 -3.16365e-06 2.67371e-05 0 -9.60094e-05 -0.00113628 0 -9.36057e-06 0.000120924 0 2.65016e-06 -2.65689e-05 0 -7.24741e-06 7.52821e-06 0 -1.93039e-06 -1.67996e-06 0 -5.17765e-06 3.82799e-07 0 -3.56046e-06 4.2628e-07 0 -4.56559e-06 -3.01451e-07 0 -4.12767e-06 3.54991e-07 0 -4.44033e-06 -1.96453e-07 0 -4.33324e-06 1.60245e-07 0 -4.43002e-06 -8.72085e-08 0 -4.40722e-06 5.87887e-08 0 -4.43645e-06 -3.43451e-08 0 -4.43228e-06 1.90143e-08 0 -4.44024e-06 -1.25777e-08 0 -4.43903e-06 6.28896e-09 0 -4.44014e-06 -3.37862e-09 0 -4.43878e-06 4.23927e-09 0 -4.43745e-06 1.68114e-09 0 -4.43568e-06 6.89521e-09 0 -4.43304e-06 5.33634e-09 0 -4.43186e-06 1.13034e-08 0 -4.42779e-06 5.39458e-09 0 -4.43245e-06 8.65701e-09 0 -4.42601e-06 -1.0161e-08 0 -4.45687e-06 -4.49292e-08 0 -4.426e-06 -7.45462e-08 0 -4.45934e-06 -3.14803e-07 0 -4.0854e-06 2.24026e-07 0 -3.97313e-06 -1.36202e-06 0 -5.87186e-06 2.37696e-05 0 -0.000108581 -0.0013577 0 -8.83355e-08 0.000143293 0 1.2006e-05 -3.09521e-05 0 8.13089e-07 8.96745e-06 0 6.85157e-06 -2.13819e-06 0 3.54673e-06 3.29871e-07 0 5.49715e-06 3.58199e-07 0 4.60093e-06 -4.43796e-07 0 5.20195e-06 3.31763e-07 0 4.98049e-06 -2.81084e-07 0 5.1675e-06 1.44892e-07 0 5.1212e-06 -1.26354e-07 0 5.17999e-06 5.00927e-08 0 5.17326e-06 -4.97662e-08 0 5.19116e-06 1.562e-08 0 5.19078e-06 -1.72232e-08 0 5.19507e-06 6.30538e-09 0 5.19431e-06 -3.30635e-09 0 5.19339e-06 6.56164e-09 0 5.19161e-06 4.01511e-09 0 5.1872e-06 1.14178e-08 0 5.18559e-06 8.96188e-09 0 5.17501e-06 1.88074e-08 0 5.17779e-06 1.0277e-08 0 5.14761e-06 2.05426e-08 0 5.16692e-06 1.52519e-09 0 5.06591e-06 -3.26347e-08 0 5.14448e-06 -2.62704e-08 0 4.88637e-06 -4.20188e-07 0 5.47675e-06 4.49672e-07 0 5.39972e-06 -2.75361e-06 0 -5.51731e-06 5.10222e-05 0 -0.00012667 -0.00153858 0 -8.18057e-06 0.000161897 0 5.62878e-06 -3.536e-05 0 -7.42252e-06 1.04094e-05 0 -3.52232e-07 -2.25201e-06 0 -4.40341e-06 5.57381e-07 0 -2.26193e-06 6.28179e-07 0 -3.4819e-06 -3.58516e-07 0 -2.89425e-06 5.29059e-07 0 -3.257e-06 -2.30852e-07 0 -3.10731e-06 2.47237e-07 0 -3.21533e-06 -9.89624e-08 0 -3.18055e-06 9.48299e-08 0 -3.21269e-06 -3.79804e-08 0 -3.20547e-06 3.18395e-08 0 -3.21447e-06 -1.44986e-08 0 -3.21269e-06 9.52864e-09 0 -3.21407e-06 -5.5877e-09 0 -3.21264e-06 3.53953e-09 0 -3.21059e-06 -1.48786e-09 0 -3.20892e-06 4.39122e-09 0 -3.20329e-06 8.49173e-10 0 -3.20413e-06 8.22884e-09 0 -3.19047e-06 2.12164e-10 0 -3.20754e-06 8.30761e-09 0 -3.17279e-06 -9.32598e-09 0 -3.2621e-06 -3.14286e-08 0 -3.17465e-06 -5.53677e-08 0 -3.47379e-06 -3.72318e-07 0 -2.87668e-06 -6.37609e-08 0 -2.41532e-06 -1.7586e-06 0 -1.08304e-05 2.63149e-05 0 -0.000167446 -0.00189468 0 -1.1903e-05 0.000196854 0 2.48911e-06 -4.09197e-05 0 -1.21365e-05 1.23017e-05 0 -3.87622e-06 -3.22528e-06 0 -8.6418e-06 2.56093e-07 0 -6.18621e-06 2.61615e-07 0 -7.68739e-06 -7.33816e-07 0 -7.03922e-06 3.23988e-07 0 -7.50354e-06 -4.52268e-07 0 -7.35464e-06 1.35256e-07 0 -7.4976e-06 -2.04071e-07 0 -7.47003e-06 4.24852e-08 0 -7.51329e-06 -7.99879e-08 0 -7.50967e-06 1.28222e-08 0 -7.52136e-06 -2.65204e-08 0 -7.5202e-06 7.45674e-09 0 -7.52124e-06 -3.90741e-09 0 -7.51903e-06 1.07552e-08 0 -7.51509e-06 6.99511e-09 0 -7.51232e-06 1.89664e-08 0 -7.50285e-06 1.30844e-08 0 -7.50323e-06 3.1664e-08 0 -7.4826e-06 1.48124e-08 0 -7.49966e-06 4.21796e-08 0 -7.458e-06 1.96528e-08 0 -7.53836e-06 -5.98812e-09 0 -7.48484e-06 1.06258e-07 0 -7.78317e-06 -5.94305e-07 0 -7.51154e-06 9.64944e-07 0 -6.53444e-06 -7.06584e-06 0 -1.54351e-05 0.000118051 0 -0.000222016 -0.00209676 0 3.61539e-05 0.000216108 0 5.17877e-05 -4.63483e-05 0 2.98434e-05 1.38027e-05 0 4.31178e-05 -2.79425e-06 0 3.70021e-05 9.34232e-07 0 4.16856e-05 1.12951e-06 0 4.0374e-05 -2.9053e-07 0 4.20554e-05 9.08735e-07 0 4.19364e-05 -1.86509e-07 0 4.25556e-05 4.40583e-07 0 4.26319e-05 -6.85485e-08 0 4.28578e-05 1.7756e-07 0 4.29155e-05 -2.35135e-08 0 4.29906e-05 6.15198e-08 0 4.30118e-05 -1.16613e-08 0 4.30278e-05 1.57717e-08 0 4.30264e-05 -1.01641e-08 0 4.30168e-05 -9.9687e-10 0 4.3005e-05 -1.17693e-08 0 4.29777e-05 -6.36331e-09 0 4.2967e-05 -1.5427e-08 0 4.29104e-05 -6.88573e-09 0 4.2929e-05 -2.25209e-08 0 4.27891e-05 -6.77553e-09 0 4.29338e-05 -3.45619e-08 0 4.25004e-05 -2.11341e-08 0 4.3097e-05 -5.89729e-08 0 4.15076e-05 -2.37813e-07 0 4.35139e-05 -5.94154e-07 0 4.20439e-05 -2.70921e-06 0 -1.96426e-05 1.35968e-05 0 -0.000451679 -0.00295938 0 -0.000155488 0.000302218 0 -0.00012186 -5.84818e-05 0 -0.000144914 1.74249e-05 0 -0.000131275 -5.36227e-06 0 -0.000143229 -2.24441e-07 0 -0.000140813 -1.57347e-07 0 -0.000146406 -1.48776e-06 0 -0.000146741 1.37218e-07 0 -0.000149283 -8.88857e-07 0 -0.000149908 2.33154e-08 0 -0.000150998 -4.03785e-07 0 -0.000151389 -1.44093e-08 0 -0.000151812 -1.57475e-07 0 -0.00015198 -7.75394e-09 0 -0.000152111 -4.91501e-08 0 -0.000152146 7.45286e-09 0 -0.000152151 -3.30899e-09 0 -0.000152114 2.31999e-08 0 -0.000152059 1.73479e-08 0 -0.000151969 4.26109e-08 0 -0.000151883 2.64423e-08 0 -0.000151724 6.99875e-08 0 -0.000151653 2.74763e-08 0 -0.000151342 9.56581e-08 0 -0.000151447 5.7384e-08 0 -0.000150696 4.74773e-09 0 -0.000151526 4.55956e-07 0 -0.000149503 -1.12887e-06 0 -0.000152806 3.95317e-06 0 -0.000147355 -2.23835e-05 0 -5.13523e-05 0.000322272 0 -0.000780333 -0.00359738 0 0.00049935 0.000360289 0 0.00054643 -7.67674e-05 0 0.000455914 2.16129e-05 0 0.000512164 -3.84888e-06 0 0.000497167 1.91909e-06 0 0.000520934 2.53586e-06 0 0.000523564 -6.26024e-08 0 0.000534436 1.94366e-06 0 0.000538468 -4.4632e-08 0 0.000543499 9.68716e-07 0 0.000545978 2.16839e-08 0 0.000548152 4.03585e-07 0 0.000549284 1.86856e-08 0 0.000550087 1.41851e-07 0 0.000550459 -2.6581e-09 0 0.000550633 3.20334e-08 0 0.000550631 -2.18384e-08 0 0.000550502 -1.39231e-08 0 0.00055032 -3.85705e-08 0 0.000549977 -3.68308e-08 0 0.000549736 -5.66151e-08 0 0.000549077 -5.32019e-08 0 0.000549049 -7.77106e-08 0 0.000547555 -7.02337e-08 0 0.00054877 -9.75481e-08 0 0.000544449 -1.03537e-07 0 0.000550637 -8.15496e-08 0 0.000536281 -2.83815e-07 0 0.000557483 7.23845e-08 0 0.000525192 -7.42812e-06 0 -6.11558e-06 -2.59527e-05 0 -0.00294775 -0.00662169 0 -0.00273867 0.00063483 0 -0.00250758 -0.00012747 0 -0.00247368 3.61158e-05 0 -0.00250895 -1.0888e-05 0 -0.00256611 7.64941e-07 0 -0.00261552 1.69643e-07 0 -0.00266578 -2.09306e-06 0 -0.00270142 6.69641e-07 0 -0.00273183 -1.27793e-06 0 -0.00275206 2.82299e-07 0 -0.00276726 -5.72486e-07 0 -0.00277684 8.55716e-08 0 -0.00278325 -2.22799e-07 0 -0.00278693 2.69095e-08 0 -0.00278897 -7.33499e-08 0 -0.00278975 1.94309e-08 0 -0.00278977 -1.22926e-08 0 -0.00278911 2.9451e-08 0 -0.00278817 1.23136e-08 0 -0.0027865 5.08962e-08 0 -0.00278515 1.75904e-08 0 -0.00278212 8.66331e-08 0 -0.00278138 9.60103e-09 0 -0.0027751 1.15363e-07 0 -0.00277865 7.61216e-08 0 -0.00276212 -1.20586e-07 0 -0.00278301 9.88103e-07 0 -0.00273101 -2.60314e-06 0 -0.0028058 1.02848e-05 0 -0.00269412 -4.77993e-05 0 -0.000732735 0.000675094 0 0.0238223 -0.0102164 0 0.0250053 0.00164722 0 0.0243657 -0.000222418 0 0.0224639 8.10308e-05 0 0.0236537 -4.81331e-05 0 0.0236747 -2.33497e-05 0 0.0244021 -2.40406e-05 0 0.0247192 -2.47765e-05 0 0.0251239 -1.41798e-05 0 0.0253625 -1.43029e-05 0 0.0255667 -7.44802e-06 0 0.0256935 -6.57569e-06 0 0.0257838 -3.23554e-06 0 0.0258376 -2.46126e-06 0 0.0258703 -1.0346e-06 0 0.0258867 -6.03669e-07 0 0.025893 -3.77161e-08 0 0.0258926 1.52844e-07 0 0.0258869 4.06624e-07 0 0.0258788 4.62316e-07 0 0.0258656 6.87031e-07 0 0.0258545 6.00406e-07 0 0.0258315 9.81608e-07 0 0.0258253 6.22674e-07 0 0.0257791 1.16496e-06 0 0.0258066 7.86146e-07 0 0.0256865 -2.62843e-07 0 0.0258515 4.13192e-06 0 0.0254784 -1.37905e-05 0 0.0260824 4.09808e-05 0 0.025369 -0.000229949 0 0.0110158 0.00304866 0 </DataArray> 
</PointData> 
<Points> 
<DataArray type="Float32" NumberOfComponents="3"> 