<?xml version="1.0"?> 
<VTKFile type="StructuredGrid" version="0.1"> 
<StructuredGrid WholeExtent="0 31 0 31 0 0"> 
<Piece Extent="0 31 0 31 0 0"> 
<PointData>
<DataArray type="Float32" Name="B" format="ascii" NumberOfComponents="3"> 
0 -0 0 2.59323e-07 -0 0 5.20558e-07 -0 0 7.85622e-07 -0 0 1.05644e-06 -0 0 1.33494e-06 -0 0 1.62308e-06 -0 0 1.9228e-06 -0 0 2.23608e-06 -0 0 2.56486e-06 -0 0 2.9111e-06 -0 0 3.27672e-06 -0 0 3.66359e-06 -0 0 4.0735e-06 -0 0 4.50815e-06 -0 0 4.96907e-06 -0 0 5.45763e-06 -0 0 5.97492e-06 -0 0 6.5218e-06 -0 0 7.09872e-06 -0 0 7.70578e-06 -0 0 8.34261e-06 -0 0 9.00832e-06 -0 0 9.70152e-06 -0 0 1.04202e-05 -0 0 1.11619e-05 -0 0 1.19233e-05 -0 0 1.2701e-05 -0 0 1.34905e-05 -0 0 1.42875e-05 -0 0 1.50868e-05 -0 0 1.58833e-05 -0 0 6.50944e-22 -2.58686e-07 0 2.58367e-07 -2.59641e-07 0 5.18644e-07 -2.6251e-07 0 7.82746e-07 -2.67297e-07 0 1.0526e-06 -2.74013e-07 0 1.33013e-06 -2.82669e-07 0 1.61728e-06 -2.93277e-07 0 1.91603e-06 -3.05845e-07 0 2.22832e-06 -3.20376e-07 0 2.55613e-06 -3.36867e-07 0 2.90141e-06 -3.55297e-07 0 3.26609e-06 -3.75631e-07 0 3.65206e-06 -3.97808e-07 0 4.06113e-06 -4.21738e-07 0 4.495e-06 -4.47298e-07 0 4.95524e-06 -4.74321e-07 0 5.44323e-06 -5.02597e-07 0 5.96011e-06 -5.31861e-07 0 6.50674e-06 -5.61798e-07 0 7.08362e-06 -5.92035e-07 0 7.69086e-06 -6.22143e-07 0 8.32812e-06 -6.51645e-07 0 8.99454e-06 -6.80016e-07 0 9.68872e-06 -7.067e-07 0 1.04087e-05 -7.31119e-07 0 1.11519e-05 -7.52692e-07 0 1.19152e-05 -7.70852e-07 0 1.26949e-05 -7.85068e-07 0 1.34868e-05 -7.94865e-07 0 1.42863e-05 -7.9984e-07 0 1.50882e-05 -7.99683e-07 0 1.58874e-05 -7.94182e-07 0 1.06841e-21 -5.15461e-07 0 2.55502e-07 -5.1737e-07 0 5.12907e-07 -5.231e-07 0 7.74125e-07 -5.32666e-07 0 1.04107e-06 -5.46087e-07 0 1.31569e-06 -5.63387e-07 0 1.59991e-06 -5.84592e-07 0 1.8957e-06 -6.09724e-07 0 2.20505e-06 -6.38792e-07 0 2.52992e-06 -6.71791e-07 0 2.87231e-06 -7.08688e-07 0 3.23416e-06 -7.49415e-07 0 3.61741e-06 -7.93857e-07 0 4.02392e-06 -8.41841e-07 0 4.45545e-06 -8.93124e-07 0 4.91362e-06 -9.47382e-07 0 5.3999e-06 -1.00419e-06 0 5.9155e-06 -1.06304e-06 0 6.46136e-06 -1.12329e-06 0 7.03808e-06 -1.18419e-06 0 7.64584e-06 -1.24489e-06 0 8.28438e-06 -1.30441e-06 0 8.95289e-06 -1.36172e-06 0 9.65003e-06 -1.41566e-06 0 1.03738e-05 -1.46509e-06 0 1.11218e-05 -1.5088e-06 0 1.18906e-05 -1.54566e-06 0 1.26767e-05 -1.57457e-06 0 1.34755e-05 -1.59457e-06 0 1.42825e-05 -1.60483e-06 0 1.50924e-05 -1.60473e-06 0 1.58997e-05 -1.59383e-06 0 0 -7.68421e-07 0 2.50734e-07 -7.71278e-07 0 5.03359e-07 -7.79858e-07 0 7.59775e-07 -7.94181e-07 0 1.02189e-06 -8.14281e-07 0 1.29164e-06 -8.40199e-07 0 1.57096e-06 -8.7198e-07 0 1.86183e-06 -9.09663e-07 0 2.16624e-06 -9.53273e-07 0 2.4862e-06 -1.00281e-06 0 2.82373e-06 -1.05824e-06 0 3.18083e-06 -1.11947e-06 0 3.5595e-06 -1.18635e-06 0 3.96167e-06 -1.25863e-06 0 4.38921e-06 -1.33596e-06 0 4.84386e-06 -1.41787e-06 0 5.32719e-06 -1.50374e-06 0 5.84056e-06 -1.5928e-06 0 6.38506e-06 -1.6841e-06 0 6.96141e-06 -1.77653e-06 0 7.56996e-06 -1.86878e-06 0 8.21056e-06 -1.9594e-06 0 8.88252e-06 -2.04676e-06 0 9.58457e-06 -2.12915e-06 0 1.03148e-05 -2.20477e-06 0 1.10706e-05 -2.27179e-06 0 1.18488e-05 -2.32842e-06 0 1.26454e-05 -2.37301e-06 0 1.34561e-05 -2.40403e-06 0 1.42758e-05 -2.42022e-06 0 1.5099e-05 -2.4206e-06 0 1.59201e-05 -2.40452e-06 0 4.00514e-23 -1.01567e-06 0 2.44075e-07 -1.01947e-06 0 4.90023e-07 -1.03087e-06 0 7.39727e-07 -1.04992e-06 0 9.95084e-07 -1.07666e-06 0 1.25801e-06 -1.11115e-06 0 1.53047e-06 -1.15346e-06 0 1.81442e-06 -1.20367e-06 0 2.11189e-06 -1.26182e-06 0 2.42492e-06 -1.32793e-06 0 2.75557e-06 -1.40198e-06 0 3.10592e-06 -1.48387e-06 0 3.47806e-06 -1.57343e-06 0 3.87404e-06 -1.67035e-06 0 4.29585e-06 -1.7742e-06 0 4.74538e-06 -1.88437e-06 0 5.2244e-06 -2.00007e-06 0 5.73445e-06 -2.12029e-06 0 6.27683e-06 -2.24377e-06 0 6.85248e-06 -2.36902e-06 0 7.46195e-06 -2.49429e-06 0 8.10528e-06 -2.61761e-06 0 8.78196e-06 -2.73677e-06 0 9.49082e-06 -2.84941e-06 0 1.023e-05 -2.95305e-06 0 1.0997e-05 -3.04517e-06 0 1.17884e-05 -3.12328e-06 0 1.26001e-05 -3.18504e-06 0 1.34276e-05 -3.22837e-06 0 1.42654e-05 -3.25148e-06 0 1.51077e-05 -3.25301e-06 0 1.59486e-05 -3.23204e-06 0 3.77761e-21 -1.25532e-06 0 2.35543e-07 -1.26005e-06 0 4.72934e-07 -1.27425e-06 0 7.1403e-07 -1.29797e-06 0 9.60708e-07 -1.33128e-06 0 1.21488e-06 -1.37427e-06 0 1.47848e-06 -1.42705e-06 0 1.7535e-06 -1.48973e-06 0 2.04198e-06 -1.56239e-06 0 2.34601e-06 -1.6451e-06 0 2.6677e-06 -1.73786e-06 0 3.00923e-06 -1.84059e-06 0 3.37278e-06 -1.95311e-06 0 3.76056e-06 -2.07511e-06 0 4.17473e-06 -2.20607e-06 0 4.61739e-06 -2.3453e-06 0 5.09052e-06 -2.49185e-06 0 5.59595e-06 -2.64446e-06 0 6.13525e-06 -2.80162e-06 0 6.70965e-06 -2.96144e-06 0 7.31998e-06 -3.12172e-06 0 7.96655e-06 -3.27994e-06 0 8.64909e-06 -3.43328e-06 0 9.36661e-06 -3.57867e-06 0 1.01174e-05 -3.71287e-06 0 1.08988e-05 -3.83257e-06 0 1.17074e-05 -3.93451e-06 0 1.2539e-05 -4.01558e-06 0 1.33886e-05 -4.073e-06 0 1.42504e-05 -4.1044e-06 0 1.5118e-05 -4.10798e-06 0 1.59849e-05 -4.08255e-06 0 2.28826e-21 -1.48553e-06 0 2.25166e-07 -1.49117e-06 0 4.52143e-07 -1.50812e-06 0 6.82755e-07 -1.53643e-06 0 9.18848e-07 -1.57622e-06 0 1.16231e-06 -1.62761e-06 0 1.41508e-06 -1.69075e-06 0 1.67913e-06 -1.7658e-06 0 1.95655e-06 -1.85292e-06 0 2.24943e-06 -1.95221e-06 0 2.56e-06 -2.06374e-06 0 2.89051e-06 -2.18749e-06 0 3.24328e-06 -2.3233e-06 0 3.62069e-06 -2.47086e-06 0 4.0251e-06 -2.62964e-06 0 4.45888e-06 -2.79888e-06 0 4.92432e-06 -2.97749e-06 0 5.42354e-06 -3.16405e-06 0 5.9585e-06 -3.35674e-06 0 6.5308e-06 -3.55334e-06 0 7.14165e-06 -3.75116e-06 0 7.79175e-06 -3.94712e-06 0 8.48112e-06 -4.13772e-06 0 9.20904e-06 -4.31911e-06 0 9.97391e-06 -4.4872e-06 0 1.07732e-05 -4.63778e-06 0 1.16034e-05 -4.76666e-06 0 1.24599e-05 -4.86984e-06 0 1.33374e-05 -4.94372e-06 0 1.42294e-05 -4.98525e-06 0 1.5129e-05 -4.99208e-06 0 1.60288e-05 -4.96272e-06 0 0 -1.70445e-06 0 2.12981e-07 -1.71099e-06 0 4.27723e-07 -1.73062e-06 0 6.46003e-07 -1.76343e-06 0 8.69628e-07 -1.80956e-06 0 1.10045e-06 -1.86919e-06 0 1.34039e-06 -1.94253e-06 0 1.59143e-06 -2.02981e-06 0 1.85564e-06 -2.13125e-06 0 2.1352e-06 -2.24706e-06 0 2.43237e-06 -2.37739e-06 0 2.74952e-06 -2.5223e-06 0 3.08915e-06 -2.6817e-06 0 3.45379e-06 -2.85534e-06 0 3.8461e-06 -3.04271e-06 0 4.26871e-06 -3.24303e-06 0 4.72428e-06 -3.45513e-06 0 5.21536e-06 -3.67743e-06 0 5.74433e-06 -3.9079e-06 0 6.3133e-06 -4.14393e-06 0 6.92398e-06 -4.3824e-06 0 7.57754e-06 -4.61961e-06 0 8.27446e-06 -4.85131e-06 0 9.01435e-06 -5.07281e-06 0 9.79588e-06 -5.27904e-06 0 1.06166e-05 -5.46472e-06 0 1.14728e-05 -5.62456e-06 0 1.23598e-05 -5.7535e-06 0 1.32714e-05 -5.84693e-06 0 1.42007e-05 -5.90093e-06 0 1.51399e-05 -5.91254e-06 0 1.60804e-05 -5.87985e-06 0 0 -1.91032e-06 0 1.99037e-07 -1.91771e-06 0 3.9977e-07 -1.93995e-06 0 6.03914e-07 -1.97712e-06 0 8.13219e-07 -2.02942e-06 0 1.02949e-06 -2.09707e-06 0 1.25462e-06 -2.18037e-06 0 1.49056e-06 -2.27964e-06 0 1.73941e-06 -2.3952e-06 0 2.00336e-06 -2.52738e-06 0 2.28476e-06 -2.67645e-06 0 2.58609e-06 -2.84258e-06 0 2.91e-06 -3.02583e-06 0 3.25925e-06 -3.22603e-06 0 3.63677e-06 -3.44278e-06 0 4.04557e-06 -3.67531e-06 0 4.4887e-06 -3.92247e-06 0 4.96923e-06 -4.18257e-06 0 5.49009e-06 -4.45338e-06 0 6.05401e-06 -4.732e-06 0 6.66332e-06 -5.01482e-06 0 7.31984e-06 -5.29752e-06 0 8.02464e-06 -5.57506e-06 0 8.77784e-06 -5.84176e-06 0 9.57846e-06 -6.09143e-06 0 1.04242e-05 -6.31753e-06 0 1.13114e-05 -6.51345e-06 0 1.22347e-05 -6.67279e-06 0 1.31876e-05 -6.7897e-06 0 1.41621e-05 -6.8592e-06 0 1.51492e-05 -6.8775e-06 0 1.61392e-05 -6.84222e-06 0 0 -2.1014e-06 0 1.834e-07 -2.10962e-06 0 3.68413e-07 -2.13434e-06 0 5.56672e-07 -2.1757e-06 0 7.49854e-07 -2.23392e-06 0 9.49701e-07 -2.30931e-06 0 1.15804e-06 -2.40225e-06 0 1.37682e-06 -2.51317e-06 0 1.6081e-06 -2.64253e-06 0 1.85411e-06 -2.7908e-06 0 2.11725e-06 -2.95842e-06 0 2.40012e-06 -3.14573e-06 0 2.70552e-06 -3.35296e-06 0 3.03647e-06 -3.58013e-06 0 3.39619e-06 -3.82698e-06 0 3.78808e-06 -4.0929e-06 0 4.21572e-06 -4.37676e-06 0 4.68273e-06 -4.6769e-06 0 5.19274e-06 -4.99095e-06 0 5.74922e-06 -5.31574e-06 0 6.35533e-06 -5.64723e-06 0 7.01371e-06 -5.98047e-06 0 7.72622e-06 -6.30955e-06 0 8.4937e-06 -6.62769e-06 0 9.31569e-06 -6.92737e-06 0 1.01902e-05 -7.20056e-06 0 1.11134e-05 -7.43901e-06 0 1.20799e-05 -7.63466e-06 0 1.30821e-05 -7.78007e-06 0 1.41109e-05 -7.8689e-06 0 1.51558e-05 -7.89629e-06 0 1.62054e-05 -7.85929e-06 0 0 -2.27605e-06 0 1.66154e-07 -2.28505e-06 0 3.33816e-07 -2.31212e-06 0 5.04517e-07 -2.35743e-06 0 6.79838e-07 -2.42126e-06 0 8.61433e-07 -2.50401e-06 0 1.05106e-06 -2.60615e-06 0 1.25059e-06 -2.72826e-06 0 1.46208e-06 -2.87095e-06 0 1.68775e-06 -3.03487e-06 0 1.93004e-06 -3.22066e-06 0 2.19165e-06 -3.42891e-06 0 2.47553e-06 -3.66009e-06 0 2.78494e-06 -3.91448e-06 0 3.12344e-06 -4.19205e-06 0 3.49488e-06 -4.49242e-06 0 3.90336e-06 -4.81466e-06 0 4.3532e-06 -5.15719e-06 0 4.84885e-06 -5.51762e-06 0 5.39471e-06 -5.89261e-06 0 5.99495e-06 -6.27775e-06 0 6.65327e-06 -6.66744e-06 0 7.37262e-06 -7.05485e-06 0 8.15479e-06 -7.43198e-06 0 9.00011e-06 -7.78977e-06 0 9.90707e-06 -8.11836e-06 0 1.0872e-05 -8.40748e-06 0 1.1889e-05 -8.64695e-06 0 1.29496e-05 -8.82729e-06 0 1.40433e-05 -8.94033e-06 0 1.51576e-05 -8.97985e-06 0 1.62785e-05 -8.94196e-06 0 0 -2.43271e-06 0 1.47405e-07 -2.44243e-06 0 2.96188e-07 -2.47167e-06 0 4.47755e-07 -2.52065e-06 0 6.03565e-07 -2.5897e-06 0 7.65158e-07 -2.67932e-06 0 9.34186e-07 -2.7901e-06 0 1.11245e-06 -2.92277e-06 0 1.30192e-06 -3.07813e-06 0 1.50481e-06 -3.25705e-06 0 1.72357e-06 -3.46043e-06 0 1.96095e-06 -3.68914e-06 0 2.22006e-06 -3.94398e-06 0 2.50439e-06 -4.22556e-06 0 2.81781e-06 -4.53425e-06 0 3.16466e-06 -4.86997e-06 0 3.54964e-06 -5.23214e-06 0 3.97787e-06 -5.61942e-06 0 4.45473e-06 -6.02954e-06 0 4.98574e-06 -6.45914e-06 0 5.57634e-06 -6.90351e-06 0 6.23163e-06 -7.35647e-06 0 6.95593e-06 -7.81026e-06 0 7.75241e-06 -8.25548e-06 0 8.62252e-06 -8.6813e-06 0 9.56557e-06 -9.07564e-06 0 1.05782e-05 -9.4257e-06 0 1.16541e-05 -9.71859e-06 0 1.27838e-05 -9.94212e-06 0 1.39549e-05 -1.00857e-05 0 1.51524e-05 -1.01412e-05 0 1.63599e-05 -1.01039e-05 0 0 -2.56994e-06 0 1.27281e-07 -2.58032e-06 0 2.55786e-07 -2.61152e-06 0 3.86765e-07 -2.66381e-06 0 5.21528e-07 -2.7376e-06 0 6.61471e-07 -2.83348e-06 0 8.08112e-07 -2.95219e-06 0 9.63128e-07 -3.09461e-06 0 1.1284e-06 -3.26176e-06 0 1.30605e-06 -3.45477e-06 0 1.49852e-06 -3.67485e-06 0 1.70858e-06 -3.92322e-06 0 1.93945e-06 -4.20107e-06 0 2.1948e-06 -4.50949e-06 0 2.47884e-06 -4.8493e-06 0 2.79636e-06 -5.22096e-06 0 3.15274e-06 -5.62436e-06 0 3.55394e-06 -6.0586e-06 0 4.00645e-06 -6.52177e-06 0 4.51711e-06 -7.01064e-06 0 5.09294e-06 -7.52041e-06 0 5.74077e-06 -8.04442e-06 0 6.46679e-06 -8.57396e-06 0 7.27601e-06 -9.0982e-06 0 8.17155e-06 -9.60418e-06 0 9.15398e-06 -1.00772e-05 0 1.02206e-05 -1.05012e-05 0 1.13649e-05 -1.08599e-05 0 1.25762e-05 -1.11373e-05 0 1.38398e-05 -1.13197e-05 0 1.51375e-05 -1.13962e-05 0 1.64479e-05 -1.13597e-05 0 -1.11895e-21 -2.68646e-06 0 1.05939e-07 -2.6974e-06 0 2.12918e-07 -2.73031e-06 0 3.22006e-07 -2.78549e-06 0 4.34332e-07 -2.86344e-06 0 5.51113e-07 -2.96484e-06 0 6.73696e-07 -3.09058e-06 0 8.03595e-07 -3.24173e-06 0 9.42543e-07 -3.41954e-06 0 1.09255e-06 -3.62544e-06 0 1.25595e-06 -3.86097e-06 0 1.4355e-06 -4.12778e-06 0 1.63445e-06 -4.42756e-06 0 1.85661e-06 -4.76195e-06 0 2.10649e-06 -5.13241e-06 0 2.3893e-06 -5.54008e-06 0 2.7111e-06 -5.98556e-06 0 3.07878e-06 -6.46864e-06 0 3.50003e-06 -6.98803e-06 0 3.98328e-06 -7.54094e-06 0 4.53743e-06 -8.12272e-06 0 5.17151e-06 -8.72646e-06 0 5.89415e-06 -9.34263e-06 0 6.71285e-06 -9.95885e-06 0 7.63315e-06 -1.05598e-05 0 8.65755e-06 -1.11276e-05 0 9.7846e-06 -1.16422e-05 0 1.10079e-05 -1.20826e-05 0 1.23156e-05 -1.24282e-05 0 1.36902e-05 -1.26603e-05 0 1.51092e-05 -1.27643e-05 0 1.65473e-05 -1.27326e-05 0 -9.84972e-21 -2.78113e-06 0 8.35604e-08 -2.79253e-06 0 1.6795e-07 -2.82686e-06 0 2.54025e-07 -2.88445e-06 0 3.42701e-07 -2.96586e-06 0 4.34982e-07 -3.0719e-06 0 5.31999e-07 -3.20359e-06 0 6.35058e-07 -3.36222e-06 0 7.45689e-07 -3.54927e-06 0 8.6571e-07 -3.76649e-06 0 9.97306e-07 -4.01581e-06 0 1.14312e-06 -4.29937e-06 0 1.30634e-06 -4.61942e-06 0 1.49085e-06 -4.97829e-06 0 1.70133e-06 -5.37823e-06 0 1.9434e-06 -5.82126e-06 0 2.22373e-06 -6.30896e-06 0 2.55016e-06 -6.84213e-06 0 2.93171e-06 -7.42045e-06 0 3.37859e-06 -8.04197e-06 0 3.90193e-06 -8.70263e-06 0 4.51351e-06 -9.39559e-06 0 5.22509e-06 -1.01108e-05 0 6.0476e-06 -1.08343e-05 0 6.98994e-06 -1.15483e-05 0 8.05766e-06 -1.2231e-05 0 9.25138e-06 -1.28575e-05 0 1.05656e-05 -1.34006e-05 0 1.19872e-05 -1.38331e-05 0 1.34956e-05 -1.41298e-05 0 1.50625e-05 -1.42709e-05 0 1.66522e-05 -1.42406e-05 0 -1.80008e-21 -2.85303e-06 0 6.03579e-08 -2.86479e-06 0 1.21306e-07 -2.90019e-06 0 1.83459e-07 -2.95961e-06 0 2.47487e-07 -3.04369e-06 0 3.14143e-07 -3.15333e-06 0 3.84299e-07 -3.28972e-06 0 4.58999e-07 -3.45431e-06 0 5.39505e-07 -3.64887e-06 0 6.27375e-07 -3.87546e-06 0 7.24544e-07 -4.13644e-06 0 8.33433e-07 -4.43447e-06 0 9.57077e-07 -4.77246e-06 0 1.09928e-06 -5.15353e-06 0 1.26477e-06 -5.58088e-06 0 1.45943e-06 -6.05765e-06 0 1.69046e-06 -6.58669e-06 0 1.9666e-06 -7.1702e-06 0 2.29825e-06 -7.8093e-06 0 2.69752e-06 -8.50343e-06 0 3.1782e-06 -9.24967e-06 0 3.75536e-06 -1.00419e-05 0 4.44479e-06 -1.08699e-05 0 5.26195e-06 -1.17186e-05 0 6.22055e-06 -1.25675e-05 0 7.33062e-06 -1.33904e-05 0 8.59652e-06 -1.41561e-05 0 1.00144e-05 -1.48296e-05 0 1.15709e-05 -1.53745e-05 0 1.32412e-05 -1.57566e-05 0 1.49906e-05 -1.59466e-05 0 1.67784e-05 -1.59331e-05 0 0 -2.90146e-06 0 3.65697e-08 -2.91344e-06 0 7.34651e-08 -2.94954e-06 0 1.11033e-07 -3.01016e-06 0 1.49666e-07 -3.096e-06 0 1.89829e-07 -3.20808e-06 0 2.32094e-07 -3.34769e-06 0 2.77182e-07 -3.51649e-06 0 3.26022e-07 -3.71649e-06 0 3.79823e-07 -3.95009e-06 0 4.40166e-07 -4.22007e-06 0 5.09125e-07 -4.52964e-06 0 5.8942e-07 -4.88244e-06 0 6.84597e-07 -5.28247e-06 0 7.99264e-07 -5.73405e-06 0 9.39344e-07 -6.24167e-06 0 1.11238e-06 -6.80978e-06 0 1.32785e-06 -7.44241e-06 0 1.59743e-06 -8.14271e-06 0 1.9353e-06 -8.91224e-06 0 2.35811e-06 -9.75004e-06 0 2.8849e-06 -1.06516e-05 0 3.53646e-06 -1.16073e-05 0 4.33428e-06 -1.26017e-05 0 5.29867e-06 -1.36118e-05 0 6.4465e-06 -1.46064e-05 0 7.7878e-06 -1.55467e-05 0 9.32296e-06 -1.63874e-05 0 1.10385e-05 -1.708e-05 0 1.29069e-05 -1.75762e-05 0 1.48829e-05 -1.78368e-05 0 1.69024e-05 -1.78188e-05 0 0 -2.92596e-06 0 1.24593e-08 -2.93803e-06 0 2.49588e-08 -2.97441e-06 0 3.75541e-08 -3.03553e-06 0 5.03336e-08 -3.12215e-06 0 6.344e-08 -3.23534e-06 0 7.70993e-08 -3.37653e-06 0 9.16589e-08 -3.54754e-06 0 1.0764e-07 -3.75059e-06 0 1.25811e-07 -3.9884e-06 0 1.47279e-07 -4.26416e-06 0 1.73622e-07 -4.58166e-06 0 2.07056e-07 -4.94525e-06 0 2.50653e-07 -5.3599e-06 0 3.08618e-07 -5.83118e-06 0 3.86628e-07 -6.36515e-06 0 4.92246e-07 -6.96819e-06 0 6.35379e-07 -7.64668e-06 0 8.28782e-07 -8.40649e-06 0 1.08853e-06 -9.25217e-06 0 1.43436e-06 -1.01859e-05 0 1.88979e-06 -1.12059e-05 0 2.48174e-06 -1.2305e-05 0 3.23939e-06 -1.34679e-05 0 4.19232e-06 -1.46701e-05 0 5.36705e-06 -1.58755e-05 0 6.78331e-06 -1.70362e-05 0 8.4479e-06 -1.80938e-05 0 1.03516e-05 -1.89823e-05 0 1.24611e-05 -1.96357e-05 0 1.47236e-05 -1.99903e-05 0 1.70738e-05 -2.00343e-05 0 -2.33678e-21 -2.92635e-06 0 -1.16887e-08 -2.93837e-06 0 -2.36378e-08 -2.97459e-06 0 -3.61002e-08 -3.03546e-06 0 -4.93126e-08 -3.12177e-06 0 -6.34823e-08 -3.23466e-06 0 -7.87669e-08 -3.37562e-06 0 -9.52454e-08 -3.54661e-06 0 -1.12874e-07 -3.75003e-06 0 -1.31421e-07 -3.98884e-06 0 -1.50378e-07 -4.26663e-06 0 -1.68831e-07 -4.58769e-06 0 -1.85282e-07 -4.95709e-06 0 -1.97412e-07 -5.38079e-06 0 -2.01758e-07 -5.86568e-06 0 -1.93298e-07 -6.41956e-06 0 -1.64924e-07 -7.05106e-06 0 -1.06794e-07 -7.76943e-06 0 -5.58657e-09 -8.584e-06 0 1.56319e-07 -9.50343e-06 0 4.01607e-07 -1.05345e-05 0 7.58609e-07 -1.168e-05 0 1.26135e-06 -1.2937e-05 0 1.94884e-06 -1.4293e-05 0 2.86283e-06 -1.57233e-05 0 4.04431e-06 -1.71874e-05 0 5.52695e-06 -1.86276e-05 0 7.33119e-06 -1.99686e-05 0 9.45267e-06 -2.11221e-05 0 1.18611e-05 -2.1992e-05 0 1.44859e-05 -2.24971e-05 0 1.72061e-05 -2.25045e-05 0 -1.01374e-20 -2.90275e-06 0 -3.55753e-08 -2.91457e-06 0 -7.17184e-08 -2.95016e-06 0 -1.09e-07 -3.01e-06 0 -1.47994e-07 -3.09489e-06 0 -1.89277e-07 -3.20596e-06 0 -2.33419e-07 -3.34478e-06 0 -2.80969e-07 -3.51335e-06 0 -3.32423e-07 -3.71418e-06 0 -3.88175e-07 -3.95044e-06 0 -4.48442e-07 -4.22597e-06 0 -5.13148e-07 -4.54552e-06 0 -5.81752e-07 -4.91479e-06 0 -6.53002e-07 -5.34066e-06 0 -7.24591e-07 -5.83134e-06 0 -7.92682e-07 -6.39644e-06 0 -8.51264e-07 -7.04711e-06 0 -8.91322e-07 -7.79586e-06 0 -8.99791e-07 -8.65633e-06 0 -8.58314e-07 -9.6425e-06 0 -7.41866e-07 -1.07674e-05 0 -5.1747e-07 -1.20412e-05 0 -1.43215e-07 -1.34679e-05 0 4.31581e-07 -1.50412e-05 0 1.26499e-06 -1.67395e-05 0 2.41755e-06 -1.85204e-05 0 3.94612e-06 -2.03158e-05 0 5.89022e-06 -2.20305e-05 0 8.26434e-06 -2.35442e-05 0 1.10345e-05 -2.47259e-05 0 1.41264e-05 -2.5429e-05 0 1.74437e-05 -2.56779e-05 0 -8.51579e-22 -2.85558e-06 0 -5.88948e-08 -2.86703e-06 0 -1.18662e-07 -2.90154e-06 0 -1.80187e-07 -2.95956e-06 0 -2.44385e-07 -3.04187e-06 0 -3.12208e-07 -3.1496e-06 0 -3.84656e-07 -3.28428e-06 0 -4.62774e-07 -3.44791e-06 0 -5.47646e-07 -3.64304e-06 0 -6.40366e-07 -3.87288e-06 0 -7.41992e-07 -4.14147e-06 0 -8.53452e-07 -4.45381e-06 0 -9.75401e-07 -4.8161e-06 0 -1.108e-06 -5.23598e-06 0 -1.25056e-06 -5.72282e-06 0 -1.40108e-06 -6.28802e-06 0 -1.55545e-06 -6.94525e-06 0 -1.70655e-06 -7.71066e-06 0 -1.84282e-06 -8.60283e-06 0 -1.94656e-06 -9.64231e-06 0 -1.99178e-06 -1.08506e-05 0 -1.94183e-06 -1.22479e-05 0 -1.74713e-06 -1.38496e-05 0 -1.34352e-06 -1.56609e-05 0 -6.53076e-07 -1.76689e-05 0 4.13023e-07 -1.98341e-05 0 1.94333e-06 -2.20807e-05 0 4.01526e-06 -2.42897e-05 0 6.66553e-06 -2.63027e-05 0 9.88455e-06 -2.7923e-05 0 1.35723e-05 -2.8983e-05 0 1.74975e-05 -2.90487e-05 0 0 -2.78554e-06 0 -8.13445e-08 -2.79648e-06 0 -1.63851e-07 -2.82946e-06 0 -2.48709e-07 -2.8849e-06 0 -3.37159e-07 -2.96351e-06 0 -4.30524e-07 -3.06637e-06 0 -5.30229e-07 -3.19492e-06 0 -6.37827e-07 -3.35108e-06 0 -7.55014e-07 -3.53731e-06 0 -8.83633e-07 -3.75676e-06 0 -1.02567e-06 -4.01343e-06 0 -1.18319e-06 -4.31241e-06 0 -1.35827e-06 -4.66011e-06 0 -1.55281e-06 -5.06467e-06 0 -1.76825e-06 -5.53634e-06 0 -2.0051e-06 -6.08798e-06 0 -2.26219e-06 -6.73564e-06 0 -2.53559e-06 -7.49907e-06 0 -2.817e-06 -8.40218e-06 0 -3.09154e-06 -9.47317e-06 0 -3.33466e-06 -1.0744e-05 0 -3.50851e-06 -1.22484e-05 0 -3.55736e-06 -1.40189e-05 0 -3.40389e-06 -1.60793e-05 0 -2.9458e-06 -1.84352e-05 0 -2.05918e-06 -2.10594e-05 0 -6.04315e-07 -2.38752e-05 0 1.5472e-06 -2.67421e-05 0 4.49423e-06 -2.94446e-05 0 8.24058e-06 -3.17224e-05 0 1.2703e-05 -3.32222e-05 0 1.77602e-05 -3.42059e-05 0 0 -2.69365e-06 0 -1.02637e-07 -2.70395e-06 0 -2.06699e-07 -2.73498e-06 0 -3.13651e-07 -2.7871e-06 0 -4.25036e-07 -2.86097e-06 0 -5.42521e-07 -2.95752e-06 0 -6.67934e-07 -3.07805e-06 0 -8.03318e-07 -3.2243e-06 0 -9.50974e-07 -3.3985e-06 0 -1.1135e-06 -3.60358e-06 0 -1.29385e-06 -3.84331e-06 0 -1.49533e-06 -4.12255e-06 0 -1.7216e-06 -4.44762e-06 0 -1.97657e-06 -4.8267e-06 0 -2.26427e-06 -5.27042e-06 0 -2.58844e-06 -5.79257e-06 0 -2.9519e-06 -6.41097e-06 0 -3.35552e-06 -7.14853e-06 0 -3.79648e-06 -8.03433e-06 0 -4.26568e-06 -9.10462e-06 0 -4.7439e-06 -1.04034e-05 0 -5.19637e-06 -1.19818e-05 0 -5.56595e-06 -1.38952e-05 0 -5.76439e-06 -1.61968e-05 0 -5.66545e-06 -1.89248e-05 0 -5.09843e-06 -2.20819e-05 0 -3.85882e-06 -2.56076e-05 0 -1.72172e-06 -2.93439e-05 0 1.49e-06 -3.30218e-05 0 5.87634e-06 -3.62315e-05 0 1.13292e-05 -3.8628e-05 0 1.74026e-05 -3.87615e-05 0 0 -2.58121e-06 0 -1.2251e-07 -2.59074e-06 0 -2.4667e-07 -2.61944e-06 0 -3.74179e-07 -2.66762e-06 0 -5.06843e-07 -2.7358e-06 0 -6.46624e-07 -2.82475e-06 0 -7.95712e-07 -2.93556e-06 0 -9.5659e-07 -3.06967e-06 0 -1.13212e-06 -3.22896e-06 0 -1.32562e-06 -3.41595e-06 0 -1.54098e-06 -3.63391e-06 0 -1.78275e-06 -3.88719e-06 0 -2.05624e-06 -4.18153e-06 0 -2.36757e-06 -4.52462e-06 0 -2.72368e-06 -4.92675e-06 0 -3.13216e-06 -5.40175e-06 0 -3.60087e-06 -5.96819e-06 0 -4.1371e-06 -6.65098e-06 0 -4.74607e-06 -7.48331e-06 0 -5.42827e-06 -8.50886e-06 0 -6.17509e-06 -9.78407e-06 0 -6.96211e-06 -1.13798e-05 0 -7.73881e-06 -1.33811e-05 0 -8.41552e-06 -1.58824e-05 0 -8.84507e-06 -1.89748e-05 0 -8.8102e-06 -2.27203e-05 0 -8.01001e-06 -2.71066e-05 0 -6.09394e-06 -3.19925e-05 0 -2.69726e-06 -3.70278e-05 0 2.38373e-06 -4.16958e-05 0 9.13751e-06 -4.50825e-05 0 1.73795e-05 -4.85082e-05 0 0 -2.44972e-06 0 -1.40743e-07 -2.45839e-06 0 -2.83308e-07 -2.48447e-06 0 -4.29581e-07 -2.52818e-06 0 -5.81568e-07 -2.5899e-06 0 -7.4147e-07 -2.67019e-06 0 -9.11763e-07 -2.76985e-06 0 -1.09529e-06 -2.88994e-06 0 -1.29538e-06 -3.03186e-06 0 -1.51598e-06 -3.19752e-06 0 -1.76181e-06 -3.38944e-06 0 -2.03858e-06 -3.61108e-06 0 -2.35318e-06 -3.86713e-06 0 -2.71392e-06 -4.1641e-06 0 -3.13078e-06 -4.51102e-06 0 -3.61559e-06 -4.92054e-06 0 -4.18199e-06 -5.41044e-06 0 -4.84519e-06 -6.00567e-06 0 -5.621e-06 -6.74125e-06 0 -6.52367e-06 -7.6659e-06 0 -7.56195e-06 -8.84669e-06 0 -8.73145e-06 -1.03742e-05 0 -1.00027e-05 -1.23668e-05 0 -1.13005e-05 -1.49725e-05 0 -1.24773e-05 -1.83603e-05 0 -1.3272e-05 -2.26946e-05 0 -1.32847e-05 -2.80778e-05 0 -1.19501e-05 -3.44375e-05 0 -8.64474e-06 -4.1424e-05 0 -2.80845e-06 -4.81844e-05 0 5.6314e-06 -5.39461e-05 0 1.58903e-05 -5.36761e-05 0 0 -2.30093e-06 0 -1.57161e-07 -2.30866e-06 0 -3.16261e-07 -2.33189e-06 0 -4.79301e-07 -2.37075e-06 0 -6.48424e-07 -2.42545e-06 0 -8.25987e-07 -2.49632e-06 0 -1.01466e-06 -2.58378e-06 0 -1.21753e-06 -2.68845e-06 0 -1.43827e-06 -2.81114e-06 0 -1.68127e-06 -2.95296e-06 0 -1.95191e-06 -3.11547e-06 0 -2.25682e-06 -3.30084e-06 0 -2.60424e-06 -3.51223e-06 0 -3.00445e-06 -3.75422e-06 0 -3.47027e-06 -4.03352e-06 0 -4.01769e-06 -4.36016e-06 0 -4.66644e-06 -4.74901e-06 0 -5.4405e-06 -5.22232e-06 0 -6.36818e-06 -5.81317e-06 0 -7.48151e-06 -6.57078e-06 0 -8.81343e-06 -7.56743e-06 0 -1.03921e-05 -8.90841e-06 0 -1.22275e-05 -1.07437e-05 0 -1.42896e-05 -1.32803e-05 0 -1.64642e-05 -1.67897e-05 0 -1.8494e-05 -2.15962e-05 0 -1.9878e-05 -2.80128e-05 0 -1.98129e-05 -3.62124e-05 0 -1.71553e-05 -4.58878e-05 0 -1.07753e-05 -5.61295e-05 0 -4.1453e-08 -6.43274e-05 0 1.43329e-05 -7.55572e-05 0 0 -2.13668e-06 0 -1.71654e-07 -2.14343e-06 0 -3.45294e-07 -2.1637e-06 0 -5.22974e-07 -2.1975e-06 0 -7.06891e-07 -2.24487e-06 0 -8.99465e-07 -2.30586e-06 0 -1.10345e-06 -2.38054e-06 0 -1.32203e-06 -2.46899e-06 0 -1.55905e-06 -2.57135e-06 0 -1.81912e-06 -2.68782e-06 0 -2.10801e-06 -2.81878e-06 0 -2.4329e-06 -2.96483e-06 0 -2.80295e-06 -3.12711e-06 0 -3.22988e-06 -3.30754e-06 0 -3.72878e-06 -3.50952e-06 0 -4.31918e-06 -3.73876e-06 0 -5.02635e-06 -4.00495e-06 0 -5.8828e-06 -4.32401e-06 0 -6.93006e-06 -4.72226e-06 0 -8.22e-06 -5.24197e-06 0 -9.81579e-06 -5.9514e-06 0 -1.17891e-05 -6.95803e-06 0 -1.42135e-05 -8.43036e-06 0 -1.71408e-05 -1.06253e-05 0 -2.05607e-05 -1.39246e-05 0 -2.43e-05 -1.88606e-05 0 -2.78757e-05 -2.61141e-05 0 -3.02246e-05 -3.63284e-05 0 -2.95204e-05 -4.97816e-05 0 -2.32633e-05 -6.51803e-05 0 -9.6237e-06 -8.05411e-05 0 1.13658e-05 -7.75643e-05 0 0 -1.95893e-06 0 -1.84171e-07 -1.9647e-06 0 -3.7031e-07 -1.98197e-06 0 -5.60448e-07 -2.01068e-06 0 -7.56753e-07 -2.05067e-06 0 -9.61611e-07 -2.10173e-06 0 -1.17773e-06 -2.16353e-06 0 -1.40825e-06 -2.23564e-06 0 -1.65694e-06 -2.31747e-06 0 -1.92841e-06 -2.40826e-06 0 -2.22841e-06 -2.50706e-06 0 -2.56424e-06 -2.61274e-06 0 -2.94534e-06 -2.72404e-06 0 -3.38406e-06 -2.83972e-06 0 -3.89673e-06 -2.95885e-06 0 -4.50512e-06 -3.0815e-06 0 -5.23844e-06 -3.20959e-06 0 -6.1361e-06 -3.34932e-06 0 -7.25102e-06 -3.51384e-06 0 -8.6545e-06 -3.73022e-06 0 -1.04407e-05 -4.04773e-06 0 -1.27333e-05 -4.55702e-06 0 -1.56853e-05 -5.41471e-06 0 -1.94782e-05 -6.89327e-06 0 -2.42829e-05 -9.44647e-06 0 -3.01854e-05 -1.38238e-05 0 -3.69489e-05 -2.11621e-05 0 -4.35764e-05 -3.3089e-05 0 -4.74698e-05 -5.10777e-05 0 -4.37142e-05 -7.54556e-05 0 -2.62739e-05 -9.91177e-05 0 2.05653e-06 -0.000137005 0 0 -1.76964e-06 0 -1.94732e-07 -1.77445e-06 0 -3.91348e-07 -1.78881e-06 0 -5.91789e-07 -1.81256e-06 0 -7.98114e-07 -1.84539e-06 0 -1.01257e-06 -1.88682e-06 0 -1.2377e-06 -1.93618e-06 0 -1.47643e-06 -1.99253e-06 0 -1.73225e-06 -2.05459e-06 0 -2.00943e-06 -2.12065e-06 0 -2.31332e-06 -2.18844e-06 0 -2.65078e-06 -2.25502e-06 0 -3.03076e-06 -2.31665e-06 0 -3.46519e-06 -2.36856e-06 0 -3.97017e-06 -2.40507e-06 0 -4.56774e-06 -2.41928e-06 0 -5.2885e-06 -2.40399e-06 0 -6.17499e-06 -2.35162e-06 0 -7.28754e-06 -2.25781e-06 0 -8.7106e-06 -2.123e-06 0 -1.05654e-05 -1.9642e-06 0 -1.30212e-05 -1.82455e-06 0 -1.63194e-05 -1.80989e-06 0 -2.0788e-05 -2.13099e-06 0 -2.68679e-05 -3.21972e-06 0 -3.50872e-05 -5.88883e-06 0 -4.59059e-05 -1.17116e-05 0 -5.92468e-05 -2.34183e-05 0 -7.26809e-05 -4.56216e-05 0 -7.84709e-05 -8.25454e-05 0 -6.01564e-05 -0.000133782 0 3.66441e-06 -0.000128619 0 0 -1.57071e-06 0 -2.03418e-07 -1.57462e-06 0 -4.08581e-07 -1.58624e-06 0 -6.17277e-07 -1.60534e-06 0 -8.31386e-07 -1.63147e-06 0 -1.05293e-06 -1.66395e-06 0 -1.28416e-06 -1.7018e-06 0 -1.52764e-06 -1.74365e-06 0 -1.78636e-06 -1.78763e-06 0 -2.06397e-06 -1.83119e-06 0 -2.365e-06 -1.87088e-06 0 -2.69527e-06 -1.90212e-06 0 -3.0624e-06 -1.91874e-06 0 -3.47672e-06 -1.91272e-06 0 -3.95233e-06 -1.87329e-06 0 -4.50922e-06 -1.78685e-06 0 -5.17538e-06 -1.63533e-06 0 -5.99223e-06 -1.39702e-06 0 -7.01843e-06 -1.04391e-06 0 -8.34432e-06 -5.45913e-07 0 -1.00982e-05 1.31616e-07 0 -1.2485e-05 1.01252e-06 0 -1.57966e-05 2.10175e-06 0 -2.05086e-05 3.33065e-06 0 -2.73126e-05 4.48467e-06 0 -3.73007e-05 4.96731e-06 0 -5.21104e-05 3.40023e-06 0 -7.37511e-05 -3.68881e-06 0 -0.000104299 -2.38885e-05 0 -0.000137028 -7.48093e-05 0 -0.000134755 -0.000170341 0 -6.04083e-05 -0.000330127 0 0 -1.36396e-06 0 -2.10366e-07 -1.36704e-06 0 -4.22295e-07 -1.37617e-06 0 -6.37378e-07 -1.39105e-06 0 -8.57256e-07 -1.41115e-06 0 -1.08366e-06 -1.43564e-06 0 -1.31846e-06 -1.46332e-06 0 -1.5637e-06 -1.49253e-06 0 -1.82173e-06 -1.52094e-06 0 -2.0953e-06 -1.54539e-06 0 -2.38776e-06 -1.56154e-06 0 -2.70331e-06 -1.56347e-06 0 -3.04754e-06 -1.54313e-06 0 -3.42777e-06 -1.48963e-06 0 -3.85486e-06 -1.38806e-06 0 -4.34289e-06 -1.21842e-06 0 -4.91582e-06 -9.53068e-07 0 -5.60248e-06 -5.5583e-07 0 -6.46104e-06 2.46407e-08 0 -7.55273e-06 8.51719e-07 0 -9.02932e-06 2.01976e-06 0 -1.10242e-05 3.63165e-06 0 -1.39552e-05 5.85089e-06 0 -1.81319e-05 8.81376e-06 0 -2.47554e-05 1.27285e-05 0 -3.46854e-05 1.76365e-05 0 -5.15733e-05 2.31879e-05 0 -7.87542e-05 2.81923e-05 0 -0.000128525 2.50872e-05 0 -0.00021679 -6.53457e-06 0 -0.000351749 -0.000189943 0 5.89405e-05 -0.000602894 0 0 -1.15102e-06 0 -2.15751e-07 -1.15337e-06 0 -4.32862e-07 -1.1603e-06 0 -6.52688e-07 -1.1715e-06 0 -8.76611e-07 -1.18638e-06 0 -1.10601e-06 -1.20404e-06 0 -1.34232e-06 -1.22322e-06 0 -1.58701e-06 -1.24203e-06 0 -1.84162e-06 -1.25808e-06 0 -2.10785e-06 -1.26756e-06 0 -2.38747e-06 -1.26622e-06 0 -2.68308e-06 -1.24629e-06 0 -2.99644e-06 -1.20062e-06 0 -3.33373e-06 -1.11263e-06 0 -3.69444e-06 -9.71785e-07 0 -4.09901e-06 -7.40231e-07 0 -4.53206e-06 -4.07713e-07 0 -5.06998e-06 1.1789e-07 0 -5.62469e-06 8.2702e-07 0 -6.4878e-06 1.95322e-06 0 -7.25939e-06 3.40036e-06 0 -9.03754e-06 5.75981e-06 0 -1.01914e-05 8.68583e-06 0 -1.47551e-05 1.35688e-05 0 -1.65549e-05 1.96794e-05 0 -3.00048e-05 2.95477e-05 0 -3.33296e-05 4.37646e-05 0 -7.6955e-05 6.24814e-05 0 -9.28529e-05 0.000104748 0 -0.000264053 0.000130376 0 -0.000632137 0.00038166 0 -0.00317797 -0.00123499 0 </DataArray> 
</PointData> 
<Points> 
<DataArray type="Float32" NumberOfComponents="3"> 