<?xml version="1.0"?> 
<VTKFile type="StructuredGrid" version="0.1"> 
<StructuredGrid WholeExtent="0 31 0 31 0 0"> 
<Piece Extent="0 31 0 31 0 0"> 
<PointData>
<DataArray type="Float32" Name="B" format="ascii" NumberOfComponents="3"> 
-5.32759e-05 -0 0 -5.07901e-05 -0 0 -4.82915e-05 -0 0 -4.57965e-05 -0 0 -4.33201e-05 -0 0 -4.08757e-05 -0 0 -3.84752e-05 -0 0 -3.61284e-05 -0 0 -3.38438e-05 -0 0 -3.1628e-05 -0 0 -2.94862e-05 -0 0 -2.74221e-05 -0 0 -2.54381e-05 -0 0 -2.35352e-05 -0 0 -2.17135e-05 -0 0 -1.9972e-05 -0 0 -1.83088e-05 -0 0 -1.67214e-05 -0 0 -1.52065e-05 -0 0 -1.37605e-05 -0 0 -1.23791e-05 -0 0 -1.10577e-05 -0 0 -9.79158e-06 -0 0 -8.57558e-06 -0 0 -7.40447e-06 -0 0 -6.27284e-06 -0 0 -5.17519e-06 -0 0 -4.10595e-06 -0 0 -3.05949e-06 -0 0 -2.03014e-06 -0 0 -1.01222e-06 -0 0 0 -0 0 -5.32912e-05 -2.47654e-06 0 -5.07965e-05 -2.49794e-06 0 -4.82896e-05 -2.5021e-06 0 -4.5787e-05 -2.49044e-06 0 -4.33039e-05 -2.46455e-06 0 -4.08537e-05 -2.42607e-06 0 -3.84481e-05 -2.37672e-06 0 -3.60972e-05 -2.31819e-06 0 -3.38092e-05 -2.25216e-06 0 -3.15909e-05 -2.18023e-06 0 -2.94473e-05 -2.10391e-06 0 -2.7382e-05 -2.02461e-06 0 -2.53975e-05 -1.94362e-06 0 -2.34946e-05 -1.86212e-06 0 -2.16734e-05 -1.78114e-06 0 -1.99328e-05 -1.70161e-06 0 -1.82709e-05 -1.62432e-06 0 -1.66851e-05 -1.54997e-06 0 -1.51721e-05 -1.47912e-06 0 -1.37282e-05 -1.41227e-06 0 -1.2349e-05 -1.34982e-06 0 -1.10301e-05 -1.29209e-06 0 -9.7665e-06 -1.23934e-06 0 -8.55313e-06 -1.19178e-06 0 -7.38472e-06 -1.14956e-06 0 -6.25584e-06 -1.11279e-06 0 -5.16098e-06 -1.08157e-06 0 -4.09456e-06 -1.05596e-06 0 -3.05094e-06 -1.03601e-06 0 -2.02443e-06 -1.02174e-06 0 -1.00936e-06 -1.01317e-06 0 -5.08459e-21 -1.01031e-06 0 -5.33365e-05 -4.97161e-06 0 -5.08148e-05 -5.01316e-06 0 -4.8283e-05 -5.02004e-06 0 -4.57578e-05 -4.99514e-06 0 -4.32546e-05 -4.94168e-06 0 -4.07868e-05 -4.86301e-06 0 -3.83662e-05 -4.7626e-06 0 -3.60028e-05 -4.64387e-06 0 -3.37048e-05 -4.51021e-06 0 -3.14788e-05 -4.36483e-06 0 -2.93297e-05 -4.21078e-06 0 -2.72611e-05 -4.05088e-06 0 -2.52749e-05 -3.88774e-06 0 -2.33721e-05 -3.72369e-06 0 -2.15525e-05 -3.56082e-06 0 -1.98147e-05 -3.40096e-06 0 -1.81568e-05 -3.2457e-06 0 -1.65759e-05 -3.0964e-06 0 -1.50686e-05 -2.95423e-06 0 -1.3631e-05 -2.82013e-06 0 -1.22587e-05 -2.69491e-06 0 -1.09471e-05 -2.57919e-06 0 -9.69115e-06 -2.47349e-06 0 -8.48571e-06 -2.37821e-06 0 -7.32541e-06 -2.29365e-06 0 -6.20481e-06 -2.22003e-06 0 -5.11833e-06 -2.15753e-06 0 -4.06037e-06 -2.10627e-06 0 -3.02525e-06 -2.06633e-06 0 -2.00729e-06 -2.03777e-06 0 -1.00078e-06 -2.02062e-06 0 -8.35269e-21 -2.01491e-06 0 -5.341e-05 -7.504e-06 0 -5.08431e-05 -7.56314e-06 0 -4.82695e-05 -7.5698e-06 0 -4.57065e-05 -7.52845e-06 0 -4.31695e-05 -7.44403e-06 0 -4.06723e-05 -7.32171e-06 0 -3.82267e-05 -7.16678e-06 0 -3.58426e-05 -6.98448e-06 0 -3.35281e-05 -6.77994e-06 0 -3.12895e-05 -6.55806e-06 0 -2.91315e-05 -6.32344e-06 0 -2.70574e-05 -6.08037e-06 0 -2.50688e-05 -5.83273e-06 0 -2.31664e-05 -5.58405e-06 0 -2.13495e-05 -5.33745e-06 0 -1.96167e-05 -5.09566e-06 0 -1.79655e-05 -4.86107e-06 0 -1.63929e-05 -4.63569e-06 0 -1.48953e-05 -4.42123e-06 0 -1.34684e-05 -4.2191e-06 0 -1.21077e-05 -4.03047e-06 0 -1.08084e-05 -3.85626e-06 0 -9.56529e-06 -3.69722e-06 0 -8.37311e-06 -3.55391e-06 0 -7.22641e-06 -3.42678e-06 0 -6.11963e-06 -3.31615e-06 0 -5.04716e-06 -3.22225e-06 0 -4.00332e-06 -3.14526e-06 0 -2.98241e-06 -3.08528e-06 0 -1.97871e-06 -3.04239e-06 0 -9.86483e-07 -3.01665e-06 0 0 -3.00806e-06 0 -5.35089e-05 -1.0093e-05 0 -5.08778e-05 -1.01657e-05 0 -4.82452e-05 -1.01676e-05 0 -4.56287e-05 -1.01049e-05 0 -4.30444e-05 -9.98429e-06 0 -4.0506e-05 -9.81302e-06 0 -3.80255e-05 -9.59829e-06 0 -3.56126e-05 -9.34729e-06 0 -3.32752e-05 -9.06697e-06 0 -3.10193e-05 -8.76397e-06 0 -2.88493e-05 -8.44451e-06 0 -2.67679e-05 -8.11434e-06 0 -2.47764e-05 -7.7787e-06 0 -2.28749e-05 -7.44226e-06 0 -2.10624e-05 -7.10919e-06 0 -1.93369e-05 -6.78312e-06 0 -1.76955e-05 -6.46717e-06 0 -1.6135e-05 -6.164e-06 0 -1.46511e-05 -5.87585e-06 0 -1.32395e-05 -5.60453e-06 0 -1.18953e-05 -5.35157e-06 0 -1.06134e-05 -5.11813e-06 0 -9.38847e-06 -4.90518e-06 0 -8.21502e-06 -4.71342e-06 0 -7.08747e-06 -4.5434e-06 0 -6.00015e-06 -4.39551e-06 0 -4.94735e-06 -4.27005e-06 0 -3.92333e-06 -4.16721e-06 0 -2.92235e-06 -4.08713e-06 0 -1.93864e-06 -4.02987e-06 0 -9.66442e-07 -3.9955e-06 0 -3.1421e-22 -3.98404e-06 0 -5.36288e-05 -1.27586e-05 0 -5.09139e-05 -1.28394e-05 0 -4.82043e-05 -1.28302e-05 0 -4.55185e-05 -1.27392e-05 0 -4.28729e-05 -1.25753e-05 0 -4.02816e-05 -1.23478e-05 0 -3.77563e-05 -1.20661e-05 0 -3.53068e-05 -1.17394e-05 0 -3.29405e-05 -1.13766e-05 0 -3.0663e-05 -1.09863e-05 0 -2.84782e-05 -1.05762e-05 0 -2.63882e-05 -1.01537e-05 0 -2.43938e-05 -9.72536e-06 0 -2.24943e-05 -9.29702e-06 0 -2.06881e-05 -8.87386e-06 0 -1.89727e-05 -8.46037e-06 0 -1.73448e-05 -8.06042e-06 0 -1.58002e-05 -7.67725e-06 0 -1.43347e-05 -7.31356e-06 0 -1.29432e-05 -6.97158e-06 0 -1.16206e-05 -6.65308e-06 0 -1.03615e-05 -6.3595e-06 0 -9.16016e-06 -6.09191e-06 0 -8.01102e-06 -5.85116e-06 0 -6.90828e-06 -5.63786e-06 0 -5.84614e-06 -5.45244e-06 0 -4.81875e-06 -5.29523e-06 0 -3.82032e-06 -5.16641e-06 0 -2.84502e-06 -5.06613e-06 0 -1.88706e-06 -4.99446e-06 0 -9.40644e-07 -4.95145e-06 0 -2.97142e-20 -4.93711e-06 0 -5.37637e-05 -1.55218e-05 0 -5.09443e-05 -1.56033e-05 0 -4.81392e-05 -1.55747e-05 0 -4.53677e-05 -1.54464e-05 0 -4.26468e-05 -1.52298e-05 0 -3.99906e-05 -1.49367e-05 0 -3.7411e-05 -1.45788e-05 0 -3.49173e-05 -1.41674e-05 0 -3.25166e-05 -1.37137e-05 0 -3.02139e-05 -1.32281e-05 0 -2.80121e-05 -1.27202e-05 0 -2.59129e-05 -1.21988e-05 0 -2.3916e-05 -1.16719e-05 0 -2.20202e-05 -1.11465e-05 0 -2.0223e-05 -1.06287e-05 0 -1.85211e-05 -1.0124e-05 0 -1.69104e-05 -9.6368e-06 0 -1.53865e-05 -9.17092e-06 0 -1.39441e-05 -8.7295e-06 0 -1.2578e-05 -8.31507e-06 0 -1.12824e-05 -7.92964e-06 0 -1.00516e-05 -7.57481e-06 0 -8.87966e-06 -7.25178e-06 0 -7.76062e-06 -6.96142e-06 0 -6.68851e-06 -6.7044e-06 0 -5.65736e-06 -6.48116e-06 0 -4.66121e-06 -6.29199e-06 0 -3.69418e-06 -6.13707e-06 0 -2.75036e-06 -6.01653e-06 0 -1.82393e-06 -5.9304e-06 0 -9.09076e-07 -5.87871e-06 0 -1.80577e-20 -5.86149e-06 0 -5.39058e-05 -1.8405e-05 0 -5.09601e-05 -1.84776e-05 0 -4.804e-05 -1.84189e-05 0 -4.5166e-05 -1.82419e-05 0 -4.23554e-05 -1.7961e-05 0 -3.96227e-05 -1.75905e-05 0 -3.69795e-05 -1.71447e-05 0 -3.44346e-05 -1.66377e-05 0 -3.19945e-05 -1.60827e-05 0 -2.96634e-05 -1.54922e-05 0 -2.74433e-05 -1.48776e-05 0 -2.53349e-05 -1.42493e-05 0 -2.3337e-05 -1.36168e-05 0 -2.14473e-05 -1.29881e-05 0 -1.96624e-05 -1.23705e-05 0 -1.7978e-05 -1.177e-05 0 -1.63894e-05 -1.11917e-05 0 -1.48911e-05 -1.064e-05 0 -1.34773e-05 -1.01184e-05 0 -1.21422e-05 -9.62947e-06 0 -1.08794e-05 -9.17555e-06 0 -9.6829e-06 -8.75829e-06 0 -8.54626e-06 -8.37891e-06 0 -7.4633e-06 -8.03832e-06 0 -6.42778e-06 -7.73715e-06 0 -5.43357e-06 -7.47578e-06 0 -4.47458e-06 -7.25448e-06 0 -3.54481e-06 -7.07336e-06 0 -2.63832e-06 -6.93249e-06 0 -1.74924e-06 -6.83188e-06 0 -8.7173e-07 -6.77152e-06 0 0 -6.75141e-06 0 -5.40452e-05 -2.14321e-05 0 -5.09498e-05 -2.14837e-05 0 -4.78943e-05 -2.13813e-05 0 -4.49004e-05 -2.11416e-05 0 -4.19857e-05 -2.07817e-05 0 -3.91649e-05 -2.03194e-05 0 -3.64492e-05 -1.97719e-05 0 -3.38467e-05 -1.91559e-05 0 -3.13631e-05 -1.8487e-05 0 -2.90014e-05 -1.77801e-05 0 -2.67627e-05 -1.70484e-05 0 -2.46462e-05 -1.6304e-05 0 -2.26497e-05 -1.55576e-05 0 -2.07695e-05 -1.48185e-05 0 -1.90011e-05 -1.40949e-05 0 -1.73392e-05 -1.33935e-05 0 -1.57779e-05 -1.272e-05 0 -1.4311e-05 -1.2079e-05 0 -1.29319e-05 -1.14743e-05 0 -1.16339e-05 -1.09088e-05 0 -1.04103e-05 -1.03847e-05 0 -9.25427e-06 -9.90381e-06 0 -8.15921e-06 -9.46721e-06 0 -7.11853e-06 -9.07578e-06 0 -6.12576e-06 -8.73005e-06 0 -5.17457e-06 -8.43033e-06 0 -4.25874e-06 -8.17676e-06 0 -3.37217e-06 -7.96939e-06 0 -2.50889e-06 -7.8082e-06 0 -1.66297e-06 -7.69312e-06 0 -8.28607e-07 -7.6241e-06 0 0 -7.6011e-06 0 -5.41691e-05 -2.46289e-05 0 -5.08988e-05 -2.4644e-05 0 -4.76865e-05 -2.44814e-05 0 -4.45548e-05 -2.41612e-05 0 -4.15217e-05 -2.37049e-05 0 -3.86016e-05 -2.31334e-05 0 -3.58051e-05 -2.24675e-05 0 -3.31396e-05 -2.17266e-05 0 -3.06093e-05 -2.09293e-05 0 -2.82161e-05 -2.00925e-05 0 -2.59596e-05 -1.92316e-05 0 -2.38374e-05 -1.83603e-05 0 -2.18458e-05 -1.74908e-05 0 -1.99797e-05 -1.66334e-05 0 -1.82332e-05 -1.5797e-05 0 -1.65997e-05 -1.4989e-05 0 -1.50721e-05 -1.42156e-05 0 -1.36432e-05 -1.34816e-05 0 -1.23054e-05 -1.2791e-05 0 -1.10513e-05 -1.21466e-05 0 -9.8735e-06 -1.15507e-05 0 -8.7647e-06 -1.10049e-05 0 -7.7178e-06 -1.05103e-05 0 -6.72587e-06 -1.00675e-05 0 -5.78218e-06 -9.67692e-06 0 -4.88022e-06 -9.3387e-06 0 -4.01364e-06 -9.05284e-06 0 -3.17627e-06 -8.81925e-06 0 -2.36208e-06 -8.63778e-06 0 -1.56517e-06 -8.50829e-06 0 -7.79728e-07 -8.43065e-06 0 0 -8.40479e-06 0 -5.42609e-05 -2.80232e-05 0 -5.07891e-05 -2.79826e-05 0 -4.73976e-05 -2.77389e-05 0 -4.41098e-05 -2.73172e-05 0 -4.0944e-05 -2.67431e-05 0 -3.79141e-05 -2.60418e-05 0 -3.50296e-05 -2.52377e-05 0 -3.22967e-05 -2.43536e-05 0 -2.97181e-05 -2.34108e-05 0 -2.72939e-05 -2.24288e-05 0 -2.50219e-05 -2.14249e-05 0 -2.28979e-05 -2.04147e-05 0 -2.09162e-05 -1.94116e-05 0 -1.90702e-05 -1.84269e-05 0 -1.73522e-05 -1.74703e-05 0 -1.57542e-05 -1.65498e-05 0 -1.42676e-05 -1.56716e-05 0 -1.28841e-05 -1.48407e-05 0 -1.15952e-05 -1.40612e-05 0 -1.03924e-05 -1.33358e-05 0 -9.26774e-06 -1.26665e-05 0 -8.21327e-06 -1.20548e-05 0 -7.22145e-06 -1.15015e-05 0 -6.28499e-06 -1.1007e-05 0 -5.39692e-06 -1.05714e-05 0 -4.55053e-06 -1.01947e-05 0 -3.73937e-06 -9.87665e-06 0 -2.95721e-06 -9.61698e-06 0 -2.19802e-06 -9.4154e-06 0 -1.45592e-06 -9.27162e-06 0 -7.25137e-07 -9.18545e-06 0 0 -9.15675e-06 0 -5.43003e-05 -3.16454e-05 0 -5.05981e-05 -3.15247e-05 0 -4.70041e-05 -3.11745e-05 0 -4.35419e-05 -3.06254e-05 0 -4.02298e-05 -2.99083e-05 0 -3.70804e-05 -2.90529e-05 0 -3.41021e-05 -2.80876e-05 0 -3.12991e-05 -2.7039e-05 0 -2.86721e-05 -2.59312e-05 0 -2.62193e-05 -2.47865e-05 0 -2.39359e-05 -2.36243e-05 0 -2.18158e-05 -2.24618e-05 0 -1.98509e-05 -2.13136e-05 0 -1.80326e-05 -2.01921e-05 0 -1.63513e-05 -1.91074e-05 0 -1.47971e-05 -1.80679e-05 0 -1.33602e-05 -1.70799e-05 0 -1.20306e-05 -1.61484e-05 0 -1.07988e-05 -1.52772e-05 0 -9.65552e-06 -1.44687e-05 0 -8.59182e-06 -1.37247e-05 0 -7.59925e-06 -1.30463e-05 0 -6.66978e-06 -1.24338e-05 0 -5.79577e-06 -1.18875e-05 0 -4.97002e-06 -1.1407e-05 0 -4.18564e-06 -1.0992e-05 0 -3.43613e-06 -1.06421e-05 0 -2.71521e-06 -1.03566e-05 0 -2.01689e-06 -1.01352e-05 0 -1.33535e-06 -9.97737e-06 0 -6.64911e-07 -9.8828e-06 0 0 -9.85131e-06 0 -5.42606e-05 -3.55278e-05 0 -5.0298e-05 -3.52968e-05 0 -4.64776e-05 -3.48089e-05 0 -4.28233e-05 -3.41016e-05 0 -3.9352e-05 -3.32115e-05 0 -3.60751e-05 -3.21736e-05 0 -3.29987e-05 -3.10206e-05 0 -3.01248e-05 -2.9783e-05 0 -2.74517e-05 -2.84883e-05 0 -2.49747e-05 -2.71612e-05 0 -2.26865e-05 -2.58236e-05 0 -2.05781e-05 -2.44941e-05 0 -1.8639e-05 -2.31886e-05 0 -1.68579e-05 -2.19201e-05 0 -1.52231e-05 -2.06992e-05 0 -1.37228e-05 -1.95342e-05 0 -1.23453e-05 -1.84315e-05 0 -1.10793e-05 -1.73958e-05 0 -9.91402e-06 -1.64302e-05 0 -8.83908e-06 -1.5537e-05 0 -7.84484e-06 -1.47173e-05 0 -6.92221e-06 -1.39716e-05 0 -6.06271e-06 -1.33e-05 0 -5.25837e-06 -1.2702e-05 0 -4.50178e-06 -1.21771e-05 0 -3.78595e-06 -1.17243e-05 0 -3.10432e-06 -1.1343e-05 0 -2.45065e-06 -1.10323e-05 0 -1.81901e-06 -1.07914e-05 0 -1.20369e-06 -1.06199e-05 0 -5.99165e-07 -1.05171e-05 0 0 -1.04829e-05 0 -5.41091e-05 -3.97058e-05 0 -4.98542e-05 -3.9326e-05 0 -4.5784e-05 -3.86626e-05 0 -4.19206e-05 -3.77602e-05 0 -3.82791e-05 -3.66621e-05 0 -3.48684e-05 -3.54088e-05 0 -3.16921e-05 -3.40378e-05 0 -2.87492e-05 -3.25836e-05 0 -2.60348e-05 -3.10772e-05 0 -2.3541e-05 -2.95461e-05 0 -2.12572e-05 -2.80143e-05 0 -1.9171e-05 -2.6502e-05 0 -1.7269e-05 -2.5026e-05 0 -1.55369e-05 -2.36e-05 0 -1.39605e-05 -2.22347e-05 0 -1.25258e-05 -2.0938e-05 0 -1.12191e-05 -1.9716e-05 0 -1.00275e-05 -1.85727e-05 0 -8.93894e-06 -1.75108e-05 0 -7.94204e-06 -1.65316e-05 0 -7.02634e-06 -1.56357e-05 0 -6.18215e-06 -1.48229e-05 0 -5.40054e-06 -1.40925e-05 0 -4.67331e-06 -1.34436e-05 0 -3.99285e-06 -1.28749e-05 0 -3.35213e-06 -1.23852e-05 0 -2.74459e-06 -1.19733e-05 0 -2.16409e-06 -1.16381e-05 0 -1.60484e-06 -1.13784e-05 0 -1.06127e-06 -1.11936e-05 0 -5.28064e-07 -1.10829e-05 0 9.20174e-21 -1.10461e-05 0 -5.38017e-05 -4.42144e-05 0 -4.92244e-05 -4.36393e-05 0 -4.48822e-05 -4.27547e-05 0 -4.0795e-05 -4.16141e-05 0 -3.69746e-05 -4.02676e-05 0 -3.34267e-05 -3.87613e-05 0 -3.01514e-05 -3.71378e-05 0 -2.71444e-05 -3.54358e-05 0 -2.43969e-05 -3.36901e-05 0 -2.1897e-05 -3.19311e-05 0 -1.963e-05 -3.01848e-05 0 -1.75797e-05 -2.8473e-05 0 -1.5729e-05 -2.68131e-05 0 -1.40603e-05 -2.5219e-05 0 -1.25564e-05 -2.3701e-05 0 -1.12008e-05 -2.22668e-05 0 -9.97784e-06 -2.09214e-05 0 -8.87284e-06 -1.96681e-05 0 -7.87233e-06 -1.85084e-05 0 -6.96395e-06 -1.74429e-05 0 -6.13646e-06 -1.6471e-05 0 -5.37961e-06 -1.55917e-05 0 -4.68412e-06 -1.48036e-05 0 -4.04157e-06 -1.41049e-05 0 -3.44426e-06 -1.34937e-05 0 -2.88518e-06 -1.29684e-05 0 -2.35788e-06 -1.25271e-05 0 -1.85635e-06 -1.21683e-05 0 -1.375e-06 -1.18906e-05 0 -9.08517e-07 -1.16931e-05 0 -4.51828e-07 -1.15749e-05 0 8.17095e-20 -1.15356e-05 0 -5.32877e-05 -4.90919e-05 0 -4.83573e-05 -4.82616e-05 0 -4.37243e-05 -4.7102e-05 0 -3.94016e-05 -4.56734e-05 0 -3.53967e-05 -4.40323e-05 0 -3.17114e-05 -4.22304e-05 0 -2.83419e-05 -4.03155e-05 0 -2.52796e-05 -3.8331e-05 0 -2.25111e-05 -3.63155e-05 0 -2.00197e-05 -3.43026e-05 0 -1.77859e-05 -3.23202e-05 0 -1.57889e-05 -3.03913e-05 0 -1.4007e-05 -2.85339e-05 0 -1.24189e-05 -2.67613e-05 0 -1.10042e-05 -2.50833e-05 0 -9.74345e-06 -2.35065e-05 0 -8.61881e-06 -2.20346e-05 0 -7.61386e-06 -2.06696e-05 0 -6.71376e-06 -1.94118e-05 0 -5.90516e-06 -1.82603e-05 0 -5.17609e-06 -1.72136e-05 0 -4.51585e-06 -1.62694e-05 0 -3.9149e-06 -1.54252e-05 0 -3.36468e-06 -1.46786e-05 0 -2.85754e-06 -1.40268e-05 0 -2.38655e-06 -1.34675e-05 0 -1.94545e-06 -1.29983e-05 0 -1.52848e-06 -1.26173e-05 0 -1.13032e-06 -1.23228e-05 0 -7.45994e-07 -1.21134e-05 0 -3.70746e-07 -1.19882e-05 0 1.5075e-20 -1.19465e-05 0 -5.24946e-05 -5.43646e-05 0 -4.71926e-05 -5.32138e-05 0 -4.22548e-05 -5.17174e-05 0 -3.76894e-05 -4.99446e-05 0 -3.34983e-05 -4.7957e-05 0 -2.96793e-05 -4.58118e-05 0 -2.62245e-05 -4.35621e-05 0 -2.31202e-05 -4.12563e-05 0 -2.03478e-05 -3.89376e-05 0 -1.78846e-05 -3.66426e-05 0 -1.57051e-05 -3.44014e-05 0 -1.37829e-05 -3.22376e-05 0 -1.20912e-05 -3.01691e-05 0 -1.06044e-05 -2.82084e-05 0 -9.29818e-06 -2.63641e-05 0 -8.15025e-06 -2.46407e-05 0 -7.14034e-06 -2.30406e-05 0 -6.25028e-06 -2.15637e-05 0 -5.46394e-06 -2.02087e-05 0 -4.76705e-06 -1.8973e-05 0 -4.14708e-06 -1.78536e-05 0 -3.59298e-06 -1.68469e-05 0 -3.09508e-06 -1.59494e-05 0 -2.64485e-06 -1.51574e-05 0 -2.23477e-06 -1.44675e-05 0 -1.85813e-06 -1.38765e-05 0 -1.50896e-06 -1.33814e-05 0 -1.18186e-06 -1.298e-05 0 -8.71868e-07 -1.26699e-05 0 -5.74415e-07 -1.24496e-05 0 -2.85175e-07 -1.23179e-05 0 0 -1.22741e-05 0 -5.13524e-05 -6.00667e-05 0 -4.56606e-05 -5.85084e-05 0 -4.04126e-05 -5.6608e-05 0 -3.56018e-05 -5.44299e-05 0 -3.1227e-05 -5.20389e-05 0 -2.72821e-05 -4.9497e-05 0 -2.37556e-05 -4.68637e-05 0 -2.06283e-05 -4.41936e-05 0 -1.78749e-05 -4.15349e-05 0 -1.54654e-05 -3.89278e-05 0 -1.33671e-05 -3.6404e-05 0 -1.15464e-05 -3.39877e-05 0 -9.97089e-06 -3.16956e-05 0 -8.6096e-06 -2.95388e-05 0 -7.43426e-06 -2.75233e-05 0 -6.41938e-06 -2.56515e-05 0 -5.54235e-06 -2.39231e-05 0 -4.7833e-06 -2.23359e-05 0 -4.12495e-06 -2.08861e-05 0 -3.5523e-06 -1.95693e-05 0 -3.05241e-06 -1.83808e-05 0 -2.61411e-06 -1.73153e-05 0 -2.22776e-06 -1.6368e-05 0 -1.88503e-06 -1.55341e-05 0 -1.57866e-06 -1.48093e-05 0 -1.30234e-06 -1.41895e-05 0 -1.05049e-06 -1.36711e-05 0 -8.18173e-07 -1.32512e-05 0 -6.00921e-07 -1.29273e-05 0 -3.94652e-07 -1.26973e-05 0 -1.95555e-07 -1.25599e-05 0 0 -1.25142e-05 0 -4.97523e-05 -6.61774e-05 0 -4.369e-05 -6.41486e-05 0 -3.81323e-05 -6.17754e-05 0 -3.30782e-05 -5.9128e-05 0 -2.85244e-05 -5.62712e-05 0 -2.44655e-05 -5.32728e-05 0 -2.08863e-05 -5.02008e-05 0 -1.77617e-05 -4.71182e-05 0 -1.50577e-05 -4.40793e-05 0 -1.2735e-05 -4.11281e-05 0 -1.07514e-05 -3.82981e-05 0 -9.06529e-06 -3.56125e-05 0 -7.63675e-06 -3.30862e-05 0 -6.42933e-06 -3.07271e-05 0 -5.41036e-06 -2.85383e-05 0 -4.55115e-06 -2.65185e-05 0 -3.82681e-06 -2.46643e-05 0 -3.21603e-06 -2.29704e-05 0 -2.7006e-06 -2.14304e-05 0 -2.26508e-06 -2.00375e-05 0 -1.89641e-06 -1.87848e-05 0 -1.58351e-06 -1.76656e-05 0 -1.31702e-06 -1.66733e-05 0 -1.08898e-06 -1.5802e-05 0 -8.92633e-07 -1.50462e-05 0 -7.22166e-07 -1.44011e-05 0 -5.72575e-07 -1.38625e-05 0 -4.39487e-07 -1.34267e-05 0 -3.19038e-07 -1.30908e-05 0 -2.07745e-07 -1.28525e-05 0 -1.02406e-07 -1.27102e-05 0 2.02233e-20 -1.26629e-05 0 -4.76416e-05 -7.27246e-05 0 -4.12097e-05 -7.01235e-05 0 -3.5351e-05 -6.72177e-05 0 -3.00528e-05 -6.40365e-05 0 -2.53256e-05 -6.06449e-05 0 -2.11672e-05 -5.71215e-05 0 -1.7561e-05 -5.35473e-05 0 -1.44734e-05 -4.99972e-05 0 -1.18589e-05 -4.6534e-05 0 -9.66536e-06 -4.32058e-05 0 -7.83881e-06 -4.00463e-05 0 -6.32707e-06 -3.70769e-05 0 -5.08215e-06 -3.43085e-05 0 -4.0613e-06 -3.17448e-05 0 -3.22737e-06 -2.93837e-05 0 -2.54862e-06 -2.72197e-05 0 -1.99826e-06 -2.52452e-05 0 -1.55386e-06 -2.34509e-05 0 -1.19673e-06 -2.18276e-05 0 -9.11362e-07 -2.03655e-05 0 -6.84913e-07 -1.90555e-05 0 -5.06736e-07 -1.78889e-05 0 -3.68011e-07 -1.68576e-05 0 -2.61417e-07 -1.59544e-05 0 -1.80857e-07 -1.51725e-05 0 -1.2123e-07 -1.45064e-05 0 -7.82387e-08 -1.39511e-05 0 -4.82283e-08 -1.35023e-05 0 -2.80447e-08 -1.31568e-05 0 -1.4915e-08 -1.29119e-05 0 -6.34047e-09 -1.27656e-05 0 8.88241e-20 -1.2717e-05 0 -4.49067e-05 -7.95559e-05 0 -3.81765e-05 -7.64242e-05 0 -3.20073e-05 -7.29392e-05 0 -2.64561e-05 -6.9157e-05 0 -2.15542e-05 -6.5151e-05 0 -1.73143e-05 -6.10198e-05 0 -1.3715e-05 -5.68675e-05 0 -1.07109e-05 -5.27869e-05 0 -8.23885e-06 -4.88513e-05 0 -6.22916e-06 -4.51125e-05 0 -4.61206e-06 -4.16029e-05 0 -3.32296e-06 -3.83389e-05 0 -2.30444e-06 -3.53254e-05 0 -1.50727e-06 -3.25591e-05 0 -8.90026e-07 -3.00316e-05 0 -4.18438e-07 -2.77313e-05 0 -6.43808e-08 -2.56455e-05 0 1.95054e-07 -2.37606e-05 0 3.78463e-07 -2.20635e-05 0 5.00902e-07 -2.05416e-05 0 5.74548e-07 -1.9183e-05 0 6.09238e-07 -1.79771e-05 0 6.1292e-07 -1.69141e-05 0 5.92015e-07 -1.59854e-05 0 5.51718e-07 -1.51833e-05 0 4.96237e-07 -1.45011e-05 0 4.28994e-07 -1.39332e-05 0 3.52794e-07 -1.34749e-05 0 2.69957e-07 -1.31224e-05 0 1.82441e-07 -1.28726e-05 0 9.19449e-08 -1.27236e-05 0 7.55922e-21 -1.26741e-05 0 -4.16629e-05 -8.68149e-05 0 -3.45646e-05 -8.30536e-05 0 -2.80499e-05 -7.89646e-05 0 -2.2203e-05 -7.45071e-05 0 -1.71168e-05 -6.97828e-05 0 -1.28153e-05 -6.49371e-05 0 -9.27148e-06 -6.01126e-05 0 -6.41501e-06 -5.54279e-05 0 -4.15672e-06 -5.09685e-05 0 -2.40115e-06 -4.67875e-05 0 -1.05866e-06 -4.29118e-05 0 -4.96116e-08 -3.93491e-05 0 6.93273e-07 -3.60942e-05 0 1.22551e-06 -3.31342e-05 0 1.59193e-06 -3.04519e-05 0 1.82841e-06 -2.80285e-05 0 1.9634e-06 -2.58449e-05 0 2.0194e-06 -2.38827e-05 0 2.01414e-06 -2.21244e-05 0 1.96157e-06 -2.05543e-05 0 1.87265e-06 -1.9158e-05 0 1.75597e-06 -1.79225e-05 0 1.61823e-06 -1.68366e-05 0 1.46468e-06 -1.589e-05 0 1.29935e-06 -1.50742e-05 0 1.12536e-06 -1.43816e-05 0 9.45106e-07 -1.38059e-05 0 7.60393e-07 -1.33419e-05 0 5.72594e-07 -1.29852e-05 0 3.82749e-07 -1.27328e-05 0 1.91666e-07 -1.25822e-05 0 0 -1.25322e-05 0 -3.78757e-05 -9.41141e-05 0 -3.04138e-05 -9.0095e-05 0 -2.34096e-05 -8.53781e-05 0 -1.71828e-05 -8.0127e-05 0 -1.18824e-05 -7.45359e-05 0 -7.55342e-06 -6.88289e-05 0 -4.13634e-06 -6.3212e-05 0 -1.52081e-06 -5.78383e-05 0 4.2745e-07 -5.28027e-05 0 1.83794e-06 -4.8154e-05 0 2.82619e-06 -4.39057e-05 0 3.48782e-06 -4.00503e-05 0 3.89988e-06 -3.65674e-05 0 4.12257e-06 -3.34312e-05 0 4.2026e-06 -3.06133e-05 0 4.17574e-06 -2.80861e-05 0 4.06938e-06 -2.58233e-05 0 3.90438e-06 -2.38009e-05 0 3.69663e-06 -2.19975e-05 0 3.4582e-06 -2.03936e-05 0 3.19821e-06 -1.89723e-05 0 2.9235e-06 -1.77187e-05 0 2.63917e-06 -1.66198e-05 0 2.34896e-06 -1.56641e-05 0 2.05551e-06 -1.48421e-05 0 1.76066e-06 -1.41455e-05 0 1.4656e-06 -1.35672e-05 0 1.17102e-06 -1.31016e-05 0 8.77237e-07 -1.27441e-05 0 5.84271e-07 -1.24912e-05 0 2.91957e-07 -1.23404e-05 0 0 -1.22903e-05 0 -3.40436e-05 -0.000102364 0 -2.57359e-05 -9.77564e-05 0 -1.79863e-05 -9.23343e-05 0 -1.12083e-05 -8.60996e-05 0 -5.66412e-06 -7.9399e-05 0 -1.36802e-06 -7.26207e-05 0 1.80198e-06 -6.60591e-05 0 4.04072e-06 -5.99018e-05 0 5.54616e-06 -5.4245e-05 0 6.4962e-06 -4.91162e-05 0 7.03427e-06 -4.45049e-05 0 7.27215e-06 -4.03778e-05 0 7.29351e-06 -3.6694e-05 0 7.16053e-06 -3.34099e-05 0 6.91874e-06 -3.04844e-05 0 6.60151e-06 -2.78795e-05 0 6.23317e-06 -2.55615e-05 0 5.83148e-06 -2.35007e-05 0 5.40933e-06 -2.16713e-05 0 4.97602e-06 -2.00506e-05 0 4.53819e-06 -1.86193e-05 0 4.10043e-06 -1.73606e-05 0 3.66583e-06 -1.62599e-05 0 3.23633e-06 -1.53049e-05 0 2.81296e-06 -1.44849e-05 0 2.39609e-06 -1.37911e-05 0 1.98556e-06 -1.3216e-05 0 1.58082e-06 -1.27534e-05 0 1.18103e-06 -1.23985e-05 0 7.85119e-07 -1.21476e-05 0 3.9188e-07 -1.19981e-05 0 0 -1.19485e-05 0 -3.01626e-05 -0.000110635 0 -2.0557e-05 -0.000106489 0 -1.15301e-05 -0.000100165 0 -3.96926e-06 -9.25221e-05 0 1.83198e-06 -8.43273e-05 0 5.95039e-06 -7.61775e-05 0 8.67396e-06 -6.84845e-05 0 1.03301e-05 -6.14555e-05 0 1.12152e-05 -5.51517e-05 0 1.15605e-05 -4.95584e-05 0 1.15381e-05 -4.46179e-05 0 1.12693e-05 -4.02621e-05 0 1.08388e-05 -3.64208e-05 0 1.03053e-05 -3.30308e-05 0 9.70888e-06 -3.00355e-05 0 9.0773e-06 -2.73868e-05 0 8.42952e-06 -2.50432e-05 0 7.77844e-06 -2.29698e-05 0 7.13274e-06 -2.11368e-05 0 6.49804e-06 -1.95188e-05 0 5.87784e-06 -1.80942e-05 0 5.274e-06 -1.68447e-05 0 4.68726e-06 -1.57547e-05 0 4.11746e-06 -1.48108e-05 0 3.56384e-06 -1.40018e-05 0 3.02511e-06 -1.33183e-05 0 2.49967e-06 -1.27524e-05 0 1.98563e-06 -1.22977e-05 0 1.48091e-06 -1.19492e-05 0 9.83282e-07 -1.17029e-05 0 4.90439e-07 -1.15562e-05 0 0 -1.15075e-05 0 -2.7004e-05 -0.000122527 0 -1.46468e-05 -0.000117159 0 -3.53218e-06 -0.00010926 0 5.10303e-06 -9.95109e-05 0 1.10387e-05 -8.91652e-05 0 1.46718e-05 -7.9242e-05 0 1.66044e-05 -7.02259e-05 0 1.73805e-05 -6.22679e-05 0 1.74128e-05 -5.53442e-05 0 1.69848e-05 -4.93444e-05 0 1.62822e-05 -4.41474e-05 0 1.54237e-05 -3.96324e-05 0 1.44843e-05 -3.56983e-05 0 1.35108e-05 -3.2258e-05 0 1.25328e-05 -2.92414e-05 0 1.15683e-05 -2.65898e-05 0 1.06285e-05 -2.42556e-05 0 9.71955e-06 -2.21993e-05 0 8.84478e-06 -2.03879e-05 0 8.00533e-06 -1.8794e-05 0 7.20093e-06 -1.73944e-05 0 6.43035e-06 -1.61698e-05 0 5.69163e-06 -1.51037e-05 0 4.98235e-06 -1.41821e-05 0 4.29975e-06 -1.33935e-05 0 3.64081e-06 -1.27281e-05 0 3.00236e-06 -1.21778e-05 0 2.3811e-06 -1.17361e-05 0 1.77368e-06 -1.13977e-05 0 1.17666e-06 -1.11587e-05 0 5.86587e-07 -1.10164e-05 0 0 -1.09692e-05 0 -2.47484e-05 -0.000135112 0 -7.30674e-06 -0.000131065 0 7.10854e-06 -0.0001204 0 1.69899e-05 -0.000106942 0 2.25669e-05 -9.35118e-05 0 2.50837e-05 -8.13454e-05 0 2.56653e-05 -7.08745e-05 0 2.51536e-05 -6.20407e-05 0 2.40544e-05 -5.4606e-05 0 2.26729e-05 -4.83323e-05 0 2.11751e-05 -4.29954e-05 0 1.96548e-05 -3.8426e-05 0 1.81608e-05 -3.44836e-05 0 1.67192e-05 -3.10643e-05 0 1.53419e-05 -2.80837e-05 0 1.4034e-05 -2.54769e-05 0 1.2796e-05 -2.31913e-05 0 1.16262e-05 -2.11847e-05 0 1.05213e-05 -1.94223e-05 0 9.4774e-06 -1.78754e-05 0 8.49011e-06 -1.65203e-05 0 7.55475e-06 -1.53369e-05 0 6.66651e-06 -1.43084e-05 0 5.82053e-06 -1.34208e-05 0 5.01197e-06 -1.26623e-05 0 4.236e-06 -1.2023e-05 0 3.48784e-06 -1.14949e-05 0 2.76274e-06 -1.10713e-05 0 2.05603e-06 -1.0747e-05 0 1.36307e-06 -1.05181e-05 0 6.79253e-07 -1.03818e-05 0 0 -1.03366e-05 0 -2.2774e-05 -0.000160618 0 3.07515e-06 -0.00015108 0 2.28093e-05 -0.000133792 0 3.3232e-05 -0.000114284 0 3.71775e-05 -9.64053e-05 0 3.7343e-05 -8.16788e-05 0 3.57815e-05 -6.98748e-05 0 3.34717e-05 -6.04018e-05 0 3.09615e-05 -5.27222e-05 0 2.84631e-05 -4.63841e-05 0 2.60848e-05 -4.1087e-05 0 2.38552e-05 -3.65947e-05 0 2.17833e-05 -3.27515e-05 0 1.98618e-05 -2.94338e-05 0 1.80812e-05 -2.65548e-05 0 1.64294e-05 -2.40443e-05 0 1.48952e-05 -2.18495e-05 0 1.34677e-05 -1.99269e-05 0 1.21367e-05 -1.82419e-05 0 1.08928e-05 -1.67658e-05 0 9.72736e-06 -1.54749e-05 0 8.63203e-06 -1.43494e-05 0 7.59912e-06 -1.33727e-05 0 6.62131e-06 -1.25308e-05 0 5.69162e-06 -1.18122e-05 0 4.8034e-06 -1.12071e-05 0 3.95025e-06 -1.07077e-05 0 3.126e-06 -1.03073e-05 0 2.32465e-06 -1.00011e-05 0 1.54035e-06 -9.785e-06 0 7.67357e-07 -9.65641e-06 0 0 -9.61373e-06 0 -2.55774e-05 -0.000191963 0 2.26692e-05 -0.000180496 0 4.80118e-05 -0.000149693 0 5.61972e-05 -0.000119114 0 5.52071e-05 -9.59959e-05 0 5.12747e-05 -7.90469e-05 0 4.65088e-05 -6.65348e-05 0 4.19766e-05 -5.70144e-05 0 3.78206e-05 -4.94992e-05 0 3.41323e-05 -4.34227e-05 0 3.08373e-05 -3.83753e-05 0 2.78983e-05 -3.41269e-05 0 2.52536e-05 -3.04955e-05 0 2.28641e-05 -2.73701e-05 0 2.06914e-05 -2.46587e-05 0 1.87075e-05 -2.22985e-05 0 1.68879e-05 -2.02364e-05 0 1.52128e-05 -1.84326e-05 0 1.36651e-05 -1.68534e-05 0 1.223e-05 -1.54717e-05 0 1.08945e-05 -1.42647e-05 0 9.64696e-06 -1.32136e-05 0 8.4767e-06 -1.23024e-05 0 7.374e-06 -1.15178e-05 0 6.32984e-06 -1.08487e-05 0 5.33576e-06 -1.02858e-05 0 4.38381e-06 -9.82152e-06 0 3.46639e-06 -9.44959e-06 0 2.57624e-06 -9.16517e-06 0 1.70633e-06 -8.96458e-06 0 8.49832e-07 -8.84525e-06 0 0 -8.80564e-06 0 -1.68051e-05 -0.000277832 0 6.50114e-05 -0.00022834 0 9.25243e-05 -0.000160593 0 8.67288e-05 -0.000116315 0 7.61614e-05 -8.91894e-05 0 6.55126e-05 -7.20754e-05 0 5.70856e-05 -6.03249e-05 0 4.99795e-05 -5.16395e-05 0 4.42554e-05 -4.49048e-05 0 3.93783e-05 -3.94299e-05 0 3.52498e-05 -3.48934e-05 0 3.16408e-05 -3.10403e-05 0 2.8474e-05 -2.77447e-05 0 2.56487e-05 -2.4892e-05 0 2.31146e-05 -2.24159e-05 0 2.08215e-05 -2.02549e-05 0 1.87367e-05 -1.8367e-05 0 1.68308e-05 -1.67144e-05 0 1.50812e-05 -1.52683e-05 0 1.34678e-05 -1.40034e-05 0 1.1974e-05 -1.28993e-05 0 1.05847e-05 -1.19383e-05 0 9.28684e-06 -1.11059e-05 0 8.06827e-06 -1.03897e-05 0 6.91806e-06 -9.77937e-06 0 5.82608e-06 -9.26624e-06 0 4.78288e-06 -8.84321e-06 0 3.77954e-06 -8.50452e-06 0 2.80761e-06 -8.24563e-06 0 1.85894e-06 -8.06309e-06 0 9.25645e-07 -7.95452e-06 0 0 -7.91849e-06 0 -5.31995e-05 -0.000515103 0 0.000200901 -0.000278933 0 0.000156994 -0.000143618 0 0.000123363 -9.60278e-05 0 9.40284e-05 -7.31154e-05 0 7.88122e-05 -6.01146e-05 0 6.55275e-05 -5.11596e-05 0 5.70516e-05 -4.445e-05 0 4.96176e-05 -3.90486e-05 0 4.4014e-05 -3.45517e-05 0 3.90827e-05 -3.07192e-05 0 3.49813e-05 -2.74167e-05 0 3.13385e-05 -2.4547e-05 0 2.81534e-05 -2.20453e-05 0 2.52938e-05 -1.98571e-05 0 2.27305e-05 -1.79415e-05 0 2.04064e-05 -1.62624e-05 0 1.82937e-05 -1.47912e-05 0 1.63611e-05 -1.35024e-05 0 1.45865e-05 -1.23751e-05 0 1.29491e-05 -1.1391e-05 0 1.14314e-05 -1.05348e-05 0 1.00178e-05 -9.79355e-06 0 8.69429e-06 -9.15606e-06 0 7.44815e-06 -8.61305e-06 0 6.2677e-06 -8.15676e-06 0 5.14214e-06 -7.78075e-06 0 4.06135e-06 -7.47984e-06 0 3.01575e-06 -7.24989e-06 0 1.99619e-06 -7.08781e-06 0 9.93822e-07 -6.99141e-06 0 0 -6.95943e-06 0 0.000672059 -0.002176 0 0.000410007 5.80128e-05 0 0.000268369 -9.18633e-05 0 0.000107986 -4.62733e-05 0 0.000125201 -5.14981e-05 0 7.56592e-05 -4.39054e-05 0 7.72842e-05 -3.98031e-05 0 5.88969e-05 -3.62787e-05 0 5.5437e-05 -3.20811e-05 0 4.68284e-05 -2.91931e-05 0 4.27051e-05 -2.59112e-05 0 3.75627e-05 -2.34328e-05 0 3.39068e-05 -2.09431e-05 0 3.02585e-05 -1.89103e-05 0 2.72175e-05 -1.70135e-05 0 2.43835e-05 -1.53997e-05 0 2.18747e-05 -1.39467e-05 0 1.95733e-05 -1.26883e-05 0 1.74856e-05 -1.15743e-05 0 1.55678e-05 -1.06045e-05 0 1.38051e-05 -9.7548e-06 0 1.21742e-05 -9.01706e-06 0 1.0659e-05 -8.37757e-06 0 9.24321e-06 -7.82822e-06 0 7.91275e-06 -7.36022e-06 0 6.65461e-06 -6.9672e-06 0 5.45678e-06 -6.64339e-06 0 4.30808e-06 -6.38435e-06 0 3.19793e-06 -6.18644e-06 0 2.1163e-06 -6.04697e-06 0 1.05348e-06 -5.96404e-06 0 0 -5.93652e-06 0 </DataArray> 
</PointData> 
<Points> 
<DataArray type="Float32" NumberOfComponents="3"> 