<?xml version="1.0"?> 
<VTKFile type="StructuredGrid" version="0.1"> 
<StructuredGrid WholeExtent="0 31 0 31 0 0"> 
<Piece Extent="0 31 0 31 0 0"> 
<PointData>
<DataArray type="Float32" Name="B" format="ascii" NumberOfComponents="3"> 
-0.00907665 0.0011136 0 -0.000387391 -0.000106054 0 0.000169405 2.5604e-05 0 -0.00022127 5.73317e-06 0 3.67741e-05 1.4905e-05 0 -8.71197e-05 1.37077e-05 0 -1.00778e-05 1.37227e-05 0 -4.31073e-05 1.35681e-05 0 -1.99236e-05 1.24652e-05 0 -2.71784e-05 1.19537e-05 0 -1.94722e-05 1.08947e-05 0 -1.99729e-05 1.01923e-05 0 -1.67346e-05 9.30652e-06 0 -1.57037e-05 8.60305e-06 0 -1.38494e-05 7.87724e-06 0 -1.26257e-05 7.25536e-06 0 -1.12906e-05 6.66584e-06 0 -1.01748e-05 6.14693e-06 0 -9.10087e-06 5.67336e-06 0 -8.13297e-06 5.25425e-06 0 -7.22696e-06 4.87953e-06 0 -6.3887e-06 4.54962e-06 0 -5.60413e-06 4.25954e-06 0 -4.86827e-06 4.00758e-06 0 -4.17376e-06 3.79073e-06 0 -3.51457e-06 3.60712e-06 0 -2.88504e-06 3.45476e-06 0 -2.27965e-06 3.33218e-06 0 -1.69335e-06 3.2381e-06 0 -1.12112e-06 3.17158e-06 0 -5.58249e-07 3.13194e-06 0 0 3.11877e-06 0 0.00102673 -0.000785783 0 -0.000123973 -5.30605e-05 0 -0.000132447 -1.00628e-05 0 -3.61468e-05 5.7704e-06 0 -6.33004e-05 9.52564e-06 0 -3.27949e-05 1.17069e-05 0 -3.88119e-05 1.21546e-05 0 -2.82024e-05 1.20586e-05 0 -2.79817e-05 1.15849e-05 0 -2.34026e-05 1.09355e-05 0 -2.17938e-05 1.02101e-05 0 -1.91949e-05 9.46584e-06 0 -1.75021e-05 8.73756e-06 0 -1.56798e-05 8.04643e-06 0 -1.41891e-05 7.40077e-06 0 -1.27617e-05 6.80713e-06 0 -1.1497e-05 6.26509e-06 0 -1.03221e-05 5.7748e-06 0 -9.25058e-06 5.3334e-06 0 -8.25861e-06 4.9387e-06 0 -7.34168e-06 4.5875e-06 0 -6.48841e-06 4.27709e-06 0 -5.69174e-06 4.0046e-06 0 -4.94395e-06 3.76757e-06 0 -4.2384e-06 3.56367e-06 0 -3.56885e-06 3.39093e-06 0 -2.92942e-06 3.24761e-06 0 -2.31465e-06 3.13229e-06 0 -1.71927e-06 3.04378e-06 0 -1.13827e-06 2.9812e-06 0 -5.66773e-07 2.9439e-06 0 4.42603e-20 2.93151e-06 0 4.48432e-07 -0.000324933 0 -0.000112447 -8.89876e-05 0 -7.34824e-05 -1.80844e-05 0 -6.30868e-05 -6.04523e-07 0 -4.55567e-05 6.57026e-06 0 -4.12235e-05 9.41294e-06 0 -3.39504e-05 1.05628e-05 0 -3.07617e-05 1.07895e-05 0 -2.68437e-05 1.05441e-05 0 -2.42848e-05 1.00544e-05 0 -2.16813e-05 9.44329e-06 0 -1.9602e-05 8.78919e-06 0 -1.76416e-05 8.13378e-06 0 -1.59368e-05 7.50231e-06 0 -1.43668e-05 6.90855e-06 0 -1.29542e-05 6.35866e-06 0 -1.16581e-05 5.85556e-06 0 -1.04742e-05 5.39885e-06 0 -9.38412e-06 4.98738e-06 0 -8.37912e-06 4.61879e-06 0 -7.44802e-06 4.2907e-06 0 -6.58234e-06 4.00047e-06 0 -5.77377e-06 3.74566e-06 0 -5.01496e-06 3.5239e-06 0 -4.29907e-06 3.33313e-06 0 -3.61975e-06 3.17148e-06 0 -2.97109e-06 3.03736e-06 0 -2.34748e-06 2.92942e-06 0 -1.74361e-06 2.84658e-06 0 -1.15436e-06 2.78801e-06 0 -5.74777e-07 2.7531e-06 0 3.40943e-20 2.7415e-06 0 7.67735e-05 -0.000113323 0 -7.04242e-05 -8.98698e-05 0 -6.87127e-05 -2.42253e-05 0 -5.54222e-05 -5.19347e-06 0 -4.60814e-05 3.77597e-06 0 -3.92961e-05 7.39291e-06 0 -3.43607e-05 9.03699e-06 0 -3.03754e-05 9.58299e-06 0 -2.71427e-05 9.52372e-06 0 -2.43492e-05 9.19024e-06 0 -2.19338e-05 8.67787e-06 0 -1.9781e-05 8.11488e-06 0 -1.78609e-05 7.52546e-06 0 -1.61251e-05 6.95519e-06 0 -1.45534e-05 6.41056e-06 0 -1.31211e-05 5.90552e-06 0 -1.18129e-05 5.44051e-06 0 -1.0613e-05 5.01809e-06 0 -9.5095e-06 4.63646e-06 0 -8.49087e-06 4.29446e-06 0 -7.54733e-06 3.98966e-06 0 -6.66985e-06 3.71995e-06 0 -5.85031e-06 3.48302e-06 0 -5.08121e-06 3.27681e-06 0 -4.35567e-06 3.09936e-06 0 -3.66725e-06 2.94898e-06 0 -3.00996e-06 2.8242e-06 0 -2.37812e-06 2.72377e-06 0 -1.76632e-06 2.64669e-06 0 -1.16938e-06 2.59219e-06 0 -5.82247e-07 2.55971e-06 0 0 2.54892e-06 0 2.55866e-05 -0.00011429 0 -4.80346e-05 -7.1251e-05 0 -5.72934e-05 -2.87833e-05 0 -5.15612e-05 -7.91283e-06 0 -4.38652e-05 1.27244e-06 0 -3.85449e-05 5.63186e-06 0 -3.39089e-05 7.64179e-06 0 -3.03207e-05 8.41448e-06 0 -2.71708e-05 8.55668e-06 0 -2.44907e-05 8.32785e-06 0 -2.20948e-05 7.9293e-06 0 -1.99668e-05 7.436e-06 0 -1.8043e-05 6.91929e-06 0 -1.63037e-05 6.40252e-06 0 -1.47204e-05 5.90965e-06 0 -1.32764e-05 5.44704e-06 0 -1.19546e-05 5.02121e-06 0 -1.07417e-05 4.63251e-06 0 -9.62523e-06 4.28129e-06 0 -8.59438e-06 3.9659e-06 0 -7.63926e-06 3.68475e-06 0 -6.75094e-06 3.43577e-06 0 -5.92124e-06 3.217e-06 0 -5.14263e-06 3.02651e-06 0 -4.40815e-06 2.86258e-06 0 -3.7113e-06 2.72363e-06 0 -3.04602e-06 2.60833e-06 0 -2.40654e-06 2.51553e-06 0 -1.78739e-06 2.4443e-06 0 -1.1833e-06 2.39393e-06 0 -5.89175e-07 2.36391e-06 0 5.56944e-22 2.35394e-06 0 2.07275e-05 -5.93037e-05 0 -3.35121e-05 -6.09917e-05 0 -4.87266e-05 -2.85701e-05 0 -4.67346e-05 -1.00217e-05 0 -4.19657e-05 -5.65487e-07 0 -3.74022e-05 4.09637e-06 0 -3.35093e-05 6.36039e-06 0 -3.01304e-05 7.33886e-06 0 -2.71931e-05 7.60839e-06 0 -2.45773e-05 7.49878e-06 0 -2.22385e-05 7.18088e-06 0 -2.01239e-05 6.76573e-06 0 -1.82079e-05 6.30922e-06 0 -1.64635e-05 5.84933e-06 0 -1.48726e-05 5.40404e-06 0 -1.34177e-05 4.98517e-06 0 -1.20844e-05 4.59735e-06 0 -1.08596e-05 4.24299e-06 0 -9.7315e-06 3.922e-06 0 -8.68947e-06 3.63361e-06 0 -7.72379e-06 3.37624e-06 0 -6.82553e-06 3.14824e-06 0 -5.9865e-06 2.94782e-06 0 -5.19915e-06 2.77327e-06 0 -4.45645e-06 2.62302e-06 0 -3.75185e-06 2.49567e-06 0 -3.07921e-06 2.38997e-06 0 -2.4327e-06 2.30489e-06 0 -1.80678e-06 2.23959e-06 0 -1.19612e-06 2.19341e-06 0 -5.95553e-07 2.16589e-06 0 3.89414e-20 2.15674e-06 0 1.31496e-05 -5.9035e-05 0 -2.49457e-05 -4.88426e-05 0 -4.11499e-05 -2.7334e-05 0 -4.25202e-05 -1.09279e-05 0 -3.97962e-05 -1.95239e-06 0 -3.63066e-05 2.82224e-06 0 -3.29857e-05 5.22606e-06 0 -2.99269e-05 6.32818e-06 0 -2.71615e-05 6.71022e-06 0 -2.46429e-05 6.68543e-06 0 -2.23524e-05 6.44727e-06 0 -2.02614e-05 6.09698e-06 0 -1.83525e-05 5.70109e-06 0 -1.66069e-05 5.2934e-06 0 -1.50095e-05 4.89603e-06 0 -1.35456e-05 4.51947e-06 0 -1.22021e-05 4.16995e-06 0 -1.09667e-05 3.84963e-06 0 -9.8282e-06 3.55916e-06 0 -8.7761e-06 3.29783e-06 0 -7.80083e-06 3.06449e-06 0 -6.89354e-06 2.85765e-06 0 -6.04603e-06 2.67577e-06 0 -5.25071e-06 2.51733e-06 0 -4.50052e-06 2.38093e-06 0 -3.78885e-06 2.26529e-06 0 -3.10949e-06 2.16931e-06 0 -2.45657e-06 2.09206e-06 0 -1.82448e-06 2.03276e-06 0 -1.20783e-06 1.99082e-06 0 -6.01375e-07 1.96582e-06 0 1.80919e-20 1.95752e-06 0 7.57049e-06 -4.05932e-05 0 -1.95658e-05 -4.07746e-05 0 -3.5058e-05 -2.46974e-05 0 -3.87354e-05 -1.11605e-05 0 -3.7663e-05 -2.83911e-06 0 -3.52e-05 1.79471e-06 0 -3.24255e-05 4.22832e-06 0 -2.96935e-05 5.40079e-06 0 -2.71011e-05 5.85098e-06 0 -2.46837e-05 5.89858e-06 0 -2.24439e-05 5.72331e-06 0 -2.03789e-05 5.43453e-06 0 -1.8479e-05 5.09322e-06 0 -1.67339e-05 4.73676e-06 0 -1.51316e-05 4.38535e-06 0 -1.36602e-05 4.05091e-06 0 -1.23078e-05 3.73919e-06 0 -1.10632e-05 3.453e-06 0 -9.91531e-06 3.19303e-06 0 -8.85419e-06 2.95895e-06 0 -7.87032e-06 2.74978e-06 0 -6.95491e-06 2.56428e-06 0 -6.09976e-06 2.40111e-06 0 -5.29726e-06 2.25895e-06 0 -4.54031e-06 2.13653e-06 0 -3.82226e-06 2.03274e-06 0 -3.13685e-06 1.94658e-06 0 -2.47813e-06 1.87723e-06 0 -1.84047e-06 1.824e-06 0 -1.21839e-06 1.78635e-06 0 -6.06632e-07 1.76391e-06 0 0 1.75645e-06 0 7.31231e-06 -3.6905e-05 0 -1.59361e-05 -3.31548e-05 0 -3.03958e-05 -2.186e-05 0 -3.53609e-05 -1.07188e-05 0 -3.57028e-05 -3.338e-06 0 -3.40996e-05 1.00741e-06 0 -3.18707e-05 3.36959e-06 0 -2.94374e-05 4.54806e-06 0 -2.70246e-05 5.03792e-06 0 -2.47029e-05 5.1338e-06 0 -2.2517e-05 5.01281e-06 0 -2.04774e-05 4.77683e-06 0 -1.85885e-05 4.48736e-06 0 -1.68448e-05 4.17917e-06 0 -1.52392e-05 3.8729e-06 0 -1.37615e-05 3.57969e-06 0 -1.24016e-05 3.30562e-06 0 -1.11488e-05 3.05342e-06 0 -9.99279e-06 2.82404e-06 0 -8.92371e-06 2.61729e-06 0 -7.93222e-06 2.43244e-06 0 -7.00959e-06 2.26844e-06 0 -6.14765e-06 2.12413e-06 0 -5.33876e-06 1.99837e-06 0 -4.57579e-06 1.89006e-06 0 -3.85205e-06 1.79822e-06 0 -3.16124e-06 1.72199e-06 0 -2.49736e-06 1.66062e-06 0 -1.85472e-06 1.6135e-06 0 -1.22782e-06 1.58019e-06 0 -6.11321e-07 1.56033e-06 0 0 1.55373e-06 0 4.42569e-06 -2.79191e-05 0 -1.35276e-05 -2.72581e-05 0 -2.66794e-05 -1.8756e-05 0 -3.2562e-05 -9.8693e-06 0 -3.38929e-05 -3.48642e-06 0 -3.30881e-05 4.34814e-07 0 -3.13222e-05 2.63834e-06 0 -2.91852e-05 3.77141e-06 0 -2.69338e-05 4.26611e-06 0 -2.47087e-05 4.39334e-06 0 -2.25727e-05 4.31403e-06 0 -2.05597e-05 4.12523e-06 0 -1.86815e-05 3.88319e-06 0 -1.69406e-05 3.62143e-06 0 -1.53324e-05 3.35886e-06 0 -1.38498e-05 3.10636e-06 0 -1.24835e-05 2.86958e-06 0 -1.12237e-05 2.65131e-06 0 -1.00606e-05 2.45252e-06 0 -8.98461e-06 2.27321e-06 0 -7.98647e-06 2.11279e-06 0 -7.05753e-06 1.9704e-06 0 -6.18964e-06 1.84508e-06 0 -5.37516e-06 1.73585e-06 0 -4.60691e-06 1.64176e-06 0 -3.87819e-06 1.56198e-06 0 -3.18263e-06 1.49574e-06 0 -2.51423e-06 1.44242e-06 0 -1.86723e-06 1.40148e-06 0 -1.23609e-06 1.37253e-06 0 -6.15435e-07 1.35528e-06 0 0 1.34954e-06 0 4.6513e-06 -2.35409e-05 0 -1.17621e-05 -2.18773e-05 0 -2.39192e-05 -1.5715e-05 0 -3.01913e-05 -8.69251e-06 0 -3.23446e-05 -3.3624e-06 0 -3.21571e-05 5.20906e-08 0 -3.08229e-05 2.0244e-06 0 -2.89387e-05 3.06311e-06 0 -2.68425e-05 3.53481e-06 0 -2.47027e-05 3.67465e-06 0 -2.26153e-05 3.62737e-06 0 -2.06265e-05 3.47909e-06 0 -1.87595e-05 3.28121e-06 0 -1.70214e-05 3.0636e-06 0 -1.54118e-05 2.8437e-06 0 -1.39251e-05 2.63123e-06 0 -1.25535e-05 2.43148e-06 0 -1.12879e-05 2.24702e-06 0 -1.01188e-05 2.07884e-06 0 -9.03686e-06 1.92702e-06 0 -8.03304e-06 1.79113e-06 0 -7.0987e-06 1.67047e-06 0 -6.22571e-06 1.56425e-06 0 -5.40642e-06 1.47165e-06 0 -4.63365e-06 1.39188e-06 0 -3.90064e-06 1.32423e-06 0 -3.20102e-06 1.26806e-06 0 -2.52872e-06 1.22284e-06 0 -1.87797e-06 1.18813e-06 0 -1.24319e-06 1.16358e-06 0 -6.18969e-07 1.14895e-06 0 0 1.14408e-06 0 3.30866e-06 -1.78687e-05 0 -1.05445e-05 -1.72666e-05 0 -2.17757e-05 -1.26985e-05 0 -2.83209e-05 -7.31637e-06 0 -3.1023e-05 -3.01656e-06 0 -3.13615e-05 -1.71313e-07 0 -3.03747e-05 1.51228e-06 0 -2.8718e-05 2.41691e-06 0 -2.67532e-05 2.83909e-06 0 -2.46915e-05 2.97644e-06 0 -2.26462e-05 2.95141e-06 0 -2.06799e-05 2.83836e-06 0 -1.88228e-05 2.68122e-06 0 -1.7088e-05 2.506e-06 0 -1.54775e-05 2.32764e-06 0 -1.39877e-05 2.15467e-06 0 -1.26117e-05 1.99166e-06 0 -1.13413e-05 1.84091e-06 0 -1.01673e-05 1.70333e-06 0 -9.08043e-06 1.57906e-06 0 -8.07189e-06 1.46777e-06 0 -7.13306e-06 1.36893e-06 0 -6.25582e-06 1.2819e-06 0 -5.43252e-06 1.20602e-06 0 -4.65597e-06 1.14065e-06 0 -3.91939e-06 1.0852e-06 0 -3.21637e-06 1.03917e-06 0 -2.54083e-06 1.0021e-06 0 -1.88695e-06 9.73648e-07 0 -1.24912e-06 9.53524e-07 0 -6.21921e-07 9.4153e-07 0 0 9.37545e-07 0 3.36357e-06 -1.3765e-05 0 -9.65076e-06 -1.30042e-05 0 -2.02322e-05 -9.77847e-06 0 -2.68501e-05 -5.79717e-06 0 -2.99758e-05 -2.50503e-06 0 -3.06997e-05 -2.65019e-07 0 -3.00031e-05 1.0858e-06 0 -2.85275e-05 1.82302e-06 0 -2.66751e-05 2.17445e-06 0 -2.46773e-05 2.29564e-06 0 -2.26683e-05 2.28501e-06 0 -2.07208e-05 2.20228e-06 0 -1.88727e-05 2.08317e-06 0 -1.71407e-05 1.94866e-06 0 -1.55297e-05 1.81096e-06 0 -1.40375e-05 1.67697e-06 0 -1.26583e-05 1.55046e-06 0 -1.1384e-05 1.43332e-06 0 -1.0206e-05 1.32634e-06 0 -9.11532e-06 1.22965e-06 0 -8.103e-06 1.14303e-06 0 -7.16057e-06 1.06609e-06 0 -6.27993e-06 9.98322e-07 0 -5.45343e-06 9.39228e-07 0 -4.67385e-06 8.88315e-07 0 -3.93441e-06 8.45131e-07 0 -3.22867e-06 8.09275e-07 0 -2.55052e-06 7.80406e-07 0 -1.89414e-06 7.58243e-07 0 -1.25388e-06 7.42568e-07 0 -6.24286e-07 7.33225e-07 0 0 7.30121e-07 0 2.79857e-06 -9.43945e-06 0 -9.05504e-06 -9.09845e-06 0 -1.9123e-05 -6.92264e-06 0 -2.57912e-05 -4.19288e-06 0 -2.91827e-05 -1.87077e-06 0 -3.01977e-05 -2.59353e-07 0 -2.97124e-05 7.26774e-07 0 -2.83787e-05 1.27135e-06 0 -2.66113e-05 1.5347e-06 0 -2.46641e-05 1.62917e-06 0 -2.26831e-05 1.62634e-06 0 -2.07505e-05 1.57013e-06 0 -1.89094e-05 1.48673e-06 0 -1.71799e-05 1.39163e-06 0 -1.55687e-05 1.29383e-06 0 -1.40748e-05 1.19842e-06 0 -1.26931e-05 1.10821e-06 0 -1.14161e-05 1.02461e-06 0 -1.02351e-05 9.48201e-07 0 -9.14149e-06 8.79119e-07 0 -8.12635e-06 8.17219e-07 0 -7.18123e-06 7.62219e-07 0 -6.29804e-06 7.13775e-07 0 -5.46913e-06 6.71527e-07 0 -4.68728e-06 6.35124e-07 0 -3.94569e-06 6.04247e-07 0 -3.23791e-06 5.78608e-07 0 -2.55781e-06 5.57965e-07 0 -1.89954e-06 5.42117e-07 0 -1.25745e-06 5.30908e-07 0 -6.26062e-07 5.24227e-07 0 -1.30455e-21 5.22008e-07 0 2.78542e-06 -5.65539e-06 0 -8.67209e-06 -5.37384e-06 0 -1.84288e-05 -4.13037e-06 0 -2.50924e-05 -2.53401e-06 0 -2.86589e-05 -1.15432e-06 0 -2.98564e-05 -1.83407e-07 0 -2.95153e-05 4.16483e-07 0 -2.82755e-05 7.50334e-07 0 -2.65669e-05 9.13353e-07 0 -2.46537e-05 9.73186e-07 0 -2.26922e-05 9.73448e-07 0 -2.07698e-05 9.40872e-07 0 -1.89336e-05 8.91522e-07 0 -1.72058e-05 8.3486e-07 0 -1.55945e-05 7.76404e-07 0 -1.40996e-05 7.19285e-07 0 -1.27163e-05 6.65222e-07 0 -1.14374e-05 6.15084e-07 0 -1.02545e-05 5.69246e-07 0 -9.15895e-06 5.27791e-07 0 -8.14193e-06 4.90638e-07 0 -7.19501e-06 4.57623e-07 0 -6.31012e-06 4.2854e-07 0 -5.47961e-06 4.03176e-07 0 -4.69624e-06 3.8132e-07 0 -3.95322e-06 3.62781e-07 0 -3.24407e-06 3.47387e-07 0 -2.56267e-06 3.34992e-07 0 -1.90314e-06 3.25476e-07 0 -1.25983e-06 3.18746e-07 0 -6.27248e-07 3.14735e-07 0 -6.65971e-21 3.13402e-07 0 2.632e-06 -1.83179e-06 0 -8.49169e-06 -1.78158e-06 0 -1.80855e-05 -1.37196e-06 0 -2.47509e-05 -8.47791e-07 0 -2.83956e-05 -3.89921e-07 0 -2.96855e-05 -6.57577e-08 0 -2.94149e-05 1.3555e-07 0 -2.82232e-05 2.48029e-07 0 -2.65439e-05 3.03188e-07 0 -2.46482e-05 3.23676e-07 0 -2.26964e-05 3.24082e-07 0 -2.07793e-05 3.13423e-07 0 -1.89456e-05 2.97085e-07 0 -1.72187e-05 2.78267e-07 0 -1.56075e-05 2.58819e-07 0 -1.4112e-05 2.398e-07 0 -1.27279e-05 2.21789e-07 0 -1.14481e-05 2.05081e-07 0 -1.02642e-05 1.89803e-07 0 -9.16768e-06 1.75983e-07 0 -8.14972e-06 1.63597e-07 0 -7.2019e-06 1.5259e-07 0 -6.31616e-06 1.42893e-07 0 -5.48485e-06 1.34435e-07 0 -4.70073e-06 1.27148e-07 0 -3.95698e-06 1.20966e-07 0 -3.24715e-06 1.15833e-07 0 -2.5651e-06 1.117e-07 0 -1.90494e-06 1.08527e-07 0 -1.26102e-06 1.06282e-07 0 -6.27841e-07 1.04945e-07 0 -3.95598e-22 1.045e-07 0 2.632e-06 1.83179e-06 0 -8.49169e-06 1.78158e-06 0 -1.80855e-05 1.37196e-06 0 -2.47509e-05 8.47791e-07 0 -2.83956e-05 3.89921e-07 0 -2.96855e-05 6.57577e-08 0 -2.94149e-05 -1.3555e-07 0 -2.82232e-05 -2.48029e-07 0 -2.65439e-05 -3.03188e-07 0 -2.46482e-05 -3.23676e-07 0 -2.26964e-05 -3.24082e-07 0 -2.07793e-05 -3.13423e-07 0 -1.89456e-05 -2.97085e-07 0 -1.72187e-05 -2.78267e-07 0 -1.56075e-05 -2.58819e-07 0 -1.4112e-05 -2.398e-07 0 -1.27279e-05 -2.21789e-07 0 -1.14481e-05 -2.05081e-07 0 -1.02642e-05 -1.89803e-07 0 -9.16768e-06 -1.75983e-07 0 -8.14972e-06 -1.63597e-07 0 -7.2019e-06 -1.5259e-07 0 -6.31616e-06 -1.42893e-07 0 -5.48485e-06 -1.34435e-07 0 -4.70073e-06 -1.27148e-07 0 -3.95698e-06 -1.20966e-07 0 -3.24715e-06 -1.15833e-07 0 -2.5651e-06 -1.117e-07 0 -1.90494e-06 -1.08527e-07 0 -1.26102e-06 -1.06282e-07 0 -6.27841e-07 -1.04945e-07 0 0 -1.045e-07 0 2.78542e-06 5.65539e-06 0 -8.67209e-06 5.37384e-06 0 -1.84288e-05 4.13037e-06 0 -2.50924e-05 2.53401e-06 0 -2.86589e-05 1.15432e-06 0 -2.98564e-05 1.83407e-07 0 -2.95153e-05 -4.16483e-07 0 -2.82755e-05 -7.50334e-07 0 -2.65669e-05 -9.13353e-07 0 -2.46537e-05 -9.73186e-07 0 -2.26922e-05 -9.73448e-07 0 -2.07698e-05 -9.40872e-07 0 -1.89336e-05 -8.91522e-07 0 -1.72058e-05 -8.3486e-07 0 -1.55945e-05 -7.76404e-07 0 -1.40996e-05 -7.19285e-07 0 -1.27163e-05 -6.65222e-07 0 -1.14374e-05 -6.15084e-07 0 -1.02545e-05 -5.69246e-07 0 -9.15895e-06 -5.27791e-07 0 -8.14193e-06 -4.90638e-07 0 -7.19501e-06 -4.57623e-07 0 -6.31012e-06 -4.2854e-07 0 -5.47961e-06 -4.03176e-07 0 -4.69624e-06 -3.8132e-07 0 -3.95322e-06 -3.62781e-07 0 -3.24407e-06 -3.47387e-07 0 -2.56267e-06 -3.34992e-07 0 -1.90314e-06 -3.25476e-07 0 -1.25983e-06 -3.18746e-07 0 -6.27248e-07 -3.14735e-07 0 0 -3.13402e-07 0 2.79857e-06 9.43945e-06 0 -9.05504e-06 9.09845e-06 0 -1.9123e-05 6.92264e-06 0 -2.57912e-05 4.19288e-06 0 -2.91827e-05 1.87077e-06 0 -3.01977e-05 2.59353e-07 0 -2.97124e-05 -7.26774e-07 0 -2.83787e-05 -1.27135e-06 0 -2.66113e-05 -1.5347e-06 0 -2.46641e-05 -1.62917e-06 0 -2.26831e-05 -1.62634e-06 0 -2.07505e-05 -1.57013e-06 0 -1.89094e-05 -1.48673e-06 0 -1.71799e-05 -1.39163e-06 0 -1.55687e-05 -1.29383e-06 0 -1.40748e-05 -1.19842e-06 0 -1.26931e-05 -1.10821e-06 0 -1.14161e-05 -1.02461e-06 0 -1.02351e-05 -9.48201e-07 0 -9.14149e-06 -8.79119e-07 0 -8.12635e-06 -8.17219e-07 0 -7.18123e-06 -7.62219e-07 0 -6.29804e-06 -7.13775e-07 0 -5.46913e-06 -6.71527e-07 0 -4.68728e-06 -6.35124e-07 0 -3.94569e-06 -6.04247e-07 0 -3.23791e-06 -5.78608e-07 0 -2.55781e-06 -5.57965e-07 0 -1.89954e-06 -5.42117e-07 0 -1.25745e-06 -5.30908e-07 0 -6.26062e-07 -5.24227e-07 0 2.50103e-21 -5.22008e-07 0 3.36357e-06 1.3765e-05 0 -9.65076e-06 1.30042e-05 0 -2.02322e-05 9.77847e-06 0 -2.68501e-05 5.79717e-06 0 -2.99758e-05 2.50503e-06 0 -3.06997e-05 2.65019e-07 0 -3.00031e-05 -1.0858e-06 0 -2.85275e-05 -1.82302e-06 0 -2.66751e-05 -2.17445e-06 0 -2.46773e-05 -2.29564e-06 0 -2.26683e-05 -2.28501e-06 0 -2.07208e-05 -2.20228e-06 0 -1.88727e-05 -2.08317e-06 0 -1.71407e-05 -1.94866e-06 0 -1.55297e-05 -1.81096e-06 0 -1.40375e-05 -1.67697e-06 0 -1.26583e-05 -1.55046e-06 0 -1.1384e-05 -1.43332e-06 0 -1.0206e-05 -1.32634e-06 0 -9.11532e-06 -1.22965e-06 0 -8.103e-06 -1.14303e-06 0 -7.16057e-06 -1.06609e-06 0 -6.27993e-06 -9.98322e-07 0 -5.45343e-06 -9.39228e-07 0 -4.67385e-06 -8.88315e-07 0 -3.93441e-06 -8.45131e-07 0 -3.22867e-06 -8.09275e-07 0 -2.55052e-06 -7.80406e-07 0 -1.89414e-06 -7.58243e-07 0 -1.25388e-06 -7.42568e-07 0 -6.24286e-07 -7.33225e-07 0 1.52989e-20 -7.30121e-07 0 3.30866e-06 1.78687e-05 0 -1.05445e-05 1.72666e-05 0 -2.17757e-05 1.26985e-05 0 -2.83209e-05 7.31637e-06 0 -3.1023e-05 3.01656e-06 0 -3.13615e-05 1.71313e-07 0 -3.03747e-05 -1.51228e-06 0 -2.8718e-05 -2.41691e-06 0 -2.67532e-05 -2.83909e-06 0 -2.46915e-05 -2.97644e-06 0 -2.26462e-05 -2.95141e-06 0 -2.06799e-05 -2.83836e-06 0 -1.88228e-05 -2.68122e-06 0 -1.7088e-05 -2.506e-06 0 -1.54775e-05 -2.32764e-06 0 -1.39877e-05 -2.15467e-06 0 -1.26117e-05 -1.99166e-06 0 -1.13413e-05 -1.84091e-06 0 -1.01673e-05 -1.70333e-06 0 -9.08043e-06 -1.57906e-06 0 -8.07189e-06 -1.46777e-06 0 -7.13306e-06 -1.36893e-06 0 -6.25582e-06 -1.2819e-06 0 -5.43252e-06 -1.20602e-06 0 -4.65597e-06 -1.14065e-06 0 -3.91939e-06 -1.0852e-06 0 -3.21637e-06 -1.03917e-06 0 -2.54083e-06 -1.0021e-06 0 -1.88695e-06 -9.73648e-07 0 -1.24912e-06 -9.53524e-07 0 -6.21921e-07 -9.4153e-07 0 1.67755e-21 -9.37545e-07 0 4.6513e-06 2.35409e-05 0 -1.17621e-05 2.18773e-05 0 -2.39192e-05 1.5715e-05 0 -3.01913e-05 8.69251e-06 0 -3.23446e-05 3.3624e-06 0 -3.21571e-05 -5.20906e-08 0 -3.08229e-05 -2.0244e-06 0 -2.89387e-05 -3.06311e-06 0 -2.68425e-05 -3.53481e-06 0 -2.47027e-05 -3.67465e-06 0 -2.26153e-05 -3.62737e-06 0 -2.06265e-05 -3.47909e-06 0 -1.87595e-05 -3.28121e-06 0 -1.70214e-05 -3.0636e-06 0 -1.54118e-05 -2.8437e-06 0 -1.39251e-05 -2.63123e-06 0 -1.25535e-05 -2.43148e-06 0 -1.12879e-05 -2.24702e-06 0 -1.01188e-05 -2.07884e-06 0 -9.03686e-06 -1.92702e-06 0 -8.03304e-06 -1.79113e-06 0 -7.0987e-06 -1.67047e-06 0 -6.22571e-06 -1.56425e-06 0 -5.40642e-06 -1.47165e-06 0 -4.63365e-06 -1.39188e-06 0 -3.90064e-06 -1.32423e-06 0 -3.20102e-06 -1.26806e-06 0 -2.52872e-06 -1.22284e-06 0 -1.87797e-06 -1.18813e-06 0 -1.24319e-06 -1.16358e-06 0 -6.18969e-07 -1.14895e-06 0 0 -1.14408e-06 0 4.42569e-06 2.79191e-05 0 -1.35276e-05 2.72581e-05 0 -2.66794e-05 1.8756e-05 0 -3.2562e-05 9.8693e-06 0 -3.38929e-05 3.48642e-06 0 -3.30881e-05 -4.34814e-07 0 -3.13222e-05 -2.63834e-06 0 -2.91852e-05 -3.77141e-06 0 -2.69338e-05 -4.26611e-06 0 -2.47087e-05 -4.39334e-06 0 -2.25727e-05 -4.31403e-06 0 -2.05597e-05 -4.12523e-06 0 -1.86815e-05 -3.88319e-06 0 -1.69406e-05 -3.62143e-06 0 -1.53324e-05 -3.35886e-06 0 -1.38498e-05 -3.10636e-06 0 -1.24835e-05 -2.86958e-06 0 -1.12237e-05 -2.65131e-06 0 -1.00606e-05 -2.45252e-06 0 -8.98461e-06 -2.27321e-06 0 -7.98647e-06 -2.11279e-06 0 -7.05753e-06 -1.9704e-06 0 -6.18964e-06 -1.84508e-06 0 -5.37516e-06 -1.73585e-06 0 -4.60691e-06 -1.64176e-06 0 -3.87819e-06 -1.56198e-06 0 -3.18263e-06 -1.49574e-06 0 -2.51423e-06 -1.44242e-06 0 -1.86723e-06 -1.40148e-06 0 -1.23609e-06 -1.37253e-06 0 -6.15435e-07 -1.35528e-06 0 0 -1.34954e-06 0 7.31231e-06 3.6905e-05 0 -1.59361e-05 3.31548e-05 0 -3.03958e-05 2.186e-05 0 -3.53609e-05 1.07188e-05 0 -3.57028e-05 3.338e-06 0 -3.40996e-05 -1.00741e-06 0 -3.18707e-05 -3.36959e-06 0 -2.94374e-05 -4.54806e-06 0 -2.70246e-05 -5.03792e-06 0 -2.47029e-05 -5.1338e-06 0 -2.2517e-05 -5.01281e-06 0 -2.04774e-05 -4.77683e-06 0 -1.85885e-05 -4.48736e-06 0 -1.68448e-05 -4.17917e-06 0 -1.52392e-05 -3.8729e-06 0 -1.37615e-05 -3.57969e-06 0 -1.24016e-05 -3.30562e-06 0 -1.11488e-05 -3.05342e-06 0 -9.99279e-06 -2.82404e-06 0 -8.92371e-06 -2.61729e-06 0 -7.93222e-06 -2.43244e-06 0 -7.00959e-06 -2.26844e-06 0 -6.14765e-06 -2.12413e-06 0 -5.33876e-06 -1.99837e-06 0 -4.57579e-06 -1.89006e-06 0 -3.85205e-06 -1.79822e-06 0 -3.16124e-06 -1.72199e-06 0 -2.49736e-06 -1.66062e-06 0 -1.85472e-06 -1.6135e-06 0 -1.22782e-06 -1.58019e-06 0 -6.11321e-07 -1.56033e-06 0 0 -1.55373e-06 0 7.57049e-06 4.05932e-05 0 -1.95658e-05 4.07746e-05 0 -3.5058e-05 2.46974e-05 0 -3.87354e-05 1.11605e-05 0 -3.7663e-05 2.83911e-06 0 -3.52e-05 -1.79471e-06 0 -3.24255e-05 -4.22832e-06 0 -2.96935e-05 -5.40079e-06 0 -2.71011e-05 -5.85098e-06 0 -2.46837e-05 -5.89858e-06 0 -2.24439e-05 -5.72331e-06 0 -2.03789e-05 -5.43453e-06 0 -1.8479e-05 -5.09322e-06 0 -1.67339e-05 -4.73676e-06 0 -1.51316e-05 -4.38535e-06 0 -1.36602e-05 -4.05091e-06 0 -1.23078e-05 -3.73919e-06 0 -1.10632e-05 -3.453e-06 0 -9.91531e-06 -3.19303e-06 0 -8.85419e-06 -2.95895e-06 0 -7.87032e-06 -2.74978e-06 0 -6.95491e-06 -2.56428e-06 0 -6.09976e-06 -2.40111e-06 0 -5.29726e-06 -2.25895e-06 0 -4.54031e-06 -2.13653e-06 0 -3.82226e-06 -2.03274e-06 0 -3.13685e-06 -1.94658e-06 0 -2.47813e-06 -1.87723e-06 0 -1.84047e-06 -1.824e-06 0 -1.21839e-06 -1.78635e-06 0 -6.06632e-07 -1.76391e-06 0 0 -1.75645e-06 0 1.31496e-05 5.9035e-05 0 -2.49457e-05 4.88426e-05 0 -4.11499e-05 2.7334e-05 0 -4.25202e-05 1.09279e-05 0 -3.97962e-05 1.95239e-06 0 -3.63066e-05 -2.82224e-06 0 -3.29857e-05 -5.22606e-06 0 -2.99269e-05 -6.32818e-06 0 -2.71615e-05 -6.71022e-06 0 -2.46429e-05 -6.68543e-06 0 -2.23524e-05 -6.44727e-06 0 -2.02614e-05 -6.09698e-06 0 -1.83525e-05 -5.70109e-06 0 -1.66069e-05 -5.2934e-06 0 -1.50095e-05 -4.89603e-06 0 -1.35456e-05 -4.51947e-06 0 -1.22021e-05 -4.16995e-06 0 -1.09667e-05 -3.84963e-06 0 -9.8282e-06 -3.55916e-06 0 -8.7761e-06 -3.29783e-06 0 -7.80083e-06 -3.06449e-06 0 -6.89354e-06 -2.85765e-06 0 -6.04603e-06 -2.67577e-06 0 -5.25071e-06 -2.51733e-06 0 -4.50052e-06 -2.38093e-06 0 -3.78885e-06 -2.26529e-06 0 -3.10949e-06 -2.16931e-06 0 -2.45657e-06 -2.09206e-06 0 -1.82448e-06 -2.03276e-06 0 -1.20783e-06 -1.99082e-06 0 -6.01375e-07 -1.96582e-06 0 0 -1.95752e-06 0 2.07275e-05 5.93037e-05 0 -3.35121e-05 6.09917e-05 0 -4.87266e-05 2.85701e-05 0 -4.67346e-05 1.00217e-05 0 -4.19657e-05 5.65487e-07 0 -3.74022e-05 -4.09637e-06 0 -3.35093e-05 -6.36039e-06 0 -3.01304e-05 -7.33886e-06 0 -2.71931e-05 -7.60839e-06 0 -2.45773e-05 -7.49878e-06 0 -2.22385e-05 -7.18088e-06 0 -2.01239e-05 -6.76573e-06 0 -1.82079e-05 -6.30922e-06 0 -1.64635e-05 -5.84933e-06 0 -1.48726e-05 -5.40404e-06 0 -1.34177e-05 -4.98517e-06 0 -1.20844e-05 -4.59735e-06 0 -1.08596e-05 -4.24299e-06 0 -9.7315e-06 -3.922e-06 0 -8.68947e-06 -3.63361e-06 0 -7.72379e-06 -3.37624e-06 0 -6.82553e-06 -3.14824e-06 0 -5.9865e-06 -2.94782e-06 0 -5.19915e-06 -2.77327e-06 0 -4.45645e-06 -2.62302e-06 0 -3.75185e-06 -2.49567e-06 0 -3.07921e-06 -2.38997e-06 0 -2.4327e-06 -2.30489e-06 0 -1.80678e-06 -2.23959e-06 0 -1.19612e-06 -2.19341e-06 0 -5.95553e-07 -2.16589e-06 0 0 -2.15674e-06 0 2.55866e-05 0.00011429 0 -4.80346e-05 7.1251e-05 0 -5.72934e-05 2.87833e-05 0 -5.15612e-05 7.91283e-06 0 -4.38652e-05 -1.27244e-06 0 -3.85449e-05 -5.63186e-06 0 -3.39089e-05 -7.64179e-06 0 -3.03207e-05 -8.41448e-06 0 -2.71708e-05 -8.55668e-06 0 -2.44907e-05 -8.32785e-06 0 -2.20948e-05 -7.9293e-06 0 -1.99668e-05 -7.436e-06 0 -1.8043e-05 -6.91929e-06 0 -1.63037e-05 -6.40252e-06 0 -1.47204e-05 -5.90965e-06 0 -1.32764e-05 -5.44704e-06 0 -1.19546e-05 -5.02121e-06 0 -1.07417e-05 -4.63251e-06 0 -9.62523e-06 -4.28129e-06 0 -8.59438e-06 -3.9659e-06 0 -7.63926e-06 -3.68475e-06 0 -6.75094e-06 -3.43577e-06 0 -5.92124e-06 -3.217e-06 0 -5.14263e-06 -3.02651e-06 0 -4.40815e-06 -2.86258e-06 0 -3.7113e-06 -2.72363e-06 0 -3.04602e-06 -2.60833e-06 0 -2.40654e-06 -2.51553e-06 0 -1.78739e-06 -2.4443e-06 0 -1.1833e-06 -2.39393e-06 0 -5.89175e-07 -2.36391e-06 0 0 -2.35394e-06 0 7.67735e-05 0.000113323 0 -7.04242e-05 8.98698e-05 0 -6.87127e-05 2.42253e-05 0 -5.54222e-05 5.19347e-06 0 -4.60814e-05 -3.77597e-06 0 -3.92961e-05 -7.39291e-06 0 -3.43607e-05 -9.03699e-06 0 -3.03754e-05 -9.58299e-06 0 -2.71427e-05 -9.52372e-06 0 -2.43492e-05 -9.19024e-06 0 -2.19338e-05 -8.67787e-06 0 -1.9781e-05 -8.11488e-06 0 -1.78609e-05 -7.52546e-06 0 -1.61251e-05 -6.95519e-06 0 -1.45534e-05 -6.41056e-06 0 -1.31211e-05 -5.90552e-06 0 -1.18129e-05 -5.44051e-06 0 -1.0613e-05 -5.01809e-06 0 -9.5095e-06 -4.63646e-06 0 -8.49087e-06 -4.29446e-06 0 -7.54733e-06 -3.98966e-06 0 -6.66985e-06 -3.71995e-06 0 -5.85031e-06 -3.48302e-06 0 -5.08121e-06 -3.27681e-06 0 -4.35567e-06 -3.09936e-06 0 -3.66725e-06 -2.94898e-06 0 -3.00996e-06 -2.8242e-06 0 -2.37812e-06 -2.72377e-06 0 -1.76632e-06 -2.64669e-06 0 -1.16938e-06 -2.59219e-06 0 -5.82247e-07 -2.55971e-06 0 0 -2.54892e-06 0 4.48432e-07 0.000324933 0 -0.000112447 8.89876e-05 0 -7.34824e-05 1.80844e-05 0 -6.30868e-05 6.04523e-07 0 -4.55567e-05 -6.57026e-06 0 -4.12235e-05 -9.41294e-06 0 -3.39504e-05 -1.05628e-05 0 -3.07617e-05 -1.07895e-05 0 -2.68437e-05 -1.05441e-05 0 -2.42848e-05 -1.00544e-05 0 -2.16813e-05 -9.44329e-06 0 -1.9602e-05 -8.78919e-06 0 -1.76416e-05 -8.13378e-06 0 -1.59368e-05 -7.50231e-06 0 -1.43668e-05 -6.90855e-06 0 -1.29542e-05 -6.35866e-06 0 -1.16581e-05 -5.85556e-06 0 -1.04742e-05 -5.39885e-06 0 -9.38412e-06 -4.98738e-06 0 -8.37912e-06 -4.61879e-06 0 -7.44802e-06 -4.2907e-06 0 -6.58234e-06 -4.00047e-06 0 -5.77377e-06 -3.74566e-06 0 -5.01496e-06 -3.5239e-06 0 -4.29907e-06 -3.33313e-06 0 -3.61975e-06 -3.17148e-06 0 -2.97109e-06 -3.03736e-06 0 -2.34748e-06 -2.92942e-06 0 -1.74361e-06 -2.84658e-06 0 -1.15436e-06 -2.78801e-06 0 -5.74777e-07 -2.7531e-06 0 0 -2.7415e-06 0 0.00102673 0.000785783 0 -0.000123973 5.30605e-05 0 -0.000132447 1.00628e-05 0 -3.61468e-05 -5.7704e-06 0 -6.33004e-05 -9.52564e-06 0 -3.27949e-05 -1.17069e-05 0 -3.88119e-05 -1.21546e-05 0 -2.82024e-05 -1.20586e-05 0 -2.79817e-05 -1.15849e-05 0 -2.34026e-05 -1.09355e-05 0 -2.17938e-05 -1.02101e-05 0 -1.91949e-05 -9.46584e-06 0 -1.75021e-05 -8.73756e-06 0 -1.56798e-05 -8.04643e-06 0 -1.41891e-05 -7.40077e-06 0 -1.27617e-05 -6.80713e-06 0 -1.1497e-05 -6.26509e-06 0 -1.03221e-05 -5.7748e-06 0 -9.25058e-06 -5.3334e-06 0 -8.25861e-06 -4.9387e-06 0 -7.34168e-06 -4.5875e-06 0 -6.48841e-06 -4.27709e-06 0 -5.69174e-06 -4.0046e-06 0 -4.94395e-06 -3.76757e-06 0 -4.2384e-06 -3.56367e-06 0 -3.56885e-06 -3.39093e-06 0 -2.92942e-06 -3.24761e-06 0 -2.31465e-06 -3.13229e-06 0 -1.71927e-06 -3.04378e-06 0 -1.13827e-06 -2.9812e-06 0 -5.66773e-07 -2.9439e-06 0 0 -2.93151e-06 0 -0.00907665 -0.0011136 0 -0.000387391 0.000106054 0 0.000169405 -2.5604e-05 0 -0.00022127 -5.73317e-06 0 3.67741e-05 -1.4905e-05 0 -8.71197e-05 -1.37077e-05 0 -1.00778e-05 -1.37227e-05 0 -4.31073e-05 -1.35681e-05 0 -1.99236e-05 -1.24652e-05 0 -2.71784e-05 -1.19537e-05 0 -1.94722e-05 -1.08947e-05 0 -1.99729e-05 -1.01923e-05 0 -1.67346e-05 -9.30652e-06 0 -1.57037e-05 -8.60305e-06 0 -1.38494e-05 -7.87724e-06 0 -1.26257e-05 -7.25536e-06 0 -1.12906e-05 -6.66584e-06 0 -1.01748e-05 -6.14693e-06 0 -9.10087e-06 -5.67336e-06 0 -8.13297e-06 -5.25425e-06 0 -7.22696e-06 -4.87953e-06 0 -6.3887e-06 -4.54962e-06 0 -5.60413e-06 -4.25954e-06 0 -4.86827e-06 -4.00758e-06 0 -4.17376e-06 -3.79073e-06 0 -3.51457e-06 -3.60712e-06 0 -2.88504e-06 -3.45476e-06 0 -2.27965e-06 -3.33218e-06 0 -1.69335e-06 -3.2381e-06 0 -1.12112e-06 -3.17158e-06 0 -5.58249e-07 -3.13194e-06 0 0 -3.11877e-06 0 </DataArray> 
</PointData> 
<Points> 
<DataArray type="Float32" NumberOfComponents="3"> 