<?xml version="1.0"?> 
<VTKFile type="StructuredGrid" version="0.1"> 
<StructuredGrid WholeExtent="0 31 0 31 0 0"> 
<Piece Extent="0 31 0 31 0 0"> 
<PointData>
<DataArray type="Float32" Name="B" format="ascii" NumberOfComponents="3"> 
-0.0153568 -0.0122786 0 -0.0193867 0.0012735 0 -0.018005 -0.000175713 0 -0.0188359 5.69833e-05 0 -0.0186748 -5.33178e-05 0 -0.0194028 -3.04132e-05 0 -0.0196446 -3.35314e-05 0 -0.0201051 -2.94443e-05 0 -0.0203431 -2.11788e-05 0 -0.020599 -1.77364e-05 0 -0.0207498 -1.16609e-05 0 -0.0208768 -8.82754e-06 0 -0.020954 -5.49861e-06 0 -0.0210097 -3.72275e-06 0 -0.0210419 -2.08757e-06 0 -0.0210613 -1.12437e-06 0 -0.0210695 -3.36247e-07 0 -0.0210705 1.95175e-07 0 -0.0210652 6.27891e-07 0 -0.0210557 9.98862e-07 0 -0.0210406 1.31576e-06 0 -0.021024 1.67187e-06 0 -0.0209977 1.96127e-06 0 -0.0209781 2.38855e-06 0 -0.0209312 2.60757e-06 0 -0.0209236 3.5102e-06 0 -0.0208178 2.92981e-06 0 -0.0208762 7.90948e-06 0 -0.0205583 5.71036e-08 0 -0.0208029 4.29233e-05 0 -0.0198106 -5.28127e-05 0 -0.00485824 0.0028545 0 -0.000741448 -0.0135346 0 0.000916365 0.00120746 0 0.000557833 -0.000184727 0 0.00081603 7.06418e-05 0 0.000662597 -1.19373e-05 0 0.000764887 7.087e-06 0 0.000733156 2.98262e-06 0 0.000770574 -2.26302e-07 0 0.000770229 2.34828e-06 0 0.000785183 -5.90814e-07 0 0.000789599 9.84084e-07 0 0.000796114 -3.46731e-07 0 0.000799372 3.12788e-07 0 0.000802245 -1.80466e-07 0 0.000803891 6.76848e-08 0 0.000805 -9.08804e-08 0 0.000805521 -4.9804e-09 0 0.000805687 -4.02379e-08 0 0.000805442 -2.70627e-08 0 0.000805052 -2.66868e-09 0 0.000804105 -5.18672e-08 0 0.000803475 4.63868e-08 0 0.000801443 -1.07099e-07 0 0.000801335 1.22696e-07 0 0.00079663 -1.60671e-07 0 0.000799633 8.27566e-08 0 0.000786568 2.75662e-07 0 0.000801188 -1.39479e-06 0 0.000760034 4.92136e-06 0 0.000806409 -1.72274e-05 0 0.000693242 8.28973e-05 0 -0.000906769 -0.000813668 0 0.00139382 -0.0115421 0 -0.000172479 0.000966427 0 -6.62591e-05 -0.000134861 0 -8.92103e-05 6.41678e-05 0 -9.09483e-05 -5.55283e-06 0 -0.000105376 5.41193e-06 0 -0.000103898 4.53349e-06 0 -0.000110173 -1.15702e-06 0 -0.000110274 2.855e-06 0 -0.00011255 -1.10668e-06 0 -0.000113056 1.13532e-06 0 -0.000113832 -5.81896e-07 0 -0.000114192 3.44618e-07 0 -0.000114457 -2.69705e-07 0 -0.000114626 7.02918e-08 0 -0.000114701 -1.20772e-07 0 -0.000114739 -5.95455e-09 0 -0.000114717 -5.50332e-08 0 -0.000114665 -2.61463e-08 0 -0.000114559 -2.68908e-08 0 -0.000114437 -4.14253e-08 0 -0.000114226 -1.16e-08 0 -0.000114067 -6.80916e-08 0 -0.000113648 1.0773e-09 0 -0.000113604 -9.72194e-08 0 -0.000112579 -4.17554e-08 0 -0.000113221 1.39018e-08 0 -0.000110142 -6.27825e-07 0 -0.000113134 1.3816e-06 0 -0.00010382 -6.30397e-06 0 -0.000107261 2.89896e-05 0 1.60457e-05 -0.000349591 0 0.000884089 -0.00951429 0 -3.36391e-05 0.000724894 0 5.0429e-06 -0.000108933 0 5.95977e-05 5.85187e-05 0 2.53338e-05 -2.7682e-06 0 4.13087e-05 6.21763e-06 0 2.96087e-05 3.77956e-06 0 3.57038e-05 -4.0714e-07 0 3.22898e-05 2.03811e-06 0 3.46198e-05 -8.04149e-07 0 3.38808e-05 6.47752e-07 0 3.47824e-05 -5.12581e-07 0 3.47541e-05 1.01456e-07 0 3.51119e-05 -2.75888e-07 0 3.51934e-05 -3.63532e-08 0 3.53329e-05 -1.34938e-07 0 3.53831e-05 -4.20347e-08 0 3.54258e-05 -5.71877e-08 0 3.54295e-05 -2.33043e-08 0 3.54246e-05 -1.46766e-08 0 3.53861e-05 -1.13816e-08 0 3.53596e-05 1.27281e-08 0 3.52703e-05 -1.20496e-08 0 3.52554e-05 3.83401e-08 0 3.50541e-05 -1.49264e-08 0 3.51644e-05 4.63919e-08 0 3.45536e-05 7.24848e-08 0 3.52747e-05 -1.75597e-07 0 3.28489e-05 9.54723e-07 0 3.5267e-05 -2.21684e-06 0 2.99598e-05 1.85515e-05 0 -7.75568e-05 -0.000164674 0 0.000736045 -0.0081925 0 -6.36094e-05 0.000634626 0 -4.2615e-05 -0.000108946 0 5.53715e-06 5.64388e-05 0 -1.56605e-05 -8.98359e-07 0 -6.18963e-06 6.98707e-06 0 -1.43422e-05 4.19377e-06 0 -1.1735e-05 -1.65963e-08 0 -1.42007e-05 2.13933e-06 0 -1.34776e-05 -6.79186e-07 0 -1.41141e-05 6.8074e-07 0 -1.38966e-05 -4.8814e-07 0 -1.40194e-05 1.14486e-07 0 -1.39367e-05 -2.77811e-07 0 -1.39392e-05 -3.24917e-08 0 -1.38988e-05 -1.41499e-07 0 -1.38825e-05 -4.43801e-08 0 -1.38577e-05 -6.63516e-08 0 -1.38423e-05 -3.14183e-08 0 -1.38192e-05 -2.9671e-08 0 -1.38077e-05 -2.54676e-08 0 -1.37716e-05 -1.2534e-08 0 -1.37723e-05 -3.22316e-08 0 -1.36978e-05 -1.96432e-09 0 -1.37414e-05 -4.66949e-08 0 -1.35727e-05 -4.54401e-09 0 -1.37494e-05 -2.63704e-08 0 -1.3364e-05 -1.30905e-07 0 -1.39945e-05 4.0049e-07 0 -1.31231e-05 -9.34751e-07 0 -1.20246e-05 6.93711e-06 0 -1.86752e-05 -0.0001076 0 0.000603004 -0.00707932 0 -2.40261e-05 0.000536965 0 -3.40498e-05 -0.000103274 0 1.78513e-05 4.97533e-05 0 1.2557e-07 4.91883e-07 0 1.11325e-05 7.36058e-06 0 4.19618e-06 4.10311e-06 0 7.04167e-06 4.47572e-07 0 5.10752e-06 1.89482e-06 0 5.91837e-06 -4.89781e-07 0 5.4887e-06 5.21124e-07 0 5.75293e-06 -4.38571e-07 0 5.69955e-06 3.01224e-08 0 5.80166e-06 -2.73929e-07 0 5.81807e-06 -7.27767e-08 0 5.86136e-06 -1.45935e-07 0 5.87811e-06 -6.05293e-08 0 5.89547e-06 -6.83552e-08 0 5.90273e-06 -3.36427e-08 0 5.90817e-06 -2.78476e-08 0 5.90681e-06 -1.78334e-08 0 5.90966e-06 -8.34788e-09 0 5.89608e-06 -1.45767e-08 0 5.91103e-06 3.06235e-09 0 5.86102e-06 -1.46394e-08 0 5.92754e-06 6.65063e-09 0 5.74523e-06 3.56288e-08 0 5.96392e-06 -6.31474e-08 0 5.30284e-06 5.79159e-07 0 6.12816e-06 -7.02329e-07 0 6.35218e-06 6.77572e-06 0 -1.64825e-05 -7.58389e-05 0 0.000528747 -0.00618946 0 -1.89501e-05 0.000478733 0 -4.18871e-05 -9.87735e-05 0 4.42512e-06 4.32807e-05 0 -8.86813e-06 1.29196e-06 0 1.60504e-06 7.28216e-06 0 -3.99467e-06 4.27245e-06 0 -1.56757e-06 6.48367e-07 0 -3.27077e-06 1.89298e-06 0 -2.64929e-06 -4.07683e-07 0 -3.10964e-06 5.04589e-07 0 -2.9334e-06 -4.17723e-07 0 -3.0434e-06 1.99515e-08 0 -2.9852e-06 -2.71706e-07 0 -3.00423e-06 -7.81096e-08 0 -2.98142e-06 -1.47676e-07 0 -2.98037e-06 -6.38597e-08 0 -2.96999e-06 -7.08239e-08 0 -2.96669e-06 -3.6981e-08 0 -2.96059e-06 -3.1151e-08 0 -2.95922e-06 -2.24123e-08 0 -2.95231e-06 -1.34198e-08 0 -2.95655e-06 -2.08684e-08 0 -2.94134e-06 -4.82023e-09 0 -2.96521e-06 -2.32704e-08 0 -2.92603e-06 -3.3256e-10 0 -3.02046e-06 1.44869e-08 0 -2.9333e-06 -2.3789e-08 0 -3.2165e-06 4.18939e-07 0 -2.73333e-06 -5.1562e-07 0 -2.46728e-06 3.30611e-06 0 -7.51078e-06 -5.18451e-05 0 0.000479012 -0.00536089 0 -5.32524e-06 0.00041435 0 -3.45627e-05 -8.99193e-05 0 4.59979e-06 3.60523e-05 0 -5.69956e-06 1.59698e-06 0 4.64646e-06 7.00881e-06 0 3.57768e-07 4.18613e-06 0 2.79913e-06 8.94146e-07 0 1.46838e-06 1.77177e-06 0 2.08591e-06 -2.70871e-07 0 1.71565e-06 4.34325e-07 0 1.87057e-06 -3.64584e-07 0 1.77089e-06 -1.30738e-08 0 1.80662e-06 -2.54448e-07 0 1.77995e-06 -9.24137e-08 0 1.78686e-06 -1.42998e-07 0 1.77978e-06 -6.94224e-08 0 1.78066e-06 -6.96799e-08 0 1.77879e-06 -3.81433e-08 0 1.77884e-06 -3.05964e-08 0 1.77793e-06 -2.07143e-08 0 1.77876e-06 -1.28268e-08 0 1.77543e-06 -1.62646e-08 0 1.781e-06 -3.85968e-09 0 1.76291e-06 -1.3673e-08 0 1.78876e-06 4.96347e-09 0 1.7031e-06 3.80351e-08 0 1.81148e-06 2.59667e-09 0 1.53732e-06 4.49882e-07 0 2.22999e-06 -6.20224e-07 0 2.16197e-06 3.70337e-06 0 -6.36104e-06 -4.64569e-05 0 0.00043977 -0.00462422 0 -2.90892e-06 0.000361597 0 -3.4498e-05 -8.05627e-05 0 -1.11518e-07 2.97719e-05 0 -9.79341e-06 1.47834e-06 0 8.42238e-07 6.47251e-06 0 -2.84546e-06 4.02742e-06 0 -2.11441e-07 9.95248e-07 0 -1.42025e-06 1.67703e-06 0 -7.6727e-07 -1.89793e-07 0 -1.14678e-06 3.98274e-07 0 -1.00578e-06 -3.26993e-07 0 -1.13361e-06 -2.17862e-08 0 -1.11704e-06 -2.38704e-07 0 -1.16429e-06 -9.27885e-08 0 -1.17019e-06 -1.36739e-07 0 -1.18845e-06 -6.85761e-08 0 -1.19402e-06 -6.74722e-08 0 -1.20124e-06 -3.78786e-08 0 -1.20366e-06 -3.0174e-08 0 -1.20754e-06 -2.11521e-08 0 -1.20724e-06 -1.32964e-08 0 -1.21294e-06 -1.70625e-08 0 -1.2087e-06 -4.61927e-09 0 -1.22534e-06 -1.44067e-08 0 -1.21164e-06 7.9706e-09 0 -1.26773e-06 3.28833e-08 0 -1.21488e-06 2.93438e-08 0 -1.32679e-06 3.34327e-07 0 -9.28947e-07 -5.14133e-07 0 -1.14921e-06 2.3433e-06 0 -4.60445e-06 -3.34324e-05 0 0.000413842 -0.0039229 0 2.37162e-06 0.000307571 0 -2.89435e-05 -6.98199e-05 0 2.63063e-07 2.40524e-05 0 -8.73555e-06 1.18879e-06 0 1.64308e-06 5.80605e-06 0 -1.22196e-06 3.71857e-06 0 1.52739e-06 1.06366e-06 0 6.09641e-07 1.53199e-06 0 1.2911e-06 -1.01079e-07 0 9.85684e-07 3.49755e-07 0 1.11393e-06 -2.76562e-07 0 9.92356e-07 -3.17341e-08 0 9.89983e-07 -2.1393e-07 0 9.33992e-07 -9.20735e-08 0 9.14186e-07 -1.2553e-07 0 8.87792e-07 -6.64921e-08 0 8.74165e-07 -6.28023e-08 0 8.62266e-07 -3.62358e-08 0 8.55515e-07 -2.84162e-08 0 8.49798e-07 -1.95504e-08 0 8.47323e-07 -1.27723e-08 0 8.41782e-07 -1.45936e-08 0 8.43826e-07 -4.39606e-09 0 8.2904e-07 -9.75814e-09 0 8.4514e-07 1.04707e-08 0 7.93834e-07 3.99596e-08 0 8.80544e-07 3.63882e-08 0 7.67059e-07 2.91217e-07 0 1.22331e-06 -5.10005e-07 0 9.58471e-07 2.28187e-06 0 -3.89382e-06 -2.94997e-05 0 0.000391602 -0.00326763 0 2.83713e-06 0.000257794 0 -2.77785e-05 -5.90326e-05 0 -1.4455e-06 1.91855e-05 0 -1.08403e-05 8.25314e-07 0 -5.24222e-07 5.00289e-06 0 -3.00329e-06 3.31224e-06 0 -6.61551e-08 1.03214e-06 0 -8.34581e-07 1.36629e-06 0 -9.82027e-08 -4.71552e-08 0 -3.82071e-07 3.06546e-07 0 -2.55433e-07 -2.33436e-07 0 -3.89124e-07 -3.2667e-08 0 -4.04267e-07 -1.88219e-07 0 -4.73987e-07 -8.4749e-08 0 -5.03947e-07 -1.12169e-07 0 -5.39064e-07 -6.07658e-08 0 -5.58446e-07 -5.6606e-08 0 -5.74927e-07 -3.31393e-08 0 -5.8438e-07 -2.58136e-08 0 -5.92595e-07 -1.7943e-08 0 -5.96239e-07 -1.17427e-08 0 -6.0346e-07 -1.3234e-08 0 -6.02421e-07 -3.9162e-09 0 -6.1636e-07 -7.97459e-09 0 -6.03968e-07 1.20599e-08 0 -6.38085e-07 3.67886e-08 0 -5.71627e-07 4.11936e-08 0 -6.19122e-07 2.12641e-07 0 -3.45071e-07 -4.14189e-07 0 -6.36174e-07 1.62644e-06 0 -3.27781e-06 -2.19237e-05 0 0.000376335 -0.0026366 0 4.97835e-06 0.000208489 0 -2.44575e-05 -4.80385e-05 0 -8.18126e-07 1.48966e-05 0 -1.03279e-05 5.10605e-07 0 -3.64404e-07 4.13863e-06 0 -2.39441e-06 2.81597e-06 0 6.60161e-07 9.46927e-07 0 1.03312e-07 1.16665e-06 0 8.86682e-07 -4.09316e-09 0 6.59371e-07 2.57743e-07 0 7.86187e-07 -1.86957e-07 0 6.56707e-07 -3.15331e-08 0 6.30458e-07 -1.57575e-07 0 5.53565e-07 -7.47244e-08 0 5.13967e-07 -9.54499e-08 0 4.72326e-07 -5.32099e-08 0 4.47001e-07 -4.86284e-08 0 4.26673e-07 -2.89228e-08 0 4.13963e-07 -2.23815e-08 0 4.03978e-07 -1.54679e-08 0 3.9836e-07 -1.0338e-08 0 3.9072e-07 -1.09407e-08 0 3.90609e-07 -3.40399e-09 0 3.77791e-07 -5.22933e-09 0 3.93186e-07 1.19368e-08 0 3.63994e-07 3.50525e-08 0 4.48826e-07 3.64083e-08 0 3.9075e-07 1.65498e-07 0 6.68277e-07 -3.55116e-07 0 3.90785e-07 1.38931e-06 0 -2.83753e-06 -1.79858e-05 0 0.000363943 -0.00203026 0 4.98472e-06 0.000161059 0 -2.34853e-05 -3.71984e-05 0 -1.33051e-06 1.11294e-05 0 -1.1241e-05 2.6753e-07 0 -1.52843e-06 3.22913e-06 0 -3.33838e-06 2.25307e-06 0 -1.66436e-07 7.95851e-07 0 -5.95259e-07 9.40342e-07 0 2.36407e-07 1.62424e-08 0 3.73445e-08 2.06314e-07 0 1.67487e-07 -1.44116e-07 0 3.41342e-08 -2.67788e-08 0 6.92594e-11 -1.25401e-07 0 -8.52157e-08 -6.11156e-08 0 -1.31946e-07 -7.67898e-08 0 -1.7957e-07 -4.34087e-08 0 -2.09196e-07 -3.93497e-08 0 -2.32813e-07 -2.36049e-08 0 -2.47666e-07 -1.81905e-08 0 -2.59338e-07 -1.26163e-08 0 -2.65974e-07 -8.43189e-09 0 -2.74391e-07 -8.78042e-09 0 -2.75138e-07 -2.63884e-09 0 -2.86524e-07 -3.58514e-09 0 -2.71733e-07 1.08612e-08 0 -2.90038e-07 2.90303e-08 0 -2.13412e-07 3.06389e-08 0 -2.49865e-07 1.1546e-07 0 -5.92158e-08 -2.68769e-07 0 -3.26638e-07 9.91036e-07 0 -2.57246e-06 -1.29831e-05 0 0.00035568 -0.00143871 0 5.80962e-06 0.000114281 0 -2.1835e-05 -2.64416e-05 0 -8.85595e-07 7.70788e-06 0 -1.09868e-05 1.163e-07 0 -1.56381e-06 2.30823e-06 0 -3.17119e-06 1.64166e-06 0 7.68414e-08 6.02961e-07 0 -2.25414e-07 6.89905e-07 0 6.45751e-07 2.40224e-08 0 4.82411e-07 1.50625e-07 0 6.16853e-07 -1.01318e-07 0 4.86205e-07 -2.04476e-08 0 4.4655e-07 -9.07354e-08 0 3.56717e-07 -4.5399e-08 0 3.04334e-07 -5.61051e-08 0 2.52545e-07 -3.21847e-08 0 2.19277e-07 -2.89124e-08 0 1.93151e-07 -1.74911e-08 0 1.76274e-07 -1.34393e-08 0 1.63345e-07 -9.30443e-09 0 1.55526e-07 -6.27892e-09 0 1.46664e-07 -6.33435e-09 0 1.45359e-07 -1.92521e-09 0 1.3477e-07 -2.10415e-09 0 1.51521e-07 8.53147e-09 0 1.37014e-07 2.22201e-08 0 2.20087e-07 2.20443e-08 0 1.75351e-07 7.88271e-08 0 3.59165e-07 -1.94999e-07 0 1.0657e-07 7.20461e-07 0 -2.33846e-06 -9.27676e-06 0 0.000350071 -0.00085909 0 5.78073e-06 6.8342e-05 0 -2.13224e-05 -1.58179e-05 0 -9.89805e-07 4.5348e-06 0 -1.12931e-05 3.66538e-08 0 -2.05427e-06 1.38291e-06 0 -3.57e-06 9.97175e-07 0 -2.67761e-07 3.74527e-07 0 -4.99238e-07 4.21414e-07 0 4.00088e-07 1.88486e-08 0 2.5494e-07 9.1828e-08 0 3.92626e-07 -6.04387e-08 0 2.61348e-07 -1.27032e-08 0 2.18071e-07 -5.50502e-08 0 1.24298e-07 -2.78793e-08 0 6.82632e-08 -3.42234e-08 0 1.34424e-08 -1.97506e-08 0 -2.21089e-08 -1.76848e-08 0 -4.99517e-08 -1.07371e-08 0 -6.80025e-08 -8.23447e-09 0 -8.17945e-08 -5.70908e-09 0 -9.0188e-08 -3.84728e-09 0 -9.93648e-08 -3.85146e-09 0 -1.00949e-07 -1.13576e-09 0 -1.10585e-07 -1.12692e-09 0 -9.36283e-08 5.48868e-09 0 -1.02956e-07 1.36949e-08 0 -2.32991e-08 1.35041e-08 0 -6.25867e-08 4.44226e-08 0 8.8544e-08 -1.14871e-07 0 -1.54543e-07 4.12651e-07 0 -2.2363e-06 -5.33902e-06 0 0.000347445 -0.000285547 0 5.99307e-06 2.27172e-05 0 -2.08313e-05 -5.26145e-06 0 -8.38571e-07 1.49585e-06 0 -1.12149e-05 6.99515e-09 0 -2.08499e-06 4.60815e-07 0 -3.54537e-06 3.34512e-07 0 -2.17816e-07 1.2736e-07 0 -4.07334e-07 1.41784e-07 0 5.06971e-07 7.27995e-09 0 3.74124e-07 3.08638e-08 0 5.13935e-07 -1.99571e-08 0 3.83635e-07 -4.31977e-09 0 3.38666e-07 -1.83945e-08 0 2.4335e-07 -9.41668e-09 0 1.85449e-07 -1.14805e-08 0 1.29201e-07 -6.66924e-09 0 9.24215e-08 -5.94747e-09 0 6.37102e-08 -3.62527e-09 0 4.49729e-08 -2.77799e-09 0 3.07327e-08 -1.92371e-09 0 2.19478e-08 -1.3052e-09 0 1.25968e-08 -1.28655e-09 0 1.08582e-08 -3.86566e-10 0 1.52043e-09 -3.38519e-10 0 1.91614e-08 1.87453e-09 0 1.12072e-08 4.68892e-09 0 9.2165e-08 4.42965e-09 0 5.00326e-08 1.48006e-08 0 1.97912e-07 -3.90096e-08 0 -3.97367e-08 1.42764e-07 0 -2.16366e-06 -1.82592e-06 0 0.000347445 0.000285547 0 5.99307e-06 -2.27172e-05 0 -2.08313e-05 5.26145e-06 0 -8.38571e-07 -1.49585e-06 0 -1.12149e-05 -6.99515e-09 0 -2.08499e-06 -4.60815e-07 0 -3.54537e-06 -3.34512e-07 0 -2.17816e-07 -1.2736e-07 0 -4.07334e-07 -1.41784e-07 0 5.06971e-07 -7.27995e-09 0 3.74124e-07 -3.08638e-08 0 5.13935e-07 1.99571e-08 0 3.83635e-07 4.31977e-09 0 3.38666e-07 1.83945e-08 0 2.4335e-07 9.41668e-09 0 1.85449e-07 1.14805e-08 0 1.29201e-07 6.66924e-09 0 9.24215e-08 5.94747e-09 0 6.37102e-08 3.62527e-09 0 4.49729e-08 2.77799e-09 0 3.07327e-08 1.92371e-09 0 2.19478e-08 1.3052e-09 0 1.25968e-08 1.28655e-09 0 1.08582e-08 3.86566e-10 0 1.52043e-09 3.38519e-10 0 1.91614e-08 -1.87453e-09 0 1.12072e-08 -4.68892e-09 0 9.2165e-08 -4.42965e-09 0 5.00326e-08 -1.48006e-08 0 1.97912e-07 3.90096e-08 0 -3.97367e-08 -1.42764e-07 0 -2.16366e-06 1.82592e-06 0 0.000350071 0.00085909 0 5.78073e-06 -6.8342e-05 0 -2.13224e-05 1.58179e-05 0 -9.89805e-07 -4.5348e-06 0 -1.12931e-05 -3.66538e-08 0 -2.05427e-06 -1.38291e-06 0 -3.57e-06 -9.97175e-07 0 -2.67761e-07 -3.74527e-07 0 -4.99238e-07 -4.21414e-07 0 4.00088e-07 -1.88486e-08 0 2.5494e-07 -9.1828e-08 0 3.92626e-07 6.04387e-08 0 2.61348e-07 1.27032e-08 0 2.18071e-07 5.50502e-08 0 1.24298e-07 2.78793e-08 0 6.82632e-08 3.42234e-08 0 1.34424e-08 1.97506e-08 0 -2.21089e-08 1.76848e-08 0 -4.99517e-08 1.07371e-08 0 -6.80025e-08 8.23447e-09 0 -8.17945e-08 5.70908e-09 0 -9.0188e-08 3.84728e-09 0 -9.93648e-08 3.85146e-09 0 -1.00949e-07 1.13576e-09 0 -1.10585e-07 1.12692e-09 0 -9.36283e-08 -5.48868e-09 0 -1.02956e-07 -1.36949e-08 0 -2.32991e-08 -1.35041e-08 0 -6.25867e-08 -4.44226e-08 0 8.8544e-08 1.14871e-07 0 -1.54543e-07 -4.12651e-07 0 -2.2363e-06 5.33902e-06 0 0.00035568 0.00143871 0 5.80962e-06 -0.000114281 0 -2.1835e-05 2.64416e-05 0 -8.85595e-07 -7.70788e-06 0 -1.09868e-05 -1.163e-07 0 -1.56381e-06 -2.30823e-06 0 -3.17119e-06 -1.64166e-06 0 7.68414e-08 -6.02961e-07 0 -2.25414e-07 -6.89905e-07 0 6.45751e-07 -2.40224e-08 0 4.82411e-07 -1.50625e-07 0 6.16853e-07 1.01318e-07 0 4.86205e-07 2.04476e-08 0 4.4655e-07 9.07354e-08 0 3.56717e-07 4.5399e-08 0 3.04334e-07 5.61051e-08 0 2.52545e-07 3.21847e-08 0 2.19277e-07 2.89124e-08 0 1.93151e-07 1.74911e-08 0 1.76274e-07 1.34393e-08 0 1.63345e-07 9.30443e-09 0 1.55526e-07 6.27892e-09 0 1.46664e-07 6.33435e-09 0 1.45359e-07 1.92521e-09 0 1.3477e-07 2.10415e-09 0 1.51521e-07 -8.53147e-09 0 1.37014e-07 -2.22201e-08 0 2.20087e-07 -2.20443e-08 0 1.75351e-07 -7.88271e-08 0 3.59165e-07 1.94999e-07 0 1.0657e-07 -7.20461e-07 0 -2.33846e-06 9.27676e-06 0 0.000363943 0.00203026 0 4.98472e-06 -0.000161059 0 -2.34853e-05 3.71984e-05 0 -1.33051e-06 -1.11294e-05 0 -1.1241e-05 -2.6753e-07 0 -1.52843e-06 -3.22913e-06 0 -3.33838e-06 -2.25307e-06 0 -1.66436e-07 -7.95851e-07 0 -5.95259e-07 -9.40342e-07 0 2.36407e-07 -1.62424e-08 0 3.73445e-08 -2.06314e-07 0 1.67487e-07 1.44116e-07 0 3.41342e-08 2.67788e-08 0 6.92594e-11 1.25401e-07 0 -8.52157e-08 6.11156e-08 0 -1.31946e-07 7.67898e-08 0 -1.7957e-07 4.34087e-08 0 -2.09196e-07 3.93497e-08 0 -2.32813e-07 2.36049e-08 0 -2.47666e-07 1.81905e-08 0 -2.59338e-07 1.26163e-08 0 -2.65974e-07 8.43189e-09 0 -2.74391e-07 8.78042e-09 0 -2.75138e-07 2.63884e-09 0 -2.86524e-07 3.58514e-09 0 -2.71733e-07 -1.08612e-08 0 -2.90038e-07 -2.90303e-08 0 -2.13412e-07 -3.06389e-08 0 -2.49865e-07 -1.1546e-07 0 -5.92158e-08 2.68769e-07 0 -3.26638e-07 -9.91036e-07 0 -2.57246e-06 1.29831e-05 0 0.000376335 0.0026366 0 4.97835e-06 -0.000208489 0 -2.44575e-05 4.80385e-05 0 -8.18126e-07 -1.48966e-05 0 -1.03279e-05 -5.10605e-07 0 -3.64404e-07 -4.13863e-06 0 -2.39441e-06 -2.81597e-06 0 6.60161e-07 -9.46927e-07 0 1.03312e-07 -1.16665e-06 0 8.86682e-07 4.09316e-09 0 6.59371e-07 -2.57743e-07 0 7.86187e-07 1.86957e-07 0 6.56707e-07 3.15331e-08 0 6.30458e-07 1.57575e-07 0 5.53565e-07 7.47244e-08 0 5.13967e-07 9.54499e-08 0 4.72326e-07 5.32099e-08 0 4.47001e-07 4.86284e-08 0 4.26673e-07 2.89228e-08 0 4.13963e-07 2.23815e-08 0 4.03978e-07 1.54679e-08 0 3.9836e-07 1.0338e-08 0 3.9072e-07 1.09407e-08 0 3.90609e-07 3.40399e-09 0 3.77791e-07 5.22933e-09 0 3.93186e-07 -1.19368e-08 0 3.63994e-07 -3.50525e-08 0 4.48826e-07 -3.64083e-08 0 3.9075e-07 -1.65498e-07 0 6.68277e-07 3.55116e-07 0 3.90785e-07 -1.38931e-06 0 -2.83753e-06 1.79858e-05 0 0.000391602 0.00326763 0 2.83713e-06 -0.000257794 0 -2.77785e-05 5.90326e-05 0 -1.4455e-06 -1.91855e-05 0 -1.08403e-05 -8.25314e-07 0 -5.24222e-07 -5.00289e-06 0 -3.00329e-06 -3.31224e-06 0 -6.61551e-08 -1.03214e-06 0 -8.34581e-07 -1.36629e-06 0 -9.82027e-08 4.71552e-08 0 -3.82071e-07 -3.06546e-07 0 -2.55433e-07 2.33436e-07 0 -3.89124e-07 3.2667e-08 0 -4.04267e-07 1.88219e-07 0 -4.73987e-07 8.4749e-08 0 -5.03947e-07 1.12169e-07 0 -5.39064e-07 6.07658e-08 0 -5.58446e-07 5.6606e-08 0 -5.74927e-07 3.31393e-08 0 -5.8438e-07 2.58136e-08 0 -5.92595e-07 1.7943e-08 0 -5.96239e-07 1.17427e-08 0 -6.0346e-07 1.3234e-08 0 -6.02421e-07 3.9162e-09 0 -6.1636e-07 7.97459e-09 0 -6.03968e-07 -1.20599e-08 0 -6.38085e-07 -3.67886e-08 0 -5.71627e-07 -4.11936e-08 0 -6.19122e-07 -2.12641e-07 0 -3.45071e-07 4.14189e-07 0 -6.36174e-07 -1.62644e-06 0 -3.27781e-06 2.19237e-05 0 0.000413842 0.0039229 0 2.37162e-06 -0.000307571 0 -2.89435e-05 6.98199e-05 0 2.63063e-07 -2.40524e-05 0 -8.73555e-06 -1.18879e-06 0 1.64308e-06 -5.80605e-06 0 -1.22196e-06 -3.71857e-06 0 1.52739e-06 -1.06366e-06 0 6.09641e-07 -1.53199e-06 0 1.2911e-06 1.01079e-07 0 9.85684e-07 -3.49755e-07 0 1.11393e-06 2.76562e-07 0 9.92356e-07 3.17341e-08 0 9.89983e-07 2.1393e-07 0 9.33992e-07 9.20735e-08 0 9.14186e-07 1.2553e-07 0 8.87792e-07 6.64921e-08 0 8.74165e-07 6.28023e-08 0 8.62266e-07 3.62358e-08 0 8.55515e-07 2.84162e-08 0 8.49798e-07 1.95504e-08 0 8.47323e-07 1.27723e-08 0 8.41782e-07 1.45936e-08 0 8.43826e-07 4.39606e-09 0 8.2904e-07 9.75814e-09 0 8.4514e-07 -1.04707e-08 0 7.93834e-07 -3.99596e-08 0 8.80544e-07 -3.63882e-08 0 7.67059e-07 -2.91217e-07 0 1.22331e-06 5.10005e-07 0 9.58471e-07 -2.28187e-06 0 -3.89382e-06 2.94997e-05 0 0.00043977 0.00462422 0 -2.90892e-06 -0.000361597 0 -3.4498e-05 8.05627e-05 0 -1.11518e-07 -2.97719e-05 0 -9.79341e-06 -1.47834e-06 0 8.42238e-07 -6.47251e-06 0 -2.84546e-06 -4.02742e-06 0 -2.11441e-07 -9.95248e-07 0 -1.42025e-06 -1.67703e-06 0 -7.6727e-07 1.89793e-07 0 -1.14678e-06 -3.98274e-07 0 -1.00578e-06 3.26993e-07 0 -1.13361e-06 2.17862e-08 0 -1.11704e-06 2.38704e-07 0 -1.16429e-06 9.27885e-08 0 -1.17019e-06 1.36739e-07 0 -1.18845e-06 6.85761e-08 0 -1.19402e-06 6.74722e-08 0 -1.20124e-06 3.78786e-08 0 -1.20366e-06 3.0174e-08 0 -1.20754e-06 2.11521e-08 0 -1.20724e-06 1.32964e-08 0 -1.21294e-06 1.70625e-08 0 -1.2087e-06 4.61927e-09 0 -1.22534e-06 1.44067e-08 0 -1.21164e-06 -7.9706e-09 0 -1.26773e-06 -3.28833e-08 0 -1.21488e-06 -2.93438e-08 0 -1.32679e-06 -3.34327e-07 0 -9.28947e-07 5.14133e-07 0 -1.14921e-06 -2.3433e-06 0 -4.60445e-06 3.34324e-05 0 0.000479012 0.00536089 0 -5.32524e-06 -0.00041435 0 -3.45627e-05 8.99193e-05 0 4.59979e-06 -3.60523e-05 0 -5.69956e-06 -1.59698e-06 0 4.64646e-06 -7.00881e-06 0 3.57768e-07 -4.18613e-06 0 2.79913e-06 -8.94146e-07 0 1.46838e-06 -1.77177e-06 0 2.08591e-06 2.70871e-07 0 1.71565e-06 -4.34325e-07 0 1.87057e-06 3.64584e-07 0 1.77089e-06 1.30738e-08 0 1.80662e-06 2.54448e-07 0 1.77995e-06 9.24137e-08 0 1.78686e-06 1.42998e-07 0 1.77978e-06 6.94224e-08 0 1.78066e-06 6.96799e-08 0 1.77879e-06 3.81433e-08 0 1.77884e-06 3.05964e-08 0 1.77793e-06 2.07143e-08 0 1.77876e-06 1.28268e-08 0 1.77543e-06 1.62646e-08 0 1.781e-06 3.85968e-09 0 1.76291e-06 1.3673e-08 0 1.78876e-06 -4.96347e-09 0 1.7031e-06 -3.80351e-08 0 1.81148e-06 -2.59667e-09 0 1.53732e-06 -4.49882e-07 0 2.22999e-06 6.20224e-07 0 2.16197e-06 -3.70337e-06 0 -6.36104e-06 4.64569e-05 0 0.000528747 0.00618946 0 -1.89501e-05 -0.000478733 0 -4.18871e-05 9.87735e-05 0 4.42512e-06 -4.32807e-05 0 -8.86813e-06 -1.29196e-06 0 1.60504e-06 -7.28216e-06 0 -3.99467e-06 -4.27245e-06 0 -1.56757e-06 -6.48367e-07 0 -3.27077e-06 -1.89298e-06 0 -2.64929e-06 4.07683e-07 0 -3.10964e-06 -5.04589e-07 0 -2.9334e-06 4.17723e-07 0 -3.0434e-06 -1.99515e-08 0 -2.9852e-06 2.71706e-07 0 -3.00423e-06 7.81096e-08 0 -2.98142e-06 1.47676e-07 0 -2.98037e-06 6.38597e-08 0 -2.96999e-06 7.08239e-08 0 -2.96669e-06 3.6981e-08 0 -2.96059e-06 3.1151e-08 0 -2.95922e-06 2.24123e-08 0 -2.95231e-06 1.34198e-08 0 -2.95655e-06 2.08684e-08 0 -2.94134e-06 4.82023e-09 0 -2.96521e-06 2.32704e-08 0 -2.92603e-06 3.3256e-10 0 -3.02046e-06 -1.44869e-08 0 -2.9333e-06 2.3789e-08 0 -3.2165e-06 -4.18939e-07 0 -2.73333e-06 5.1562e-07 0 -2.46728e-06 -3.30611e-06 0 -7.51078e-06 5.18451e-05 0 0.000603004 0.00707932 0 -2.40261e-05 -0.000536965 0 -3.40498e-05 0.000103274 0 1.78513e-05 -4.97533e-05 0 1.2557e-07 -4.91883e-07 0 1.11325e-05 -7.36058e-06 0 4.19618e-06 -4.10311e-06 0 7.04167e-06 -4.47572e-07 0 5.10752e-06 -1.89482e-06 0 5.91837e-06 4.89781e-07 0 5.4887e-06 -5.21124e-07 0 5.75293e-06 4.38571e-07 0 5.69955e-06 -3.01224e-08 0 5.80166e-06 2.73929e-07 0 5.81807e-06 7.27767e-08 0 5.86136e-06 1.45935e-07 0 5.87811e-06 6.05293e-08 0 5.89547e-06 6.83552e-08 0 5.90273e-06 3.36427e-08 0 5.90817e-06 2.78476e-08 0 5.90681e-06 1.78334e-08 0 5.90966e-06 8.34788e-09 0 5.89608e-06 1.45767e-08 0 5.91103e-06 -3.06235e-09 0 5.86102e-06 1.46394e-08 0 5.92754e-06 -6.65063e-09 0 5.74523e-06 -3.56288e-08 0 5.96392e-06 6.31474e-08 0 5.30284e-06 -5.79159e-07 0 6.12816e-06 7.02329e-07 0 6.35218e-06 -6.77572e-06 0 -1.64825e-05 7.58389e-05 0 0.000736045 0.0081925 0 -6.36094e-05 -0.000634626 0 -4.2615e-05 0.000108946 0 5.53715e-06 -5.64388e-05 0 -1.56605e-05 8.98359e-07 0 -6.18963e-06 -6.98707e-06 0 -1.43422e-05 -4.19377e-06 0 -1.1735e-05 1.65963e-08 0 -1.42007e-05 -2.13933e-06 0 -1.34776e-05 6.79186e-07 0 -1.41141e-05 -6.8074e-07 0 -1.38966e-05 4.8814e-07 0 -1.40194e-05 -1.14486e-07 0 -1.39367e-05 2.77811e-07 0 -1.39392e-05 3.24917e-08 0 -1.38988e-05 1.41499e-07 0 -1.38825e-05 4.43801e-08 0 -1.38577e-05 6.63516e-08 0 -1.38423e-05 3.14183e-08 0 -1.38192e-05 2.9671e-08 0 -1.38077e-05 2.54676e-08 0 -1.37716e-05 1.2534e-08 0 -1.37723e-05 3.22316e-08 0 -1.36978e-05 1.96432e-09 0 -1.37414e-05 4.66949e-08 0 -1.35727e-05 4.54401e-09 0 -1.37494e-05 2.63704e-08 0 -1.3364e-05 1.30905e-07 0 -1.39945e-05 -4.0049e-07 0 -1.31231e-05 9.34751e-07 0 -1.20246e-05 -6.93711e-06 0 -1.86752e-05 0.0001076 0 0.000884089 0.00951429 0 -3.36391e-05 -0.000724894 0 5.0429e-06 0.000108933 0 5.95977e-05 -5.85187e-05 0 2.53338e-05 2.7682e-06 0 4.13087e-05 -6.21763e-06 0 2.96087e-05 -3.77956e-06 0 3.57038e-05 4.0714e-07 0 3.22898e-05 -2.03811e-06 0 3.46198e-05 8.04149e-07 0 3.38808e-05 -6.47752e-07 0 3.47824e-05 5.12581e-07 0 3.47541e-05 -1.01456e-07 0 3.51119e-05 2.75888e-07 0 3.51934e-05 3.63532e-08 0 3.53329e-05 1.34938e-07 0 3.53831e-05 4.20347e-08 0 3.54258e-05 5.71877e-08 0 3.54295e-05 2.33043e-08 0 3.54246e-05 1.46766e-08 0 3.53861e-05 1.13816e-08 0 3.53596e-05 -1.27281e-08 0 3.52703e-05 1.20496e-08 0 3.52554e-05 -3.83401e-08 0 3.50541e-05 1.49264e-08 0 3.51644e-05 -4.63919e-08 0 3.45536e-05 -7.24848e-08 0 3.52747e-05 1.75597e-07 0 3.28489e-05 -9.54723e-07 0 3.5267e-05 2.21684e-06 0 2.99598e-05 -1.85515e-05 0 -7.75568e-05 0.000164674 0 0.00139382 0.0115421 0 -0.000172479 -0.000966427 0 -6.62591e-05 0.000134861 0 -8.92103e-05 -6.41678e-05 0 -9.09483e-05 5.55283e-06 0 -0.000105376 -5.41193e-06 0 -0.000103898 -4.53349e-06 0 -0.000110173 1.15702e-06 0 -0.000110274 -2.855e-06 0 -0.00011255 1.10668e-06 0 -0.000113056 -1.13532e-06 0 -0.000113832 5.81896e-07 0 -0.000114192 -3.44618e-07 0 -0.000114457 2.69705e-07 0 -0.000114626 -7.02918e-08 0 -0.000114701 1.20772e-07 0 -0.000114739 5.95455e-09 0 -0.000114717 5.50332e-08 0 -0.000114665 2.61463e-08 0 -0.000114559 2.68908e-08 0 -0.000114437 4.14253e-08 0 -0.000114226 1.16e-08 0 -0.000114067 6.80916e-08 0 -0.000113648 -1.0773e-09 0 -0.000113604 9.72194e-08 0 -0.000112579 4.17554e-08 0 -0.000113221 -1.39018e-08 0 -0.000110142 6.27825e-07 0 -0.000113134 -1.3816e-06 0 -0.00010382 6.30397e-06 0 -0.000107261 -2.89896e-05 0 1.60457e-05 0.000349591 0 -0.000741448 0.0135346 0 0.000916365 -0.00120746 0 0.000557833 0.000184727 0 0.00081603 -7.06418e-05 0 0.000662597 1.19373e-05 0 0.000764887 -7.087e-06 0 0.000733156 -2.98262e-06 0 0.000770574 2.26302e-07 0 0.000770229 -2.34828e-06 0 0.000785183 5.90814e-07 0 0.000789599 -9.84084e-07 0 0.000796114 3.46731e-07 0 0.000799372 -3.12788e-07 0 0.000802245 1.80466e-07 0 0.000803891 -6.76848e-08 0 0.000805 9.08804e-08 0 0.000805521 4.9804e-09 0 0.000805687 4.02379e-08 0 0.000805442 2.70627e-08 0 0.000805052 2.66868e-09 0 0.000804105 5.18672e-08 0 0.000803475 -4.63868e-08 0 0.000801443 1.07099e-07 0 0.000801335 -1.22696e-07 0 0.00079663 1.60671e-07 0 0.000799633 -8.27566e-08 0 0.000786568 -2.75662e-07 0 0.000801188 1.39479e-06 0 0.000760034 -4.92136e-06 0 0.000806409 1.72274e-05 0 0.000693242 -8.28973e-05 0 -0.000906769 0.000813668 0 -0.0153568 0.0122786 0 -0.0193867 -0.0012735 0 -0.018005 0.000175713 0 -0.0188359 -5.69833e-05 0 -0.0186748 5.33178e-05 0 -0.0194028 3.04132e-05 0 -0.0196446 3.35314e-05 0 -0.0201051 2.94443e-05 0 -0.0203431 2.11788e-05 0 -0.020599 1.77364e-05 0 -0.0207498 1.16609e-05 0 -0.0208768 8.82754e-06 0 -0.020954 5.49861e-06 0 -0.0210097 3.72275e-06 0 -0.0210419 2.08757e-06 0 -0.0210613 1.12437e-06 0 -0.0210695 3.36247e-07 0 -0.0210705 -1.95175e-07 0 -0.0210652 -6.27891e-07 0 -0.0210557 -9.98862e-07 0 -0.0210406 -1.31576e-06 0 -0.021024 -1.67187e-06 0 -0.0209977 -1.96127e-06 0 -0.0209781 -2.38855e-06 0 -0.0209312 -2.60757e-06 0 -0.0209236 -3.5102e-06 0 -0.0208178 -2.92981e-06 0 -0.0208762 -7.90948e-06 0 -0.0205583 -5.71036e-08 0 -0.0208029 -4.29233e-05 0 -0.0198106 5.28127e-05 0 -0.00485824 -0.0028545 0 </DataArray> 
</PointData> 
<Points> 
<DataArray type="Float32" NumberOfComponents="3"> 