<?xml version="1.0"?> 
<VTKFile type="StructuredGrid" version="0.1"> 
<StructuredGrid WholeExtent="0 31 0 31 0 0"> 
<Piece Extent="0 31 0 31 0 0"> 
<PointData>
<DataArray type="Float32" Name="B" format="ascii" NumberOfComponents="3"> 
0.0063257 -0.00154096 0 0.00419842 -0.000279256 0 0.00475301 3.48998e-05 0 0.00271099 -1.79692e-05 0 0.00372039 -3.87421e-06 0 0.0031921 -5.27811e-06 0 0.00355498 -7.09195e-06 0 0.00344782 -3.48793e-06 0 0.00357239 -5.22993e-06 0 0.00355951 -2.56568e-06 0 0.00359936 -3.14801e-06 0 0.00359921 -1.68267e-06 0 0.00360904 -1.69105e-06 0 0.00360761 -9.42635e-07 0 0.00360793 -7.86819e-07 0 0.00360575 -3.89086e-07 0 0.00360437 -2.23074e-07 0 0.00360324 3.16308e-08 0 0.00360295 1.65339e-07 0 0.00360395 4.00928e-07 0 0.00360541 4.69809e-07 0 0.00360951 8.0064e-07 0 0.00361202 7.32038e-07 0 0.003622 1.31953e-06 0 0.0036225 1.07797e-06 0 0.00364881 2.03551e-06 0 0.00363805 2.38568e-06 0 0.00371777 2.82274e-06 0 0.00367655 1.03474e-05 0 0.00394502 1.4515e-06 0 0.00415344 0.000132363 0 0.00460113 -0.000145081 0 -0.00275671 -0.00516561 0 -0.0013617 0.000427891 0 -0.00145693 -4.27848e-05 0 -0.00123866 2.57991e-05 0 -0.00137967 -7.84075e-07 0 -0.00134594 4.72408e-06 0 -0.00140657 2.10197e-06 0 -0.00141617 1.39491e-06 0 -0.00144306 1.25434e-06 0 -0.00145461 5.13436e-07 0 -0.00146643 5.24401e-07 0 -0.00147291 1.68693e-07 0 -0.00147764 1.69785e-07 0 -0.00148028 3.1633e-08 0 -0.0014818 3.04689e-08 0 -0.00148249 -1.30995e-08 0 -0.00148269 -1.82411e-08 0 -0.00148258 -2.08818e-08 0 -0.00148227 -4.22292e-08 0 -0.00148186 -1.11953e-08 0 -0.00148132 -7.67888e-08 0 -0.00148079 2.15178e-08 0 -0.00148004 -1.44764e-07 0 -0.00147957 8.45086e-08 0 -0.00147839 -2.06264e-07 0 -0.0014788 4.95791e-09 0 -0.00147621 2.96092e-07 0 -0.00148089 -1.78059e-06 0 -0.00147279 5.62259e-06 0 -0.00149402 -2.05581e-05 0 -0.00149513 9.76615e-05 0 -0.0012251 -0.00111246 0 0.000458424 -0.00593658 0 0.000244251 0.000452929 0 0.000358802 -4.34094e-05 0 0.000274015 3.17986e-05 0 0.000314749 -1.27325e-06 0 0.000292761 2.60998e-06 0 0.000311626 1.49271e-06 0 0.000308902 -8.17794e-07 0 0.000316949 6.80986e-07 0 0.000318262 -7.93605e-07 0 0.000321643 1.24491e-07 0 0.000322916 -4.51018e-07 0 0.000324271 -4.40625e-08 0 0.000324919 -2.15496e-07 0 0.000325393 -5.34717e-08 0 0.000325614 -8.82592e-08 0 0.000325716 -2.83861e-08 0 0.000325732 -2.48044e-08 0 0.000325675 -9.13369e-09 0 0.000325617 8.72753e-09 0 0.000325452 -3.43323e-09 0 0.00032543 3.3637e-08 0 0.000325056 -1.11261e-08 0 0.000325349 5.88733e-08 0 0.000324265 -2.01647e-08 0 0.000325938 4.16904e-08 0 0.00032223 8.77551e-08 0 0.000329155 -4.08198e-07 0 0.000316192 1.24446e-06 0 0.000338994 -4.76466e-06 0 0.000312294 2.72127e-05 0 7.42015e-06 -0.000241835 0 0.000323113 -0.00489807 0 -0.000141323 0.00031584 0 -8.729e-05 -3.7699e-05 0 -6.37516e-05 3.07069e-05 0 -7.91631e-05 1.93839e-06 0 -7.61587e-05 4.81376e-06 0 -8.3096e-05 2.94181e-06 0 -8.27209e-05 8.07483e-07 0 -8.55225e-05 1.42042e-06 0 -8.56807e-05 6.32965e-08 0 -8.67001e-05 4.66603e-07 0 -8.68404e-05 -8.12967e-08 0 -8.71541e-05 8.65791e-08 0 -8.72025e-05 -8.84828e-08 0 -8.72674e-05 -2.13704e-08 0 -8.72607e-05 -6.41042e-08 0 -8.72499e-05 -3.6979e-08 0 -8.72214e-05 -4.02603e-08 0 -8.71909e-05 -3.47498e-08 0 -8.71535e-05 -2.39299e-08 0 -8.71151e-05 -4.03453e-08 0 -8.70709e-05 -1.02477e-08 0 -8.70188e-05 -6.13013e-08 0 -8.69768e-05 8.11781e-09 0 -8.68946e-05 -8.26329e-08 0 -8.68909e-05 -8.21375e-09 0 -8.67863e-05 5.06158e-08 0 -8.68676e-05 -4.71921e-07 0 -8.71684e-05 1.55694e-06 0 -8.78299e-05 -4.61047e-06 0 -8.7722e-05 3.05882e-05 0 -9.63258e-05 -0.000363865 0 0.000384102 -0.00455497 0 -2.05157e-05 0.000312732 0 6.8542e-06 -4.67757e-05 0 2.64377e-05 3.18593e-05 0 2.05171e-05 1.41668e-06 0 2.30242e-05 4.52291e-06 0 2.0432e-05 2.28974e-06 0 2.14001e-05 2.04694e-07 0 2.08141e-05 9.19547e-07 0 2.12655e-05 -3.68147e-07 0 2.12526e-05 1.79455e-07 0 2.14721e-05 -3.13535e-07 0 2.15492e-05 -4.71315e-08 0 2.16541e-05 -1.90021e-07 0 2.17084e-05 -7.0249e-08 0 2.17543e-05 -9.70198e-08 0 2.17785e-05 -4.49477e-08 0 2.17959e-05 -4.19855e-08 0 2.18003e-05 -2.2732e-08 0 2.18087e-05 -1.33769e-08 0 2.1797e-05 -1.42755e-08 0 2.18159e-05 2.1618e-09 0 2.17731e-05 -1.89394e-08 0 2.18426e-05 1.53607e-08 0 2.17056e-05 -2.98293e-08 0 2.19398e-05 2.24305e-08 0 2.14838e-05 -3.91281e-09 0 2.22177e-05 -5.37502e-08 0 2.05589e-05 4.76964e-07 0 2.27091e-05 -2.54507e-07 0 2.24316e-05 7.2081e-06 0 -2.86326e-05 -9.05625e-05 0 0.000325466 -0.00387416 0 -2.68476e-05 0.000254144 0 -2.35833e-05 -4.65937e-05 0 4.27035e-06 2.79853e-05 0 -2.80263e-06 2.77761e-06 0 1.86112e-06 5.30874e-06 0 -1.48702e-06 2.87051e-06 0 -4.82508e-07 8.82778e-07 0 -1.44345e-06 1.17378e-06 0 -1.1845e-06 -2.80313e-08 0 -1.3943e-06 2.88336e-07 0 -1.30368e-06 -1.75227e-07 0 -1.32297e-06 -9.23799e-09 0 -1.27899e-06 -1.44921e-07 0 -1.26403e-06 -6.39628e-08 0 -1.24041e-06 -8.92313e-08 0 -1.22703e-06 -5.08018e-08 0 -1.21483e-06 -4.81579e-08 0 -1.20776e-06 -3.31758e-08 0 -1.20075e-06 -2.60358e-08 0 -1.19971e-06 -2.74982e-08 0 -1.19049e-06 -1.6015e-08 0 -1.20092e-06 -3.45528e-08 0 -1.17434e-06 -8.78007e-09 0 -1.22446e-06 -4.24573e-08 0 -1.14362e-06 -9.71574e-09 0 -1.3399e-06 3.10977e-08 0 -1.13649e-06 -1.26586e-07 0 -1.85339e-06 8.76857e-07 0 -1.03372e-06 -1.24585e-06 0 -1.36196e-07 1.03429e-05 0 -2.385e-05 -0.000144882 0 0.000300448 -0.00347531 0 -2.02731e-05 0.000236752 0 -2.70936e-05 -4.7385e-05 0 -2.23977e-06 2.45627e-05 0 -6.88981e-06 2.64819e-06 0 -2.09105e-06 5.02502e-06 0 -4.67517e-06 2.72314e-06 0 -3.77315e-06 7.52382e-07 0 -4.60674e-06 1.01917e-06 0 -4.41341e-06 -1.32135e-07 0 -4.64554e-06 1.92303e-07 0 -4.59457e-06 -2.3819e-07 0 -4.65077e-06 -5.5952e-08 0 -4.63131e-06 -1.74649e-07 0 -4.64013e-06 -8.21582e-08 0 -4.6298e-06 -9.95151e-08 0 -4.62769e-06 -5.48386e-08 0 -4.62097e-06 -4.8747e-08 0 -4.61743e-06 -3.02785e-08 0 -4.61135e-06 -2.21655e-08 0 -4.60907e-06 -2.00286e-08 0 -4.5997e-06 -1.06623e-08 0 -4.6035e-06 -2.17425e-08 0 -4.58192e-06 -3.7604e-09 0 -4.61252e-06 -2.35963e-08 0 -4.55727e-06 6.72023e-09 0 -4.69457e-06 3.43098e-08 0 -4.56409e-06 2.35968e-08 0 -4.99924e-06 5.91257e-07 0 -4.19202e-06 -3.37646e-07 0 -3.64847e-06 3.78455e-06 0 -1.37052e-05 -5.84041e-05 0 0.000276801 -0.00299133 0 -4.04523e-06 0.000202544 0 -1.68553e-05 -4.40625e-05 0 4.04471e-06 2.02388e-05 0 8.60824e-07 2.79107e-06 0 6.12227e-06 4.99076e-06 0 4.37502e-06 2.86038e-06 0 5.5296e-06 9.99762e-07 0 4.98432e-06 1.07602e-06 0 5.28029e-06 7.63151e-09 0 5.14335e-06 2.16276e-07 0 5.22452e-06 -1.78014e-07 0 5.19396e-06 -4.72004e-08 0 5.21563e-06 -1.52946e-07 0 5.20908e-06 -8.07269e-08 0 5.21396e-06 -9.39836e-08 0 5.21187e-06 -5.65867e-08 0 5.21197e-06 -4.95969e-08 0 5.20988e-06 -3.34053e-08 0 5.20858e-06 -2.5863e-08 0 5.20461e-06 -2.40103e-08 0 5.20404e-06 -1.62813e-08 0 5.19364e-06 -2.62072e-08 0 5.19987e-06 -1.05635e-08 0 5.1638e-06 -2.55672e-08 0 5.19755e-06 2.56921e-09 0 5.05806e-06 5.28072e-08 0 5.19775e-06 2.15706e-08 0 4.80003e-06 6.50149e-07 0 5.75877e-06 -7.99468e-07 0 5.65038e-06 4.82491e-06 0 -8.87596e-06 -7.28402e-05 0 0.000256871 -0.00260632 0 -9.16823e-06 0.00017984 0 -2.37979e-05 -4.03463e-05 0 -5.49887e-06 1.66214e-05 0 -8.76047e-06 2.36001e-06 0 -3.23958e-06 4.55046e-06 0 -4.78675e-06 2.69091e-06 0 -3.56958e-06 9.68943e-07 0 -4.14562e-06 9.87878e-07 0 -3.89132e-06 4.97642e-09 0 -4.09488e-06 1.77864e-07 0 -4.06184e-06 -1.79176e-07 0 -4.14032e-06 -6.02086e-08 0 -4.14978e-06 -1.52705e-07 0 -4.18197e-06 -8.35433e-08 0 -4.19232e-06 -9.27783e-08 0 -4.20507e-06 -5.5942e-08 0 -4.21006e-06 -4.78932e-08 0 -4.21444e-06 -3.14721e-08 0 -4.21525e-06 -2.38034e-08 0 -4.21683e-06 -2.09581e-08 0 -4.21464e-06 -1.39231e-08 0 -4.21801e-06 -2.11961e-08 0 -4.2118e-06 -7.48274e-09 0 -4.22772e-06 -1.72341e-08 0 -4.21266e-06 1.35487e-08 0 -4.27764e-06 5.81445e-08 0 -4.21508e-06 7.76305e-08 0 -4.32362e-06 4.85054e-07 0 -3.74691e-06 -5.51581e-07 0 -3.82761e-06 2.76876e-06 0 -7.8283e-06 -4.27435e-05 0 0.000244044 -0.00220804 0 4.06869e-07 0.000152735 0 -1.50639e-05 -3.53248e-05 0 3.9583e-08 1.32765e-05 0 -2.95959e-06 1.99144e-06 0 2.65532e-06 4.12134e-06 0 1.71264e-06 2.541e-06 0 3.16886e-06 1.00874e-06 0 2.85043e-06 9.43969e-07 0 3.20429e-06 6.40092e-08 0 3.08841e-06 1.73573e-07 0 3.14896e-06 -1.43497e-07 0 3.09277e-06 -5.44234e-08 0 3.08478e-06 -1.34686e-07 0 3.05346e-06 -7.83383e-08 0 3.03795e-06 -8.48577e-08 0 3.02081e-06 -5.32511e-08 0 3.01007e-06 -4.51413e-08 0 3.0006e-06 -3.05665e-08 0 2.99421e-06 -2.35398e-08 0 2.98709e-06 -2.07709e-08 0 2.98331e-06 -1.48575e-08 0 2.97275e-06 -2.07184e-08 0 2.97341e-06 -8.63547e-09 0 2.94691e-06 -1.47941e-08 0 2.96537e-06 1.52565e-08 0 2.88568e-06 6.36109e-08 0 3.00125e-06 7.66995e-08 0 2.85072e-06 4.19848e-07 0 3.48828e-06 -6.33855e-07 0 3.08835e-06 2.76881e-06 0 -5.27362e-06 -4.20223e-05 0 0.000232081 -0.00184734 0 -2.86037e-06 0.000128991 0 -1.80298e-05 -3.01381e-05 0 -4.52697e-06 1.04986e-05 0 -8.07007e-06 1.51119e-06 0 -2.4767e-06 3.53528e-06 0 -3.2706e-06 2.25186e-06 0 -1.71859e-06 9.31338e-07 0 -1.99473e-06 8.39793e-07 0 -1.63588e-06 7.15204e-08 0 -1.76917e-06 1.49121e-07 0 -1.72974e-06 -1.26073e-07 0 -1.80979e-06 -5.29251e-08 0 -1.8362e-06 -1.21274e-07 0 -1.88334e-06 -7.22886e-08 0 -1.90942e-06 -7.6774e-08 0 -1.93431e-06 -4.85389e-08 0 -1.9495e-06 -4.07466e-08 0 -1.96151e-06 -2.74621e-08 0 -1.96878e-06 -2.1008e-08 0 -1.97539e-06 -1.8107e-08 0 -1.9785e-06 -1.29742e-08 0 -1.98572e-06 -1.71807e-08 0 -1.98509e-06 -6.68884e-09 0 -2.00048e-06 -9.57481e-09 0 -1.98729e-06 1.93536e-08 0 -2.0236e-06 6.24886e-08 0 -1.93639e-06 8.38401e-08 0 -1.95984e-06 3.09583e-07 0 -1.57396e-06 -5.01471e-07 0 -1.8755e-06 1.9362e-06 0 -5.14836e-06 -2.91422e-05 0 0.000224197 -0.00149074 0 1.26565e-06 0.000104406 0 -1.36278e-05 -2.46486e-05 0 -1.77436e-06 8.07426e-06 0 -5.51778e-06 1.1187e-06 0 -3.77743e-08 2.93369e-06 0 -5.16252e-07 1.93026e-06 0 1.19444e-06 8.4078e-07 0 1.08833e-06 7.31049e-07 0 1.51773e-06 8.63974e-08 0 1.43937e-06 1.31465e-07 0 1.49547e-06 -9.87621e-08 0 1.426e-06 -4.48873e-08 0 1.39825e-06 -1.01235e-07 0 1.34899e-06 -6.23911e-08 0 1.31804e-06 -6.53767e-08 0 1.28902e-06 -4.21749e-08 0 1.26951e-06 -3.51952e-08 0 1.25387e-06 -2.40441e-08 0 1.24307e-06 -1.85028e-08 0 1.23315e-06 -1.59202e-08 0 1.22676e-06 -1.1718e-08 0 1.21581e-06 -1.48184e-08 0 1.21412e-06 -5.95611e-09 0 1.19463e-06 -6.80009e-09 0 1.21294e-06 1.89548e-08 0 1.17494e-06 5.76326e-08 0 1.29108e-06 7.15273e-08 0 1.23413e-06 2.38171e-07 0 1.61051e-06 -4.48206e-07 0 1.2134e-06 1.65208e-06 0 -3.90701e-06 -2.46899e-05 0 0.000217465 -0.00115029 0 -5.34043e-08 8.09411e-05 0 -1.44259e-05 -1.91619e-05 0 -3.41098e-06 5.98826e-06 0 -7.56551e-06 7.66146e-07 0 -2.23564e-06 2.28488e-06 0 -2.61835e-06 1.54257e-06 0 -8.31977e-07 6.92008e-07 0 -8.74357e-07 5.90631e-07 0 -4.21191e-07 7.85214e-08 0 -4.92689e-07 1.05415e-07 0 -4.41274e-07 -7.72105e-08 0 -5.19619e-07 -3.71134e-08 0 -5.56465e-07 -8.13587e-08 0 -6.1417e-07 -5.09379e-08 0 -6.51536e-07 -5.28899e-08 0 -6.85502e-07 -3.43324e-08 0 -7.08311e-07 -2.85251e-08 0 -7.26102e-07 -1.94848e-08 0 -7.38158e-07 -1.49657e-08 0 -7.48488e-07 -1.27298e-08 0 -7.55229e-07 -9.40063e-09 0 -7.6497e-07 -1.14689e-08 0 -7.66912e-07 -4.38281e-09 0 -7.80522e-07 -3.8622e-09 0 -7.62333e-07 1.75968e-08 0 -7.7769e-07 4.87041e-08 0 -6.7138e-07 5.96529e-08 0 -6.88349e-07 1.66948e-07 0 -4.31364e-07 -3.3911e-07 0 -7.62904e-07 1.17946e-06 0 -3.82081e-06 -1.74131e-05 0 0.000213073 -0.000815323 0 1.47357e-06 5.74772e-05 0 -1.25732e-05 -1.3652e-05 0 -2.28101e-06 4.12159e-06 0 -6.63644e-06 4.93659e-07 0 -1.44782e-06 1.63532e-06 0 -1.69755e-06 1.12771e-06 0 1.73961e-07 5.20083e-07 0 2.26402e-07 4.372e-07 0 7.22301e-07 6.56642e-08 0 6.80951e-07 7.87486e-08 0 7.41607e-07 -5.36791e-08 0 6.67688e-07 -2.70072e-08 0 6.29194e-07 -5.88421e-08 0 5.69206e-07 -3.74942e-08 0 5.28479e-07 -3.8676e-08 0 4.91659e-07 -2.53665e-08 0 4.66171e-07 -2.10112e-08 0 4.46199e-07 -1.44501e-08 0 4.32203e-07 -1.11214e-08 0 4.20138e-07 -9.45253e-09 0 4.1181e-07 -7.04768e-09 0 4.00456e-07 -8.40207e-09 0 3.97667e-07 -3.18341e-09 0 3.83384e-07 -2.25336e-09 0 4.05045e-07 1.38329e-08 0 3.92633e-07 3.68069e-08 0 5.0896e-07 4.26972e-08 0 4.73873e-07 1.1277e-07 0 7.12284e-07 -2.49414e-07 0 3.61975e-07 8.52654e-07 0 -3.27486e-06 -1.25613e-05 0 0.000210013 -0.000487333 0 1.06754e-06 3.44283e-05 0 -1.26828e-05 -8.17932e-06 0 -2.73986e-06 2.41521e-06 0 -7.29174e-06 2.70461e-07 0 -2.21544e-06 9.78844e-07 0 -2.42431e-06 6.84486e-07 0 -5.13795e-07 3.20223e-07 0 -4.2068e-07 2.67317e-07 0 9.30594e-08 4.20285e-08 0 6.02963e-08 4.8065e-08 0 1.21364e-07 -3.22371e-08 0 4.49927e-08 -1.66445e-08 0 2.86575e-09 -3.58676e-08 0 -6.07576e-08 -2.30133e-08 0 -1.04524e-07 -2.3654e-08 0 -1.43762e-07 -1.55526e-08 0 -1.70987e-07 -1.28618e-08 0 -1.92163e-07 -8.84052e-09 0 -2.06973e-07 -6.79975e-09 0 -2.19451e-07 -5.74337e-09 0 -2.28159e-07 -4.28811e-09 0 -2.39182e-07 -5.0133e-09 0 -2.42107e-07 -1.83597e-09 0 -2.53799e-07 -9.88677e-10 0 -2.31317e-07 8.94905e-09 0 -2.34167e-07 2.29002e-08 0 -1.21567e-07 2.60932e-08 0 -1.4747e-07 6.37636e-08 0 4.62271e-08 -1.47113e-07 0 -2.74937e-07 4.90898e-07 0 -3.21536e-06 -7.16529e-06 0 0.000208598 -0.000161925 0 1.44376e-06 1.14412e-05 0 -1.21836e-05 -2.72239e-06 0 -2.44127e-06 7.94926e-07 0 -7.06639e-06 8.67643e-08 0 -2.04832e-06 3.26601e-07 0 -2.22264e-06 2.3016e-07 0 -2.8585e-07 1.08845e-07 0 -1.62253e-07 9.03939e-08 0 3.65929e-07 1.49059e-08 0 3.42928e-07 1.63851e-08 0 4.0704e-07 -1.05216e-08 0 3.31911e-07 -5.53039e-09 0 2.89131e-07 -1.19525e-08 0 2.24609e-07 -7.73212e-09 0 1.79659e-07 -7.92838e-09 0 1.39414e-07 -5.24304e-09 0 1.11281e-07 -4.33004e-09 0 8.93749e-08 -2.99193e-09 0 7.39409e-08 -2.3036e-09 0 6.09208e-08 -1.9536e-09 0 5.17378e-08 -1.46327e-09 0 4.02728e-08 -1.70714e-09 0 3.71561e-08 -6.2594e-10 0 2.5524e-08 -3.22974e-10 0 4.92216e-08 3.05412e-09 0 4.78854e-08 7.74212e-09 0 1.62495e-07 8.57548e-09 0 1.31037e-07 2.09923e-08 0 3.17323e-07 -5.02106e-08 0 -5.30196e-09 1.67985e-07 0 -3.06271e-06 -2.46762e-06 0 0.000208598 0.000161925 0 1.44376e-06 -1.14412e-05 0 -1.21836e-05 2.72239e-06 0 -2.44127e-06 -7.94926e-07 0 -7.06639e-06 -8.67643e-08 0 -2.04832e-06 -3.26601e-07 0 -2.22264e-06 -2.3016e-07 0 -2.8585e-07 -1.08845e-07 0 -1.62253e-07 -9.03939e-08 0 3.65929e-07 -1.49059e-08 0 3.42928e-07 -1.63851e-08 0 4.0704e-07 1.05216e-08 0 3.31911e-07 5.53039e-09 0 2.89131e-07 1.19525e-08 0 2.24609e-07 7.73212e-09 0 1.79659e-07 7.92838e-09 0 1.39414e-07 5.24304e-09 0 1.11281e-07 4.33004e-09 0 8.93749e-08 2.99193e-09 0 7.39409e-08 2.3036e-09 0 6.09208e-08 1.9536e-09 0 5.17378e-08 1.46327e-09 0 4.02728e-08 1.70714e-09 0 3.71561e-08 6.2594e-10 0 2.5524e-08 3.22974e-10 0 4.92216e-08 -3.05412e-09 0 4.78854e-08 -7.74212e-09 0 1.62495e-07 -8.57548e-09 0 1.31037e-07 -2.09923e-08 0 3.17323e-07 5.02106e-08 0 -5.30196e-09 -1.67985e-07 0 -3.06271e-06 2.46762e-06 0 0.000210013 0.000487333 0 1.06754e-06 -3.44283e-05 0 -1.26828e-05 8.17932e-06 0 -2.73986e-06 -2.41521e-06 0 -7.29174e-06 -2.70461e-07 0 -2.21544e-06 -9.78844e-07 0 -2.42431e-06 -6.84486e-07 0 -5.13795e-07 -3.20223e-07 0 -4.2068e-07 -2.67317e-07 0 9.30594e-08 -4.20285e-08 0 6.02963e-08 -4.8065e-08 0 1.21364e-07 3.22371e-08 0 4.49927e-08 1.66445e-08 0 2.86575e-09 3.58676e-08 0 -6.07576e-08 2.30133e-08 0 -1.04524e-07 2.3654e-08 0 -1.43762e-07 1.55526e-08 0 -1.70987e-07 1.28618e-08 0 -1.92163e-07 8.84052e-09 0 -2.06973e-07 6.79975e-09 0 -2.19451e-07 5.74337e-09 0 -2.28159e-07 4.28811e-09 0 -2.39182e-07 5.0133e-09 0 -2.42107e-07 1.83597e-09 0 -2.53799e-07 9.88677e-10 0 -2.31317e-07 -8.94905e-09 0 -2.34167e-07 -2.29002e-08 0 -1.21567e-07 -2.60932e-08 0 -1.4747e-07 -6.37636e-08 0 4.62271e-08 1.47113e-07 0 -2.74937e-07 -4.90898e-07 0 -3.21536e-06 7.16529e-06 0 0.000213073 0.000815323 0 1.47357e-06 -5.74772e-05 0 -1.25732e-05 1.3652e-05 0 -2.28101e-06 -4.12159e-06 0 -6.63644e-06 -4.93659e-07 0 -1.44782e-06 -1.63532e-06 0 -1.69755e-06 -1.12771e-06 0 1.73961e-07 -5.20083e-07 0 2.26402e-07 -4.372e-07 0 7.22301e-07 -6.56642e-08 0 6.80951e-07 -7.87486e-08 0 7.41607e-07 5.36791e-08 0 6.67688e-07 2.70072e-08 0 6.29194e-07 5.88421e-08 0 5.69206e-07 3.74942e-08 0 5.28479e-07 3.8676e-08 0 4.91659e-07 2.53665e-08 0 4.66171e-07 2.10112e-08 0 4.46199e-07 1.44501e-08 0 4.32203e-07 1.11214e-08 0 4.20138e-07 9.45253e-09 0 4.1181e-07 7.04768e-09 0 4.00456e-07 8.40207e-09 0 3.97667e-07 3.18341e-09 0 3.83384e-07 2.25336e-09 0 4.05045e-07 -1.38329e-08 0 3.92633e-07 -3.68069e-08 0 5.0896e-07 -4.26972e-08 0 4.73873e-07 -1.1277e-07 0 7.12284e-07 2.49414e-07 0 3.61975e-07 -8.52654e-07 0 -3.27486e-06 1.25613e-05 0 0.000217465 0.00115029 0 -5.34043e-08 -8.09411e-05 0 -1.44259e-05 1.91619e-05 0 -3.41098e-06 -5.98826e-06 0 -7.56551e-06 -7.66146e-07 0 -2.23564e-06 -2.28488e-06 0 -2.61835e-06 -1.54257e-06 0 -8.31977e-07 -6.92008e-07 0 -8.74357e-07 -5.90631e-07 0 -4.21191e-07 -7.85214e-08 0 -4.92689e-07 -1.05415e-07 0 -4.41274e-07 7.72105e-08 0 -5.19619e-07 3.71134e-08 0 -5.56465e-07 8.13587e-08 0 -6.1417e-07 5.09379e-08 0 -6.51536e-07 5.28899e-08 0 -6.85502e-07 3.43324e-08 0 -7.08311e-07 2.85251e-08 0 -7.26102e-07 1.94848e-08 0 -7.38158e-07 1.49657e-08 0 -7.48488e-07 1.27298e-08 0 -7.55229e-07 9.40063e-09 0 -7.6497e-07 1.14689e-08 0 -7.66912e-07 4.38281e-09 0 -7.80522e-07 3.8622e-09 0 -7.62333e-07 -1.75968e-08 0 -7.7769e-07 -4.87041e-08 0 -6.7138e-07 -5.96529e-08 0 -6.88349e-07 -1.66948e-07 0 -4.31364e-07 3.3911e-07 0 -7.62904e-07 -1.17946e-06 0 -3.82081e-06 1.74131e-05 0 0.000224197 0.00149074 0 1.26565e-06 -0.000104406 0 -1.36278e-05 2.46486e-05 0 -1.77436e-06 -8.07426e-06 0 -5.51778e-06 -1.1187e-06 0 -3.77743e-08 -2.93369e-06 0 -5.16252e-07 -1.93026e-06 0 1.19444e-06 -8.4078e-07 0 1.08833e-06 -7.31049e-07 0 1.51773e-06 -8.63974e-08 0 1.43937e-06 -1.31465e-07 0 1.49547e-06 9.87621e-08 0 1.426e-06 4.48873e-08 0 1.39825e-06 1.01235e-07 0 1.34899e-06 6.23911e-08 0 1.31804e-06 6.53767e-08 0 1.28902e-06 4.21749e-08 0 1.26951e-06 3.51952e-08 0 1.25387e-06 2.40441e-08 0 1.24307e-06 1.85028e-08 0 1.23315e-06 1.59202e-08 0 1.22676e-06 1.1718e-08 0 1.21581e-06 1.48184e-08 0 1.21412e-06 5.95611e-09 0 1.19463e-06 6.80009e-09 0 1.21294e-06 -1.89548e-08 0 1.17494e-06 -5.76326e-08 0 1.29108e-06 -7.15273e-08 0 1.23413e-06 -2.38171e-07 0 1.61051e-06 4.48206e-07 0 1.2134e-06 -1.65208e-06 0 -3.90701e-06 2.46899e-05 0 0.000232081 0.00184734 0 -2.86037e-06 -0.000128991 0 -1.80298e-05 3.01381e-05 0 -4.52697e-06 -1.04986e-05 0 -8.07007e-06 -1.51119e-06 0 -2.4767e-06 -3.53528e-06 0 -3.2706e-06 -2.25186e-06 0 -1.71859e-06 -9.31338e-07 0 -1.99473e-06 -8.39793e-07 0 -1.63588e-06 -7.15204e-08 0 -1.76917e-06 -1.49121e-07 0 -1.72974e-06 1.26073e-07 0 -1.80979e-06 5.29251e-08 0 -1.8362e-06 1.21274e-07 0 -1.88334e-06 7.22886e-08 0 -1.90942e-06 7.6774e-08 0 -1.93431e-06 4.85389e-08 0 -1.9495e-06 4.07466e-08 0 -1.96151e-06 2.74621e-08 0 -1.96878e-06 2.1008e-08 0 -1.97539e-06 1.8107e-08 0 -1.9785e-06 1.29742e-08 0 -1.98572e-06 1.71807e-08 0 -1.98509e-06 6.68884e-09 0 -2.00048e-06 9.57481e-09 0 -1.98729e-06 -1.93536e-08 0 -2.0236e-06 -6.24886e-08 0 -1.93639e-06 -8.38401e-08 0 -1.95984e-06 -3.09583e-07 0 -1.57396e-06 5.01471e-07 0 -1.8755e-06 -1.9362e-06 0 -5.14836e-06 2.91422e-05 0 0.000244044 0.00220804 0 4.06869e-07 -0.000152735 0 -1.50639e-05 3.53248e-05 0 3.9583e-08 -1.32765e-05 0 -2.95959e-06 -1.99144e-06 0 2.65532e-06 -4.12134e-06 0 1.71264e-06 -2.541e-06 0 3.16886e-06 -1.00874e-06 0 2.85043e-06 -9.43969e-07 0 3.20429e-06 -6.40092e-08 0 3.08841e-06 -1.73573e-07 0 3.14896e-06 1.43497e-07 0 3.09277e-06 5.44234e-08 0 3.08478e-06 1.34686e-07 0 3.05346e-06 7.83383e-08 0 3.03795e-06 8.48577e-08 0 3.02081e-06 5.32511e-08 0 3.01007e-06 4.51413e-08 0 3.0006e-06 3.05665e-08 0 2.99421e-06 2.35398e-08 0 2.98709e-06 2.07709e-08 0 2.98331e-06 1.48575e-08 0 2.97275e-06 2.07184e-08 0 2.97341e-06 8.63547e-09 0 2.94691e-06 1.47941e-08 0 2.96537e-06 -1.52565e-08 0 2.88568e-06 -6.36109e-08 0 3.00125e-06 -7.66995e-08 0 2.85072e-06 -4.19848e-07 0 3.48828e-06 6.33855e-07 0 3.08835e-06 -2.76881e-06 0 -5.27362e-06 4.20223e-05 0 0.000256871 0.00260632 0 -9.16823e-06 -0.00017984 0 -2.37979e-05 4.03463e-05 0 -5.49887e-06 -1.66214e-05 0 -8.76047e-06 -2.36001e-06 0 -3.23958e-06 -4.55046e-06 0 -4.78675e-06 -2.69091e-06 0 -3.56958e-06 -9.68943e-07 0 -4.14562e-06 -9.87878e-07 0 -3.89132e-06 -4.97642e-09 0 -4.09488e-06 -1.77864e-07 0 -4.06184e-06 1.79176e-07 0 -4.14032e-06 6.02086e-08 0 -4.14978e-06 1.52705e-07 0 -4.18197e-06 8.35433e-08 0 -4.19232e-06 9.27783e-08 0 -4.20507e-06 5.5942e-08 0 -4.21006e-06 4.78932e-08 0 -4.21444e-06 3.14721e-08 0 -4.21525e-06 2.38034e-08 0 -4.21683e-06 2.09581e-08 0 -4.21464e-06 1.39231e-08 0 -4.21801e-06 2.11961e-08 0 -4.2118e-06 7.48274e-09 0 -4.22772e-06 1.72341e-08 0 -4.21266e-06 -1.35487e-08 0 -4.27764e-06 -5.81445e-08 0 -4.21508e-06 -7.76305e-08 0 -4.32362e-06 -4.85054e-07 0 -3.74691e-06 5.51581e-07 0 -3.82761e-06 -2.76876e-06 0 -7.8283e-06 4.27435e-05 0 0.000276801 0.00299133 0 -4.04523e-06 -0.000202544 0 -1.68553e-05 4.40625e-05 0 4.04471e-06 -2.02388e-05 0 8.60824e-07 -2.79107e-06 0 6.12227e-06 -4.99076e-06 0 4.37502e-06 -2.86038e-06 0 5.5296e-06 -9.99762e-07 0 4.98432e-06 -1.07602e-06 0 5.28029e-06 -7.63151e-09 0 5.14335e-06 -2.16276e-07 0 5.22452e-06 1.78014e-07 0 5.19396e-06 4.72004e-08 0 5.21563e-06 1.52946e-07 0 5.20908e-06 8.07269e-08 0 5.21396e-06 9.39836e-08 0 5.21187e-06 5.65867e-08 0 5.21197e-06 4.95969e-08 0 5.20988e-06 3.34053e-08 0 5.20858e-06 2.5863e-08 0 5.20461e-06 2.40103e-08 0 5.20404e-06 1.62813e-08 0 5.19364e-06 2.62072e-08 0 5.19987e-06 1.05635e-08 0 5.1638e-06 2.55672e-08 0 5.19755e-06 -2.56921e-09 0 5.05806e-06 -5.28072e-08 0 5.19775e-06 -2.15706e-08 0 4.80003e-06 -6.50149e-07 0 5.75877e-06 7.99468e-07 0 5.65038e-06 -4.82491e-06 0 -8.87596e-06 7.28402e-05 0 0.000300448 0.00347531 0 -2.02731e-05 -0.000236752 0 -2.70936e-05 4.7385e-05 0 -2.23977e-06 -2.45627e-05 0 -6.88981e-06 -2.64819e-06 0 -2.09105e-06 -5.02502e-06 0 -4.67517e-06 -2.72314e-06 0 -3.77315e-06 -7.52382e-07 0 -4.60674e-06 -1.01917e-06 0 -4.41341e-06 1.32135e-07 0 -4.64554e-06 -1.92303e-07 0 -4.59457e-06 2.3819e-07 0 -4.65077e-06 5.5952e-08 0 -4.63131e-06 1.74649e-07 0 -4.64013e-06 8.21582e-08 0 -4.6298e-06 9.95151e-08 0 -4.62769e-06 5.48386e-08 0 -4.62097e-06 4.8747e-08 0 -4.61743e-06 3.02785e-08 0 -4.61135e-06 2.21655e-08 0 -4.60907e-06 2.00286e-08 0 -4.5997e-06 1.06623e-08 0 -4.6035e-06 2.17425e-08 0 -4.58192e-06 3.7604e-09 0 -4.61252e-06 2.35963e-08 0 -4.55727e-06 -6.72023e-09 0 -4.69457e-06 -3.43098e-08 0 -4.56409e-06 -2.35968e-08 0 -4.99924e-06 -5.91257e-07 0 -4.19202e-06 3.37646e-07 0 -3.64847e-06 -3.78455e-06 0 -1.37052e-05 5.84041e-05 0 0.000325466 0.00387416 0 -2.68476e-05 -0.000254144 0 -2.35833e-05 4.65937e-05 0 4.27035e-06 -2.79853e-05 0 -2.80263e-06 -2.77761e-06 0 1.86112e-06 -5.30874e-06 0 -1.48702e-06 -2.87051e-06 0 -4.82508e-07 -8.82778e-07 0 -1.44345e-06 -1.17378e-06 0 -1.1845e-06 2.80313e-08 0 -1.3943e-06 -2.88336e-07 0 -1.30368e-06 1.75227e-07 0 -1.32297e-06 9.23799e-09 0 -1.27899e-06 1.44921e-07 0 -1.26403e-06 6.39628e-08 0 -1.24041e-06 8.92313e-08 0 -1.22703e-06 5.08018e-08 0 -1.21483e-06 4.81579e-08 0 -1.20776e-06 3.31758e-08 0 -1.20075e-06 2.60358e-08 0 -1.19971e-06 2.74982e-08 0 -1.19049e-06 1.6015e-08 0 -1.20092e-06 3.45528e-08 0 -1.17434e-06 8.78007e-09 0 -1.22446e-06 4.24573e-08 0 -1.14362e-06 9.71574e-09 0 -1.3399e-06 -3.10977e-08 0 -1.13649e-06 1.26586e-07 0 -1.85339e-06 -8.76857e-07 0 -1.03372e-06 1.24585e-06 0 -1.36196e-07 -1.03429e-05 0 -2.385e-05 0.000144882 0 0.000384102 0.00455497 0 -2.05157e-05 -0.000312732 0 6.8542e-06 4.67757e-05 0 2.64377e-05 -3.18593e-05 0 2.05171e-05 -1.41668e-06 0 2.30242e-05 -4.52291e-06 0 2.0432e-05 -2.28974e-06 0 2.14001e-05 -2.04694e-07 0 2.08141e-05 -9.19547e-07 0 2.12655e-05 3.68147e-07 0 2.12526e-05 -1.79455e-07 0 2.14721e-05 3.13535e-07 0 2.15492e-05 4.71315e-08 0 2.16541e-05 1.90021e-07 0 2.17084e-05 7.0249e-08 0 2.17543e-05 9.70198e-08 0 2.17785e-05 4.49477e-08 0 2.17959e-05 4.19855e-08 0 2.18003e-05 2.2732e-08 0 2.18087e-05 1.33769e-08 0 2.1797e-05 1.42755e-08 0 2.18159e-05 -2.1618e-09 0 2.17731e-05 1.89394e-08 0 2.18426e-05 -1.53607e-08 0 2.17056e-05 2.98293e-08 0 2.19398e-05 -2.24305e-08 0 2.14838e-05 3.91281e-09 0 2.22177e-05 5.37502e-08 0 2.05589e-05 -4.76964e-07 0 2.27091e-05 2.54507e-07 0 2.24316e-05 -7.2081e-06 0 -2.86326e-05 9.05625e-05 0 0.000323113 0.00489807 0 -0.000141323 -0.00031584 0 -8.729e-05 3.7699e-05 0 -6.37516e-05 -3.07069e-05 0 -7.91631e-05 -1.93839e-06 0 -7.61587e-05 -4.81376e-06 0 -8.3096e-05 -2.94181e-06 0 -8.27209e-05 -8.07483e-07 0 -8.55225e-05 -1.42042e-06 0 -8.56807e-05 -6.32965e-08 0 -8.67001e-05 -4.66603e-07 0 -8.68404e-05 8.12967e-08 0 -8.71541e-05 -8.65791e-08 0 -8.72025e-05 8.84828e-08 0 -8.72674e-05 2.13704e-08 0 -8.72607e-05 6.41042e-08 0 -8.72499e-05 3.6979e-08 0 -8.72214e-05 4.02603e-08 0 -8.71909e-05 3.47498e-08 0 -8.71535e-05 2.39299e-08 0 -8.71151e-05 4.03453e-08 0 -8.70709e-05 1.02477e-08 0 -8.70188e-05 6.13013e-08 0 -8.69768e-05 -8.11781e-09 0 -8.68946e-05 8.26329e-08 0 -8.68909e-05 8.21375e-09 0 -8.67863e-05 -5.06158e-08 0 -8.68676e-05 4.71921e-07 0 -8.71684e-05 -1.55694e-06 0 -8.78299e-05 4.61047e-06 0 -8.7722e-05 -3.05882e-05 0 -9.63258e-05 0.000363865 0 0.000458424 0.00593658 0 0.000244251 -0.000452929 0 0.000358802 4.34094e-05 0 0.000274015 -3.17986e-05 0 0.000314749 1.27325e-06 0 0.000292761 -2.60998e-06 0 0.000311626 -1.49271e-06 0 0.000308902 8.17794e-07 0 0.000316949 -6.80986e-07 0 0.000318262 7.93605e-07 0 0.000321643 -1.24491e-07 0 0.000322916 4.51018e-07 0 0.000324271 4.40625e-08 0 0.000324919 2.15496e-07 0 0.000325393 5.34717e-08 0 0.000325614 8.82592e-08 0 0.000325716 2.83861e-08 0 0.000325732 2.48044e-08 0 0.000325675 9.13369e-09 0 0.000325617 -8.72753e-09 0 0.000325452 3.43323e-09 0 0.00032543 -3.3637e-08 0 0.000325056 1.11261e-08 0 0.000325349 -5.88733e-08 0 0.000324265 2.01647e-08 0 0.000325938 -4.16904e-08 0 0.00032223 -8.77551e-08 0 0.000329155 4.08198e-07 0 0.000316192 -1.24446e-06 0 0.000338994 4.76466e-06 0 0.000312294 -2.72127e-05 0 7.42015e-06 0.000241835 0 -0.00275671 0.00516561 0 -0.0013617 -0.000427891 0 -0.00145693 4.27848e-05 0 -0.00123866 -2.57991e-05 0 -0.00137967 7.84075e-07 0 -0.00134594 -4.72408e-06 0 -0.00140657 -2.10197e-06 0 -0.00141617 -1.39491e-06 0 -0.00144306 -1.25434e-06 0 -0.00145461 -5.13436e-07 0 -0.00146643 -5.24401e-07 0 -0.00147291 -1.68693e-07 0 -0.00147764 -1.69785e-07 0 -0.00148028 -3.1633e-08 0 -0.0014818 -3.04689e-08 0 -0.00148249 1.30995e-08 0 -0.00148269 1.82411e-08 0 -0.00148258 2.08818e-08 0 -0.00148227 4.22292e-08 0 -0.00148186 1.11953e-08 0 -0.00148132 7.67888e-08 0 -0.00148079 -2.15178e-08 0 -0.00148004 1.44764e-07 0 -0.00147957 -8.45086e-08 0 -0.00147839 2.06264e-07 0 -0.0014788 -4.95791e-09 0 -0.00147621 -2.96092e-07 0 -0.00148089 1.78059e-06 0 -0.00147279 -5.62259e-06 0 -0.00149402 2.05581e-05 0 -0.00149513 -9.76615e-05 0 -0.0012251 0.00111246 0 0.0063257 0.00154096 0 0.00419842 0.000279256 0 0.00475301 -3.48998e-05 0 0.00271099 1.79692e-05 0 0.00372039 3.87421e-06 0 0.0031921 5.27811e-06 0 0.00355498 7.09195e-06 0 0.00344782 3.48793e-06 0 0.00357239 5.22993e-06 0 0.00355951 2.56568e-06 0 0.00359936 3.14801e-06 0 0.00359921 1.68267e-06 0 0.00360904 1.69105e-06 0 0.00360761 9.42635e-07 0 0.00360793 7.86819e-07 0 0.00360575 3.89086e-07 0 0.00360437 2.23074e-07 0 0.00360324 -3.16308e-08 0 0.00360295 -1.65339e-07 0 0.00360395 -4.00928e-07 0 0.00360541 -4.69809e-07 0 0.00360951 -8.0064e-07 0 0.00361202 -7.32038e-07 0 0.003622 -1.31953e-06 0 0.0036225 -1.07797e-06 0 0.00364881 -2.03551e-06 0 0.00363805 -2.38568e-06 0 0.00371777 -2.82274e-06 0 0.00367655 -1.03474e-05 0 0.00394502 -1.4515e-06 0 0.00415344 -0.000132363 0 0.00460113 0.000145081 0 </DataArray> 
</PointData> 
<Points> 
<DataArray type="Float32" NumberOfComponents="3"> 