<?xml version="1.0"?> 
<VTKFile type="StructuredGrid" version="0.1"> 
<StructuredGrid WholeExtent="0 31 0 31 0 0"> 
<Piece Extent="0 31 0 31 0 0"> 
<PointData>
<DataArray type="Float32" Name="B" format="ascii" NumberOfComponents="3"> 
-0.00672114 0.000555106 0 -0.000228608 -0.000100358 0 0.000165219 -5.51412e-07 0 -0.000147961 -8.30436e-06 0 4.4928e-05 3.08806e-07 0 -5.41039e-05 1.38394e-06 0 2.99075e-06 2.70644e-06 0 -2.41308e-05 3.65498e-06 0 -7.49915e-06 3.75526e-06 0 -1.40922e-05 4.10136e-06 0 -8.96681e-06 3.95944e-06 0 -1.00472e-05 3.9613e-06 0 -8.14535e-06 3.76129e-06 0 -7.8711e-06 3.62012e-06 0 -6.89943e-06 3.41064e-06 0 -6.36336e-06 3.22751e-06 0 -5.69811e-06 3.02948e-06 0 -5.16542e-06 2.84861e-06 0 -4.63353e-06 2.67257e-06 0 -4.15639e-06 2.51166e-06 0 -3.70363e-06 2.36229e-06 0 -3.28298e-06 2.22746e-06 0 -2.8864e-06 2.106e-06 0 -2.51251e-06 1.99855e-06 0 -2.15784e-06 1.90454e-06 0 -1.81973e-06 1.82391e-06 0 -1.49563e-06 1.75626e-06 0 -1.18297e-06 1.70137e-06 0 -8.79396e-07 1.65895e-06 0 -5.82541e-07 1.62882e-06 0 -2.90164e-07 1.6108e-06 0 0 1.6048e-06 0 0.00117398 -0.000377942 0 -2.16092e-05 -6.00478e-05 0 -6.86505e-05 -1.71117e-05 0 -3.18162e-06 -6.91624e-06 0 -3.24067e-05 -1.91505e-06 0 -1.14014e-05 7.02154e-07 0 -1.89959e-05 2.13238e-06 0 -1.22261e-05 3.01057e-06 0 -1.34996e-05 3.4187e-06 0 -1.0928e-05 3.6456e-06 0 -1.05765e-05 3.67097e-06 0 -9.27499e-06 3.62866e-06 0 -8.5985e-06 3.50569e-06 0 -7.72955e-06 3.35981e-06 0 -7.05789e-06 3.18787e-06 0 -6.37843e-06 3.01343e-06 0 -5.78053e-06 2.83686e-06 0 -5.21282e-06 2.66736e-06 0 -4.69219e-06 2.50573e-06 0 -4.20444e-06 2.35534e-06 0 -3.7502e-06 2.21658e-06 0 -3.32401e-06 2.09049e-06 0 -2.92339e-06 1.97709e-06 0 -2.54498e-06 1.8765e-06 0 -2.18599e-06 1.78852e-06 0 -1.84367e-06 1.71297e-06 0 -1.51539e-06 1.64958e-06 0 -1.19868e-06 1.59812e-06 0 -8.91096e-07 1.55834e-06 0 -5.90316e-07 1.53008e-06 0 -2.94036e-07 1.51318e-06 0 2.27612e-20 1.50755e-06 0 -4.15794e-06 -0.000122605 0 -2.66311e-05 -5.70371e-05 0 -1.90395e-05 -1.98923e-05 0 -2.67728e-05 -8.37671e-06 0 -1.68982e-05 -2.88413e-06 0 -1.84019e-05 -6.80432e-08 0 -1.45386e-05 1.58466e-06 0 -1.41451e-05 2.50303e-06 0 -1.22789e-05 3.02473e-06 0 -1.1455e-05 3.26729e-06 0 -1.0284e-05 3.35385e-06 0 -9.44712e-06 3.32689e-06 0 -8.56659e-06 3.23955e-06 0 -7.81631e-06 3.1098e-06 0 -7.0952e-06 2.96114e-06 0 -6.4431e-06 2.80187e-06 0 -5.83189e-06 2.64217e-06 0 -5.26782e-06 2.4859e-06 0 -4.74144e-06 2.33727e-06 0 -4.25127e-06 2.1979e-06 0 -3.79262e-06 2.06936e-06 0 -3.36258e-06 1.95217e-06 0 -2.95779e-06 1.84673e-06 0 -2.57533e-06 1.75307e-06 0 -2.21231e-06 1.67111e-06 0 -1.86603e-06 1.60068e-06 0 -1.53388e-06 1.54157e-06 0 -1.21336e-06 1.49356e-06 0 -9.02049e-07 1.45646e-06 0 -5.97586e-07 1.43008e-06 0 -2.97662e-07 1.4143e-06 0 1.75235e-20 1.40906e-06 0 9.05552e-05 8.40599e-06 0 -5.93529e-06 -4.92518e-05 0 -2.09119e-05 -1.95029e-05 0 -1.94905e-05 -9.42815e-06 0 -1.82765e-05 -3.57371e-06 0 -1.62068e-05 -6.73312e-07 0 -1.49104e-05 1.06814e-06 0 -1.34814e-05 2.08004e-06 0 -1.23751e-05 2.62944e-06 0 -1.12809e-05 2.92846e-06 0 -1.03328e-05 3.03401e-06 0 -9.43259e-06 3.04148e-06 0 -8.61619e-06 2.97189e-06 0 -7.85233e-06 2.8656e-06 0 -7.14808e-06 2.73329e-06 0 -6.49206e-06 2.59167e-06 0 -5.88331e-06 2.44631e-06 0 -5.31619e-06 2.30403e-06 0 -4.78777e-06 2.16752e-06 0 -4.29412e-06 2.0394e-06 0 -3.83206e-06 1.9208e-06 0 -3.39828e-06 1.81258e-06 0 -2.98974e-06 1.71504e-06 0 -2.60351e-06 1.62834e-06 0 -2.23677e-06 1.55242e-06 0 -1.88682e-06 1.48714e-06 0 -1.55107e-06 1.43233e-06 0 -1.22702e-06 1.3878e-06 0 -9.1224e-07 1.35337e-06 0 -6.04353e-07 1.3289e-06 0 -3.01037e-07 1.31426e-06 0 0 1.30939e-06 0 2.81422e-05 -3.24125e-05 0 -8.22341e-07 -3.17623e-05 0 -1.49514e-05 -1.95389e-05 0 -1.77079e-05 -9.32387e-06 0 -1.65922e-05 -4.16168e-06 0 -1.56585e-05 -1.12089e-06 0 -1.43563e-05 6.4865e-07 0 -1.32868e-05 1.67928e-06 0 -1.22021e-05 2.2854e-06 0 -1.12314e-05 2.59339e-06 0 -1.03032e-05 2.73639e-06 0 -9.4464e-06 2.75721e-06 0 -8.64083e-06 2.71266e-06 0 -7.89134e-06 2.62158e-06 0 -7.19084e-06 2.50798e-06 0 -6.5381e-06 2.38096e-06 0 -5.929e-06 2.25059e-06 0 -5.36078e-06 2.12123e-06 0 -4.83e-06 1.99698e-06 0 -4.33357e-06 1.87976e-06 0 -3.86831e-06 1.77112e-06 0 -3.43118e-06 1.67177e-06 0 -3.01921e-06 1.58216e-06 0 -2.62952e-06 1.50242e-06 0 -2.25936e-06 1.43254e-06 0 -1.90603e-06 1.37243e-06 0 -1.56697e-06 1.32195e-06 0 -1.23966e-06 1.28092e-06 0 -9.21666e-07 1.24919e-06 0 -6.10612e-07 1.22663e-06 0 -3.04159e-07 1.21314e-06 0 2.85967e-22 1.20864e-06 0 2.31823e-05 -1.12605e-07 0 1.55726e-06 -2.56194e-05 0 -1.18923e-05 -1.69406e-05 0 -1.51556e-05 -9.26206e-06 0 -1.55031e-05 -4.36085e-06 0 -1.48079e-05 -1.4582e-06 0 -1.39583e-05 2.93824e-07 0 -1.29967e-05 1.34717e-06 0 -1.20676e-05 1.95466e-06 0 -1.11504e-05 2.29007e-06 0 -1.02795e-05 2.44303e-06 0 -9.44741e-06 2.48573e-06 0 -8.66285e-06 2.45507e-06 0 -7.9231e-06 2.38202e-06 0 -7.2292e-06 2.28294e-06 0 -6.57884e-06 2.17126e-06 0 -5.97036e-06 2.05437e-06 0 -5.4011e-06 1.93804e-06 0 -4.86846e-06 1.82553e-06 0 -4.36954e-06 1.71921e-06 0 -3.90145e-06 1.62038e-06 0 -3.46129e-06 1.5299e-06 0 -3.0462e-06 1.44818e-06 0 -2.65337e-06 1.3754e-06 0 -2.28008e-06 1.31158e-06 0 -1.92366e-06 1.25666e-06 0 -1.58156e-06 1.21051e-06 0 -1.25126e-06 1.173e-06 0 -9.30322e-07 1.14398e-06 0 -6.1636e-07 1.12335e-06 0 -3.07027e-07 1.11101e-06 0 1.99858e-20 1.1069e-06 0 1.38701e-05 -1.37431e-05 0 1.75511e-06 -1.83081e-05 0 -9.26265e-06 -1.48755e-05 0 -1.32883e-05 -8.64282e-06 0 -1.42891e-05 -4.4048e-06 0 -1.40934e-05 -1.66414e-06 0 -1.35067e-05 2.40192e-08 0 -1.27368e-05 1.0521e-06 0 -1.1914e-05 1.66307e-06 0 -1.10734e-05 1.99987e-06 0 -1.02469e-05 2.1662e-06 0 -9.44544e-06 2.21943e-06 0 -8.67873e-06 2.20383e-06 0 -7.95033e-06 2.14426e-06 0 -7.26243e-06 2.05987e-06 0 -6.61505e-06 1.96177e-06 0 -6.00729e-06 1.85826e-06 0 -5.43739e-06 1.75431e-06 0 -4.90316e-06 1.65345e-06 0 -4.40208e-06 1.55779e-06 0 -3.93149e-06 1.46873e-06 0 -3.48862e-06 1.38704e-06 0 -3.07072e-06 1.3132e-06 0 -2.67505e-06 1.24738e-06 0 -2.29892e-06 1.18963e-06 0 -1.93971e-06 1.13991e-06 0 -1.59484e-06 1.09812e-06 0 -1.26182e-06 1.06413e-06 0 -9.38202e-07 1.03785e-06 0 -6.21595e-07 1.01915e-06 0 -3.09638e-07 1.00797e-06 0 9.28146e-21 1.00424e-06 0 8.56397e-06 -5.67307e-06 0 1.39044e-06 -1.48401e-05 0 -7.44349e-06 -1.24596e-05 0 -1.17334e-05 -7.92214e-06 0 -1.31954e-05 -4.24073e-06 0 -1.34175e-05 -1.76186e-06 0 -1.30752e-05 -1.77387e-07 0 -1.24814e-05 8.0795e-07 0 -1.17627e-05 1.39674e-06 0 -1.09943e-05 1.73163e-06 0 -1.02116e-05 1.89949e-06 0 -9.43945e-06 1.96203e-06 0 -8.69039e-06 1.95652e-06 0 -7.97299e-06 1.90971e-06 0 -7.29118e-06 1.83798e-06 0 -6.64685e-06 1.75301e-06 0 -6.04002e-06 1.66209e-06 0 -5.46971e-06 1.57028e-06 0 -4.93418e-06 1.48076e-06 0 -4.43124e-06 1.39565e-06 0 -3.95844e-06 1.31624e-06 0 -3.51317e-06 1.24332e-06 0 -3.09277e-06 1.17732e-06 0 -2.69456e-06 1.11846e-06 0 -2.31589e-06 1.06679e-06 0 -1.95416e-06 1.02228e-06 0 -1.6068e-06 9.84852e-07 0 -1.27133e-06 9.54417e-07 0 -9.45305e-07 9.30868e-07 0 -6.26312e-07 9.14118e-07 0 -3.11991e-07 9.04097e-07 0 0 9.00762e-07 0 7.83453e-06 -8.91286e-06 0 9.98346e-07 -1.1463e-05 0 -6.28496e-06 -1.04665e-05 0 -1.04196e-05 -7.01267e-06 0 -1.22659e-05 -3.95767e-06 0 -1.2781e-05 -1.75843e-06 0 -1.26809e-05 -3.10797e-07 0 -1.22334e-05 6.04074e-07 0 -1.16197e-05 1.16071e-06 0 -1.0915e-05 1.47981e-06 0 -1.01759e-05 1.6455e-06 0 -9.4304e-06 1.7113e-06 0 -8.69873e-06 1.71418e-06 0 -7.99157e-06 1.67759e-06 0 -7.31579e-06 1.61768e-06 0 -6.67444e-06 1.54481e-06 0 -6.06869e-06 1.46605e-06 0 -5.49816e-06 1.38596e-06 0 -4.96157e-06 1.30758e-06 0 -4.45705e-06 1.23286e-06 0 -3.98234e-06 1.16303e-06 0 -3.53496e-06 1.09882e-06 0 -3.11236e-06 1.04065e-06 0 -2.7119e-06 9.8874e-07 0 -2.33098e-06 9.43146e-07 0 -1.96701e-06 9.03857e-07 0 -1.61745e-06 8.70813e-07 0 -1.2798e-06 8.43934e-07 0 -9.51625e-07 8.23134e-07 0 -6.30511e-07 8.08337e-07 0 -3.14086e-07 7.99484e-07 0 0 7.96538e-07 0 5.05623e-06 -5.83161e-06 0 5.69294e-07 -9.32142e-06 0 -5.40268e-06 -8.58807e-06 0 -9.43333e-06 -6.07449e-06 0 -1.14374e-05 -3.56439e-06 0 -1.22317e-05 -1.67261e-06 0 -1.2312e-05 -3.86581e-07 0 -1.20095e-05 4.40937e-07 0 -1.14832e-05 9.49404e-07 0 -1.0841e-05 1.24566e-06 0 -1.014e-05 1.40181e-06 0 -9.42017e-06 1.46781e-06 0 -8.70406e-06 1.47592e-06 0 -8.00675e-06 1.44815e-06 0 -7.3365e-06 1.39871e-06 0 -6.69809e-06 1.33728e-06 0 -6.09343e-06 1.27011e-06 0 -5.52283e-06 1.20144e-06 0 -4.9854e-06 1.13399e-06 0 -4.47954e-06 1.06953e-06 0 -4.00319e-06 1.00919e-06 0 -3.554e-06 9.53647e-07 0 -3.12948e-06 9.03291e-07 0 -2.72707e-06 8.5832e-07 0 -2.34418e-06 8.18805e-07 0 -1.97826e-06 7.84743e-07 0 -1.62677e-06 7.56089e-07 0 -1.28722e-06 7.32776e-07 0 -9.57162e-07 7.14733e-07 0 -6.3419e-07 7.01896e-07 0 -3.15922e-07 6.94216e-07 0 0 6.91659e-07 0 5.08261e-06 -5.95359e-06 0 2.9627e-07 -7.32733e-06 0 -4.86853e-06 -6.97327e-06 0 -8.61642e-06 -5.10123e-06 0 -1.07736e-05 -3.10271e-06 0 -1.17412e-05 -1.51764e-06 0 -1.1994e-05 -4.11068e-07 0 -1.18046e-05 3.12062e-07 0 -1.13619e-05 7.62021e-07 0 -1.07719e-05 1.02634e-06 0 -1.01067e-05 1.16829e-06 0 -9.40907e-06 1.23044e-06 0 -8.70743e-06 1.24169e-06 0 -8.01878e-06 1.22099e-06 0 -7.3537e-06 1.18108e-06 0 -6.71795e-06 1.13033e-06 0 -6.11438e-06 1.07434e-06 0 -5.5438e-06 1.01677e-06 0 -5.00572e-06 9.60053e-07 0 -4.49876e-06 9.05735e-07 0 -4.02103e-06 8.54815e-07 0 -3.5703e-06 8.07896e-07 0 -3.14415e-06 7.65328e-07 0 -2.74006e-06 7.27292e-07 0 -2.3555e-06 6.93858e-07 0 -1.9879e-06 6.65029e-07 0 -1.63476e-06 6.40772e-07 0 -1.29358e-06 6.21033e-07 0 -9.61911e-07 6.05754e-07 0 -6.37345e-07 5.94883e-07 0 -3.17496e-07 5.88378e-07 0 0 5.86213e-07 0 3.75918e-06 -4.28608e-06 0 5.41418e-08 -5.76409e-06 0 -4.44948e-06 -5.49281e-06 0 -8.02254e-06 -4.14208e-06 0 -1.02185e-05 -2.58778e-06 0 -1.13405e-05 -1.30862e-06 0 -1.17175e-05 -3.93226e-07 0 -1.16306e-05 2.13693e-07 0 -1.12548e-05 5.94649e-07 0 -1.07119e-05 8.20656e-07 0 -1.00764e-05 9.43334e-07 0 -9.39855e-06 9.98733e-07 0 -8.70917e-06 1.01088e-06 0 -8.02821e-06 9.95952e-07 0 -7.36757e-06 9.64606e-07 0 -6.73422e-06 9.23967e-07 0 -6.13165e-06 8.78729e-07 0 -5.56116e-06 8.32009e-07 0 -5.02257e-06 7.85844e-07 0 -4.51472e-06 7.41559e-07 0 -4.03586e-06 6.99992e-07 0 -3.58386e-06 6.6166e-07 0 -3.15636e-06 6.26861e-07 0 -2.75089e-06 5.95752e-07 0 -2.36493e-06 5.68398e-07 0 -1.99595e-06 5.44807e-07 0 -1.64142e-06 5.24952e-07 0 -1.29888e-06 5.08793e-07 0 -9.65872e-07 4.96285e-07 0 -6.39977e-07 4.87384e-07 0 -3.18809e-07 4.82058e-07 0 0 4.80285e-07 0 3.73288e-06 -3.59023e-06 0 -9.12062e-08 -4.30517e-06 0 -4.19412e-06 -4.15653e-06 0 -7.56029e-06 -3.1939e-06 0 -9.79819e-06 -2.04011e-06 0 -1.10134e-05 -1.05763e-06 0 -1.1496e-05 -3.40809e-07 0 -1.14857e-05 1.40059e-07 0 -1.1167e-05 4.4447e-07 0 -1.06612e-05 6.2616e-07 0 -1.0051e-05 7.25816e-07 0 -9.38904e-06 7.71695e-07 0 -8.70997e-06 7.83055e-07 0 -8.03529e-06 7.72687e-07 0 -7.3784e-06 7.49149e-07 0 -6.74705e-06 7.18089e-07 0 -6.14535e-06 6.83272e-07 0 -5.57497e-06 6.47173e-07 0 -5.036e-06 6.11423e-07 0 -4.52745e-06 5.77077e-07 0 -4.04771e-06 5.44808e-07 0 -3.5947e-06 5.1503e-07 0 -3.16613e-06 4.87983e-07 0 -2.75955e-06 4.63795e-07 0 -2.37248e-06 4.42521e-07 0 -2.00238e-06 4.24169e-07 0 -1.64676e-06 4.08722e-07 0 -1.30313e-06 3.96149e-07 0 -9.69043e-07 3.86415e-07 0 -6.42084e-07 3.79489e-07 0 -3.19861e-07 3.75344e-07 0 0 3.73964e-07 0 3.16213e-06 -2.39864e-06 0 -2.05585e-07 -3.01114e-06 0 -4.00316e-06 -2.9043e-06 0 -7.24588e-06 -2.26622e-06 0 -9.48334e-06 -1.46982e-06 0 -1.07723e-05 -7.76104e-07 0 -1.13258e-05 -2.62043e-07 0 -1.1376e-05 8.60572e-08 0 -1.10989e-05 3.07683e-07 0 -1.06223e-05 4.40721e-07 0 -1.00309e-05 5.14135e-07 0 -9.3814e-06 5.48456e-07 0 -8.71014e-06 5.57583e-07 0 -8.04037e-06 5.50867e-07 0 -7.38635e-06 5.34502e-07 0 -6.75656e-06 5.12619e-07 0 -6.15554e-06 4.87947e-07 0 -5.58527e-06 4.62292e-07 0 -5.04604e-06 4.36841e-07 0 -4.53699e-06 4.12362e-07 0 -4.05658e-06 3.89346e-07 0 -3.60282e-06 3.68095e-07 0 -3.17345e-06 3.48786e-07 0 -2.76605e-06 3.31513e-07 0 -2.37814e-06 3.16318e-07 0 -2.00721e-06 3.03208e-07 0 -1.65076e-06 2.92172e-07 0 -1.30631e-06 2.83189e-07 0 -9.71422e-07 2.76234e-07 0 -6.43665e-07 2.71284e-07 0 -3.2065e-07 2.68322e-07 0 -6.681e-22 2.67336e-07 0 3.12137e-06 -1.50524e-06 0 -2.67325e-07 -1.77193e-06 0 -3.89694e-06 -1.71968e-06 0 -7.03815e-06 -1.3526e-06 0 -9.28109e-06 -8.86641e-07 0 -1.06097e-05 -4.73682e-07 0 -1.12126e-05 -1.64598e-07 0 -1.13012e-05 4.60057e-08 0 -1.10529e-05 1.8069e-07 0 -1.05955e-05 2.61781e-07 0 -1.00171e-05 3.06753e-07 0 -9.37599e-06 3.27954e-07 0 -8.7101e-06 3.3385e-07 0 -8.04362e-06 3.30092e-07 0 -7.39157e-06 3.20458e-07 0 -6.76284e-06 3.07448e-07 0 -6.1623e-06 2.92725e-07 0 -5.59212e-06 2.77385e-07 0 -5.05271e-06 2.62148e-07 0 -4.54333e-06 2.47482e-07 0 -4.06249e-06 2.33686e-07 0 -3.60823e-06 2.20943e-07 0 -3.17833e-06 2.09362e-07 0 -2.77038e-06 1.99e-07 0 -2.38191e-06 1.89884e-07 0 -2.01043e-06 1.82017e-07 0 -1.65343e-06 1.75395e-07 0 -1.30844e-06 1.70003e-07 0 -9.73009e-07 1.65829e-07 0 -6.4472e-07 1.62859e-07 0 -3.21176e-07 1.61081e-07 0 -3.41036e-21 1.60489e-07 0 2.9638e-06 -4.64093e-07 0 -3.00661e-07 -5.88937e-07 0 -3.84127e-06 -5.68667e-07 0 -6.94e-06 -4.4987e-07 0 -9.17941e-06 -2.96228e-07 0 -1.05294e-05 -1.59219e-07 0 -1.11553e-05 -5.60957e-08 0 -1.12638e-05 1.44056e-08 0 -1.10296e-05 5.95666e-08 0 -1.0582e-05 8.68221e-08 0 -1.00101e-05 1.01958e-07 0 -9.37321e-06 1.09133e-07 0 -8.71001e-06 1.11164e-07 0 -8.04521e-06 1.0996e-07 0 -7.39415e-06 1.06778e-07 0 -6.76597e-06 1.02462e-07 0 -6.16567e-06 9.75675e-08 0 -5.59554e-06 9.2463e-08 0 -5.05605e-06 8.73898e-08 0 -4.5465e-06 8.25049e-08 0 -4.06544e-06 7.79084e-08 0 -3.61094e-06 7.36621e-08 0 -3.18077e-06 6.98024e-08 0 -2.77254e-06 6.63488e-08 0 -2.3838e-06 6.331e-08 0 -2.01204e-06 6.06877e-08 0 -1.65476e-06 5.84801e-08 0 -1.3095e-06 5.66828e-08 0 -9.73802e-07 5.52913e-08 0 -6.45247e-07 5.4301e-08 0 -3.21439e-07 5.37083e-08 0 -2.02572e-22 5.35111e-08 0 2.9638e-06 4.64093e-07 0 -3.00661e-07 5.88937e-07 0 -3.84127e-06 5.68667e-07 0 -6.94e-06 4.4987e-07 0 -9.17941e-06 2.96228e-07 0 -1.05294e-05 1.59219e-07 0 -1.11553e-05 5.60957e-08 0 -1.12638e-05 -1.44056e-08 0 -1.10296e-05 -5.95666e-08 0 -1.0582e-05 -8.68221e-08 0 -1.00101e-05 -1.01958e-07 0 -9.37321e-06 -1.09133e-07 0 -8.71001e-06 -1.11164e-07 0 -8.04521e-06 -1.0996e-07 0 -7.39415e-06 -1.06778e-07 0 -6.76597e-06 -1.02462e-07 0 -6.16567e-06 -9.75675e-08 0 -5.59554e-06 -9.2463e-08 0 -5.05605e-06 -8.73898e-08 0 -4.5465e-06 -8.25049e-08 0 -4.06544e-06 -7.79084e-08 0 -3.61094e-06 -7.36621e-08 0 -3.18077e-06 -6.98024e-08 0 -2.77254e-06 -6.63488e-08 0 -2.3838e-06 -6.331e-08 0 -2.01204e-06 -6.06877e-08 0 -1.65476e-06 -5.84801e-08 0 -1.3095e-06 -5.66828e-08 0 -9.73802e-07 -5.52913e-08 0 -6.45247e-07 -5.4301e-08 0 -3.21439e-07 -5.37083e-08 0 0 -5.35111e-08 0 3.12137e-06 1.50524e-06 0 -2.67325e-07 1.77193e-06 0 -3.89694e-06 1.71968e-06 0 -7.03815e-06 1.3526e-06 0 -9.28109e-06 8.86641e-07 0 -1.06097e-05 4.73682e-07 0 -1.12126e-05 1.64598e-07 0 -1.13012e-05 -4.60057e-08 0 -1.10529e-05 -1.8069e-07 0 -1.05955e-05 -2.61781e-07 0 -1.00171e-05 -3.06753e-07 0 -9.37599e-06 -3.27954e-07 0 -8.7101e-06 -3.3385e-07 0 -8.04362e-06 -3.30092e-07 0 -7.39157e-06 -3.20458e-07 0 -6.76284e-06 -3.07448e-07 0 -6.1623e-06 -2.92725e-07 0 -5.59212e-06 -2.77385e-07 0 -5.05271e-06 -2.62148e-07 0 -4.54333e-06 -2.47482e-07 0 -4.06249e-06 -2.33686e-07 0 -3.60823e-06 -2.20943e-07 0 -3.17833e-06 -2.09362e-07 0 -2.77038e-06 -1.99e-07 0 -2.38191e-06 -1.89884e-07 0 -2.01043e-06 -1.82017e-07 0 -1.65343e-06 -1.75395e-07 0 -1.30844e-06 -1.70003e-07 0 -9.73009e-07 -1.65829e-07 0 -6.4472e-07 -1.62859e-07 0 -3.21176e-07 -1.61081e-07 0 0 -1.60489e-07 0 3.16213e-06 2.39864e-06 0 -2.05585e-07 3.01114e-06 0 -4.00316e-06 2.9043e-06 0 -7.24588e-06 2.26622e-06 0 -9.48334e-06 1.46982e-06 0 -1.07723e-05 7.76104e-07 0 -1.13258e-05 2.62043e-07 0 -1.1376e-05 -8.60572e-08 0 -1.10989e-05 -3.07683e-07 0 -1.06223e-05 -4.40721e-07 0 -1.00309e-05 -5.14135e-07 0 -9.3814e-06 -5.48456e-07 0 -8.71014e-06 -5.57583e-07 0 -8.04037e-06 -5.50867e-07 0 -7.38635e-06 -5.34502e-07 0 -6.75656e-06 -5.12619e-07 0 -6.15554e-06 -4.87947e-07 0 -5.58527e-06 -4.62292e-07 0 -5.04604e-06 -4.36841e-07 0 -4.53699e-06 -4.12362e-07 0 -4.05658e-06 -3.89346e-07 0 -3.60282e-06 -3.68095e-07 0 -3.17345e-06 -3.48786e-07 0 -2.76605e-06 -3.31513e-07 0 -2.37814e-06 -3.16318e-07 0 -2.00721e-06 -3.03208e-07 0 -1.65076e-06 -2.92172e-07 0 -1.30631e-06 -2.83189e-07 0 -9.71422e-07 -2.76234e-07 0 -6.43665e-07 -2.71284e-07 0 -3.2065e-07 -2.68322e-07 0 1.28085e-21 -2.67336e-07 0 3.73288e-06 3.59023e-06 0 -9.12062e-08 4.30517e-06 0 -4.19412e-06 4.15653e-06 0 -7.56029e-06 3.1939e-06 0 -9.79819e-06 2.04011e-06 0 -1.10134e-05 1.05763e-06 0 -1.1496e-05 3.40809e-07 0 -1.14857e-05 -1.40059e-07 0 -1.1167e-05 -4.4447e-07 0 -1.06612e-05 -6.2616e-07 0 -1.0051e-05 -7.25816e-07 0 -9.38904e-06 -7.71695e-07 0 -8.70997e-06 -7.83055e-07 0 -8.03529e-06 -7.72687e-07 0 -7.3784e-06 -7.49149e-07 0 -6.74705e-06 -7.18089e-07 0 -6.14535e-06 -6.83272e-07 0 -5.57497e-06 -6.47173e-07 0 -5.036e-06 -6.11423e-07 0 -4.52745e-06 -5.77077e-07 0 -4.04771e-06 -5.44808e-07 0 -3.5947e-06 -5.1503e-07 0 -3.16613e-06 -4.87983e-07 0 -2.75955e-06 -4.63795e-07 0 -2.37248e-06 -4.42521e-07 0 -2.00238e-06 -4.24169e-07 0 -1.64676e-06 -4.08722e-07 0 -1.30313e-06 -3.96149e-07 0 -9.69043e-07 -3.86415e-07 0 -6.42084e-07 -3.79489e-07 0 -3.19861e-07 -3.75344e-07 0 7.83604e-21 -3.73964e-07 0 3.75918e-06 4.28608e-06 0 5.41418e-08 5.76409e-06 0 -4.44948e-06 5.49281e-06 0 -8.02254e-06 4.14208e-06 0 -1.02185e-05 2.58778e-06 0 -1.13405e-05 1.30862e-06 0 -1.17175e-05 3.93226e-07 0 -1.16306e-05 -2.13693e-07 0 -1.12548e-05 -5.94649e-07 0 -1.07119e-05 -8.20656e-07 0 -1.00764e-05 -9.43334e-07 0 -9.39855e-06 -9.98733e-07 0 -8.70917e-06 -1.01088e-06 0 -8.02821e-06 -9.95952e-07 0 -7.36757e-06 -9.64606e-07 0 -6.73422e-06 -9.23967e-07 0 -6.13165e-06 -8.78729e-07 0 -5.56116e-06 -8.32009e-07 0 -5.02257e-06 -7.85844e-07 0 -4.51472e-06 -7.41559e-07 0 -4.03586e-06 -6.99992e-07 0 -3.58386e-06 -6.6166e-07 0 -3.15636e-06 -6.26861e-07 0 -2.75089e-06 -5.95752e-07 0 -2.36493e-06 -5.68398e-07 0 -1.99595e-06 -5.44807e-07 0 -1.64142e-06 -5.24952e-07 0 -1.29888e-06 -5.08793e-07 0 -9.65872e-07 -4.96285e-07 0 -6.39977e-07 -4.87384e-07 0 -3.18809e-07 -4.82058e-07 0 8.59372e-22 -4.80285e-07 0 5.08261e-06 5.95359e-06 0 2.9627e-07 7.32733e-06 0 -4.86853e-06 6.97327e-06 0 -8.61642e-06 5.10123e-06 0 -1.07736e-05 3.10271e-06 0 -1.17412e-05 1.51764e-06 0 -1.1994e-05 4.11068e-07 0 -1.18046e-05 -3.12062e-07 0 -1.13619e-05 -7.62021e-07 0 -1.07719e-05 -1.02634e-06 0 -1.01067e-05 -1.16829e-06 0 -9.40907e-06 -1.23044e-06 0 -8.70743e-06 -1.24169e-06 0 -8.01878e-06 -1.22099e-06 0 -7.3537e-06 -1.18108e-06 0 -6.71795e-06 -1.13033e-06 0 -6.11438e-06 -1.07434e-06 0 -5.5438e-06 -1.01677e-06 0 -5.00572e-06 -9.60053e-07 0 -4.49876e-06 -9.05735e-07 0 -4.02103e-06 -8.54815e-07 0 -3.5703e-06 -8.07896e-07 0 -3.14415e-06 -7.65328e-07 0 -2.74006e-06 -7.27292e-07 0 -2.3555e-06 -6.93858e-07 0 -1.9879e-06 -6.65029e-07 0 -1.63476e-06 -6.40772e-07 0 -1.29358e-06 -6.21033e-07 0 -9.61911e-07 -6.05754e-07 0 -6.37345e-07 -5.94883e-07 0 -3.17496e-07 -5.88378e-07 0 0 -5.86213e-07 0 5.05623e-06 5.83161e-06 0 5.69294e-07 9.32142e-06 0 -5.40268e-06 8.58807e-06 0 -9.43333e-06 6.07449e-06 0 -1.14374e-05 3.56439e-06 0 -1.22317e-05 1.67261e-06 0 -1.2312e-05 3.86581e-07 0 -1.20095e-05 -4.40937e-07 0 -1.14832e-05 -9.49404e-07 0 -1.0841e-05 -1.24566e-06 0 -1.014e-05 -1.40181e-06 0 -9.42017e-06 -1.46781e-06 0 -8.70406e-06 -1.47592e-06 0 -8.00675e-06 -1.44815e-06 0 -7.3365e-06 -1.39871e-06 0 -6.69809e-06 -1.33728e-06 0 -6.09343e-06 -1.27011e-06 0 -5.52283e-06 -1.20144e-06 0 -4.9854e-06 -1.13399e-06 0 -4.47954e-06 -1.06953e-06 0 -4.00319e-06 -1.00919e-06 0 -3.554e-06 -9.53647e-07 0 -3.12948e-06 -9.03291e-07 0 -2.72707e-06 -8.5832e-07 0 -2.34418e-06 -8.18805e-07 0 -1.97826e-06 -7.84743e-07 0 -1.62677e-06 -7.56089e-07 0 -1.28722e-06 -7.32776e-07 0 -9.57162e-07 -7.14733e-07 0 -6.3419e-07 -7.01896e-07 0 -3.15922e-07 -6.94216e-07 0 0 -6.91659e-07 0 7.83453e-06 8.91286e-06 0 9.98346e-07 1.1463e-05 0 -6.28496e-06 1.04665e-05 0 -1.04196e-05 7.01267e-06 0 -1.22659e-05 3.95767e-06 0 -1.2781e-05 1.75843e-06 0 -1.26809e-05 3.10797e-07 0 -1.22334e-05 -6.04074e-07 0 -1.16197e-05 -1.16071e-06 0 -1.0915e-05 -1.47981e-06 0 -1.01759e-05 -1.6455e-06 0 -9.4304e-06 -1.7113e-06 0 -8.69873e-06 -1.71418e-06 0 -7.99157e-06 -1.67759e-06 0 -7.31579e-06 -1.61768e-06 0 -6.67444e-06 -1.54481e-06 0 -6.06869e-06 -1.46605e-06 0 -5.49816e-06 -1.38596e-06 0 -4.96157e-06 -1.30758e-06 0 -4.45705e-06 -1.23286e-06 0 -3.98234e-06 -1.16303e-06 0 -3.53496e-06 -1.09882e-06 0 -3.11236e-06 -1.04065e-06 0 -2.7119e-06 -9.8874e-07 0 -2.33098e-06 -9.43146e-07 0 -1.96701e-06 -9.03857e-07 0 -1.61745e-06 -8.70813e-07 0 -1.2798e-06 -8.43934e-07 0 -9.51625e-07 -8.23134e-07 0 -6.30511e-07 -8.08337e-07 0 -3.14086e-07 -7.99484e-07 0 0 -7.96538e-07 0 8.56397e-06 5.67307e-06 0 1.39044e-06 1.48401e-05 0 -7.44349e-06 1.24596e-05 0 -1.17334e-05 7.92214e-06 0 -1.31954e-05 4.24073e-06 0 -1.34175e-05 1.76186e-06 0 -1.30752e-05 1.77387e-07 0 -1.24814e-05 -8.0795e-07 0 -1.17627e-05 -1.39674e-06 0 -1.09943e-05 -1.73163e-06 0 -1.02116e-05 -1.89949e-06 0 -9.43945e-06 -1.96203e-06 0 -8.69039e-06 -1.95652e-06 0 -7.97299e-06 -1.90971e-06 0 -7.29118e-06 -1.83798e-06 0 -6.64685e-06 -1.75301e-06 0 -6.04002e-06 -1.66209e-06 0 -5.46971e-06 -1.57028e-06 0 -4.93418e-06 -1.48076e-06 0 -4.43124e-06 -1.39565e-06 0 -3.95844e-06 -1.31624e-06 0 -3.51317e-06 -1.24332e-06 0 -3.09277e-06 -1.17732e-06 0 -2.69456e-06 -1.11846e-06 0 -2.31589e-06 -1.06679e-06 0 -1.95416e-06 -1.02228e-06 0 -1.6068e-06 -9.84852e-07 0 -1.27133e-06 -9.54417e-07 0 -9.45305e-07 -9.30868e-07 0 -6.26312e-07 -9.14118e-07 0 -3.11991e-07 -9.04097e-07 0 0 -9.00762e-07 0 1.38701e-05 1.37431e-05 0 1.75511e-06 1.83081e-05 0 -9.26265e-06 1.48755e-05 0 -1.32883e-05 8.64282e-06 0 -1.42891e-05 4.4048e-06 0 -1.40934e-05 1.66414e-06 0 -1.35067e-05 -2.40192e-08 0 -1.27368e-05 -1.0521e-06 0 -1.1914e-05 -1.66307e-06 0 -1.10734e-05 -1.99987e-06 0 -1.02469e-05 -2.1662e-06 0 -9.44544e-06 -2.21943e-06 0 -8.67873e-06 -2.20383e-06 0 -7.95033e-06 -2.14426e-06 0 -7.26243e-06 -2.05987e-06 0 -6.61505e-06 -1.96177e-06 0 -6.00729e-06 -1.85826e-06 0 -5.43739e-06 -1.75431e-06 0 -4.90316e-06 -1.65345e-06 0 -4.40208e-06 -1.55779e-06 0 -3.93149e-06 -1.46873e-06 0 -3.48862e-06 -1.38704e-06 0 -3.07072e-06 -1.3132e-06 0 -2.67505e-06 -1.24738e-06 0 -2.29892e-06 -1.18963e-06 0 -1.93971e-06 -1.13991e-06 0 -1.59484e-06 -1.09812e-06 0 -1.26182e-06 -1.06413e-06 0 -9.38202e-07 -1.03785e-06 0 -6.21595e-07 -1.01915e-06 0 -3.09638e-07 -1.00797e-06 0 0 -1.00424e-06 0 2.31823e-05 1.12605e-07 0 1.55726e-06 2.56194e-05 0 -1.18923e-05 1.69406e-05 0 -1.51556e-05 9.26206e-06 0 -1.55031e-05 4.36085e-06 0 -1.48079e-05 1.4582e-06 0 -1.39583e-05 -2.93824e-07 0 -1.29967e-05 -1.34717e-06 0 -1.20676e-05 -1.95466e-06 0 -1.11504e-05 -2.29007e-06 0 -1.02795e-05 -2.44303e-06 0 -9.44741e-06 -2.48573e-06 0 -8.66285e-06 -2.45507e-06 0 -7.9231e-06 -2.38202e-06 0 -7.2292e-06 -2.28294e-06 0 -6.57884e-06 -2.17126e-06 0 -5.97036e-06 -2.05437e-06 0 -5.4011e-06 -1.93804e-06 0 -4.86846e-06 -1.82553e-06 0 -4.36954e-06 -1.71921e-06 0 -3.90145e-06 -1.62038e-06 0 -3.46129e-06 -1.5299e-06 0 -3.0462e-06 -1.44818e-06 0 -2.65337e-06 -1.3754e-06 0 -2.28008e-06 -1.31158e-06 0 -1.92366e-06 -1.25666e-06 0 -1.58156e-06 -1.21051e-06 0 -1.25126e-06 -1.173e-06 0 -9.30322e-07 -1.14398e-06 0 -6.1636e-07 -1.12335e-06 0 -3.07027e-07 -1.11101e-06 0 0 -1.1069e-06 0 2.81422e-05 3.24125e-05 0 -8.22341e-07 3.17623e-05 0 -1.49514e-05 1.95389e-05 0 -1.77079e-05 9.32387e-06 0 -1.65922e-05 4.16168e-06 0 -1.56585e-05 1.12089e-06 0 -1.43563e-05 -6.4865e-07 0 -1.32868e-05 -1.67928e-06 0 -1.22021e-05 -2.2854e-06 0 -1.12314e-05 -2.59339e-06 0 -1.03032e-05 -2.73639e-06 0 -9.4464e-06 -2.75721e-06 0 -8.64083e-06 -2.71266e-06 0 -7.89134e-06 -2.62158e-06 0 -7.19084e-06 -2.50798e-06 0 -6.5381e-06 -2.38096e-06 0 -5.929e-06 -2.25059e-06 0 -5.36078e-06 -2.12123e-06 0 -4.83e-06 -1.99698e-06 0 -4.33357e-06 -1.87976e-06 0 -3.86831e-06 -1.77112e-06 0 -3.43118e-06 -1.67177e-06 0 -3.01921e-06 -1.58216e-06 0 -2.62952e-06 -1.50242e-06 0 -2.25936e-06 -1.43254e-06 0 -1.90603e-06 -1.37243e-06 0 -1.56697e-06 -1.32195e-06 0 -1.23966e-06 -1.28092e-06 0 -9.21666e-07 -1.24919e-06 0 -6.10612e-07 -1.22663e-06 0 -3.04159e-07 -1.21314e-06 0 0 -1.20864e-06 0 9.05552e-05 -8.40599e-06 0 -5.93529e-06 4.92518e-05 0 -2.09119e-05 1.95029e-05 0 -1.94905e-05 9.42815e-06 0 -1.82765e-05 3.57371e-06 0 -1.62068e-05 6.73312e-07 0 -1.49104e-05 -1.06814e-06 0 -1.34814e-05 -2.08004e-06 0 -1.23751e-05 -2.62944e-06 0 -1.12809e-05 -2.92846e-06 0 -1.03328e-05 -3.03401e-06 0 -9.43259e-06 -3.04148e-06 0 -8.61619e-06 -2.97189e-06 0 -7.85233e-06 -2.8656e-06 0 -7.14808e-06 -2.73329e-06 0 -6.49206e-06 -2.59167e-06 0 -5.88331e-06 -2.44631e-06 0 -5.31619e-06 -2.30403e-06 0 -4.78777e-06 -2.16752e-06 0 -4.29412e-06 -2.0394e-06 0 -3.83206e-06 -1.9208e-06 0 -3.39828e-06 -1.81258e-06 0 -2.98974e-06 -1.71504e-06 0 -2.60351e-06 -1.62834e-06 0 -2.23677e-06 -1.55242e-06 0 -1.88682e-06 -1.48714e-06 0 -1.55107e-06 -1.43233e-06 0 -1.22702e-06 -1.3878e-06 0 -9.1224e-07 -1.35337e-06 0 -6.04353e-07 -1.3289e-06 0 -3.01037e-07 -1.31426e-06 0 0 -1.30939e-06 0 -4.15794e-06 0.000122605 0 -2.66311e-05 5.70371e-05 0 -1.90395e-05 1.98923e-05 0 -2.67728e-05 8.37671e-06 0 -1.68982e-05 2.88413e-06 0 -1.84019e-05 6.80432e-08 0 -1.45386e-05 -1.58466e-06 0 -1.41451e-05 -2.50303e-06 0 -1.22789e-05 -3.02473e-06 0 -1.1455e-05 -3.26729e-06 0 -1.0284e-05 -3.35385e-06 0 -9.44712e-06 -3.32689e-06 0 -8.56659e-06 -3.23955e-06 0 -7.81631e-06 -3.1098e-06 0 -7.0952e-06 -2.96114e-06 0 -6.4431e-06 -2.80187e-06 0 -5.83189e-06 -2.64217e-06 0 -5.26782e-06 -2.4859e-06 0 -4.74144e-06 -2.33727e-06 0 -4.25127e-06 -2.1979e-06 0 -3.79262e-06 -2.06936e-06 0 -3.36258e-06 -1.95217e-06 0 -2.95779e-06 -1.84673e-06 0 -2.57533e-06 -1.75307e-06 0 -2.21231e-06 -1.67111e-06 0 -1.86603e-06 -1.60068e-06 0 -1.53388e-06 -1.54157e-06 0 -1.21336e-06 -1.49356e-06 0 -9.02049e-07 -1.45646e-06 0 -5.97586e-07 -1.43008e-06 0 -2.97662e-07 -1.4143e-06 0 0 -1.40906e-06 0 0.00117398 0.000377942 0 -2.16092e-05 6.00478e-05 0 -6.86505e-05 1.71117e-05 0 -3.18162e-06 6.91624e-06 0 -3.24067e-05 1.91505e-06 0 -1.14014e-05 -7.02154e-07 0 -1.89959e-05 -2.13238e-06 0 -1.22261e-05 -3.01057e-06 0 -1.34996e-05 -3.4187e-06 0 -1.0928e-05 -3.6456e-06 0 -1.05765e-05 -3.67097e-06 0 -9.27499e-06 -3.62866e-06 0 -8.5985e-06 -3.50569e-06 0 -7.72955e-06 -3.35981e-06 0 -7.05789e-06 -3.18787e-06 0 -6.37843e-06 -3.01343e-06 0 -5.78053e-06 -2.83686e-06 0 -5.21282e-06 -2.66736e-06 0 -4.69219e-06 -2.50573e-06 0 -4.20444e-06 -2.35534e-06 0 -3.7502e-06 -2.21658e-06 0 -3.32401e-06 -2.09049e-06 0 -2.92339e-06 -1.97709e-06 0 -2.54498e-06 -1.8765e-06 0 -2.18599e-06 -1.78852e-06 0 -1.84367e-06 -1.71297e-06 0 -1.51539e-06 -1.64958e-06 0 -1.19868e-06 -1.59812e-06 0 -8.91096e-07 -1.55834e-06 0 -5.90316e-07 -1.53008e-06 0 -2.94036e-07 -1.51318e-06 0 0 -1.50755e-06 0 -0.00672114 -0.000555106 0 -0.000228608 0.000100358 0 0.000165219 5.51412e-07 0 -0.000147961 8.30436e-06 0 4.4928e-05 -3.08806e-07 0 -5.41039e-05 -1.38394e-06 0 2.99075e-06 -2.70644e-06 0 -2.41308e-05 -3.65498e-06 0 -7.49915e-06 -3.75526e-06 0 -1.40922e-05 -4.10136e-06 0 -8.96681e-06 -3.95944e-06 0 -1.00472e-05 -3.9613e-06 0 -8.14535e-06 -3.76129e-06 0 -7.8711e-06 -3.62012e-06 0 -6.89943e-06 -3.41064e-06 0 -6.36336e-06 -3.22751e-06 0 -5.69811e-06 -3.02948e-06 0 -5.16542e-06 -2.84861e-06 0 -4.63353e-06 -2.67257e-06 0 -4.15639e-06 -2.51166e-06 0 -3.70363e-06 -2.36229e-06 0 -3.28298e-06 -2.22746e-06 0 -2.8864e-06 -2.106e-06 0 -2.51251e-06 -1.99855e-06 0 -2.15784e-06 -1.90454e-06 0 -1.81973e-06 -1.82391e-06 0 -1.49563e-06 -1.75626e-06 0 -1.18297e-06 -1.70137e-06 0 -8.79396e-07 -1.65895e-06 0 -5.82541e-07 -1.62882e-06 0 -2.90164e-07 -1.6108e-06 0 0 -1.6048e-06 0 </DataArray> 
</PointData> 
<Points> 
<DataArray type="Float32" NumberOfComponents="3"> 