<?xml version="1.0"?> 
<VTKFile type="StructuredGrid" version="0.1"> 
<StructuredGrid WholeExtent="0 31 0 31 0 0"> 
<Piece Extent="0 31 0 31 0 0"> 
<PointData>
<DataArray type="Float32" Name="B" format="ascii" NumberOfComponents="3"> 
0.00558344 -0.00164791 0 0.000446418 -1.27462e-05 0 3.79076e-05 -8.54591e-05 0 0.000192872 -4.83648e-05 0 4.06082e-05 -4.74986e-05 0 9.07742e-05 -3.97531e-05 0 4.35471e-05 -3.50771e-05 0 5.43481e-05 -3.1184e-05 0 3.81734e-05 -2.72293e-05 0 3.82738e-05 -2.43248e-05 0 3.14575e-05 -2.13788e-05 0 2.92303e-05 -1.90818e-05 0 2.54659e-05 -1.69081e-05 0 2.30841e-05 -1.51186e-05 0 2.05092e-05 -1.35003e-05 0 1.84344e-05 -1.21268e-05 0 1.64578e-05 -1.0912e-05 0 1.47227e-05 -9.86621e-06 0 1.31211e-05 -8.95093e-06 0 1.16698e-05 -8.15921e-06 0 1.03331e-05 -7.47103e-06 0 9.10259e-06 -6.87697e-06 0 7.96121e-06 -6.36508e-06 0 6.89759e-06 -5.92738e-06 0 5.90012e-06 -5.55614e-06 0 4.95866e-06 -5.24551e-06 0 4.06384e-06 -4.99037e-06 0 3.2069e-06 -4.78678e-06 0 2.3797e-06 -4.63156e-06 0 1.57442e-06 -4.52233e-06 0 7.8362e-07 -4.45745e-06 0 0 -4.43593e-06 0 0.000846518 0.00121194 0 0.000327043 -4.15223e-05 0 0.000186605 -2.83248e-05 0 0.000106499 -4.35267e-05 0 9.06251e-05 -3.79032e-05 0 6.62015e-05 -3.5665e-05 0 5.86879e-05 -3.20148e-05 0 4.828e-05 -2.85641e-05 0 4.30104e-05 -2.55613e-05 0 3.7267e-05 -2.2633e-05 0 3.32769e-05 -2.01772e-05 0 2.94526e-05 -1.79015e-05 0 2.63497e-05 -1.59661e-05 0 2.3512e-05 -1.42336e-05 0 2.10508e-05 -1.27426e-05 0 1.88241e-05 -1.14301e-05 0 1.68362e-05 -1.02935e-05 0 1.50335e-05 -9.30032e-06 0 1.33997e-05 -8.4385e-06 0 1.19078e-05 -7.68882e-06 0 1.05408e-05 -7.03938e-06 0 9.28118e-06 -6.47767e-06 0 8.11474e-06 -5.99432e-06 0 7.02833e-06 -5.58078e-06 0 6.01032e-06 -5.23026e-06 0 5.05011e-06 -4.93692e-06 0 4.13797e-06 -4.69608e-06 0 3.26489e-06 -4.5039e-06 0 2.42243e-06 -4.3574e-06 0 1.60256e-06 -4.25431e-06 0 7.97581e-07 -4.19308e-06 0 -6.3001e-20 -4.17278e-06 0 -1.63179e-05 0.000621486 0 0.000271518 8.63852e-05 0 0.000171585 -1.21026e-05 0 0.000110058 -2.79574e-05 0 8.81762e-05 -3.17287e-05 0 6.86739e-05 -3.09367e-05 0 5.87609e-05 -2.87812e-05 0 4.97693e-05 -2.62393e-05 0 4.36608e-05 -2.35752e-05 0 3.82606e-05 -2.11117e-05 0 3.3955e-05 -1.88098e-05 0 3.01648e-05 -1.67732e-05 0 2.69184e-05 -1.49481e-05 0 2.404e-05 -1.33526e-05 0 2.1497e-05 -1.19476e-05 0 1.92208e-05 -1.07236e-05 0 1.71782e-05 -9.65366e-06 0 1.53329e-05 -8.72276e-06 0 1.36592e-05 -7.91209e-06 0 1.21334e-05 -7.20813e-06 0 1.0736e-05 -6.59758e-06 0 9.44965e-06 -6.0699e-06 0 8.25931e-06 -5.61569e-06 0 7.15148e-06 -5.22726e-06 0 6.1141e-06 -4.89801e-06 0 5.13621e-06 -4.62254e-06 0 4.20777e-06 -4.39638e-06 0 3.31948e-06 -4.21595e-06 0 2.46266e-06 -4.07842e-06 0 1.62904e-06 -3.98165e-06 0 8.10724e-07 -3.92418e-06 0 -4.85654e-20 -3.90512e-06 0 7.31974e-05 0.000399555 0 0.000208432 0.000117078 0 0.000149342 9.31282e-06 0 0.000111084 -1.67505e-05 0 8.49625e-05 -2.50809e-05 0 7.02317e-05 -2.65123e-05 0 5.87702e-05 -2.56514e-05 0 5.08808e-05 -2.38164e-05 0 4.4292e-05 -2.16602e-05 0 3.90926e-05 -1.95045e-05 0 3.46038e-05 -1.74566e-05 0 3.08004e-05 -1.55941e-05 0 2.74563e-05 -1.39208e-05 0 2.45254e-05 -1.2441e-05 0 2.19167e-05 -1.11379e-05 0 1.95901e-05 -9.99704e-06 0 1.74991e-05 -9.00007e-06 0 1.56129e-05 -8.13097e-06 0 1.39025e-05 -7.37432e-06 0 1.23447e-05 -6.71683e-06 0 1.09189e-05 -6.14671e-06 0 9.60746e-06 -5.65391e-06 0 8.39473e-06 -5.22982e-06 0 7.26683e-06 -4.86715e-06 0 6.21129e-06 -4.55979e-06 0 5.21683e-06 -4.30267e-06 0 4.27311e-06 -4.09161e-06 0 3.37058e-06 -3.92324e-06 0 2.50031e-06 -3.79491e-06 0 1.65383e-06 -3.70463e-06 0 8.23024e-07 -3.65101e-06 0 0 -3.63323e-06 0 1.71151e-05 0.000256869 0 0.000153692 0.000118853 0 0.000133402 2.40466e-05 0 0.000104863 -7.51062e-06 0 8.37537e-05 -1.90182e-05 0 6.97413e-05 -2.2369e-05 0 5.92771e-05 -2.26007e-05 0 5.13976e-05 -2.1438e-05 0 4.50019e-05 -1.97361e-05 0 3.97309e-05 -1.78896e-05 0 3.52347e-05 -1.60791e-05 0 3.1357e-05 -1.43961e-05 0 2.79622e-05 -1.28704e-05 0 2.49685e-05 -1.15107e-05 0 2.23083e-05 -1.03095e-05 0 1.99319e-05 -9.25484e-06 0 1.7798e-05 -8.33208e-06 0 1.58732e-05 -7.52683e-06 0 1.4129e-05 -6.82549e-06 0 1.25413e-05 -6.21588e-06 0 1.10891e-05 -5.68725e-06 0 9.75431e-06 -5.23032e-06 0 8.52074e-06 -4.83712e-06 0 7.37414e-06 -4.50091e-06 0 6.3017e-06 -4.21601e-06 0 5.29181e-06 -3.9777e-06 0 4.33388e-06 -3.78211e-06 0 3.4181e-06 -3.62609e-06 0 2.53532e-06 -3.50719e-06 0 1.67688e-06 -3.42354e-06 0 8.34461e-07 -3.37387e-06 0 -7.94363e-22 -3.35739e-06 0 1.52389e-05 0.000192974 0 0.00011484 0.000107347 0 0.000116398 3.26349e-05 0 9.82431e-05 -4.13169e-07 0 8.14508e-05 -1.37367e-05 0 6.90541e-05 -1.85673e-05 0 5.93961e-05 -1.96901e-05 0 5.18135e-05 -1.91172e-05 0 4.55553e-05 -1.78256e-05 0 4.03024e-05 -1.62699e-05 0 3.57877e-05 -1.46867e-05 0 3.18655e-05 -1.31805e-05 0 2.84211e-05 -1.18014e-05 0 2.53761e-05 -1.05628e-05 0 2.26677e-05 -9.46481e-06 0 2.02471e-05 -8.498e-06 0 1.80735e-05 -7.65103e-06 0 1.61135e-05 -6.91115e-06 0 1.43381e-05 -6.26648e-06 0 1.27228e-05 -5.70595e-06 0 1.12464e-05 -5.21984e-06 0 9.88993e-06 -4.79965e-06 0 8.63711e-06 -4.4381e-06 0 7.47323e-06 -4.12897e-06 0 6.38517e-06 -3.86705e-06 0 5.36103e-06 -3.64799e-06 0 4.38997e-06 -3.46821e-06 0 3.46196e-06 -3.32482e-06 0 2.56763e-06 -3.21555e-06 0 1.69815e-06 -3.13869e-06 0 8.45014e-07 -3.09304e-06 0 -5.55734e-20 -3.0779e-06 0 6.67776e-06 0.000143399 0 8.76133e-05 9.38534e-05 0 0.000101087 3.59823e-05 0 9.11725e-05 4.75398e-06 0 7.87142e-05 -9.3713e-06 0 6.80347e-05 -1.51484e-05 0 5.93018e-05 -1.69552e-05 0 5.20787e-05 -1.68759e-05 0 4.6001e-05 -1.59387e-05 0 4.07917e-05 -1.46545e-05 0 3.62758e-05 -1.32836e-05 0 3.23211e-05 -1.19513e-05 0 2.88359e-05 -1.07161e-05 0 2.57464e-05 -9.59953e-06 0 2.29953e-05 -8.60533e-06 0 2.05349e-05 -7.72794e-06 0 1.83254e-05 -6.95804e-06 0 1.63332e-05 -6.28494e-06 0 1.45294e-05 -5.69811e-06 0 1.2889e-05 -5.18776e-06 0 1.13903e-05 -4.74511e-06 0 1.00141e-05 -4.36249e-06 0 8.7436e-06 -4.03326e-06 0 7.5639e-06 -3.7518e-06 0 6.46154e-06 -3.51335e-06 0 5.42436e-06 -3.31393e-06 0 4.44129e-06 -3.15028e-06 0 3.50208e-06 -3.01977e-06 0 2.59719e-06 -2.92032e-06 0 1.7176e-06 -2.85037e-06 0 8.54667e-07 -2.80882e-06 0 -2.58325e-20 -2.79505e-06 0 5.91192e-06 0.000112097 0 6.87675e-05 7.99359e-05 0 8.77222e-05 3.60167e-05 0 8.43863e-05 8.08747e-06 0 7.56659e-05 -5.89374e-06 0 6.68411e-05 -1.2147e-05 0 5.9017e-05 -1.44214e-05 0 5.22301e-05 -1.47241e-05 0 4.63448e-05 -1.40885e-05 0 4.12075e-05 -1.30472e-05 0 3.67003e-05 -1.18759e-05 0 3.27255e-05 -1.07108e-05 0 2.92066e-05 -9.61754e-06 0 2.60794e-05 -8.62247e-06 0 2.32906e-05 -7.73289e-06 0 2.07949e-05 -6.9459e-06 0 1.85532e-05 -6.25431e-06 0 1.65322e-05 -5.64914e-06 0 1.47027e-05 -5.12127e-06 0 1.30395e-05 -4.66207e-06 0 1.15206e-05 -4.26373e-06 0 1.01265e-05 -3.9194e-06 0 8.84003e-06 -3.62313e-06 0 7.646e-06 -3.36986e-06 0 6.53068e-06 -3.15531e-06 0 5.48169e-06 -2.97589e-06 0 4.48774e-06 -2.82867e-06 0 3.53839e-06 -2.71127e-06 0 2.62394e-06 -2.62181e-06 0 1.73521e-06 -2.5589e-06 0 8.63402e-07 -2.52153e-06 0 0 -2.50914e-06 0 4.14762e-06 8.84951e-05 0 5.55311e-05 6.71552e-05 0 7.66591e-05 3.38856e-05 0 7.80766e-05 9.89657e-06 0 7.25952e-05 -3.25565e-06 0 6.55272e-05 -9.56754e-06 0 5.86166e-05 -1.20979e-05 0 5.22808e-05 -1.2672e-05 0 4.66062e-05 -1.22806e-05 0 4.15533e-05 -1.14531e-05 0 3.7066e-05 -1.04666e-05 0 3.30792e-05 -9.46204e-06 0 2.95338e-05 -8.50782e-06 0 2.63748e-05 -7.63362e-06 0 2.35535e-05 -6.84898e-06 0 2.10267e-05 -6.15325e-06 0 1.87565e-05 -5.54097e-06 0 1.67098e-05 -5.00476e-06 0 1.48574e-05 -4.53681e-06 0 1.3174e-05 -4.12962e-06 0 1.1637e-05 -3.77636e-06 0 1.02269e-05 -3.47098e-06 0 8.92621e-06 -3.20823e-06 0 7.71937e-06 -2.98363e-06 0 6.59247e-06 -2.79337e-06 0 5.53292e-06 -2.63428e-06 0 4.52924e-06 -2.50375e-06 0 3.57083e-06 -2.39967e-06 0 2.64784e-06 -2.32036e-06 0 1.75093e-06 -2.26459e-06 0 8.71206e-07 -2.23146e-06 0 0 -2.22048e-06 0 3.63389e-06 7.02027e-05 0 4.61446e-05 5.55789e-05 0 6.76929e-05 3.04756e-05 0 7.2474e-05 1.04785e-05 0 6.96535e-05 -1.36652e-06 0 6.41915e-05 -7.39381e-06 0 5.81462e-05 -9.98425e-06 0 5.22585e-05 -1.07223e-05 0 4.67977e-05 -1.05188e-05 0 4.18366e-05 -9.87522e-06 0 3.7376e-05 -9.05869e-06 0 3.3384e-05 -8.20725e-06 0 2.98182e-05 -7.38904e-06 0 2.66327e-05 -6.6347e-06 0 2.37836e-05 -5.95516e-06 0 2.123e-05 -5.3513e-06 0 1.89351e-05 -4.81918e-06 0 1.68659e-05 -4.3528e-06 0 1.49935e-05 -3.9456e-06 0 1.32922e-05 -3.59118e-06 0 1.17394e-05 -3.28367e-06 0 1.03152e-05 -3.01783e-06 0 9.00197e-06 -2.7891e-06 0 7.78386e-06 -2.59359e-06 0 6.64678e-06 -2.42798e-06 0 5.57794e-06 -2.28951e-06 0 4.56571e-06 -2.1759e-06 0 3.59935e-06 -2.08532e-06 0 2.66884e-06 -2.0163e-06 0 1.76476e-06 -1.96777e-06 0 8.78063e-07 -1.93894e-06 0 0 -1.92939e-06 0 2.99244e-06 5.54907e-05 0 3.94121e-05 4.51577e-05 0 6.06009e-05 2.63288e-05 0 6.76622e-05 1.01185e-05 0 6.69766e-05 -1.21439e-07 0 6.2908e-05 -5.59215e-06 0 5.76544e-05 -8.06981e-06 0 5.21868e-05 -8.87321e-06 0 4.69332e-05 -8.80369e-06 0 4.20639e-05 -8.31531e-06 0 3.76338e-05 -7.65396e-06 0 3.36415e-05 -6.94839e-06 0 3.00603e-05 -6.26297e-06 0 2.68533e-05 -5.62737e-06 0 2.3981e-05 -5.05288e-06 0 2.14047e-05 -4.54137e-06 0 1.90886e-05 -4.09008e-06 0 1.70002e-05 -3.69426e-06 0 1.51105e-05 -3.34853e-06 0 1.33939e-05 -3.04755e-06 0 1.18275e-05 -2.78636e-06 0 1.03912e-05 -2.56056e-06 0 9.06718e-06 -2.36629e-06 0 7.83937e-06 -2.20023e-06 0 6.69352e-06 -2.05957e-06 0 5.61669e-06 -1.94198e-06 0 4.5971e-06 -1.8455e-06 0 3.62388e-06 -1.76858e-06 0 2.68691e-06 -1.70997e-06 0 1.77665e-06 -1.66876e-06 0 8.83963e-07 -1.64428e-06 0 0 -1.63617e-06 0 2.6421e-06 4.29527e-05 0 3.45769e-05 3.57085e-05 0 5.51087e-05 2.17821e-05 0 6.3685e-05 9.0581e-06 0 6.46506e-05 5.90635e-07 0 6.17453e-05 -4.11687e-06 0 5.71808e-05 -6.33614e-06 0 5.2089e-05 -7.11753e-06 0 4.70247e-05 -7.13307e-06 0 4.22419e-05 -6.77345e-06 0 3.78428e-05 -6.25352e-06 0 3.38531e-05 -5.68696e-06 0 3.02608e-05 -5.13119e-06 0 2.70368e-05 -4.61316e-06 0 2.41455e-05 -4.14356e-06 0 2.15505e-05 -3.72472e-06 0 1.92168e-05 -3.35481e-06 0 1.71124e-05 -3.03017e-06 0 1.52084e-05 -2.7465e-06 0 1.3479e-05 -2.49949e-06 0 1.19012e-05 -2.28513e-06 0 1.04548e-05 -2.0998e-06 0 9.1217e-06 -1.94034e-06 0 7.88578e-06 -1.80405e-06 0 6.7326e-06 -1.68861e-06 0 5.64909e-06 -1.5921e-06 0 4.62334e-06 -1.51293e-06 0 3.64439e-06 -1.4498e-06 0 2.70202e-06 -1.40171e-06 0 1.78659e-06 -1.36789e-06 0 8.88896e-07 -1.34781e-06 0 0 -1.34115e-06 0 2.36912e-06 3.20575e-05 0 3.11432e-05 2.70223e-05 0 5.09879e-05 1.70349e-05 0 6.05406e-05 7.49204e-06 0 6.27373e-05 8.79377e-07 0 6.07559e-05 -2.91457e-06 0 5.67602e-05 -4.75823e-06 0 5.19852e-05 -5.44408e-06 0 4.70836e-05 -5.5024e-06 0 4.23764e-05 -5.24841e-06 0 3.8006e-05 -4.85771e-06 0 3.40205e-05 -4.42402e-06 0 3.04203e-05 -3.99505e-06 0 2.71832e-05 -3.59348e-06 0 2.42771e-05 -3.22856e-06 0 2.16672e-05 -2.90262e-06 0 1.93196e-05 -2.6145e-06 0 1.72024e-05 -2.36152e-06 0 1.52869e-05 -2.14039e-06 0 1.35472e-05 -1.94782e-06 0 1.19603e-05 -1.78067e-06 0 1.05058e-05 -1.63616e-06 0 9.16545e-06 -1.51183e-06 0 7.92302e-06 -1.40556e-06 0 6.76395e-06 -1.31555e-06 0 5.67508e-06 -1.2403e-06 0 4.64439e-06 -1.17857e-06 0 3.66084e-06 -1.12936e-06 0 2.71414e-06 -1.09187e-06 0 1.79456e-06 -1.0655e-06 0 8.92852e-07 -1.04985e-06 0 0 -1.04465e-06 0 2.17224e-06 2.221e-05 0 2.8792e-05 1.89098e-05 0 4.80534e-05 1.21967e-05 0 5.82112e-05 5.57523e-06 0 6.12761e-05 8.48756e-07 0 5.99807e-05 -1.9272e-06 0 5.64205e-05 -3.30609e-06 0 5.18922e-05 -3.83813e-06 0 4.71191e-05 -3.90503e-06 0 4.24726e-05 -3.73774e-06 0 3.81259e-05 -3.46623e-06 0 3.41448e-05 -3.1603e-06 0 3.05395e-05 -2.85574e-06 0 2.72929e-05 -2.56965e-06 0 2.43758e-05 -2.3092e-06 0 2.17549e-05 -2.07629e-06 0 1.93968e-05 -1.87029e-06 0 1.727e-05 -1.68933e-06 0 1.53459e-05 -1.53112e-06 0 1.35985e-05 -1.39332e-06 0 1.20048e-05 -1.27371e-06 0 1.05441e-05 -1.17029e-06 0 9.19833e-06 -1.08131e-06 0 7.95101e-06 -1.00526e-06 0 6.78752e-06 -9.4085e-07 0 5.69461e-06 -8.87004e-07 0 4.66021e-06 -8.42832e-07 0 3.67321e-06 -8.07616e-07 0 2.72324e-06 -7.80789e-07 0 1.80056e-06 -7.61923e-07 0 8.95825e-07 -7.50721e-07 0 1.86684e-21 -7.47007e-07 0 2.0695e-06 1.3063e-05 0 2.73227e-05 1.11921e-05 0 4.61692e-05 7.32411e-06 0 5.66748e-05 3.43024e-06 0 6.02908e-05 5.96169e-07 0 5.94486e-05 -1.09434e-06 0 5.61823e-05 -1.94615e-06 0 5.18229e-05 -2.28231e-06 0 4.71386e-05 -2.33267e-06 0 4.25345e-05 -2.23805e-06 0 3.82046e-05 -2.07823e-06 0 3.4227e-05 -1.89625e-06 0 3.06186e-05 -1.71427e-06 0 2.73659e-05 -1.54293e-06 0 2.44416e-05 -1.38674e-06 0 2.18133e-05 -1.24697e-06 0 1.94483e-05 -1.12329e-06 0 1.73152e-05 -1.01461e-06 0 1.53853e-05 -9.19577e-07 0 1.36328e-05 -8.36798e-07 0 1.20345e-05 -7.64943e-07 0 1.05697e-05 -7.02815e-07 0 9.22029e-06 -6.49362e-07 0 7.9697e-06 -6.03674e-07 0 6.80325e-06 -5.64979e-07 0 5.70765e-06 -5.32632e-07 0 4.67078e-06 -5.06097e-07 0 3.68146e-06 -4.84943e-07 0 2.72932e-06 -4.68827e-07 0 1.80456e-06 -4.57495e-07 0 8.9781e-07 -4.50765e-07 0 9.53123e-21 -4.48534e-07 0 2.0068e-06 4.31494e-06 0 2.66154e-05 3.70516e-06 0 4.52488e-05 2.44192e-06 0 5.59117e-05 1.15715e-06 0 5.97953e-05 2.13073e-07 0 5.9178e-05 -3.54441e-07 0 5.60597e-05 -6.4242e-07 0 5.1786e-05 -7.57302e-07 0 4.7147e-05 -7.75809e-07 0 4.25647e-05 -7.45235e-07 0 3.82436e-05 -6.92483e-07 0 3.4268e-05 -6.32092e-07 0 3.06581e-05 -5.71559e-07 0 2.74024e-05 -5.14501e-07 0 2.44745e-05 -4.62452e-07 0 2.18426e-05 -4.15857e-07 0 1.94741e-05 -3.74614e-07 0 1.73378e-05 -3.38371e-07 0 1.5405e-05 -3.06677e-07 0 1.36499e-05 -2.79067e-07 0 1.20493e-05 -2.55101e-07 0 1.05826e-05 -2.34379e-07 0 9.23128e-06 -2.1655e-07 0 7.97905e-06 -2.01311e-07 0 6.81112e-06 -1.88405e-07 0 5.71418e-06 -1.77616e-07 0 4.67606e-06 -1.68765e-07 0 3.68559e-06 -1.6171e-07 0 2.73237e-06 -1.56335e-07 0 1.80656e-06 -1.52555e-07 0 8.98804e-07 -1.50311e-07 0 5.66201e-22 -1.49566e-07 0 2.0068e-06 -4.31494e-06 0 2.66154e-05 -3.70516e-06 0 4.52488e-05 -2.44192e-06 0 5.59117e-05 -1.15715e-06 0 5.97953e-05 -2.13073e-07 0 5.9178e-05 3.54441e-07 0 5.60597e-05 6.4242e-07 0 5.1786e-05 7.57302e-07 0 4.7147e-05 7.75809e-07 0 4.25647e-05 7.45235e-07 0 3.82436e-05 6.92483e-07 0 3.4268e-05 6.32092e-07 0 3.06581e-05 5.71559e-07 0 2.74024e-05 5.14501e-07 0 2.44745e-05 4.62452e-07 0 2.18426e-05 4.15857e-07 0 1.94741e-05 3.74614e-07 0 1.73378e-05 3.38371e-07 0 1.5405e-05 3.06677e-07 0 1.36499e-05 2.79067e-07 0 1.20493e-05 2.55101e-07 0 1.05826e-05 2.34379e-07 0 9.23128e-06 2.1655e-07 0 7.97905e-06 2.01311e-07 0 6.81112e-06 1.88405e-07 0 5.71418e-06 1.77616e-07 0 4.67606e-06 1.68765e-07 0 3.68559e-06 1.6171e-07 0 2.73237e-06 1.56335e-07 0 1.80656e-06 1.52555e-07 0 8.98804e-07 1.50311e-07 0 0 1.49566e-07 0 2.0695e-06 -1.3063e-05 0 2.73227e-05 -1.11921e-05 0 4.61692e-05 -7.32411e-06 0 5.66748e-05 -3.43024e-06 0 6.02908e-05 -5.96169e-07 0 5.94486e-05 1.09434e-06 0 5.61823e-05 1.94615e-06 0 5.18229e-05 2.28231e-06 0 4.71386e-05 2.33267e-06 0 4.25345e-05 2.23805e-06 0 3.82046e-05 2.07823e-06 0 3.4227e-05 1.89625e-06 0 3.06186e-05 1.71427e-06 0 2.73659e-05 1.54293e-06 0 2.44416e-05 1.38674e-06 0 2.18133e-05 1.24697e-06 0 1.94483e-05 1.12329e-06 0 1.73152e-05 1.01461e-06 0 1.53853e-05 9.19577e-07 0 1.36328e-05 8.36798e-07 0 1.20345e-05 7.64943e-07 0 1.05697e-05 7.02815e-07 0 9.22029e-06 6.49362e-07 0 7.9697e-06 6.03674e-07 0 6.80325e-06 5.64979e-07 0 5.70765e-06 5.32632e-07 0 4.67078e-06 5.06097e-07 0 3.68146e-06 4.84943e-07 0 2.72932e-06 4.68827e-07 0 1.80456e-06 4.57495e-07 0 8.9781e-07 4.50765e-07 0 0 4.48534e-07 0 2.17224e-06 -2.221e-05 0 2.8792e-05 -1.89098e-05 0 4.80534e-05 -1.21967e-05 0 5.82112e-05 -5.57523e-06 0 6.12761e-05 -8.48756e-07 0 5.99807e-05 1.9272e-06 0 5.64205e-05 3.30609e-06 0 5.18922e-05 3.83813e-06 0 4.71191e-05 3.90503e-06 0 4.24726e-05 3.73774e-06 0 3.81259e-05 3.46623e-06 0 3.41448e-05 3.1603e-06 0 3.05395e-05 2.85574e-06 0 2.72929e-05 2.56965e-06 0 2.43758e-05 2.3092e-06 0 2.17549e-05 2.07629e-06 0 1.93968e-05 1.87029e-06 0 1.727e-05 1.68933e-06 0 1.53459e-05 1.53112e-06 0 1.35985e-05 1.39332e-06 0 1.20048e-05 1.27371e-06 0 1.05441e-05 1.17029e-06 0 9.19833e-06 1.08131e-06 0 7.95101e-06 1.00526e-06 0 6.78752e-06 9.4085e-07 0 5.69461e-06 8.87004e-07 0 4.66021e-06 8.42832e-07 0 3.67321e-06 8.07616e-07 0 2.72324e-06 7.80789e-07 0 1.80056e-06 7.61923e-07 0 8.95825e-07 7.50721e-07 0 -3.57904e-21 7.47007e-07 0 2.36912e-06 -3.20575e-05 0 3.11432e-05 -2.70223e-05 0 5.09879e-05 -1.70349e-05 0 6.05406e-05 -7.49204e-06 0 6.27373e-05 -8.79377e-07 0 6.07559e-05 2.91457e-06 0 5.67602e-05 4.75823e-06 0 5.19852e-05 5.44408e-06 0 4.70836e-05 5.5024e-06 0 4.23764e-05 5.24841e-06 0 3.8006e-05 4.85771e-06 0 3.40205e-05 4.42402e-06 0 3.04203e-05 3.99505e-06 0 2.71832e-05 3.59348e-06 0 2.42771e-05 3.22856e-06 0 2.16672e-05 2.90262e-06 0 1.93196e-05 2.6145e-06 0 1.72024e-05 2.36152e-06 0 1.52869e-05 2.14039e-06 0 1.35472e-05 1.94782e-06 0 1.19603e-05 1.78067e-06 0 1.05058e-05 1.63616e-06 0 9.16545e-06 1.51183e-06 0 7.92302e-06 1.40556e-06 0 6.76395e-06 1.31555e-06 0 5.67508e-06 1.2403e-06 0 4.64439e-06 1.17857e-06 0 3.66084e-06 1.12936e-06 0 2.71414e-06 1.09187e-06 0 1.79456e-06 1.0655e-06 0 8.92852e-07 1.04985e-06 0 -2.18897e-20 1.04465e-06 0 2.6421e-06 -4.29527e-05 0 3.45769e-05 -3.57085e-05 0 5.51087e-05 -2.17821e-05 0 6.3685e-05 -9.0581e-06 0 6.46506e-05 -5.90635e-07 0 6.17453e-05 4.11687e-06 0 5.71808e-05 6.33614e-06 0 5.2089e-05 7.11753e-06 0 4.70247e-05 7.13307e-06 0 4.22419e-05 6.77345e-06 0 3.78428e-05 6.25352e-06 0 3.38531e-05 5.68696e-06 0 3.02608e-05 5.13119e-06 0 2.70368e-05 4.61316e-06 0 2.41455e-05 4.14356e-06 0 2.15505e-05 3.72472e-06 0 1.92168e-05 3.35481e-06 0 1.71124e-05 3.03017e-06 0 1.52084e-05 2.7465e-06 0 1.3479e-05 2.49949e-06 0 1.19012e-05 2.28513e-06 0 1.04548e-05 2.0998e-06 0 9.1217e-06 1.94034e-06 0 7.88578e-06 1.80405e-06 0 6.7326e-06 1.68861e-06 0 5.64909e-06 1.5921e-06 0 4.62334e-06 1.51293e-06 0 3.64439e-06 1.4498e-06 0 2.70202e-06 1.40171e-06 0 1.78659e-06 1.36789e-06 0 8.88896e-07 1.34781e-06 0 -2.39972e-21 1.34115e-06 0 2.99244e-06 -5.54907e-05 0 3.94121e-05 -4.51577e-05 0 6.06009e-05 -2.63288e-05 0 6.76622e-05 -1.01185e-05 0 6.69766e-05 1.21439e-07 0 6.2908e-05 5.59215e-06 0 5.76544e-05 8.06981e-06 0 5.21868e-05 8.87321e-06 0 4.69332e-05 8.80369e-06 0 4.20639e-05 8.31531e-06 0 3.76338e-05 7.65396e-06 0 3.36415e-05 6.94839e-06 0 3.00603e-05 6.26297e-06 0 2.68533e-05 5.62737e-06 0 2.3981e-05 5.05288e-06 0 2.14047e-05 4.54137e-06 0 1.90886e-05 4.09008e-06 0 1.70002e-05 3.69426e-06 0 1.51105e-05 3.34853e-06 0 1.33939e-05 3.04755e-06 0 1.18275e-05 2.78636e-06 0 1.03912e-05 2.56056e-06 0 9.06718e-06 2.36629e-06 0 7.83937e-06 2.20023e-06 0 6.69352e-06 2.05957e-06 0 5.61669e-06 1.94198e-06 0 4.5971e-06 1.8455e-06 0 3.62388e-06 1.76858e-06 0 2.68691e-06 1.70997e-06 0 1.77665e-06 1.66876e-06 0 8.83963e-07 1.64428e-06 0 0 1.63617e-06 0 3.63389e-06 -7.02027e-05 0 4.61446e-05 -5.55789e-05 0 6.76929e-05 -3.04756e-05 0 7.2474e-05 -1.04785e-05 0 6.96535e-05 1.36652e-06 0 6.41915e-05 7.39381e-06 0 5.81462e-05 9.98425e-06 0 5.22585e-05 1.07223e-05 0 4.67977e-05 1.05188e-05 0 4.18366e-05 9.87522e-06 0 3.7376e-05 9.05869e-06 0 3.3384e-05 8.20725e-06 0 2.98182e-05 7.38904e-06 0 2.66327e-05 6.6347e-06 0 2.37836e-05 5.95516e-06 0 2.123e-05 5.3513e-06 0 1.89351e-05 4.81918e-06 0 1.68659e-05 4.3528e-06 0 1.49935e-05 3.9456e-06 0 1.32922e-05 3.59118e-06 0 1.17394e-05 3.28367e-06 0 1.03152e-05 3.01783e-06 0 9.00197e-06 2.7891e-06 0 7.78386e-06 2.59359e-06 0 6.64678e-06 2.42798e-06 0 5.57794e-06 2.28951e-06 0 4.56571e-06 2.1759e-06 0 3.59935e-06 2.08532e-06 0 2.66884e-06 2.0163e-06 0 1.76476e-06 1.96777e-06 0 8.78063e-07 1.93894e-06 0 0 1.92939e-06 0 4.14762e-06 -8.84951e-05 0 5.55311e-05 -6.71552e-05 0 7.66591e-05 -3.38856e-05 0 7.80766e-05 -9.89657e-06 0 7.25952e-05 3.25565e-06 0 6.55272e-05 9.56754e-06 0 5.86166e-05 1.20979e-05 0 5.22808e-05 1.2672e-05 0 4.66062e-05 1.22806e-05 0 4.15533e-05 1.14531e-05 0 3.7066e-05 1.04666e-05 0 3.30792e-05 9.46204e-06 0 2.95338e-05 8.50782e-06 0 2.63748e-05 7.63362e-06 0 2.35535e-05 6.84898e-06 0 2.10267e-05 6.15325e-06 0 1.87565e-05 5.54097e-06 0 1.67098e-05 5.00476e-06 0 1.48574e-05 4.53681e-06 0 1.3174e-05 4.12962e-06 0 1.1637e-05 3.77636e-06 0 1.02269e-05 3.47098e-06 0 8.92621e-06 3.20823e-06 0 7.71937e-06 2.98363e-06 0 6.59247e-06 2.79337e-06 0 5.53292e-06 2.63428e-06 0 4.52924e-06 2.50375e-06 0 3.57083e-06 2.39967e-06 0 2.64784e-06 2.32036e-06 0 1.75093e-06 2.26459e-06 0 8.71206e-07 2.23146e-06 0 0 2.22048e-06 0 5.91192e-06 -0.000112097 0 6.87675e-05 -7.99359e-05 0 8.77222e-05 -3.60167e-05 0 8.43863e-05 -8.08747e-06 0 7.56659e-05 5.89374e-06 0 6.68411e-05 1.2147e-05 0 5.9017e-05 1.44214e-05 0 5.22301e-05 1.47241e-05 0 4.63448e-05 1.40885e-05 0 4.12075e-05 1.30472e-05 0 3.67003e-05 1.18759e-05 0 3.27255e-05 1.07108e-05 0 2.92066e-05 9.61754e-06 0 2.60794e-05 8.62247e-06 0 2.32906e-05 7.73289e-06 0 2.07949e-05 6.9459e-06 0 1.85532e-05 6.25431e-06 0 1.65322e-05 5.64914e-06 0 1.47027e-05 5.12127e-06 0 1.30395e-05 4.66207e-06 0 1.15206e-05 4.26373e-06 0 1.01265e-05 3.9194e-06 0 8.84003e-06 3.62313e-06 0 7.646e-06 3.36986e-06 0 6.53068e-06 3.15531e-06 0 5.48169e-06 2.97589e-06 0 4.48774e-06 2.82867e-06 0 3.53839e-06 2.71127e-06 0 2.62394e-06 2.62181e-06 0 1.73521e-06 2.5589e-06 0 8.63402e-07 2.52153e-06 0 0 2.50914e-06 0 6.67776e-06 -0.000143399 0 8.76133e-05 -9.38534e-05 0 0.000101087 -3.59823e-05 0 9.11725e-05 -4.75398e-06 0 7.87142e-05 9.3713e-06 0 6.80347e-05 1.51484e-05 0 5.93018e-05 1.69552e-05 0 5.20787e-05 1.68759e-05 0 4.6001e-05 1.59387e-05 0 4.07917e-05 1.46545e-05 0 3.62758e-05 1.32836e-05 0 3.23211e-05 1.19513e-05 0 2.88359e-05 1.07161e-05 0 2.57464e-05 9.59953e-06 0 2.29953e-05 8.60533e-06 0 2.05349e-05 7.72794e-06 0 1.83254e-05 6.95804e-06 0 1.63332e-05 6.28494e-06 0 1.45294e-05 5.69811e-06 0 1.2889e-05 5.18776e-06 0 1.13903e-05 4.74511e-06 0 1.00141e-05 4.36249e-06 0 8.7436e-06 4.03326e-06 0 7.5639e-06 3.7518e-06 0 6.46154e-06 3.51335e-06 0 5.42436e-06 3.31393e-06 0 4.44129e-06 3.15028e-06 0 3.50208e-06 3.01977e-06 0 2.59719e-06 2.92032e-06 0 1.7176e-06 2.85037e-06 0 8.54667e-07 2.80882e-06 0 0 2.79505e-06 0 1.52389e-05 -0.000192974 0 0.00011484 -0.000107347 0 0.000116398 -3.26349e-05 0 9.82431e-05 4.13169e-07 0 8.14508e-05 1.37367e-05 0 6.90541e-05 1.85673e-05 0 5.93961e-05 1.96901e-05 0 5.18135e-05 1.91172e-05 0 4.55553e-05 1.78256e-05 0 4.03024e-05 1.62699e-05 0 3.57877e-05 1.46867e-05 0 3.18655e-05 1.31805e-05 0 2.84211e-05 1.18014e-05 0 2.53761e-05 1.05628e-05 0 2.26677e-05 9.46481e-06 0 2.02471e-05 8.498e-06 0 1.80735e-05 7.65103e-06 0 1.61135e-05 6.91115e-06 0 1.43381e-05 6.26648e-06 0 1.27228e-05 5.70595e-06 0 1.12464e-05 5.21984e-06 0 9.88993e-06 4.79965e-06 0 8.63711e-06 4.4381e-06 0 7.47323e-06 4.12897e-06 0 6.38517e-06 3.86705e-06 0 5.36103e-06 3.64799e-06 0 4.38997e-06 3.46821e-06 0 3.46196e-06 3.32482e-06 0 2.56763e-06 3.21555e-06 0 1.69815e-06 3.13869e-06 0 8.45014e-07 3.09304e-06 0 0 3.0779e-06 0 1.71151e-05 -0.000256869 0 0.000153692 -0.000118853 0 0.000133402 -2.40466e-05 0 0.000104863 7.51062e-06 0 8.37537e-05 1.90182e-05 0 6.97413e-05 2.2369e-05 0 5.92771e-05 2.26007e-05 0 5.13976e-05 2.1438e-05 0 4.50019e-05 1.97361e-05 0 3.97309e-05 1.78896e-05 0 3.52347e-05 1.60791e-05 0 3.1357e-05 1.43961e-05 0 2.79622e-05 1.28704e-05 0 2.49685e-05 1.15107e-05 0 2.23083e-05 1.03095e-05 0 1.99319e-05 9.25484e-06 0 1.7798e-05 8.33208e-06 0 1.58732e-05 7.52683e-06 0 1.4129e-05 6.82549e-06 0 1.25413e-05 6.21588e-06 0 1.10891e-05 5.68725e-06 0 9.75431e-06 5.23032e-06 0 8.52074e-06 4.83712e-06 0 7.37414e-06 4.50091e-06 0 6.3017e-06 4.21601e-06 0 5.29181e-06 3.9777e-06 0 4.33388e-06 3.78211e-06 0 3.4181e-06 3.62609e-06 0 2.53532e-06 3.50719e-06 0 1.67688e-06 3.42354e-06 0 8.34461e-07 3.37387e-06 0 0 3.35739e-06 0 7.31974e-05 -0.000399555 0 0.000208432 -0.000117078 0 0.000149342 -9.31282e-06 0 0.000111084 1.67505e-05 0 8.49625e-05 2.50809e-05 0 7.02317e-05 2.65123e-05 0 5.87702e-05 2.56514e-05 0 5.08808e-05 2.38164e-05 0 4.4292e-05 2.16602e-05 0 3.90926e-05 1.95045e-05 0 3.46038e-05 1.74566e-05 0 3.08004e-05 1.55941e-05 0 2.74563e-05 1.39208e-05 0 2.45254e-05 1.2441e-05 0 2.19167e-05 1.11379e-05 0 1.95901e-05 9.99704e-06 0 1.74991e-05 9.00007e-06 0 1.56129e-05 8.13097e-06 0 1.39025e-05 7.37432e-06 0 1.23447e-05 6.71683e-06 0 1.09189e-05 6.14671e-06 0 9.60746e-06 5.65391e-06 0 8.39473e-06 5.22982e-06 0 7.26683e-06 4.86715e-06 0 6.21129e-06 4.55979e-06 0 5.21683e-06 4.30267e-06 0 4.27311e-06 4.09161e-06 0 3.37058e-06 3.92324e-06 0 2.50031e-06 3.79491e-06 0 1.65383e-06 3.70463e-06 0 8.23024e-07 3.65101e-06 0 0 3.63323e-06 0 -1.63179e-05 -0.000621486 0 0.000271518 -8.63852e-05 0 0.000171585 1.21026e-05 0 0.000110058 2.79574e-05 0 8.81762e-05 3.17287e-05 0 6.86739e-05 3.09367e-05 0 5.87609e-05 2.87812e-05 0 4.97693e-05 2.62393e-05 0 4.36608e-05 2.35752e-05 0 3.82606e-05 2.11117e-05 0 3.3955e-05 1.88098e-05 0 3.01648e-05 1.67732e-05 0 2.69184e-05 1.49481e-05 0 2.404e-05 1.33526e-05 0 2.1497e-05 1.19476e-05 0 1.92208e-05 1.07236e-05 0 1.71782e-05 9.65366e-06 0 1.53329e-05 8.72276e-06 0 1.36592e-05 7.91209e-06 0 1.21334e-05 7.20813e-06 0 1.0736e-05 6.59758e-06 0 9.44965e-06 6.0699e-06 0 8.25931e-06 5.61569e-06 0 7.15148e-06 5.22726e-06 0 6.1141e-06 4.89801e-06 0 5.13621e-06 4.62254e-06 0 4.20777e-06 4.39638e-06 0 3.31948e-06 4.21595e-06 0 2.46266e-06 4.07842e-06 0 1.62904e-06 3.98165e-06 0 8.10724e-07 3.92418e-06 0 0 3.90512e-06 0 0.000846518 -0.00121194 0 0.000327043 4.15223e-05 0 0.000186605 2.83248e-05 0 0.000106499 4.35267e-05 0 9.06251e-05 3.79032e-05 0 6.62015e-05 3.5665e-05 0 5.86879e-05 3.20148e-05 0 4.828e-05 2.85641e-05 0 4.30104e-05 2.55613e-05 0 3.7267e-05 2.2633e-05 0 3.32769e-05 2.01772e-05 0 2.94526e-05 1.79015e-05 0 2.63497e-05 1.59661e-05 0 2.3512e-05 1.42336e-05 0 2.10508e-05 1.27426e-05 0 1.88241e-05 1.14301e-05 0 1.68362e-05 1.02935e-05 0 1.50335e-05 9.30032e-06 0 1.33997e-05 8.4385e-06 0 1.19078e-05 7.68882e-06 0 1.05408e-05 7.03938e-06 0 9.28118e-06 6.47767e-06 0 8.11474e-06 5.99432e-06 0 7.02833e-06 5.58078e-06 0 6.01032e-06 5.23026e-06 0 5.05011e-06 4.93692e-06 0 4.13797e-06 4.69608e-06 0 3.26489e-06 4.5039e-06 0 2.42243e-06 4.3574e-06 0 1.60256e-06 4.25431e-06 0 7.97581e-07 4.19308e-06 0 0 4.17278e-06 0 0.00558344 0.00164791 0 0.000446418 1.27462e-05 0 3.79076e-05 8.54591e-05 0 0.000192872 4.83648e-05 0 4.06082e-05 4.74986e-05 0 9.07742e-05 3.97531e-05 0 4.35471e-05 3.50771e-05 0 5.43481e-05 3.1184e-05 0 3.81734e-05 2.72293e-05 0 3.82738e-05 2.43248e-05 0 3.14575e-05 2.13788e-05 0 2.92303e-05 1.90818e-05 0 2.54659e-05 1.69081e-05 0 2.30841e-05 1.51186e-05 0 2.05092e-05 1.35003e-05 0 1.84344e-05 1.21268e-05 0 1.64578e-05 1.0912e-05 0 1.47227e-05 9.86621e-06 0 1.31211e-05 8.95093e-06 0 1.16698e-05 8.15921e-06 0 1.03331e-05 7.47103e-06 0 9.10259e-06 6.87697e-06 0 7.96121e-06 6.36508e-06 0 6.89759e-06 5.92738e-06 0 5.90012e-06 5.55614e-06 0 4.95866e-06 5.24551e-06 0 4.06384e-06 4.99037e-06 0 3.2069e-06 4.78678e-06 0 2.3797e-06 4.63156e-06 0 1.57442e-06 4.52233e-06 0 7.8362e-07 4.45745e-06 0 0 4.43593e-06 0 </DataArray> 
</PointData> 
<Points> 
<DataArray type="Float32" NumberOfComponents="3"> 