<?xml version="1.0"?> 
<VTKFile type="StructuredGrid" version="0.1"> 
<StructuredGrid WholeExtent="0 31 0 31 0 0"> 
<Piece Extent="0 31 0 31 0 0"> 
<PointData>
<DataArray type="Float32" Name="B" format="ascii" NumberOfComponents="3"> 
0.00993279 0.000580419 0 0.00831434 -0.000550029 0 0.00867426 7.18403e-05 0 0.00655183 -3.07177e-05 0 0.00764773 5.66315e-06 0 0.00719473 -1.925e-07 0 0.00764483 -1.63201e-06 0 0.00761153 1.62314e-06 0 0.00779506 -1.86813e-06 0 0.00782861 4.59386e-07 0 0.00790131 -1.32806e-06 0 0.00792493 -2.23963e-07 0 0.00795035 -8.5675e-07 0 0.00795919 -3.54402e-07 0 0.00796559 -4.86809e-07 0 0.00796677 -2.2349e-07 0 0.00796677 -1.85886e-07 0 0.00796569 -1.26485e-09 0 0.00796438 6.68606e-08 0 0.00796373 2.60204e-07 0 0.00796253 2.777e-07 0 0.007964 5.80077e-07 0 0.00796186 4.4935e-07 0 0.00796932 1.02473e-06 0 0.0079611 7.14226e-07 0 0.00798902 1.6134e-06 0 0.00795722 2.11273e-06 0 0.00805708 1.66773e-06 0 0.00795156 1.15327e-05 0 0.00829686 -6.41923e-06 0 0.00834354 0.000157552 0 0.00604276 -0.000696429 0 -0.00293647 -0.00322794 0 -0.0016907 0.000251218 0 -0.00172979 -1.3135e-05 0 -0.00153464 1.55515e-05 0 -0.00166322 1.36088e-06 0 -0.00164475 3.94287e-06 0 -0.00170645 1.78634e-06 0 -0.00172416 1.59852e-06 0 -0.00175409 9.59544e-07 0 -0.00176978 6.83424e-07 0 -0.00178379 4.00716e-07 0 -0.00179224 2.53125e-07 0 -0.00179813 1.30831e-07 0 -0.00180161 6.90861e-08 0 -0.00180362 2.13148e-08 0 -0.0018046 2.4062e-09 0 -0.00180491 -1.94167e-08 0 -0.00180482 -1.57597e-08 0 -0.00180443 -4.20419e-08 0 -0.0018039 -1.19895e-08 0 -0.00180312 -7.59506e-08 0 -0.00180241 1.53177e-08 0 -0.00180119 -1.41439e-07 0 -0.00180065 7.12982e-08 0 -0.00179845 -2.00014e-07 0 -0.00179947 -9.96737e-09 0 -0.00179413 2.78689e-07 0 -0.00180209 -1.72518e-06 0 -0.00178535 5.3508e-06 0 -0.00181772 -1.9708e-05 0 -0.00179776 9.34246e-05 0 -0.00119688 -0.00108866 0 0.000250379 -0.00446118 0 0.000304783 0.00032429 0 0.000412681 -2.31706e-05 0 0.000322392 2.34568e-05 0 0.00036816 -3.80505e-07 0 0.000346333 1.89812e-06 0 0.000367101 8.16218e-07 0 0.000365238 -6.95632e-07 0 0.000374234 2.25022e-07 0 0.000376125 -6.78075e-07 0 0.000379992 -7.37379e-08 0 0.000381557 -3.94172e-07 0 0.000383136 -1.13694e-07 0 0.000383909 -1.89894e-07 0 0.000384469 -7.28159e-08 0 0.00038473 -7.58425e-08 0 0.000384851 -3.05518e-08 0 0.000384864 -1.73649e-08 0 0.00038479 -5.29278e-09 0 0.000384706 1.47723e-08 0 0.0003845 3.92793e-09 0 0.000384435 3.96972e-08 0 0.000383988 3.39848e-10 0 0.000384236 6.54762e-08 0 0.000383019 -4.28853e-09 0 0.000384694 5.43288e-08 0 0.000380677 9.52943e-08 0 0.000387825 -3.37801e-07 0 0.000373924 1.12955e-06 0 0.000397618 -4.13478e-06 0 0.000368477 2.49289e-05 0 5.2728e-06 -0.000204316 0 0.00019489 -0.0036824 0 -0.000151358 0.000216589 0 -9.83234e-05 -2.16557e-05 0 -8.22812e-05 2.32968e-05 0 -9.30571e-05 2.68085e-06 0 -9.26972e-05 4.20573e-06 0 -9.82452e-05 2.574e-06 0 -9.89682e-05 9.7706e-07 0 -0.000101454 1.2029e-06 0 -0.000102067 2.2121e-07 0 -0.000103066 3.99225e-07 0 -0.000103391 5.30107e-09 0 -0.000103736 7.75856e-08 0 -0.000103857 -4.70425e-08 0 -0.000103945 -1.70324e-08 0 -0.000103963 -4.62426e-08 0 -0.000103961 -3.3381e-08 0 -0.000103937 -3.42037e-08 0 -0.000103904 -3.44018e-08 0 -0.000103861 -2.39472e-08 0 -0.000103811 -4.28769e-08 0 -0.000103757 -1.38158e-08 0 -0.000103682 -6.61299e-08 0 -0.000103632 1.87589e-09 0 -0.000103503 -8.93883e-08 0 -0.000103519 -1.78512e-08 0 -0.000103288 4.28913e-08 0 -0.000103514 -4.93581e-07 0 -0.000103395 1.5581e-06 0 -0.000104586 -4.72819e-06 0 -0.000103472 3.06493e-05 0 -9.29347e-05 -0.000375081 0 0.000290653 -0.00354718 0 -1.09745e-05 0.000230028 0 1.56272e-05 -3.1779e-05 0 2.84564e-05 2.4972e-05 0 2.58214e-05 1.74866e-06 0 2.68446e-05 3.73716e-06 0 2.54795e-05 1.76899e-06 0 2.60713e-05 2.3146e-07 0 2.58793e-05 6.25184e-07 0 2.62474e-05 -2.83503e-07 0 2.63522e-05 7.27097e-08 0 2.65563e-05 -2.58357e-07 0 2.66653e-05 -7.40193e-08 0 2.67669e-05 -1.59957e-07 0 2.68279e-05 -7.22834e-08 0 2.68716e-05 -8.1734e-08 0 2.68955e-05 -4.18315e-08 0 2.69103e-05 -3.44121e-08 0 2.69123e-05 -1.94755e-08 0 2.69174e-05 -9.3663e-09 0 2.69021e-05 -1.1156e-08 0 2.69164e-05 4.75897e-09 0 2.68689e-05 -1.50922e-08 0 2.69325e-05 1.75039e-08 0 2.67877e-05 -2.45322e-08 0 2.70174e-05 2.5874e-08 0 2.65419e-05 5.73495e-10 0 2.72883e-05 -3.54473e-08 0 2.55559e-05 4.57089e-07 0 2.77915e-05 -1.08867e-07 0 2.72761e-05 6.74205e-06 0 -2.84445e-05 -8.08789e-05 0 0.000250155 -0.00299615 0 -2.54511e-05 0.000182957 0 -1.99324e-05 -3.26382e-05 0 1.42079e-06 2.19022e-05 0 -3.15008e-06 3.00653e-06 0 -8.61738e-09 4.54387e-06 0 -2.44474e-06 2.43387e-06 0 -1.85701e-06 9.0099e-07 0 -2.56679e-06 9.54596e-07 0 -2.42977e-06 6.04531e-08 0 -2.58336e-06 2.24068e-07 0 -2.53175e-06 -1.13346e-07 0 -2.54327e-06 -1.59469e-08 0 -2.51333e-06 -1.1037e-07 0 -2.49971e-06 -5.77263e-08 0 -2.48147e-06 -7.22146e-08 0 -2.46968e-06 -4.53378e-08 0 -2.45932e-06 -4.09227e-08 0 -2.45279e-06 -3.07098e-08 0 -2.44599e-06 -2.38299e-08 0 -2.44457e-06 -2.73367e-08 0 -2.43482e-06 -1.63026e-08 0 -2.44392e-06 -3.58166e-08 0 -2.41707e-06 -1.03684e-08 0 -2.46361e-06 -4.4623e-08 0 -2.38589e-06 -1.20842e-08 0 -2.5707e-06 2.80196e-08 0 -2.38475e-06 -1.29391e-07 0 -3.0607e-06 8.69742e-07 0 -2.30085e-06 -1.25832e-06 0 -1.34155e-06 1.02695e-05 0 -2.35199e-05 -0.000147425 0 0.000236152 -0.00271785 0 -1.90674e-05 0.000174461 0 -2.23806e-05 -3.43638e-05 0 -3.32737e-06 1.92962e-05 0 -6.02535e-06 2.71232e-06 0 -2.63332e-06 4.24203e-06 0 -4.46742e-06 2.23775e-06 0 -3.91569e-06 7.17918e-07 0 -4.52665e-06 7.8246e-07 0 -4.42736e-06 -7.1058e-08 0 -4.60011e-06 1.20032e-07 0 -4.57625e-06 -1.87491e-07 0 -4.61836e-06 -6.61554e-08 0 -4.60754e-06 -1.43951e-07 0 -4.61381e-06 -7.7026e-08 0 -4.60657e-06 -8.3361e-08 0 -4.60441e-06 -4.92175e-08 0 -4.59885e-06 -4.11175e-08 0 -4.59552e-06 -2.68524e-08 0 -4.58988e-06 -1.88935e-08 0 -4.5876e-06 -1.81463e-08 0 -4.57844e-06 -9.38148e-09 0 -4.58188e-06 -2.03474e-08 0 -4.56066e-06 -3.29231e-09 0 -4.59032e-06 -2.19656e-08 0 -4.53602e-06 7.55923e-09 0 -4.67151e-06 3.55623e-08 0 -4.54228e-06 3.07792e-08 0 -4.97468e-06 5.81138e-07 0 -4.16465e-06 -2.80108e-07 0 -3.60809e-06 3.60281e-06 0 -1.38827e-05 -5.54451e-05 0 0.000219086 -0.00233311 0 -3.51549e-06 0.000148356 0 -1.23306e-05 -3.23156e-05 0 3.65077e-06 1.58263e-05 0 2.02771e-06 2.81458e-06 0 5.95971e-06 4.25501e-06 0 4.81368e-06 2.40702e-06 0 5.64451e-06 9.47862e-07 0 5.28542e-06 8.68583e-07 0 5.49994e-06 5.92412e-08 0 5.41652e-06 1.59934e-07 0 5.47806e-06 -1.30311e-07 0 5.46264e-06 -5.02074e-08 0 5.48012e-06 -1.22972e-07 0 5.47781e-06 -7.27505e-08 0 5.48195e-06 -7.80662e-08 0 5.48095e-06 -5.01259e-08 0 5.48089e-06 -4.22799e-08 0 5.47891e-06 -3.01229e-08 0 5.47746e-06 -2.31223e-08 0 5.4732e-06 -2.29062e-08 0 5.4724e-06 -1.5761e-08 0 5.46142e-06 -2.61903e-08 0 5.46734e-06 -1.10616e-08 0 5.43049e-06 -2.59616e-08 0 5.4633e-06 1.93663e-09 0 5.32372e-06 5.17876e-08 0 5.45926e-06 2.35774e-08 0 5.06692e-06 6.41042e-07 0 6.00675e-06 -7.75717e-07 0 5.89857e-06 4.68902e-06 0 -8.71057e-06 -7.25588e-05 0 0.000204202 -0.00204155 0 -9.68313e-06 0.000132907 0 -2.00879e-05 -2.99221e-05 0 -6.11355e-06 1.29669e-05 0 -7.93894e-06 2.35592e-06 0 -3.77175e-06 3.86426e-06 0 -4.80712e-06 2.24769e-06 0 -3.94255e-06 8.94548e-07 0 -4.35879e-06 7.8799e-07 0 -4.19738e-06 4.10952e-08 0 -4.3534e-06 1.23834e-07 0 -4.34295e-06 -1.38648e-07 0 -4.40656e-06 -6.30875e-08 0 -4.42022e-06 -1.25651e-07 0 -4.44728e-06 -7.58222e-08 0 -4.45772e-06 -7.78937e-08 0 -4.46853e-06 -4.95652e-08 0 -4.47305e-06 -4.07927e-08 0 -4.47658e-06 -2.80159e-08 0 -4.47704e-06 -2.09037e-08 0 -4.47807e-06 -1.94191e-08 0 -4.47568e-06 -1.30422e-08 0 -4.47837e-06 -2.04505e-08 0 -4.47224e-06 -7.48251e-09 0 -4.48688e-06 -1.6528e-08 0 -4.47265e-06 1.36219e-08 0 -4.53464e-06 5.87066e-08 0 -4.47474e-06 8.11077e-08 0 -4.57487e-06 4.78506e-07 0 -4.00601e-06 -5.19048e-07 0 -4.05479e-06 2.64993e-06 0 -7.87079e-06 -4.14227e-05 0 0.000194749 -0.00172858 0 9.74851e-09 0.000112787 0 -1.13846e-05 -2.63321e-05 0 -5.1073e-09 1.03066e-05 0 -1.6657e-06 1.99898e-06 0 2.65451e-06 3.51036e-06 0 2.13943e-06 2.13829e-06 0 3.24907e-06 9.26134e-07 0 3.06571e-06 7.66169e-07 0 3.33285e-06 9.03371e-08 0 3.26077e-06 1.28134e-07 0 3.3043e-06 -1.08289e-07 0 3.26438e-06 -5.47707e-08 0 3.25592e-06 -1.1019e-07 0 3.23146e-06 -7.01495e-08 0 3.21787e-06 -7.11568e-08 0 3.20369e-06 -4.69535e-08 0 3.19427e-06 -3.85973e-08 0 3.18593e-06 -2.73133e-08 0 3.18007e-06 -2.09388e-08 0 3.17319e-06 -1.95103e-08 0 3.16943e-06 -1.41828e-08 0 3.1587e-06 -2.038e-08 0 3.15905e-06 -8.81028e-09 0 3.13226e-06 -1.46766e-08 0 3.14984e-06 1.50589e-08 0 3.07054e-06 6.34796e-08 0 3.18323e-06 7.87498e-08 0 3.03655e-06 4.13836e-07 0 3.66236e-06 -6.11604e-07 0 3.26581e-06 2.66149e-06 0 -5.15392e-06 -4.13547e-05 0 0.000185568 -0.00144891 0 -3.7223e-06 9.5621e-05 0 -1.49115e-05 -2.25661e-05 0 -4.77949e-06 8.11909e-06 0 -6.97269e-06 1.5313e-06 0 -2.66478e-06 3.00697e-06 0 -3.08617e-06 1.89183e-06 0 -1.90484e-06 8.45687e-07 0 -2.06899e-06 6.80984e-07 0 -1.80657e-06 8.86177e-08 0 -1.9021e-06 1.08948e-07 0 -1.88183e-06 -9.69273e-08 0 -1.94609e-06 -5.29245e-08 0 -1.97272e-06 -1.00042e-07 0 -2.01225e-06 -6.47723e-08 0 -2.03574e-06 -6.46409e-08 0 -2.05692e-06 -4.27691e-08 0 -2.07024e-06 -3.48552e-08 0 -2.08055e-06 -2.443e-08 0 -2.08689e-06 -1.86018e-08 0 -2.09272e-06 -1.68395e-08 0 -2.09552e-06 -1.22747e-08 0 -2.10222e-06 -1.6688e-08 0 -2.10171e-06 -6.72853e-09 0 -2.11627e-06 -9.18802e-09 0 -2.10387e-06 1.93319e-08 0 -2.13799e-06 6.28215e-08 0 -2.05314e-06 8.58158e-08 0 -2.07041e-06 3.05542e-07 0 -1.69125e-06 -4.81864e-07 0 -1.97313e-06 1.85539e-06 0 -5.12955e-06 -2.84047e-05 0 0.000179632 -0.00116927 0 4.79612e-07 7.7428e-05 0 -1.06226e-05 -1.8501e-05 0 -1.82623e-06 6.21771e-06 0 -4.22136e-06 1.15238e-06 0 2.61039e-08 2.4977e-06 0 -1.27505e-07 1.626e-06 0 1.20886e-06 7.60621e-07 0 1.19477e-06 5.97058e-07 0 1.52709e-06 9.71497e-08 0 1.48225e-06 9.83903e-08 0 1.52109e-06 -7.51644e-08 0 1.46784e-06 -4.417e-08 0 1.44179e-06 -8.34255e-08 0 1.40123e-06 -5.56082e-08 0 1.37413e-06 -5.50575e-08 0 1.34956e-06 -3.70845e-08 0 1.33252e-06 -3.01561e-08 0 1.31888e-06 -2.14065e-08 0 1.30922e-06 -1.64498e-08 0 1.30002e-06 -1.48635e-08 0 1.29395e-06 -1.11363e-08 0 1.28316e-06 -1.44822e-08 0 1.28129e-06 -6.00703e-09 0 1.26196e-06 -6.60671e-09 0 1.2795e-06 1.89101e-08 0 1.24257e-06 5.77293e-08 0 1.35624e-06 7.29761e-08 0 1.30359e-06 2.34705e-07 0 1.67151e-06 -4.33505e-07 0 1.28046e-06 1.58284e-06 0 -3.82718e-06 -2.41753e-05 0 0.000174442 -0.000903025 0 -9.93095e-07 6.01339e-05 0 -1.1695e-05 -1.44102e-05 0 -3.55605e-06 4.59611e-06 0 -6.33475e-06 8.04595e-07 0 -2.2078e-06 1.94422e-06 0 -2.29578e-06 1.29891e-06 0 -8.96968e-07 6.22947e-07 0 -8.63938e-07 4.82793e-07 0 -5.14146e-07 8.45551e-08 0 -5.56628e-07 7.8961e-08 0 -5.23642e-07 -5.91451e-08 0 -5.86069e-07 -3.6388e-08 0 -6.20794e-07 -6.72776e-08 0 -6.69197e-07 -4.53798e-08 0 -7.0213e-07 -4.4622e-08 0 -7.31104e-07 -3.01711e-08 0 -7.51001e-07 -2.44528e-08 0 -7.66425e-07 -1.73162e-08 0 -7.77092e-07 -1.32888e-08 0 -7.8643e-07 -1.18384e-08 0 -7.92708e-07 -8.90807e-09 0 -8.01998e-07 -1.11501e-08 0 -8.04025e-07 -4.39519e-09 0 -8.17076e-07 -3.63718e-09 0 -7.99555e-07 1.75966e-08 0 -8.13259e-07 4.88966e-08 0 -7.09011e-07 6.08097e-08 0 -7.21115e-07 1.64621e-07 0 -4.70132e-07 -3.2797e-07 0 -7.8991e-07 1.13018e-06 0 -3.78066e-06 -1.69943e-05 0 0.00017109 -0.000640122 0 5.55881e-07 4.27183e-05 0 -9.93731e-06 -1.0278e-05 0 -2.3788e-06 3.15446e-06 0 -5.34591e-06 5.28936e-07 0 -1.3223e-06 1.39205e-06 0 -1.29986e-06 9.5061e-07 0 1.79677e-07 4.67274e-07 0 2.94784e-07 3.58529e-07 0 6.84851e-07 6.87549e-08 0 6.69311e-07 5.96419e-08 0 7.118e-07 -4.09089e-08 0 6.53805e-07 -2.62993e-08 0 6.18288e-07 -4.86506e-08 0 5.6819e-07 -3.33256e-08 0 5.32566e-07 -3.2639e-08 0 5.01189e-07 -2.2271e-08 0 4.78986e-07 -1.80251e-08 0 4.61598e-07 -1.28446e-08 0 4.49145e-07 -9.88992e-09 0 4.38108e-07 -8.80256e-09 0 4.30281e-07 -6.68636e-09 0 4.19274e-07 -8.18691e-09 0 4.16408e-07 -3.1908e-09 0 4.02457e-07 -2.11974e-09 0 4.23484e-07 1.38339e-08 0 4.12354e-07 3.68997e-08 0 5.26569e-07 4.35038e-08 0 4.95805e-07 1.11042e-07 0 7.27346e-07 -2.41723e-07 0 3.83854e-07 8.16279e-07 0 -3.21543e-06 -1.22758e-05 0 0.000168726 -0.000382772 0 1.08331e-07 2.56087e-05 0 -1.01555e-05 -6.16237e-06 0 -2.87117e-06 1.8451e-06 0 -6.01961e-06 2.94856e-07 0 -2.08678e-06 8.32993e-07 0 -2.03594e-06 5.76852e-07 0 -5.23034e-07 2.87094e-07 0 -3.75807e-07 2.19293e-07 0 2.88884e-08 4.33563e-08 0 1.95212e-08 3.64232e-08 0 6.18618e-08 -2.46443e-08 0 1.24884e-09 -1.61892e-08 0 -3.76425e-08 -2.97036e-08 0 -9.1058e-08 -2.0452e-08 0 -1.29389e-07 -1.99788e-08 0 -1.62896e-07 -1.36514e-08 0 -1.86609e-07 -1.10364e-08 0 -2.05019e-07 -7.85151e-09 0 -2.1816e-07 -6.04355e-09 0 -2.29497e-07 -5.33801e-09 0 -2.3764e-07 -4.06322e-09 0 -2.48218e-07 -4.87145e-09 0 -2.51184e-07 -1.83547e-09 0 -2.62423e-07 -8.91904e-10 0 -2.40519e-07 8.95548e-09 0 -2.41951e-07 2.29823e-08 0 -1.31255e-07 2.65801e-08 0 -1.52793e-07 6.28141e-08 0 3.49879e-08 -1.42604e-07 0 -2.77772e-07 4.70357e-07 0 -3.16819e-06 -6.99359e-06 0 0.00016764 -0.000127164 0 4.88276e-07 8.50916e-06 0 -9.69063e-06 -2.0517e-06 0 -2.56639e-06 6.06666e-07 0 -5.78284e-06 9.54825e-08 0 -1.8946e-06 2.7805e-07 0 -1.81557e-06 1.94116e-07 0 -2.78097e-07 9.75737e-08 0 -1.04722e-07 7.42889e-08 0 3.1328e-07 1.52654e-08 0 3.12499e-07 1.24989e-08 0 3.57838e-07 -8.00024e-09 0 2.98427e-07 -5.36061e-09 0 2.59125e-07 -9.88909e-09 0 2.04996e-07 -6.86229e-09 0 1.65694e-07 -6.69471e-09 0 1.31331e-07 -4.60005e-09 0 1.06835e-07 -3.71669e-09 0 8.77735e-08 -2.65881e-09 0 7.40646e-08 -2.0496e-09 0 6.22066e-08 -1.81913e-09 0 5.36074e-08 -1.38797e-09 0 4.25685e-08 -1.66352e-09 0 3.94171e-08 -6.25892e-10 0 2.81894e-08 -2.96907e-10 0 5.13222e-08 3.05606e-09 0 5.13212e-08 7.75884e-09 0 1.64015e-07 8.73707e-09 0 1.36813e-07 2.06468e-08 0 3.16936e-07 -4.87084e-08 0 1.52697e-09 1.60664e-07 0 -3.0115e-06 -2.41088e-06 0 0.00016764 0.000127164 0 4.88276e-07 -8.50916e-06 0 -9.69063e-06 2.0517e-06 0 -2.56639e-06 -6.06666e-07 0 -5.78284e-06 -9.54825e-08 0 -1.8946e-06 -2.7805e-07 0 -1.81557e-06 -1.94116e-07 0 -2.78097e-07 -9.75737e-08 0 -1.04722e-07 -7.42889e-08 0 3.1328e-07 -1.52654e-08 0 3.12499e-07 -1.24989e-08 0 3.57838e-07 8.00024e-09 0 2.98427e-07 5.36061e-09 0 2.59125e-07 9.88909e-09 0 2.04996e-07 6.86229e-09 0 1.65694e-07 6.69471e-09 0 1.31331e-07 4.60005e-09 0 1.06835e-07 3.71669e-09 0 8.77735e-08 2.65881e-09 0 7.40646e-08 2.0496e-09 0 6.22066e-08 1.81913e-09 0 5.36074e-08 1.38797e-09 0 4.25685e-08 1.66352e-09 0 3.94171e-08 6.25892e-10 0 2.81894e-08 2.96907e-10 0 5.13222e-08 -3.05606e-09 0 5.13212e-08 -7.75884e-09 0 1.64015e-07 -8.73707e-09 0 1.36813e-07 -2.06468e-08 0 3.16936e-07 4.87084e-08 0 1.52697e-09 -1.60664e-07 0 -3.0115e-06 2.41088e-06 0 0.000168726 0.000382772 0 1.08331e-07 -2.56087e-05 0 -1.01555e-05 6.16237e-06 0 -2.87117e-06 -1.8451e-06 0 -6.01961e-06 -2.94856e-07 0 -2.08678e-06 -8.32993e-07 0 -2.03594e-06 -5.76852e-07 0 -5.23034e-07 -2.87094e-07 0 -3.75807e-07 -2.19293e-07 0 2.88884e-08 -4.33563e-08 0 1.95212e-08 -3.64232e-08 0 6.18618e-08 2.46443e-08 0 1.24884e-09 1.61892e-08 0 -3.76425e-08 2.97036e-08 0 -9.1058e-08 2.0452e-08 0 -1.29389e-07 1.99788e-08 0 -1.62896e-07 1.36514e-08 0 -1.86609e-07 1.10364e-08 0 -2.05019e-07 7.85151e-09 0 -2.1816e-07 6.04355e-09 0 -2.29497e-07 5.33801e-09 0 -2.3764e-07 4.06322e-09 0 -2.48218e-07 4.87145e-09 0 -2.51184e-07 1.83547e-09 0 -2.62423e-07 8.91904e-10 0 -2.40519e-07 -8.95548e-09 0 -2.41951e-07 -2.29823e-08 0 -1.31255e-07 -2.65801e-08 0 -1.52793e-07 -6.28141e-08 0 3.49879e-08 1.42604e-07 0 -2.77772e-07 -4.70357e-07 0 -3.16819e-06 6.99359e-06 0 0.00017109 0.000640122 0 5.55881e-07 -4.27183e-05 0 -9.93731e-06 1.0278e-05 0 -2.3788e-06 -3.15446e-06 0 -5.34591e-06 -5.28936e-07 0 -1.3223e-06 -1.39205e-06 0 -1.29986e-06 -9.5061e-07 0 1.79677e-07 -4.67274e-07 0 2.94784e-07 -3.58529e-07 0 6.84851e-07 -6.87549e-08 0 6.69311e-07 -5.96419e-08 0 7.118e-07 4.09089e-08 0 6.53805e-07 2.62993e-08 0 6.18288e-07 4.86506e-08 0 5.6819e-07 3.33256e-08 0 5.32566e-07 3.2639e-08 0 5.01189e-07 2.2271e-08 0 4.78986e-07 1.80251e-08 0 4.61598e-07 1.28446e-08 0 4.49145e-07 9.88992e-09 0 4.38108e-07 8.80256e-09 0 4.30281e-07 6.68636e-09 0 4.19274e-07 8.18691e-09 0 4.16408e-07 3.1908e-09 0 4.02457e-07 2.11974e-09 0 4.23484e-07 -1.38339e-08 0 4.12354e-07 -3.68997e-08 0 5.26569e-07 -4.35038e-08 0 4.95805e-07 -1.11042e-07 0 7.27346e-07 2.41723e-07 0 3.83854e-07 -8.16279e-07 0 -3.21543e-06 1.22758e-05 0 0.000174442 0.000903025 0 -9.93095e-07 -6.01339e-05 0 -1.1695e-05 1.44102e-05 0 -3.55605e-06 -4.59611e-06 0 -6.33475e-06 -8.04595e-07 0 -2.2078e-06 -1.94422e-06 0 -2.29578e-06 -1.29891e-06 0 -8.96968e-07 -6.22947e-07 0 -8.63938e-07 -4.82793e-07 0 -5.14146e-07 -8.45551e-08 0 -5.56628e-07 -7.8961e-08 0 -5.23642e-07 5.91451e-08 0 -5.86069e-07 3.6388e-08 0 -6.20794e-07 6.72776e-08 0 -6.69197e-07 4.53798e-08 0 -7.0213e-07 4.4622e-08 0 -7.31104e-07 3.01711e-08 0 -7.51001e-07 2.44528e-08 0 -7.66425e-07 1.73162e-08 0 -7.77092e-07 1.32888e-08 0 -7.8643e-07 1.18384e-08 0 -7.92708e-07 8.90807e-09 0 -8.01998e-07 1.11501e-08 0 -8.04025e-07 4.39519e-09 0 -8.17076e-07 3.63718e-09 0 -7.99555e-07 -1.75966e-08 0 -8.13259e-07 -4.88966e-08 0 -7.09011e-07 -6.08097e-08 0 -7.21115e-07 -1.64621e-07 0 -4.70132e-07 3.2797e-07 0 -7.8991e-07 -1.13018e-06 0 -3.78066e-06 1.69943e-05 0 0.000179632 0.00116927 0 4.79612e-07 -7.7428e-05 0 -1.06226e-05 1.8501e-05 0 -1.82623e-06 -6.21771e-06 0 -4.22136e-06 -1.15238e-06 0 2.61039e-08 -2.4977e-06 0 -1.27505e-07 -1.626e-06 0 1.20886e-06 -7.60621e-07 0 1.19477e-06 -5.97058e-07 0 1.52709e-06 -9.71497e-08 0 1.48225e-06 -9.83903e-08 0 1.52109e-06 7.51644e-08 0 1.46784e-06 4.417e-08 0 1.44179e-06 8.34255e-08 0 1.40123e-06 5.56082e-08 0 1.37413e-06 5.50575e-08 0 1.34956e-06 3.70845e-08 0 1.33252e-06 3.01561e-08 0 1.31888e-06 2.14065e-08 0 1.30922e-06 1.64498e-08 0 1.30002e-06 1.48635e-08 0 1.29395e-06 1.11363e-08 0 1.28316e-06 1.44822e-08 0 1.28129e-06 6.00703e-09 0 1.26196e-06 6.60671e-09 0 1.2795e-06 -1.89101e-08 0 1.24257e-06 -5.77293e-08 0 1.35624e-06 -7.29761e-08 0 1.30359e-06 -2.34705e-07 0 1.67151e-06 4.33505e-07 0 1.28046e-06 -1.58284e-06 0 -3.82718e-06 2.41753e-05 0 0.000185568 0.00144891 0 -3.7223e-06 -9.5621e-05 0 -1.49115e-05 2.25661e-05 0 -4.77949e-06 -8.11909e-06 0 -6.97269e-06 -1.5313e-06 0 -2.66478e-06 -3.00697e-06 0 -3.08617e-06 -1.89183e-06 0 -1.90484e-06 -8.45687e-07 0 -2.06899e-06 -6.80984e-07 0 -1.80657e-06 -8.86177e-08 0 -1.9021e-06 -1.08948e-07 0 -1.88183e-06 9.69273e-08 0 -1.94609e-06 5.29245e-08 0 -1.97272e-06 1.00042e-07 0 -2.01225e-06 6.47723e-08 0 -2.03574e-06 6.46409e-08 0 -2.05692e-06 4.27691e-08 0 -2.07024e-06 3.48552e-08 0 -2.08055e-06 2.443e-08 0 -2.08689e-06 1.86018e-08 0 -2.09272e-06 1.68395e-08 0 -2.09552e-06 1.22747e-08 0 -2.10222e-06 1.6688e-08 0 -2.10171e-06 6.72853e-09 0 -2.11627e-06 9.18802e-09 0 -2.10387e-06 -1.93319e-08 0 -2.13799e-06 -6.28215e-08 0 -2.05314e-06 -8.58158e-08 0 -2.07041e-06 -3.05542e-07 0 -1.69125e-06 4.81864e-07 0 -1.97313e-06 -1.85539e-06 0 -5.12955e-06 2.84047e-05 0 0.000194749 0.00172858 0 9.74851e-09 -0.000112787 0 -1.13846e-05 2.63321e-05 0 -5.1073e-09 -1.03066e-05 0 -1.6657e-06 -1.99898e-06 0 2.65451e-06 -3.51036e-06 0 2.13943e-06 -2.13829e-06 0 3.24907e-06 -9.26134e-07 0 3.06571e-06 -7.66169e-07 0 3.33285e-06 -9.03371e-08 0 3.26077e-06 -1.28134e-07 0 3.3043e-06 1.08289e-07 0 3.26438e-06 5.47707e-08 0 3.25592e-06 1.1019e-07 0 3.23146e-06 7.01495e-08 0 3.21787e-06 7.11568e-08 0 3.20369e-06 4.69535e-08 0 3.19427e-06 3.85973e-08 0 3.18593e-06 2.73133e-08 0 3.18007e-06 2.09388e-08 0 3.17319e-06 1.95103e-08 0 3.16943e-06 1.41828e-08 0 3.1587e-06 2.038e-08 0 3.15905e-06 8.81028e-09 0 3.13226e-06 1.46766e-08 0 3.14984e-06 -1.50589e-08 0 3.07054e-06 -6.34796e-08 0 3.18323e-06 -7.87498e-08 0 3.03655e-06 -4.13836e-07 0 3.66236e-06 6.11604e-07 0 3.26581e-06 -2.66149e-06 0 -5.15392e-06 4.13547e-05 0 0.000204202 0.00204155 0 -9.68313e-06 -0.000132907 0 -2.00879e-05 2.99221e-05 0 -6.11355e-06 -1.29669e-05 0 -7.93894e-06 -2.35592e-06 0 -3.77175e-06 -3.86426e-06 0 -4.80712e-06 -2.24769e-06 0 -3.94255e-06 -8.94548e-07 0 -4.35879e-06 -7.8799e-07 0 -4.19738e-06 -4.10952e-08 0 -4.3534e-06 -1.23834e-07 0 -4.34295e-06 1.38648e-07 0 -4.40656e-06 6.30875e-08 0 -4.42022e-06 1.25651e-07 0 -4.44728e-06 7.58222e-08 0 -4.45772e-06 7.78937e-08 0 -4.46853e-06 4.95652e-08 0 -4.47305e-06 4.07927e-08 0 -4.47658e-06 2.80159e-08 0 -4.47704e-06 2.09037e-08 0 -4.47807e-06 1.94191e-08 0 -4.47568e-06 1.30422e-08 0 -4.47837e-06 2.04505e-08 0 -4.47224e-06 7.48251e-09 0 -4.48688e-06 1.6528e-08 0 -4.47265e-06 -1.36219e-08 0 -4.53464e-06 -5.87066e-08 0 -4.47474e-06 -8.11077e-08 0 -4.57487e-06 -4.78506e-07 0 -4.00601e-06 5.19048e-07 0 -4.05479e-06 -2.64993e-06 0 -7.87079e-06 4.14227e-05 0 0.000219086 0.00233311 0 -3.51549e-06 -0.000148356 0 -1.23306e-05 3.23156e-05 0 3.65077e-06 -1.58263e-05 0 2.02771e-06 -2.81458e-06 0 5.95971e-06 -4.25501e-06 0 4.81368e-06 -2.40702e-06 0 5.64451e-06 -9.47862e-07 0 5.28542e-06 -8.68583e-07 0 5.49994e-06 -5.92412e-08 0 5.41652e-06 -1.59934e-07 0 5.47806e-06 1.30311e-07 0 5.46264e-06 5.02074e-08 0 5.48012e-06 1.22972e-07 0 5.47781e-06 7.27505e-08 0 5.48195e-06 7.80662e-08 0 5.48095e-06 5.01259e-08 0 5.48089e-06 4.22799e-08 0 5.47891e-06 3.01229e-08 0 5.47746e-06 2.31223e-08 0 5.4732e-06 2.29062e-08 0 5.4724e-06 1.5761e-08 0 5.46142e-06 2.61903e-08 0 5.46734e-06 1.10616e-08 0 5.43049e-06 2.59616e-08 0 5.4633e-06 -1.93663e-09 0 5.32372e-06 -5.17876e-08 0 5.45926e-06 -2.35774e-08 0 5.06692e-06 -6.41042e-07 0 6.00675e-06 7.75717e-07 0 5.89857e-06 -4.68902e-06 0 -8.71057e-06 7.25588e-05 0 0.000236152 0.00271785 0 -1.90674e-05 -0.000174461 0 -2.23806e-05 3.43638e-05 0 -3.32737e-06 -1.92962e-05 0 -6.02535e-06 -2.71232e-06 0 -2.63332e-06 -4.24203e-06 0 -4.46742e-06 -2.23775e-06 0 -3.91569e-06 -7.17918e-07 0 -4.52665e-06 -7.8246e-07 0 -4.42736e-06 7.1058e-08 0 -4.60011e-06 -1.20032e-07 0 -4.57625e-06 1.87491e-07 0 -4.61836e-06 6.61554e-08 0 -4.60754e-06 1.43951e-07 0 -4.61381e-06 7.7026e-08 0 -4.60657e-06 8.3361e-08 0 -4.60441e-06 4.92175e-08 0 -4.59885e-06 4.11175e-08 0 -4.59552e-06 2.68524e-08 0 -4.58988e-06 1.88935e-08 0 -4.5876e-06 1.81463e-08 0 -4.57844e-06 9.38148e-09 0 -4.58188e-06 2.03474e-08 0 -4.56066e-06 3.29231e-09 0 -4.59032e-06 2.19656e-08 0 -4.53602e-06 -7.55923e-09 0 -4.67151e-06 -3.55623e-08 0 -4.54228e-06 -3.07792e-08 0 -4.97468e-06 -5.81138e-07 0 -4.16465e-06 2.80108e-07 0 -3.60809e-06 -3.60281e-06 0 -1.38827e-05 5.54451e-05 0 0.000250155 0.00299615 0 -2.54511e-05 -0.000182957 0 -1.99324e-05 3.26382e-05 0 1.42079e-06 -2.19022e-05 0 -3.15008e-06 -3.00653e-06 0 -8.61738e-09 -4.54387e-06 0 -2.44474e-06 -2.43387e-06 0 -1.85701e-06 -9.0099e-07 0 -2.56679e-06 -9.54596e-07 0 -2.42977e-06 -6.04531e-08 0 -2.58336e-06 -2.24068e-07 0 -2.53175e-06 1.13346e-07 0 -2.54327e-06 1.59469e-08 0 -2.51333e-06 1.1037e-07 0 -2.49971e-06 5.77263e-08 0 -2.48147e-06 7.22146e-08 0 -2.46968e-06 4.53378e-08 0 -2.45932e-06 4.09227e-08 0 -2.45279e-06 3.07098e-08 0 -2.44599e-06 2.38299e-08 0 -2.44457e-06 2.73367e-08 0 -2.43482e-06 1.63026e-08 0 -2.44392e-06 3.58166e-08 0 -2.41707e-06 1.03684e-08 0 -2.46361e-06 4.4623e-08 0 -2.38589e-06 1.20842e-08 0 -2.5707e-06 -2.80196e-08 0 -2.38475e-06 1.29391e-07 0 -3.0607e-06 -8.69742e-07 0 -2.30085e-06 1.25832e-06 0 -1.34155e-06 -1.02695e-05 0 -2.35199e-05 0.000147425 0 0.000290653 0.00354718 0 -1.09745e-05 -0.000230028 0 1.56272e-05 3.1779e-05 0 2.84564e-05 -2.4972e-05 0 2.58214e-05 -1.74866e-06 0 2.68446e-05 -3.73716e-06 0 2.54795e-05 -1.76899e-06 0 2.60713e-05 -2.3146e-07 0 2.58793e-05 -6.25184e-07 0 2.62474e-05 2.83503e-07 0 2.63522e-05 -7.27097e-08 0 2.65563e-05 2.58357e-07 0 2.66653e-05 7.40193e-08 0 2.67669e-05 1.59957e-07 0 2.68279e-05 7.22834e-08 0 2.68716e-05 8.1734e-08 0 2.68955e-05 4.18315e-08 0 2.69103e-05 3.44121e-08 0 2.69123e-05 1.94755e-08 0 2.69174e-05 9.3663e-09 0 2.69021e-05 1.1156e-08 0 2.69164e-05 -4.75897e-09 0 2.68689e-05 1.50922e-08 0 2.69325e-05 -1.75039e-08 0 2.67877e-05 2.45322e-08 0 2.70174e-05 -2.5874e-08 0 2.65419e-05 -5.73495e-10 0 2.72883e-05 3.54473e-08 0 2.55559e-05 -4.57089e-07 0 2.77915e-05 1.08867e-07 0 2.72761e-05 -6.74205e-06 0 -2.84445e-05 8.08789e-05 0 0.00019489 0.0036824 0 -0.000151358 -0.000216589 0 -9.83234e-05 2.16557e-05 0 -8.22812e-05 -2.32968e-05 0 -9.30571e-05 -2.68085e-06 0 -9.26972e-05 -4.20573e-06 0 -9.82452e-05 -2.574e-06 0 -9.89682e-05 -9.7706e-07 0 -0.000101454 -1.2029e-06 0 -0.000102067 -2.2121e-07 0 -0.000103066 -3.99225e-07 0 -0.000103391 -5.30107e-09 0 -0.000103736 -7.75856e-08 0 -0.000103857 4.70425e-08 0 -0.000103945 1.70324e-08 0 -0.000103963 4.62426e-08 0 -0.000103961 3.3381e-08 0 -0.000103937 3.42037e-08 0 -0.000103904 3.44018e-08 0 -0.000103861 2.39472e-08 0 -0.000103811 4.28769e-08 0 -0.000103757 1.38158e-08 0 -0.000103682 6.61299e-08 0 -0.000103632 -1.87589e-09 0 -0.000103503 8.93883e-08 0 -0.000103519 1.78512e-08 0 -0.000103288 -4.28913e-08 0 -0.000103514 4.93581e-07 0 -0.000103395 -1.5581e-06 0 -0.000104586 4.72819e-06 0 -0.000103472 -3.06493e-05 0 -9.29347e-05 0.000375081 0 0.000250379 0.00446118 0 0.000304783 -0.00032429 0 0.000412681 2.31706e-05 0 0.000322392 -2.34568e-05 0 0.00036816 3.80505e-07 0 0.000346333 -1.89812e-06 0 0.000367101 -8.16218e-07 0 0.000365238 6.95632e-07 0 0.000374234 -2.25022e-07 0 0.000376125 6.78075e-07 0 0.000379992 7.37379e-08 0 0.000381557 3.94172e-07 0 0.000383136 1.13694e-07 0 0.000383909 1.89894e-07 0 0.000384469 7.28159e-08 0 0.00038473 7.58425e-08 0 0.000384851 3.05518e-08 0 0.000384864 1.73649e-08 0 0.00038479 5.29278e-09 0 0.000384706 -1.47723e-08 0 0.0003845 -3.92793e-09 0 0.000384435 -3.96972e-08 0 0.000383988 -3.39848e-10 0 0.000384236 -6.54762e-08 0 0.000383019 4.28853e-09 0 0.000384694 -5.43288e-08 0 0.000380677 -9.52943e-08 0 0.000387825 3.37801e-07 0 0.000373924 -1.12955e-06 0 0.000397618 4.13478e-06 0 0.000368477 -2.49289e-05 0 5.2728e-06 0.000204316 0 -0.00293647 0.00322794 0 -0.0016907 -0.000251218 0 -0.00172979 1.3135e-05 0 -0.00153464 -1.55515e-05 0 -0.00166322 -1.36088e-06 0 -0.00164475 -3.94287e-06 0 -0.00170645 -1.78634e-06 0 -0.00172416 -1.59852e-06 0 -0.00175409 -9.59544e-07 0 -0.00176978 -6.83424e-07 0 -0.00178379 -4.00716e-07 0 -0.00179224 -2.53125e-07 0 -0.00179813 -1.30831e-07 0 -0.00180161 -6.90861e-08 0 -0.00180362 -2.13148e-08 0 -0.0018046 -2.4062e-09 0 -0.00180491 1.94167e-08 0 -0.00180482 1.57597e-08 0 -0.00180443 4.20419e-08 0 -0.0018039 1.19895e-08 0 -0.00180312 7.59506e-08 0 -0.00180241 -1.53177e-08 0 -0.00180119 1.41439e-07 0 -0.00180065 -7.12982e-08 0 -0.00179845 2.00014e-07 0 -0.00179947 9.96737e-09 0 -0.00179413 -2.78689e-07 0 -0.00180209 1.72518e-06 0 -0.00178535 -5.3508e-06 0 -0.00181772 1.9708e-05 0 -0.00179776 -9.34246e-05 0 -0.00119688 0.00108866 0 0.00993279 -0.000580419 0 0.00831434 0.000550029 0 0.00867426 -7.18403e-05 0 0.00655183 3.07177e-05 0 0.00764773 -5.66315e-06 0 0.00719473 1.925e-07 0 0.00764483 1.63201e-06 0 0.00761153 -1.62314e-06 0 0.00779506 1.86813e-06 0 0.00782861 -4.59386e-07 0 0.00790131 1.32806e-06 0 0.00792493 2.23963e-07 0 0.00795035 8.5675e-07 0 0.00795919 3.54402e-07 0 0.00796559 4.86809e-07 0 0.00796677 2.2349e-07 0 0.00796677 1.85886e-07 0 0.00796569 1.26485e-09 0 0.00796438 -6.68606e-08 0 0.00796373 -2.60204e-07 0 0.00796253 -2.777e-07 0 0.007964 -5.80077e-07 0 0.00796186 -4.4935e-07 0 0.00796932 -1.02473e-06 0 0.0079611 -7.14226e-07 0 0.00798902 -1.6134e-06 0 0.00795722 -2.11273e-06 0 0.00805708 -1.66773e-06 0 0.00795156 -1.15327e-05 0 0.00829686 6.41923e-06 0 0.00834354 -0.000157552 0 0.00604276 0.000696429 0 </DataArray> 
</PointData> 
<Points> 
<DataArray type="Float32" NumberOfComponents="3"> 