<?xml version="1.0"?> 
<VTKFile type="StructuredGrid" version="0.1"> 
<StructuredGrid WholeExtent="0 31 0 31 0 0"> 
<Piece Extent="0 31 0 31 0 0"> 
<PointData>
<DataArray type="Float32" Name="B" format="ascii" NumberOfComponents="3"> 
0 -3.76866e-06 0 -6.83907e-07 -3.78217e-06 0 -1.37307e-06 -3.82272e-06 0 -2.07289e-06 -3.89032e-06 0 -2.78869e-06 -3.98501e-06 0 -3.5262e-06 -4.10666e-06 0 -4.291e-06 -4.25516e-06 0 -5.0894e-06 -4.42983e-06 0 -5.92769e-06 -4.63009e-06 0 -6.81255e-06 -4.85356e-06 0 -7.7531e-06 -5.09889e-06 0 -8.75291e-06 -5.35911e-06 0 -9.83481e-06 -5.63256e-06 0 -1.09783e-05 -5.89978e-06 0 -1.22714e-05 -6.16318e-06 0 -1.35678e-05 -6.36854e-06 0 -1.52474e-05 -6.54165e-06 0 -1.65908e-05 -6.53017e-06 0 -1.92165e-05 -6.45059e-06 0 -1.99807e-05 -5.87754e-06 0 -2.55249e-05 -5.2177e-06 0 -2.29722e-05 -3.33099e-06 0 -3.85472e-05 -1.38513e-06 0 -2.19276e-05 3.36145e-06 0 -7.29524e-05 8.44241e-06 0 -2.84015e-06 1.87003e-05 0 -0.000178274 3.34861e-05 0 7.96443e-05 5.11082e-05 0 -0.000521765 0.000107813 0 0.000256029 0.000107498 0 -0.00128698 0.000571123 0 -0.0231154 -0.00262362 0 2.672e-20 -3.53952e-06 0 -6.92613e-07 -3.55215e-06 0 -1.39052e-06 -3.59005e-06 0 -2.09903e-06 -3.65323e-06 0 -2.82358e-06 -3.74163e-06 0 -3.56968e-06 -3.85517e-06 0 -4.34309e-06 -3.99352e-06 0 -5.14971e-06 -4.15613e-06 0 -5.99581e-06 -4.34186e-06 0 -6.88809e-06 -4.549e-06 0 -7.83343e-06 -4.77437e-06 0 -8.84043e-06 -5.0138e-06 0 -9.91578e-06 -5.25924e-06 0 -1.10746e-05 -5.50189e-06 0 -1.23173e-05 -5.72207e-06 0 -1.36851e-05 -5.90338e-06 0 -1.51414e-05 -5.99724e-06 0 -1.68335e-05 -5.97833e-06 0 -1.85531e-05 -5.72327e-06 0 -2.08722e-05 -5.20806e-06 0 -2.28559e-05 -4.11282e-06 0 -2.67336e-05 -2.45939e-06 0 -2.86774e-05 5.64121e-07 0 -3.71904e-05 4.83842e-06 0 -3.74827e-05 1.21872e-05 0 -6.10933e-05 2.30837e-05 0 -5.3699e-05 4.00389e-05 0 -0.000129078 7.20765e-05 0 -0.000101252 0.000113432 0 -0.000369906 0.000258539 0 -0.000582046 0.000481539 0 0.000559911 0.00547005 0 2.0567e-20 -3.30757e-06 0 -7.00743e-07 -3.31932e-06 0 -1.40677e-06 -3.35458e-06 0 -2.12341e-06 -3.41332e-06 0 -2.85605e-06 -3.49548e-06 0 -3.61018e-06 -3.60089e-06 0 -4.39144e-06 -3.72922e-06 0 -5.20566e-06 -3.87976e-06 0 -6.05887e-06 -4.0514e-06 0 -6.95741e-06 -4.24209e-06 0 -7.90796e-06 -4.44887e-06 0 -8.9176e-06 -4.6666e-06 0 -9.99424e-06 -4.88842e-06 0 -1.11461e-05 -5.10216e-06 0 -1.2384e-05 -5.29314e-06 0 -1.37181e-05 -5.43301e-06 0 -1.5167e-05 -5.49208e-06 0 -1.67458e-05 -5.40374e-06 0 -1.84945e-05 -5.11047e-06 0 -2.04444e-05 -4.45266e-06 0 -2.26921e-05 -3.32119e-06 0 -2.53405e-05 -1.3279e-06 0 -2.86062e-05 1.74906e-06 0 -3.29485e-05 6.84919e-06 0 -3.86964e-05 1.45855e-05 0 -4.80878e-05 2.71793e-05 0 -6.07728e-05 4.73838e-05 0 -8.77116e-05 8.08666e-05 0 -0.000123793 0.000146362 0 -0.000222057 0.00027666 0 -0.000333427 0.000768507 0 0.00153287 0.00238371 0 0 -3.07301e-06 0 -7.08284e-07 -3.08388e-06 0 -1.42185e-06 -3.11649e-06 0 -2.14601e-06 -3.17081e-06 0 -2.88613e-06 -3.24673e-06 0 -3.64766e-06 -3.34407e-06 0 -4.43615e-06 -3.46243e-06 0 -5.25728e-06 -3.60107e-06 0 -6.1169e-06 -3.75876e-06 0 -7.021e-06 -3.93346e-06 0 -7.9758e-06 -4.12196e-06 0 -8.98769e-06 -4.31924e-06 0 -1.00635e-05 -4.51781e-06 0 -1.121e-05 -4.7061e-06 0 -1.24356e-05 -4.86744e-06 0 -1.37475e-05 -4.97578e-06 0 -1.51594e-05 -4.99499e-06 0 -1.66777e-05 -4.86614e-06 0 -1.8337e-05 -4.51143e-06 0 -2.01356e-05 -3.79465e-06 0 -2.21893e-05 -2.54626e-06 0 -2.44483e-05 -4.4127e-07 0 -2.73388e-05 2.90808e-06 0 -3.05828e-05 8.30228e-06 0 -3.57554e-05 1.67599e-05 0 -4.16252e-05 3.03318e-05 0 -5.38624e-05 5.26124e-05 0 -6.75603e-05 8.97527e-05 0 -0.000101431 0.000161548 0 -0.000130514 0.000304702 0 -9.14886e-05 0.000724097 0 0.000954587 0.00120147 0 3.35504e-22 -2.83603e-06 0 -7.15239e-07 -2.84603e-06 0 -1.43575e-06 -2.87599e-06 0 -2.16684e-06 -2.92589e-06 0 -2.91384e-06 -2.99561e-06 0 -3.68214e-06 -3.08492e-06 0 -4.47722e-06 -3.19338e-06 0 -5.30463e-06 -3.32025e-06 0 -6.16998e-06 -3.46423e-06 0 -7.07896e-06 -3.62326e-06 0 -8.0373e-06 -3.79406e-06 0 -9.0507e-06 -3.97165e-06 0 -1.01249e-05 -4.14835e-06 0 -1.12653e-05 -4.31282e-06 0 -1.24775e-05 -4.44773e-06 0 -1.37665e-05 -4.52789e-06 0 -1.51384e-05 -4.51469e-06 0 -1.65978e-05 -4.35219e-06 0 -1.81559e-05 -3.95358e-06 0 -1.98177e-05 -3.19224e-06 0 -2.16228e-05 -1.86855e-06 0 -2.35769e-05 3.14951e-07 0 -2.58434e-05 3.83635e-06 0 -2.84059e-05 9.4357e-06 0 -3.19215e-05 1.83537e-05 0 -3.61375e-05 3.26166e-05 0 -4.34696e-05 5.60782e-05 0 -5.17282e-05 9.55717e-05 0 -6.67818e-05 0.000168248 0 -6.10503e-05 0.00030982 0 6.65055e-05 0.000609146 0 0.000731744 0.000692139 0 2.34437e-20 -2.59683e-06 0 -7.21607e-07 -2.60595e-06 0 -1.44848e-06 -2.63328e-06 0 -2.1859e-06 -2.67877e-06 0 -2.93917e-06 -2.7423e-06 0 -3.71365e-06 -2.82363e-06 0 -4.51471e-06 -2.92229e-06 0 -5.34776e-06 -3.03752e-06 0 -6.21821e-06 -3.16802e-06 0 -7.13144e-06 -3.31173e-06 0 -8.09267e-06 -3.4654e-06 0 -9.10695e-06 -3.6241e-06 0 -1.01789e-05 -3.78026e-06 0 -1.13125e-05 -3.92263e-06 0 -1.25109e-05 -4.03417e-06 0 -1.37761e-05 -4.08982e-06 0 -1.51082e-05 -4.05134e-06 0 -1.65061e-05 -3.86288e-06 0 -1.79648e-05 -3.43735e-06 0 -1.94812e-05 -2.64783e-06 0 -2.10455e-05 -1.29033e-06 0 -2.26623e-05 9.34373e-07 0 -2.43318e-05 4.52437e-06 0 -2.6102e-05 1.02289e-05 0 -2.80446e-05 1.9342e-05 0 -3.02759e-05 3.39423e-05 0 -3.29662e-05 5.78135e-05 0 -3.51737e-05 9.78965e-05 0 -3.33167e-05 0.000168004 0 -1.79135e-06 0.000295705 0 0.000156889 0.000494616 0 0.000593575 0.000506405 0 1.08855e-20 -2.35561e-06 0 -7.27391e-07 -2.36385e-06 0 -1.46004e-06 -2.38855e-06 0 -2.2032e-06 -2.42965e-06 0 -2.96216e-06 -2.48702e-06 0 -3.74221e-06 -2.5604e-06 0 -4.54864e-06 -2.64935e-06 0 -5.38673e-06 -2.75308e-06 0 -6.26169e-06 -2.87033e-06 0 -7.17857e-06 -2.99907e-06 0 -8.14216e-06 -3.13616e-06 0 -9.15678e-06 -3.27678e-06 0 -1.0226e-05 -3.41364e-06 0 -1.13525e-05 -3.53576e-06 0 -1.25369e-05 -3.62672e-06 0 -1.37781e-05 -3.66195e-06 0 -1.5071e-05 -3.60452e-06 0 -1.64068e-05 -3.39914e-06 0 -1.77692e-05 -2.96149e-06 0 -1.91357e-05 -2.16422e-06 0 -2.04696e-05 -8.08905e-07 0 -2.1728e-05 1.40874e-06 0 -2.28369e-05 4.97628e-06 0 -2.37272e-05 1.06599e-05 0 -2.42342e-05 1.97278e-05 0 -2.41755e-05 3.42661e-05 0 -2.28211e-05 5.78554e-05 0 -1.83418e-05 9.68484e-05 0 -3.4701e-06 0.000162077 0 4.68438e-05 0.000269636 0 0.000205709 0.000401742 0 0.000512236 0.000369071 0 0 -2.11255e-06 0 -7.32592e-07 -2.11992e-06 0 -1.47042e-06 -2.142e-06 0 -2.21875e-06 -2.17872e-06 0 -2.9828e-06 -2.22996e-06 0 -3.76783e-06 -2.29545e-06 0 -4.57905e-06 -2.37476e-06 0 -5.42161e-06 -2.46714e-06 0 -6.30051e-06 -2.57135e-06 0 -7.22052e-06 -2.68547e-06 0 -8.18596e-06 -2.8065e-06 0 -9.20053e-06 -2.92985e-06 0 -1.02668e-05 -3.04859e-06 0 -1.1386e-05 -3.15229e-06 0 -1.25567e-05 -3.22531e-06 0 -1.37743e-05 -3.24422e-06 0 -1.50291e-05 -3.17377e-06 0 -1.63044e-05 -2.96088e-06 0 -1.75729e-05 -2.52467e-06 0 -1.87937e-05 -1.74189e-06 0 -1.99022e-05 -4.20922e-07 0 -2.08092e-05 1.73507e-06 0 -2.13682e-05 5.19927e-06 0 -2.1388e-05 1.0721e-05 0 -2.04976e-05 1.95238e-05 0 -1.81768e-05 3.36038e-05 0 -1.30486e-05 5.62472e-05 0 -2.3751e-06 9.29188e-05 0 2.26923e-05 0.000151418 0 8.43994e-05 0.000238818 0 0.000231841 0.000325224 0 0.000461529 0.000295877 0 0 -1.86786e-06 0 -7.37209e-07 -1.87435e-06 0 -1.47965e-06 -1.89381e-06 0 -2.23254e-06 -1.92617e-06 0 -3.00111e-06 -1.9713e-06 0 -3.79054e-06 -2.02896e-06 0 -4.60598e-06 -2.09872e-06 0 -5.45245e-06 -2.17987e-06 0 -6.33476e-06 -2.27126e-06 0 -7.2574e-06 -2.37109e-06 0 -8.2243e-06 -2.47656e-06 0 -9.23851e-06 -2.5834e-06 0 -1.03017e-05 -2.68516e-06 0 -1.14137e-05 -2.77215e-06 0 -1.25711e-05 -2.82979e-06 0 -1.37662e-05 -2.83623e-06 0 -1.49847e-05 -2.75857e-06 0 -1.62026e-05 -2.54698e-06 0 -1.73819e-05 -2.12571e-06 0 -1.84636e-05 -1.37817e-06 0 -1.93574e-05 -1.24154e-07 0 -1.99268e-05 1.91916e-06 0 -1.99618e-05 5.19784e-06 0 -1.91401e-05 1.04256e-05 0 -1.69298e-05 1.87463e-05 0 -1.24423e-05 3.20078e-05 0 -3.91159e-06 5.31236e-05 0 1.2263e-05 8.65315e-05 0 4.48532e-05 0.000137446 0 0.000112762 0.000206479 0 0.000245345 0.000263759 0 0.000422216 0.000230214 0 0 -1.62173e-06 0 -7.41246e-07 -1.62735e-06 0 -1.48771e-06 -1.6442e-06 0 -2.2446e-06 -1.67221e-06 0 -3.0171e-06 -1.71126e-06 0 -3.81037e-06 -1.76112e-06 0 -4.62946e-06 -1.8214e-06 0 -5.4793e-06 -1.89145e-06 0 -6.36452e-06 -1.97022e-06 0 -7.28937e-06 -2.05606e-06 0 -8.25737e-06 -2.14644e-06 0 -9.27102e-06 -2.23748e-06 0 -1.03312e-05 -2.32333e-06 0 -1.14364e-05 -2.39519e-06 0 -1.25813e-05 -2.43985e-06 0 -1.37555e-05 -2.43743e-06 0 -1.49402e-05 -2.35796e-06 0 -1.6105e-05 -2.15602e-06 0 -1.72013e-05 -1.76225e-06 0 -1.81541e-05 -1.06989e-06 0 -1.88474e-05 8.68984e-08 0 -1.91038e-05 1.9681e-06 0 -1.86465e-05 4.98503e-06 0 -1.70468e-05 9.79223e-06 0 -1.36006e-05 1.74325e-05 0 -7.1509e-06 2.95529e-05 0 4.44139e-06 4.865e-05 0 2.5155e-05 7.81738e-05 0 6.33051e-05 0.000121201 0 0.000133555 0.000174784 0 0.000252104 0.000212401 0 0.000396053 0.000184822 0 0 -1.37434e-06 0 -7.44703e-07 -1.3791e-06 0 -1.49461e-06 -1.39334e-06 0 -2.25492e-06 -1.41701e-06 0 -3.03078e-06 -1.45001e-06 0 -3.82732e-06 -1.49212e-06 0 -4.64952e-06 -1.543e-06 0 -5.50221e-06 -1.60206e-06 0 -6.38988e-06 -1.66839e-06 0 -7.31652e-06 -1.74052e-06 0 -8.28535e-06 -1.81622e-06 0 -9.29835e-06 -1.8921e-06 0 -1.03556e-05 -1.963e-06 0 -1.14545e-05 -2.02119e-06 0 -1.25882e-05 -2.05503e-06 0 -1.37434e-05 -2.04702e-06 0 -1.48978e-05 -1.97073e-06 0 -1.60147e-05 -1.78598e-06 0 -1.70363e-05 -1.4314e-06 0 -1.78728e-05 -8.12205e-07 0 -1.83852e-05 2.18886e-07 0 -1.8358e-05 1.89345e-06 0 -1.74566e-05 4.57698e-06 0 -1.51521e-05 8.85045e-06 0 -1.05999e-05 1.56296e-05 0 -2.40495e-06 2.63333e-05 0 1.1806e-05 4.30226e-05 0 3.62164e-05 6.82617e-05 0 7.81918e-05 0.000103589 0 0.000148734 0.000144382 0 0.000255076 0.000169216 0 0.000374139 0.000144375 0 0 -1.1259e-06 0 -7.47582e-07 -1.12979e-06 0 -1.50036e-06 -1.14143e-06 0 -2.26351e-06 -1.16078e-06 0 -3.04217e-06 -1.18775e-06 0 -3.84142e-06 -1.22215e-06 0 -4.6662e-06 -1.26369e-06 0 -5.52123e-06 -1.31186e-06 0 -6.41089e-06 -1.3659e-06 0 -7.33898e-06 -1.42457e-06 0 -8.30841e-06 -1.48597e-06 0 -9.32072e-06 -1.54725e-06 0 -1.03754e-05 -1.60404e-06 0 -1.14688e-05 -1.64983e-06 0 -1.25926e-05 -1.67477e-06 0 -1.37314e-05 -1.66406e-06 0 -1.48593e-05 -1.59531e-06 0 -1.59346e-05 -1.43448e-06 0 -1.68913e-05 -1.12939e-06 0 -1.76268e-05 -5.99482e-07 0 -1.79816e-05 2.80814e-07 0 -1.77079e-05 1.70871e-06 0 -1.64184e-05 3.99587e-06 0 -1.35036e-05 7.63508e-06 0 -7.99091e-06 1.33978e-05 0 1.68366e-06 2.24547e-05 0 1.80822e-05 3.64397e-05 0 4.53502e-05 5.71788e-05 0 8.99381e-05 8.51897e-05 0 0.000159569 0.000115574 0 0.0002561 0.000131718 0 0.000358916 0.000112046 0 0 -8.76596e-07 0 -7.49883e-07 -8.79617e-07 0 -1.50495e-06 -8.88668e-07 0 -2.27037e-06 -9.03709e-07 0 -3.05127e-06 -9.24661e-07 0 -3.85268e-06 -9.51381e-07 0 -4.6795e-06 -9.83628e-07 0 -5.5364e-06 -1.02101e-06 0 -6.42763e-06 -1.06289e-06 0 -7.35683e-06 -1.1083e-06 0 -8.32667e-06 -1.15572e-06 0 -9.33835e-06 -1.20287e-06 0 -1.03908e-05 -1.24628e-06 0 -1.14796e-05 -1.28073e-06 0 -1.25952e-05 -1.29839e-06 0 -1.37203e-05 -1.28743e-06 0 -1.48265e-05 -1.22995e-06 0 -1.58673e-05 -1.09871e-06 0 -1.67704e-05 -8.5192e-07 0 -1.74222e-05 -4.24939e-07 0 -1.76465e-05 2.83012e-07 0 -1.71682e-05 1.43039e-06 0 -1.55576e-05 3.26726e-06 0 -1.2137e-05 6.18802e-06 0 -5.83611e-06 1.0805e-05 0 5.04457e-06 1.8032e-05 0 2.31695e-05 2.90975e-05 0 5.25933e-05 4.52371e-05 0 9.8839e-05 6.64063e-05 0 0.000167203 8.82237e-05 0 0.000256121 9.85612e-05 0 0.000346742 8.30316e-05 0 -7.82992e-22 -6.2662e-07 0 -7.51609e-07 -6.28776e-07 0 -1.5084e-06 -6.35238e-07 0 -2.27552e-06 -6.45975e-07 0 -3.05808e-06 -6.60929e-07 0 -3.86111e-06 -6.79996e-07 0 -4.68947e-06 -7.02998e-07 0 -5.54775e-06 -7.29648e-07 0 -6.44014e-06 -7.59486e-07 0 -7.37015e-06 -7.918e-07 0 -8.34027e-06 -8.2549e-07 0 -9.35142e-06 -8.5889e-07 0 -1.04021e-05 -8.89479e-07 0 -1.14873e-05 -9.13463e-07 0 -1.25966e-05 -9.25131e-07 0 -1.37113e-05 -9.15871e-07 0 -1.48006e-05 -8.72636e-07 0 -1.5815e-05 -7.7555e-07 0 -1.66767e-05 -5.94095e-07 0 -1.72641e-05 -2.81044e-07 0 -1.73878e-05 2.37331e-07 0 -1.67521e-05 1.0769e-06 0 -1.48937e-05 2.4205e-06 0 -1.10848e-05 4.55556e-06 0 -4.17911e-06 7.92589e-06 0 7.61272e-06 1.31841e-05 0 2.7023e-05 2.11812e-05 0 5.79636e-05 3.26963e-05 0 0.000105237 4.74615e-05 0 0.000172333 6.21083e-05 0 0.00025577 6.83941e-05 0 0.000338571 5.75166e-05 0 -3.99669e-21 -3.76163e-07 0 -7.52758e-07 -3.77457e-07 0 -1.51069e-06 -3.81333e-07 0 -2.27894e-06 -3.87773e-07 0 -3.06262e-06 -3.9674e-07 0 -3.86673e-06 -4.08173e-07 0 -4.6961e-06 -4.21961e-07 0 -5.5553e-06 -4.3793e-07 0 -6.44845e-06 -4.55802e-07 0 -7.37899e-06 -4.75141e-07 0 -8.34929e-06 -4.95282e-07 0 -9.36006e-06 -5.1521e-07 0 -1.04096e-05 -5.33396e-07 0 -1.14923e-05 -5.47533e-07 0 -1.25973e-05 -5.54152e-07 0 -1.37048e-05 -5.48017e-07 0 -1.47827e-05 -5.21196e-07 0 -1.57792e-05 -4.61592e-07 0 -1.66128e-05 -3.50627e-07 0 -1.71565e-05 -1.59528e-07 0 -1.72118e-05 1.56627e-07 0 -1.6469e-05 6.68474e-07 0 -1.44425e-05 1.48737e-06 0 -1.03698e-05 2.7881e-06 0 -3.05592e-06 4.83926e-06 0 9.34838e-06 8.0321e-06 0 2.96046e-05 1.28654e-05 0 6.15155e-05 1.97638e-05 0 0.000109357 2.84754e-05 0 0.000175502 3.68953e-05 0 0.000255371 4.02697e-05 0 0.000333067 3.37085e-05 0 -2.37396e-22 -1.2542e-07 0 -7.53333e-07 -1.25851e-07 0 -1.51184e-06 -1.27143e-07 0 -2.28066e-06 -1.29289e-07 0 -3.06489e-06 -1.32277e-07 0 -3.86953e-06 -1.36087e-07 0 -4.69941e-06 -1.40681e-07 0 -5.55907e-06 -1.46e-07 0 -6.4526e-06 -1.51952e-07 0 -7.38341e-06 -1.58391e-07 0 -8.35378e-06 -1.65092e-07 0 -9.36435e-06 -1.71716e-07 0 -1.04132e-05 -1.77749e-07 0 -1.14948e-05 -1.82419e-07 0 -1.25975e-05 -1.84562e-07 0 -1.37015e-05 -1.8242e-07 0 -1.47736e-05 -1.73332e-07 0 -1.5761e-05 -1.53237e-07 0 -1.65804e-05 -1.15897e-07 0 -1.7102e-05 -5.16504e-08 0 -1.71227e-05 5.45985e-08 0 -1.63258e-05 2.2657e-07 0 -1.42142e-05 5.01677e-07 0 -1.00083e-05 9.38541e-07 0 -2.48847e-06 1.6271e-06 0 1.02225e-05 2.69763e-06 0 3.08999e-05 4.31434e-06 0 6.328e-05 6.61155e-06 0 0.000111378 9.49006e-06 0 0.000177008 1.22371e-05 0 0.00025513 1.32949e-05 0 0.000330481 1.11442e-05 0 0 1.2542e-07 0 -7.53333e-07 1.25851e-07 0 -1.51184e-06 1.27143e-07 0 -2.28066e-06 1.29289e-07 0 -3.06489e-06 1.32277e-07 0 -3.86953e-06 1.36087e-07 0 -4.69941e-06 1.40681e-07 0 -5.55907e-06 1.46e-07 0 -6.4526e-06 1.51952e-07 0 -7.38341e-06 1.58391e-07 0 -8.35378e-06 1.65092e-07 0 -9.36435e-06 1.71716e-07 0 -1.04132e-05 1.77749e-07 0 -1.14948e-05 1.82419e-07 0 -1.25975e-05 1.84562e-07 0 -1.37015e-05 1.8242e-07 0 -1.47736e-05 1.73332e-07 0 -1.5761e-05 1.53237e-07 0 -1.65804e-05 1.15897e-07 0 -1.7102e-05 5.16504e-08 0 -1.71227e-05 -5.45985e-08 0 -1.63258e-05 -2.2657e-07 0 -1.42142e-05 -5.01677e-07 0 -1.00083e-05 -9.38541e-07 0 -2.48847e-06 -1.6271e-06 0 1.02225e-05 -2.69763e-06 0 3.08999e-05 -4.31434e-06 0 6.328e-05 -6.61155e-06 0 0.000111378 -9.49006e-06 0 0.000177008 -1.22371e-05 0 0.00025513 -1.32949e-05 0 0.000330481 -1.11442e-05 0 0 3.76163e-07 0 -7.52758e-07 3.77457e-07 0 -1.51069e-06 3.81333e-07 0 -2.27894e-06 3.87773e-07 0 -3.06262e-06 3.9674e-07 0 -3.86673e-06 4.08173e-07 0 -4.6961e-06 4.21961e-07 0 -5.5553e-06 4.3793e-07 0 -6.44845e-06 4.55802e-07 0 -7.37899e-06 4.75141e-07 0 -8.34929e-06 4.95282e-07 0 -9.36006e-06 5.1521e-07 0 -1.04096e-05 5.33396e-07 0 -1.14923e-05 5.47533e-07 0 -1.25973e-05 5.54152e-07 0 -1.37048e-05 5.48017e-07 0 -1.47827e-05 5.21196e-07 0 -1.57792e-05 4.61592e-07 0 -1.66128e-05 3.50627e-07 0 -1.71565e-05 1.59528e-07 0 -1.72118e-05 -1.56627e-07 0 -1.6469e-05 -6.68474e-07 0 -1.44425e-05 -1.48737e-06 0 -1.03698e-05 -2.7881e-06 0 -3.05592e-06 -4.83926e-06 0 9.34838e-06 -8.0321e-06 0 2.96046e-05 -1.28654e-05 0 6.15155e-05 -1.97638e-05 0 0.000109357 -2.84754e-05 0 0.000175502 -3.68953e-05 0 0.000255371 -4.02697e-05 0 0.000333067 -3.37085e-05 0 1.50112e-21 6.2662e-07 0 -7.51609e-07 6.28776e-07 0 -1.5084e-06 6.35238e-07 0 -2.27552e-06 6.45975e-07 0 -3.05808e-06 6.60929e-07 0 -3.86111e-06 6.79996e-07 0 -4.68947e-06 7.02998e-07 0 -5.54775e-06 7.29648e-07 0 -6.44014e-06 7.59486e-07 0 -7.37015e-06 7.918e-07 0 -8.34027e-06 8.2549e-07 0 -9.35142e-06 8.5889e-07 0 -1.04021e-05 8.89479e-07 0 -1.14873e-05 9.13463e-07 0 -1.25966e-05 9.25131e-07 0 -1.37113e-05 9.15871e-07 0 -1.48006e-05 8.72636e-07 0 -1.5815e-05 7.7555e-07 0 -1.66767e-05 5.94095e-07 0 -1.72641e-05 2.81044e-07 0 -1.73878e-05 -2.37331e-07 0 -1.67521e-05 -1.0769e-06 0 -1.48937e-05 -2.4205e-06 0 -1.10848e-05 -4.55556e-06 0 -4.17911e-06 -7.92589e-06 0 7.61272e-06 -1.31841e-05 0 2.7023e-05 -2.11812e-05 0 5.79636e-05 -3.26963e-05 0 0.000105237 -4.74615e-05 0 0.000172333 -6.21083e-05 0 0.00025577 -6.83941e-05 0 0.000338571 -5.75166e-05 0 9.18409e-21 8.76596e-07 0 -7.49883e-07 8.79617e-07 0 -1.50495e-06 8.88668e-07 0 -2.27037e-06 9.03709e-07 0 -3.05127e-06 9.24661e-07 0 -3.85268e-06 9.51381e-07 0 -4.6795e-06 9.83628e-07 0 -5.5364e-06 1.02101e-06 0 -6.42763e-06 1.06289e-06 0 -7.35683e-06 1.1083e-06 0 -8.32667e-06 1.15572e-06 0 -9.33835e-06 1.20287e-06 0 -1.03908e-05 1.24628e-06 0 -1.14796e-05 1.28073e-06 0 -1.25952e-05 1.29839e-06 0 -1.37203e-05 1.28743e-06 0 -1.48265e-05 1.22995e-06 0 -1.58673e-05 1.09871e-06 0 -1.67704e-05 8.5192e-07 0 -1.74222e-05 4.24939e-07 0 -1.76465e-05 -2.83012e-07 0 -1.71682e-05 -1.43039e-06 0 -1.55576e-05 -3.26726e-06 0 -1.2137e-05 -6.18802e-06 0 -5.83611e-06 -1.0805e-05 0 5.04457e-06 -1.8032e-05 0 2.31695e-05 -2.90975e-05 0 5.25933e-05 -4.52371e-05 0 9.8839e-05 -6.64063e-05 0 0.000167203 -8.82237e-05 0 0.000256121 -9.85612e-05 0 0.000346742 -8.30316e-05 0 1.00729e-21 1.1259e-06 0 -7.47582e-07 1.12979e-06 0 -1.50036e-06 1.14143e-06 0 -2.26351e-06 1.16078e-06 0 -3.04217e-06 1.18775e-06 0 -3.84142e-06 1.22215e-06 0 -4.6662e-06 1.26369e-06 0 -5.52123e-06 1.31186e-06 0 -6.41089e-06 1.3659e-06 0 -7.33898e-06 1.42457e-06 0 -8.30841e-06 1.48597e-06 0 -9.32072e-06 1.54725e-06 0 -1.03754e-05 1.60404e-06 0 -1.14688e-05 1.64983e-06 0 -1.25926e-05 1.67477e-06 0 -1.37314e-05 1.66406e-06 0 -1.48593e-05 1.59531e-06 0 -1.59346e-05 1.43448e-06 0 -1.68913e-05 1.12939e-06 0 -1.76268e-05 5.99482e-07 0 -1.79816e-05 -2.80814e-07 0 -1.77079e-05 -1.70871e-06 0 -1.64184e-05 -3.99587e-06 0 -1.35036e-05 -7.63508e-06 0 -7.99091e-06 -1.33978e-05 0 1.68366e-06 -2.24547e-05 0 1.80822e-05 -3.64397e-05 0 4.53502e-05 -5.71788e-05 0 8.99381e-05 -8.51897e-05 0 0.000159569 -0.000115574 0 0.0002561 -0.000131718 0 0.000358916 -0.000112046 0 0 1.37434e-06 0 -7.44703e-07 1.3791e-06 0 -1.49461e-06 1.39334e-06 0 -2.25492e-06 1.41701e-06 0 -3.03078e-06 1.45001e-06 0 -3.82732e-06 1.49212e-06 0 -4.64952e-06 1.543e-06 0 -5.50221e-06 1.60206e-06 0 -6.38988e-06 1.66839e-06 0 -7.31652e-06 1.74052e-06 0 -8.28535e-06 1.81622e-06 0 -9.29835e-06 1.8921e-06 0 -1.03556e-05 1.963e-06 0 -1.14545e-05 2.02119e-06 0 -1.25882e-05 2.05503e-06 0 -1.37434e-05 2.04702e-06 0 -1.48978e-05 1.97073e-06 0 -1.60147e-05 1.78598e-06 0 -1.70363e-05 1.4314e-06 0 -1.78728e-05 8.12205e-07 0 -1.83852e-05 -2.18886e-07 0 -1.8358e-05 -1.89345e-06 0 -1.74566e-05 -4.57698e-06 0 -1.51521e-05 -8.85045e-06 0 -1.05999e-05 -1.56296e-05 0 -2.40495e-06 -2.63333e-05 0 1.1806e-05 -4.30226e-05 0 3.62164e-05 -6.82617e-05 0 7.81918e-05 -0.000103589 0 0.000148734 -0.000144382 0 0.000255076 -0.000169216 0 0.000374139 -0.000144375 0 0 1.62173e-06 0 -7.41246e-07 1.62735e-06 0 -1.48771e-06 1.6442e-06 0 -2.2446e-06 1.67221e-06 0 -3.0171e-06 1.71126e-06 0 -3.81037e-06 1.76112e-06 0 -4.62946e-06 1.8214e-06 0 -5.4793e-06 1.89145e-06 0 -6.36452e-06 1.97022e-06 0 -7.28937e-06 2.05606e-06 0 -8.25737e-06 2.14644e-06 0 -9.27102e-06 2.23748e-06 0 -1.03312e-05 2.32333e-06 0 -1.14364e-05 2.39519e-06 0 -1.25813e-05 2.43985e-06 0 -1.37555e-05 2.43743e-06 0 -1.49402e-05 2.35796e-06 0 -1.6105e-05 2.15602e-06 0 -1.72013e-05 1.76225e-06 0 -1.81541e-05 1.06989e-06 0 -1.88474e-05 -8.68984e-08 0 -1.91038e-05 -1.9681e-06 0 -1.86465e-05 -4.98503e-06 0 -1.70468e-05 -9.79223e-06 0 -1.36006e-05 -1.74325e-05 0 -7.1509e-06 -2.95529e-05 0 4.44139e-06 -4.865e-05 0 2.5155e-05 -7.81738e-05 0 6.33051e-05 -0.000121201 0 0.000133555 -0.000174784 0 0.000252104 -0.000212401 0 0.000396053 -0.000184822 0 0 1.86786e-06 0 -7.37209e-07 1.87435e-06 0 -1.47965e-06 1.89381e-06 0 -2.23254e-06 1.92617e-06 0 -3.00111e-06 1.9713e-06 0 -3.79054e-06 2.02896e-06 0 -4.60598e-06 2.09872e-06 0 -5.45245e-06 2.17987e-06 0 -6.33476e-06 2.27126e-06 0 -7.2574e-06 2.37109e-06 0 -8.2243e-06 2.47656e-06 0 -9.23851e-06 2.5834e-06 0 -1.03017e-05 2.68516e-06 0 -1.14137e-05 2.77215e-06 0 -1.25711e-05 2.82979e-06 0 -1.37662e-05 2.83623e-06 0 -1.49847e-05 2.75857e-06 0 -1.62026e-05 2.54698e-06 0 -1.73819e-05 2.12571e-06 0 -1.84636e-05 1.37817e-06 0 -1.93574e-05 1.24154e-07 0 -1.99268e-05 -1.91916e-06 0 -1.99618e-05 -5.19784e-06 0 -1.91401e-05 -1.04256e-05 0 -1.69298e-05 -1.87463e-05 0 -1.24423e-05 -3.20078e-05 0 -3.91159e-06 -5.31236e-05 0 1.2263e-05 -8.65315e-05 0 4.48532e-05 -0.000137446 0 0.000112762 -0.000206479 0 0.000245345 -0.000263759 0 0.000422216 -0.000230214 0 0 2.11255e-06 0 -7.32592e-07 2.11992e-06 0 -1.47042e-06 2.142e-06 0 -2.21875e-06 2.17872e-06 0 -2.9828e-06 2.22996e-06 0 -3.76783e-06 2.29545e-06 0 -4.57905e-06 2.37476e-06 0 -5.42161e-06 2.46714e-06 0 -6.30051e-06 2.57135e-06 0 -7.22052e-06 2.68547e-06 0 -8.18596e-06 2.8065e-06 0 -9.20053e-06 2.92985e-06 0 -1.02668e-05 3.04859e-06 0 -1.1386e-05 3.15229e-06 0 -1.25567e-05 3.22531e-06 0 -1.37743e-05 3.24422e-06 0 -1.50291e-05 3.17377e-06 0 -1.63044e-05 2.96088e-06 0 -1.75729e-05 2.52467e-06 0 -1.87937e-05 1.74189e-06 0 -1.99022e-05 4.20922e-07 0 -2.08092e-05 -1.73507e-06 0 -2.13682e-05 -5.19927e-06 0 -2.1388e-05 -1.0721e-05 0 -2.04976e-05 -1.95238e-05 0 -1.81768e-05 -3.36038e-05 0 -1.30486e-05 -5.62472e-05 0 -2.3751e-06 -9.29188e-05 0 2.26923e-05 -0.000151418 0 8.43994e-05 -0.000238818 0 0.000231841 -0.000325224 0 0.000461529 -0.000295877 0 0 2.35561e-06 0 -7.27391e-07 2.36385e-06 0 -1.46004e-06 2.38855e-06 0 -2.2032e-06 2.42965e-06 0 -2.96216e-06 2.48702e-06 0 -3.74221e-06 2.5604e-06 0 -4.54864e-06 2.64935e-06 0 -5.38673e-06 2.75308e-06 0 -6.26169e-06 2.87033e-06 0 -7.17857e-06 2.99907e-06 0 -8.14216e-06 3.13616e-06 0 -9.15678e-06 3.27678e-06 0 -1.0226e-05 3.41364e-06 0 -1.13525e-05 3.53576e-06 0 -1.25369e-05 3.62672e-06 0 -1.37781e-05 3.66195e-06 0 -1.5071e-05 3.60452e-06 0 -1.64068e-05 3.39914e-06 0 -1.77692e-05 2.96149e-06 0 -1.91357e-05 2.16422e-06 0 -2.04696e-05 8.08905e-07 0 -2.1728e-05 -1.40874e-06 0 -2.28369e-05 -4.97628e-06 0 -2.37272e-05 -1.06599e-05 0 -2.42342e-05 -1.97278e-05 0 -2.41755e-05 -3.42661e-05 0 -2.28211e-05 -5.78554e-05 0 -1.83418e-05 -9.68484e-05 0 -3.4701e-06 -0.000162077 0 4.68438e-05 -0.000269636 0 0.000205709 -0.000401742 0 0.000512236 -0.000369071 0 0 2.59683e-06 0 -7.21607e-07 2.60595e-06 0 -1.44848e-06 2.63328e-06 0 -2.1859e-06 2.67877e-06 0 -2.93917e-06 2.7423e-06 0 -3.71365e-06 2.82363e-06 0 -4.51471e-06 2.92229e-06 0 -5.34776e-06 3.03752e-06 0 -6.21821e-06 3.16802e-06 0 -7.13144e-06 3.31173e-06 0 -8.09267e-06 3.4654e-06 0 -9.10695e-06 3.6241e-06 0 -1.01789e-05 3.78026e-06 0 -1.13125e-05 3.92263e-06 0 -1.25109e-05 4.03417e-06 0 -1.37761e-05 4.08982e-06 0 -1.51082e-05 4.05134e-06 0 -1.65061e-05 3.86288e-06 0 -1.79648e-05 3.43735e-06 0 -1.94812e-05 2.64783e-06 0 -2.10455e-05 1.29033e-06 0 -2.26623e-05 -9.34373e-07 0 -2.43318e-05 -4.52437e-06 0 -2.6102e-05 -1.02289e-05 0 -2.80446e-05 -1.9342e-05 0 -3.02759e-05 -3.39423e-05 0 -3.29662e-05 -5.78135e-05 0 -3.51737e-05 -9.78965e-05 0 -3.33167e-05 -0.000168004 0 -1.79135e-06 -0.000295705 0 0.000156889 -0.000494616 0 0.000593575 -0.000506405 0 0 2.83603e-06 0 -7.15239e-07 2.84603e-06 0 -1.43575e-06 2.87599e-06 0 -2.16684e-06 2.92589e-06 0 -2.91384e-06 2.99561e-06 0 -3.68214e-06 3.08492e-06 0 -4.47722e-06 3.19338e-06 0 -5.30463e-06 3.32025e-06 0 -6.16998e-06 3.46423e-06 0 -7.07896e-06 3.62326e-06 0 -8.0373e-06 3.79406e-06 0 -9.0507e-06 3.97165e-06 0 -1.01249e-05 4.14835e-06 0 -1.12653e-05 4.31282e-06 0 -1.24775e-05 4.44773e-06 0 -1.37665e-05 4.52789e-06 0 -1.51384e-05 4.51469e-06 0 -1.65978e-05 4.35219e-06 0 -1.81559e-05 3.95358e-06 0 -1.98177e-05 3.19224e-06 0 -2.16228e-05 1.86855e-06 0 -2.35769e-05 -3.14951e-07 0 -2.58434e-05 -3.83635e-06 0 -2.84059e-05 -9.4357e-06 0 -3.19215e-05 -1.83537e-05 0 -3.61375e-05 -3.26166e-05 0 -4.34696e-05 -5.60782e-05 0 -5.17282e-05 -9.55717e-05 0 -6.67818e-05 -0.000168248 0 -6.10503e-05 -0.00030982 0 6.65055e-05 -0.000609146 0 0.000731744 -0.000692139 0 0 3.07301e-06 0 -7.08284e-07 3.08388e-06 0 -1.42185e-06 3.11649e-06 0 -2.14601e-06 3.17081e-06 0 -2.88613e-06 3.24673e-06 0 -3.64766e-06 3.34407e-06 0 -4.43615e-06 3.46243e-06 0 -5.25728e-06 3.60107e-06 0 -6.1169e-06 3.75876e-06 0 -7.021e-06 3.93346e-06 0 -7.9758e-06 4.12196e-06 0 -8.98769e-06 4.31924e-06 0 -1.00635e-05 4.51781e-06 0 -1.121e-05 4.7061e-06 0 -1.24356e-05 4.86744e-06 0 -1.37475e-05 4.97578e-06 0 -1.51594e-05 4.99499e-06 0 -1.66777e-05 4.86614e-06 0 -1.8337e-05 4.51143e-06 0 -2.01356e-05 3.79465e-06 0 -2.21893e-05 2.54626e-06 0 -2.44483e-05 4.4127e-07 0 -2.73388e-05 -2.90808e-06 0 -3.05828e-05 -8.30228e-06 0 -3.57554e-05 -1.67599e-05 0 -4.16252e-05 -3.03318e-05 0 -5.38624e-05 -5.26124e-05 0 -6.75603e-05 -8.97527e-05 0 -0.000101431 -0.000161548 0 -0.000130514 -0.000304702 0 -9.14886e-05 -0.000724097 0 0.000954587 -0.00120147 0 0 3.30757e-06 0 -7.00743e-07 3.31932e-06 0 -1.40677e-06 3.35458e-06 0 -2.12341e-06 3.41332e-06 0 -2.85605e-06 3.49548e-06 0 -3.61018e-06 3.60089e-06 0 -4.39144e-06 3.72922e-06 0 -5.20566e-06 3.87976e-06 0 -6.05887e-06 4.0514e-06 0 -6.95741e-06 4.24209e-06 0 -7.90796e-06 4.44887e-06 0 -8.9176e-06 4.6666e-06 0 -9.99424e-06 4.88842e-06 0 -1.11461e-05 5.10216e-06 0 -1.2384e-05 5.29314e-06 0 -1.37181e-05 5.43301e-06 0 -1.5167e-05 5.49208e-06 0 -1.67458e-05 5.40374e-06 0 -1.84945e-05 5.11047e-06 0 -2.04444e-05 4.45266e-06 0 -2.26921e-05 3.32119e-06 0 -2.53405e-05 1.3279e-06 0 -2.86062e-05 -1.74906e-06 0 -3.29485e-05 -6.84919e-06 0 -3.86964e-05 -1.45855e-05 0 -4.80878e-05 -2.71793e-05 0 -6.07728e-05 -4.73838e-05 0 -8.77116e-05 -8.08666e-05 0 -0.000123793 -0.000146362 0 -0.000222057 -0.00027666 0 -0.000333427 -0.000768507 0 0.00153287 -0.00238371 0 0 3.53952e-06 0 -6.92613e-07 3.55215e-06 0 -1.39052e-06 3.59005e-06 0 -2.09903e-06 3.65323e-06 0 -2.82358e-06 3.74163e-06 0 -3.56968e-06 3.85517e-06 0 -4.34309e-06 3.99352e-06 0 -5.14971e-06 4.15613e-06 0 -5.99581e-06 4.34186e-06 0 -6.88809e-06 4.549e-06 0 -7.83343e-06 4.77437e-06 0 -8.84043e-06 5.0138e-06 0 -9.91578e-06 5.25924e-06 0 -1.10746e-05 5.50189e-06 0 -1.23173e-05 5.72207e-06 0 -1.36851e-05 5.90338e-06 0 -1.51414e-05 5.99724e-06 0 -1.68335e-05 5.97833e-06 0 -1.85531e-05 5.72327e-06 0 -2.08722e-05 5.20806e-06 0 -2.28559e-05 4.11282e-06 0 -2.67336e-05 2.45939e-06 0 -2.86774e-05 -5.64121e-07 0 -3.71904e-05 -4.83842e-06 0 -3.74827e-05 -1.21872e-05 0 -6.10933e-05 -2.30837e-05 0 -5.3699e-05 -4.00389e-05 0 -0.000129078 -7.20765e-05 0 -0.000101252 -0.000113432 0 -0.000369906 -0.000258539 0 -0.000582046 -0.000481539 0 0.000559911 -0.00547005 0 0 3.76866e-06 0 -6.83907e-07 3.78217e-06 0 -1.37307e-06 3.82272e-06 0 -2.07289e-06 3.89032e-06 0 -2.78869e-06 3.98501e-06 0 -3.5262e-06 4.10666e-06 0 -4.291e-06 4.25516e-06 0 -5.0894e-06 4.42983e-06 0 -5.92769e-06 4.63009e-06 0 -6.81255e-06 4.85356e-06 0 -7.7531e-06 5.09889e-06 0 -8.75291e-06 5.35911e-06 0 -9.83481e-06 5.63256e-06 0 -1.09783e-05 5.89978e-06 0 -1.22714e-05 6.16318e-06 0 -1.35678e-05 6.36854e-06 0 -1.52474e-05 6.54165e-06 0 -1.65908e-05 6.53017e-06 0 -1.92165e-05 6.45059e-06 0 -1.99807e-05 5.87754e-06 0 -2.55249e-05 5.2177e-06 0 -2.29722e-05 3.33099e-06 0 -3.85472e-05 1.38513e-06 0 -2.19276e-05 -3.36145e-06 0 -7.29524e-05 -8.44241e-06 0 -2.84015e-06 -1.87003e-05 0 -0.000178274 -3.34861e-05 0 7.96443e-05 -5.11082e-05 0 -0.000521765 -0.000107813 0 0.000256029 -0.000107498 0 -0.00128698 -0.000571123 0 -0.0231154 0.00262362 0 </DataArray> 
</PointData> 
<Points> 
<DataArray type="Float32" NumberOfComponents="3"> 