<?xml version="1.0"?> 
<VTKFile type="StructuredGrid" version="0.1"> 
<StructuredGrid WholeExtent="0 31 0 31 0 0"> 
<Piece Extent="0 31 0 31 0 0"> 
<PointData>
<DataArray type="Float32" Name="B" format="ascii" NumberOfComponents="3"> 
-0.000324569 -0.0011136 0 -0.000174581 0.000106054 0 -0.000130234 -2.5604e-05 0 -4.20771e-05 -5.73317e-06 0 -6.1931e-05 -1.4905e-05 0 -3.39869e-05 -1.37077e-05 0 -3.83102e-05 -1.37227e-05 0 -2.82578e-05 -1.35681e-05 0 -2.76554e-05 -1.24652e-05 0 -2.31895e-05 -1.19537e-05 0 -2.15093e-05 -1.08947e-05 0 -1.89423e-05 -1.01923e-05 0 -1.72502e-05 -9.30652e-06 0 -1.54485e-05 -8.60305e-06 0 -1.3974e-05 -7.87724e-06 0 -1.25657e-05 -7.25536e-06 0 -1.1319e-05 -6.66584e-06 0 -1.01617e-05 -6.14693e-06 0 -9.10682e-06 -5.67336e-06 0 -8.13043e-06 -5.25425e-06 0 -7.22804e-06 -4.87953e-06 0 -6.38833e-06 -4.54962e-06 0 -5.60427e-06 -4.25954e-06 0 -4.86826e-06 -4.00758e-06 0 -4.17376e-06 -3.79073e-06 0 -3.51461e-06 -3.60712e-06 0 -2.88504e-06 -3.45476e-06 0 -2.27967e-06 -3.33218e-06 0 -1.69334e-06 -3.2381e-06 0 -1.12113e-06 -3.17158e-06 0 -5.58247e-07 -3.13194e-06 0 0 -3.11877e-06 0 -7.03807e-06 -0.000205569 0 -0.000111318 -9.69276e-05 0 -7.99205e-05 -4.45915e-05 0 -6.23955e-05 -3.02164e-05 0 -4.72623e-05 -2.42571e-05 0 -4.00152e-05 -2.12101e-05 0 -3.33223e-05 -1.90573e-05 0 -2.92129e-05 -1.73472e-05 0 -2.54703e-05 -1.58471e-05 0 -2.26927e-05 -1.44968e-05 0 -2.02026e-05 -1.32608e-05 0 -1.81405e-05 -1.21312e-05 0 -1.62924e-05 -1.1098e-05 0 -1.46755e-05 -1.01583e-05 0 -1.3216e-05 -9.30544e-06 0 -1.19042e-05 -8.53519e-06 0 -1.07099e-05 -7.84132e-06 0 -9.62049e-06 -7.21883e-06 0 -8.62023e-06 -6.6621e-06 0 -7.69855e-06 -6.16624e-06 0 -6.84515e-06 -5.72646e-06 0 -6.05159e-06 -5.33852e-06 0 -5.31011e-06 -4.99851e-06 0 -4.61387e-06 -4.70304e-06 0 -3.95655e-06 -4.44906e-06 0 -3.33238e-06 -4.23399e-06 0 -2.73594e-06 -4.05562e-06 0 -2.16218e-06 -3.91211e-06 0 -1.60626e-06 -3.80199e-06 0 -1.06357e-06 -3.72413e-06 0 -5.29612e-07 -3.67774e-06 0 -1.84314e-20 -3.66232e-06 0 -2.67979e-05 -0.000106009 0 -5.27964e-05 -8.59904e-05 0 -5.75544e-05 -5.83641e-05 0 -4.99692e-05 -4.22924e-05 0 -4.25334e-05 -3.30852e-05 0 -3.59721e-05 -2.76026e-05 0 -3.10653e-05 -2.39001e-05 0 -2.70224e-05 -2.11242e-05 0 -2.38308e-05 -1.89181e-05 0 -2.11363e-05 -1.70484e-05 0 -1.88802e-05 -1.54428e-05 0 -1.69201e-05 -1.40225e-05 0 -1.52116e-05 -1.27669e-05 0 -1.36937e-05 -1.16436e-05 0 -1.23376e-05 -1.06414e-05 0 -1.11134e-05 -9.74399e-06 0 -1.00024e-05 -8.94249e-06 0 -8.9877e-06 -8.22664e-06 0 -8.05664e-06 -7.58915e-06 0 -7.19809e-06 -7.0227e-06 0 -6.40285e-06 -6.52138e-06 0 -5.66282e-06 -6.07968e-06 0 -4.97088e-06 -5.69296e-06 0 -4.32064e-06 -5.35709e-06 0 -3.70629e-06 -5.06853e-06 0 -3.12248e-06 -4.82424e-06 0 -2.56424e-06 -4.62167e-06 0 -2.02689e-06 -4.45871e-06 0 -1.50599e-06 -4.33368e-06 0 -9.97289e-07 -4.24528e-06 0 -4.96641e-07 -4.1926e-06 0 -1.73077e-20 -4.1751e-06 0 -2.14726e-05 -7.89733e-05 0 -3.51096e-05 -7.24033e-05 0 -3.98644e-05 -5.95627e-05 0 -3.88532e-05 -4.73372e-05 0 -3.51301e-05 -3.86018e-05 0 -3.11584e-05 -3.23759e-05 0 -2.74447e-05 -2.78453e-05 0 -2.42767e-05 -2.43981e-05 0 -2.15503e-05 -2.1637e-05 0 -1.92314e-05 -1.93641e-05 0 -1.72226e-05 -1.74283e-05 0 -1.54741e-05 -1.57604e-05 0 -1.39305e-05 -1.42985e-05 0 -1.25577e-05 -1.30118e-05 0 -1.13251e-05 -1.1871e-05 0 -1.02114e-05 -1.08584e-05 0 -9.19834e-06 -9.9575e-06 0 -8.272e-06 -9.15665e-06 0 -7.42064e-06 -8.44508e-06 0 -6.63458e-06 -7.81429e-06 0 -5.90547e-06 -7.25671e-06 0 -5.22609e-06 -6.76601e-06 0 -4.59005e-06 -6.33665e-06 0 -3.9916e-06 -5.96393e-06 0 -3.42554e-06 -5.6438e-06 0 -2.88705e-06 -5.37284e-06 0 -2.37167e-06 -5.14818e-06 0 -1.87517e-06 -4.96746e-06 0 -1.39355e-06 -4.8288e-06 0 -9.22966e-07 -4.73077e-06 0 -4.59669e-07 -4.67235e-06 0 0 -4.65294e-06 0 -2.05843e-05 -7.18888e-05 0 -2.56753e-05 -6.60771e-05 0 -2.91272e-05 -5.75962e-05 0 -2.95218e-05 -4.90264e-05 0 -2.80998e-05 -4.15127e-05 0 -2.58083e-05 -3.55104e-05 0 -2.33665e-05 -3.07719e-05 0 -2.10211e-05 -2.69837e-05 0 -1.88979e-05 -2.39036e-05 0 -1.69998e-05 -2.1335e-05 0 -1.53172e-05 -1.91612e-05 0 -1.38197e-05 -1.72883e-05 0 -1.24826e-05 -1.56609e-05 0 -1.1281e-05 -1.42328e-05 0 -1.01954e-05 -1.29744e-05 0 -9.20898e-06 -1.18606e-05 0 -8.30816e-06 -1.08734e-05 0 -7.48154e-06 -9.99737e-06 0 -6.71962e-06 -9.22061e-06 0 -6.01427e-06 -8.53276e-06 0 -5.3585e-06 -7.92535e-06 0 -4.74613e-06 -7.39109e-06 0 -4.1717e-06 -6.92382e-06 0 -3.63025e-06 -6.51827e-06 0 -3.11727e-06 -6.17e-06 0 -2.62858e-06 -5.87523e-06 0 -2.16025e-06 -5.63082e-06 0 -1.7086e-06 -5.43422e-06 0 -1.2701e-06 -5.28337e-06 0 -8.41363e-07 -5.17671e-06 0 -4.19076e-07 -5.11315e-06 0 -4.01594e-22 -5.09203e-06 0 -1.6747e-05 -6.70106e-05 0 -1.93891e-05 -6.23951e-05 0 -2.13881e-05 -5.60776e-05 0 -2.21569e-05 -4.92223e-05 0 -2.17449e-05 -4.2886e-05 0 -2.06128e-05 -3.73758e-05 0 -1.91279e-05 -3.27455e-05 0 -1.75499e-05 -2.88887e-05 0 -1.60053e-05 -2.56562e-05 0 -1.45571e-05 -2.29263e-05 0 -1.32238e-05 -2.05914e-05 0 -1.20072e-05 -1.85774e-05 0 -1.08991e-05 -1.68233e-05 0 -9.88932e-06 -1.52868e-05 0 -8.9668e-06 -1.39332e-05 0 -8.12143e-06 -1.27373e-05 0 -7.34404e-06 -1.16781e-05 0 -6.62663e-06 -1.07394e-05 0 -5.96219e-06 -9.90739e-06 0 -5.34455e-06 -9.17107e-06 0 -4.76822e-06 -8.52101e-06 0 -4.22833e-06 -7.94935e-06 0 -3.72043e-06 -7.44939e-06 0 -3.24049e-06 -7.01547e-06 0 -2.78477e-06 -6.64279e-06 0 -2.34976e-06 -6.32734e-06 0 -1.93218e-06 -6.06576e-06 0 -1.5289e-06 -5.85531e-06 0 -1.13691e-06 -5.69382e-06 0 -7.53318e-07 -5.57963e-06 0 -3.75276e-07 -5.51157e-06 0 -3.30356e-20 -5.48896e-06 0 -1.22099e-05 -6.607e-05 0 -1.36991e-05 -6.05316e-05 0 -1.51242e-05 -5.47444e-05 0 -1.5968e-05 -4.89178e-05 0 -1.61257e-05 -4.33539e-05 0 -1.57276e-05 -3.83382e-05 0 -1.49723e-05 -3.39497e-05 0 -1.40286e-05 -3.01648e-05 0 -1.30129e-05 -2.69171e-05 0 -1.19951e-05 -2.41221e-05 0 -1.10133e-05 -2.17072e-05 0 -1.00852e-05 -1.96069e-05 0 -9.21746e-06 -1.77712e-05 0 -8.41041e-06 -1.61582e-05 0 -7.6613e-06 -1.47358e-05 0 -6.96605e-06 -1.34778e-05 0 -6.32011e-06 -1.23632e-05 0 -5.71891e-06 -1.13749e-05 0 -5.1581e-06 -1.04989e-05 0 -4.63359e-06 -9.72332e-06 0 -4.1416e-06 -9.03849e-06 0 -3.67858e-06 -8.43608e-06 0 -3.24127e-06 -7.90907e-06 0 -2.82657e-06 -7.45154e-06 0 -2.43158e-06 -7.05848e-06 0 -2.05354e-06 -6.72568e-06 0 -1.68984e-06 -6.44965e-06 0 -1.33792e-06 -6.22753e-06 0 -9.95347e-07 -6.05705e-06 0 -6.59725e-07 -5.93648e-06 0 -3.28714e-07 -5.86462e-06 0 -1.79939e-20 -5.84075e-06 0 -6.83073e-06 -6.45137e-05 0 -8.15776e-06 -5.90491e-05 0 -9.50443e-06 -5.35947e-05 0 -1.05105e-05 -4.82706e-05 0 -1.10666e-05 -4.32554e-05 0 -1.11948e-05 -3.86567e-05 0 -1.09949e-05 -3.4539e-05 0 -1.0572e-05 -3.09064e-05 0 -1.0017e-05 -2.77235e-05 0 -9.39421e-06 -2.49423e-05 0 -8.74703e-06 -2.25087e-05 0 -8.10198e-06 -2.03747e-05 0 -7.47468e-06 -1.84971e-05 0 -6.87336e-06 -1.68405e-05 0 -6.30188e-06 -1.53747e-05 0 -5.76138e-06 -1.40755e-05 0 -5.25147e-06 -1.29224e-05 0 -4.77085e-06 -1.18986e-05 0 -4.31775e-06 -1.09901e-05 0 -3.89018e-06 -1.01851e-05 0 -3.48603e-06 -9.47377e-06 0 -3.10318e-06 -8.84758e-06 0 -2.73951e-06 -8.29943e-06 0 -2.39295e-06 -7.82328e-06 0 -2.06145e-06 -7.41403e-06 0 -1.74302e-06 -7.06737e-06 0 -1.43571e-06 -6.77973e-06 0 -1.13761e-06 -6.54819e-06 0 -8.46835e-07 -6.37044e-06 0 -5.61528e-07 -6.24472e-06 0 -2.79857e-07 -6.16977e-06 0 0 -6.14487e-06 0 -9.00309e-07 -6.32857e-05 0 -2.67062e-06 -5.75343e-05 0 -4.25048e-06 -5.22676e-05 0 -5.53338e-06 -4.73341e-05 0 -6.44276e-06 -4.27238e-05 0 -6.99305e-06 -3.84835e-05 0 -7.23571e-06 -3.46393e-05 0 -7.24403e-06 -3.11938e-05 0 -7.0849e-06 -2.81296e-05 0 -6.81516e-06 -2.54144e-05 0 -6.47672e-06 -2.30125e-05 0 -6.09992e-06 -2.08867e-05 0 -5.70516e-06 -1.90035e-05 0 -5.30605e-06 -1.73325e-05 0 -4.91122e-06 -1.58479e-05 0 -4.526e-06 -1.45276e-05 0 -4.15347e-06 -1.33527e-05 0 -3.79522e-06 -1.23074e-05 0 -3.45186e-06 -1.13782e-05 0 -3.12334e-06 -1.05536e-05 0 -2.80917e-06 -9.82409e-06 0 -2.5086e-06 -9.18121e-06 0 -2.22067e-06 -8.61794e-06 0 -1.94428e-06 -8.12827e-06 0 -1.67826e-06 -7.70711e-06 0 -1.42139e-06 -7.35014e-06 0 -1.17239e-06 -7.0538e-06 0 -9.29983e-07 -6.81517e-06 0 -6.92857e-07 -6.63191e-06 0 -4.59698e-07 -6.50225e-06 0 -2.29187e-07 -6.42495e-06 0 0 -6.39926e-06 0 4.97203e-06 -6.10377e-05 0 2.66303e-06 -5.56131e-05 0 6.79475e-07 -5.06526e-05 0 -9.36409e-07 -4.60671e-05 0 -2.18959e-06 -4.18218e-05 0 -3.09896e-06 -3.79099e-05 0 -3.71148e-06 -3.43362e-05 0 -4.08044e-06 -3.10989e-05 0 -4.26146e-06 -2.81849e-05 0 -4.30247e-06 -2.5574e-05 0 -4.24335e-06 -2.32403e-05 0 -4.1146e-06 -2.11572e-05 0 -3.93923e-06 -1.92981e-05 0 -3.73391e-06 -1.76389e-05 0 -3.5106e-06 -1.61574e-05 0 -3.27769e-06 -1.48347e-05 0 -3.04104e-06 -1.36538e-05 0 -2.80461e-06 -1.26004e-05 0 -2.57106e-06 -1.16618e-05 0 -2.34209e-06 -1.08274e-05 0 -2.11869e-06 -1.00879e-05 0 -1.90138e-06 -9.43541e-06 0 -1.69026e-06 -8.86301e-06 0 -1.48522e-06 -8.3649e-06 0 -1.28592e-06 -7.9361e-06 0 -1.09187e-06 -7.57239e-06 0 -9.02479e-07 -7.27028e-06 0 -7.1707e-07 -7.02686e-06 0 -5.3491e-07 -6.83986e-06 0 -3.5522e-07 -6.70751e-06 0 -1.77192e-07 -6.62859e-06 0 0 -6.60237e-06 0 1.05629e-05 -5.82408e-05 0 7.6425e-06 -5.32161e-05 0 5.2485e-06 -4.86643e-05 0 3.28814e-06 -4.44706e-05 0 1.71897e-06 -4.05863e-05 0 4.94809e-07 -3.69964e-05 0 -4.29605e-07 -3.36956e-05 0 -1.10424e-06 -3.06787e-05 0 -1.57614e-06 -2.79368e-05 0 -1.88862e-06 -2.54557e-05 0 -2.07818e-06 -2.32179e-05 0 -2.1749e-06 -2.12038e-05 0 -2.20245e-06 -1.93935e-05 0 -2.1792e-06 -1.77677e-05 0 -2.11915e-06 -1.63088e-05 0 -2.03284e-06 -1.50003e-05 0 -1.92815e-06 -1.38279e-05 0 -1.81095e-06 -1.27788e-05 0 -1.68558e-06 -1.18416e-05 0 -1.55519e-06 -1.10065e-05 0 -1.42208e-06 -1.0265e-05 0 -1.28789e-06 -9.60964e-06 0 -1.15376e-06 -9.03394e-06 0 -1.02041e-06 -8.53235e-06 0 -8.88313e-07 -8.1001e-06 0 -7.57683e-07 -7.73317e-06 0 -6.28573e-07 -7.42814e-06 0 -5.00902e-07 -7.18224e-06 0 -3.74489e-07 -6.99324e-06 0 -2.49077e-07 -6.85943e-06 0 -1.24361e-07 -6.77962e-06 0 0 -6.7531e-06 0 1.5471e-05 -5.47325e-05 0 1.21289e-05 -5.0376e-05 0 9.38165e-06 -4.63317e-05 0 7.1249e-06 -4.25671e-05 0 5.27984e-06 -3.90583e-05 0 3.78959e-06 -3.57939e-05 0 2.60205e-06 -3.27699e-05 0 1.67043e-06 -2.99828e-05 0 9.50638e-07 -2.74271e-05 0 4.03603e-07 -2.5094e-05 0 -4.87862e-09 -2.29717e-05 0 -3.03455e-07 -2.10467e-05 0 -5.15739e-07 -1.93044e-05 0 -6.6072e-07 -1.77302e-05 0 -7.53515e-07 -1.63099e-05 0 -8.06013e-07 -1.50302e-05 0 -8.27522e-07 -1.38791e-05 0 -8.25292e-07 -1.28454e-05 0 -8.04957e-07 -1.19194e-05 0 -7.70887e-07 -1.10922e-05 0 -7.26464e-07 -1.03561e-05 0 -6.743e-07 -9.70435e-06 0 -6.16405e-07 -9.13089e-06 0 -5.54317e-07 -8.63057e-06 0 -4.89207e-07 -8.19892e-06 0 -4.21954e-07 -7.83212e-06 0 -3.53213e-07 -7.52697e-06 0 -2.83466e-07 -7.28081e-06 0 -2.13057e-07 -7.0915e-06 0 -1.42233e-07 -6.95743e-06 0 -7.11708e-08 -6.87744e-06 0 0 -6.85085e-06 0 1.96332e-05 -5.08921e-05 0 1.60198e-05 -4.7215e-05 0 1.3034e-05 -4.37209e-05 0 1.05507e-05 -4.04109e-05 0 8.4881e-06 -3.72867e-05 0 6.78149e-06 -3.43512e-05 0 5.37881e-06 -3.16069e-05 0 4.23378e-06 -2.9055e-05 0 3.30568e-06 -2.66944e-05 0 2.55811e-06 -2.4521e-05 0 1.95943e-06 -2.25281e-05 0 1.48245e-06 -2.0707e-05 0 1.10433e-06 -1.90474e-05 0 8.06107e-07 -1.75388e-05 0 5.72256e-07 -1.61705e-05 0 3.90162e-07 -1.49318e-05 0 2.49635e-07 -1.38129e-05 0 1.42474e-07 -1.28046e-05 0 6.20884e-08 -1.18985e-05 0 3.18499e-09 -1.1087e-05 0 -3.84902e-08 -1.03631e-05 0 -6.63605e-08 -9.72088e-06 0 -8.31861e-08 -9.15482e-06 0 -9.11979e-08 -8.66023e-06 0 -9.22054e-08 -8.23298e-06 0 -8.76826e-08 -7.86954e-06 0 -7.88384e-08 -7.5669e-06 0 -6.66735e-08 -7.32259e-06 0 -5.20279e-08 -7.13461e-06 0 -3.5621e-08 -7.00142e-06 0 -1.80858e-08 -6.92193e-06 0 0 -6.89551e-06 0 2.29942e-05 -4.68674e-05 0 1.93002e-05 -4.38744e-05 0 1.61875e-05 -4.09263e-05 0 1.35602e-05 -3.80685e-05 0 1.13414e-05 -3.53267e-05 0 9.47094e-06 -3.27171e-05 0 7.89848e-06 -3.02509e-05 0 6.58111e-06 -2.79354e-05 0 5.4809e-06 -2.5774e-05 0 4.56454e-06 -2.37673e-05 0 3.80275e-06 -2.19126e-05 0 3.17017e-06 -2.02054e-05 0 2.64507e-06 -1.86395e-05 0 2.20905e-06 -1.72074e-05 0 1.84668e-06 -1.59014e-05 0 1.5451e-06 -1.47136e-05 0 1.2937e-06 -1.36363e-05 0 1.08368e-06 -1.26618e-05 0 9.07825e-07 -1.17832e-05 0 7.60167e-07 -1.09942e-05 0 6.35789e-07 -1.02886e-05 0 5.30622e-07 -9.66131e-06 0 4.41289e-07 -9.10739e-06 0 3.64973e-07 -8.62264e-06 0 2.9931e-07 -8.20333e-06 0 2.42302e-07 -7.84623e-06 0 1.92242e-07 -7.54859e-06 0 1.47658e-07 -7.30813e-06 0 1.07254e-07 -7.123e-06 0 6.98722e-08 -6.99177e-06 0 3.44532e-08 -6.91344e-06 0 5.73743e-21 -6.88739e-06 0 2.56574e-05 -4.28779e-05 0 2.20002e-05 -4.04809e-05 0 1.88603e-05 -3.80383e-05 0 1.61633e-05 -3.56091e-05 0 1.38484e-05 -3.32335e-05 0 1.18633e-05 -3.09388e-05 0 1.01641e-05 -2.87438e-05 0 8.71195e-06 -2.6661e-05 0 7.47299e-06 -2.46986e-05 0 6.41703e-06 -2.2861e-05 0 5.51748e-06 -2.11494e-05 0 4.75098e-06 -1.95626e-05 0 4.09725e-06 -1.80975e-05 0 3.53879e-06 -1.67498e-05 0 3.06067e-06 -1.55143e-05 0 2.65019e-06 -1.43852e-05 0 2.29662e-06 -1.33568e-05 0 1.99094e-06 -1.24231e-05 0 1.72554e-06 -1.15786e-05 0 1.49401e-06 -1.08179e-05 0 1.29097e-06 -1.01361e-05 0 1.11187e-06 -9.52843e-06 0 9.52823e-07 -8.99089e-06 0 8.10551e-07 -8.5197e-06 0 6.82218e-07 -8.11154e-06 0 5.65375e-07 -7.76353e-06 0 4.57879e-07 -7.47318e-06 0 3.57832e-07 -7.23842e-06 0 2.63529e-07 -7.05756e-06 0 1.73413e-07 -6.9293e-06 0 8.60315e-08 -6.85271e-06 0 4.83591e-20 -6.82725e-06 0 2.77184e-05 -3.90175e-05 0 2.4187e-05 -3.71303e-05 0 2.10916e-05 -3.51336e-05 0 1.83864e-05 -3.30939e-05 0 1.60264e-05 -3.10582e-05 0 1.3971e-05 -2.90601e-05 0 1.21832e-05 -2.71235e-05 0 1.06303e-05 -2.52655e-05 0 9.28265e-06 -2.34979e-05 0 8.11368e-06 -2.18283e-05 0 7.09966e-06 -2.0261e-05 0 6.2195e-06 -1.87977e-05 0 5.45457e-06 -1.7438e-05 0 4.78857e-06 -1.618e-05 0 4.20734e-06 -1.50206e-05 0 3.69864e-06 -1.39561e-05 0 3.25191e-06 -1.29825e-05 0 2.85813e-06 -1.20953e-05 0 2.50954e-06 -1.12902e-05 0 2.19951e-06 -1.05629e-05 0 1.92234e-06 -9.90929e-06 0 1.67314e-06 -9.32554e-06 0 1.44767e-06 -8.80811e-06 0 1.24225e-06 -8.35379e-06 0 1.05369e-06 -7.95968e-06 0 8.79143e-07 -7.62323e-06 0 7.16098e-07 -7.34225e-06 0 5.62285e-07 -7.11487e-06 0 4.15636e-07 -6.93958e-06 0 2.74232e-07 -6.81522e-06 0 1.36265e-07 -6.74093e-06 0 8.47502e-21 -6.71622e-06 0 2.93002e-05 -3.53582e-05 0 2.59362e-05 -3.38846e-05 0 2.29334e-05 -3.22687e-05 0 2.02648e-05 -3.05725e-05 0 1.79008e-05 -2.88439e-05 0 1.58115e-05 -2.71187e-05 0 1.39681e-05 -2.54238e-05 0 1.23439e-05 -2.3779e-05 0 1.09141e-05 -2.21987e-05 0 9.65582e-06 -2.06929e-05 0 8.54842e-06 -1.92684e-05 0 7.57318e-06 -1.79291e-05 0 6.71331e-06 -1.66767e-05 0 5.95391e-06 -1.55113e-05 0 5.28179e-06 -1.44319e-05 0 4.68535e-06 -1.34363e-05 0 4.15448e-06 -1.25218e-05 0 3.68031e-06 -1.16855e-05 0 3.25515e-06 -1.09241e-05 0 2.87228e-06 -1.02342e-05 0 2.52586e-06 -9.61271e-06 0 2.21077e-06 -9.05638e-06 0 1.92253e-06 -8.56229e-06 0 1.65717e-06 -8.12773e-06 0 1.41119e-06 -7.75021e-06 0 1.18145e-06 -7.42753e-06 0 9.65118e-07 -7.15776e-06 0 7.59601e-07 -6.93928e-06 0 5.62515e-07 -6.77074e-06 0 3.71624e-07 -6.65111e-06 0 1.84804e-07 -6.57962e-06 0 0 -6.55584e-06 0 3.04993e-05 -3.19197e-05 0 2.73234e-05 -3.07795e-05 0 2.44403e-05 -2.94816e-05 0 2.18387e-05 -2.80815e-05 0 1.95008e-05 -2.66245e-05 0 1.74063e-05 -2.51459e-05 0 1.55342e-05 -2.36732e-05 0 1.38636e-05 -2.22273e-05 0 1.23743e-05 -2.08243e-05 0 1.10474e-05 -1.94758e-05 0 9.86536e-06 -1.81902e-05 0 8.81179e-06 -1.69732e-05 0 7.87189e-06 -1.58281e-05 0 7.03224e-06 -1.47567e-05 0 6.28078e-06 -1.37592e-05 0 5.60674e-06 -1.28351e-05 0 5.00052e-06 -1.1983e-05 0 4.45365e-06 -1.12008e-05 0 3.9586e-06 -1.04864e-05 0 3.50873e-06 -9.83726e-06 0 3.09815e-06 -9.25097e-06 0 2.72165e-06 -8.72501e-06 0 2.37457e-06 -8.257e-06 0 2.05277e-06 -7.84467e-06 0 1.75251e-06 -7.48595e-06 0 1.4704e-06 -7.17896e-06 0 1.20335e-06 -6.92205e-06 0 9.48512e-07 -6.7138e-06 0 7.03219e-07 -6.55306e-06 0 4.64959e-07 -6.43889e-06 0 2.31331e-07 -6.37066e-06 0 0 -6.34796e-06 0 3.14021e-05 -2.87072e-05 0 2.84155e-05 -2.78308e-05 0 2.5665e-05 -2.67945e-05 0 2.31484e-05 -2.56459e-05 0 2.08571e-05 -2.44255e-05 0 1.87789e-05 -2.31663e-05 0 1.6899e-05 -2.18948e-05 0 1.5202e-05 -2.06321e-05 0 1.36723e-05 -1.93948e-05 0 1.22945e-05 -1.81953e-05 0 1.1054e-05 -1.70431e-05 0 9.93696e-06 -1.5945e-05 0 8.93045e-06 -1.49056e-05 0 8.02261e-06 -1.39278e-05 0 7.20257e-06 -1.30131e-05 0 6.46047e-06 -1.2162e-05 0 5.7874e-06 -1.13741e-05 0 5.17531e-06 -1.06483e-05 0 4.61701e-06 -9.98332e-06 0 4.106e-06 -9.37747e-06 0 3.63647e-06 -8.82891e-06 0 3.20318e-06 -8.33573e-06 0 2.80142e-06 -7.89604e-06 0 2.4269e-06 -7.50803e-06 0 2.07572e-06 -7.16999e-06 0 1.74433e-06 -6.88035e-06 0 1.42941e-06 -6.63771e-06 0 1.1279e-06 -6.44087e-06 0 8.36905e-07 -6.28882e-06 0 5.53675e-07 -6.18079e-06 0 2.75566e-07 -6.1162e-06 0 9.7336e-21 -6.09471e-06 0 3.20742e-05 -2.57097e-05 0 2.92702e-05 -2.50413e-05 0 2.66547e-05 -2.42184e-05 0 2.4232e-05 -2.3281e-05 0 2.20002e-05 -2.22643e-05 0 1.99529e-05 -2.1198e-05 0 1.80808e-05 -2.01068e-05 0 1.63732e-05 -1.9011e-05 0 1.48184e-05 -1.79268e-05 0 1.34045e-05 -1.6867e-05 0 1.21194e-05 -1.58416e-05 0 1.09518e-05 -1.48578e-05 0 9.89051e-06 -1.39213e-05 0 8.92533e-06 -1.30357e-05 0 8.04658e-06 -1.22034e-05 0 7.24533e-06 -1.14256e-05 0 6.51342e-06 -1.07029e-05 0 5.84333e-06 -1.0035e-05 0 5.22823e-06 -9.42114e-06 0 4.66188e-06 -8.8604e-06 0 4.13862e-06 -8.35146e-06 0 3.65326e-06 -7.89296e-06 0 3.20108e-06 -7.48343e-06 0 2.77773e-06 -7.12146e-06 0 2.37921e-06 -6.80566e-06 0 2.00182e-06 -6.53476e-06 0 1.6421e-06 -6.3076e-06 0 1.2968e-06 -6.12317e-06 0 9.62844e-07 -5.98062e-06 0 6.37282e-07 -5.87929e-06 0 3.17263e-07 -5.81868e-06 0 4.05007e-20 -5.79851e-06 0 3.25693e-05 -2.29115e-05 0 2.99349e-05 -2.24059e-05 0 2.74505e-05 -2.1756e-05 0 2.51241e-05 -2.09946e-05 0 2.29583e-05 -2.01518e-05 0 2.09513e-05 -1.92538e-05 0 1.9098e-05 -1.83228e-05 0 1.73916e-05 -1.73778e-05 0 1.58238e-05 -1.6434e-05 0 1.43856e-05 -1.55041e-05 0 1.30675e-05 -1.45979e-05 0 1.18603e-05 -1.37232e-05 0 1.07546e-05 -1.28858e-05 0 9.74175e-06 -1.20901e-05 0 8.81319e-06 -1.13388e-05 0 7.96099e-06 -1.06341e-05 0 7.17772e-06 -9.97682e-06 0 6.45645e-06 -9.36745e-06 0 5.79078e-06 -8.80585e-06 0 5.17477e-06 -8.29148e-06 0 4.60295e-06 -7.82359e-06 0 4.07024e-06 -7.4012e-06 0 3.57197e-06 -7.02328e-06 0 3.10377e-06 -6.68873e-06 0 2.66161e-06 -6.39646e-06 0 2.24167e-06 -6.14547e-06 0 1.84039e-06 -5.93479e-06 0 1.45438e-06 -5.76362e-06 0 1.0804e-06 -5.63124e-06 0 7.15358e-07 -5.53708e-06 0 3.56211e-07 -5.48076e-06 0 3.25772e-21 -5.46201e-06 0 3.29285e-05 -2.02935e-05 0 3.04485e-05 -1.99148e-05 0 2.80872e-05 -1.94044e-05 0 2.58549e-05 -1.8789e-05 0 2.37572e-05 -1.80939e-05 0 2.17955e-05 -1.73418e-05 0 1.99682e-05 -1.65524e-05 0 1.82713e-05 -1.57427e-05 0 1.66996e-05 -1.4927e-05 0 1.52465e-05 -1.4117e-05 0 1.39048e-05 -1.33225e-05 0 1.26672e-05 -1.2551e-05 0 1.15261e-05 -1.18086e-05 0 1.04739e-05 -1.10997e-05 0 9.50353e-06 -1.04277e-05 0 8.60781e-06 -9.79493e-06 0 7.7801e-06 -9.20279e-06 0 7.01407e-06 -8.65213e-06 0 6.30375e-06 -8.14326e-06 0 5.64355e-06 -7.67607e-06 0 5.02822e-06 -7.25018e-06 0 4.45285e-06 -6.86499e-06 0 3.91283e-06 -6.51976e-06 0 3.40384e-06 -6.21371e-06 0 2.92181e-06 -5.94601e-06 0 2.46289e-06 -5.71586e-06 0 2.02343e-06 -5.52251e-06 0 1.59994e-06 -5.3653e-06 0 1.18906e-06 -5.24364e-06 0 7.87542e-07 -5.15708e-06 0 3.92228e-07 -5.10529e-06 0 0 -5.08804e-06 0 3.31844e-05 -1.7836e-05 0 3.08424e-05 -1.75557e-05 0 2.85939e-05 -1.71573e-05 0 2.64505e-05 -1.66626e-05 0 2.44197e-05 -1.60927e-05 0 2.25051e-05 -1.54667e-05 0 2.07076e-05 -1.48019e-05 0 1.90258e-05 -1.41133e-05 0 1.74566e-05 -1.34138e-05 0 1.59958e-05 -1.27142e-05 0 1.46381e-05 -1.20237e-05 0 1.33777e-05 -1.13495e-05 0 1.22085e-05 -1.06976e-05 0 1.11245e-05 -1.00723e-05 0 1.01192e-05 -9.47729e-06 0 9.18668e-06 -8.915e-06 0 8.32087e-06 -8.38718e-06 0 7.51603e-06 -7.89496e-06 0 6.76666e-06 -7.43894e-06 0 6.06751e-06 -7.01934e-06 0 5.41358e-06 -6.63606e-06 0 4.80014e-06 -6.28879e-06 0 4.2227e-06 -5.97707e-06 0 3.67698e-06 -5.70035e-06 0 3.15894e-06 -5.45801e-06 0 2.66469e-06 -5.24946e-06 0 2.19053e-06 -5.07412e-06 0 1.7329e-06 -4.93144e-06 0 1.28836e-06 -4.82097e-06 0 8.53535e-07 -4.74234e-06 0 4.25162e-07 -4.69528e-06 0 0 -4.67961e-06 0 3.33625e-05 -1.55196e-05 0 3.1142e-05 -1.5315e-05 0 2.89947e-05 -1.50063e-05 0 2.6933e-05 -1.46112e-05 0 2.49653e-05 -1.41471e-05 0 2.30971e-05 -1.363e-05 0 2.13309e-05 -1.30748e-05 0 1.96674e-05 -1.24944e-05 0 1.81053e-05 -1.19002e-05 0 1.66419e-05 -1.13022e-05 0 1.52739e-05 -1.07084e-05 0 1.39968e-05 -1.01257e-05 0 1.2806e-05 -9.55958e-06 0 1.16962e-05 -9.01456e-06 0 1.06623e-05 -8.494e-06 0 9.69886e-06 -8.00049e-06 0 8.8007e-06 -7.5359e-06 0 7.96257e-06 -7.10152e-06 0 7.1794e-06 -6.69816e-06 0 6.44629e-06 -6.32624e-06 0 5.7585e-06 -5.98589e-06 0 5.11149e-06 -5.67702e-06 0 4.50088e-06 -5.39938e-06 0 3.92249e-06 -5.15259e-06 0 3.37229e-06 -4.93624e-06 0 2.84641e-06 -4.74988e-06 0 2.34112e-06 -4.59306e-06 0 1.8528e-06 -4.46539e-06 0 1.37794e-06 -4.36648e-06 0 9.13091e-07 -4.29606e-06 0 4.54889e-07 -4.25389e-06 0 0 -4.23985e-06 0 3.34828e-05 -1.33255e-05 0 3.13676e-05 -1.31786e-05 0 2.93095e-05 -1.29415e-05 0 2.73209e-05 -1.26287e-05 0 2.54111e-05 -1.22542e-05 0 2.35866e-05 -1.18313e-05 0 2.18514e-05 -1.13725e-05 0 2.02074e-05 -1.08889e-05 0 1.86549e-05 -1.03904e-05 0 1.71927e-05 -9.88556e-06 0 1.58187e-05 -9.38168e-06 0 1.45297e-05 -8.88494e-06 0 1.33222e-05 -8.4004e-06 0 1.2192e-05 -7.93218e-06 0 1.11348e-05 -7.48353e-06 0 1.01458e-05 -7.05695e-06 0 9.22052e-06 -6.65433e-06 0 8.35417e-06 -6.277e-06 0 7.54212e-06 -5.92589e-06 0 6.77978e-06 -5.60154e-06 0 6.06268e-06 -5.30423e-06 0 5.38645e-06 -5.03402e-06 0 4.74687e-06 -4.79081e-06 0 4.13982e-06 -4.57439e-06 0 3.56135e-06 -4.38447e-06 0 3.00757e-06 -4.22075e-06 0 2.47476e-06 -4.08288e-06 0 1.95926e-06 -3.97057e-06 0 1.45751e-06 -3.88353e-06 0 9.66007e-07 -3.82153e-06 0 4.81307e-07 -3.7844e-06 0 0 -3.77203e-06 0 3.35611e-05 -1.12359e-05 0 3.15354e-05 -1.11323e-05 0 2.95541e-05 -1.09525e-05 0 2.76295e-05 -1.07078e-05 0 2.57713e-05 -1.04094e-05 0 2.39866e-05 -1.00684e-05 0 2.22804e-05 -9.6949e-06 0 2.06557e-05 -9.29823e-06 0 1.91139e-05 -8.88674e-06 0 1.76552e-05 -8.46778e-06 0 1.62783e-05 -8.04768e-06 0 1.49811e-05 -7.63185e-06 0 1.37611e-05 -7.22477e-06 0 1.2615e-05 -6.83012e-06 0 1.15389e-05 -6.45088e-06 0 1.05291e-05 -6.08937e-06 0 9.58139e-06 -5.74738e-06 0 8.69149e-06 -5.42621e-06 0 7.85513e-06 -5.1268e-06 0 7.06805e-06 -4.84975e-06 0 6.326e-06 -4.59544e-06 0 5.62479e-06 -4.364e-06 0 4.96034e-06 -4.15544e-06 0 4.32862e-06 -3.96968e-06 0 3.72571e-06 -3.80652e-06 0 3.14779e-06 -3.66576e-06 0 2.59111e-06 -3.54716e-06 0 2.05199e-06 -3.45049e-06 0 1.52684e-06 -3.37554e-06 0 1.01213e-06 -3.32214e-06 0 5.04335e-07 -3.29015e-06 0 0 -3.2795e-06 0 3.36094e-05 -9.23381e-06 0 3.16583e-05 -9.16251e-06 0 2.97416e-05 -9.02842e-06 0 2.78714e-05 -8.84035e-06 0 2.60575e-05 -8.60726e-06 0 2.43077e-05 -8.33783e-06 0 2.26275e-05 -8.04026e-06 0 2.10208e-05 -7.72215e-06 0 1.94899e-05 -7.39036e-06 0 1.80357e-05 -7.05096e-06 0 1.66579e-05 -6.70929e-06 0 1.53554e-05 -6.36987e-06 0 1.41262e-05 -6.03657e-06 0 1.29677e-05 -5.71256e-06 0 1.18769e-05 -5.40041e-06 0 1.08504e-05 -5.10221e-06 0 9.88442e-06 -4.81953e-06 0 8.97525e-06 -4.55361e-06 0 8.11888e-06 -4.3053e-06 0 7.3113e-06 -4.07522e-06 0 6.54848e-06 -3.86374e-06 0 5.8264e-06 -3.67107e-06 0 5.14109e-06 -3.49728e-06 0 4.48861e-06 -3.34235e-06 0 3.86511e-06 -3.20617e-06 0 3.26678e-06 -3.08861e-06 0 2.68989e-06 -2.9895e-06 0 2.13075e-06 -2.90869e-06 0 1.58576e-06 -2.84601e-06 0 1.05132e-06 -2.80134e-06 0 5.2391e-07 -2.77458e-06 0 0 -2.76566e-06 0 3.36375e-05 -7.30327e-06 0 3.17465e-05 -7.25564e-06 0 2.98822e-05 -7.1583e-06 0 2.80565e-05 -7.01792e-06 0 2.62794e-05 -6.84135e-06 0 2.45588e-05 -6.63526e-06 0 2.29008e-05 -6.40605e-06 0 2.13099e-05 -6.15963e-06 0 1.97889e-05 -5.90144e-06 0 1.83395e-05 -5.63631e-06 0 1.69621e-05 -5.3685e-06 0 1.56562e-05 -5.10168e-06 0 1.44204e-05 -4.83899e-06 0 1.32527e-05 -4.58302e-06 0 1.21505e-05 -4.33593e-06 0 1.11109e-05 -4.09944e-06 0 1.01307e-05 -3.87489e-06 0 9.20621e-06 -3.66334e-06 0 8.33384e-06 -3.46554e-06 0 7.5098e-06 -3.28204e-06 0 6.73023e-06 -3.11321e-06 0 5.99126e-06 -2.95924e-06 0 5.28901e-06 -2.82026e-06 0 4.61965e-06 -2.69626e-06 0 3.97935e-06 -2.5872e-06 0 3.36435e-06 -2.49301e-06 0 2.77092e-06 -2.41356e-06 0 2.19539e-06 -2.34875e-06 0 1.63412e-06 -2.29848e-06 0 1.0835e-06 -2.26264e-06 0 5.39982e-07 -2.24116e-06 0 0 -2.23401e-06 0 3.36524e-05 -5.42902e-06 0 3.18076e-05 -5.3986e-06 0 2.99838e-05 -5.33122e-06 0 2.81928e-05 -5.23167e-06 0 2.64445e-05 -5.1049e-06 0 2.47471e-05 -4.95576e-06 0 2.31069e-05 -4.78894e-06 0 2.15288e-05 -4.6088e-06 0 2.00162e-05 -4.41937e-06 0 1.85712e-05 -4.22424e-06 0 1.71948e-05 -4.02662e-06 0 1.58868e-05 -3.82928e-06 0 1.46464e-05 -3.63459e-06 0 1.3472e-05 -3.44455e-06 0 1.23615e-05 -3.26079e-06 0 1.13122e-05 -3.08466e-06 0 1.03211e-05 -2.91722e-06 0 9.38503e-06 -2.75927e-06 0 8.50047e-06 -2.61145e-06 0 7.66382e-06 -2.47418e-06 0 6.87138e-06 -2.34778e-06 0 6.11938e-06 -2.23243e-06 0 5.40406e-06 -2.12823e-06 0 4.72162e-06 -2.03522e-06 0 4.0683e-06 -1.95337e-06 0 3.44035e-06 -1.88265e-06 0 2.83407e-06 -1.82298e-06 0 2.24577e-06 -1.77429e-06 0 1.67182e-06 -1.73651e-06 0 1.1086e-06 -1.70958e-06 0 5.52516e-07 -1.69344e-06 0 0 -1.68806e-06 0 3.36595e-05 -3.59645e-06 0 3.18474e-05 -3.57863e-06 0 3.00524e-05 -3.53633e-06 0 2.82861e-05 -3.47263e-06 0 2.65585e-05 -3.39077e-06 0 2.48778e-05 -3.2939e-06 0 2.32506e-05 -3.18508e-06 0 2.1682e-05 -3.0672e-06 0 2.01757e-05 -2.94291e-06 0 1.87343e-05 -2.8146e-06 0 1.73588e-05 -2.6844e-06 0 1.60497e-05 -2.55417e-06 0 1.48063e-05 -2.4255e-06 0 1.36275e-05 -2.29973e-06 0 1.25112e-05 -2.17798e-06 0 1.14551e-05 -2.06116e-06 0 1.04565e-05 -1.95e-06 0 9.51232e-06 -1.84506e-06 0 8.61918e-06 -1.74677e-06 0 7.77363e-06 -1.65544e-06 0 6.97207e-06 -1.57129e-06 0 6.21085e-06 -1.49445e-06 0 5.48623e-06 -1.42501e-06 0 4.79448e-06 -1.363e-06 0 4.13188e-06 -1.30842e-06 0 3.49469e-06 -1.26124e-06 0 2.87923e-06 -1.22142e-06 0 2.28181e-06 -1.18892e-06 0 1.6988e-06 -1.1637e-06 0 1.12655e-06 -1.14572e-06 0 5.61486e-07 -1.13494e-06 0 0 -1.13135e-06 0 3.36624e-05 -1.79138e-06 0 3.18697e-05 -1.7832e-06 0 3.00919e-05 -1.76282e-06 0 2.83405e-05 -1.73177e-06 0 2.66253e-05 -1.69162e-06 0 2.49547e-05 -1.64395e-06 0 2.33354e-05 -1.59026e-06 0 2.17726e-05 -1.53198e-06 0 2.02703e-05 -1.47043e-06 0 1.88311e-05 -1.40681e-06 0 1.74563e-05 -1.34217e-06 0 1.61467e-05 -1.27745e-06 0 1.49017e-05 -1.21346e-06 0 1.37202e-05 -1.15085e-06 0 1.26006e-05 -1.09021e-06 0 1.15406e-05 -1.03198e-06 0 1.05375e-05 -9.76545e-07 0 9.58851e-06 -9.24184e-07 0 8.69027e-06 -8.75118e-07 0 7.83942e-06 -8.29508e-07 0 7.03244e-06 -7.87468e-07 0 6.26569e-06 -7.49071e-07 0 5.53552e-06 -7.14361e-07 0 4.83821e-06 -6.83356e-07 0 4.17004e-06 -6.56059e-07 0 3.52732e-06 -6.32459e-07 0 2.90635e-06 -6.1254e-07 0 2.30346e-06 -5.96282e-07 0 1.715e-06 -5.83662e-07 0 1.13734e-06 -5.74663e-07 0 5.66874e-07 -5.6927e-07 0 0 -5.67474e-07 0 3.36631e-05 -0 0 3.18769e-05 2.11965e-19 0 3.01048e-05 -1.59819e-19 0 2.83584e-05 -1.0959e-19 0 2.66474e-05 -0 0 2.49801e-05 -0 0 2.33635e-05 -0 0 2.18027e-05 -0 0 2.03017e-05 -0 0 1.88632e-05 -0 0 1.74887e-05 8.62052e-21 0 1.61789e-05 1.11728e-19 0 1.49333e-05 1.59732e-20 0 1.3751e-05 -9.68597e-20 0 1.26303e-05 -1.79923e-20 0 1.1569e-05 -0 0 1.05645e-05 -0 0 9.61387e-06 -0 0 8.71394e-06 -1.39167e-20 0 7.86133e-06 -5.49088e-20 0 7.05255e-06 -4.20636e-21 0 6.28397e-06 -0 0 5.55195e-06 -0 0 4.85278e-06 -0 0 4.18276e-06 1.18758e-20 0 3.5382e-06 2.19924e-20 0 2.91539e-06 3.59263e-22 0 2.31068e-06 -0 0 1.7204e-06 -0 0 1.14094e-06 -0 0 5.68672e-07 -0 0 0 -0 0 </DataArray> 
</PointData> 
<Points> 
<DataArray type="Float32" NumberOfComponents="3"> 