<?xml version="1.0"?> 
<VTKFile type="StructuredGrid" version="0.1"> 
<StructuredGrid WholeExtent="0 31 0 31 0 0"> 
<Piece Extent="0 31 0 31 0 0"> 
<PointData>
<DataArray type="Float32" Name="B" format="ascii" NumberOfComponents="3"> 
0 -3.07978e-06 0 -5.48253e-07 -3.09358e-06 0 -1.1012e-06 -3.13514e-06 0 -1.66366e-06 -3.20501e-06 0 -2.24043e-06 -3.30411e-06 0 -2.83667e-06 -3.43369e-06 0 -3.45747e-06 -3.59554e-06 0 -4.1086e-06 -3.79172e-06 0 -4.79582e-06 -4.02518e-06 0 -5.52528e-06 -4.29872e-06 0 -6.30518e-06 -4.61722e-06 0 -7.13874e-06 -4.98367e-06 0 -8.04561e-06 -5.40701e-06 0 -9.00701e-06 -5.8878e-06 0 -1.00974e-05 -6.44543e-06 0 -1.11851e-05 -7.06856e-06 0 -1.25923e-05 -7.80631e-06 0 -1.36781e-05 -8.60471e-06 0 -1.58232e-05 -9.59923e-06 0 -1.62505e-05 -1.06026e-05 0 -2.06442e-05 -1.19906e-05 0 -1.77028e-05 -1.32077e-05 0 -2.98996e-05 -1.52252e-05 0 -1.32866e-05 -1.66583e-05 0 -5.33792e-05 -1.95593e-05 0 1.40782e-05 -2.15974e-05 0 -0.000124242 -2.45238e-05 0 0.0001213 -3.07542e-05 0 -0.000346582 -2.30139e-05 0 0.000431815 -6.3071e-05 0 -0.000511909 0.000146103 0 -0.0165005 -0.00147303 0 2.18605e-20 -2.89579e-06 0 -5.57189e-07 -2.90879e-06 0 -1.11921e-06 -2.94797e-06 0 -1.69094e-06 -3.01383e-06 0 -2.27739e-06 -3.10723e-06 0 -2.88372e-06 -3.2294e-06 0 -3.51536e-06 -3.38198e-06 0 -4.17799e-06 -3.56702e-06 0 -4.87772e-06 -3.78713e-06 0 -5.62116e-06 -4.04536e-06 0 -6.41518e-06 -4.3456e-06 0 -7.26828e-06 -4.69211e-06 0 -8.18705e-06 -5.09071e-06 0 -9.18577e-06 -5.54699e-06 0 -1.02639e-05 -6.06998e-06 0 -1.14581e-05 -6.66626e-06 0 -1.2728e-05 -7.35092e-06 0 -1.42031e-05 -8.12957e-06 0 -1.56628e-05 -9.02992e-06 0 -1.76181e-05 -1.00503e-05 0 -1.90972e-05 -1.12454e-05 0 -2.21314e-05 -1.25909e-05 0 -2.27804e-05 -1.41963e-05 0 -2.89247e-05 -1.59825e-05 0 -2.53697e-05 -1.81584e-05 0 -4.17112e-05 -2.05155e-05 0 -2.17484e-05 -2.34254e-05 0 -7.25923e-05 -2.6093e-05 0 3.87131e-06 -2.88928e-05 0 -0.00015345 -2.44591e-05 0 -1.69005e-05 2.6648e-05 0 0.00312215 0.000949321 0 1.68445e-20 -2.70892e-06 0 -5.65599e-07 -2.7211e-06 0 -1.13613e-06 -2.75783e-06 0 -1.71661e-06 -2.81958e-06 0 -2.31213e-06 -2.90716e-06 0 -2.928e-06 -3.02173e-06 0 -3.56976e-06 -3.16483e-06 0 -4.24328e-06 -3.33841e-06 0 -4.95482e-06 -3.5449e-06 0 -5.71112e-06 -3.78726e-06 0 -6.51956e-06 -4.06901e-06 0 -7.388e-06 -4.39446e-06 0 -8.32576e-06 -4.7686e-06 0 -9.34154e-06 -5.19764e-06 0 -1.04489e-05 -5.68853e-06 0 -1.16546e-05 -6.25019e-06 0 -1.2985e-05 -6.89238e-06 0 -1.44301e-05 -7.62783e-06 0 -1.60621e-05 -8.47064e-06 0 -1.77939e-05 -9.43804e-06 0 -1.98695e-05 -1.05524e-05 0 -2.18882e-05 -1.18331e-05 0 -2.47352e-05 -1.33196e-05 0 -2.68246e-05 -1.50239e-05 0 -3.13635e-05 -1.70029e-05 0 -3.25148e-05 -1.92692e-05 0 -4.15799e-05 -2.16818e-05 0 -3.82187e-05 -2.45221e-05 0 -6.03665e-05 -2.501e-05 0 -4.1831e-05 -2.38023e-05 0 -5.02804e-05 3.04555e-05 0 0.000176187 -0.000105934 0 0 -2.51933e-06 0 -5.73459e-07 -2.53069e-06 0 -1.15196e-06 -2.56492e-06 0 -1.7406e-06 -2.62247e-06 0 -2.34461e-06 -2.7041e-06 0 -2.9694e-06 -2.81089e-06 0 -3.62065e-06 -2.9443e-06 0 -4.30435e-06 -3.10614e-06 0 -5.02695e-06 -3.29871e-06 0 -5.79535e-06 -3.52475e-06 0 -6.61711e-06 -3.78763e-06 0 -7.50051e-06 -4.09129e-06 0 -8.45465e-06 -4.44062e-06 0 -9.48983e-06 -4.84107e-06 0 -1.06172e-05 -5.29985e-06 0 -1.18501e-05 -5.82418e-06 0 -1.32022e-05 -6.42517e-06 0 -1.46924e-05 -7.11151e-06 0 -1.63357e-05 -7.90168e-06 0 -1.8163e-05 -8.80323e-06 0 -2.01865e-05 -9.85009e-06 0 -2.24643e-05 -1.10394e-05 0 -2.49944e-05 -1.24371e-05 0 -2.78958e-05 -1.40078e-05 0 -3.11389e-05 -1.58601e-05 0 -3.4948e-05 -1.79114e-05 0 -3.93282e-05 -2.01188e-05 0 -4.44505e-05 -2.25573e-05 0 -5.06371e-05 -2.28939e-05 0 -5.39033e-05 -2.24575e-05 0 -2.84699e-05 5.67629e-07 0 7.03666e-05 -0.000306366 0 2.75313e-22 -2.32723e-06 0 -5.8076e-07 -2.33774e-06 0 -1.16666e-06 -2.36942e-06 0 -1.76289e-06 -2.42269e-06 0 -2.37478e-06 -2.49824e-06 0 -3.00786e-06 -2.5971e-06 0 -3.66793e-06 -2.72061e-06 0 -4.36111e-06 -2.87047e-06 0 -5.09399e-06 -3.04879e-06 0 -5.87365e-06 -3.25818e-06 0 -6.70785e-06 -3.5017e-06 0 -7.60508e-06 -3.78314e-06 0 -8.57477e-06 -4.10683e-06 0 -9.62739e-06 -4.4783e-06 0 -1.07748e-05 -4.90343e-06 0 -1.20301e-05 -5.39051e-06 0 -1.34089e-05 -5.94704e-06 0 -1.49279e-05 -6.58622e-06 0 -1.66086e-05 -7.31608e-06 0 -1.84715e-05 -8.15949e-06 0 -2.0551e-05 -9.12027e-06 0 -2.28669e-05 -1.02411e-05 0 -2.5489e-05 -1.15077e-05 0 -2.84095e-05 -1.29983e-05 0 -3.18176e-05 -1.46513e-05 0 -3.55448e-05 -1.65605e-05 0 -4.02079e-05 -1.85888e-05 0 -4.48118e-05 -2.04485e-05 0 -5.10874e-05 -2.20318e-05 0 -5.17841e-05 -1.98151e-05 0 -3.8222e-05 -3.32005e-05 0 -8.87128e-05 -0.000112898 0 1.92545e-20 -2.13279e-06 0 -5.87491e-07 -2.14244e-06 0 -1.18021e-06 -2.17153e-06 0 -1.78344e-06 -2.22043e-06 0 -2.4026e-06 -2.2898e-06 0 -3.04334e-06 -2.38058e-06 0 -3.71153e-06 -2.494e-06 0 -4.41346e-06 -2.63163e-06 0 -5.15583e-06 -2.79544e-06 0 -5.9459e-06 -2.9878e-06 0 -6.79159e-06 -3.21159e-06 0 -7.70163e-06 -3.47023e-06 0 -8.68566e-06 -3.76787e-06 0 -9.75451e-06 -4.10933e-06 0 -1.09202e-05 -4.50059e-06 0 -1.21968e-05 -4.94831e-06 0 -1.35994e-05 -5.46121e-06 0 -1.51469e-05 -6.04827e-06 0 -1.68585e-05 -6.72241e-06 0 -1.87615e-05 -7.49502e-06 0 -2.08786e-05 -8.38549e-06 0 -2.32562e-05 -9.40605e-06 0 -2.59116e-05 -1.05847e-05 0 -2.89433e-05 -1.1927e-05 0 -3.23217e-05 -1.3464e-05 0 -3.62977e-05 -1.51639e-05 0 -4.0609e-05 -1.70015e-05 0 -4.58566e-05 -1.87717e-05 0 -5.04349e-05 -2.01565e-05 0 -5.37375e-05 -2.15643e-05 0 -4.855e-05 -3.41424e-05 0 -8.64871e-05 -0.000109195 0 8.94747e-21 -1.93621e-06 0 -5.93641e-07 -1.94499e-06 0 -1.19259e-06 -1.97144e-06 0 -1.80222e-06 -2.0159e-06 0 -2.42803e-06 -2.07899e-06 0 -3.07576e-06 -2.16154e-06 0 -3.7514e-06 -2.2647e-06 0 -4.46133e-06 -2.3899e-06 0 -5.21239e-06 -2.53892e-06 0 -6.01198e-06 -2.71395e-06 0 -6.8682e-06 -2.9176e-06 0 -7.78995e-06 -3.15303e-06 0 -8.78715e-06 -3.42398e-06 0 -9.87084e-06 -3.73497e-06 0 -1.10535e-05 -4.09126e-06 0 -1.23492e-05 -4.49931e-06 0 -1.37742e-05 -4.96643e-06 0 -1.53469e-05 -5.50195e-06 0 -1.70886e-05 -6.11564e-06 0 -1.90247e-05 -6.82114e-06 0 -2.11837e-05 -7.63032e-06 0 -2.3602e-05 -8.56284e-06 0 -2.63177e-05 -9.62915e-06 0 -2.93888e-05 -1.0854e-05 0 -3.28569e-05 -1.22333e-05 0 -3.68242e-05 -1.37728e-05 0 -4.12628e-05 -1.54247e-05 0 -4.62802e-05 -1.70367e-05 0 -5.11075e-05 -1.8746e-05 0 -5.48506e-05 -2.10404e-05 0 -5.77345e-05 -3.50414e-05 0 -9.51116e-05 -4.91232e-05 0 0 -1.73769e-06 0 -5.99204e-07 -1.74557e-06 0 -1.20379e-06 -1.76934e-06 0 -1.8192e-06 -1.80931e-06 0 -2.45103e-06 -1.86601e-06 0 -3.10508e-06 -1.94022e-06 0 -3.78746e-06 -2.03296e-06 0 -4.50463e-06 -2.14552e-06 0 -5.26356e-06 -2.27952e-06 0 -6.07177e-06 -2.43691e-06 0 -6.93753e-06 -2.62009e-06 0 -7.86991e-06 -2.83187e-06 0 -8.87904e-06 -3.07568e-06 0 -9.97621e-06 -3.35553e-06 0 -1.11742e-05 -3.67629e-06 0 -1.24874e-05 -4.04359e-06 0 -1.39325e-05 -4.46437e-06 0 -1.55283e-05 -4.94641e-06 0 -1.72969e-05 -5.49962e-06 0 -1.92637e-05 -6.13419e-06 0 -2.14588e-05 -6.86401e-06 0 -2.3917e-05 -7.70072e-06 0 -2.66805e-05 -8.66204e-06 0 -2.97975e-05 -9.75517e-06 0 -3.33237e-05 -1.09944e-05 0 -3.73199e-05 -1.23623e-05 0 -4.18113e-05 -1.38394e-05 0 -4.67745e-05 -1.53718e-05 0 -5.17961e-05 -1.70692e-05 0 -5.64878e-05 -2.03237e-05 0 -6.36323e-05 -2.94804e-05 0 -9.20698e-05 -4.26566e-05 0 0 -1.53741e-06 0 -6.04169e-07 -1.54439e-06 0 -1.21378e-06 -1.56545e-06 0 -1.83436e-06 -1.60086e-06 0 -2.47156e-06 -1.6511e-06 0 -3.13126e-06 -1.71684e-06 0 -3.81965e-06 -1.79901e-06 0 -4.5433e-06 -1.89876e-06 0 -5.30925e-06 -2.01751e-06 0 -6.12518e-06 -2.15703e-06 0 -6.99947e-06 -2.3194e-06 0 -7.94136e-06 -2.50718e-06 0 -8.96116e-06 -2.72337e-06 0 -1.00704e-05 -2.97159e-06 0 -1.12821e-05 -3.2561e-06 0 -1.2611e-05 -3.58203e-06 0 -1.40741e-05 -3.95536e-06 0 -1.56907e-05 -4.38329e-06 0 -1.74831e-05 -4.87405e-06 0 -1.94777e-05 -5.43756e-06 0 -2.17043e-05 -6.08436e-06 0 -2.41991e-05 -6.82707e-06 0 -2.70023e-05 -7.67667e-06 0 -3.0164e-05 -8.64497e-06 0 -3.37324e-05 -9.7349e-06 0 -3.777e-05 -1.09438e-05 0 -4.22872e-05 -1.22535e-05 0 -4.72857e-05 -1.36609e-05 0 -5.24926e-05 -1.53949e-05 0 -5.81133e-05 -1.8454e-05 0 -6.70382e-05 -2.52088e-05 0 -8.80426e-05 -2.51021e-05 0 0 -1.33558e-06 0 -6.08529e-07 -1.34165e-06 0 -1.22256e-06 -1.35997e-06 0 -1.84768e-06 -1.39076e-06 0 -2.48959e-06 -1.43446e-06 0 -3.15426e-06 -1.49164e-06 0 -3.84794e-06 -1.56312e-06 0 -4.57727e-06 -1.64989e-06 0 -5.34941e-06 -1.75321e-06 0 -6.17212e-06 -1.8746e-06 0 -7.05391e-06 -2.0159e-06 0 -8.00416e-06 -2.17933e-06 0 -9.03335e-06 -2.36751e-06 0 -1.01532e-05 -2.5836e-06 0 -1.1377e-05 -2.83135e-06 0 -1.27197e-05 -3.11517e-06 0 -1.41986e-05 -3.44036e-06 0 -1.58334e-05 -3.81307e-06 0 -1.76471e-05 -4.24065e-06 0 -1.96657e-05 -4.73129e-06 0 -2.19205e-05 -5.29471e-06 0 -2.44462e-05 -5.94052e-06 0 -2.72857e-05 -6.67959e-06 0 -3.04827e-05 -7.51901e-06 0 -3.40935e-05 -8.46467e-06 0 -3.81573e-05 -9.51193e-06 0 -4.27237e-05 -1.06572e-05 0 -4.77443e-05 -1.19338e-05 0 -5.32179e-05 -1.35456e-05 0 -5.93934e-05 -1.62921e-05 0 -6.89223e-05 -2.03371e-05 0 -8.58185e-05 -2.045e-05 0 0 -1.1324e-06 0 -6.12279e-07 -1.13756e-06 0 -1.23011e-06 -1.1531e-06 0 -1.85913e-06 -1.17923e-06 0 -2.5051e-06 -1.21632e-06 0 -3.17404e-06 -1.26486e-06 0 -3.87226e-06 -1.32553e-06 0 -4.60649e-06 -1.39919e-06 0 -5.38395e-06 -1.4869e-06 0 -6.2125e-06 -1.58996e-06 0 -7.10075e-06 -1.70995e-06 0 -8.05821e-06 -1.84873e-06 0 -9.09549e-06 -2.00856e-06 0 -1.02245e-05 -2.19212e-06 0 -1.14587e-05 -2.40258e-06 0 -1.28133e-05 -2.64375e-06 0 -1.43059e-05 -2.92006e-06 0 -1.59564e-05 -3.23683e-06 0 -1.77881e-05 -3.60014e-06 0 -1.98278e-05 -4.01713e-06 0 -2.21062e-05 -4.49558e-06 0 -2.46594e-05 -5.04408e-06 0 -2.75278e-05 -5.67057e-06 0 -3.07584e-05 -6.3822e-06 0 -3.43985e-05 -7.18188e-06 0 -3.8499e-05 -8.07016e-06 0 -4.30893e-05 -9.04936e-06 0 -4.81907e-05 -1.01656e-05 0 -5.38213e-05 -1.16088e-05 0 -6.04519e-05 -1.38041e-05 0 -6.97611e-05 -1.63542e-05 0 -8.26805e-05 -1.39322e-05 0 0 -9.28075e-07 0 -6.15413e-07 -9.32305e-07 0 -1.23642e-06 -9.45054e-07 0 -1.8687e-06 -9.66492e-07 0 -2.51806e-06 -9.96911e-07 0 -3.19057e-06 -1.03673e-06 0 -3.8926e-06 -1.0865e-06 0 -4.63092e-06 -1.14693e-06 0 -5.41283e-06 -1.21889e-06 0 -6.24626e-06 -1.30345e-06 0 -7.13991e-06 -1.40191e-06 0 -8.1034e-06 -1.5158e-06 0 -9.14745e-06 -1.64698e-06 0 -1.02841e-05 -1.79764e-06 0 -1.1527e-05 -1.97042e-06 0 -1.28916e-05 -2.16841e-06 0 -1.43956e-05 -2.3953e-06 0 -1.60593e-05 -2.65539e-06 0 -1.79062e-05 -2.95373e-06 0 -1.99632e-05 -3.29606e-06 0 -2.22617e-05 -3.68883e-06 0 -2.48371e-05 -4.13872e-06 0 -2.77308e-05 -4.65243e-06 0 -3.09868e-05 -5.23505e-06 0 -3.46554e-05 -5.8899e-06 0 -3.87801e-05 -6.61803e-06 0 -4.34085e-05 -7.42756e-06 0 -4.85625e-05 -8.36684e-06 0 -5.43608e-05 -9.57563e-06 0 -6.1173e-05 -1.12664e-05 0 -7.01007e-05 -1.26616e-05 0 -8.09466e-05 -1.06649e-05 0 0 -7.22813e-07 0 -6.17925e-07 -7.26109e-07 0 -1.24148e-06 -7.36045e-07 0 -1.87637e-06 -7.52752e-07 0 -2.52846e-06 -7.7646e-07 0 -3.20383e-06 -8.07493e-07 0 -3.9089e-06 -8.46285e-07 0 -4.6505e-06 -8.93386e-07 0 -5.43598e-06 -9.4948e-07 0 -6.27333e-06 -1.0154e-06 0 -7.17132e-06 -1.09215e-06 0 -8.13965e-06 -1.18095e-06 0 -9.18914e-06 -1.28323e-06 0 -1.0332e-05 -1.40072e-06 0 -1.15818e-05 -1.53546e-06 0 -1.29544e-05 -1.68988e-06 0 -1.44676e-05 -1.86684e-06 0 -1.61419e-05 -2.06972e-06 0 -1.80009e-05 -2.30242e-06 0 -2.0072e-05 -2.56942e-06 0 -2.23863e-05 -2.87565e-06 0 -2.49798e-05 -3.22636e-06 0 -2.78929e-05 -3.62645e-06 0 -3.11705e-05 -4.08007e-06 0 -3.48596e-05 -4.58956e-06 0 -3.90089e-05 -5.15733e-06 0 -4.36626e-05 -5.79274e-06 0 -4.88784e-05 -6.53748e-06 0 -5.47729e-05 -7.49008e-06 0 -6.16936e-05 -8.70336e-06 0 -7.01308e-05 -9.46074e-06 0 -7.91137e-05 -7.37999e-06 0 -6.4579e-22 -5.16818e-07 0 -6.19813e-07 -5.19177e-07 0 -1.24528e-06 -5.26284e-07 0 -1.88214e-06 -5.38236e-07 0 -2.53627e-06 -5.55196e-07 0 -3.21379e-06 -5.77397e-07 0 -3.92115e-06 -6.05149e-07 0 -4.66522e-06 -6.38847e-07 0 -5.45338e-06 -6.7898e-07 0 -6.29368e-06 -7.26146e-07 0 -7.19493e-06 -7.81067e-07 0 -8.1669e-06 -8.44607e-07 0 -9.22048e-06 -9.17803e-07 0 -1.03679e-05 -1.00189e-06 0 -1.16231e-05 -1.09832e-06 0 -1.30017e-05 -1.20885e-06 0 -1.45218e-05 -1.33552e-06 0 -1.6204e-05 -1.48074e-06 0 -1.80722e-05 -1.64731e-06 0 -2.01537e-05 -1.83841e-06 0 -2.248e-05 -2.05757e-06 0 -2.50869e-05 -2.30845e-06 0 -2.80148e-05 -2.59458e-06 0 -3.13079e-05 -2.91876e-06 0 -3.50137e-05 -3.28293e-06 0 -3.91796e-05 -3.68927e-06 0 -4.38585e-05 -4.14643e-06 0 -4.91144e-05 -4.68583e-06 0 -5.50867e-05 -5.36723e-06 0 -6.20163e-05 -6.17847e-06 0 -7.00602e-05 -6.53153e-06 0 -7.80152e-05 -5.03316e-06 0 -3.2969e-21 -3.10301e-07 0 -6.21073e-07 -3.11717e-07 0 -1.24782e-06 -3.15986e-07 0 -1.88598e-06 -3.23164e-07 0 -2.54148e-06 -3.3335e-07 0 -3.22044e-06 -3.46685e-07 0 -3.92933e-06 -3.63354e-07 0 -4.67505e-06 -3.83594e-07 0 -5.465e-06 -4.07701e-07 0 -6.30726e-06 -4.36032e-07 0 -7.21069e-06 -4.69023e-07 0 -8.18509e-06 -5.07193e-07 0 -9.2414e-06 -5.51165e-07 0 -1.03919e-05 -6.0168e-07 0 -1.16506e-05 -6.59619e-07 0 -1.30332e-05 -7.26027e-07 0 -1.45579e-05 -8.02135e-07 0 -1.62455e-05 -8.89393e-07 0 -1.81197e-05 -9.89475e-07 0 -2.02082e-05 -1.1043e-06 0 -2.25425e-05 -1.23595e-06 0 -2.51584e-05 -1.38664e-06 0 -2.8096e-05 -1.55843e-06 0 -3.13997e-05 -1.75304e-06 0 -3.51161e-05 -1.97162e-06 0 -3.92946e-05 -2.21582e-06 0 -4.39889e-05 -2.49148e-06 0 -4.9276e-05 -2.81775e-06 0 -5.52879e-05 -3.22642e-06 0 -6.22134e-05 -3.68721e-06 0 -6.99615e-05 -3.83778e-06 0 -7.71683e-05 -2.85404e-06 0 -1.95846e-22 -1.03468e-07 0 -6.21703e-07 -1.03941e-07 0 -1.24909e-06 -1.05364e-07 0 -1.88791e-06 -1.07758e-07 0 -2.54409e-06 -1.11156e-07 0 -3.22376e-06 -1.15603e-07 0 -3.93342e-06 -1.21162e-07 0 -4.67996e-06 -1.27912e-07 0 -5.47081e-06 -1.35952e-07 0 -6.31406e-06 -1.45402e-07 0 -7.21858e-06 -1.56405e-07 0 -8.19419e-06 -1.69136e-07 0 -9.25187e-06 -1.83802e-07 0 -1.0404e-05 -2.00652e-07 0 -1.16644e-05 -2.19978e-07 0 -1.3049e-05 -2.42128e-07 0 -1.4576e-05 -2.67516e-07 0 -1.62662e-05 -2.96622e-07 0 -1.81436e-05 -3.30007e-07 0 -2.02356e-05 -3.68306e-07 0 -2.25738e-05 -4.1222e-07 0 -2.51941e-05 -4.62473e-07 0 -2.81367e-05 -5.19762e-07 0 -3.14456e-05 -5.84639e-07 0 -3.51675e-05 -6.57526e-07 0 -3.93519e-05 -7.38983e-07 0 -4.4055e-05 -8.311e-07 0 -4.93562e-05 -9.40316e-07 0 -5.5389e-05 -1.07622e-06 0 -6.23013e-05 -1.22599e-06 0 -6.99026e-05 -1.26356e-06 0 -7.67957e-05 -9.46705e-07 0 0 1.03468e-07 0 -6.21703e-07 1.03941e-07 0 -1.24909e-06 1.05364e-07 0 -1.88791e-06 1.07758e-07 0 -2.54409e-06 1.11156e-07 0 -3.22376e-06 1.15603e-07 0 -3.93342e-06 1.21162e-07 0 -4.67996e-06 1.27912e-07 0 -5.47081e-06 1.35952e-07 0 -6.31406e-06 1.45402e-07 0 -7.21858e-06 1.56405e-07 0 -8.19419e-06 1.69136e-07 0 -9.25187e-06 1.83802e-07 0 -1.0404e-05 2.00652e-07 0 -1.16644e-05 2.19978e-07 0 -1.3049e-05 2.42128e-07 0 -1.4576e-05 2.67516e-07 0 -1.62662e-05 2.96622e-07 0 -1.81436e-05 3.30007e-07 0 -2.02356e-05 3.68306e-07 0 -2.25738e-05 4.1222e-07 0 -2.51941e-05 4.62473e-07 0 -2.81367e-05 5.19762e-07 0 -3.14456e-05 5.84639e-07 0 -3.51675e-05 6.57526e-07 0 -3.93519e-05 7.38983e-07 0 -4.4055e-05 8.311e-07 0 -4.93562e-05 9.40316e-07 0 -5.5389e-05 1.07622e-06 0 -6.23013e-05 1.22599e-06 0 -6.99026e-05 1.26356e-06 0 -7.67957e-05 9.46705e-07 0 0 3.10301e-07 0 -6.21073e-07 3.11717e-07 0 -1.24782e-06 3.15986e-07 0 -1.88598e-06 3.23164e-07 0 -2.54148e-06 3.3335e-07 0 -3.22044e-06 3.46685e-07 0 -3.92933e-06 3.63354e-07 0 -4.67505e-06 3.83594e-07 0 -5.465e-06 4.07701e-07 0 -6.30726e-06 4.36032e-07 0 -7.21069e-06 4.69023e-07 0 -8.18509e-06 5.07193e-07 0 -9.2414e-06 5.51165e-07 0 -1.03919e-05 6.0168e-07 0 -1.16506e-05 6.59619e-07 0 -1.30332e-05 7.26027e-07 0 -1.45579e-05 8.02135e-07 0 -1.62455e-05 8.89393e-07 0 -1.81197e-05 9.89475e-07 0 -2.02082e-05 1.1043e-06 0 -2.25425e-05 1.23595e-06 0 -2.51584e-05 1.38664e-06 0 -2.8096e-05 1.55843e-06 0 -3.13997e-05 1.75304e-06 0 -3.51161e-05 1.97162e-06 0 -3.92946e-05 2.21582e-06 0 -4.39889e-05 2.49148e-06 0 -4.9276e-05 2.81775e-06 0 -5.52879e-05 3.22642e-06 0 -6.22134e-05 3.68721e-06 0 -6.99615e-05 3.83778e-06 0 -7.71683e-05 2.85404e-06 0 1.23808e-21 5.16818e-07 0 -6.19813e-07 5.19177e-07 0 -1.24528e-06 5.26284e-07 0 -1.88214e-06 5.38236e-07 0 -2.53627e-06 5.55196e-07 0 -3.21379e-06 5.77397e-07 0 -3.92115e-06 6.05149e-07 0 -4.66522e-06 6.38847e-07 0 -5.45338e-06 6.7898e-07 0 -6.29368e-06 7.26146e-07 0 -7.19493e-06 7.81067e-07 0 -8.1669e-06 8.44607e-07 0 -9.22048e-06 9.17803e-07 0 -1.03679e-05 1.00189e-06 0 -1.16231e-05 1.09832e-06 0 -1.30017e-05 1.20885e-06 0 -1.45218e-05 1.33552e-06 0 -1.6204e-05 1.48074e-06 0 -1.80722e-05 1.64731e-06 0 -2.01537e-05 1.83841e-06 0 -2.248e-05 2.05757e-06 0 -2.50869e-05 2.30845e-06 0 -2.80148e-05 2.59458e-06 0 -3.13079e-05 2.91876e-06 0 -3.50137e-05 3.28293e-06 0 -3.91796e-05 3.68927e-06 0 -4.38585e-05 4.14643e-06 0 -4.91144e-05 4.68583e-06 0 -5.50867e-05 5.36723e-06 0 -6.20163e-05 6.17847e-06 0 -7.00602e-05 6.53153e-06 0 -7.80152e-05 5.03316e-06 0 7.5729e-21 7.22813e-07 0 -6.17925e-07 7.26109e-07 0 -1.24148e-06 7.36045e-07 0 -1.87637e-06 7.52752e-07 0 -2.52846e-06 7.7646e-07 0 -3.20383e-06 8.07493e-07 0 -3.9089e-06 8.46285e-07 0 -4.6505e-06 8.93386e-07 0 -5.43598e-06 9.4948e-07 0 -6.27333e-06 1.0154e-06 0 -7.17132e-06 1.09215e-06 0 -8.13965e-06 1.18095e-06 0 -9.18914e-06 1.28323e-06 0 -1.0332e-05 1.40072e-06 0 -1.15818e-05 1.53546e-06 0 -1.29544e-05 1.68988e-06 0 -1.44676e-05 1.86684e-06 0 -1.61419e-05 2.06972e-06 0 -1.80009e-05 2.30242e-06 0 -2.0072e-05 2.56942e-06 0 -2.23863e-05 2.87565e-06 0 -2.49798e-05 3.22636e-06 0 -2.78929e-05 3.62645e-06 0 -3.11705e-05 4.08007e-06 0 -3.48596e-05 4.58956e-06 0 -3.90089e-05 5.15733e-06 0 -4.36626e-05 5.79274e-06 0 -4.88784e-05 6.53748e-06 0 -5.47729e-05 7.49008e-06 0 -6.16936e-05 8.70336e-06 0 -7.01308e-05 9.46074e-06 0 -7.91137e-05 7.37999e-06 0 8.30301e-22 9.28075e-07 0 -6.15413e-07 9.32305e-07 0 -1.23642e-06 9.45054e-07 0 -1.8687e-06 9.66492e-07 0 -2.51806e-06 9.96911e-07 0 -3.19057e-06 1.03673e-06 0 -3.8926e-06 1.0865e-06 0 -4.63092e-06 1.14693e-06 0 -5.41283e-06 1.21889e-06 0 -6.24626e-06 1.30345e-06 0 -7.13991e-06 1.40191e-06 0 -8.1034e-06 1.5158e-06 0 -9.14745e-06 1.64698e-06 0 -1.02841e-05 1.79764e-06 0 -1.1527e-05 1.97042e-06 0 -1.28916e-05 2.16841e-06 0 -1.43956e-05 2.3953e-06 0 -1.60593e-05 2.65539e-06 0 -1.79062e-05 2.95373e-06 0 -1.99632e-05 3.29606e-06 0 -2.22617e-05 3.68883e-06 0 -2.48371e-05 4.13872e-06 0 -2.77308e-05 4.65243e-06 0 -3.09868e-05 5.23505e-06 0 -3.46554e-05 5.8899e-06 0 -3.87801e-05 6.61803e-06 0 -4.34085e-05 7.42756e-06 0 -4.85625e-05 8.36684e-06 0 -5.43608e-05 9.57563e-06 0 -6.1173e-05 1.12664e-05 0 -7.01007e-05 1.26616e-05 0 -8.09466e-05 1.06649e-05 0 0 1.1324e-06 0 -6.12279e-07 1.13756e-06 0 -1.23011e-06 1.1531e-06 0 -1.85913e-06 1.17923e-06 0 -2.5051e-06 1.21632e-06 0 -3.17404e-06 1.26486e-06 0 -3.87226e-06 1.32553e-06 0 -4.60649e-06 1.39919e-06 0 -5.38395e-06 1.4869e-06 0 -6.2125e-06 1.58996e-06 0 -7.10075e-06 1.70995e-06 0 -8.05821e-06 1.84873e-06 0 -9.09549e-06 2.00856e-06 0 -1.02245e-05 2.19212e-06 0 -1.14587e-05 2.40258e-06 0 -1.28133e-05 2.64375e-06 0 -1.43059e-05 2.92006e-06 0 -1.59564e-05 3.23683e-06 0 -1.77881e-05 3.60014e-06 0 -1.98278e-05 4.01713e-06 0 -2.21062e-05 4.49558e-06 0 -2.46594e-05 5.04408e-06 0 -2.75278e-05 5.67057e-06 0 -3.07584e-05 6.3822e-06 0 -3.43985e-05 7.18188e-06 0 -3.8499e-05 8.07016e-06 0 -4.30893e-05 9.04936e-06 0 -4.81907e-05 1.01656e-05 0 -5.38213e-05 1.16088e-05 0 -6.04519e-05 1.38041e-05 0 -6.97611e-05 1.63542e-05 0 -8.26805e-05 1.39322e-05 0 0 1.33558e-06 0 -6.08529e-07 1.34165e-06 0 -1.22256e-06 1.35997e-06 0 -1.84768e-06 1.39076e-06 0 -2.48959e-06 1.43446e-06 0 -3.15426e-06 1.49164e-06 0 -3.84794e-06 1.56312e-06 0 -4.57727e-06 1.64989e-06 0 -5.34941e-06 1.75321e-06 0 -6.17212e-06 1.8746e-06 0 -7.05391e-06 2.0159e-06 0 -8.00416e-06 2.17933e-06 0 -9.03335e-06 2.36751e-06 0 -1.01532e-05 2.5836e-06 0 -1.1377e-05 2.83135e-06 0 -1.27197e-05 3.11517e-06 0 -1.41986e-05 3.44036e-06 0 -1.58334e-05 3.81307e-06 0 -1.76471e-05 4.24065e-06 0 -1.96657e-05 4.73129e-06 0 -2.19205e-05 5.29471e-06 0 -2.44462e-05 5.94052e-06 0 -2.72857e-05 6.67959e-06 0 -3.04827e-05 7.51901e-06 0 -3.40935e-05 8.46467e-06 0 -3.81573e-05 9.51193e-06 0 -4.27237e-05 1.06572e-05 0 -4.77443e-05 1.19338e-05 0 -5.32179e-05 1.35456e-05 0 -5.93934e-05 1.62921e-05 0 -6.89223e-05 2.03371e-05 0 -8.58185e-05 2.045e-05 0 0 1.53741e-06 0 -6.04169e-07 1.54439e-06 0 -1.21378e-06 1.56545e-06 0 -1.83436e-06 1.60086e-06 0 -2.47156e-06 1.6511e-06 0 -3.13126e-06 1.71684e-06 0 -3.81965e-06 1.79901e-06 0 -4.5433e-06 1.89876e-06 0 -5.30925e-06 2.01751e-06 0 -6.12518e-06 2.15703e-06 0 -6.99947e-06 2.3194e-06 0 -7.94136e-06 2.50718e-06 0 -8.96116e-06 2.72337e-06 0 -1.00704e-05 2.97159e-06 0 -1.12821e-05 3.2561e-06 0 -1.2611e-05 3.58203e-06 0 -1.40741e-05 3.95536e-06 0 -1.56907e-05 4.38329e-06 0 -1.74831e-05 4.87405e-06 0 -1.94777e-05 5.43756e-06 0 -2.17043e-05 6.08436e-06 0 -2.41991e-05 6.82707e-06 0 -2.70023e-05 7.67667e-06 0 -3.0164e-05 8.64497e-06 0 -3.37324e-05 9.7349e-06 0 -3.777e-05 1.09438e-05 0 -4.22872e-05 1.22535e-05 0 -4.72857e-05 1.36609e-05 0 -5.24926e-05 1.53949e-05 0 -5.81133e-05 1.8454e-05 0 -6.70382e-05 2.52088e-05 0 -8.80426e-05 2.51021e-05 0 0 1.73769e-06 0 -5.99204e-07 1.74557e-06 0 -1.20379e-06 1.76934e-06 0 -1.8192e-06 1.80931e-06 0 -2.45103e-06 1.86601e-06 0 -3.10508e-06 1.94022e-06 0 -3.78746e-06 2.03296e-06 0 -4.50463e-06 2.14552e-06 0 -5.26356e-06 2.27952e-06 0 -6.07177e-06 2.43691e-06 0 -6.93753e-06 2.62009e-06 0 -7.86991e-06 2.83187e-06 0 -8.87904e-06 3.07568e-06 0 -9.97621e-06 3.35553e-06 0 -1.11742e-05 3.67629e-06 0 -1.24874e-05 4.04359e-06 0 -1.39325e-05 4.46437e-06 0 -1.55283e-05 4.94641e-06 0 -1.72969e-05 5.49962e-06 0 -1.92637e-05 6.13419e-06 0 -2.14588e-05 6.86401e-06 0 -2.3917e-05 7.70072e-06 0 -2.66805e-05 8.66204e-06 0 -2.97975e-05 9.75517e-06 0 -3.33237e-05 1.09944e-05 0 -3.73199e-05 1.23623e-05 0 -4.18113e-05 1.38394e-05 0 -4.67745e-05 1.53718e-05 0 -5.17961e-05 1.70692e-05 0 -5.64878e-05 2.03237e-05 0 -6.36323e-05 2.94804e-05 0 -9.20698e-05 4.26566e-05 0 0 1.93621e-06 0 -5.93641e-07 1.94499e-06 0 -1.19259e-06 1.97144e-06 0 -1.80222e-06 2.0159e-06 0 -2.42803e-06 2.07899e-06 0 -3.07576e-06 2.16154e-06 0 -3.7514e-06 2.2647e-06 0 -4.46133e-06 2.3899e-06 0 -5.21239e-06 2.53892e-06 0 -6.01198e-06 2.71395e-06 0 -6.8682e-06 2.9176e-06 0 -7.78995e-06 3.15303e-06 0 -8.78715e-06 3.42398e-06 0 -9.87084e-06 3.73497e-06 0 -1.10535e-05 4.09126e-06 0 -1.23492e-05 4.49931e-06 0 -1.37742e-05 4.96643e-06 0 -1.53469e-05 5.50195e-06 0 -1.70886e-05 6.11564e-06 0 -1.90247e-05 6.82114e-06 0 -2.11837e-05 7.63032e-06 0 -2.3602e-05 8.56284e-06 0 -2.63177e-05 9.62915e-06 0 -2.93888e-05 1.0854e-05 0 -3.28569e-05 1.22333e-05 0 -3.68242e-05 1.37728e-05 0 -4.12628e-05 1.54247e-05 0 -4.62802e-05 1.70367e-05 0 -5.11075e-05 1.8746e-05 0 -5.48506e-05 2.10404e-05 0 -5.77345e-05 3.50414e-05 0 -9.51116e-05 4.91232e-05 0 0 2.13279e-06 0 -5.87491e-07 2.14244e-06 0 -1.18021e-06 2.17153e-06 0 -1.78344e-06 2.22043e-06 0 -2.4026e-06 2.2898e-06 0 -3.04334e-06 2.38058e-06 0 -3.71153e-06 2.494e-06 0 -4.41346e-06 2.63163e-06 0 -5.15583e-06 2.79544e-06 0 -5.9459e-06 2.9878e-06 0 -6.79159e-06 3.21159e-06 0 -7.70163e-06 3.47023e-06 0 -8.68566e-06 3.76787e-06 0 -9.75451e-06 4.10933e-06 0 -1.09202e-05 4.50059e-06 0 -1.21968e-05 4.94831e-06 0 -1.35994e-05 5.46121e-06 0 -1.51469e-05 6.04827e-06 0 -1.68585e-05 6.72241e-06 0 -1.87615e-05 7.49502e-06 0 -2.08786e-05 8.38549e-06 0 -2.32562e-05 9.40605e-06 0 -2.59116e-05 1.05847e-05 0 -2.89433e-05 1.1927e-05 0 -3.23217e-05 1.3464e-05 0 -3.62977e-05 1.51639e-05 0 -4.0609e-05 1.70015e-05 0 -4.58566e-05 1.87717e-05 0 -5.04349e-05 2.01565e-05 0 -5.37375e-05 2.15643e-05 0 -4.855e-05 3.41424e-05 0 -8.64871e-05 0.000109195 0 0 2.32723e-06 0 -5.8076e-07 2.33774e-06 0 -1.16666e-06 2.36942e-06 0 -1.76289e-06 2.42269e-06 0 -2.37478e-06 2.49824e-06 0 -3.00786e-06 2.5971e-06 0 -3.66793e-06 2.72061e-06 0 -4.36111e-06 2.87047e-06 0 -5.09399e-06 3.04879e-06 0 -5.87365e-06 3.25818e-06 0 -6.70785e-06 3.5017e-06 0 -7.60508e-06 3.78314e-06 0 -8.57477e-06 4.10683e-06 0 -9.62739e-06 4.4783e-06 0 -1.07748e-05 4.90343e-06 0 -1.20301e-05 5.39051e-06 0 -1.34089e-05 5.94704e-06 0 -1.49279e-05 6.58622e-06 0 -1.66086e-05 7.31608e-06 0 -1.84715e-05 8.15949e-06 0 -2.0551e-05 9.12027e-06 0 -2.28669e-05 1.02411e-05 0 -2.5489e-05 1.15077e-05 0 -2.84095e-05 1.29983e-05 0 -3.18176e-05 1.46513e-05 0 -3.55448e-05 1.65605e-05 0 -4.02079e-05 1.85888e-05 0 -4.48118e-05 2.04485e-05 0 -5.10874e-05 2.20318e-05 0 -5.17841e-05 1.98151e-05 0 -3.8222e-05 3.32005e-05 0 -8.87128e-05 0.000112898 0 0 2.51933e-06 0 -5.73459e-07 2.53069e-06 0 -1.15196e-06 2.56492e-06 0 -1.7406e-06 2.62247e-06 0 -2.34461e-06 2.7041e-06 0 -2.9694e-06 2.81089e-06 0 -3.62065e-06 2.9443e-06 0 -4.30435e-06 3.10614e-06 0 -5.02695e-06 3.29871e-06 0 -5.79535e-06 3.52475e-06 0 -6.61711e-06 3.78763e-06 0 -7.50051e-06 4.09129e-06 0 -8.45465e-06 4.44062e-06 0 -9.48983e-06 4.84107e-06 0 -1.06172e-05 5.29985e-06 0 -1.18501e-05 5.82418e-06 0 -1.32022e-05 6.42517e-06 0 -1.46924e-05 7.11151e-06 0 -1.63357e-05 7.90168e-06 0 -1.8163e-05 8.80323e-06 0 -2.01865e-05 9.85009e-06 0 -2.24643e-05 1.10394e-05 0 -2.49944e-05 1.24371e-05 0 -2.78958e-05 1.40078e-05 0 -3.11389e-05 1.58601e-05 0 -3.4948e-05 1.79114e-05 0 -3.93282e-05 2.01188e-05 0 -4.44505e-05 2.25573e-05 0 -5.06371e-05 2.28939e-05 0 -5.39033e-05 2.24575e-05 0 -2.84699e-05 -5.67629e-07 0 7.03666e-05 0.000306366 0 0 2.70892e-06 0 -5.65599e-07 2.7211e-06 0 -1.13613e-06 2.75783e-06 0 -1.71661e-06 2.81958e-06 0 -2.31213e-06 2.90716e-06 0 -2.928e-06 3.02173e-06 0 -3.56976e-06 3.16483e-06 0 -4.24328e-06 3.33841e-06 0 -4.95482e-06 3.5449e-06 0 -5.71112e-06 3.78726e-06 0 -6.51956e-06 4.06901e-06 0 -7.388e-06 4.39446e-06 0 -8.32576e-06 4.7686e-06 0 -9.34154e-06 5.19764e-06 0 -1.04489e-05 5.68853e-06 0 -1.16546e-05 6.25019e-06 0 -1.2985e-05 6.89238e-06 0 -1.44301e-05 7.62783e-06 0 -1.60621e-05 8.47064e-06 0 -1.77939e-05 9.43804e-06 0 -1.98695e-05 1.05524e-05 0 -2.18882e-05 1.18331e-05 0 -2.47352e-05 1.33196e-05 0 -2.68246e-05 1.50239e-05 0 -3.13635e-05 1.70029e-05 0 -3.25148e-05 1.92692e-05 0 -4.15799e-05 2.16818e-05 0 -3.82187e-05 2.45221e-05 0 -6.03665e-05 2.501e-05 0 -4.1831e-05 2.38023e-05 0 -5.02804e-05 -3.04555e-05 0 0.000176187 0.000105934 0 0 2.89579e-06 0 -5.57189e-07 2.90879e-06 0 -1.11921e-06 2.94797e-06 0 -1.69094e-06 3.01383e-06 0 -2.27739e-06 3.10723e-06 0 -2.88372e-06 3.2294e-06 0 -3.51536e-06 3.38198e-06 0 -4.17799e-06 3.56702e-06 0 -4.87772e-06 3.78713e-06 0 -5.62116e-06 4.04536e-06 0 -6.41518e-06 4.3456e-06 0 -7.26828e-06 4.69211e-06 0 -8.18705e-06 5.09071e-06 0 -9.18577e-06 5.54699e-06 0 -1.02639e-05 6.06998e-06 0 -1.14581e-05 6.66626e-06 0 -1.2728e-05 7.35092e-06 0 -1.42031e-05 8.12957e-06 0 -1.56628e-05 9.02992e-06 0 -1.76181e-05 1.00503e-05 0 -1.90972e-05 1.12454e-05 0 -2.21314e-05 1.25909e-05 0 -2.27804e-05 1.41963e-05 0 -2.89247e-05 1.59825e-05 0 -2.53697e-05 1.81584e-05 0 -4.17112e-05 2.05155e-05 0 -2.17484e-05 2.34254e-05 0 -7.25923e-05 2.6093e-05 0 3.87131e-06 2.88928e-05 0 -0.00015345 2.44591e-05 0 -1.69005e-05 -2.6648e-05 0 0.00312215 -0.000949321 0 0 3.07978e-06 0 -5.48253e-07 3.09358e-06 0 -1.1012e-06 3.13514e-06 0 -1.66366e-06 3.20501e-06 0 -2.24043e-06 3.30411e-06 0 -2.83667e-06 3.43369e-06 0 -3.45747e-06 3.59554e-06 0 -4.1086e-06 3.79172e-06 0 -4.79582e-06 4.02518e-06 0 -5.52528e-06 4.29872e-06 0 -6.30518e-06 4.61722e-06 0 -7.13874e-06 4.98367e-06 0 -8.04561e-06 5.40701e-06 0 -9.00701e-06 5.8878e-06 0 -1.00974e-05 6.44543e-06 0 -1.11851e-05 7.06856e-06 0 -1.25923e-05 7.80631e-06 0 -1.36781e-05 8.60471e-06 0 -1.58232e-05 9.59923e-06 0 -1.62505e-05 1.06026e-05 0 -2.06442e-05 1.19906e-05 0 -1.77028e-05 1.32077e-05 0 -2.98996e-05 1.52252e-05 0 -1.32866e-05 1.66583e-05 0 -5.33792e-05 1.95593e-05 0 1.40782e-05 2.15974e-05 0 -0.000124242 2.45238e-05 0 0.0001213 3.07542e-05 0 -0.000346582 2.30139e-05 0 0.000431815 6.3071e-05 0 -0.000511909 -0.000146103 0 -0.0165005 0.00147303 0 </DataArray> 
</PointData> 
<Points> 
<DataArray type="Float32" NumberOfComponents="3"> 