<?xml version="1.0"?> 
<VTKFile type="StructuredGrid" version="0.1"> 
<StructuredGrid WholeExtent="0 31 0 31 0 0"> 
<Piece Extent="0 31 0 31 0 0"> 
<PointData>
<DataArray type="Float32" Name="B" format="ascii" NumberOfComponents="3"> 
-3.55974e-05 -0 0 -3.40965e-05 -0 0 -3.25704e-05 -0 0 -3.10295e-05 -0 0 -2.94834e-05 -0 0 -2.79412e-05 -0 0 -2.64113e-05 -0 0 -2.49012e-05 -0 0 -2.34173e-05 -0 0 -2.19653e-05 -0 0 -2.05499e-05 -0 0 -1.91749e-05 -0 0 -1.78432e-05 -0 0 -1.65569e-05 -0 0 -1.53171e-05 -0 0 -1.41245e-05 -0 0 -1.29788e-05 -0 0 -1.18792e-05 -0 0 -1.08245e-05 -0 0 -9.81297e-06 -0 0 -8.84238e-06 -0 0 -7.91024e-06 -0 0 -7.01377e-06 -0 0 -6.14993e-06 -0 0 -5.31549e-06 -0 0 -4.50706e-06 -0 0 -3.72112e-06 -0 0 -2.95407e-06 -0 0 -2.2022e-06 -0 0 -1.46176e-06 -0 0 -7.28966e-07 -0 0 0 -0 0 -3.56153e-05 -1.4866e-06 0 -3.41091e-05 -1.51701e-06 0 -3.25778e-05 -1.53687e-06 0 -3.1032e-05 -1.54666e-06 0 -2.94813e-05 -1.54701e-06 0 -2.7935e-05 -1.53864e-06 0 -2.64014e-05 -1.52237e-06 0 -2.4888e-05 -1.49907e-06 0 -2.34012e-05 -1.46967e-06 0 -2.19469e-05 -1.43509e-06 0 -2.05296e-05 -1.39628e-06 0 -1.91532e-05 -1.35414e-06 0 -1.78205e-05 -1.30955e-06 0 -1.65335e-05 -1.26333e-06 0 -1.52935e-05 -1.21626e-06 0 -1.4101e-05 -1.16903e-06 0 -1.29556e-05 -1.12229e-06 0 -1.18567e-05 -1.0766e-06 0 -1.08029e-05 -1.03246e-06 0 -9.79247e-06 -9.90293e-07 0 -8.82313e-06 -9.50479e-07 0 -7.89239e-06 -9.13331e-07 0 -6.99744e-06 -8.79111e-07 0 -6.13521e-06 -8.48036e-07 0 -5.30247e-06 -8.20282e-07 0 -4.4958e-06 -7.95991e-07 0 -3.71168e-06 -7.75275e-07 0 -2.94647e-06 -7.58222e-07 0 -2.19648e-06 -7.44897e-07 0 -1.45794e-06 -7.35347e-07 0 -7.27051e-07 -7.29605e-07 0 -3.66224e-21 -7.27689e-07 0 -3.5669e-05 -2.98413e-06 0 -3.41465e-05 -3.0446e-06 0 -3.25997e-05 -3.08382e-06 0 -3.10392e-05 -3.10279e-06 0 -2.94748e-05 -3.10275e-06 0 -2.7916e-05 -3.0852e-06 0 -2.63712e-05 -3.05177e-06 0 -2.48479e-05 -3.00426e-06 0 -2.33527e-05 -2.94451e-06 0 -2.18913e-05 -2.87442e-06 0 -2.04683e-05 -2.79588e-06 0 -1.90876e-05 -2.71072e-06 0 -1.77519e-05 -2.62071e-06 0 -1.64631e-05 -2.52751e-06 0 -1.52224e-05 -2.43266e-06 0 -1.40301e-05 -2.33757e-06 0 -1.2886e-05 -2.24352e-06 0 -1.17891e-05 -2.15164e-06 0 -1.0738e-05 -2.06292e-06 0 -9.73077e-06 -1.97822e-06 0 -8.76523e-06 -1.89829e-06 0 -7.83872e-06 -1.82373e-06 0 -6.94834e-06 -1.75507e-06 0 -6.09099e-06 -1.69274e-06 0 -5.26336e-06 -1.63709e-06 0 -4.46199e-06 -1.5884e-06 0 -3.68331e-06 -1.54688e-06 0 -2.92365e-06 -1.51271e-06 0 -2.1793e-06 -1.48602e-06 0 -1.44645e-06 -1.46688e-06 0 -7.213e-07 -1.45538e-06 0 -6.0173e-21 -1.45154e-06 0 -3.57579e-05 -4.50366e-06 0 -3.42082e-05 -4.59349e-06 0 -3.26352e-05 -4.65108e-06 0 -3.105e-05 -4.67795e-06 0 -2.94627e-05 -4.67604e-06 0 -2.78829e-05 -4.64764e-06 0 -2.63193e-05 -4.59528e-06 0 -2.47795e-05 -4.52168e-06 0 -2.32701e-05 -4.42969e-06 0 -2.1797e-05 -4.3222e-06 0 -2.03647e-05 -4.20208e-06 0 -1.89769e-05 -4.07214e-06 0 -1.76362e-05 -3.93504e-06 0 -1.63445e-05 -3.79331e-06 0 -1.51027e-05 -3.64927e-06 0 -1.3911e-05 -3.50505e-06 0 -1.2769e-05 -3.36257e-06 0 -1.16755e-05 -3.2235e-06 0 -1.0629e-05 -3.08935e-06 0 -9.62738e-06 -2.96138e-06 0 -8.66826e-06 -2.84069e-06 0 -7.74887e-06 -2.72821e-06 0 -6.8662e-06 -2.62469e-06 0 -6.01703e-06 -2.53076e-06 0 -5.19797e-06 -2.44694e-06 0 -4.40547e-06 -2.37363e-06 0 -3.63589e-06 -2.31114e-06 0 -2.88553e-06 -2.25972e-06 0 -2.1506e-06 -2.21956e-06 0 -1.42727e-06 -2.19079e-06 0 -7.11695e-07 -2.17349e-06 0 0 -2.16772e-06 0 -3.58814e-05 -6.05663e-06 0 -3.4293e-05 -6.17471e-06 0 -3.2683e-05 -6.24911e-06 0 -3.10627e-05 -6.28193e-06 0 -2.94429e-05 -6.27588e-06 0 -2.78335e-05 -6.23408e-06 0 -2.62434e-05 -6.16004e-06 0 -2.46804e-05 -6.0575e-06 0 -2.31513e-05 -5.93036e-06 0 -2.16618e-05 -5.78259e-06 0 -2.02165e-05 -5.6181e-06 0 -1.88188e-05 -5.44068e-06 0 -1.74715e-05 -5.25398e-06 0 -1.61759e-05 -5.06138e-06 0 -1.49328e-05 -4.86603e-06 0 -1.37422e-05 -4.67077e-06 0 -1.26034e-05 -4.47815e-06 0 -1.15149e-05 -4.29042e-06 0 -1.0475e-05 -4.10955e-06 0 -9.48145e-06 -3.93722e-06 0 -8.5315e-06 -3.77487e-06 0 -7.62226e-06 -3.6237e-06 0 -6.75053e-06 -3.48469e-06 0 -5.91295e-06 -3.35866e-06 0 -5.10599e-06 -3.24627e-06 0 -4.326e-06 -3.14802e-06 0 -3.56926e-06 -3.06432e-06 0 -2.83197e-06 -2.99547e-06 0 -2.11029e-06 -2.94172e-06 0 -1.40033e-06 -2.90321e-06 0 -6.98207e-07 -2.88007e-06 0 -2.26533e-22 -2.87234e-06 0 -3.60385e-05 -7.65493e-06 0 -3.43995e-05 -7.79975e-06 0 -3.27409e-05 -7.8888e-06 0 -3.10748e-05 -7.92488e-06 0 -2.94127e-05 -7.91151e-06 0 -2.77647e-05 -7.8528e-06 0 -2.61402e-05 -7.75331e-06 0 -2.45472e-05 -7.61792e-06 0 -2.29926e-05 -7.45168e-06 0 -2.14822e-05 -7.25969e-06 0 -2.00203e-05 -7.047e-06 0 -1.86104e-05 -6.81848e-06 0 -1.72547e-05 -6.57876e-06 0 -1.59546e-05 -6.33216e-06 0 -1.47103e-05 -6.08264e-06 0 -1.35216e-05 -5.83379e-06 0 -1.23872e-05 -5.58878e-06 0 -1.13057e-05 -5.35043e-06 0 -1.02748e-05 -5.12116e-06 0 -9.29183e-06 -4.90305e-06 0 -8.35401e-06 -4.69784e-06 0 -7.45809e-06 -4.50699e-06 0 -6.60069e-06 -4.33169e-06 0 -5.77823e-06 -4.17291e-06 0 -4.98702e-06 -4.03143e-06 0 -4.22328e-06 -3.90784e-06 0 -3.48318e-06 -3.80262e-06 0 -2.76281e-06 -3.71612e-06 0 -2.05825e-06 -3.64861e-06 0 -1.36556e-06 -3.60026e-06 0 -6.80801e-07 -3.57121e-06 0 -2.14351e-20 -3.56152e-06 0 -3.62279e-05 -9.31117e-06 0 -3.45253e-05 -9.48071e-06 0 -3.2806e-05 -9.58159e-06 0 -3.10829e-05 -9.61738e-06 0 -2.9368e-05 -9.59257e-06 0 -2.76722e-05 -9.51236e-06 0 -2.60052e-05 -9.38253e-06 0 -2.43753e-05 -9.2092e-06 0 -2.27897e-05 -8.99872e-06 0 -2.12538e-05 -8.75746e-06 0 -1.97721e-05 -8.49168e-06 0 -1.83476e-05 -8.20742e-06 0 -1.69824e-05 -7.91037e-06 0 -1.56772e-05 -7.6058e-06 0 -1.44322e-05 -7.29853e-06 0 -1.32464e-05 -6.99289e-06 0 -1.21183e-05 -6.6927e-06 0 -1.10458e-05 -6.40131e-06 0 -1.00264e-05 -6.12157e-06 0 -9.05707e-06 -5.85592e-06 0 -8.13457e-06 -5.6064e-06 0 -7.25539e-06 -5.37468e-06 0 -6.41588e-06 -5.16213e-06 0 -5.61224e-06 -4.96984e-06 0 -4.84057e-06 -4.79866e-06 0 -4.09693e-06 -4.64928e-06 0 -3.37735e-06 -4.52219e-06 0 -2.67782e-06 -4.41778e-06 0 -1.99433e-06 -4.33632e-06 0 -1.32287e-06 -4.27802e-06 0 -6.59432e-07 -4.24299e-06 0 -1.30356e-20 -4.2313e-06 0 -3.64476e-05 -1.10389e-05 0 -3.46679e-05 -1.12305e-05 0 -3.28748e-05 -1.13396e-05 0 -3.10826e-05 -1.13706e-05 0 -2.9304e-05 -1.13291e-05 0 -2.75507e-05 -1.12216e-05 0 -2.58328e-05 -1.10553e-05 0 -2.41591e-05 -1.08376e-05 0 -2.25366e-05 -1.05765e-05 0 -2.0971e-05 -1.02797e-05 0 -1.94664e-05 -9.9548e-06 0 -1.80254e-05 -9.60909e-06 0 -1.66498e-05 -9.24941e-06 0 -1.53397e-05 -8.88205e-06 0 -1.40947e-05 -8.5127e-06 0 -1.29133e-05 -8.14645e-06 0 -1.17936e-05 -7.78775e-06 0 -1.07328e-05 -7.44045e-06 0 -9.72789e-06 -7.10782e-06 0 -8.77544e-06 -6.79261e-06 0 -7.87176e-06 -6.49711e-06 0 -7.01301e-06 -6.22317e-06 0 -6.1952e-06 -5.97228e-06 0 -5.41426e-06 -5.74561e-06 0 -4.66607e-06 -5.54408e-06 0 -3.94652e-06 -5.36839e-06 0 -3.25147e-06 -5.21906e-06 0 -2.57679e-06 -5.09647e-06 0 -1.91838e-06 -5.00088e-06 0 -1.27216e-06 -4.93249e-06 0 -6.34055e-07 -4.89141e-06 0 0 -4.87771e-06 0 -3.66954e-05 -1.28526e-05 0 -3.48235e-05 -1.30631e-05 0 -3.29427e-05 -1.31759e-05 0 -3.10684e-05 -1.31964e-05 0 -2.92145e-05 -1.31318e-05 0 -2.73934e-05 -1.29898e-05 0 -2.56161e-05 -1.27793e-05 0 -2.38914e-05 -1.25096e-05 0 -2.22266e-05 -1.219e-05 0 -2.06271e-05 -1.183e-05 0 -1.90967e-05 -1.14386e-05 0 -1.76378e-05 -1.10246e-05 0 -1.62513e-05 -1.0596e-05 0 -1.49369e-05 -1.01602e-05 0 -1.36934e-05 -9.72368e-06 0 -1.25186e-05 -9.29237e-06 0 -1.14099e-05 -8.87131e-06 0 -1.03639e-05 -8.46483e-06 0 -9.37689e-06 -8.07656e-06 0 -8.44499e-06 -7.70953e-06 0 -7.56402e-06 -7.3662e-06 0 -6.72968e-06 -7.04855e-06 0 -5.93764e-06 -6.75815e-06 0 -5.18351e-06 -6.49621e-06 0 -4.46295e-06 -6.26364e-06 0 -3.77161e-06 -6.06113e-06 0 -3.10521e-06 -5.88918e-06 0 -2.45949e-06 -5.74813e-06 0 -1.83026e-06 -5.63823e-06 0 -1.21334e-06 -5.55964e-06 0 -6.04626e-07 -5.51245e-06 0 0 -5.49671e-06 0 -3.69684e-05 -1.47686e-05 0 -3.49879e-05 -1.49938e-05 0 -3.3004e-05 -1.51045e-05 0 -3.10335e-05 -1.51077e-05 0 -2.90918e-05 -1.50118e-05 0 -2.71922e-05 -1.48266e-05 0 -2.53464e-05 -1.45627e-05 0 -2.35635e-05 -1.42314e-05 0 -2.18508e-05 -1.38439e-05 0 -2.02137e-05 -1.34115e-05 0 -1.86554e-05 -1.2945e-05 0 -1.71777e-05 -1.24547e-05 0 -1.57806e-05 -1.19498e-05 0 -1.44632e-05 -1.14388e-05 0 -1.32232e-05 -1.09293e-05 0 -1.20578e-05 -1.04279e-05 0 -1.09634e-05 -9.94018e-06 0 -9.93584e-06 -9.47088e-06 0 -8.97078e-06 -9.02397e-06 0 -8.06361e-06 -8.60266e-06 0 -7.20962e-06 -8.20953e-06 0 -6.40405e-06 -7.84663e-06 0 -5.64215e-06 -7.51552e-06 0 -4.91922e-06 -7.21739e-06 0 -4.23061e-06 -6.9531e-06 0 -3.57178e-06 -6.72328e-06 0 -2.93828e-06 -6.52836e-06 0 -2.32572e-06 -6.36863e-06 0 -1.72981e-06 -6.24427e-06 0 -1.14633e-06 -6.15538e-06 0 -5.71107e-07 -6.10202e-06 0 0 -6.08424e-06 0 -3.72628e-05 -1.68045e-05 0 -3.51555e-05 -1.70393e-05 0 -3.30515e-05 -1.71411e-05 0 -3.09695e-05 -1.71183e-05 0 -2.89265e-05 -1.69813e-05 0 -2.6937e-05 -1.67421e-05 0 -2.50133e-05 -1.64136e-05 0 -2.3165e-05 -1.60092e-05 0 -2.13993e-05 -1.55426e-05 0 -1.97212e-05 -1.5027e-05 0 -1.81333e-05 -1.44752e-05 0 -1.66366e-05 -1.38991e-05 0 -1.52301e-05 -1.33094e-05 0 -1.39118e-05 -1.27158e-05 0 -1.26784e-05 -1.21268e-05 0 -1.1526e-05 -1.15496e-05 0 -1.045e-05 -1.09905e-05 0 -9.44528e-06 -1.04544e-05 0 -8.50674e-06 -9.94566e-06 0 -7.62904e-06 -9.4675e-06 0 -6.80681e-06 -9.02257e-06 0 -6.03477e-06 -8.61286e-06 0 -5.30772e-06 -8.23987e-06 0 -4.62061e-06 -7.90468e-06 0 -3.9685e-06 -7.60807e-06 0 -3.34665e-06 -7.35052e-06 0 -2.75041e-06 -7.13235e-06 0 -2.1753e-06 -6.95376e-06 0 -1.61695e-06 -6.81482e-06 0 -1.07107e-06 -6.71557e-06 0 -5.33474e-07 -6.65603e-06 0 0 -6.63618e-06 0 -3.75742e-05 -1.89803e-05 0 -3.53195e-05 -1.92183e-05 0 -3.30766e-05 -1.93025e-05 0 -3.08663e-05 -1.92432e-05 0 -2.87073e-05 -1.90532e-05 0 -2.66157e-05 -1.87471e-05 0 -2.46044e-05 -1.83404e-05 0 -2.26834e-05 -1.78493e-05 0 -2.08599e-05 -1.72901e-05 0 -1.91381e-05 -1.66786e-05 0 -1.75199e-05 -1.60296e-05 0 -1.6005e-05 -1.53568e-05 0 -1.45913e-05 -1.46727e-05 0 -1.32753e-05 -1.3988e-05 0 -1.20526e-05 -1.33122e-05 0 -1.09178e-05 -1.26532e-05 0 -9.86511e-06 -1.20175e-05 0 -8.88854e-06 -1.14106e-05 0 -7.98188e-06 -1.08366e-05 0 -7.13899e-06 -1.0299e-05 0 -6.35382e-06 -9.80029e-06 0 -5.62051e-06 -9.34229e-06 0 -4.93338e-06 -8.92635e-06 0 -4.28701e-06 -8.55337e-06 0 -3.67618e-06 -8.22393e-06 0 -3.09591e-06 -7.93834e-06 0 -2.54143e-06 -7.69676e-06 0 -2.00815e-06 -7.49921e-06 0 -1.49162e-06 -7.34567e-06 0 -9.87546e-07 -7.23607e-06 0 -4.91719e-07 -7.17034e-06 0 0 -7.14844e-06 0 -3.78965e-05 -2.13183e-05 0 -3.54716e-05 -2.15517e-05 0 -3.30685e-05 -2.16076e-05 0 -3.07112e-05 -2.1499e-05 0 -2.84203e-05 -2.12415e-05 0 -2.62135e-05 -2.08527e-05 0 -2.41046e-05 -2.03515e-05 0 -2.2104e-05 -1.97575e-05 0 -2.02183e-05 -1.90899e-05 0 -1.8451e-05 -1.83674e-05 0 -1.68028e-05 -1.76075e-05 0 -1.52719e-05 -1.68258e-05 0 -1.38545e-05 -1.60363e-05 0 -1.25455e-05 -1.52511e-05 0 -1.13387e-05 -1.44806e-05 0 -1.02273e-05 -1.37331e-05 0 -9.20416e-06 -1.30156e-05 0 -8.26189e-06 -1.23335e-05 0 -7.39328e-06 -1.16911e-05 0 -6.59125e-06 -1.10916e-05 0 -5.84902e-06 -1.05372e-05 0 -5.1601e-06 -1.00296e-05 0 -4.51833e-06 -9.56982e-06 0 -3.9179e-06 -9.15849e-06 0 -3.35332e-06 -8.7959e-06 0 -2.81942e-06 -8.48214e-06 0 -2.31129e-06 -8.21711e-06 0 -1.82426e-06 -8.00066e-06 0 -1.35385e-06 -7.83259e-06 0 -8.95782e-07 -7.7127e-06 0 -4.45863e-07 -7.64083e-06 0 0 -7.61689e-06 0 -3.82231e-05 -2.38445e-05 0 -3.56013e-05 -2.40631e-05 0 -3.30143e-05 -2.40778e-05 0 -3.0489e-05 -2.39042e-05 0 -2.80487e-05 -2.35614e-05 0 -2.57127e-05 -2.30708e-05 0 -2.3496e-05 -2.24555e-05 0 -2.1409e-05 -2.1739e-05 0 -1.94578e-05 -2.09443e-05 0 -1.76445e-05 -2.00935e-05 0 -1.59682e-05 -1.92068e-05 0 -1.4425e-05 -1.83021e-05 0 -1.30092e-05 -1.73952e-05 0 -1.17133e-05 -1.64994e-05 0 -1.05294e-05 -1.56256e-05 0 -9.44867e-06 -1.47828e-05 0 -8.46231e-06 -1.3978e-05 0 -7.56161e-06 -1.32166e-05 0 -6.73812e-06 -1.25026e-05 0 -5.98378e-06 -1.18388e-05 0 -5.29097e-06 -1.12272e-05 0 -4.65259e-06 -1.0669e-05 0 -4.06198e-06 -1.01648e-05 0 -3.51298e-06 -9.71482e-06 0 -2.99984e-06 -9.31904e-06 0 -2.51721e-06 -8.97718e-06 0 -2.06008e-06 -8.68888e-06 0 -1.62376e-06 -8.45373e-06 0 -1.20378e-06 -8.27132e-06 0 -7.95881e-07 -8.14131e-06 0 -3.95959e-07 -8.06341e-06 0 6.69548e-21 -8.03747e-06 0 -3.85436e-05 -2.6587e-05 0 -3.56958e-05 -2.67794e-05 0 -3.28979e-05 -2.67368e-05 0 -3.01811e-05 -2.6479e-05 0 -2.7572e-05 -2.60292e-05 0 -2.5092e-05 -2.54137e-05 0 -2.27571e-05 -2.46606e-05 0 -2.05776e-05 -2.37984e-05 0 -1.85587e-05 -2.28546e-05 0 -1.67006e-05 -2.18552e-05 0 -1.50001e-05 -2.08236e-05 0 -1.34506e-05 -1.97803e-05 0 -1.20436e-05 -1.87427e-05 0 -1.07692e-05 -1.77252e-05 0 -9.61686e-06 -1.67394e-05 0 -8.57564e-06 -1.57943e-05 0 -7.63486e-06 -1.48969e-05 0 -6.7842e-06 -1.40522e-05 0 -6.0139e-06 -1.32637e-05 0 -5.31484e-06 -1.25338e-05 0 -4.67859e-06 -1.18638e-05 0 -4.09738e-06 -1.12543e-05 0 -3.56411e-06 -1.07055e-05 0 -3.07227e-06 -1.02169e-05 0 -2.61591e-06 -9.78823e-06 0 -2.18954e-06 -9.41866e-06 0 -1.78812e-06 -9.10751e-06 0 -1.40695e-06 -8.85407e-06 0 -1.04164e-06 -8.65768e-06 0 -6.88022e-07 -8.51781e-06 0 -3.421e-07 -8.43406e-06 0 5.9543e-20 -8.40617e-06 0 -3.88492e-05 -2.95814e-05 0 -3.57394e-05 -2.9731e-05 0 -3.26996e-05 -2.96117e-05 0 -2.97647e-05 -2.92462e-05 0 -2.69652e-05 -2.8663e-05 0 -2.43251e-05 -2.78944e-05 0 -2.18617e-05 -2.69749e-05 0 -1.95849e-05 -2.5939e-05 0 -1.7498e-05 -2.48201e-05 0 -1.55988e-05 -2.36486e-05 0 -1.38806e-05 -2.24517e-05 0 -1.23334e-05 -2.12523e-05 0 -1.09453e-05 -2.00696e-05 0 -9.7031e-06 -1.89189e-05 0 -8.5932e-06 -1.7812e-05 0 -7.60225e-06 -1.67578e-05 0 -6.71738e-06 -1.57628e-05 0 -5.92654e-06 -1.48313e-05 0 -5.21855e-06 -1.39661e-05 0 -4.58322e-06 -1.31687e-05 0 -4.01127e-06 -1.24397e-05 0 -3.49434e-06 -1.17789e-05 0 -3.02491e-06 -1.11857e-05 0 -2.59618e-06 -1.06592e-05 0 -2.20205e-06 -1.01983e-05 0 -1.83698e-06 -9.80173e-06 0 -1.49595e-06 -9.46844e-06 0 -1.17433e-06 -9.19736e-06 0 -8.67844e-07 -8.98754e-06 0 -5.72483e-07 -8.83823e-06 0 -2.84431e-07 -8.74888e-06 0 1.10024e-20 -8.71913e-06 0 -3.91213e-05 -3.28612e-05 0 -3.57132e-05 -3.29534e-05 0 -3.23956e-05 -3.27337e-05 0 -2.92119e-05 -3.22317e-05 0 -2.61976e-05 -3.14825e-05 0 -2.33805e-05 -3.05261e-05 0 -2.07787e-05 -2.94051e-05 0 -1.84012e-05 -2.81622e-05 0 -1.62488e-05 -2.68374e-05 0 -1.43154e-05 -2.54668e-05 0 -1.25896e-05 -2.40815e-05 0 -1.1057e-05 -2.2707e-05 0 -9.70109e-06 -2.1364e-05 0 -8.50466e-06 -2.00682e-05 0 -7.4507e-06 -1.88314e-05 0 -6.52289e-06 -1.76618e-05 0 -5.70603e-06 -1.65648e-05 0 -4.98617e-06 -1.55439e-05 0 -4.35071e-06 -1.46005e-05 0 -3.78836e-06 -1.37352e-05 0 -3.28907e-06 -1.29474e-05 0 -2.84394e-06 -1.22359e-05 0 -2.4451e-06 -1.15993e-05 0 -2.08558e-06 -1.10359e-05 0 -1.7592e-06 -1.05439e-05 0 -1.46046e-06 -1.01215e-05 0 -1.18442e-06 -9.76721e-06 0 -9.26614e-07 -9.47941e-06 0 -6.82956e-07 -9.25692e-06 0 -4.49658e-07 -9.09874e-06 0 -2.2315e-07 -9.00412e-06 0 0 -8.97263e-06 0 -3.93522e-05 -3.64802e-05 0 -3.55942e-05 -3.64872e-05 0 -3.19568e-05 -3.61392e-05 0 -2.84881e-05 -3.54654e-05 0 -2.52314e-05 -3.45096e-05 0 -2.22188e-05 -3.33222e-05 0 -1.94698e-05 -3.1957e-05 0 -1.69914e-05 -3.04666e-05 0 -1.478e-05 -2.88998e-05 0 -1.28237e-05 -2.7299e-05 0 -1.11052e-05 -2.56995e-05 0 -9.60383e-06 -2.41295e-05 0 -8.2974e-06 -2.26105e-05 0 -7.16389e-06 -2.11581e-05 0 -6.18222e-06 -1.97832e-05 0 -5.33281e-06 -1.84927e-05 0 -4.59791e-06 -1.72906e-05 0 -3.96164e-06 -1.61787e-05 0 -3.40998e-06 -1.51568e-05 0 -2.93063e-06 -1.42241e-05 0 -2.51288e-06 -1.33786e-05 0 -2.1474e-06 -1.2618e-05 0 -1.82611e-06 -1.19397e-05 0 -1.54196e-06 -1.13412e-05 0 -1.28882e-06 -1.08199e-05 0 -1.06132e-06 -1.03734e-05 0 -8.54724e-07 -9.99945e-06 0 -6.648e-07 -9.69621e-06 0 -4.87744e-07 -9.46205e-06 0 -3.20069e-07 -9.29572e-06 0 -1.58522e-07 -9.19628e-06 0 0 -9.1632e-06 0 -3.95093e-05 -4.0468e-05 0 -3.53573e-05 -4.03823e-05 0 -3.13477e-05 -3.98718e-05 0 -2.75504e-05 -3.89824e-05 0 -2.40188e-05 -3.77688e-05 0 -2.07916e-05 -3.62961e-05 0 -1.78885e-05 -3.46333e-05 0 -1.53132e-05 -3.28464e-05 0 -1.30549e-05 -3.09949e-05 0 -1.10938e-05 -2.91285e-05 0 -9.40358e-06 -2.72868e-05 0 -7.95567e-06 -2.55e-05 0 -6.72095e-06 -2.37895e-05 0 -5.67155e-06 -2.21698e-05 0 -4.78179e-06 -2.065e-05 0 -4.02856e-06 -1.92349e-05 0 -3.39148e-06 -1.79261e-05 0 -2.85279e-06 -1.67231e-05 0 -2.39719e-06 -1.56239e-05 0 -2.01154e-06 -1.46257e-05 0 -1.68461e-06 -1.37248e-05 0 -1.40686e-06 -1.29176e-05 0 -1.17012e-06 -1.22004e-05 0 -9.67452e-07 -1.15694e-05 0 -7.92909e-07 -1.10212e-05 0 -6.41375e-07 -1.05527e-05 0 -5.0842e-07 -1.01611e-05 0 -3.90171e-07 -9.84397e-06 0 -2.8319e-07 -9.59942e-06 0 -1.84378e-07 -9.42585e-06 0 -9.08801e-08 -9.32216e-06 0 1.48329e-20 -9.28767e-06 0 -3.96038e-05 -4.49259e-05 0 -3.49716e-05 -4.46972e-05 0 -3.05254e-05 -4.39863e-05 0 -2.63438e-05 -4.28255e-05 0 -2.24991e-05 -4.12876e-05 0 -1.9037e-05 -3.94598e-05 0 -1.59774e-05 -3.74323e-05 0 -1.33161e-05 -3.52893e-05 0 -1.10319e-05 -3.31032e-05 0 -9.09234e-06 -3.09316e-05 0 -7.45962e-06 -2.8818e-05 0 -6.09456e-06 -2.6793e-05 0 -4.95955e-06 -2.48767e-05 0 -4.02003e-06 -2.3081e-05 0 -3.24528e-06 -2.14117e-05 0 -2.60859e-06 -1.98704e-05 0 -2.08705e-06 -1.84554e-05 0 -1.66123e-06 -1.71635e-05 0 -1.31478e-06 -1.599e-05 0 -1.034e-06 -1.49298e-05 0 -8.07423e-07 -1.39774e-05 0 -6.25493e-07 -1.31274e-05 0 -4.8023e-07 -1.23748e-05 0 -3.64962e-07 -1.17148e-05 0 -2.741e-07 -1.11428e-05 0 -2.02938e-07 -1.06551e-05 0 -1.47486e-07 -1.02482e-05 0 -1.0433e-07 -9.91927e-06 0 -7.05079e-08 -9.66587e-06 0 -4.33996e-08 -9.48618e-06 0 -2.06339e-08 -9.3789e-06 0 6.52593e-20 -9.34323e-06 0 -3.9583e-05 -4.98437e-05 0 -3.44103e-05 -4.95159e-05 0 -2.9434e-05 -4.85547e-05 0 -2.47965e-05 -4.70481e-05 0 -2.05917e-05 -4.50969e-05 0 -1.68763e-05 -4.28219e-05 0 -1.36648e-05 -4.03446e-05 0 -1.09402e-05 -3.7773e-05 0 -8.66328e-06 -3.51945e-05 0 -6.78397e-06 -3.26746e-05 0 -5.24826e-06 -3.02588e-05 0 -4.00396e-06 -2.79759e-05 0 -3.00331e-06 -2.58423e-05 0 -2.2044e-06 -2.3865e-05 0 -1.57138e-06 -2.2045e-05 0 -1.07407e-06 -2.03791e-05 0 -6.87421e-07 -1.88616e-05 0 -3.90747e-07 -1.74854e-05 0 -1.6709e-07 -1.62428e-05 0 -2.5683e-09 -1.51261e-05 0 1.14151e-07 -1.41275e-05 0 1.92316e-07 -1.324e-05 0 2.39474e-07 -1.24568e-05 0 2.61785e-07 -1.17721e-05 0 2.64288e-07 -1.11803e-05 0 2.51114e-07 -1.06768e-05 0 2.2567e-07 -1.02576e-05 0 1.90787e-07 -9.9191e-06 0 1.48847e-07 -9.65869e-06 0 1.01895e-07 -9.4742e-06 0 5.1731e-08 -9.36411e-06 0 5.56323e-21 -9.32752e-06 0 -3.95372e-05 -5.54944e-05 0 -3.36329e-05 -5.49467e-05 0 -2.80016e-05 -5.36753e-05 0 -2.28078e-05 -5.1719e-05 0 -1.81886e-05 -4.92298e-05 0 -1.42057e-05 -4.6384e-05 0 -1.0862e-05 -4.33478e-05 0 -8.11448e-06 -4.02597e-05 0 -5.8967e-06 -3.72238e-05 0 -4.13227e-06 -3.43108e-05 0 -2.74635e-06 -3.15646e-05 0 -1.67069e-06 -2.90081e-05 0 -8.46356e-07 -2.66505e-05 0 -2.23868e-07 -2.44911e-05 0 2.37385e-07 -2.25238e-05 0 5.70362e-07 -2.07392e-05 0 8.01569e-07 -1.91263e-05 0 9.52238e-07 -1.76736e-05 0 1.03932e-06 -1.63698e-05 0 1.07632e-06 -1.52042e-05 0 1.07399e-06 -1.41667e-05 0 1.0409e-06 -1.32482e-05 0 9.83838e-07 -1.24406e-05 0 9.08191e-07 -1.17365e-05 0 8.18232e-07 -1.11296e-05 0 7.1734e-07 -1.06144e-05 0 6.08191e-07 -1.01862e-05 0 4.92904e-07 -9.84098e-06 0 3.73174e-07 -9.5757e-06 0 2.50374e-07 -9.38792e-06 0 1.2565e-07 -9.27594e-06 0 0 -9.23873e-06 0 -3.93803e-05 -6.17187e-05 0 -3.26087e-05 -6.11747e-05 0 -2.61161e-05 -5.94927e-05 0 -2.02346e-05 -5.69248e-05 0 -1.51373e-05 -5.37178e-05 0 -1.08896e-05 -5.01315e-05 0 -7.45843e-06 -4.63967e-05 0 -4.75802e-06 -4.26888e-05 0 -2.67689e-06 -3.91254e-05 0 -1.10339e-06 -3.5777e-05 0 6.42939e-08 -3.26781e-05 0 9.12243e-07 -2.98401e-05 0 1.51097e-06 -2.72594e-05 0 1.9166e-06 -2.49245e-05 0 2.17335e-06 -2.28197e-05 0 2.31568e-06 -2.09276e-05 0 2.37039e-06 -1.92309e-05 0 2.35824e-06 -1.77131e-05 0 2.29534e-06 -1.63589e-05 0 2.19416e-06 -1.51543e-05 0 2.06431e-06 -1.4087e-05 0 1.91323e-06 -1.31458e-05 0 1.7466e-06 -1.23209e-05 0 1.56876e-06 -1.16039e-05 0 1.38299e-06 -1.09875e-05 0 1.19173e-06 -1.04652e-05 0 9.96778e-07 -1.00318e-05 0 7.99411e-07 -9.68306e-06 0 6.00532e-07 -9.41533e-06 0 4.00754e-07 -9.22597e-06 0 2.00484e-07 -9.1131e-06 0 0 -9.07561e-06 0 -3.93812e-05 -6.94316e-05 0 -3.1248e-05 -6.8461e-05 0 -2.3608e-05 -6.62043e-05 0 -1.68526e-05 -6.27762e-05 0 -1.1223e-05 -5.85784e-05 0 -6.74608e-06 -5.40177e-05 0 -3.32141e-06 -4.94094e-05 0 -7.81775e-07 -4.49649e-05 0 1.04825e-06 -4.08066e-05 0 2.32882e-06 -3.69896e-05 0 3.19188e-06 -3.35285e-05 0 3.74205e-06 -3.04132e-05 0 4.05935e-06 -2.76219e-05 0 4.20436e-06 -2.51277e-05 0 4.22246e-06 -2.29028e-05 0 4.14764e-06 -2.09206e-05 0 4.00528e-06 -1.91568e-05 0 3.81439e-06 -1.75892e-05 0 3.58919e-06 -1.61985e-05 0 3.3403e-06 -1.49675e-05 0 3.07559e-06 -1.38814e-05 0 2.80088e-06 -1.29272e-05 0 2.52039e-06 -1.20936e-05 0 2.23712e-06 -1.1371e-05 0 1.95313e-06 -1.07512e-05 0 1.66974e-06 -1.02272e-05 0 1.38771e-06 -9.79312e-06 0 1.10738e-06 -9.44423e-06 0 8.28757e-07 -9.1767e-06 0 5.51604e-07 -8.98765e-06 0 2.75521e-07 -8.87502e-06 0 0 -8.83762e-06 0 -3.93696e-05 -7.79252e-05 0 -2.94314e-05 -7.72672e-05 0 -2.0166e-05 -7.41238e-05 0 -1.23148e-05 -6.93845e-05 0 -6.13065e-06 -6.37881e-05 0 -1.54254e-06 -5.79339e-05 0 1.70294e-06 -5.2242e-05 0 3.90008e-06 -4.6945e-05 0 5.31848e-06 -4.2139e-05 0 6.17353e-06 -3.78429e-05 0 6.6284e-06 -3.4031e-05 0 6.80141e-06 -3.06617e-05 0 6.77755e-06 -2.76872e-05 0 6.61712e-06 -2.50618e-05 0 6.3631e-06 -2.27436e-05 0 6.04607e-06 -2.06959e-05 0 5.68791e-06 -1.88868e-05 0 5.30427e-06 -1.72889e-05 0 4.9063e-06 -1.58787e-05 0 4.50191e-06 -1.46362e-05 0 4.0966e-06 -1.35443e-05 0 3.69411e-06 -1.25882e-05 0 3.29681e-06 -1.17555e-05 0 2.90609e-06 -1.10356e-05 0 2.52258e-06 -1.04194e-05 0 2.14631e-06 -9.8994e-06 0 1.7769e-06 -9.46937e-06 0 1.41361e-06 -9.12418e-06 0 1.05548e-06 -8.85976e-06 0 7.01366e-07 -8.67303e-06 0 3.49989e-07 -8.56185e-06 0 0 -8.52494e-06 0 -3.97703e-05 -9.02936e-05 0 -2.68237e-05 -8.83002e-05 0 -1.52423e-05 -8.36132e-05 0 -6.04891e-06 -7.68515e-05 0 5.83768e-07 -6.92164e-05 0 5.01073e-06 -6.16551e-05 0 7.76889e-06 -5.46596e-05 0 9.35191e-06 -4.84193e-05 0 1.01426e-05 -4.29565e-05 0 1.04113e-05 -3.82082e-05 0 1.03411e-05 -3.40909e-05 0 1.00537e-05 -3.05155e-05 0 9.62943e-06 -2.74043e-05 0 9.12149e-06 -2.46894e-05 0 8.56532e-06 -2.23148e-05 0 7.98463e-06 -2.02332e-05 0 7.39531e-06 -1.84062e-05 0 6.80793e-06 -1.68013e-05 0 6.22943e-06 -1.53917e-05 0 5.66414e-06 -1.41548e-05 0 5.11459e-06 -1.30716e-05 0 4.58198e-06 -1.21261e-05 0 4.06653e-06 -1.13049e-05 0 3.56777e-06 -1.05966e-05 0 3.08471e-06 -9.99154e-06 0 2.61598e-06 -9.48187e-06 0 2.15991e-06 -9.06097e-06 0 1.71465e-06 -8.72351e-06 0 1.27818e-06 -8.46526e-06 0 8.48377e-07 -8.28302e-06 0 4.23062e-07 -8.17456e-06 0 0 -8.13856e-06 0 -4.05728e-05 -0.000103906 0 -2.27e-05 -0.000102731 0 -7.79129e-06 -9.52916e-05 0 2.87475e-06 -8.50759e-05 0 9.52246e-06 -7.45065e-05 0 1.32248e-05 -6.47613e-05 0 1.49882e-05 -5.62909e-05 0 1.55776e-05 -4.9108e-05 0 1.54741e-05 -4.30529e-05 0 1.4978e-05 -3.7945e-05 0 1.42643e-05 -3.36091e-05 0 1.34385e-05 -2.99078e-05 0 1.25621e-05 -2.67266e-05 0 1.16722e-05 -2.39788e-05 0 1.07908e-05 -2.15939e-05 0 9.93097e-06 -1.95173e-05 0 9.10016e-06 -1.77044e-05 0 8.30232e-06 -1.61193e-05 0 7.53905e-06 -1.47327e-05 0 6.81043e-06 -1.35202e-05 0 6.1155e-06 -1.24616e-05 0 5.45257e-06 -1.15402e-05 0 4.81947e-06 -1.07418e-05 0 4.21368e-06 -1.00545e-05 0 3.63248e-06 -9.46859e-06 0 3.07295e-06 -8.97577e-06 0 2.5321e-06 -8.56933e-06 0 2.00688e-06 -8.24381e-06 0 1.49419e-06 -7.99491e-06 0 9.90895e-07 -7.81938e-06 0 4.93879e-07 -7.71496e-06 0 0 -7.68031e-06 0 -4.11759e-05 -0.00012929 0 -1.556e-05 -0.000122757 0 4.31884e-06 -0.000109393 0 1.58782e-05 -9.35701e-05 0 2.14202e-05 -7.88162e-05 0 2.33092e-05 -6.65249e-05 0 2.3346e-05 -5.6619e-05 0 2.24602e-05 -4.86583e-05 0 2.11816e-05 -4.22116e-05 0 1.97493e-05 -3.69107e-05 0 1.82937e-05 -3.25004e-05 0 1.68697e-05 -2.87821e-05 0 1.55061e-05 -2.56197e-05 0 1.4213e-05 -2.29069e-05 0 1.29939e-05 -2.05671e-05 0 1.18477e-05 -1.85389e-05 0 1.07717e-05 -1.67758e-05 0 9.76188e-06 -1.52397e-05 0 8.81386e-06 -1.39002e-05 0 7.92292e-06 -1.27321e-05 0 7.08432e-06 -1.1715e-05 0 6.29328e-06 -1.08317e-05 0 5.54505e-06 -1.00678e-05 0 4.835e-06 -9.41145e-06 0 4.15855e-06 -8.85276e-06 0 3.51123e-06 -8.38351e-06 0 2.88867e-06 -7.99695e-06 0 2.28659e-06 -7.68765e-06 0 1.70079e-06 -7.45134e-06 0 1.12714e-06 -7.28479e-06 0 5.61557e-07 -7.18575e-06 0 0 -7.15288e-06 0 -4.50231e-05 -0.000159676 0 -2.80784e-07 -0.000151512 0 2.50086e-05 -0.000126015 0 3.50672e-05 -0.000100317 0 3.67047e-05 -8.05112e-05 0 3.51808e-05 -6.58585e-05 0 3.25177e-05 -5.4993e-05 0 2.97152e-05 -4.67254e-05 0 2.70128e-05 -4.02288e-05 0 2.45398e-05 -3.50058e-05 0 2.22837e-05 -3.0703e-05 0 2.02395e-05 -2.71099e-05 0 1.83777e-05 -2.40654e-05 0 1.66794e-05 -2.14663e-05 0 1.51235e-05 -1.92299e-05 0 1.36942e-05 -1.72975e-05 0 1.23769e-05 -1.56213e-05 0 1.11597e-05 -1.41645e-05 0 1.00315e-05 -1.28968e-05 0 8.98309e-06 -1.17938e-05 0 8.0056e-06 -1.08351e-05 0 7.09118e-06 -1.00041e-05 0 6.23249e-06 -9.28655e-06 0 5.42273e-06 -8.67101e-06 0 4.6555e-06 -8.14775e-06 0 3.92476e-06 -7.70876e-06 0 3.22476e-06 -7.3475e-06 0 2.55003e-06 -7.05869e-06 0 1.89526e-06 -6.83818e-06 0 1.25532e-06 -6.68284e-06 0 6.25214e-07 -6.5905e-06 0 0 -6.55986e-06 0 -3.90001e-05 -0.000237256 0 3.47414e-05 -0.000195834 0 6.24963e-05 -0.0001393 0 6.15359e-05 -0.000100878 0 5.50381e-05 -7.68657e-05 0 4.77987e-05 -6.14737e-05 0 4.18579e-05 -5.08597e-05 0 3.67778e-05 -4.30433e-05 0 3.26376e-05 -3.70223e-05 0 2.90914e-05 -3.21842e-05 0 2.60712e-05 -2.82172e-05 0 2.34221e-05 -2.48898e-05 0 2.1089e-05 -2.20742e-05 0 1.90027e-05 -1.9664e-05 0 1.71277e-05 -1.75921e-05 0 1.54287e-05 -1.58008e-05 0 1.38826e-05 -1.42489e-05 0 1.24684e-05 -1.29009e-05 0 1.11698e-05 -1.17296e-05 0 9.97241e-06 -1.07116e-05 0 8.86394e-06 -9.82816e-06 0 7.83343e-06 -9.06323e-06 0 6.87108e-06 -8.40371e-06 0 5.968e-06 -7.83858e-06 0 5.11602e-06 -7.3587e-06 0 4.30759e-06 -6.9565e-06 0 3.53564e-06 -6.6258e-06 0 2.79353e-06 -6.3616e-06 0 2.07491e-06 -6.16e-06 0 1.37369e-06 -6.01805e-06 0 6.83984e-07 -5.93368e-06 0 0 -5.9057e-06 0 -6.572e-05 -0.000433175 0 0.000145833 -0.000245248 0 0.000119208 -0.000130219 0 9.39711e-05 -8.67713e-05 0 7.18458e-05 -6.51395e-05 0 5.99215e-05 -5.26171e-05 0 4.97824e-05 -4.40317e-05 0 4.3194e-05 -3.76711e-05 0 3.75183e-05 -3.26423e-05 0 3.32077e-05 -2.85308e-05 0 2.94483e-05 -2.509e-05 0 2.63149e-05 -2.2173e-05 0 2.35441e-05 -1.96766e-05 0 2.11223e-05 -1.75293e-05 0 1.89538e-05 -1.56739e-05 0 1.70125e-05 -1.40672e-05 0 1.52561e-05 -1.26729e-05 0 1.36622e-05 -1.14619e-05 0 1.2207e-05 -1.04096e-05 0 1.08731e-05 -9.49565e-06 0 9.64446e-06 -8.70301e-06 0 8.50765e-06 -8.01739e-06 0 7.45051e-06 -7.42678e-06 0 6.46225e-06 -6.92116e-06 0 5.53306e-06 -6.49219e-06 0 4.65399e-06 -6.13294e-06 0 3.81674e-06 -5.83776e-06 0 3.01357e-06 -5.60208e-06 0 2.23717e-06 -5.42233e-06 0 1.48057e-06 -5.2958e-06 0 7.37041e-07 -5.22063e-06 0 0 -5.19569e-06 0 0.000523334 -0.00164791 0 0.000336664 -1.27462e-05 0 0.000208515 -8.54591e-05 0 9.1566e-05 -4.83648e-05 0 9.64067e-05 -4.74986e-05 0 6.08105e-05 -3.97531e-05 0 5.94495e-05 -3.50771e-05 0 4.60014e-05 -3.1184e-05 0 4.2514e-05 -2.72293e-05 0 3.60394e-05 -2.43248e-05 0 3.25977e-05 -2.13788e-05 0 2.86552e-05 -1.90818e-05 0 2.57538e-05 -1.69081e-05 0 2.29424e-05 -1.51186e-05 0 2.05788e-05 -1.35003e-05 0 1.84013e-05 -1.21268e-05 0 1.64738e-05 -1.0912e-05 0 1.47156e-05 -9.86621e-06 0 1.31246e-05 -8.95093e-06 0 1.16685e-05 -8.15921e-06 0 1.03338e-05 -7.47103e-06 0 9.10246e-06 -6.87697e-06 0 7.96135e-06 -6.36508e-06 0 6.89763e-06 -5.92738e-06 0 5.90017e-06 -5.55614e-06 0 4.95871e-06 -5.24551e-06 0 4.06386e-06 -4.99037e-06 0 3.20693e-06 -4.78678e-06 0 2.37971e-06 -4.63156e-06 0 1.57443e-06 -4.52233e-06 0 7.83623e-07 -4.45745e-06 0 0 -4.43593e-06 0 </DataArray> 
</PointData> 
<Points> 
<DataArray type="Float32" NumberOfComponents="3"> 