<?xml version="1.0"?> 
<VTKFile type="StructuredGrid" version="0.1"> 
<StructuredGrid WholeExtent="0 31 0 31 0 0"> 
<Piece Extent="0 31 0 31 0 0"> 
<PointData>
<DataArray type="Float32" Name="B" format="ascii" NumberOfComponents="3"> 
-0.0103766 -0.0101428 0 -0.0141592 0.000929138 0 -0.0129112 -0.000129215 0 -0.0141397 4.00432e-05 0 -0.0137298 -4.32553e-05 0 -0.0144535 -2.55318e-05 0 -0.0145432 -2.85056e-05 0 -0.0149374 -2.42646e-05 0 -0.0150908 -1.82144e-05 0 -0.0152968 -1.47463e-05 0 -0.0154049 -1.01038e-05 0 -0.0155054 -7.45285e-06 0 -0.0155637 -4.8222e-06 0 -0.0156081 -3.20821e-06 0 -0.0156336 -1.87128e-06 0 -0.0156495 -9.98167e-07 0 -0.0156563 -3.28362e-07 0 -0.0156575 1.63221e-07 0 -0.0156534 5.42884e-07 0 -0.0156456 9.02211e-07 0 -0.0156332 1.17213e-06 0 -0.015619 1.54635e-06 0 -0.0155975 1.75605e-06 0 -0.0155792 2.25838e-06 0 -0.0155419 2.36402e-06 0 -0.0155285 3.34585e-06 0 -0.0154479 2.98476e-06 0 -0.0154717 7.04567e-06 0 -0.0152318 2.94009e-06 0 -0.0153502 3.43559e-05 0 -0.014507 -4.74025e-06 0 -0.00255532 0.00221716 0 -0.00135769 -0.0121503 0 0.000343826 0.00107474 0 3.36061e-05 -0.000158079 0 0.000298891 6.30915e-05 0 0.000138083 -9.66111e-06 0 0.000228424 6.92708e-06 0 0.000186363 2.94716e-06 0 0.000213274 2.11267e-07 0 0.000205478 2.20829e-06 0 0.000214076 -3.23655e-07 0 0.000214262 9.25067e-07 0 0.0002176 -2.27049e-07 0 0.000218855 2.94899e-07 0 0.000220387 -1.33888e-07 0 0.000221265 6.20592e-08 0 0.000221947 -7.55461e-08 0 0.000222305 -9.04257e-09 0 0.000222467 -3.7668e-08 0 0.00022236 -3.32197e-08 0 0.000222167 -5.24292e-09 0 0.000221568 -6.25074e-08 0 0.000221219 4.27094e-08 0 0.000219822 -1.2521e-07 0 0.000219868 1.20688e-07 0 0.000216476 -1.84789e-07 0 0.000218738 6.68429e-08 0 0.000209128 3.00872e-07 0 0.000219381 -1.60136e-06 0 0.000189098 5.46556e-06 0 0.000219838 -1.93775e-05 0 0.000130018 9.28901e-05 0 -0.00105995 -0.000954801 0 0.00123069 -0.01079 0 -6.80861e-05 0.000891106 0 4.79759e-05 -0.000118812 0 6.10162e-06 5.96494e-05 0 1.61231e-05 -4.74819e-06 0 -1.43935e-06 5.01073e-06 0 5.00704e-06 4.00335e-06 0 -7.18233e-07 -1.14394e-06 0 1.45309e-06 2.44866e-06 0 2.06691e-08 -1.09735e-06 0 5.65862e-07 9.328e-07 0 3.08105e-07 -5.86429e-07 0 4.02542e-07 2.60245e-07 0 3.74434e-07 -2.73611e-07 0 3.73521e-07 4.06369e-08 0 3.75712e-07 -1.20216e-07 0 3.74188e-07 -1.26514e-08 0 3.96558e-07 -5.04677e-08 0 4.2142e-07 -2.32356e-08 0 4.88671e-07 -1.88274e-08 0 5.39462e-07 -3.37256e-08 0 7.00211e-07 2.35792e-10 0 7.21108e-07 -5.69693e-08 0 1.13442e-06 1.73232e-08 0 8.6594e-07 -8.25366e-08 0 2.14479e-06 -2.13623e-08 0 5.99586e-07 3.5547e-08 0 4.97264e-06 -6.10777e-07 0 -1.02082e-06 1.44093e-06 0 1.27252e-05 -6.31911e-06 0 2.53403e-06 3.05425e-05 0 1.47672e-05 -0.000344165 0 0.000789662 -0.00889561 0 -6.6145e-05 0.000661713 0 -2.04327e-05 -9.67069e-05 0 2.93025e-05 5.48759e-05 0 -2.11007e-06 -1.64718e-06 0 1.13657e-05 6.26455e-06 0 1.70822e-07 3.81246e-06 0 5.09661e-06 -9.61123e-08 0 1.61249e-06 2.00943e-06 0 3.41116e-06 -6.18328e-07 0 2.54143e-06 6.42878e-07 0 3.21534e-06 -4.28167e-07 0 3.10516e-06 1.04469e-07 0 3.37461e-06 -2.42967e-07 0 3.42096e-06 -3.47321e-08 0 3.53314e-06 -1.24663e-07 0 3.57586e-06 -4.35928e-08 0 3.61764e-06 -5.6496e-08 0 3.62906e-06 -2.81544e-08 0 3.6357e-06 -1.83033e-08 0 3.61599e-06 -2.02897e-08 0 3.60734e-06 7.20021e-09 0 3.55133e-06 -2.6681e-08 0 3.55126e-06 3.2596e-08 0 3.41501e-06 -3.49244e-08 0 3.50335e-06 3.43954e-08 0 3.04947e-06 7.14923e-08 0 3.59712e-06 -2.70918e-07 0 1.59425e-06 1.19072e-06 0 3.32179e-06 -3.04328e-06 0 -8.45714e-07 2.32309e-05 0 -8.82924e-05 -0.000232048 0 0.000689631 -0.00775416 0 -5.60511e-05 0.000589447 0 -3.17884e-05 -9.9257e-05 0 1.17761e-05 5.35532e-05 0 -6.64644e-06 -3.14202e-07 0 1.54591e-06 6.79176e-06 0 -5.62757e-06 3.95764e-06 0 -3.29456e-06 4.4141e-08 0 -5.40871e-06 1.94935e-06 0 -4.71048e-06 -6.40195e-07 0 -5.21752e-06 5.88633e-07 0 -4.98415e-06 -4.7381e-07 0 -5.05967e-06 7.73655e-08 0 -4.96492e-06 -2.72896e-07 0 -4.95169e-06 -4.53528e-08 0 -4.90693e-06 -1.39061e-07 0 -4.88721e-06 -4.76773e-08 0 -4.86276e-06 -6.42268e-08 0 -4.84935e-06 -3.12099e-08 0 -4.82872e-06 -2.72106e-08 0 -4.8229e-06 -2.41374e-08 0 -4.78909e-06 -9.30883e-09 0 -4.80156e-06 -3.07921e-08 0 -4.72324e-06 2.74383e-09 0 -4.79605e-06 -4.52785e-08 0 -4.59709e-06 2.68139e-09 0 -4.86441e-06 -2.19522e-08 0 -4.35424e-06 -1.18576e-07 0 -5.31702e-06 4.50206e-07 0 -4.02625e-06 -8.10539e-07 0 -3.23505e-06 7.50349e-06 0 -2.27817e-05 -0.000110442 0 0.000567998 -0.00668322 0 -2.65145e-05 0.000495811 0 -3.35294e-05 -9.47197e-05 0 1.53141e-05 4.71816e-05 0 -6.84781e-07 1.16615e-06 0 9.32583e-06 7.30704e-06 0 2.90291e-06 4.04841e-06 0 5.43457e-06 6.00981e-07 0 3.63592e-06 1.82709e-06 0 4.3497e-06 -3.95232e-07 0 3.95116e-06 4.92848e-07 0 4.18551e-06 -3.95908e-07 0 4.13789e-06 2.12406e-08 0 4.23096e-06 -2.57207e-07 0 4.24812e-06 -7.54573e-08 0 4.28897e-06 -1.40391e-07 0 4.30596e-06 -6.20882e-08 0 4.32311e-06 -6.75384e-08 0 4.33082e-06 -3.58912e-08 0 4.33709e-06 -2.931e-08 0 4.3363e-06 -2.17985e-08 0 4.34114e-06 -1.10833e-08 0 4.32748e-06 -2.11963e-08 0 4.34674e-06 -3.42783e-11 0 4.29316e-06 -2.34573e-08 0 4.36839e-06 2.54207e-09 0 4.16929e-06 3.68806e-08 0 4.39916e-06 -8.53613e-08 0 3.67572e-06 7.03403e-07 0 4.55782e-06 -9.04057e-07 0 4.98611e-06 8.25289e-06 0 -1.97093e-05 -0.000100518 0 0.000502266 -0.00586781 0 -2.06603e-05 0.000444887 0 -4.07104e-05 -9.13812e-05 0 2.87339e-06 4.11046e-05 0 -8.94177e-06 1.76276e-06 0 6.84478e-07 7.16564e-06 0 -4.46754e-06 4.14112e-06 0 -2.29548e-06 7.23318e-07 0 -3.87583e-06 1.78238e-06 0 -3.33019e-06 -3.59422e-07 0 -3.75925e-06 4.52903e-07 0 -3.60559e-06 -3.97034e-07 0 -3.70832e-06 1.2668e-10 0 -3.65684e-06 -2.63766e-07 0 -3.67436e-06 -8.47658e-08 0 -3.65342e-06 -1.44645e-07 0 -3.652e-06 -6.58517e-08 0 -3.64191e-06 -6.96557e-08 0 -3.63831e-06 -3.7721e-08 0 -3.63179e-06 -3.084e-08 0 -3.63007e-06 -2.33303e-08 0 -3.62198e-06 -1.35973e-08 0 -3.6264e-06 -2.25887e-08 0 -3.60833e-06 -4.86458e-09 0 -3.63577e-06 -2.50072e-08 0 -3.58932e-06 1.6171e-09 0 -3.70243e-06 2.10573e-08 0 -3.59698e-06 -1.2214e-08 0 -3.94272e-06 4.96774e-07 0 -3.33472e-06 -5.0229e-07 0 -2.97222e-06 3.67376e-06 0 -9.77494e-06 -5.73464e-05 0 0.000456313 -0.00507705 0 -5.3437e-06 0.000384394 0 -3.20528e-05 -8.34485e-05 0 4.76977e-06 3.41776e-05 0 -4.26719e-06 2.04399e-06 0 5.38793e-06 6.93985e-06 0 1.50698e-06 4.11125e-06 0 3.76098e-06 9.86925e-07 0 2.55588e-06 1.70241e-06 0 3.12711e-06 -2.12109e-07 0 2.79595e-06 4.04035e-07 0 2.9412e-06 -3.38169e-07 0 2.85381e-06 -2.3546e-08 0 2.88812e-06 -2.44044e-07 0 2.8652e-06 -9.56792e-08 0 2.87203e-06 -1.39397e-07 0 2.86584e-06 -7.07406e-08 0 2.86657e-06 -6.89887e-08 0 2.8645e-06 -3.95151e-08 0 2.86418e-06 -3.14357e-08 0 2.86235e-06 -2.31012e-08 0 2.86285e-06 -1.47003e-08 0 2.8573e-06 -2.01965e-08 0 2.86345e-06 -6.00816e-09 0 2.83905e-06 -1.79675e-08 0 2.86894e-06 4.64462e-09 0 2.76217e-06 4.48576e-08 0 2.88697e-06 8.08867e-09 0 2.55885e-06 5.37725e-07 0 3.37494e-06 -7.14231e-07 0 3.29082e-06 4.27903e-06 0 -7.51447e-06 -5.71235e-05 0 0.000419699 -0.00438667 0 -4.86581e-06 0.000336317 0 -3.3944e-05 -7.50083e-05 0 -1.62664e-06 2.81981e-05 0 -1.0197e-05 1.82955e-06 0 -2.40185e-07 6.39248e-06 0 -3.5898e-06 3.93831e-06 0 -1.16591e-06 1.05827e-06 0 -2.28317e-06 1.60282e-06 0 -1.69555e-06 -1.48723e-07 0 -2.05267e-06 3.64773e-07 0 -1.9319e-06 -3.08762e-07 0 -2.05497e-06 -3.40764e-08 0 -2.04451e-06 -2.31524e-07 0 -2.09089e-06 -9.67636e-08 0 -2.09845e-06 -1.3411e-07 0 -2.11646e-06 -6.98909e-08 0 -2.12226e-06 -6.67658e-08 0 -2.1292e-06 -3.87649e-08 0 -2.13134e-06 -3.05255e-08 0 -2.13485e-06 -2.25936e-08 0 -2.134e-06 -1.4412e-08 0 -2.13945e-06 -1.94256e-08 0 -2.13436e-06 -5.74705e-09 0 -2.15198e-06 -1.62165e-08 0 -2.13693e-06 1.00948e-08 0 -2.19947e-06 4.22761e-08 0 -2.14016e-06 4.49282e-08 0 -2.25905e-06 4.00138e-07 0 -1.78303e-06 -5.60967e-07 0 -1.97983e-06 2.62804e-06 0 -5.83201e-06 -3.84016e-05 0 0.000395602 -0.00372054 0 1.98964e-06 0.000286002 0 -2.71071e-05 -6.51065e-05 0 2.19142e-07 2.27385e-05 0 -7.73734e-06 1.49742e-06 0 2.04247e-06 5.74529e-06 0 -4.8735e-07 3.65208e-06 0 2.09464e-06 1.12352e-06 0 1.27966e-06 1.47581e-06 0 1.91766e-06 -6.204e-08 0 1.64367e-06 3.25197e-07 0 1.76205e-06 -2.58891e-07 0 1.65017e-06 -4.03261e-08 0 1.64606e-06 -2.06888e-07 0 1.59301e-06 -9.47418e-08 0 1.573e-06 -1.23028e-07 0 1.54733e-06 -6.74897e-08 0 1.53355e-06 -6.23024e-08 0 1.52149e-06 -3.72122e-08 0 1.51436e-06 -2.90614e-08 0 1.50785e-06 -2.12744e-08 0 1.50483e-06 -1.42589e-08 0 1.4975e-06 -1.73392e-08 0 1.4993e-06 -5.893e-09 0 1.48019e-06 -1.18571e-08 0 1.49809e-06 1.25501e-08 0 1.43521e-06 4.94023e-08 0 1.53613e-06 5.02394e-08 0 1.40425e-06 3.47798e-07 0 1.94349e-06 -5.8072e-07 0 1.62213e-06 2.57946e-06 0 -4.55521e-06 -3.50893e-05 0 0.000374665 -0.00310134 0 1.44376e-06 0.000239988 0 -2.70155e-05 -5.51233e-05 0 -2.40983e-06 1.81119e-05 0 -1.08318e-05 1.07557e-06 0 -1.10754e-06 4.94608e-06 0 -3.29046e-06 3.2498e-06 0 -5.3314e-07 1.07693e-06 0 -1.21818e-06 1.31561e-06 0 -5.35348e-07 -1.72876e-08 0 -7.97162e-07 2.8418e-07 0 -6.85967e-07 -2.19906e-07 0 -8.14105e-07 -4.06448e-08 0 -8.33471e-07 -1.82799e-07 0 -9.01804e-07 -8.7256e-08 0 -9.32798e-07 -1.10199e-07 0 -9.67535e-07 -6.16422e-08 0 -9.87117e-07 -5.6172e-08 0 -1.00351e-06 -3.38944e-08 0 -1.01302e-06 -2.62946e-08 0 -1.02137e-06 -1.92578e-08 0 -1.02512e-06 -1.29176e-08 0 -1.03285e-06 -1.5274e-08 0 -1.03185e-06 -4.96885e-09 0 -1.04719e-06 -8.98621e-09 0 -1.03369e-06 1.49533e-08 0 -1.07084e-06 4.65803e-08 0 -9.93873e-07 5.6038e-08 0 -1.038e-06 2.548e-07 0 -7.13281e-07 -4.67898e-07 0 -1.02789e-06 1.82811e-06 0 -4.03293e-06 -2.54936e-05 0 0.000360384 -0.00250247 0 4.29169e-06 0.000194113 0 -2.31572e-05 -4.48918e-05 0 -1.14351e-06 1.40413e-05 0 -9.71249e-06 7.16842e-07 0 -2.98791e-07 4.09419e-06 0 -2.03828e-06 2.76731e-06 0 8.56321e-07 9.84193e-07 0 3.86198e-07 1.12728e-06 0 1.12593e-06 2.09342e-08 0 9.24221e-07 2.4064e-07 0 1.04022e-06 -1.75504e-07 0 9.18375e-07 -3.74991e-08 0 8.89847e-07 -1.52955e-07 0 8.15247e-07 -7.65581e-08 0 7.7527e-07 -9.37861e-08 0 7.34217e-07 -5.38854e-08 0 7.08726e-07 -4.8309e-08 0 6.88272e-07 -2.96031e-08 0 6.75199e-07 -2.28791e-08 0 6.64524e-07 -1.66883e-08 0 6.58295e-07 -1.14551e-08 0 6.49188e-07 -1.27993e-08 0 6.48626e-07 -4.35871e-09 0 6.33036e-07 -6.03858e-09 0 6.50335e-07 1.47443e-08 0 6.16614e-07 4.38486e-08 0 7.16204e-07 4.88083e-08 0 6.54337e-07 1.97534e-07 0 9.79147e-07 -4.06273e-07 0 6.48564e-07 1.56107e-06 0 -3.3374e-06 -2.11333e-05 0 0.000348699 -0.00192764 0 3.92769e-06 0.000150033 0 -2.26115e-05 -3.47828e-05 0 -2.00666e-06 1.04781e-05 0 -1.10076e-05 4.25948e-07 0 -1.83437e-06 3.1933e-06 0 -3.37301e-06 2.21362e-06 0 -3.64406e-07 8.23078e-07 0 -7.15437e-07 9.09e-07 0 6.91471e-08 3.4815e-08 0 -1.08304e-07 1.92675e-07 0 9.01605e-09 -1.35589e-07 0 -1.18377e-07 -3.15638e-08 0 -1.55629e-07 -1.21947e-07 0 -2.39229e-07 -6.259e-08 0 -2.86644e-07 -7.55335e-08 0 -3.33815e-07 -4.39391e-08 0 -3.63628e-07 -3.91039e-08 0 -3.87286e-07 -2.41214e-08 0 -4.02406e-07 -1.85746e-08 0 -4.14528e-07 -1.35402e-08 0 -4.21663e-07 -9.29919e-09 0 -4.31045e-07 -1.01535e-08 0 -4.3218e-07 -3.31336e-09 0 -4.44993e-07 -3.91618e-09 0 -4.28206e-07 1.35137e-08 0 -4.4698e-07 3.65874e-08 0 -3.5663e-07 4.09229e-08 0 -3.9021e-07 1.3803e-07 0 -1.6752e-07 -3.07455e-07 0 -4.71792e-07 1.11383e-06 0 -3.10363e-06 -1.51406e-05 0 0.000340935 -0.00136604 0 5.00735e-06 0.000106471 0 -2.07879e-05 -2.47333e-05 0 -1.33862e-06 7.2496e-06 0 -1.05466e-05 2.30099e-07 0 -1.64194e-06 2.28319e-06 0 -2.98316e-06 1.61397e-06 0 1.09447e-07 6.22413e-07 0 -1.14948e-07 6.67992e-07 0 7.12832e-07 3.73714e-08 0 5.72071e-07 1.41168e-07 0 6.95377e-07 -9.5155e-08 0 5.71361e-07 -2.37288e-08 0 5.29227e-07 -8.82289e-08 0 4.41391e-07 -4.63979e-08 0 3.88565e-07 -5.51964e-08 0 3.37302e-07 -3.25532e-08 0 3.03858e-07 -2.87464e-08 0 2.77606e-07 -1.78772e-08 0 2.60341e-07 -1.37412e-08 0 2.4674e-07 -1.00038e-08 0 2.38225e-07 -6.93802e-09 0 2.28039e-07 -7.36078e-09 0 2.26227e-07 -2.41336e-09 0 2.13856e-07 -2.29469e-09 0 2.33165e-07 1.0618e-08 0 2.18218e-07 2.78724e-08 0 3.1647e-07 2.93813e-08 0 2.7127e-07 9.38977e-08 0 4.83357e-07 -2.24013e-07 0 1.85562e-07 8.08393e-07 0 -2.7658e-06 -1.08517e-05 0 0.000335642 -0.000815834 0 4.8709e-06 6.36867e-05 0 -2.04131e-05 -1.47994e-05 0 -1.54942e-06 4.26248e-06 0 -1.09722e-05 1.04659e-07 0 -2.24463e-06 1.36766e-06 0 -3.50192e-06 9.80209e-07 0 -3.5553e-07 3.85819e-07 0 -5.12563e-07 4.08103e-07 0 3.42482e-07 2.66666e-08 0 2.18512e-07 8.6078e-08 0 3.445e-07 -5.68227e-08 0 2.19299e-07 -1.47042e-08 0 1.73284e-07 -5.35763e-08 0 8.13144e-08 -2.84894e-08 0 2.47494e-08 -3.36865e-08 0 -2.95886e-08 -1.99728e-08 0 -6.53243e-08 -1.7586e-08 0 -9.32711e-08 -1.09658e-08 0 -1.11692e-07 -8.41538e-09 0 -1.26091e-07 -6.1224e-09 0 -1.35166e-07 -4.24267e-09 0 -1.45509e-07 -4.44887e-09 0 -1.4758e-07 -1.41198e-09 0 -1.58472e-07 -1.16793e-09 0 -1.38771e-07 6.84493e-09 0 -1.46946e-07 1.72387e-08 0 -5.24396e-08 1.79811e-08 0 -9.07605e-08 5.2975e-08 0 8.29664e-08 -1.32015e-07 0 -1.99155e-07 4.63723e-07 0 -2.66836e-06 -6.22751e-06 0 0.000333169 -0.000271154 0 5.14411e-06 2.11689e-05 0 -1.98851e-05 -4.92316e-06 0 -1.34626e-06 1.40553e-06 0 -1.08473e-05 2.98071e-08 0 -2.22217e-06 4.55852e-07 0 -3.42602e-06 3.28972e-07 0 -2.52253e-07 1.31187e-07 0 -3.67572e-07 1.37433e-07 0 5.03362e-07 9.92829e-09 0 3.91853e-07 2.89956e-08 0 5.20372e-07 -1.87286e-08 0 3.96293e-07 -4.96394e-09 0 3.48757e-07 -1.7893e-08 0 2.55316e-07 -9.6113e-09 0 1.96943e-07 -1.12986e-08 0 1.41195e-07 -6.74185e-09 0 1.04234e-07 -5.91553e-09 0 7.53958e-08 -3.70444e-09 0 5.62576e-08 -2.84171e-09 0 4.13518e-08 -2.06811e-09 0 3.18343e-08 -1.44173e-09 0 2.12306e-08 -1.4952e-09 0 1.89835e-08 -4.80872e-10 0 8.3435e-09 -3.58108e-10 0 2.89264e-08 2.33711e-09 0 2.22613e-08 5.87471e-09 0 1.18359e-07 5.90279e-09 0 7.62336e-08 1.75795e-08 0 2.45315e-07 -4.49019e-08 0 -3.29128e-08 1.59916e-07 0 -2.5682e-06 -2.13457e-06 0 0.000333169 0.000271154 0 5.14411e-06 -2.11689e-05 0 -1.98851e-05 4.92316e-06 0 -1.34626e-06 -1.40553e-06 0 -1.08473e-05 -2.98071e-08 0 -2.22217e-06 -4.55852e-07 0 -3.42602e-06 -3.28972e-07 0 -2.52253e-07 -1.31187e-07 0 -3.67572e-07 -1.37433e-07 0 5.03362e-07 -9.92829e-09 0 3.91853e-07 -2.89956e-08 0 5.20372e-07 1.87286e-08 0 3.96293e-07 4.96394e-09 0 3.48757e-07 1.7893e-08 0 2.55316e-07 9.6113e-09 0 1.96943e-07 1.12986e-08 0 1.41195e-07 6.74185e-09 0 1.04234e-07 5.91553e-09 0 7.53958e-08 3.70444e-09 0 5.62576e-08 2.84171e-09 0 4.13518e-08 2.06811e-09 0 3.18343e-08 1.44173e-09 0 2.12306e-08 1.4952e-09 0 1.89835e-08 4.80872e-10 0 8.3435e-09 3.58108e-10 0 2.89264e-08 -2.33711e-09 0 2.22613e-08 -5.87471e-09 0 1.18359e-07 -5.90279e-09 0 7.62336e-08 -1.75795e-08 0 2.45315e-07 4.49019e-08 0 -3.29128e-08 -1.59916e-07 0 -2.5682e-06 2.13457e-06 0 0.000335642 0.000815834 0 4.8709e-06 -6.36867e-05 0 -2.04131e-05 1.47994e-05 0 -1.54942e-06 -4.26248e-06 0 -1.09722e-05 -1.04659e-07 0 -2.24463e-06 -1.36766e-06 0 -3.50192e-06 -9.80209e-07 0 -3.5553e-07 -3.85819e-07 0 -5.12563e-07 -4.08103e-07 0 3.42482e-07 -2.66666e-08 0 2.18512e-07 -8.6078e-08 0 3.445e-07 5.68227e-08 0 2.19299e-07 1.47042e-08 0 1.73284e-07 5.35763e-08 0 8.13144e-08 2.84894e-08 0 2.47494e-08 3.36865e-08 0 -2.95886e-08 1.99728e-08 0 -6.53243e-08 1.7586e-08 0 -9.32711e-08 1.09658e-08 0 -1.11692e-07 8.41538e-09 0 -1.26091e-07 6.1224e-09 0 -1.35166e-07 4.24267e-09 0 -1.45509e-07 4.44887e-09 0 -1.4758e-07 1.41198e-09 0 -1.58472e-07 1.16793e-09 0 -1.38771e-07 -6.84493e-09 0 -1.46946e-07 -1.72387e-08 0 -5.24396e-08 -1.79811e-08 0 -9.07605e-08 -5.2975e-08 0 8.29664e-08 1.32015e-07 0 -1.99155e-07 -4.63723e-07 0 -2.66836e-06 6.22751e-06 0 0.000340935 0.00136604 0 5.00735e-06 -0.000106471 0 -2.07879e-05 2.47333e-05 0 -1.33862e-06 -7.2496e-06 0 -1.05466e-05 -2.30099e-07 0 -1.64194e-06 -2.28319e-06 0 -2.98316e-06 -1.61397e-06 0 1.09447e-07 -6.22413e-07 0 -1.14948e-07 -6.67992e-07 0 7.12832e-07 -3.73714e-08 0 5.72071e-07 -1.41168e-07 0 6.95377e-07 9.5155e-08 0 5.71361e-07 2.37288e-08 0 5.29227e-07 8.82289e-08 0 4.41391e-07 4.63979e-08 0 3.88565e-07 5.51964e-08 0 3.37302e-07 3.25532e-08 0 3.03858e-07 2.87464e-08 0 2.77606e-07 1.78772e-08 0 2.60341e-07 1.37412e-08 0 2.4674e-07 1.00038e-08 0 2.38225e-07 6.93802e-09 0 2.28039e-07 7.36078e-09 0 2.26227e-07 2.41336e-09 0 2.13856e-07 2.29469e-09 0 2.33165e-07 -1.0618e-08 0 2.18218e-07 -2.78724e-08 0 3.1647e-07 -2.93813e-08 0 2.7127e-07 -9.38977e-08 0 4.83357e-07 2.24013e-07 0 1.85562e-07 -8.08393e-07 0 -2.7658e-06 1.08517e-05 0 0.000348699 0.00192764 0 3.92769e-06 -0.000150033 0 -2.26115e-05 3.47828e-05 0 -2.00666e-06 -1.04781e-05 0 -1.10076e-05 -4.25948e-07 0 -1.83437e-06 -3.1933e-06 0 -3.37301e-06 -2.21362e-06 0 -3.64406e-07 -8.23078e-07 0 -7.15437e-07 -9.09e-07 0 6.91471e-08 -3.4815e-08 0 -1.08304e-07 -1.92675e-07 0 9.01605e-09 1.35589e-07 0 -1.18377e-07 3.15638e-08 0 -1.55629e-07 1.21947e-07 0 -2.39229e-07 6.259e-08 0 -2.86644e-07 7.55335e-08 0 -3.33815e-07 4.39391e-08 0 -3.63628e-07 3.91039e-08 0 -3.87286e-07 2.41214e-08 0 -4.02406e-07 1.85746e-08 0 -4.14528e-07 1.35402e-08 0 -4.21663e-07 9.29919e-09 0 -4.31045e-07 1.01535e-08 0 -4.3218e-07 3.31336e-09 0 -4.44993e-07 3.91618e-09 0 -4.28206e-07 -1.35137e-08 0 -4.4698e-07 -3.65874e-08 0 -3.5663e-07 -4.09229e-08 0 -3.9021e-07 -1.3803e-07 0 -1.6752e-07 3.07455e-07 0 -4.71792e-07 -1.11383e-06 0 -3.10363e-06 1.51406e-05 0 0.000360384 0.00250247 0 4.29169e-06 -0.000194113 0 -2.31572e-05 4.48918e-05 0 -1.14351e-06 -1.40413e-05 0 -9.71249e-06 -7.16842e-07 0 -2.98791e-07 -4.09419e-06 0 -2.03828e-06 -2.76731e-06 0 8.56321e-07 -9.84193e-07 0 3.86198e-07 -1.12728e-06 0 1.12593e-06 -2.09342e-08 0 9.24221e-07 -2.4064e-07 0 1.04022e-06 1.75504e-07 0 9.18375e-07 3.74991e-08 0 8.89847e-07 1.52955e-07 0 8.15247e-07 7.65581e-08 0 7.7527e-07 9.37861e-08 0 7.34217e-07 5.38854e-08 0 7.08726e-07 4.8309e-08 0 6.88272e-07 2.96031e-08 0 6.75199e-07 2.28791e-08 0 6.64524e-07 1.66883e-08 0 6.58295e-07 1.14551e-08 0 6.49188e-07 1.27993e-08 0 6.48626e-07 4.35871e-09 0 6.33036e-07 6.03858e-09 0 6.50335e-07 -1.47443e-08 0 6.16614e-07 -4.38486e-08 0 7.16204e-07 -4.88083e-08 0 6.54337e-07 -1.97534e-07 0 9.79147e-07 4.06273e-07 0 6.48564e-07 -1.56107e-06 0 -3.3374e-06 2.11333e-05 0 0.000374665 0.00310134 0 1.44376e-06 -0.000239988 0 -2.70155e-05 5.51233e-05 0 -2.40983e-06 -1.81119e-05 0 -1.08318e-05 -1.07557e-06 0 -1.10754e-06 -4.94608e-06 0 -3.29046e-06 -3.2498e-06 0 -5.3314e-07 -1.07693e-06 0 -1.21818e-06 -1.31561e-06 0 -5.35348e-07 1.72876e-08 0 -7.97162e-07 -2.8418e-07 0 -6.85967e-07 2.19906e-07 0 -8.14105e-07 4.06448e-08 0 -8.33471e-07 1.82799e-07 0 -9.01804e-07 8.7256e-08 0 -9.32798e-07 1.10199e-07 0 -9.67535e-07 6.16422e-08 0 -9.87117e-07 5.6172e-08 0 -1.00351e-06 3.38944e-08 0 -1.01302e-06 2.62946e-08 0 -1.02137e-06 1.92578e-08 0 -1.02512e-06 1.29176e-08 0 -1.03285e-06 1.5274e-08 0 -1.03185e-06 4.96885e-09 0 -1.04719e-06 8.98621e-09 0 -1.03369e-06 -1.49533e-08 0 -1.07084e-06 -4.65803e-08 0 -9.93873e-07 -5.6038e-08 0 -1.038e-06 -2.548e-07 0 -7.13281e-07 4.67898e-07 0 -1.02789e-06 -1.82811e-06 0 -4.03293e-06 2.54936e-05 0 0.000395602 0.00372054 0 1.98964e-06 -0.000286002 0 -2.71071e-05 6.51065e-05 0 2.19142e-07 -2.27385e-05 0 -7.73734e-06 -1.49742e-06 0 2.04247e-06 -5.74529e-06 0 -4.8735e-07 -3.65208e-06 0 2.09464e-06 -1.12352e-06 0 1.27966e-06 -1.47581e-06 0 1.91766e-06 6.204e-08 0 1.64367e-06 -3.25197e-07 0 1.76205e-06 2.58891e-07 0 1.65017e-06 4.03261e-08 0 1.64606e-06 2.06888e-07 0 1.59301e-06 9.47418e-08 0 1.573e-06 1.23028e-07 0 1.54733e-06 6.74897e-08 0 1.53355e-06 6.23024e-08 0 1.52149e-06 3.72122e-08 0 1.51436e-06 2.90614e-08 0 1.50785e-06 2.12744e-08 0 1.50483e-06 1.42589e-08 0 1.4975e-06 1.73392e-08 0 1.4993e-06 5.893e-09 0 1.48019e-06 1.18571e-08 0 1.49809e-06 -1.25501e-08 0 1.43521e-06 -4.94023e-08 0 1.53613e-06 -5.02394e-08 0 1.40425e-06 -3.47798e-07 0 1.94349e-06 5.8072e-07 0 1.62213e-06 -2.57946e-06 0 -4.55521e-06 3.50893e-05 0 0.000419699 0.00438667 0 -4.86581e-06 -0.000336317 0 -3.3944e-05 7.50083e-05 0 -1.62664e-06 -2.81981e-05 0 -1.0197e-05 -1.82955e-06 0 -2.40185e-07 -6.39248e-06 0 -3.5898e-06 -3.93831e-06 0 -1.16591e-06 -1.05827e-06 0 -2.28317e-06 -1.60282e-06 0 -1.69555e-06 1.48723e-07 0 -2.05267e-06 -3.64773e-07 0 -1.9319e-06 3.08762e-07 0 -2.05497e-06 3.40764e-08 0 -2.04451e-06 2.31524e-07 0 -2.09089e-06 9.67636e-08 0 -2.09845e-06 1.3411e-07 0 -2.11646e-06 6.98909e-08 0 -2.12226e-06 6.67658e-08 0 -2.1292e-06 3.87649e-08 0 -2.13134e-06 3.05255e-08 0 -2.13485e-06 2.25936e-08 0 -2.134e-06 1.4412e-08 0 -2.13945e-06 1.94256e-08 0 -2.13436e-06 5.74705e-09 0 -2.15198e-06 1.62165e-08 0 -2.13693e-06 -1.00948e-08 0 -2.19947e-06 -4.22761e-08 0 -2.14016e-06 -4.49282e-08 0 -2.25905e-06 -4.00138e-07 0 -1.78303e-06 5.60967e-07 0 -1.97983e-06 -2.62804e-06 0 -5.83201e-06 3.84016e-05 0 0.000456313 0.00507705 0 -5.3437e-06 -0.000384394 0 -3.20528e-05 8.34485e-05 0 4.76977e-06 -3.41776e-05 0 -4.26719e-06 -2.04399e-06 0 5.38793e-06 -6.93985e-06 0 1.50698e-06 -4.11125e-06 0 3.76098e-06 -9.86925e-07 0 2.55588e-06 -1.70241e-06 0 3.12711e-06 2.12109e-07 0 2.79595e-06 -4.04035e-07 0 2.9412e-06 3.38169e-07 0 2.85381e-06 2.3546e-08 0 2.88812e-06 2.44044e-07 0 2.8652e-06 9.56792e-08 0 2.87203e-06 1.39397e-07 0 2.86584e-06 7.07406e-08 0 2.86657e-06 6.89887e-08 0 2.8645e-06 3.95151e-08 0 2.86418e-06 3.14357e-08 0 2.86235e-06 2.31012e-08 0 2.86285e-06 1.47003e-08 0 2.8573e-06 2.01965e-08 0 2.86345e-06 6.00816e-09 0 2.83905e-06 1.79675e-08 0 2.86894e-06 -4.64462e-09 0 2.76217e-06 -4.48576e-08 0 2.88697e-06 -8.08867e-09 0 2.55885e-06 -5.37725e-07 0 3.37494e-06 7.14231e-07 0 3.29082e-06 -4.27903e-06 0 -7.51447e-06 5.71235e-05 0 0.000502266 0.00586781 0 -2.06603e-05 -0.000444887 0 -4.07104e-05 9.13812e-05 0 2.87339e-06 -4.11046e-05 0 -8.94177e-06 -1.76276e-06 0 6.84478e-07 -7.16564e-06 0 -4.46754e-06 -4.14112e-06 0 -2.29548e-06 -7.23318e-07 0 -3.87583e-06 -1.78238e-06 0 -3.33019e-06 3.59422e-07 0 -3.75925e-06 -4.52903e-07 0 -3.60559e-06 3.97034e-07 0 -3.70832e-06 -1.2668e-10 0 -3.65684e-06 2.63766e-07 0 -3.67436e-06 8.47658e-08 0 -3.65342e-06 1.44645e-07 0 -3.652e-06 6.58517e-08 0 -3.64191e-06 6.96557e-08 0 -3.63831e-06 3.7721e-08 0 -3.63179e-06 3.084e-08 0 -3.63007e-06 2.33303e-08 0 -3.62198e-06 1.35973e-08 0 -3.6264e-06 2.25887e-08 0 -3.60833e-06 4.86458e-09 0 -3.63577e-06 2.50072e-08 0 -3.58932e-06 -1.6171e-09 0 -3.70243e-06 -2.10573e-08 0 -3.59698e-06 1.2214e-08 0 -3.94272e-06 -4.96774e-07 0 -3.33472e-06 5.0229e-07 0 -2.97222e-06 -3.67376e-06 0 -9.77494e-06 5.73464e-05 0 0.000567998 0.00668322 0 -2.65145e-05 -0.000495811 0 -3.35294e-05 9.47197e-05 0 1.53141e-05 -4.71816e-05 0 -6.84781e-07 -1.16615e-06 0 9.32583e-06 -7.30704e-06 0 2.90291e-06 -4.04841e-06 0 5.43457e-06 -6.00981e-07 0 3.63592e-06 -1.82709e-06 0 4.3497e-06 3.95232e-07 0 3.95116e-06 -4.92848e-07 0 4.18551e-06 3.95908e-07 0 4.13789e-06 -2.12406e-08 0 4.23096e-06 2.57207e-07 0 4.24812e-06 7.54573e-08 0 4.28897e-06 1.40391e-07 0 4.30596e-06 6.20882e-08 0 4.32311e-06 6.75384e-08 0 4.33082e-06 3.58912e-08 0 4.33709e-06 2.931e-08 0 4.3363e-06 2.17985e-08 0 4.34114e-06 1.10833e-08 0 4.32748e-06 2.11963e-08 0 4.34674e-06 3.42783e-11 0 4.29316e-06 2.34573e-08 0 4.36839e-06 -2.54207e-09 0 4.16929e-06 -3.68806e-08 0 4.39916e-06 8.53613e-08 0 3.67572e-06 -7.03403e-07 0 4.55782e-06 9.04057e-07 0 4.98611e-06 -8.25289e-06 0 -1.97093e-05 0.000100518 0 0.000689631 0.00775416 0 -5.60511e-05 -0.000589447 0 -3.17884e-05 9.9257e-05 0 1.17761e-05 -5.35532e-05 0 -6.64644e-06 3.14202e-07 0 1.54591e-06 -6.79176e-06 0 -5.62757e-06 -3.95764e-06 0 -3.29456e-06 -4.4141e-08 0 -5.40871e-06 -1.94935e-06 0 -4.71048e-06 6.40195e-07 0 -5.21752e-06 -5.88633e-07 0 -4.98415e-06 4.7381e-07 0 -5.05967e-06 -7.73655e-08 0 -4.96492e-06 2.72896e-07 0 -4.95169e-06 4.53528e-08 0 -4.90693e-06 1.39061e-07 0 -4.88721e-06 4.76773e-08 0 -4.86276e-06 6.42268e-08 0 -4.84935e-06 3.12099e-08 0 -4.82872e-06 2.72106e-08 0 -4.8229e-06 2.41374e-08 0 -4.78909e-06 9.30883e-09 0 -4.80156e-06 3.07921e-08 0 -4.72324e-06 -2.74383e-09 0 -4.79605e-06 4.52785e-08 0 -4.59709e-06 -2.68139e-09 0 -4.86441e-06 2.19522e-08 0 -4.35424e-06 1.18576e-07 0 -5.31702e-06 -4.50206e-07 0 -4.02625e-06 8.10539e-07 0 -3.23505e-06 -7.50349e-06 0 -2.27817e-05 0.000110442 0 0.000789662 0.00889561 0 -6.6145e-05 -0.000661713 0 -2.04327e-05 9.67069e-05 0 2.93025e-05 -5.48759e-05 0 -2.11007e-06 1.64718e-06 0 1.13657e-05 -6.26455e-06 0 1.70822e-07 -3.81246e-06 0 5.09661e-06 9.61123e-08 0 1.61249e-06 -2.00943e-06 0 3.41116e-06 6.18328e-07 0 2.54143e-06 -6.42878e-07 0 3.21534e-06 4.28167e-07 0 3.10516e-06 -1.04469e-07 0 3.37461e-06 2.42967e-07 0 3.42096e-06 3.47321e-08 0 3.53314e-06 1.24663e-07 0 3.57586e-06 4.35928e-08 0 3.61764e-06 5.6496e-08 0 3.62906e-06 2.81544e-08 0 3.6357e-06 1.83033e-08 0 3.61599e-06 2.02897e-08 0 3.60734e-06 -7.20021e-09 0 3.55133e-06 2.6681e-08 0 3.55126e-06 -3.2596e-08 0 3.41501e-06 3.49244e-08 0 3.50335e-06 -3.43954e-08 0 3.04947e-06 -7.14923e-08 0 3.59712e-06 2.70918e-07 0 1.59425e-06 -1.19072e-06 0 3.32179e-06 3.04328e-06 0 -8.45714e-07 -2.32309e-05 0 -8.82924e-05 0.000232048 0 0.00123069 0.01079 0 -6.80861e-05 -0.000891106 0 4.79759e-05 0.000118812 0 6.10162e-06 -5.96494e-05 0 1.61231e-05 4.74819e-06 0 -1.43935e-06 -5.01073e-06 0 5.00704e-06 -4.00335e-06 0 -7.18233e-07 1.14394e-06 0 1.45309e-06 -2.44866e-06 0 2.06691e-08 1.09735e-06 0 5.65862e-07 -9.328e-07 0 3.08105e-07 5.86429e-07 0 4.02542e-07 -2.60245e-07 0 3.74434e-07 2.73611e-07 0 3.73521e-07 -4.06369e-08 0 3.75712e-07 1.20216e-07 0 3.74188e-07 1.26514e-08 0 3.96558e-07 5.04677e-08 0 4.2142e-07 2.32356e-08 0 4.88671e-07 1.88274e-08 0 5.39462e-07 3.37256e-08 0 7.00211e-07 -2.35792e-10 0 7.21108e-07 5.69693e-08 0 1.13442e-06 -1.73232e-08 0 8.6594e-07 8.25366e-08 0 2.14479e-06 2.13623e-08 0 5.99586e-07 -3.5547e-08 0 4.97264e-06 6.10777e-07 0 -1.02082e-06 -1.44093e-06 0 1.27252e-05 6.31911e-06 0 2.53403e-06 -3.05425e-05 0 1.47672e-05 0.000344165 0 -0.00135769 0.0121503 0 0.000343826 -0.00107474 0 3.36061e-05 0.000158079 0 0.000298891 -6.30915e-05 0 0.000138083 9.66111e-06 0 0.000228424 -6.92708e-06 0 0.000186363 -2.94716e-06 0 0.000213274 -2.11267e-07 0 0.000205478 -2.20829e-06 0 0.000214076 3.23655e-07 0 0.000214262 -9.25067e-07 0 0.0002176 2.27049e-07 0 0.000218855 -2.94899e-07 0 0.000220387 1.33888e-07 0 0.000221265 -6.20592e-08 0 0.000221947 7.55461e-08 0 0.000222305 9.04257e-09 0 0.000222467 3.7668e-08 0 0.00022236 3.32197e-08 0 0.000222167 5.24292e-09 0 0.000221568 6.25074e-08 0 0.000221219 -4.27094e-08 0 0.000219822 1.2521e-07 0 0.000219868 -1.20688e-07 0 0.000216476 1.84789e-07 0 0.000218738 -6.68429e-08 0 0.000209128 -3.00872e-07 0 0.000219381 1.60136e-06 0 0.000189098 -5.46556e-06 0 0.000219838 1.93775e-05 0 0.000130018 -9.28901e-05 0 -0.00105995 0.000954801 0 -0.0103766 0.0101428 0 -0.0141592 -0.000929138 0 -0.0129112 0.000129215 0 -0.0141397 -4.00432e-05 0 -0.0137298 4.32553e-05 0 -0.0144535 2.55318e-05 0 -0.0145432 2.85056e-05 0 -0.0149374 2.42646e-05 0 -0.0150908 1.82144e-05 0 -0.0152968 1.47463e-05 0 -0.0154049 1.01038e-05 0 -0.0155054 7.45285e-06 0 -0.0155637 4.8222e-06 0 -0.0156081 3.20821e-06 0 -0.0156336 1.87128e-06 0 -0.0156495 9.98167e-07 0 -0.0156563 3.28362e-07 0 -0.0156575 -1.63221e-07 0 -0.0156534 -5.42884e-07 0 -0.0156456 -9.02211e-07 0 -0.0156332 -1.17213e-06 0 -0.015619 -1.54635e-06 0 -0.0155975 -1.75605e-06 0 -0.0155792 -2.25838e-06 0 -0.0155419 -2.36402e-06 0 -0.0155285 -3.34585e-06 0 -0.0154479 -2.98476e-06 0 -0.0154717 -7.04567e-06 0 -0.0152318 -2.94009e-06 0 -0.0153502 -3.43559e-05 0 -0.014507 4.74025e-06 0 -0.00255532 -0.00221716 0 </DataArray> 
</PointData> 
<Points> 
<DataArray type="Float32" NumberOfComponents="3"> 