<?xml version="1.0"?> 
<VTKFile type="StructuredGrid" version="0.1"> 
<StructuredGrid WholeExtent="0 31 0 31 0 0"> 
<Piece Extent="0 31 0 31 0 0"> 
<PointData>
<DataArray type="Float32" Name="B" format="ascii" NumberOfComponents="3"> 
8.98616e-06 -0 0 9.4188e-06 -0 0 9.84139e-06 -0 0 1.02515e-05 -0 0 1.06469e-05 -0 0 1.10258e-05 -0 0 1.13867e-05 -0 0 1.17282e-05 -0 0 1.20496e-05 -0 0 1.23499e-05 -0 0 1.26288e-05 -0 0 1.28858e-05 -0 0 1.31205e-05 -0 0 1.33326e-05 -0 0 1.35217e-05 -0 0 1.36874e-05 -0 0 1.38291e-05 -0 0 1.3946e-05 -0 0 1.40373e-05 -0 0 1.41019e-05 -0 0 1.41388e-05 -0 0 1.41467e-05 -0 0 1.41245e-05 -0 0 1.40709e-05 -0 0 1.39848e-05 -0 0 1.38652e-05 -0 0 1.37117e-05 -0 0 1.35237e-05 -0 0 1.33014e-05 -0 0 1.30453e-05 -0 0 1.27564e-05 -0 0 1.24362e-05 -0 0 8.98985e-06 -4.3725e-07 0 9.42384e-06 -4.2848e-07 0 9.84766e-06 -4.17123e-07 0 1.02589e-05 -4.0344e-07 0 1.06552e-05 -3.87736e-07 0 1.10349e-05 -3.70335e-07 0 1.13964e-05 -3.51558e-07 0 1.17384e-05 -3.31706e-07 0 1.206e-05 -3.11038e-07 0 1.23607e-05 -2.89765e-07 0 1.26397e-05 -2.6804e-07 0 1.28969e-05 -2.45954e-07 0 1.31318e-05 -2.2354e-07 0 1.33441e-05 -2.00776e-07 0 1.35335e-05 -1.77596e-07 0 1.36994e-05 -1.53895e-07 0 1.38415e-05 -1.29544e-07 0 1.39588e-05 -1.04397e-07 0 1.40506e-05 -7.83113e-08 0 1.41158e-05 -5.11557e-08 0 1.41533e-05 -2.28267e-08 0 1.41618e-05 6.73673e-09 0 1.41402e-05 3.75401e-08 0 1.40871e-05 6.95211e-08 0 1.40015e-05 1.02541e-07 0 1.38823e-05 1.3638e-07 0 1.37289e-05 1.70739e-07 0 1.35409e-05 2.05244e-07 0 1.33183e-05 2.39462e-07 0 1.30617e-05 2.72916e-07 0 1.2772e-05 3.0511e-07 0 1.24509e-05 3.35558e-07 0 9.00101e-06 -8.77307e-07 0 9.43908e-06 -8.59561e-07 0 9.86662e-06 -8.36578e-07 0 1.02811e-05 -8.08903e-07 0 1.06802e-05 -7.77168e-07 0 1.10622e-05 -7.42041e-07 0 1.14255e-05 -7.04186e-07 0 1.17689e-05 -6.64218e-07 0 1.20916e-05 -6.22671e-07 0 1.2393e-05 -5.79973e-07 0 1.26726e-05 -5.36431e-07 0 1.29303e-05 -4.92226e-07 0 1.31656e-05 -4.4742e-07 0 1.33785e-05 -4.01963e-07 0 1.35685e-05 -3.55709e-07 0 1.37354e-05 -3.08439e-07 0 1.38785e-05 -2.59882e-07 0 1.39971e-05 -2.09735e-07 0 1.40904e-05 -1.57697e-07 0 1.41573e-05 -1.03492e-07 0 1.41967e-05 -4.68974e-08 0 1.42071e-05 1.22221e-08 0 1.41874e-05 7.38896e-08 0 1.4136e-05 1.3799e-07 0 1.40518e-05 2.04249e-07 0 1.39337e-05 2.72229e-07 0 1.37808e-05 3.41322e-07 0 1.35927e-05 4.10769e-07 0 1.33694e-05 4.79683e-07 0 1.31112e-05 5.47092e-07 0 1.28193e-05 6.11976e-07 0 1.24952e-05 6.73338e-07 0 9.0199e-06 -1.32306e-06 0 9.46489e-06 -1.2959e-06 0 9.89872e-06 -1.26074e-06 0 1.03187e-05 -1.21843e-06 0 1.07225e-05 -1.16999e-06 0 1.11083e-05 -1.11647e-06 0 1.14746e-05 -1.05891e-06 0 1.18202e-05 -9.98292e-07 0 1.21445e-05 -9.35436e-07 0 1.24471e-05 -8.71004e-07 0 1.27276e-05 -8.05463e-07 0 1.29859e-05 -7.39082e-07 0 1.3222e-05 -6.71937e-07 0 1.34357e-05 -6.03933e-07 0 1.36268e-05 -5.34829e-07 0 1.37951e-05 -4.64267e-07 0 1.394e-05 -3.91808e-07 0 1.40608e-05 -3.16969e-07 0 1.41566e-05 -2.3926e-07 0 1.42265e-05 -1.58231e-07 0 1.42689e-05 -7.35122e-08 0 1.42826e-05 1.51362e-08 0 1.42661e-05 1.0778e-07 0 1.42177e-05 2.0427e-07 0 1.41361e-05 3.0421e-07 0 1.40198e-05 4.06939e-07 0 1.3868e-05 5.1153e-07 0 1.36799e-05 6.16811e-07 0 1.34553e-05 7.21405e-07 0 1.31947e-05 8.23793e-07 0 1.28989e-05 9.22383e-07 0 1.25697e-05 1.01562e-06 0 9.04698e-06 -1.77754e-06 0 9.50191e-06 -1.74029e-06 0 9.94472e-06 -1.69206e-06 0 1.03725e-05 -1.63411e-06 0 1.07829e-05 -1.56789e-06 0 1.1174e-05 -1.49492e-06 0 1.15443e-05 -1.41669e-06 0 1.18929e-05 -1.33457e-06 0 1.22193e-05 -1.24974e-06 0 1.25232e-05 -1.16311e-06 0 1.28047e-05 -1.0753e-06 0 1.30638e-05 -9.86672e-07 0 1.33007e-05 -8.97287e-07 0 1.35154e-05 -8.06984e-07 0 1.37079e-05 -7.15392e-07 0 1.38781e-05 -6.21983e-07 0 1.40255e-05 -5.26114e-07 0 1.41494e-05 -4.27079e-07 0 1.42489e-05 -3.24158e-07 0 1.43229e-05 -2.16682e-07 0 1.43699e-05 -1.04086e-07 0 1.43884e-05 1.40186e-08 0 1.43767e-05 1.37783e-07 0 1.43328e-05 2.67056e-07 0 1.4255e-05 4.01337e-07 0 1.41417e-05 5.39746e-07 0 1.39915e-05 6.81014e-07 0 1.38035e-05 8.23515e-07 0 1.35774e-05 9.65322e-07 0 1.33133e-05 1.10429e-06 0 1.30121e-05 1.23818e-06 0 1.26757e-05 1.36478e-06 0 9.08296e-06 -2.24405e-06 0 9.55111e-06 -2.1957e-06 0 1.00058e-05 -2.13314e-06 0 1.04439e-05 -2.05808e-06 0 1.08627e-05 -1.97254e-06 0 1.12605e-05 -1.8786e-06 0 1.16358e-05 -1.77831e-06 0 1.19879e-05 -1.67352e-06 0 1.23165e-05 -1.5658e-06 0 1.26218e-05 -1.45634e-06 0 1.29041e-05 -1.34593e-06 0 1.31639e-05 -1.23497e-06 0 1.34015e-05 -1.12352e-06 0 1.36173e-05 -1.0113e-06 0 1.38114e-05 -8.97754e-07 0 1.39839e-05 -7.82149e-07 0 1.41344e-05 -6.63585e-07 0 1.42623e-05 -5.4108e-07 0 1.43666e-05 -4.1363e-07 0 1.44462e-05 -2.80281e-07 0 1.44994e-05 -1.40209e-07 0 1.45245e-05 7.19096e-09 0 1.45193e-05 1.62217e-07 0 1.44817e-05 3.24768e-07 0 1.44095e-05 4.94272e-07 0 1.43005e-05 6.69632e-07 0 1.41529e-05 8.49215e-07 0 1.39655e-05 1.03088e-06 0 1.37375e-05 1.21206e-06 0 1.3469e-05 1.38988e-06 0 1.31608e-05 1.56131e-06 0 1.28148e-05 1.72338e-06 0 9.12879e-06 -2.72622e-06 0 9.61384e-06 -2.66542e-06 0 1.00836e-05 -2.58675e-06 0 1.05345e-05 -2.49256e-06 0 1.09638e-05 -2.38556e-06 0 1.13695e-05 -2.26859e-06 0 1.17505e-05 -2.14438e-06 0 1.21063e-05 -2.01535e-06 0 1.24371e-05 -1.88354e-06 0 1.27435e-05 -1.75045e-06 0 1.30262e-05 -1.61703e-06 0 1.32861e-05 -1.48372e-06 0 1.35241e-05 -1.35049e-06 0 1.37407e-05 -1.21689e-06 0 1.39365e-05 -1.08215e-06 0 1.41116e-05 -9.45259e-07 0 1.42659e-05 -8.04994e-07 0 1.43987e-05 -6.60036e-07 0 1.45091e-05 -5.09023e-07 0 1.45958e-05 -3.50639e-07 0 1.46571e-05 -1.83713e-07 0 1.46908e-05 -7.32946e-09 0 1.46945e-05 1.79046e-07 0 1.46654e-05 3.75441e-07 0 1.46008e-05 5.81261e-07 0 1.44979e-05 7.95211e-07 0 1.43543e-05 1.01526e-06 0 1.41682e-05 1.23868e-06 0 1.39383e-05 1.46213e-06 0 1.36645e-05 1.68185e-06 0 1.33476e-05 1.89386e-06 0 1.29893e-05 2.09424e-06 0 9.18584e-06 -3.22825e-06 0 9.69199e-06 -3.15311e-06 0 1.01804e-05 -3.05593e-06 0 1.06469e-05 -2.93986e-06 0 1.10886e-05 -2.80856e-06 0 1.15034e-05 -2.66579e-06 0 1.18905e-05 -2.51517e-06 0 1.22499e-05 -2.35988e-06 0 1.25822e-05 -2.20248e-06 0 1.28888e-05 -2.0448e-06 0 1.3171e-05 -1.88794e-06 0 1.34302e-05 -1.73232e-06 0 1.36679e-05 -1.57776e-06 0 1.3885e-05 -1.42357e-06 0 1.40823e-05 -1.26868e-06 0 1.42602e-05 -1.11172e-06 0 1.44187e-05 -9.51089e-07 0 1.45573e-05 -7.85053e-07 0 1.46752e-05 -6.1181e-07 0 1.47708e-05 -4.29583e-07 0 1.48423e-05 -2.36739e-07 0 1.48871e-05 -3.19272e-08 0 1.49023e-05 1.85751e-07 0 1.48846e-05 4.16568e-07 0 1.48304e-05 6.59995e-07 0 1.47361e-05 9.14572e-07 0 1.45984e-05 1.17784e-06 0 1.44148e-05 1.44637e-06 0 1.41833e-05 1.7159e-06 0 1.39034e-05 1.98154e-06 0 1.35758e-05 2.23812e-06 0 1.32024e-05 2.48054e-06 0 9.25579e-06 -3.75496e-06 0 9.78804e-06 -3.66299e-06 0 1.02992e-05 -3.54406e-06 0 1.07844e-05 -3.40243e-06 0 1.12404e-05 -3.24298e-06 0 1.16652e-05 -3.07076e-06 0 1.20584e-05 -2.89054e-06 0 1.24205e-05 -2.70641e-06 0 1.27532e-05 -2.52156e-06 0 1.30585e-05 -2.3382e-06 0 1.33387e-05 -2.15751e-06 0 1.3596e-05 -1.97979e-06 0 1.38322e-05 -1.80459e-06 0 1.4049e-05 -1.63091e-06 0 1.42474e-05 -1.45725e-06 0 1.44281e-05 -1.28182e-06 0 1.45913e-05 -1.10258e-06 0 1.47367e-05 -9.17282e-07 0 1.48634e-05 -7.23603e-07 0 1.49699e-05 -5.19191e-07 0 1.5054e-05 -3.01807e-07 0 1.51129e-05 -6.9498e-08 0 1.5143e-05 1.79184e-07 0 1.51403e-05 4.44928e-07 0 1.51001e-05 7.27412e-07 0 1.50177e-05 1.02508e-06 0 1.48887e-05 1.33502e-06 0 1.47093e-05 1.65297e-06 0 1.44769e-05 1.9735e-06 0 1.41902e-05 2.29031e-06 0 1.38498e-05 2.59665e-06 0 1.34581e-05 2.88593e-06 0 9.34125e-06 -4.31216e-06 0 9.90542e-06 -4.20004e-06 0 1.0444e-05 -4.05501e-06 0 1.09514e-05 -3.88283e-06 0 1.14236e-05 -3.69012e-06 0 1.18589e-05 -3.48363e-06 0 1.22573e-05 -3.26966e-06 0 1.26206e-05 -3.05347e-06 0 1.29516e-05 -2.839e-06 0 1.32533e-05 -2.62878e-06 0 1.35293e-05 -2.42398e-06 0 1.37826e-05 -2.22462e-06 0 1.40159e-05 -2.02985e-06 0 1.42312e-05 -1.83815e-06 0 1.44301e-05 -1.64755e-06 0 1.46134e-05 -1.45572e-06 0 1.47817e-05 -1.2601e-06 0 1.49347e-05 -1.05789e-06 0 1.50717e-05 -8.46148e-07 0 1.51912e-05 -6.21817e-07 0 1.52908e-05 -3.81884e-07 0 1.53673e-05 -1.23569e-07 0 1.54166e-05 1.55382e-07 0 1.54334e-05 4.56342e-07 0 1.5412e-05 7.79416e-07 0 1.53461e-05 1.12308e-06 0 1.52296e-05 1.48398e-06 0 1.50572e-05 1.85685e-06 0 1.4825e-05 2.23475e-06 0 1.45311e-05 2.60953e-06 0 1.41756e-05 2.9724e-06 0 1.37614e-05 3.31477e-06 0 9.44493e-06 -4.90714e-06 0 1.00486e-05 -4.77024e-06 0 1.06206e-05 -4.59323e-06 0 1.11538e-05 -4.38379e-06 0 1.1644e-05 -4.15094e-06 0 1.20896e-05 -3.90384e-06 0 1.24917e-05 -3.65078e-06 0 1.28534e-05 -3.39856e-06 0 1.31792e-05 -3.15197e-06 0 1.3474e-05 -2.91376e-06 0 1.37426e-05 -2.68486e-06 0 1.39893e-05 -2.46477e-06 0 1.42175e-05 -2.25196e-06 0 1.44299e-05 -2.04425e-06 0 1.46282e-05 -1.83902e-06 0 1.48138e-05 -1.63337e-06 0 1.49873e-05 -1.42417e-06 0 1.51487e-05 -1.20802e-06 0 1.52975e-05 -9.81283e-07 0 1.54322e-05 -7.40084e-07 0 1.55505e-05 -4.80428e-07 0 1.56489e-05 -1.98423e-07 0 1.57224e-05 1.09357e-07 0 1.57648e-05 4.45368e-07 0 1.57685e-05 8.10509e-07 0 1.57253e-05 1.20355e-06 0 1.56266e-05 1.6207e-06 0 1.54652e-05 2.05547e-06 0 1.52353e-05 2.49903e-06 0 1.49338e-05 2.94067e-06 0 1.45606e-05 3.36887e-06 0 1.4119e-05 3.77238e-06 0 9.5719e-06 -5.54833e-06 0 1.02239e-05 -5.38109e-06 0 1.08362e-05 -5.16404e-06 0 1.13999e-05 -4.90819e-06 0 1.19095e-05 -4.62592e-06 0 1.23642e-05 -4.32967e-06 0 1.27664e-05 -4.03072e-06 0 1.31219e-05 -3.73768e-06 0 1.34375e-05 -3.45625e-06 0 1.37205e-05 -3.18918e-06 0 1.39775e-05 -2.93676e-06 0 1.42142e-05 -2.69751e-06 0 1.44347e-05 -2.4689e-06 0 1.46422e-05 -2.24781e-06 0 1.48388e-05 -2.03087e-06 0 1.5026e-05 -1.81455e-06 0 1.52046e-05 -1.59515e-06 0 1.5375e-05 -1.3687e-06 0 1.55369e-05 -1.13086e-06 0 1.56892e-05 -8.76819e-07 0 1.58298e-05 -6.01396e-07 0 1.5955e-05 -2.99211e-07 0 1.60591e-05 3.48393e-08 0 1.61345e-05 4.04905e-07 0 1.61718e-05 8.13275e-07 0 1.61596e-05 1.25944e-06 0 1.60868e-05 1.73932e-06 0 1.59422e-05 2.24507e-06 0 1.57178e-05 2.76506e-06 0 1.54087e-05 3.28528e-06 0 1.50146e-05 3.79033e-06 0 1.45394e-05 4.26534e-06 0 9.72598e-06 -6.24874e-06 0 1.04394e-05 -6.0419e-06 0 1.11014e-05 -5.77398e-06 0 1.17005e-05 -5.45906e-06 0 1.22306e-05 -5.11453e-06 0 1.26915e-05 -4.75798e-06 0 1.30889e-05 -4.40422e-06 0 1.34308e-05 -4.06467e-06 0 1.37288e-05 -3.74576e-06 0 1.39932e-05 -3.44967e-06 0 1.42331e-05 -3.17531e-06 0 1.44554e-05 -2.91954e-06 0 1.46652e-05 -2.67829e-06 0 1.48658e-05 -2.44721e-06 0 1.50593e-05 -2.22207e-06 0 1.52472e-05 -1.99875e-06 0 1.54306e-05 -1.7731e-06 0 1.56101e-05 -1.5407e-06 0 1.57862e-05 -1.29655e-06 0 1.59583e-05 -1.03491e-06 0 1.61247e-05 -7.49162e-07 0 1.62821e-05 -4.32024e-07 0 1.64245e-05 -7.59971e-08 0 1.65428e-05 3.25661e-07 0 1.66247e-05 7.77631e-07 0 1.66557e-05 1.28095e-06 0 1.66188e-05 1.83167e-06 0 1.64997e-05 2.41986e-06 0 1.62856e-05 3.03071e-06 0 1.59694e-05 3.64507e-06 0 1.55502e-05 4.24223e-06 0 1.50334e-05 4.80241e-06 0 9.91776e-06 -7.02014e-06 0 1.07069e-05 -6.76558e-06 0 1.14301e-05 -6.43119e-06 0 1.20713e-05 -6.03948e-06 0 1.26218e-05 -5.61507e-06 0 1.30836e-05 -5.18228e-06 0 1.3465e-05 -4.76276e-06 0 1.37828e-05 -4.37029e-06 0 1.40522e-05 -4.0119e-06 0 1.42889e-05 -3.68809e-06 0 1.45047e-05 -3.39511e-06 0 1.47079e-05 -3.12702e-06 0 1.49037e-05 -2.87751e-06 0 1.50952e-05 -2.6407e-06 0 1.52841e-05 -2.41145e-06 0 1.54717e-05 -2.18524e-06 0 1.56591e-05 -1.95772e-06 0 1.58476e-05 -1.7243e-06 0 1.60381e-05 -1.47959e-06 0 1.62315e-05 -1.21696e-06 0 1.64272e-05 -9.28282e-07 0 1.66227e-05 -6.03828e-07 0 1.68123e-05 -2.32817e-07 0 1.69856e-05 1.95502e-07 0 1.71275e-05 6.898e-07 0 1.72176e-05 1.2541e-06 0 1.72343e-05 1.88513e-06 0 1.7153e-05 2.57159e-06 0 1.69566e-05 3.2925e-06 0 1.66342e-05 4.02216e-06 0 1.61845e-05 4.73187e-06 0 1.56151e-05 5.39456e-06 0 1.01505e-05 -7.89155e-06 0 1.10413e-05 -7.56809e-06 0 1.18433e-05 -7.14666e-06 0 1.25337e-05 -6.65276e-06 0 1.31036e-05 -6.12267e-06 0 1.35558e-05 -5.59345e-06 0 1.39094e-05 -5.0929e-06 0 1.41848e-05 -4.6407e-06 0 1.44105e-05 -4.2427e-06 0 1.46073e-05 -3.8954e-06 0 1.47908e-05 -3.58994e-06 0 1.49698e-05 -3.31604e-06 0 1.51488e-05 -3.06418e-06 0 1.53296e-05 -2.82673e-06 0 1.55128e-05 -2.59784e-06 0 1.56989e-05 -2.37298e-06 0 1.58892e-05 -2.14811e-06 0 1.60852e-05 -1.91899e-06 0 1.62895e-05 -1.68027e-06 0 1.65045e-05 -1.42481e-06 0 1.67318e-05 -1.14296e-06 0 1.69711e-05 -8.22195e-07 0 1.72178e-05 -4.47241e-07 0 1.74617e-05 -1.43132e-09 0 1.76836e-05 5.30683e-07 0 1.78574e-05 1.15897e-06 0 1.79473e-05 1.88303e-06 0 1.7923e-05 2.68717e-06 0 1.77551e-05 3.54538e-06 0 1.74279e-05 4.41939e-06 0 1.69396e-05 5.26924e-06 0 1.63019e-05 6.05844e-06 0 1.04483e-05 -8.87317e-06 0 1.1466e-05 -8.47561e-06 0 1.23683e-05 -7.93497e-06 0 1.31205e-05 -7.30199e-06 0 1.37047e-05 -6.62982e-06 0 1.41304e-05 -5.9708e-06 0 1.44229e-05 -5.37263e-06 0 1.46314e-05 -4.85539e-06 0 1.47906e-05 -4.42199e-06 0 1.49328e-05 -4.06058e-06 0 1.5075e-05 -3.75345e-06 0 1.52258e-05 -3.48331e-06 0 1.53865e-05 -3.23676e-06 0 1.55561e-05 -3.0044e-06 0 1.57331e-05 -2.78031e-06 0 1.59168e-05 -2.56066e-06 0 1.6108e-05 -2.34259e-06 0 1.63093e-05 -2.12296e-06 0 1.65247e-05 -1.89728e-06 0 1.67593e-05 -1.65854e-06 0 1.70184e-05 -1.39609e-06 0 1.73054e-05 -1.09442e-06 0 1.76197e-05 -7.32751e-07 0 1.79522e-05 -2.85533e-07 0 1.82823e-05 2.73766e-07 0 1.85718e-05 9.65712e-07 0 1.87775e-05 1.79534e-06 0 1.88387e-05 2.74869e-06 0 1.87157e-05 3.78146e-06 0 1.83848e-05 4.84138e-06 0 1.78458e-05 5.86943e-06 0 1.7118e-05 6.81371e-06 0 1.08045e-05 -1.00473e-05 0 1.20078e-05 -9.51814e-06 0 1.30499e-05 -8.8191e-06 0 1.38773e-05 -7.9914e-06 0 1.44689e-05 -7.11821e-06 0 1.4836e-05 -6.29136e-06 0 1.50396e-05 -5.56778e-06 0 1.5135e-05 -4.98342e-06 0 1.51984e-05 -4.5283e-06 0 1.52675e-05 -4.17186e-06 0 1.53619e-05 -3.88054e-06 0 1.54831e-05 -3.62781e-06 0 1.56271e-05 -3.39569e-06 0 1.57873e-05 -3.1742e-06 0 1.59588e-05 -2.95847e-06 0 1.61392e-05 -2.74674e-06 0 1.63288e-05 -2.53839e-06 0 1.65312e-05 -2.33256e-06 0 1.67525e-05 -2.1267e-06 0 1.70014e-05 -1.91519e-06 0 1.7288e-05 -1.68744e-06 0 1.76229e-05 -1.42588e-06 0 1.80126e-05 -1.10337e-06 0 1.84553e-05 -6.82708e-07 0 1.89287e-05 -1.18783e-07 0 1.93888e-05 6.30889e-07 0 1.97499e-05 1.5875e-06 0 1.9942e-05 2.72447e-06 0 1.98879e-05 3.99112e-06 0 1.95538e-05 5.2962e-06 0 1.8943e-05 6.55467e-06 0 1.80899e-05 7.69742e-06 0 1.12763e-05 -1.13846e-05 0 1.27132e-05 -1.07598e-05 0 1.39451e-05 -9.83234e-06 0 1.48811e-05 -8.72583e-06 0 1.54634e-05 -7.56509e-06 0 1.57166e-05 -6.48358e-06 0 1.57223e-05 -5.61634e-06 0 1.56454e-05 -4.97974e-06 0 1.55691e-05 -4.53592e-06 0 1.55504e-05 -4.219e-06 0 1.55949e-05 -3.97089e-06 0 1.56926e-05 -3.75286e-06 0 1.58264e-05 -3.54496e-06 0 1.59824e-05 -3.33869e-06 0 1.6151e-05 -3.13284e-06 0 1.63275e-05 -2.92936e-06 0 1.65122e-05 -2.73142e-06 0 1.67094e-05 -2.54167e-06 0 1.69279e-05 -2.36099e-06 0 1.71804e-05 -2.18683e-06 0 1.7484e-05 -2.01111e-06 0 1.78585e-05 -1.81625e-06 0 1.83252e-05 -1.57094e-06 0 1.88957e-05 -1.22313e-06 0 1.95623e-05 -6.99607e-07 0 2.02626e-05 8.13909e-08 0 2.09013e-05 1.17366e-06 0 2.12984e-05 2.57489e-06 0 2.13481e-05 4.15987e-06 0 2.10031e-05 5.80076e-06 0 2.02859e-05 7.36267e-06 0 1.92571e-05 8.74517e-06 0 1.18092e-05 -1.3162e-05 0 1.3625e-05 -1.22607e-05 0 1.51536e-05 -1.10394e-05 0 1.62438e-05 -9.52186e-06 0 1.68034e-05 -7.90875e-06 0 1.68377e-05 -6.48883e-06 0 1.65632e-05 -5.4235e-06 0 1.61893e-05 -4.7768e-06 0 1.59312e-05 -4.41837e-06 0 1.58175e-05 -4.20178e-06 0 1.58277e-05 -4.03377e-06 0 1.59186e-05 -3.87004e-06 0 1.60571e-05 -3.69354e-06 0 1.62184e-05 -3.5034e-06 0 1.63885e-05 -3.30494e-06 0 1.65611e-05 -3.10638e-06 0 1.67362e-05 -2.91594e-06 0 1.69197e-05 -2.74119e-06 0 1.71225e-05 -2.58777e-06 0 1.73617e-05 -2.45868e-06 0 1.76613e-05 -2.35132e-06 0 1.80544e-05 -2.25408e-06 0 1.85811e-05 -2.13635e-06 0 1.9288e-05 -1.93725e-06 0 2.01962e-05 -1.54452e-06 0 2.12714e-05 -7.90324e-07 0 2.22881e-05 4.77582e-07 0 2.30151e-05 2.21597e-06 0 2.32128e-05 4.2809e-06 0 2.28338e-05 6.38934e-06 0 2.1942e-05 8.351e-06 0 2.06524e-05 1.00505e-05 0 1.25393e-05 -1.51096e-05 0 1.4825e-05 -1.42021e-05 0 1.67882e-05 -1.25424e-05 0 1.81692e-05 -1.04205e-05 0 1.87015e-05 -8.09417e-06 0 1.83099e-05 -6.00281e-06 0 1.7324e-05 -4.77497e-06 0 1.65019e-05 -4.29295e-06 0 1.60294e-05 -4.17036e-06 0 1.58593e-05 -4.14262e-06 0 1.5876e-05 -4.09796e-06 0 1.59964e-05 -4.00179e-06 0 1.6163e-05 -3.85713e-06 0 1.63437e-05 -3.67658e-06 0 1.65213e-05 -3.4773e-06 0 1.66896e-05 -3.27503e-06 0 1.68496e-05 -3.08458e-06 0 1.70083e-05 -2.9188e-06 0 1.71787e-05 -2.7896e-06 0 1.73805e-05 -2.70696e-06 0 1.76439e-05 -2.67908e-06 0 1.80127e-05 -2.70639e-06 0 1.85543e-05 -2.77591e-06 0 1.93591e-05 -2.83345e-06 0 2.05457e-05 -2.74315e-06 0 2.21597e-05 -2.21315e-06 0 2.40022e-05 -8.26464e-07 0 2.52979e-05 1.56535e-06 0 2.56763e-05 4.35899e-06 0 2.51795e-05 7.13931e-06 0 2.39987e-05 9.62447e-06 0 2.23302e-05 1.16648e-05 0 1.32342e-05 -1.82351e-05 0 1.63419e-05 -1.66875e-05 0 1.90379e-05 -1.45624e-05 0 2.09407e-05 -1.15799e-05 0 2.16099e-05 -7.98909e-06 0 2.04268e-05 -4.7326e-06 0 1.7982e-05 -3.34365e-06 0 1.65153e-05 -3.47417e-06 0 1.59384e-05 -3.85132e-06 0 1.58248e-05 -4.11621e-06 0 1.59373e-05 -4.21628e-06 0 1.61399e-05 -4.18516e-06 0 1.6367e-05 -4.05615e-06 0 1.65829e-05 -3.86884e-06 0 1.67739e-05 -3.65206e-06 0 1.69364e-05 -3.43181e-06 0 1.70742e-05 -3.22814e-06 0 1.71956e-05 -3.05987e-06 0 1.73141e-05 -2.94404e-06 0 1.74498e-05 -2.90033e-06 0 1.76329e-05 -2.94802e-06 0 1.79143e-05 -3.11306e-06 0 1.83742e-05 -3.41117e-06 0 1.91601e-05 -3.85269e-06 0 2.05184e-05 -4.35691e-06 0 2.28757e-05 -4.52924e-06 0 2.63167e-05 -3.05657e-06 0 2.85731e-05 4.53398e-07 0 2.9027e-05 4.5136e-06 0 2.82157e-05 8.20029e-06 0 2.65368e-05 1.13295e-05 0 2.42978e-05 1.3839e-05 0 1.42126e-05 -2.10883e-05 0 1.82652e-05 -2.02202e-05 0 2.2005e-05 -1.74261e-05 0 2.49629e-05 -1.33185e-05 0 2.63771e-05 -8.12869e-06 0 2.48945e-05 -7.98414e-07 0 2.0278e-05 -5.10552e-07 0 1.89206e-05 -2.59751e-06 0 1.85923e-05 -3.68972e-06 0 1.88002e-05 -4.25202e-06 0 1.91145e-05 -4.47426e-06 0 1.94716e-05 -4.46157e-06 0 1.97872e-05 -4.31477e-06 0 2.0053e-05 -4.08825e-06 0 2.02594e-05 -3.83035e-06 0 2.04125e-05 -3.57106e-06 0 2.05195e-05 -3.33672e-06 0 2.05903e-05 -3.14798e-06 0 2.06382e-05 -3.02802e-06 0 2.06768e-05 -3.00048e-06 0 2.07358e-05 -3.10352e-06 0 2.08435e-05 -3.37767e-06 0 2.11031e-05 -3.90415e-06 0 2.15972e-05 -4.76368e-06 0 2.27695e-05 -6.11195e-06 0 2.51267e-05 -8.37258e-06 0 3.0893e-05 -8.12124e-06 0 3.36695e-05 -6.26356e-07 0 3.36297e-05 4.98975e-06 0 3.20856e-05 9.87267e-06 0 2.96344e-05 1.37125e-05 0 2.66009e-05 1.6541e-05 0 1.47483e-05 -2.7432e-05 0 2.0471e-05 -2.47733e-05 0 2.58507e-05 -2.16731e-05 0 3.03622e-05 -1.63711e-05 0 3.35995e-05 -9.50533e-06 0 3.5129e-05 8.70876e-07 0 3.5626e-05 8.28294e-07 0 3.59749e-05 -2.49143e-06 0 3.66451e-05 -4.03721e-06 0 3.73579e-05 -4.73398e-06 0 3.8022e-05 -4.95069e-06 0 3.85684e-05 -4.87421e-06 0 3.89976e-05 -4.6466e-06 0 3.93132e-05 -4.33898e-06 0 3.95314e-05 -4.00778e-06 0 3.96666e-05 -3.68549e-06 0 3.97327e-05 -3.39904e-06 0 3.97415e-05 -3.16895e-06 0 3.9702e-05 -3.01916e-06 0 3.96236e-05 -2.97567e-06 0 3.95138e-05 -3.08537e-06 0 3.93932e-05 -3.40474e-06 0 3.92868e-05 -4.05772e-06 0 3.9288e-05 -5.20372e-06 0 3.95164e-05 -7.17861e-06 0 4.02691e-05 -1.08558e-05 0 4.11018e-05 -1.11199e-05 0 4.11093e-05 -7.42435e-07 0 3.96085e-05 6.46629e-06 0 3.68856e-05 1.25011e-05 0 3.32791e-05 1.70179e-05 0 2.91406e-05 2.04513e-05 0 1.55714e-05 -3.08442e-05 0 2.30238e-05 -3.17227e-05 0 3.0427e-05 -2.76215e-05 0 3.71377e-05 -2.14214e-05 0 4.26327e-05 -1.31219e-05 0 4.6879e-05 -1.3599e-06 0 4.99297e-05 -6.87425e-07 0 5.23246e-05 -3.80473e-06 0 5.41412e-05 -5.18992e-06 0 5.55321e-05 -5.68489e-06 0 5.65638e-05 -5.69818e-06 0 5.73164e-05 -5.43608e-06 0 5.78441e-05 -5.05088e-06 0 5.81968e-05 -4.61212e-06 0 5.84105e-05 -4.17397e-06 0 5.85141e-05 -3.76394e-06 0 5.85279e-05 -3.4046e-06 0 5.84648e-05 -3.11154e-06 0 5.83309e-05 -2.90433e-06 0 5.81244e-05 -2.80499e-06 0 5.78363e-05 -2.8578e-06 0 5.74462e-05 -3.12054e-06 0 5.69291e-05 -3.72587e-06 0 5.62407e-05 -4.85924e-06 0 5.53482e-05 -6.89119e-06 0 5.4148e-05 -1.06193e-05 0 5.25911e-05 -1.04408e-05 0 5.019e-05 1.0611e-06 0 4.68331e-05 9.46531e-06 0 4.25305e-05 1.64352e-05 0 3.74695e-05 2.16841e-05 0 3.19407e-05 2.50225e-05 0 1.50856e-05 -4.55781e-05 0 2.56566e-05 -3.9922e-05 0 3.59106e-05 -3.62341e-05 0 4.50631e-05 -2.87053e-05 0 5.30079e-05 -1.92314e-05 0 5.9783e-05 -6.34951e-06 0 6.54322e-05 -4.50935e-06 0 6.95933e-05 -6.59963e-06 0 7.24853e-05 -7.1886e-06 0 7.44535e-05 -7.10726e-06 0 7.57913e-05 -6.69325e-06 0 7.66865e-05 -6.12e-06 0 7.72677e-05 -5.49941e-06 0 7.76193e-05 -4.88408e-06 0 7.78009e-05 -4.30921e-06 0 7.78526e-05 -3.79186e-06 0 7.78008e-05 -3.34331e-06 0 7.76601e-05 -2.97036e-06 0 7.74329e-05 -2.68216e-06 0 7.71087e-05 -2.48991e-06 0 7.66592e-05 -2.42218e-06 0 7.60317e-05 -2.518e-06 0 7.5134e-05 -2.87854e-06 0 7.38159e-05 -3.65246e-06 0 7.18375e-05 -5.16025e-06 0 6.89085e-05 -8.18213e-06 0 6.4906e-05 -7.22311e-06 0 6.02527e-05 4.95652e-06 0 5.50084e-05 1.41898e-05 0 4.89841e-05 2.20352e-05 0 4.2135e-05 2.78142e-05 0 3.47586e-05 3.22747e-05 0 1.43334e-05 -4.56295e-05 0 2.86323e-05 -5.37811e-05 0 4.2423e-05 -4.71918e-05 0 5.43866e-05 -3.85621e-05 0 6.44631e-05 -2.7684e-05 0 7.3792e-05 -1.39641e-05 0 8.25458e-05 -1.04934e-05 0 8.82063e-05 -1.06139e-05 0 9.17734e-05 -9.83042e-06 0 9.40382e-05 -8.8382e-06 0 9.54937e-05 -7.83299e-06 0 9.64103e-05 -6.84514e-06 0 9.69609e-05 -5.93837e-06 0 9.72544e-05 -5.1133e-06 0 9.73639e-05 -4.38576e-06 0 9.73376e-05 -3.75044e-06 0 9.7206e-05 -3.20639e-06 0 9.69847e-05 -2.74567e-06 0 9.66744e-05 -2.36481e-06 0 9.62591e-05 -2.05589e-06 0 9.56994e-05 -1.8255e-06 0 9.49219e-05 -1.6696e-06 0 9.37908e-05 -1.63342e-06 0 9.20792e-05 -1.74728e-06 0 8.93462e-05 -2.17991e-06 0 8.4885e-05 -3.63231e-06 0 7.78149e-05 -1.55493e-06 0 7.08534e-05 1.08343e-05 0 6.40187e-05 2.06175e-05 0 5.62963e-05 2.93707e-05 0 4.73735e-05 3.62844e-05 0 3.76435e-05 3.94023e-05 0 1.20464e-05 -8.54666e-05 0 3.23663e-05 -6.79112e-05 0 5.10375e-05 -6.2749e-05 0 6.5747e-05 -5.02701e-05 0 7.68037e-05 -3.74982e-05 0 8.68816e-05 -2.52801e-05 0 9.71642e-05 -1.85158e-05 0 0.000102859 -1.51401e-05 0 0.00010634 -1.26144e-05 0 0.000108437 -1.06088e-05 0 0.000109755 -8.92333e-06 0 0.000110526 -7.50261e-06 0 0.000110942 -6.28459e-06 0 0.000111106 -5.24909e-06 0 0.000111096 -4.36657e-06 0 0.000110962 -3.61926e-06 0 0.000110735 -2.98463e-06 0 0.000110432 -2.44329e-06 0 0.000110053 -1.97292e-06 0 0.000109585 -1.55049e-06 0 0.000108984 -1.14639e-06 0 0.000108186 -7.2405e-07 0 0.000107036 -2.26134e-07 0 0.000105342 4.30169e-07 0 0.00010254 1.4076e-06 0 9.78887e-05 3.04513e-06 0 8.91351e-05 7.80302e-06 0 8.14379e-05 1.77215e-05 0 7.40199e-05 2.83409e-05 0 6.49451e-05 3.8735e-05 0 5.35199e-05 4.67636e-05 0 4.04486e-05 5.37596e-05 0 3.84333e-06 -6.66953e-05 0 3.80254e-05 -9.86421e-05 0 6.46584e-05 -8.02582e-05 0 8.07023e-05 -6.34206e-05 0 9.06857e-05 -4.64719e-05 0 9.71846e-05 -3.35324e-05 0 0.000102284 -2.46283e-05 0 0.000105982 -1.88688e-05 0 0.000108403 -1.49577e-05 0 0.000109914 -1.20351e-05 0 0.000110813 -9.77736e-06 0 0.000111281 -7.94564e-06 0 0.000111451 -6.4576e-06 0 0.000111413 -5.22742e-06 0 0.000111234 -4.215e-06 0 0.000110961 -3.37377e-06 0 0.000110623 -2.6705e-06 0 0.000110236 -2.06867e-06 0 0.000109805 -1.53351e-06 0 0.000109318 -1.02337e-06 0 0.000108751 -4.86005e-07 0 0.000108049 1.56221e-07 0 0.000107129 1.02359e-06 0 0.000105818 2.3243e-06 0 0.000103878 4.42775e-06 0 0.000100882 8.05324e-06 0 9.69536e-05 1.43763e-05 0 9.21481e-05 2.40289e-05 0 8.58361e-05 3.63739e-05 0 7.62083e-05 4.96819e-05 0 6.15237e-05 6.21601e-05 0 4.27604e-05 6.43226e-05 0 3.6676e-06 -0.000192929 0 5.34983e-05 -0.000126185 0 8.75403e-05 -0.000105705 0 0.000103198 -7.32912e-05 0 0.000106771 -5.2015e-05 0 0.000108901 -3.72085e-05 0 0.000110057 -2.74897e-05 0 0.000111412 -2.09654e-05 0 0.00011232 -1.62993e-05 0 0.000112984 -1.28779e-05 0 0.000113273 -1.01838e-05 0 0.000113319 -8.07264e-06 0 0.000113149 -6.36289e-06 0 0.000112845 -4.99675e-06 0 0.000112451 -3.88882e-06 0 0.000112009 -2.99291e-06 0 0.000111544 -2.25349e-06 0 0.000111071 -1.6274e-06 0 0.000110595 -1.06653e-06 0 0.000110117 -5.2054e-07 0 0.000109629 7.78231e-08 0 0.000109117 8.22501e-07 0 0.000108561 1.86829e-06 0 0.000107929 3.46347e-06 0 0.000107189 6.04101e-06 0 0.000106326 1.02883e-05 0 0.000105329 1.71704e-05 0 0.00010402 2.77486e-05 0 0.000101132 4.27792e-05 0 9.2737e-05 6.26443e-05 0 7.43943e-05 8.10775e-05 0 4.62623e-05 9.90911e-05 0 -5.42106e-05 -0.00013447 0 9.04148e-05 -0.00021096 0 0.000138517 -0.000120197 0 0.000131443 -7.57019e-05 0 0.000126497 -4.97665e-05 0 0.000119662 -3.60989e-05 0 0.000118008 -2.73373e-05 0 0.000116523 -2.11415e-05 0 0.000116367 -1.65825e-05 0 0.000115963 -1.29281e-05 0 0.000115683 -1.00827e-05 0 0.000115186 -7.76699e-06 0 0.000114638 -5.95003e-06 0 0.000114004 -4.49686e-06 0 0.000113362 -3.35879e-06 0 0.000112723 -2.45227e-06 0 0.000112117 -1.72541e-06 0 0.00011155 -1.11878e-06 0 0.000111033 -5.83455e-07 0 0.000110571 -6.4118e-08 0 0.000110174 5.02233e-07 0 0.000109874 1.20713e-06 0 0.00010971 2.18643e-06 0 0.0001098 3.67224e-06 0 0.000110268 6.03559e-06 0 0.000111497 9.89798e-06 0 0.000113685 1.62609e-05 0 0.000117422 2.67462e-05 0 0.000120999 4.44561e-05 0 0.000120747 7.29243e-05 0 9.92446e-05 0.000114462 0 4.39816e-05 0.000123817 0 3.02843e-05 -0.000613183 0 0.00027705 -0.000285788 0 0.00019928 -0.000102593 0 0.000175841 -5.34691e-05 0 0.000133949 -3.81553e-05 0 0.000132433 -3.02895e-05 0 0.000122112 -2.47233e-05 0 0.000122585 -1.99483e-05 0 0.000119757 -1.58331e-05 0 0.000119531 -1.23068e-05 0 0.000118173 -9.37927e-06 0 0.00011738 -7.01523e-06 0 0.000116276 -5.14557e-06 0 0.000115337 -3.70038e-06 0 0.000114385 -2.58869e-06 0 0.000113543 -1.7385e-06 0 0.000112778 -1.07453e-06 0 0.000112115 -5.40565e-07 0 0.000111549 -8.11718e-08 0 0.00011109 3.47437e-07 0 0.000110769 7.98602e-07 0 0.000110614 1.32722e-06 0 0.000110794 2.02868e-06 0 0.000111348 3.03424e-06 0 0.000112948 4.59578e-06 0 0.000115435 7.11132e-06 0 0.000121214 1.14056e-05 0 0.000128729 1.903e-05 0 0.000145894 3.43483e-05 0 0.000163119 6.88936e-05 0 0.00017306 0.00015513 0 5.59422e-05 0.000258774 0 -0.00276053 -0.00756368 0 0.000570793 0.000544168 0 0.000471999 -7.70696e-05 0 4.40642e-05 2.13531e-05 0 0.000209724 -3.13022e-05 0 9.78637e-05 -1.95345e-05 0 0.000144914 -2.22339e-05 0 0.000117245 -1.80244e-05 0 0.000127928 -1.4454e-05 0 0.000120645 -1.11117e-05 0 0.000121796 -8.10518e-06 0 0.000119049 -5.75243e-06 0 0.000118093 -3.93503e-06 0 0.00011648 -2.55345e-06 0 0.000115341 -1.5732e-06 0 0.000114221 -8.28341e-07 0 0.000113325 -3.06126e-07 0 0.000112541 1.24135e-07 0 0.000111945 4.34149e-07 0 0.000111427 7.6613e-07 0 0.000111197 9.77273e-07 0 0.000110988 1.35325e-06 0 0.000111472 1.47409e-06 0 0.000112015 2.0295e-06 0 0.000114248 2.01716e-06 0 0.000117551 3.03527e-06 0 0.000123685 2.90926e-06 0 0.000138357 5.87394e-06 0 0.000153271 5.69459e-06 0 0.000223299 2.42871e-05 0 0.000369611 4.35394e-05 0 -0.000264028 0.00148292 0 </DataArray> 
</PointData> 
<Points> 
<DataArray type="Float32" NumberOfComponents="3"> 