<?xml version="1.0"?> 
<VTKFile type="StructuredGrid" version="0.1"> 
<StructuredGrid WholeExtent="0 31 0 31 0 0"> 
<Piece Extent="0 31 0 31 0 0"> 
<PointData>
<DataArray type="Float32" Name="B" format="ascii" NumberOfComponents="3"> 
0.0168778 0.0128752 0 0.0209512 -0.0013766 0 0.0195381 0.000189597 0 0.0202275 -6.21102e-05 0 0.0201515 5.61731e-05 0 0.0208739 3.17539e-05 0 0.0211643 3.48901e-05 0 0.0216426 3.08945e-05 0 0.0219066 2.19665e-05 0 0.0221767 1.85664e-05 0 0.0223404 1.20694e-05 0 0.0224751 9.20254e-06 0 0.0225578 5.67184e-06 0 0.0226167 3.85903e-06 0 0.022651 2.13974e-06 0 0.0226713 1.15573e-06 0 0.0226798 3.35608e-07 0 0.0226808 -2.03989e-07 0 0.0226751 -6.50279e-07 0 0.0226652 -1.02153e-06 0 0.0226493 -1.35109e-06 0 0.0226321 -1.69765e-06 0 0.0226045 -2.01096e-06 0 0.0225846 -2.4089e-06 0 0.0225349 -2.66381e-06 0 0.0225293 -3.53105e-06 0 0.0224162 -2.88276e-06 0 0.0224855 -8.12204e-06 0 0.0221445 9.10726e-07 0 0.0224291 -4.53784e-05 0 0.0213965 6.84257e-05 0 0.00558344 -0.00304046 0 0.000527449 0.0138669 0 -0.00109951 -0.00124019 0 -0.000728268 0.000191863 0 -0.000981565 -7.24849e-05 0 -0.000832105 1.25844e-05 0 -0.000937404 -7.07143e-06 0 -0.000909449 -2.96539e-06 0 -0.000950027 3.709e-07 0 -0.000952185 -2.37231e-06 0 -0.000969126 6.74678e-07 0 -0.000974918 -9.94273e-07 0 -0.000982435 3.83499e-07 0 -0.000986334 -3.15735e-07 0 -0.000989628 1.9433e-07 0 -0.000991516 -6.89112e-08 0 -0.000992757 9.51376e-08 0 -0.000993328 3.56886e-09 0 -0.000993493 4.07071e-08 0 -0.000993204 2.47327e-08 0 -0.000992752 1.77893e-09 0 -0.000991698 4.77907e-08 0 -0.000990979 -4.71675e-08 0 -0.000988754 9.99765e-08 0 -0.000988596 -1.22171e-07 0 -0.000983497 1.5101e-07 0 -0.000986719 -8.72875e-08 0 -0.000972622 -2.64512e-07 0 -0.000988564 1.31186e-06 0 -0.000944165 -4.6907e-06 0 -0.000995334 1.63377e-05 0 -0.000875438 -7.87349e-05 0 0.000846518 0.000758369 0 -0.00143494 0.0116817 0 0.000205819 -0.000982258 0 0.000103939 0.000138928 0 0.000120317 -6.5057e-05 0 0.000125984 5.76856e-06 0 0.000139218 -5.49367e-06 0 0.000139422 -4.66708e-06 0 0.00014582 1.15011e-06 0 0.000146683 -2.96344e-06 0 0.000149219 1.099e-06 0 0.000150074 -1.19217e-06 0 0.000151016 5.74691e-07 0 0.000151525 -3.69559e-07 0 0.000151866 2.6576e-07 0 0.00015209 -7.95547e-08 0 0.000152191 1.19779e-07 0 0.000152241 3.64954e-09 0 0.000152218 5.60274e-08 0 0.000152158 2.68675e-08 0 0.00015204 2.93335e-08 0 0.000151895 4.36041e-08 0 0.000151669 1.54577e-08 0 0.000151466 7.11581e-08 0 0.000151049 4.3839e-09 0 0.000150901 1.01196e-07 0 0.000149971 4.81897e-08 0 0.000150303 -6.50377e-09 0 0.000147688 6.27413e-07 0 0.000149644 -1.3482e-06 0 0.000141909 6.23732e-06 0 0.000143051 -2.81854e-05 0 -1.63179e-05 0.000347996 0 -0.000907134 0.00962893 0 2.24045e-05 -0.000739012 0 -1.3541e-05 0.000111971 0 -6.918e-05 -5.91693e-05 0 -3.4294e-05 3.11727e-06 0 -5.09514e-05 -6.14116e-06 0 -3.91962e-05 -3.73161e-06 0 -4.56241e-05 5.07516e-07 0 -4.22669e-05 -2.02783e-06 0 -4.47525e-05 8.5864e-07 0 -4.40645e-05 -6.43061e-07 0 -4.50338e-05 5.35896e-07 0 -4.50332e-05 -9.94545e-08 0 -4.54171e-05 2.84239e-07 0 -4.55097e-05 3.65419e-08 0 -4.56569e-05 1.37068e-07 0 -4.57091e-05 4.11014e-08 0 -4.57518e-05 5.68612e-08 0 -4.57528e-05 2.14495e-08 0 -4.57441e-05 1.33165e-08 0 -4.56997e-05 8.28169e-09 0 -4.56674e-05 -1.44585e-08 0 -4.55679e-05 7.02298e-09 0 -4.55481e-05 -3.98928e-08 0 -4.53269e-05 8.07106e-09 0 -4.54436e-05 -4.99637e-08 0 -4.4786e-05 -7.21098e-08 0 -4.55584e-05 1.41901e-07 0 -4.30143e-05 -8.66217e-07 0 -4.56405e-05 1.91791e-06 0 -4.00027e-05 -1.68003e-05 0 7.31974e-05 0.000140462 0 -0.000744428 0.00825955 0 6.55239e-05 -0.000643585 0 4.58312e-05 0.000111133 0 -3.38983e-06 -5.68556e-05 0 1.85319e-05 1.08558e-06 0 8.72453e-06 -6.98435e-06 0 1.7126e-05 -4.23204e-06 0 1.44523e-05 3.68122e-08 0 1.70118e-05 -2.18217e-06 0 1.62874e-05 6.85634e-07 0 1.69611e-05 -7.04994e-07 0 1.67511e-05 4.8818e-07 0 1.68885e-05 -1.25821e-07 0 1.68107e-05 2.76747e-07 0 1.68184e-05 2.78593e-08 0 1.678e-05 1.40935e-07 0 1.67649e-05 4.28403e-08 0 1.67403e-05 6.64165e-08 0 1.67243e-05 3.11813e-08 0 1.67006e-05 3.02067e-08 0 1.66873e-05 2.56652e-08 0 1.66508e-05 1.34936e-08 0 1.66475e-05 3.23997e-08 0 1.65751e-05 3.52477e-09 0 1.66084e-05 4.67141e-08 0 1.64515e-05 6.92382e-09 0 1.65961e-05 2.75952e-08 0 1.62563e-05 1.33762e-07 0 1.67692e-05 -3.79897e-07 0 1.6047e-05 9.67295e-07 0 1.48562e-05 -6.67932e-06 0 1.71151e-05 0.000105595 0 -0.000608859 0.00714306 0 2.29565e-05 -0.000545527 0 3.38918e-05 0.000105136 0 -1.85282e-05 -5.01302e-05 0 -3.96224e-07 -2.60855e-07 0 -1.16299e-05 -7.30664e-06 0 -4.5891e-06 -4.08138e-06 0 -7.51209e-06 -3.9173e-07 0 -5.55136e-06 -1.89903e-06 0 -6.38687e-06 5.1672e-07 0 -5.95094e-06 -5.25521e-07 0 -6.22263e-06 4.48601e-07 0 -6.16784e-06 -3.28081e-08 0 -6.27198e-06 2.76864e-07 0 -6.28797e-06 7.11665e-08 0 -6.33166e-06 1.4637e-07 0 -6.34817e-06 5.94151e-08 0 -6.36543e-06 6.79616e-08 0 -6.37246e-06 3.25597e-08 0 -6.37758e-06 2.7085e-08 0 -6.37603e-06 1.63289e-08 0 -6.37819e-06 7.34859e-09 0 -6.36478e-06 1.22134e-08 0 -6.37812e-06 -4.07139e-09 0 -6.3298e-06 1.15379e-08 0 -6.39275e-06 -7.96414e-09 0 -6.21786e-06 -3.48608e-08 0 -6.43066e-06 5.50776e-08 0 -5.79696e-06 -5.31817e-07 0 -6.59516e-06 6.27787e-07 0 -6.74846e-06 -6.21394e-06 0 1.52389e-05 6.68179e-05 0 -0.000532467 0.00623692 0 1.81912e-05 -0.000485412 0 4.18728e-05 0.000100289 0 -4.90252e-06 -4.35881e-05 0 8.7568e-06 -1.12138e-06 0 -1.89822e-06 -7.25013e-06 0 3.79699e-06 -4.27478e-06 0 1.30803e-06 -6.16888e-07 0 3.03582e-06 -1.9116e-06 0 2.39497e-06 4.19893e-07 0 2.86132e-06 -5.17002e-07 0 2.67922e-06 4.20584e-07 0 2.79059e-06 -2.64081e-08 0 2.7307e-06 2.71716e-07 0 2.75005e-06 7.51134e-08 0 2.72683e-06 1.4725e-07 0 2.72591e-06 6.25676e-08 0 2.71554e-06 7.0524e-08 0 2.71238e-06 3.63715e-08 0 2.70648e-06 3.09511e-08 0 2.70524e-06 2.18854e-08 0 2.69879e-06 1.32292e-08 0 2.70293e-06 2.00874e-08 0 2.68883e-06 4.75827e-09 0 2.71126e-06 2.24604e-08 0 2.67491e-06 9.83443e-10 0 2.76215e-06 -1.2141e-08 0 2.68197e-06 2.74402e-08 0 2.94143e-06 -3.88732e-07 0 2.50486e-06 5.15056e-07 0 2.27377e-06 -3.15047e-06 0 6.67776e-06 4.94929e-05 0 -0.000481949 0.00540375 0 5.26702e-06 -0.000420354 0 3.50672e-05 9.1212e-05 0 -4.49783e-06 -3.63291e-05 0 6.12446e-06 -1.43141e-06 0 -4.35231e-06 -6.96349e-06 0 3.13005e-08 -4.17037e-06 0 -2.44907e-06 -8.54284e-07 0 -1.08917e-06 -1.77773e-06 0 -1.7162e-06 2.87941e-07 0 -1.33644e-06 -4.40246e-07 0 -1.4931e-06 3.69886e-07 0 -1.39027e-06 9.43252e-09 0 -1.42611e-06 2.55454e-07 0 -1.39845e-06 9.04154e-08 0 -1.40532e-06 1.42809e-07 0 -1.39801e-06 6.83021e-08 0 -1.39894e-06 6.92312e-08 0 -1.39715e-06 3.73105e-08 0 -1.39732e-06 3.00159e-08 0 -1.39673e-06 1.97111e-08 0 -1.39767e-06 1.20729e-08 0 -1.39511e-06 1.47866e-08 0 -1.40043e-06 3.10114e-09 0 -1.38463e-06 1.20986e-08 0 -1.40888e-06 -5.02197e-09 0 -1.33114e-06 -3.53745e-08 0 -1.43295e-06 -7.28681e-10 0 -1.17957e-06 -4.16016e-07 0 -1.82406e-06 5.82626e-07 0 -1.76211e-06 -3.47406e-06 0 5.91192e-06 4.24244e-05 0 -0.000442209 0.00465875 0 2.22395e-06 -0.000366547 0 3.43469e-05 8.16394e-05 0 -3.9791e-07 -3.00092e-05 0 9.56235e-06 -1.34607e-06 0 -1.19718e-06 -6.43614e-06 0 2.56794e-06 -4.01798e-06 0 -1.10857e-07 -9.64383e-07 0 1.11686e-06 -1.68555e-06 0 4.48327e-07 2.01718e-07 0 8.31639e-07 -4.05623e-07 0 6.85226e-07 3.29916e-07 0 8.13411e-07 1.74499e-08 0 7.94955e-07 2.38782e-07 0 8.42035e-07 9.05485e-08 0 8.47316e-07 1.36286e-07 0 8.6549e-07 6.74652e-08 0 8.7092e-07 6.70501e-08 0 8.78164e-07 3.72113e-08 0 8.8066e-07 2.97614e-08 0 8.84628e-07 2.04619e-08 0 8.84516e-07 1.27922e-08 0 8.90235e-07 1.6103e-08 0 8.86329e-07 4.19577e-09 0 9.0248e-07 1.36588e-08 0 8.8936e-07 -7.18005e-09 0 9.42734e-07 -2.94107e-08 0 8.92566e-07 -2.38284e-08 0 1.00105e-06 -3.08981e-07 0 6.33321e-07 4.93398e-07 0 8.59312e-07 -2.22488e-06 0 4.14762e-06 3.14386e-05 0 -0.000415919 0.00395248 0 -2.47661e-06 -0.000311803 0 2.92769e-05 7.07193e-05 0 -2.75229e-07 -2.42583e-05 0 8.98514e-06 -1.07363e-06 0 -1.49303e-06 -5.76972e-06 0 1.45649e-06 -3.70456e-06 0 -1.32215e-06 -1.03319e-06 0 -3.78886e-07 -1.53587e-06 0 -1.06827e-06 1.1319e-07 0 -7.55295e-07 -3.54578e-07 0 -8.85601e-07 2.79789e-07 0 -7.61961e-07 2.85414e-08 0 -7.60194e-07 2.14203e-07 0 -7.03763e-07 9.02789e-08 0 -6.84217e-07 1.25143e-07 0 -6.57838e-07 6.55079e-08 0 -6.44396e-07 6.23567e-08 0 -6.32667e-07 3.55543e-08 0 -6.26108e-07 2.79222e-08 0 -6.20715e-07 1.8781e-08 0 -6.18445e-07 1.21488e-08 0 -6.1356e-07 1.35299e-08 0 -6.15667e-07 3.85088e-09 0 -6.02475e-07 8.9586e-09 0 -6.17814e-07 -9.67083e-09 0 -5.70891e-07 -3.64011e-08 0 -6.51988e-07 -3.13855e-08 0 -5.45782e-07 -2.69389e-07 0 -9.69729e-07 4.81297e-07 0 -7.26444e-07 -2.15973e-06 0 3.63389e-06 2.73362e-05 0 -0.000393459 0.0032915 0 -3.27691e-06 -0.000261249 0 2.77632e-05 5.97676e-05 0 1.10784e-06 -1.93583e-05 0 1.07372e-05 -7.3329e-07 0 3.23392e-07 -4.97308e-06 0 2.87761e-06 -3.30083e-06 0 -9.11694e-08 -1.00704e-06 0 6.97729e-07 -1.36994e-06 0 -4.94231e-08 5.67155e-08 0 2.39072e-07 -3.11055e-07 0 1.08489e-07 2.35695e-07 0 2.42738e-07 2.96713e-08 0 2.56316e-07 1.88198e-07 0 3.25821e-07 8.308e-08 0 3.55141e-07 1.11735e-07 0 3.90042e-07 5.98783e-08 0 4.09168e-07 5.61988e-08 0 4.25517e-07 3.25622e-08 0 4.34859e-07 2.54001e-08 0 4.42949e-07 1.73267e-08 0 4.46521e-07 1.12338e-08 0 4.535e-07 1.24203e-08 0 4.52457e-07 3.52477e-09 0 4.65793e-07 7.55728e-09 0 4.53892e-07 -1.09713e-08 0 4.86659e-07 -3.31441e-08 0 4.24376e-07 -3.58108e-08 0 4.72537e-07 -1.9642e-07 0 2.18162e-07 3.92123e-07 0 4.98535e-07 -1.54289e-06 0 2.99244e-06 2.05118e-05 0 -0.000378011 0.00265585 0 -5.1601e-06 -0.000211276 0 2.46549e-05 4.86251e-05 0 7.00965e-07 -1.5038e-05 0 1.04335e-05 -4.36423e-07 0 3.82859e-07 -4.11312e-06 0 2.49051e-06 -2.8048e-06 0 -5.87899e-07 -9.25175e-07 0 -7.39231e-09 -1.16846e-06 0 -7.9775e-07 1.24501e-08 0 -5.6407e-07 -2.60963e-07 0 -6.93276e-07 1.88974e-07 0 -5.625e-07 2.92235e-08 0 -5.37272e-07 1.57585e-07 0 -4.6036e-07 7.33793e-08 0 -4.21276e-07 9.50758e-08 0 -3.79845e-07 5.24635e-08 0 -3.54823e-07 4.82606e-08 0 -3.34736e-07 2.8412e-08 0 -3.22272e-07 2.1996e-08 0 -3.12615e-07 1.49074e-08 0 -3.07258e-07 9.86216e-09 0 -3.00185e-07 1.02103e-08 0 -3.00226e-07 3.05041e-09 0 -2.88464e-07 4.90674e-09 0 -3.03069e-07 -1.08782e-08 0 -2.75682e-07 -3.17589e-08 0 -3.54734e-07 -3.18924e-08 0 -2.98497e-07 -1.53134e-07 0 -5.5745e-07 3.34484e-07 0 -3.00481e-07 -1.31811e-06 0 2.6421e-06 1.67541e-05 0 -0.000365503 0.00204485 0 -5.29068e-06 -0.000163185 0 2.35491e-05 3.76455e-05 0 1.09066e-06 -1.12393e-05 0 1.12095e-05 -2.11766e-07 0 1.41085e-06 -3.20961e-06 0 3.29416e-06 -2.2443e-06 0 9.83897e-08 -7.78942e-07 0 5.49123e-07 -9.41673e-07 0 -2.90216e-07 -9.85248e-09 0 -8.58462e-08 -2.08875e-07 0 -2.19019e-07 1.45569e-07 0 -8.49699e-08 2.49118e-08 0 -5.23069e-08 1.25335e-07 0 3.27104e-08 6.0024e-08 0 7.8755e-08 7.64613e-08 0 1.26066e-07 4.28068e-08 0 1.55339e-07 3.90478e-08 0 1.78712e-07 2.3201e-08 0 1.9333e-07 1.78839e-08 0 2.04737e-07 1.21831e-08 0 2.11141e-07 8.05855e-09 0 2.19152e-07 8.23397e-09 0 2.19761e-07 2.38675e-09 0 2.30557e-07 3.43905e-09 0 2.16581e-07 -9.86521e-09 0 2.34549e-07 -2.62112e-08 0 1.63276e-07 -2.68893e-08 0 2.00337e-07 -1.0676e-07 0 2.23001e-08 2.53165e-07 0 2.74747e-07 -9.40156e-07 0 2.36912e-06 1.21325e-05 0 -0.000357153 0.00144904 0 -6.02205e-06 -0.000115786 0 2.1973e-05 2.67565e-05 0 7.2495e-07 -7.78635e-06 0 1.10272e-05 -7.69835e-08 0 1.52232e-06 -2.29408e-06 0 3.2033e-06 -1.63492e-06 0 -6.51515e-08 -5.90545e-07 0 2.60274e-07 -6.90518e-07 0 -6.16937e-07 -1.9309e-08 0 -4.47617e-07 -1.52327e-07 0 -5.84482e-07 1.02397e-07 0 -4.52885e-07 1.9147e-08 0 -4.14449e-07 9.069e-08 0 -3.24823e-07 4.46204e-08 0 -2.73101e-07 5.58619e-08 0 -2.21642e-07 3.17467e-08 0 -1.88758e-07 2.86857e-08 0 -1.62929e-07 1.71908e-08 0 -1.46347e-07 1.32068e-08 0 -1.3377e-07 8.97889e-09 0 -1.2626e-07 5.99646e-09 0 -1.17929e-07 5.92811e-09 0 -1.16807e-07 1.74263e-09 0 -1.06919e-07 2.01967e-09 0 -1.22648e-07 -7.7481e-09 0 -1.08431e-07 -2.01067e-08 0 -1.856e-07 -1.93673e-08 0 -1.41457e-07 -7.30008e-08 0 -3.13989e-07 1.8336e-07 0 -7.90269e-08 -6.83921e-07 0 2.17224e-06 8.65774e-06 0 -0.000351492 0.000865212 0 -6.02953e-06 -6.92364e-05 0 2.14192e-05 1.60051e-05 0 7.92381e-07 -4.58187e-06 0 1.12904e-05 -1.34795e-08 0 1.97034e-06 -1.37452e-06 0 3.55797e-06 -9.93127e-07 0 2.35699e-07 -3.6708e-07 0 4.8989e-07 -4.21764e-07 0 -4.15507e-07 -1.60415e-08 0 -2.64672e-07 -9.28603e-08 0 -4.04938e-07 6.10616e-08 0 -2.72903e-07 1.19078e-08 0 -2.30968e-07 5.5007e-08 0 -1.37505e-07 2.74022e-08 0 -8.21958e-08 3.40693e-08 0 -2.77484e-08 1.94831e-08 0 7.39373e-09 1.75452e-08 0 3.49297e-08 1.05555e-08 0 5.26801e-08 8.09334e-09 0 6.61336e-08 5.51465e-09 0 7.42164e-08 3.67704e-09 0 8.29125e-08 3.6134e-09 0 8.43176e-08 1.03199e-09 0 9.34382e-08 1.10215e-09 0 7.75679e-08 -4.98003e-09 0 8.71907e-08 -1.23721e-08 0 1.32946e-08 -1.18701e-08 0 5.25228e-08 -4.11192e-08 0 -8.95505e-08 1.07997e-07 0 1.38066e-07 -3.91485e-07 0 2.0695e-06 4.98877e-06 0 -0.000348841 0.000287587 0 -6.21937e-06 -2.30148e-05 0 2.09454e-05 5.32356e-06 0 6.60044e-07 -1.51154e-06 0 1.12287e-05 7.26802e-10 0 2.01859e-06 -4.57978e-07 0 3.55078e-06 -3.33103e-07 0 2.04134e-07 -1.24833e-07 0 4.16696e-07 -1.41859e-07 0 -5.0323e-07 -6.32029e-09 0 -3.64522e-07 -3.11891e-08 0 -5.06755e-07 2.01744e-08 0 -3.75641e-07 4.06144e-09 0 -3.31973e-07 1.83831e-08 0 -2.36959e-07 9.25941e-09 0 -1.79781e-07 1.14295e-08 0 -1.23915e-07 6.57974e-09 0 -8.75556e-08 5.90009e-09 0 -5.91672e-08 3.5633e-09 0 -4.07474e-08 2.72947e-09 0 -2.68697e-08 1.85647e-09 0 -1.84164e-08 1.24665e-09 0 -9.57701e-09 1.20398e-09 0 -8.02602e-09 3.51149e-10 0 7.83632e-10 3.2864e-10 0 -1.5698e-08 -1.70103e-09 0 -7.38893e-09 -4.24528e-09 0 -8.24765e-08 -3.89213e-09 0 -4.07532e-08 -1.37237e-08 0 -1.80074e-07 3.66516e-08 0 4.16381e-08 -1.35615e-07 0 2.0068e-06 1.70453e-06 0 -0.000348841 -0.000287587 0 -6.21937e-06 2.30148e-05 0 2.09454e-05 -5.32356e-06 0 6.60044e-07 1.51154e-06 0 1.12287e-05 -7.26802e-10 0 2.01859e-06 4.57978e-07 0 3.55078e-06 3.33103e-07 0 2.04134e-07 1.24833e-07 0 4.16696e-07 1.41859e-07 0 -5.0323e-07 6.32029e-09 0 -3.64522e-07 3.11891e-08 0 -5.06755e-07 -2.01744e-08 0 -3.75641e-07 -4.06144e-09 0 -3.31973e-07 -1.83831e-08 0 -2.36959e-07 -9.25941e-09 0 -1.79781e-07 -1.14295e-08 0 -1.23915e-07 -6.57974e-09 0 -8.75556e-08 -5.90009e-09 0 -5.91672e-08 -3.5633e-09 0 -4.07474e-08 -2.72947e-09 0 -2.68697e-08 -1.85647e-09 0 -1.84164e-08 -1.24665e-09 0 -9.57701e-09 -1.20398e-09 0 -8.02602e-09 -3.51149e-10 0 7.83632e-10 -3.2864e-10 0 -1.5698e-08 1.70103e-09 0 -7.38893e-09 4.24528e-09 0 -8.24765e-08 3.89213e-09 0 -4.07532e-08 1.37237e-08 0 -1.80074e-07 -3.66516e-08 0 4.16381e-08 1.35615e-07 0 2.0068e-06 -1.70453e-06 0 -0.000351492 -0.000865212 0 -6.02953e-06 6.92364e-05 0 2.14192e-05 -1.60051e-05 0 7.92381e-07 4.58187e-06 0 1.12904e-05 1.34795e-08 0 1.97034e-06 1.37452e-06 0 3.55797e-06 9.93127e-07 0 2.35699e-07 3.6708e-07 0 4.8989e-07 4.21764e-07 0 -4.15507e-07 1.60415e-08 0 -2.64672e-07 9.28603e-08 0 -4.04938e-07 -6.10616e-08 0 -2.72903e-07 -1.19078e-08 0 -2.30968e-07 -5.5007e-08 0 -1.37505e-07 -2.74022e-08 0 -8.21958e-08 -3.40693e-08 0 -2.77484e-08 -1.94831e-08 0 7.39373e-09 -1.75452e-08 0 3.49297e-08 -1.05555e-08 0 5.26801e-08 -8.09334e-09 0 6.61336e-08 -5.51465e-09 0 7.42164e-08 -3.67704e-09 0 8.29125e-08 -3.6134e-09 0 8.43176e-08 -1.03199e-09 0 9.34382e-08 -1.10215e-09 0 7.75679e-08 4.98003e-09 0 8.71907e-08 1.23721e-08 0 1.32946e-08 1.18701e-08 0 5.25228e-08 4.11192e-08 0 -8.95505e-08 -1.07997e-07 0 1.38066e-07 3.91485e-07 0 2.0695e-06 -4.98877e-06 0 -0.000357153 -0.00144904 0 -6.02205e-06 0.000115786 0 2.1973e-05 -2.67565e-05 0 7.2495e-07 7.78635e-06 0 1.10272e-05 7.69835e-08 0 1.52232e-06 2.29408e-06 0 3.2033e-06 1.63492e-06 0 -6.51515e-08 5.90545e-07 0 2.60274e-07 6.90518e-07 0 -6.16937e-07 1.9309e-08 0 -4.47617e-07 1.52327e-07 0 -5.84482e-07 -1.02397e-07 0 -4.52885e-07 -1.9147e-08 0 -4.14449e-07 -9.069e-08 0 -3.24823e-07 -4.46204e-08 0 -2.73101e-07 -5.58619e-08 0 -2.21642e-07 -3.17467e-08 0 -1.88758e-07 -2.86857e-08 0 -1.62929e-07 -1.71908e-08 0 -1.46347e-07 -1.32068e-08 0 -1.3377e-07 -8.97889e-09 0 -1.2626e-07 -5.99646e-09 0 -1.17929e-07 -5.92811e-09 0 -1.16807e-07 -1.74263e-09 0 -1.06919e-07 -2.01967e-09 0 -1.22648e-07 7.7481e-09 0 -1.08431e-07 2.01067e-08 0 -1.856e-07 1.93673e-08 0 -1.41457e-07 7.30008e-08 0 -3.13989e-07 -1.8336e-07 0 -7.90269e-08 6.83921e-07 0 2.17224e-06 -8.65774e-06 0 -0.000365503 -0.00204485 0 -5.29068e-06 0.000163185 0 2.35491e-05 -3.76455e-05 0 1.09066e-06 1.12393e-05 0 1.12095e-05 2.11766e-07 0 1.41085e-06 3.20961e-06 0 3.29416e-06 2.2443e-06 0 9.83897e-08 7.78942e-07 0 5.49123e-07 9.41673e-07 0 -2.90216e-07 9.85248e-09 0 -8.58462e-08 2.08875e-07 0 -2.19019e-07 -1.45569e-07 0 -8.49699e-08 -2.49118e-08 0 -5.23069e-08 -1.25335e-07 0 3.27104e-08 -6.0024e-08 0 7.8755e-08 -7.64613e-08 0 1.26066e-07 -4.28068e-08 0 1.55339e-07 -3.90478e-08 0 1.78712e-07 -2.3201e-08 0 1.9333e-07 -1.78839e-08 0 2.04737e-07 -1.21831e-08 0 2.11141e-07 -8.05855e-09 0 2.19152e-07 -8.23397e-09 0 2.19761e-07 -2.38675e-09 0 2.30557e-07 -3.43905e-09 0 2.16581e-07 9.86521e-09 0 2.34549e-07 2.62112e-08 0 1.63276e-07 2.68893e-08 0 2.00337e-07 1.0676e-07 0 2.23001e-08 -2.53165e-07 0 2.74747e-07 9.40156e-07 0 2.36912e-06 -1.21325e-05 0 -0.000378011 -0.00265585 0 -5.1601e-06 0.000211276 0 2.46549e-05 -4.86251e-05 0 7.00965e-07 1.5038e-05 0 1.04335e-05 4.36423e-07 0 3.82859e-07 4.11312e-06 0 2.49051e-06 2.8048e-06 0 -5.87899e-07 9.25175e-07 0 -7.39231e-09 1.16846e-06 0 -7.9775e-07 -1.24501e-08 0 -5.6407e-07 2.60963e-07 0 -6.93276e-07 -1.88974e-07 0 -5.625e-07 -2.92235e-08 0 -5.37272e-07 -1.57585e-07 0 -4.6036e-07 -7.33793e-08 0 -4.21276e-07 -9.50758e-08 0 -3.79845e-07 -5.24635e-08 0 -3.54823e-07 -4.82606e-08 0 -3.34736e-07 -2.8412e-08 0 -3.22272e-07 -2.1996e-08 0 -3.12615e-07 -1.49074e-08 0 -3.07258e-07 -9.86216e-09 0 -3.00185e-07 -1.02103e-08 0 -3.00226e-07 -3.05041e-09 0 -2.88464e-07 -4.90674e-09 0 -3.03069e-07 1.08782e-08 0 -2.75682e-07 3.17589e-08 0 -3.54734e-07 3.18924e-08 0 -2.98497e-07 1.53134e-07 0 -5.5745e-07 -3.34484e-07 0 -3.00481e-07 1.31811e-06 0 2.6421e-06 -1.67541e-05 0 -0.000393459 -0.0032915 0 -3.27691e-06 0.000261249 0 2.77632e-05 -5.97676e-05 0 1.10784e-06 1.93583e-05 0 1.07372e-05 7.3329e-07 0 3.23392e-07 4.97308e-06 0 2.87761e-06 3.30083e-06 0 -9.11694e-08 1.00704e-06 0 6.97729e-07 1.36994e-06 0 -4.94231e-08 -5.67155e-08 0 2.39072e-07 3.11055e-07 0 1.08489e-07 -2.35695e-07 0 2.42738e-07 -2.96713e-08 0 2.56316e-07 -1.88198e-07 0 3.25821e-07 -8.308e-08 0 3.55141e-07 -1.11735e-07 0 3.90042e-07 -5.98783e-08 0 4.09168e-07 -5.61988e-08 0 4.25517e-07 -3.25622e-08 0 4.34859e-07 -2.54001e-08 0 4.42949e-07 -1.73267e-08 0 4.46521e-07 -1.12338e-08 0 4.535e-07 -1.24203e-08 0 4.52457e-07 -3.52477e-09 0 4.65793e-07 -7.55728e-09 0 4.53892e-07 1.09713e-08 0 4.86659e-07 3.31441e-08 0 4.24376e-07 3.58108e-08 0 4.72537e-07 1.9642e-07 0 2.18162e-07 -3.92123e-07 0 4.98535e-07 1.54289e-06 0 2.99244e-06 -2.05118e-05 0 -0.000415919 -0.00395248 0 -2.47661e-06 0.000311803 0 2.92769e-05 -7.07193e-05 0 -2.75229e-07 2.42583e-05 0 8.98514e-06 1.07363e-06 0 -1.49303e-06 5.76972e-06 0 1.45649e-06 3.70456e-06 0 -1.32215e-06 1.03319e-06 0 -3.78886e-07 1.53587e-06 0 -1.06827e-06 -1.1319e-07 0 -7.55295e-07 3.54578e-07 0 -8.85601e-07 -2.79789e-07 0 -7.61961e-07 -2.85414e-08 0 -7.60194e-07 -2.14203e-07 0 -7.03763e-07 -9.02789e-08 0 -6.84217e-07 -1.25143e-07 0 -6.57838e-07 -6.55079e-08 0 -6.44396e-07 -6.23567e-08 0 -6.32667e-07 -3.55543e-08 0 -6.26108e-07 -2.79222e-08 0 -6.20715e-07 -1.8781e-08 0 -6.18445e-07 -1.21488e-08 0 -6.1356e-07 -1.35299e-08 0 -6.15667e-07 -3.85088e-09 0 -6.02475e-07 -8.9586e-09 0 -6.17814e-07 9.67083e-09 0 -5.70891e-07 3.64011e-08 0 -6.51988e-07 3.13855e-08 0 -5.45782e-07 2.69389e-07 0 -9.69729e-07 -4.81297e-07 0 -7.26444e-07 2.15973e-06 0 3.63389e-06 -2.73362e-05 0 -0.000442209 -0.00465875 0 2.22395e-06 0.000366547 0 3.43469e-05 -8.16394e-05 0 -3.9791e-07 3.00092e-05 0 9.56235e-06 1.34607e-06 0 -1.19718e-06 6.43614e-06 0 2.56794e-06 4.01798e-06 0 -1.10857e-07 9.64383e-07 0 1.11686e-06 1.68555e-06 0 4.48327e-07 -2.01718e-07 0 8.31639e-07 4.05623e-07 0 6.85226e-07 -3.29916e-07 0 8.13411e-07 -1.74499e-08 0 7.94955e-07 -2.38782e-07 0 8.42035e-07 -9.05485e-08 0 8.47316e-07 -1.36286e-07 0 8.6549e-07 -6.74652e-08 0 8.7092e-07 -6.70501e-08 0 8.78164e-07 -3.72113e-08 0 8.8066e-07 -2.97614e-08 0 8.84628e-07 -2.04619e-08 0 8.84516e-07 -1.27922e-08 0 8.90235e-07 -1.6103e-08 0 8.86329e-07 -4.19577e-09 0 9.0248e-07 -1.36588e-08 0 8.8936e-07 7.18005e-09 0 9.42734e-07 2.94107e-08 0 8.92566e-07 2.38284e-08 0 1.00105e-06 3.08981e-07 0 6.33321e-07 -4.93398e-07 0 8.59312e-07 2.22488e-06 0 4.14762e-06 -3.14386e-05 0 -0.000481949 -0.00540375 0 5.26702e-06 0.000420354 0 3.50672e-05 -9.1212e-05 0 -4.49783e-06 3.63291e-05 0 6.12446e-06 1.43141e-06 0 -4.35231e-06 6.96349e-06 0 3.13005e-08 4.17037e-06 0 -2.44907e-06 8.54284e-07 0 -1.08917e-06 1.77773e-06 0 -1.7162e-06 -2.87941e-07 0 -1.33644e-06 4.40246e-07 0 -1.4931e-06 -3.69886e-07 0 -1.39027e-06 -9.43252e-09 0 -1.42611e-06 -2.55454e-07 0 -1.39845e-06 -9.04154e-08 0 -1.40532e-06 -1.42809e-07 0 -1.39801e-06 -6.83021e-08 0 -1.39894e-06 -6.92312e-08 0 -1.39715e-06 -3.73105e-08 0 -1.39732e-06 -3.00159e-08 0 -1.39673e-06 -1.97111e-08 0 -1.39767e-06 -1.20729e-08 0 -1.39511e-06 -1.47866e-08 0 -1.40043e-06 -3.10114e-09 0 -1.38463e-06 -1.20986e-08 0 -1.40888e-06 5.02197e-09 0 -1.33114e-06 3.53745e-08 0 -1.43295e-06 7.28681e-10 0 -1.17957e-06 4.16016e-07 0 -1.82406e-06 -5.82626e-07 0 -1.76211e-06 3.47406e-06 0 5.91192e-06 -4.24244e-05 0 -0.000532467 -0.00623692 0 1.81912e-05 0.000485412 0 4.18728e-05 -0.000100289 0 -4.90252e-06 4.35881e-05 0 8.7568e-06 1.12138e-06 0 -1.89822e-06 7.25013e-06 0 3.79699e-06 4.27478e-06 0 1.30803e-06 6.16888e-07 0 3.03582e-06 1.9116e-06 0 2.39497e-06 -4.19893e-07 0 2.86132e-06 5.17002e-07 0 2.67922e-06 -4.20584e-07 0 2.79059e-06 2.64081e-08 0 2.7307e-06 -2.71716e-07 0 2.75005e-06 -7.51134e-08 0 2.72683e-06 -1.4725e-07 0 2.72591e-06 -6.25676e-08 0 2.71554e-06 -7.0524e-08 0 2.71238e-06 -3.63715e-08 0 2.70648e-06 -3.09511e-08 0 2.70524e-06 -2.18854e-08 0 2.69879e-06 -1.32292e-08 0 2.70293e-06 -2.00874e-08 0 2.68883e-06 -4.75827e-09 0 2.71126e-06 -2.24604e-08 0 2.67491e-06 -9.83443e-10 0 2.76215e-06 1.2141e-08 0 2.68197e-06 -2.74402e-08 0 2.94143e-06 3.88732e-07 0 2.50486e-06 -5.15056e-07 0 2.27377e-06 3.15047e-06 0 6.67776e-06 -4.94929e-05 0 -0.000608859 -0.00714306 0 2.29565e-05 0.000545527 0 3.38918e-05 -0.000105136 0 -1.85282e-05 5.01302e-05 0 -3.96224e-07 2.60855e-07 0 -1.16299e-05 7.30664e-06 0 -4.5891e-06 4.08138e-06 0 -7.51209e-06 3.9173e-07 0 -5.55136e-06 1.89903e-06 0 -6.38687e-06 -5.1672e-07 0 -5.95094e-06 5.25521e-07 0 -6.22263e-06 -4.48601e-07 0 -6.16784e-06 3.28081e-08 0 -6.27198e-06 -2.76864e-07 0 -6.28797e-06 -7.11665e-08 0 -6.33166e-06 -1.4637e-07 0 -6.34817e-06 -5.94151e-08 0 -6.36543e-06 -6.79616e-08 0 -6.37246e-06 -3.25597e-08 0 -6.37758e-06 -2.7085e-08 0 -6.37603e-06 -1.63289e-08 0 -6.37819e-06 -7.34859e-09 0 -6.36478e-06 -1.22134e-08 0 -6.37812e-06 4.07139e-09 0 -6.3298e-06 -1.15379e-08 0 -6.39275e-06 7.96414e-09 0 -6.21786e-06 3.48608e-08 0 -6.43066e-06 -5.50776e-08 0 -5.79696e-06 5.31817e-07 0 -6.59516e-06 -6.27787e-07 0 -6.74846e-06 6.21394e-06 0 1.52389e-05 -6.68179e-05 0 -0.000744428 -0.00825955 0 6.55239e-05 0.000643585 0 4.58312e-05 -0.000111133 0 -3.38983e-06 5.68556e-05 0 1.85319e-05 -1.08558e-06 0 8.72453e-06 6.98435e-06 0 1.7126e-05 4.23204e-06 0 1.44523e-05 -3.68122e-08 0 1.70118e-05 2.18217e-06 0 1.62874e-05 -6.85634e-07 0 1.69611e-05 7.04994e-07 0 1.67511e-05 -4.8818e-07 0 1.68885e-05 1.25821e-07 0 1.68107e-05 -2.76747e-07 0 1.68184e-05 -2.78593e-08 0 1.678e-05 -1.40935e-07 0 1.67649e-05 -4.28403e-08 0 1.67403e-05 -6.64165e-08 0 1.67243e-05 -3.11813e-08 0 1.67006e-05 -3.02067e-08 0 1.66873e-05 -2.56652e-08 0 1.66508e-05 -1.34936e-08 0 1.66475e-05 -3.23997e-08 0 1.65751e-05 -3.52477e-09 0 1.66084e-05 -4.67141e-08 0 1.64515e-05 -6.92382e-09 0 1.65961e-05 -2.75952e-08 0 1.62563e-05 -1.33762e-07 0 1.67692e-05 3.79897e-07 0 1.6047e-05 -9.67295e-07 0 1.48562e-05 6.67932e-06 0 1.71151e-05 -0.000105595 0 -0.000907134 -0.00962893 0 2.24045e-05 0.000739012 0 -1.3541e-05 -0.000111971 0 -6.918e-05 5.91693e-05 0 -3.4294e-05 -3.11727e-06 0 -5.09514e-05 6.14116e-06 0 -3.91962e-05 3.73161e-06 0 -4.56241e-05 -5.07516e-07 0 -4.22669e-05 2.02783e-06 0 -4.47525e-05 -8.5864e-07 0 -4.40645e-05 6.43061e-07 0 -4.50338e-05 -5.35896e-07 0 -4.50332e-05 9.94545e-08 0 -4.54171e-05 -2.84239e-07 0 -4.55097e-05 -3.65419e-08 0 -4.56569e-05 -1.37068e-07 0 -4.57091e-05 -4.11014e-08 0 -4.57518e-05 -5.68612e-08 0 -4.57528e-05 -2.14495e-08 0 -4.57441e-05 -1.33165e-08 0 -4.56997e-05 -8.28169e-09 0 -4.56674e-05 1.44585e-08 0 -4.55679e-05 -7.02298e-09 0 -4.55481e-05 3.98928e-08 0 -4.53269e-05 -8.07106e-09 0 -4.54436e-05 4.99637e-08 0 -4.4786e-05 7.21098e-08 0 -4.55584e-05 -1.41901e-07 0 -4.30143e-05 8.66217e-07 0 -4.56405e-05 -1.91791e-06 0 -4.00027e-05 1.68003e-05 0 7.31974e-05 -0.000140462 0 -0.00143494 -0.0116817 0 0.000205819 0.000982258 0 0.000103939 -0.000138928 0 0.000120317 6.5057e-05 0 0.000125984 -5.76856e-06 0 0.000139218 5.49367e-06 0 0.000139422 4.66708e-06 0 0.00014582 -1.15011e-06 0 0.000146683 2.96344e-06 0 0.000149219 -1.099e-06 0 0.000150074 1.19217e-06 0 0.000151016 -5.74691e-07 0 0.000151525 3.69559e-07 0 0.000151866 -2.6576e-07 0 0.00015209 7.95547e-08 0 0.000152191 -1.19779e-07 0 0.000152241 -3.64954e-09 0 0.000152218 -5.60274e-08 0 0.000152158 -2.68675e-08 0 0.00015204 -2.93335e-08 0 0.000151895 -4.36041e-08 0 0.000151669 -1.54577e-08 0 0.000151466 -7.11581e-08 0 0.000151049 -4.3839e-09 0 0.000150901 -1.01196e-07 0 0.000149971 -4.81897e-08 0 0.000150303 6.50377e-09 0 0.000147688 -6.27413e-07 0 0.000149644 1.3482e-06 0 0.000141909 -6.23732e-06 0 0.000143051 2.81854e-05 0 -1.63179e-05 -0.000347996 0 0.000527449 -0.0138669 0 -0.00109951 0.00124019 0 -0.000728268 -0.000191863 0 -0.000981565 7.24849e-05 0 -0.000832105 -1.25844e-05 0 -0.000937404 7.07143e-06 0 -0.000909449 2.96539e-06 0 -0.000950027 -3.709e-07 0 -0.000952185 2.37231e-06 0 -0.000969126 -6.74678e-07 0 -0.000974918 9.94273e-07 0 -0.000982435 -3.83499e-07 0 -0.000986334 3.15735e-07 0 -0.000989628 -1.9433e-07 0 -0.000991516 6.89112e-08 0 -0.000992757 -9.51376e-08 0 -0.000993328 -3.56886e-09 0 -0.000993493 -4.07071e-08 0 -0.000993204 -2.47327e-08 0 -0.000992752 -1.77893e-09 0 -0.000991698 -4.77907e-08 0 -0.000990979 4.71675e-08 0 -0.000988754 -9.99765e-08 0 -0.000988596 1.22171e-07 0 -0.000983497 -1.5101e-07 0 -0.000986719 8.72875e-08 0 -0.000972622 2.64512e-07 0 -0.000988564 -1.31186e-06 0 -0.000944165 4.6907e-06 0 -0.000995334 -1.63377e-05 0 -0.000875438 7.87349e-05 0 0.000846518 -0.000758369 0 0.0168778 -0.0128752 0 0.0209512 0.0013766 0 0.0195381 -0.000189597 0 0.0202275 6.21102e-05 0 0.0201515 -5.61731e-05 0 0.0208739 -3.17539e-05 0 0.0211643 -3.48901e-05 0 0.0216426 -3.08945e-05 0 0.0219066 -2.19665e-05 0 0.0221767 -1.85664e-05 0 0.0223404 -1.20694e-05 0 0.0224751 -9.20254e-06 0 0.0225578 -5.67184e-06 0 0.0226167 -3.85903e-06 0 0.022651 -2.13974e-06 0 0.0226713 -1.15573e-06 0 0.0226798 -3.35608e-07 0 0.0226808 2.03989e-07 0 0.0226751 6.50279e-07 0 0.0226652 1.02153e-06 0 0.0226493 1.35109e-06 0 0.0226321 1.69765e-06 0 0.0226045 2.01096e-06 0 0.0225846 2.4089e-06 0 0.0225349 2.66381e-06 0 0.0225293 3.53105e-06 0 0.0224162 2.88276e-06 0 0.0224855 8.12204e-06 0 0.0221445 -9.10726e-07 0 0.0224291 4.53784e-05 0 0.0213965 -6.84257e-05 0 0.00558344 0.00304046 0 </DataArray> 
</PointData> 
<Points> 
<DataArray type="Float32" NumberOfComponents="3"> 