<?xml version="1.0"?> 
<VTKFile type="StructuredGrid" version="0.1"> 
<StructuredGrid WholeExtent="0 31 0 31 0 0"> 
<Piece Extent="0 31 0 31 0 0"> 
<PointData>
<DataArray type="Float32" Name="B" format="ascii" NumberOfComponents="3"> 
-0.000356832 -0.00163945 0 0.000520621 0.000681723 0 -8.05626e-05 -8.98303e-05 0 0.000237323 3.68828e-05 0 1.12928e-05 -1.04021e-05 0 0.000134135 -2.35792e-06 0 6.74395e-05 -1.11656e-06 0 0.000111041 -4.17304e-06 0 9.56245e-05 1.69456e-07 0 0.000112542 -1.97225e-06 0 0.000111542 4.06144e-07 0 0.000118988 -5.08807e-07 0 0.000120758 4.32313e-07 0 0.000124114 5.69758e-08 0 0.000125319 3.32877e-07 0 0.000126263 1.38855e-07 0 0.000126041 1.65887e-07 0 0.000125038 1.77436e-08 0 0.000123156 -1.70119e-08 0 0.000120153 -1.87768e-07 0 0.000116561 -1.79379e-07 0 0.00011108 -4.65284e-07 0 0.00010619 -3.04374e-07 0 9.69754e-05 -8.69467e-07 0 9.30488e-05 -5.26687e-07 0 7.6552e-05 -1.39003e-06 0 8.15255e-05 -1.96047e-06 0 4.62463e-05 -1.07662e-06 0 8.26754e-05 -1.20424e-05 0 -3.52002e-06 1.03172e-05 0 4.21268e-05 -0.000169025 0 0.000149745 0.000967683 0 -9.77714e-05 -2.51084e-05 0 1.00375e-05 0.000109778 0 8.59696e-05 4.47985e-05 0 7.94711e-05 1.38165e-05 0 8.71148e-05 -1.38607e-07 0 8.55445e-05 -5.4914e-06 0 9.30882e-05 -7.59125e-06 0 9.72261e-05 -7.8442e-06 0 0.000104142 -7.18888e-06 0 0.000109223 -6.14772e-06 0 0.000114503 -4.97155e-06 0 0.000118508 -3.8324e-06 0 0.000121906 -2.76995e-06 0 0.000124289 -1.80698e-06 0 0.000125874 -9.21299e-07 0 0.000126565 -9.26132e-08 0 0.000126416 7.10094e-07 0 0.000125397 1.51245e-06 0 0.00012348 2.33988e-06 0 0.000120639 3.21037e-06 0 0.00011677 4.134e-06 0 0.000111904 5.10298e-06 0 0.000105807 6.08384e-06 0 9.88032e-05 6.9995e-06 0 9.03316e-05 7.72614e-06 0 8.17018e-05 8.09043e-06 0 7.11054e-05 7.92628e-06 0 6.23764e-05 7.12676e-06 0 4.87766e-05 5.67075e-06 0 3.85735e-05 4.30263e-06 0 9.14355e-06 1.49449e-05 0 2.48177e-05 7.35708e-05 0 -1.54537e-05 2.30405e-05 0 1.711e-05 2.73633e-05 0 4.73485e-05 2.32462e-05 0 6.71166e-05 5.90487e-06 0 7.50696e-05 -4.95009e-06 0 8.3592e-05 -1.12857e-05 0 9.05218e-05 -1.40385e-05 0 9.81874e-05 -1.4311e-05 0 0.000104799 -1.33333e-05 0 0.000110877 -1.15407e-05 0 0.000115879 -9.57346e-06 0 0.000120033 -7.52456e-06 0 0.000123228 -5.59529e-06 0 0.000125569 -3.7531e-06 0 0.000127049 -2.02456e-06 0 0.000127711 -3.5302e-07 0 0.000127549 1.28858e-06 0 0.000126557 2.9546e-06 0 0.000124704 4.68088e-06 0 0.000121933 6.51192e-06 0 0.000118179 8.46297e-06 0 0.000113332 1.05462e-05 0 0.000107327 1.26939e-05 0 0.000100014 1.48122e-05 0 9.15026e-05 1.66283e-05 0 8.17105e-05 1.78833e-05 0 7.14733e-05 1.82674e-05 0 6.04183e-05 1.78163e-05 0 4.99479e-05 1.7425e-05 0 3.82228e-05 1.80285e-05 0 3.14409e-05 2.58295e-05 0 3.53731e-05 2.16029e-05 0 2.82989e-06 -1.51496e-05 0 1.85662e-05 4.03269e-06 0 3.95641e-05 1.06298e-07 0 5.48778e-05 -7.00935e-06 0 6.80815e-05 -1.51571e-05 0 7.90874e-05 -2.05428e-05 0 8.997e-05 -2.27075e-05 0 9.92099e-05 -2.22306e-05 0 0.000107145 -2.00494e-05 0 0.00011353 -1.72175e-05 0 0.0001187 -1.41388e-05 0 0.000122737 -1.11479e-05 0 0.000125821 -8.28736e-06 0 0.00012802 -5.60684e-06 0 0.000129408 -3.05437e-06 0 0.000130016 -5.92526e-07 0 0.000129859 1.84891e-06 0 0.000128926 4.33003e-06 0 0.000127184 6.92129e-06 0 0.000124571 9.68087e-06 0 0.000120994 1.26653e-05 0 0.000116331 1.58923e-05 0 0.000110396 1.93443e-05 0 0.000103015 2.28668e-05 0 9.39469e-05 2.61521e-05 0 8.33268e-05 2.85599e-05 0 7.13959e-05 2.9452e-05 0 5.98507e-05 2.88735e-05 0 4.91406e-05 2.76025e-05 0 4.05149e-05 2.74221e-05 0 3.4303e-05 2.69887e-05 0 3.21987e-05 3.25594e-05 0 1.04978e-05 -1.02147e-05 0 2.11816e-05 -1.38354e-05 0 3.40187e-05 -1.4982e-05 0 4.78827e-05 -2.11227e-05 0 6.12733e-05 -2.79845e-05 0 7.55945e-05 -3.32684e-05 0 8.92792e-05 -3.42861e-05 0 0.000101097 -3.16136e-05 0 0.000109896 -2.74883e-05 0 0.000116594 -2.29974e-05 0 0.000121646 -1.86597e-05 0 0.000125496 -1.45834e-05 0 0.000128346 -1.08204e-05 0 0.000130357 -7.31193e-06 0 0.00013161 -4.00258e-06 0 0.000132156 -8.04299e-07 0 0.000132012 2.36502e-06 0 0.000131171 5.59872e-06 0 0.0001296 8.98727e-06 0 0.000127233 1.26272e-05 0 0.000123971 1.66071e-05 0 0.000119642 2.10107e-05 0 0.000114027 2.58712e-05 0 0.000106715 3.11391e-05 0 9.72729e-05 3.64749e-05 0 8.49845e-05 4.08978e-05 0 7.12089e-05 4.24128e-05 0 5.79142e-05 4.04486e-05 0 4.72409e-05 3.72845e-05 0 3.90589e-05 3.42269e-05 0 3.36262e-05 3.2343e-05 0 3.03112e-05 2.66377e-05 0 1.21254e-05 -2.49849e-05 0 1.96938e-05 -2.30213e-05 0 2.95305e-05 -2.73469e-05 0 4.06022e-05 -3.37698e-05 0 5.37267e-05 -4.23165e-05 0 7.1663e-05 -5.13819e-05 0 9.47894e-05 -4.96929e-05 0 0.000108328 -4.22925e-05 0 0.000117482 -3.5112e-05 0 0.000123753 -2.86345e-05 0 0.000128404 -2.28622e-05 0 0.0001318 -1.77205e-05 0 0.000134295 -1.30796e-05 0 0.000136025 -8.82519e-06 0 0.000137099 -4.83307e-06 0 0.000137563 -9.9013e-07 0 0.00013744 2.81964e-06 0 0.000136725 6.71073e-06 0 0.000135387 1.0804e-05 0 0.000133373 1.52283e-05 0 0.000130568 2.0125e-05 0 0.000126836 2.56492e-05 0 0.00012184 3.19656e-05 0 0.000115246 3.92282e-05 0 0.000105879 4.74828e-05 0 9.23651e-05 5.63455e-05 0 6.97662e-05 5.98661e-05 0 5.3158e-05 5.29045e-05 0 4.25931e-05 4.63493e-05 0 3.53099e-05 4.08853e-05 0 3.01617e-05 3.60381e-05 0 2.66402e-05 3.35474e-05 0 1.10088e-05 -2.66307e-05 0 1.65118e-05 -3.11773e-05 0 2.35005e-05 -3.61581e-05 0 3.192e-05 -4.46801e-05 0 4.23084e-05 -5.53846e-05 0 5.63518e-05 -7.39587e-05 0 7.29602e-05 -6.70409e-05 0 8.41426e-05 -5.24581e-05 0 9.15817e-05 -4.19916e-05 0 9.67076e-05 -3.35431e-05 0 0.000100409 -2.64388e-05 0 0.000103113 -2.03502e-05 0 0.000105078 -1.49569e-05 0 0.000106442 -1.00741e-05 0 0.000107285 -5.51644e-06 0 0.000107649 -1.1416e-06 0 0.000107551 3.19332e-06 0 0.000106989 7.62188e-06 0 0.000105944 1.22927e-05 0 0.000104373 1.73575e-05 0 0.000102199 2.30211e-05 0 9.92941e-05 2.94878e-05 0 9.54246e-05 3.71144e-05 0 9.02058e-05 4.62536e-05 0 8.28231e-05 5.76205e-05 0 7.19598e-05 7.3303e-05 0 5.60877e-05 8.14886e-05 0 4.3372e-05 6.41839e-05 0 3.50184e-05 5.44433e-05 0 2.92778e-05 4.62238e-05 0 2.52195e-05 4.02437e-05 0 2.22747e-05 3.43059e-05 0 8.18613e-06 -3.24601e-05 0 1.17689e-05 -3.59961e-05 0 1.61938e-05 -4.25286e-05 0 2.14269e-05 -5.21089e-05 0 2.75221e-05 -6.47583e-05 0 3.46356e-05 -8.52912e-05 0 4.19863e-05 -7.71817e-05 0 4.79151e-05 -5.96044e-05 0 5.22553e-05 -4.69502e-05 0 5.54158e-05 -3.70962e-05 0 5.77671e-05 -2.90514e-05 0 5.95321e-05 -2.22753e-05 0 6.08393e-05 -1.63404e-05 0 6.17597e-05 -1.09961e-05 0 6.23328e-05 -6.02158e-06 0 6.25794e-05 -1.25149e-06 0 6.25084e-05 3.47228e-06 0 6.21205e-05 8.29719e-06 0 6.14083e-05 1.33848e-05 0 6.03553e-05 1.89091e-05 0 5.89301e-05 2.51007e-05 0 5.7077e-05 3.22268e-05 0 5.46927e-05 4.07275e-05 0 5.15955e-05 5.11602e-05 0 4.74718e-05 6.45114e-05 0 4.19938e-05 8.28892e-05 0 3.54118e-05 9.18268e-05 0 2.94699e-05 7.20283e-05 0 2.4952e-05 5.98266e-05 0 2.16255e-05 5.01421e-05 0 1.91535e-05 4.28929e-05 0 1.72533e-05 3.74961e-05 0 4.32129e-06 -3.38624e-05 0 6.14846e-06 -3.9138e-05 0 8.1673e-06 -4.58857e-05 0 1.00665e-05 -5.58245e-05 0 1.15943e-05 -6.86488e-05 0 1.25137e-05 -8.94251e-05 0 1.28401e-05 -8.08179e-05 0 1.34688e-05 -6.24885e-05 0 1.42028e-05 -4.92059e-05 0 1.50267e-05 -3.88701e-05 0 1.58133e-05 -3.04509e-05 0 1.65191e-05 -2.33631e-05 0 1.71003e-05 -1.71518e-05 0 1.754e-05 -1.15497e-05 0 1.78234e-05 -6.32744e-06 0 1.79443e-05 -1.31435e-06 0 1.78999e-05 3.65017e-06 0 1.76921e-05 8.71507e-06 0 1.73289e-05 1.40435e-05 0 1.68234e-05 1.98106e-05 0 1.6201e-05 2.62525e-05 0 1.54945e-05 3.36426e-05 0 1.47715e-05 4.24423e-05 0 1.41074e-05 5.32343e-05 0 1.36733e-05 6.70394e-05 0 1.35304e-05 8.59215e-05 0 1.39271e-05 9.50548e-05 0 1.39855e-05 7.46785e-05 0 1.36856e-05 6.20027e-05 0 1.31534e-05 5.18516e-05 0 1.25157e-05 4.43912e-05 0 1.18441e-05 3.81613e-05 0 1.15302e-07 -3.53362e-05 0 3.68982e-07 -4.00723e-05 0 2.10645e-07 -4.66151e-05 0 -8.85804e-07 -5.57544e-05 0 -3.72587e-06 -6.72149e-05 0 -9.04626e-06 -8.66176e-05 0 -1.52429e-05 -7.81557e-05 0 -2.01489e-05 -6.09782e-05 0 -2.28375e-05 -4.85942e-05 0 -2.42889e-05 -3.87598e-05 0 -2.49907e-05 -3.05774e-05 0 -2.53197e-05 -2.35807e-05 0 -2.54401e-05 -1.73731e-05 0 -2.54708e-05 -1.17259e-05 0 -2.54691e-05 -6.42941e-06 0 -2.54717e-05 -1.32815e-06 0 -2.54917e-05 3.72756e-06 0 -2.5526e-05 8.87529e-06 0 -2.55548e-05 1.42659e-05 0 -2.55334e-05 2.00572e-05 0 -2.53933e-05 2.6461e-05 0 -2.50006e-05 3.37081e-05 0 -2.4172e-05 4.21928e-05 0 -2.25054e-05 5.23749e-05 0 -1.94863e-05 6.51332e-05 0 -1.4104e-05 8.26815e-05 0 -7.26796e-06 9.14586e-05 0 -1.13633e-06 7.22503e-05 0 2.64794e-06 6.07867e-05 0 4.77019e-06 5.13696e-05 0 5.90485e-06 4.42644e-05 0 6.48438e-06 3.85714e-05 0 -4.06856e-06 -3.487e-05 0 -5.04471e-06 -3.94743e-05 0 -6.8578e-06 -4.51105e-05 0 -1.01192e-05 -5.25007e-05 0 -1.62072e-05 -6.10776e-05 0 -2.85662e-05 -7.41667e-05 0 -4.77054e-05 -6.81387e-05 0 -5.7009e-05 -5.55689e-05 0 -6.24436e-05 -4.55431e-05 0 -6.5485e-05 -3.70095e-05 0 -6.74234e-05 -2.95748e-05 0 -6.85829e-05 -2.30071e-05 0 -6.93149e-05 -1.70532e-05 0 -6.97502e-05 -1.15518e-05 0 -6.99999e-05 -6.34162e-06 0 -7.01115e-05 -1.29546e-06 0 -7.01099e-05 3.71225e-06 0 -6.99918e-05 8.79816e-06 0 -6.97249e-05 1.40882e-05 0 -6.9253e-05 1.97098e-05 0 -6.84549e-05 2.58243e-05 0 -6.7187e-05 3.25907e-05 0 -6.50828e-05 4.02574e-05 0 -6.18008e-05 4.90454e-05 0 -5.60325e-05 5.93307e-05 0 -4.62885e-05 7.21364e-05 0 -2.65925e-05 7.834e-05 0 -1.35719e-05 6.53191e-05 0 -6.73868e-06 5.66547e-05 0 -2.70996e-06 4.89863e-05 0 -1.60708e-07 4.28505e-05 0 1.42576e-06 3.75991e-05 0 -7.84308e-06 -3.38044e-05 0 -9.69446e-06 -3.76207e-05 0 -1.2497e-05 -4.21863e-05 0 -1.68462e-05 -4.73309e-05 0 -2.36922e-05 -5.28218e-05 0 -3.4384e-05 -5.64483e-05 0 -4.73385e-05 -5.45125e-05 0 -5.66814e-05 -4.81941e-05 0 -6.27315e-05 -4.10371e-05 0 -6.67035e-05 -3.41394e-05 0 -6.93387e-05 -2.77397e-05 0 -7.1104e-05 -2.18115e-05 0 -7.2274e-05 -1.62937e-05 0 -7.30288e-05 -1.10852e-05 0 -7.34746e-05 -6.09395e-06 0 -7.36745e-05 -1.2232e-06 0 -7.36548e-05 3.61766e-06 0 -7.34122e-05 8.52111e-06 0 -7.29129e-05 1.35774e-05 0 -7.2086e-05 1.88826e-05 0 -7.08162e-05 2.45267e-05 0 -6.89131e-05 3.0607e-05 0 -6.60908e-05 3.71779e-05 0 -6.18705e-05 4.42551e-05 0 -5.55008e-05 5.15832e-05 0 -4.57592e-05 5.80423e-05 0 -3.23283e-05 6.00601e-05 0 -2.10909e-05 5.64255e-05 0 -1.36575e-05 5.08071e-05 0 -8.71045e-06 4.53914e-05 0 -5.35701e-06 4.04106e-05 0 -3.04084e-06 3.60183e-05 0 -1.1084e-05 -3.1979e-05 0 -1.34262e-05 -3.51101e-05 0 -1.66564e-05 -3.85004e-05 0 -2.11466e-05 -4.19649e-05 0 -2.72812e-05 -4.48979e-05 0 -3.51338e-05 -4.63727e-05 0 -4.37273e-05 -4.49537e-05 0 -5.10696e-05 -4.11506e-05 0 -5.66945e-05 -3.61472e-05 0 -6.07884e-05 -3.0769e-05 0 -6.3727e-05 -2.54065e-05 0 -6.58073e-05 -2.02134e-05 0 -6.72546e-05 -1.5219e-05 0 -6.82196e-05 -1.04048e-05 0 -6.88033e-05 -5.72439e-06 0 -6.90647e-05 -1.12248e-06 0 -6.90304e-05 3.46187e-06 0 -6.86971e-05 8.08967e-06 0 -6.80317e-05 1.28212e-05 0 -6.69679e-05 1.77102e-05 0 -6.53975e-05 2.28003e-05 0 -6.31615e-05 2.81053e-05 0 -6.00265e-05 3.35892e-05 0 -5.5688e-05 3.90879e-05 0 -4.97642e-05 4.41969e-05 0 -4.20669e-05 4.80734e-05 0 -3.30649e-05 4.95132e-05 0 -2.47626e-05 4.79853e-05 0 -1.81541e-05 4.49063e-05 0 -1.31971e-05 4.11912e-05 0 -9.53452e-06 3.74405e-05 0 -6.83375e-06 3.38629e-05 0 -1.37251e-05 -2.9858e-05 0 -1.62808e-05 -3.22719e-05 0 -1.95679e-05 -3.47263e-05 0 -2.37669e-05 -3.69598e-05 0 -2.89714e-05 -3.85875e-05 0 -3.50039e-05 -3.89798e-05 0 -4.12261e-05 -3.78692e-05 0 -4.70432e-05 -3.52384e-05 0 -5.18972e-05 -3.15624e-05 0 -5.57389e-05 -2.73369e-05 0 -5.86682e-05 -2.28917e-05 0 -6.0849e-05 -1.84052e-05 0 -6.24216e-05 -1.39623e-05 0 -6.34999e-05 -9.58791e-06 0 -6.41627e-05 -5.27631e-06 0 -6.44601e-05 -1.00357e-06 0 -6.44143e-05 3.26191e-06 0 -6.40227e-05 7.55437e-06 0 -6.32568e-05 1.19045e-05 0 -6.20608e-05 1.63345e-05 0 -6.03497e-05 2.0847e-05 0 -5.80036e-05 2.54124e-05 0 -5.48764e-05 2.9939e-05 0 -5.07995e-05 3.42399e-05 0 -4.56704e-05 3.79736e-05 0 -3.95383e-05 4.06314e-05 0 -3.29663e-05 4.17232e-05 0 -2.65582e-05 4.12523e-05 0 -2.0969e-05 3.9474e-05 0 -1.63947e-05 3.70106e-05 0 -1.27678e-05 3.42485e-05 0 -9.92766e-06 3.14506e-05 0 -1.58257e-05 -2.75441e-05 0 -1.84076e-05 -2.93929e-05 0 -2.15554e-05 -3.11273e-05 0 -2.53377e-05 -3.25633e-05 0 -2.97386e-05 -3.342e-05 0 -3.4593e-05 -3.34472e-05 0 -3.96004e-05 -3.23999e-05 0 -4.42898e-05 -3.03473e-05 0 -4.84262e-05 -2.74937e-05 0 -5.18699e-05 -2.41025e-05 0 -5.46289e-05 -2.04003e-05 0 -5.67618e-05 -1.65455e-05 0 -5.83488e-05 -1.26312e-05 0 -5.94608e-05 -8.70593e-06 0 -6.01539e-05 -4.78778e-06 0 -6.04647e-05 -8.77268e-07 0 -6.04104e-05 3.0347e-06 0 -5.99886e-05 6.95958e-06 0 -5.91771e-05 1.09056e-05 0 -5.79345e-05 1.48703e-05 0 -5.61999e-05 1.88326e-05 0 -5.38978e-05 2.27396e-05 0 -5.09444e-05 2.64924e-05 0 -4.72782e-05 2.99251e-05 0 -4.28901e-05 3.28022e-05 0 -3.79216e-05 3.48501e-05 0 -3.26124e-05 3.58541e-05 0 -2.74423e-05 3.57349e-05 0 -2.27232e-05 3.47302e-05 0 -1.86365e-05 3.30864e-05 0 -1.5213e-05 3.10846e-05 0 -1.24022e-05 2.89186e-05 0 -1.7457e-05 -2.52223e-05 0 -1.99635e-05 -2.66049e-05 0 -2.28944e-05 -2.78215e-05 0 -2.62642e-05 -2.87246e-05 0 -3.00256e-05 -2.91491e-05 0 -3.40468e-05 -2.89181e-05 0 -3.81032e-05 -2.79624e-05 0 -4.2002e-05 -2.62722e-05 0 -4.5523e-05 -2.39549e-05 0 -4.85621e-05 -2.11646e-05 0 -5.10777e-05 -1.80519e-05 0 -5.30826e-05 -1.47372e-05 0 -5.461e-05 -1.13065e-05 0 -5.56998e-05 -7.81369e-06 0 -5.63862e-05 -4.29024e-06 0 -5.66935e-05 -7.51892e-07 0 -5.66331e-05 2.79389e-06 0 -5.6203e-05 6.34215e-06 0 -5.53878e-05 9.88457e-06 0 -5.41593e-05 1.34036e-05 0 -5.24796e-05 1.68651e-05 0 -5.03057e-05 2.02112e-05 0 -4.76019e-05 2.3351e-05 0 -4.43538e-05 2.61581e-05 0 -4.06034e-05 2.84748e-05 0 -3.64565e-05 3.01395e-05 0 -3.21384e-05 3.10371e-05 0 -2.78483e-05 3.11709e-05 0 -2.3821e-05 3.06052e-05 0 -2.0199e-05 2.95147e-05 0 -1.70425e-05 2.80665e-05 0 -1.43478e-05 2.64116e-05 0 -1.87112e-05 -2.29497e-05 0 -2.10901e-05 -2.39794e-05 0 -2.37843e-05 -2.48205e-05 0 -2.67834e-05 -2.53728e-05 0 -3.00362e-05 -2.55224e-05 0 -3.34434e-05 -2.518e-05 0 -3.68758e-05 -2.42786e-05 0 -4.01624e-05 -2.28291e-05 0 -4.31857e-05 -2.08875e-05 0 -4.58495e-05 -1.85443e-05 0 -4.81081e-05 -1.58986e-05 0 -4.99469e-05 -1.304e-05 0 -5.1374e-05 -1.00397e-05 0 -5.24062e-05 -6.94969e-06 0 -5.30616e-05 -3.80614e-06 0 -5.33536e-05 -6.33591e-07 0 -5.32891e-05 2.55009e-06 0 -5.28665e-05 5.72896e-06 0 -5.20758e-05 8.88437e-06 0 -5.09005e-05 1.19901e-05 0 -4.93198e-05 1.50078e-05 0 -4.73147e-05 1.7882e-05 0 -4.48756e-05 2.05375e-05 0 -4.20164e-05 2.28798e-05 0 -3.87836e-05 2.48044e-05 0 -3.52757e-05 2.62151e-05 0 -3.16141e-05 2.70506e-05 0 -2.79758e-05 2.72955e-05 0 -2.44973e-05 2.70136e-05 0 -2.12867e-05 2.62934e-05 0 -1.84036e-05 2.52501e-05 0 -1.58677e-05 2.39886e-05 0 -1.96642e-05 -2.07792e-05 0 -2.18966e-05 -2.15363e-05 0 -2.43621e-05 -2.21087e-05 0 -2.70408e-05 -2.24224e-05 0 -2.98858e-05 -2.24046e-05 0 -3.28219e-05 -2.19911e-05 0 -3.57474e-05 -2.11522e-05 0 -3.85681e-05 -1.98848e-05 0 -4.1182e-05 -1.82231e-05 0 -4.35186e-05 -1.62241e-05 0 -4.55302e-05 -1.39551e-05 0 -4.71937e-05 -1.14812e-05 0 -4.8502e-05 -8.85982e-06 0 -4.9458e-05 -6.1373e-06 0 -5.0068e-05 -3.34993e-06 0 -5.03381e-05 -5.26077e-07 0 -5.02711e-05 2.31063e-06 0 -4.98658e-05 5.13798e-06 0 -4.9117e-05 7.93168e-06 0 -4.80163e-05 1.0662e-05 0 -4.65554e-05 1.32906e-05 0 -4.47299e-05 1.57683e-05 0 -4.25461e-05 1.80347e-05 0 -4.0027e-05 2.00205e-05 0 -3.72214e-05 2.16545e-05 0 -3.42019e-05 2.28755e-05 0 -3.10741e-05 2.36454e-05 0 -2.7937e-05 2.39642e-05 0 -2.48981e-05 2.38597e-05 0 -2.20388e-05 2.33956e-05 0 -1.94133e-05 2.26466e-05 0 -1.70475e-05 2.16895e-05 0 -2.03833e-05 -1.87245e-05 0 -2.24664e-05 -1.92763e-05 0 -2.47219e-05 -1.96546e-05 0 -2.71268e-05 -1.98073e-05 0 -2.96404e-05 -1.96828e-05 0 -3.22044e-05 -1.9242e-05 0 -3.47496e-05 -1.84602e-05 0 -3.71958e-05 -1.73385e-05 0 -3.94758e-05 -1.58973e-05 0 -4.15303e-05 -1.41739e-05 0 -4.33178e-05 -1.22147e-05 0 -4.48114e-05 -1.00681e-05 0 -4.59973e-05 -7.77932e-06 0 -4.68698e-05 -5.38843e-06 0 -4.74281e-05 -2.92937e-06 0 -4.76729e-05 -4.31194e-07 0 -4.76047e-05 2.08019e-06 0 -4.72225e-05 4.57973e-06 0 -4.65241e-05 7.04094e-06 0 -4.55072e-05 9.43364e-06 0 -4.41712e-05 1.17221e-05 0 -4.25208e-05 1.38643e-05 0 -4.05696e-05 1.58122e-05 0 -3.83446e-05 1.75144e-05 0 -3.58884e-05 1.89214e-05 0 -3.32626e-05 1.9993e-05 0 -3.05371e-05 2.07057e-05 0 -2.77963e-05 2.10566e-05 0 -2.51137e-05 2.10692e-05 0 -2.25528e-05 2.07825e-05 0 -2.01593e-05 2.02495e-05 0 -1.79611e-05 1.95251e-05 0 -2.09205e-05 -1.6792e-05 0 -2.28613e-05 -1.71881e-05 0 -2.4929e-05 -1.74271e-05 0 -2.7101e-05 -1.74703e-05 0 -2.93425e-05 -1.7282e-05 0 -3.16074e-05 -1.68342e-05 0 -3.38405e-05 -1.61121e-05 0 -3.5987e-05 -1.51145e-05 0 -3.79908e-05 -1.38552e-05 0 -3.98058e-05 -1.23598e-05 0 -4.13948e-05 -1.06613e-05 0 -4.27319e-05 -8.796e-06 0 -4.38001e-05 -6.79996e-06 0 -4.45896e-05 -4.70688e-06 0 -4.50951e-05 -2.54741e-06 0 -4.53142e-05 -3.49355e-07 0 -4.52457e-05 1.86132e-06 0 -4.48888e-05 4.05917e-06 0 -4.42437e-05 6.21777e-06 0 -4.33115e-05 8.30837e-06 0 -4.20966e-05 1.0299e-05 0 -4.06083e-05 1.21541e-05 0 -3.88637e-05 1.38356e-05 0 -3.68891e-05 1.5305e-05 0 -3.47227e-05 1.65268e-05 0 -3.24126e-05 1.74732e-05 0 -3.00175e-05 1.81285e-05 0 -2.75951e-05 1.84924e-05 0 -2.52046e-05 1.85791e-05 0 -2.28958e-05 1.84168e-05 0 -2.07075e-05 1.80424e-05 0 -1.8666e-05 1.74968e-05 0 -2.1318e-05 -1.49774e-05 0 -2.31274e-05 -1.52567e-05 0 -2.50297e-05 -1.53957e-05 0 -2.70037e-05 -1.53662e-05 0 -2.90197e-05 -1.51423e-05 0 -3.10404e-05 -1.47045e-05 0 -3.30238e-05 -1.40419e-05 0 -3.49243e-05 -1.31541e-05 0 -3.66997e-05 -1.20505e-05 0 -3.83116e-05 -1.07492e-05 0 -3.97283e-05 -9.2746e-06 0 -4.09254e-05 -7.65429e-06 0 -4.18854e-05 -5.91708e-06 0 -4.25966e-05 -4.09123e-06 0 -4.30516e-05 -2.2037e-06 0 -4.32461e-05 -2.80055e-07 0 -4.31779e-05 1.65512e-06 0 -4.28466e-05 3.57747e-06 0 -4.22535e-05 5.46203e-06 0 -4.14022e-05 7.28249e-06 0 -4.02995e-05 9.01081e-06 0 -3.8957e-05 1.06173e-05 0 -3.73923e-05 1.20717e-05 0 -3.56305e-05 1.33444e-05 0 -3.37042e-05 1.44094e-05 0 -3.16536e-05 1.52471e-05 0 -2.95231e-05 1.58465e-05 0 -2.73609e-05 1.62071e-05 0 -2.52118e-05 1.63396e-05 0 -2.31162e-05 1.62637e-05 0 -2.1107e-05 1.60062e-05 0 -1.92081e-05 1.55974e-05 0 -2.16082e-05 -1.32732e-05 0 -2.32991e-05 -1.3465e-05 0 -2.50572e-05 -1.35336e-05 0 -2.68631e-05 -1.34576e-05 0 -2.86913e-05 -1.3218e-05 0 -3.0511e-05 -1.28009e-05 0 -3.22878e-05 -1.21987e-05 0 -3.39865e-05 -1.14109e-05 0 -3.5572e-05 -1.04444e-05 0 -3.70126e-05 -9.31261e-06 0 -3.82812e-05 -8.03377e-06 0 -3.93556e-05 -6.62938e-06 0 -4.0219e-05 -5.12259e-06 0 -4.08592e-05 -3.537e-06 0 -4.12677e-05 -1.89594e-06 0 -4.14396e-05 -2.22245e-07 0 -4.13723e-05 1.46164e-06 0 -4.10654e-05 3.13333e-06 0 -4.05209e-05 4.77008e-06 0 -3.97438e-05 6.34847e-06 0 -3.87419e-05 7.8443e-06 0 -3.75277e-05 9.23291e-06 0 -3.61182e-05 1.04899e-05 0 -3.45361e-05 1.15925e-05 0 -3.28099e-05 1.25211e-05 0 -3.09725e-05 1.32611e-05 0 -2.9061e-05 1.38047e-05 0 -2.71126e-05 1.41517e-05 0 -2.51641e-05 1.43096e-05 0 -2.32489e-05 1.42928e-05 0 -2.13946e-05 1.41211e-05 0 -1.9623e-05 1.38172e-05 0 -2.18167e-05 -1.16694e-05 0 -2.34025e-05 -1.17966e-05 0 -2.5036e-05 -1.18166e-05 0 -2.66994e-05 -1.17132e-05 0 -2.83706e-05 -1.14723e-05 0 -3.0024e-05 -1.10839e-05 0 -3.16312e-05 -1.05423e-05 0 -3.31629e-05 -9.84746e-06 0 -3.45905e-05 -9.00451e-06 0 -3.58872e-05 -8.02358e-06 0 -3.70297e-05 -6.91875e-06 0 -3.79982e-05 -5.70694e-06 0 -3.8777e-05 -4.40686e-06 0 -3.93543e-05 -3.03814e-06 0 -3.97216e-05 -1.62073e-06 0 -3.98734e-05 -1.74616e-07 0 -3.98071e-05 1.28029e-06 0 -3.95226e-05 2.724e-06 0 -3.90222e-05 4.13635e-06 0 -3.83113e-05 5.4969e-06 0 -3.73983e-05 6.78506e-06 0 -3.62951e-05 7.98034e-06 0 -3.50181e-05 9.06312e-06 0 -3.35875e-05 1.00155e-05 0 -3.20278e-05 1.08223e-05 0 -3.0367e-05 1.14728e-05 0 -2.86351e-05 1.1961e-05 0 -2.68636e-05 1.22866e-05 0 -2.50824e-05 1.24552e-05 0 -2.33194e-05 1.24774e-05 0 -2.15984e-05 1.2368e-05 0 -1.9939e-05 1.21443e-05 0 -2.19636e-05 -1.01553e-05 0 -2.34575e-05 -1.02354e-05 0 -2.4984e-05 -1.02233e-05 0 -2.65272e-05 -1.01067e-05 0 -2.80675e-05 -9.8751e-06 0 -2.9583e-05 -9.52091e-06 0 -3.10499e-05 -9.04019e-06 0 -3.24436e-05 -8.43294e-06 0 -3.374e-05 -7.70325e-06 0 -3.49165e-05 -6.85894e-06 0 -3.59526e-05 -5.91101e-06 0 -3.68309e-05 -4.87291e-06 0 -3.7537e-05 -3.75981e-06 0 -3.80598e-05 -2.58796e-06 0 -3.8391e-05 -1.37423e-06 0 -3.85254e-05 -1.35779e-07 0 -3.84603e-05 1.1101e-06 0 -3.81958e-05 2.34598e-06 0 -3.77344e-05 3.55437e-06 0 -3.70814e-05 4.71777e-06 0 -3.62451e-05 5.8188e-06 0 -3.5237e-05 6.84058e-06 0 -3.4072e-05 7.76724e-06 0 -3.27682e-05 8.58458e-06 0 -3.1347e-05 9.2809e-06 0 -2.98321e-05 9.84778e-06 0 -2.8249e-05 1.02807e-05 0 -2.66239e-05 1.05794e-05 0 -2.4982e-05 1.07479e-05 0 -2.3347e-05 1.07941e-05 0 -2.17398e-05 1.07293e-05 0 -2.0178e-05 1.05666e-05 0 -2.20645e-05 -8.7198e-06 0 -2.34792e-05 -8.76653e-06 0 -2.4915e-05 -8.73496e-06 0 -2.63573e-05 -8.61575e-06 0 -2.77888e-05 -8.401e-06 0 -2.91905e-05 -8.08513e-06 0 -3.05419e-05 -7.66524e-06 0 -3.1822e-05 -7.1415e-06 0 -3.30101e-05 -6.51715e-06 0 -3.40867e-05 -5.79833e-06 0 -3.5034e-05 -4.99372e-06 0 -3.58364e-05 -4.11405e-06 0 -3.6481e-05 -3.1716e-06 0 -3.69573e-05 -2.17972e-06 0 -3.72578e-05 -1.15249e-06 0 -3.73774e-05 -1.04375e-07 0 -3.73136e-05 9.49881e-07 0 -3.70665e-05 1.99544e-06 0 -3.66387e-05 3.01742e-06 0 -3.60354e-05 4.00108e-06 0 -3.52644e-05 4.93196e-06 0 -3.43365e-05 5.79623e-06 0 -3.32653e-05 6.58109e-06 0 -3.2067e-05 7.27527e-06 0 -3.07602e-05 7.86957e-06 0 -2.93656e-05 8.35744e-06 0 -2.79049e-05 8.73534e-06 0 -2.64005e-05 9.00298e-06 0 -2.48742e-05 9.16334e-06 0 -2.33463e-05 9.22234e-06 0 -2.18353e-05 9.18845e-06 0 -2.03571e-05 9.07182e-06 0 -2.21317e-05 -7.35208e-06 0 -2.34792e-05 -7.37593e-06 0 -2.48391e-05 -7.33451e-06 0 -2.61978e-05 -7.22067e-06 0 -2.75398e-05 -7.02851e-06 0 -2.88482e-05 -6.75386e-06 0 -3.01052e-05 -6.39466e-06 0 -3.12924e-05 -5.95116e-06 0 -3.23919e-05 -5.42595e-06 0 -3.33866e-05 -4.82387e-06 0 -3.42606e-05 -4.15176e-06 0 -3.50002e-05 -3.41816e-06 0 -3.55935e-05 -2.63293e-06 0 -3.60311e-05 -1.80691e-06 0 -3.63059e-05 -9.51651e-07 0 -3.64132e-05 -7.91382e-08 0 -3.63506e-05 7.98366e-07 0 -3.61184e-05 1.66848e-06 0 -3.5719e-05 2.51884e-06 0 -3.51574e-05 3.33726e-06 0 -3.4441e-05 4.11189e-06 0 -3.35798e-05 4.83155e-06 0 -3.25861e-05 5.48598e-06 0 -3.14745e-05 6.06627e-06 0 -3.02614e-05 6.56519e-06 0 -2.89651e-05 6.97762e-06 0 -2.76045e-05 7.30078e-06 0 -2.61989e-05 7.53436e-06 0 -2.47675e-05 7.68055e-06 0 -2.33282e-05 7.74377e-06 0 -2.18976e-05 7.73043e-06 0 -2.049e-05 7.64829e-06 0 -2.21747e-05 -6.04153e-06 0 -2.34666e-05 -6.05067e-06 0 -2.47642e-05 -6.00669e-06 0 -2.60547e-05 -5.90422e-06 0 -2.73241e-05 -5.73885e-06 0 -2.85573e-05 -5.50752e-06 0 -2.97383e-05 -5.20878e-06 0 -3.08508e-05 -4.84291e-06 0 -3.18789e-05 -4.41195e-06 0 -3.28074e-05 -3.91971e-06 0 -3.36221e-05 -3.37152e-06 0 -3.43106e-05 -2.77407e-06 0 -3.48622e-05 -2.13516e-06 0 -3.52682e-05 -1.46342e-06 0 -3.55219e-05 -7.68112e-07 0 -3.56191e-05 -5.8913e-08 0 -3.55577e-05 6.54242e-07 0 -3.53378e-05 1.36131e-06 0 -3.49619e-05 2.05228e-06 0 -3.44346e-05 2.71732e-06 0 -3.37629e-05 3.34697e-06 0 -3.2956e-05 3.93232e-06 0 -3.20252e-05 4.46531e-06 0 -3.09836e-05 4.93897e-06 0 -2.98462e-05 5.34769e-06 0 -2.8629e-05 5.6875e-06 0 -2.73488e-05 5.95621e-06 0 -2.6023e-05 6.15353e-06 0 -2.46684e-05 6.28103e-06 0 -2.33012e-05 6.34201e-06 0 -2.19363e-05 6.34127e-06 0 -2.05872e-05 6.28467e-06 0 -2.22009e-05 -4.77794e-06 0 -2.34482e-05 -4.77857e-06 0 -2.4696e-05 -4.73753e-06 0 -2.59325e-05 -4.65089e-06 0 -2.71446e-05 -4.51541e-06 0 -2.83186e-05 -4.3289e-06 0 -2.94398e-05 -4.09034e-06 0 -3.04937e-05 -3.80002e-06 0 -3.14657e-05 -3.45952e-06 0 -3.23421e-05 -3.07173e-06 0 -3.31102e-05 -2.64072e-06 0 -3.37583e-05 -2.17159e-06 0 -3.42769e-05 -1.67032e-06 0 -3.46577e-05 -1.14357e-06 0 -3.48948e-05 -5.98505e-07 0 -3.49841e-05 -4.26622e-08 0 -3.49237e-05 5.16208e-07 0 -3.47137e-05 1.07027e-06 0 -3.43565e-05 1.6117e-06 0 -3.38566e-05 2.13288e-06 0 -3.32203e-05 2.62647e-06 0 -3.24564e-05 3.08564e-06 0 -3.15753e-05 3.50421e-06 0 -3.05889e-05 3.87689e-06 0 -2.95109e-05 4.19942e-06 0 -2.83558e-05 4.46879e-06 0 -2.71389e-05 4.68334e-06 0 -2.58758e-05 4.8428e-06 0 -2.45817e-05 4.94828e-06 0 -2.32716e-05 5.00218e-06 0 -2.19591e-05 5.00801e-06 0 -2.06567e-05 4.97012e-06 0 -2.2216e-05 -3.55144e-06 0 -2.34291e-05 -3.54816e-06 0 -2.46389e-05 -3.51413e-06 0 -2.58344e-05 -3.44655e-06 0 -2.70032e-05 -3.34319e-06 0 -2.81325e-05 -3.20253e-06 0 -2.92088e-05 -3.02389e-06 0 -3.02185e-05 -2.80752e-06 0 -3.11483e-05 -2.55457e-06 0 -3.19855e-05 -2.26714e-06 0 -3.27183e-05 -1.94818e-06 0 -3.3336e-05 -1.60137e-06 0 -3.38296e-05 -1.23106e-06 0 -3.41914e-05 -8.42089e-07 0 -3.44159e-05 -4.39714e-07 0 -3.44992e-05 -2.94549e-08 0 -3.44396e-05 3.82994e-07 0 -3.42372e-05 7.9187e-07 0 -3.38943e-05 1.19144e-06 0 -3.34151e-05 1.57611e-06 0 -3.28058e-05 1.94052e-06 0 -3.20744e-05 2.2797e-06 0 -3.12308e-05 2.58919e-06 0 -3.0286e-05 2.86515e-06 0 -2.92527e-05 3.10452e-06 0 -2.81444e-05 3.30515e-06 0 -2.69751e-05 3.4658e-06 0 -2.57593e-05 3.58627e-06 0 -2.4511e-05 3.6673e-06 0 -2.32441e-05 3.71057e-06 0 -2.19715e-05 3.71853e-06 0 -2.0705e-05 3.69426e-06 0 -2.2224e-05 -2.35247e-06 0 -2.34129e-05 -2.34855e-06 0 -2.45961e-05 -2.32436e-06 0 -2.57628e-05 -2.27812e-06 0 -2.69013e-05 -2.20842e-06 0 -2.79994e-05 -2.1143e-06 0 -2.90443e-05 -1.99535e-06 0 -3.00233e-05 -1.85174e-06 0 -3.09237e-05 -1.68424e-06 0 -3.17335e-05 -1.49422e-06 0 -3.24417e-05 -1.28358e-06 0 -3.30382e-05 -1.05474e-06 0 -3.35142e-05 -8.10509e-07 0 -3.38628e-05 -5.54063e-07 0 -3.40785e-05 -2.88836e-07 0 -3.41576e-05 -1.84495e-08 0 -3.40986e-05 2.53359e-07 0 -3.39015e-05 5.22803e-07 0 -3.35686e-05 7.86122e-07 0 -3.3104e-05 1.03965e-06 0 -3.25136e-05 1.27988e-06 0 -3.1805e-05 1.50357e-06 0 -3.09875e-05 1.70782e-06 0 -3.00718e-05 1.89014e-06 0 -2.90698e-05 2.04855e-06 0 -2.7994e-05 2.18163e-06 0 -2.6858e-05 2.28861e-06 0 -2.56751e-05 2.36931e-06 0 -2.44588e-05 2.42421e-06 0 -2.32222e-05 2.45437e-06 0 -2.19776e-05 2.46133e-06 0 -2.07363e-05 2.44706e-06 0 -2.22278e-05 -1.1717e-06 0 -2.34022e-05 -1.16923e-06 0 -2.45696e-05 -1.1567e-06 0 -2.57192e-05 -1.13323e-06 0 -2.68399e-05 -1.09815e-06 0 -2.79195e-05 -1.05099e-06 0 -2.89459e-05 -9.91558e-07 0 -2.99067e-05 -9.19945e-07 0 -3.07897e-05 -8.36534e-07 0 -3.15834e-05 -7.41997e-07 0 -3.22771e-05 -6.37274e-07 0 -3.2861e-05 -5.23552e-07 0 -3.33267e-05 -4.02222e-07 0 -3.36674e-05 -2.74852e-07 0 -3.38778e-05 -1.43138e-07 0 -3.39545e-05 -8.87325e-09 0 -3.38958e-05 1.2609e-07 0 -3.3702e-05 2.59878e-07 0 -3.33751e-05 3.90626e-07 0 -3.29191e-05 5.16521e-07 0 -3.23398e-05 6.35833e-07 0 -3.16447e-05 7.4696e-07 0 -3.08427e-05 8.48469e-07 0 -2.99442e-05 9.39139e-07 0 -2.89605e-05 1.01799e-06 0 -2.7904e-05 1.08434e-06 0 -2.67876e-05 1.13779e-06 0 -2.56242e-05 1.17825e-06 0 -2.44269e-05 1.20596e-06 0 -2.32082e-05 1.22142e-06 0 -2.19802e-05 1.22539e-06 0 -2.0754e-05 1.21882e-06 0 -2.22288e-05 -0 0 -2.33985e-05 -1.55588e-19 0 -2.45606e-05 1.30386e-19 0 -2.57046e-05 9.93351e-20 0 -2.68193e-05 -0 0 -2.78929e-05 -0 0 -2.89131e-05 -0 0 -2.98679e-05 -0 0 -3.07452e-05 -0 0 -3.15336e-05 -0 0 -3.22224e-05 -1.5883e-20 0 -3.28021e-05 -2.26525e-19 0 -3.32645e-05 -3.55808e-20 0 -3.36026e-05 2.3669e-19 0 -3.38113e-05 4.81654e-20 0 -3.38872e-05 -0 0 -3.38286e-05 -0 0 -3.36358e-05 -0 0 -3.33108e-05 5.31993e-20 0 -3.28577e-05 2.295e-19 0 -3.22822e-05 1.92541e-20 0 -3.15915e-05 -0 0 -3.07946e-05 -0 0 -2.99018e-05 -0 0 -2.89242e-05 -8.2122e-20 0 -2.78741e-05 -1.73257e-19 0 -2.67641e-05 -3.29813e-21 0 -2.56072e-05 -0 0 -2.44161e-05 -0 0 -2.32034e-05 -0 0 -2.19809e-05 -0 0 -2.07596e-05 -0 0 </DataArray> 
</PointData> 
<Points> 
<DataArray type="Float32" NumberOfComponents="3"> 