<?xml version="1.0"?> 
<VTKFile type="StructuredGrid" version="0.1"> 
<StructuredGrid WholeExtent="0 31 0 31 0 0"> 
<Piece Extent="0 31 0 31 0 0"> 
<PointData>
<DataArray type="Float32" Name="B" format="ascii" NumberOfComponents="3"> 
-0.000627003 -0.00205488 0 -0.000373266 8.49426e-05 0 -0.000250624 -7.82952e-05 0 -9.67675e-05 -3.66095e-05 0 -0.000117386 -4.41097e-05 0 -6.95788e-05 -3.80013e-05 0 -7.24923e-05 -3.49625e-05 0 -5.48748e-05 -3.22855e-05 0 -5.20688e-05 -2.87344e-05 0 -4.39156e-05 -2.63888e-05 0 -4.01916e-05 -2.35346e-05 0 -3.53609e-05 -2.14177e-05 0 -3.19792e-05 -1.922e-05 0 -2.85597e-05 -1.74334e-05 0 -2.57203e-05 -1.57388e-05 0 -2.30607e-05 -1.42954e-05 0 -2.07063e-05 -1.29842e-05 0 -1.8541e-05 -1.18452e-05 0 -1.65749e-05 -1.08314e-05 0 -1.47658e-05 -9.94605e-06 0 -1.31011e-05 -9.16735e-06 0 -1.1559e-05 -8.48949e-06 0 -1.01247e-05 -7.90029e-06 0 -8.78319e-06 -7.39303e-06 0 -7.52141e-06 -6.96003e-06 0 -6.32726e-06 -6.59581e-06 0 -5.18956e-06 -6.29529e-06 0 -4.09788e-06 -6.05462e-06 0 -3.04235e-06 -5.87057e-06 0 -2.01355e-06 -5.74078e-06 0 -1.00239e-06 -5.66357e-06 0 0 -5.63794e-06 0 3.67065e-05 -0.000463509 0 -0.000193077 -0.000245311 0 -0.000148089 -0.000124208 0 -0.000116205 -8.32078e-05 0 -8.84558e-05 -6.38481e-05 0 -7.42998e-05 -5.29952e-05 0 -6.17963e-05 -4.54984e-05 0 -5.38823e-05 -3.9843e-05 0 -4.68865e-05 -3.52414e-05 0 -4.16304e-05 -3.13704e-05 0 -3.69869e-05 -2.80377e-05 0 -3.31283e-05 -2.51404e-05 0 -2.96947e-05 -2.26024e-05 0 -2.6692e-05 -2.03745e-05 0 -2.39932e-05 -1.84135e-05 0 -2.15726e-05 -1.66874e-05 0 -1.93758e-05 -1.51672e-05 0 -1.73775e-05 -1.38294e-05 0 -1.5548e-05 -1.26529e-05 0 -1.38669e-05 -1.16203e-05 0 -1.23145e-05 -1.07162e-05 0 -1.08747e-05 -9.92759e-06 0 -9.53261e-06 -9.2431e-06 0 -8.2753e-06 -8.65325e-06 0 -7.09078e-06 -8.14991e-06 0 -5.96812e-06 -7.7263e-06 0 -4.89715e-06 -7.37678e-06 0 -3.86836e-06 -7.09675e-06 0 -2.87274e-06 -6.88259e-06 0 -1.90166e-06 -6.73154e-06 0 -9.46802e-07 -6.64167e-06 0 -3.32754e-20 -6.61184e-06 0 1.88985e-06 -0.00024808 0 -6.91042e-05 -0.000203441 0 -9.1404e-05 -0.000142246 0 -8.41069e-05 -0.000103035 0 -7.33268e-05 -7.92652e-05 0 -6.28318e-05 -6.43975e-05 0 -5.46391e-05 -5.42137e-05 0 -4.77682e-05 -4.66708e-05 0 -4.22591e-05 -4.08009e-05 0 -3.7575e-05 -3.59989e-05 0 -3.36197e-05 -3.19976e-05 0 -3.01669e-05 -2.85769e-05 0 -2.71417e-05 -2.56349e-05 0 -2.44452e-05 -2.30739e-05 0 -2.20288e-05 -2.08404e-05 0 -1.98433e-05 -1.8882e-05 0 -1.78572e-05 -1.71642e-05 0 -1.60418e-05 -1.56549e-05 0 -1.43755e-05 -1.43298e-05 0 -1.28389e-05 -1.31672e-05 0 -1.14161e-05 -1.21497e-05 0 -1.00927e-05 -1.1262e-05 0 -8.8561e-06 -1.04914e-05 0 -7.69484e-06 -9.82721e-06 0 -6.5985e-06 -9.26024e-06 0 -5.55744e-06 -8.78289e-06 0 -4.56268e-06 -8.38891e-06 0 -3.60576e-06 -8.07317e-06 0 -2.67865e-06 -7.83163e-06 0 -1.77362e-06 -7.66124e-06 0 -8.83178e-07 -7.55985e-06 0 -3.11995e-20 -7.5262e-06 0 1.05041e-05 -0.000173669 0 -3.06916e-05 -0.000162563 0 -5.13794e-05 -0.000134629 0 -5.70554e-05 -0.000107105 0 -5.48502e-05 -8.64958e-05 0 -5.03629e-05 -7.1457e-05 0 -4.53589e-05 -6.03809e-05 0 -4.07438e-05 -5.19532e-05 0 -3.65824e-05 -4.52848e-05 0 -3.2929e-05 -3.9877e-05 0 -2.969e-05 -3.53662e-05 0 -2.68181e-05 -3.15542e-05 0 -2.42454e-05 -2.82815e-05 0 -2.19298e-05 -2.54536e-05 0 -1.98303e-05 -2.29905e-05 0 -1.7918e-05 -2.08388e-05 0 -1.61673e-05 -1.89525e-05 0 -1.45582e-05 -1.72975e-05 0 -1.30732e-05 -1.58443e-05 0 -1.16976e-05 -1.45696e-05 0 -1.04185e-05 -1.34536e-05 0 -9.22418e-06 -1.24796e-05 0 -8.10439e-06 -1.16337e-05 0 -7.04959e-06 -1.09042e-05 0 -6.05103e-06 -1.02811e-05 0 -5.10054e-06 -9.75633e-06 0 -4.19043e-06 -9.32297e-06 0 -3.31341e-06 -8.97555e-06 0 -2.46251e-06 -8.70968e-06 0 -1.631e-06 -8.52208e-06 0 -8.12306e-07 -8.41044e-06 0 0 -8.37338e-06 0 8.77407e-06 -0.000147606 0 -1.24224e-05 -0.000138231 0 -2.84329e-05 -0.000122051 0 -3.63248e-05 -0.000104187 0 -3.86916e-05 -8.79493e-05 0 -3.79095e-05 -7.46483e-05 0 -3.57862e-05 -6.40158e-05 0 -3.31455e-05 -5.54885e-05 0 -3.04439e-05 -4.85721e-05 0 -2.78399e-05 -4.28534e-05 0 -2.54101e-05 -3.80632e-05 0 -2.31638e-05 -3.39893e-05 0 -2.10979e-05 -3.0494e-05 0 -1.91972e-05 -2.74675e-05 0 -1.74468e-05 -2.48337e-05 0 -1.58313e-05 -2.25304e-05 0 -1.43368e-05 -2.05115e-05 0 -1.29508e-05 -1.87385e-05 0 -1.1662e-05 -1.71812e-05 0 -1.04602e-05 -1.58139e-05 0 -9.33614e-06 -1.46159e-05 0 -8.28132e-06 -1.35695e-05 0 -7.28781e-06 -1.266e-05 0 -6.34821e-06 -1.1875e-05 0 -5.45558e-06 -1.1204e-05 0 -4.60332e-06 -1.06385e-05 0 -3.78513e-06 -1.01713e-05 0 -2.99498e-06 -9.79653e-06 0 -2.22702e-06 -9.50963e-06 0 -1.47557e-06 -9.30713e-06 0 -7.3506e-07 -9.18659e-06 0 -7.21363e-22 -9.14657e-06 0 1.1755e-05 -0.000126748 0 -2.2341e-06 -0.000121922 0 -1.3723e-05 -0.000111511 0 -2.13608e-05 -9.88147e-05 0 -2.53375e-05 -8.6344e-05 0 -2.67584e-05 -7.51376e-05 0 -2.66037e-05 -6.55372e-05 0 -2.56007e-05 -5.74573e-05 0 -2.41748e-05 -5.06625e-05 0 -2.25775e-05 -4.49278e-05 0 -2.09392e-05 -4.00446e-05 0 -1.93303e-05 -3.58576e-05 0 -1.77838e-05 -3.22387e-05 0 -1.6315e-05 -2.9094e-05 0 -1.49285e-05 -2.63471e-05 0 -1.36238e-05 -2.394e-05 0 -1.23979e-05 -2.18253e-05 0 -1.12463e-05 -1.99652e-05 0 -1.01638e-05 -1.83285e-05 0 -9.14511e-06 -1.68896e-05 0 -8.18471e-06 -1.5627e-05 0 -7.27724e-06 -1.45229e-05 0 -6.41738e-06 -1.35621e-05 0 -5.59993e-06 -1.27319e-05 0 -4.81981e-06 -1.20218e-05 0 -4.07207e-06 -1.14227e-05 0 -3.35185e-06 -1.09274e-05 0 -2.65439e-06 -1.05298e-05 0 -1.97505e-06 -1.02254e-05 0 -1.30922e-06 -1.00104e-05 0 -6.52368e-07 -9.88238e-06 0 -5.92217e-20 -9.83988e-06 0 1.52211e-05 -0.000117036 0 5.46107e-06 -0.000110864 0 -3.35135e-06 -0.000102716 0 -1.00939e-05 -9.31789e-05 0 -1.45617e-05 -8.33026e-05 0 -1.71011e-05 -7.39565e-05 0 -1.82372e-05 -6.55313e-05 0 -1.84406e-05 -5.81299e-05 0 -1.80635e-05 -5.17084e-05 0 -1.73438e-05 -4.61513e-05 0 -1.64346e-05 -4.13402e-05 0 -1.54309e-05 -3.71596e-05 0 -1.43909e-05 -3.35146e-05 0 -1.33496e-05 -3.03242e-05 0 -1.23279e-05 -2.75234e-05 0 -1.13374e-05 -2.50584e-05 0 -1.03848e-05 -2.28858e-05 0 -9.47269e-06 -2.09692e-05 0 -8.60193e-06 -1.92788e-05 0 -7.77172e-06 -1.77894e-05 0 -6.98037e-06 -1.64802e-05 0 -6.22557e-06 -1.53333e-05 0 -5.50456e-06 -1.43339e-05 0 -4.81434e-06 -1.34692e-05 0 -4.1517e-06 -1.27286e-05 0 -3.51332e-06 -1.21033e-05 0 -2.8958e-06 -1.15859e-05 0 -2.29571e-06 -1.11703e-05 0 -1.70956e-06 -1.08518e-05 0 -1.13389e-06 -1.06268e-05 0 -5.652e-07 -1.04928e-05 0 -3.21886e-20 -1.04483e-05 0 1.96899e-05 -0.000107594 0 1.20362e-05 -0.000102359 0 4.80438e-06 -9.55113e-05 0 -1.20482e-06 -8.7736e-05 0 -5.73027e-06 -7.96729e-05 0 -8.83771e-06 -7.18078e-05 0 -1.07803e-05 -6.44716e-05 0 -1.18425e-05 -5.78198e-05 0 -1.22802e-05 -5.18839e-05 0 -1.22906e-05 -4.66341e-05 0 -1.20184e-05 -4.2006e-05 0 -1.15641e-05 -3.79303e-05 0 -1.09969e-05 -3.43376e-05 0 -1.03633e-05 -3.11672e-05 0 -9.695e-06 -2.83651e-05 0 -9.01277e-06 -2.5886e-05 0 -8.33059e-06 -2.36912e-05 0 -7.65753e-06 -2.17479e-05 0 -6.99932e-06 -2.00286e-05 0 -6.35938e-06 -1.85098e-05 0 -5.73943e-06 -1.71715e-05 0 -5.14005e-06 -1.59968e-05 0 -4.56093e-06 -1.49713e-05 0 -4.00114e-06 -1.40826e-05 0 -3.45931e-06 -1.33206e-05 0 -2.93369e-06 -1.26763e-05 0 -2.42233e-06 -1.21427e-05 0 -1.92307e-06 -1.17138e-05 0 -1.43361e-06 -1.13849e-05 0 -9.51584e-07 -1.11524e-05 0 -4.74541e-07 -1.1014e-05 0 0 -1.0968e-05 0 2.49125e-05 -0.000100971 0 1.80472e-05 -9.52795e-05 0 1.16712e-05 -8.91751e-05 0 6.13379e-06 -8.25991e-05 0 1.65962e-06 -7.5805e-05 0 -1.74639e-06 -6.90993e-05 0 -4.19508e-06 -6.2711e-05 0 -5.86002e-06 -5.67801e-05 0 -6.91455e-06 -5.13714e-05 0 -7.51317e-06 -4.64923e-05 0 -7.77888e-06 -4.21211e-05 0 -7.80663e-06 -3.82183e-05 0 -7.66658e-06 -3.47403e-05 0 -7.41027e-06 -3.16429e-05 0 -7.07487e-06 -2.88852e-05 0 -6.68728e-06 -2.64303e-05 0 -6.26676e-06 -2.42458e-05 0 -5.82713e-06 -2.23034e-05 0 -5.37819e-06 -2.05786e-05 0 -4.92684e-06 -1.90501e-05 0 -4.47779e-06 -1.76996e-05 0 -4.03417e-06 -1.65114e-05 0 -3.59789e-06 -1.5472e-05 0 -3.16995e-06 -1.45698e-05 0 -2.75065e-06 -1.37949e-05 0 -2.33979e-06 -1.31389e-05 0 -1.93675e-06 -1.2595e-05 0 -1.54061e-06 -1.21574e-05 0 -1.15022e-06 -1.18217e-05 0 -7.64286e-07 -1.15843e-05 0 -3.81377e-07 -1.14428e-05 0 0 -1.13958e-05 0 3.0076e-05 -9.39597e-05 0 2.36256e-05 -8.88343e-05 0 1.76436e-05 -8.33743e-05 0 1.23837e-05 -7.76657e-05 0 7.95468e-06 -7.18393e-05 0 4.38248e-06 -6.60584e-05 0 1.60432e-06 -6.04781e-05 0 -4.827e-07 -5.52111e-05 0 -2.00025e-06 -5.03227e-05 0 -3.06335e-06 -4.58412e-05 0 -3.7735e-06 -4.17663e-05 0 -4.21374e-06 -3.8082e-05 0 -4.45032e-06 -3.47628e-05 0 -4.53452e-06 -3.17797e-05 0 -4.50573e-06 -2.91031e-05 0 -4.39381e-06 -2.67049e-05 0 -4.2214e-06 -2.4559e-05 0 -4.00556e-06 -2.2642e-05 0 -3.75913e-06 -2.09327e-05 0 -3.49173e-06 -1.94128e-05 0 -3.21053e-06 -1.80658e-05 0 -2.92081e-06 -1.68777e-05 0 -2.6264e-06 -1.58359e-05 0 -2.33002e-06 -1.49299e-05 0 -2.0335e-06 -1.41504e-05 0 -1.73802e-06 -1.34897e-05 0 -1.44423e-06 -1.29412e-05 0 -1.15236e-06 -1.24995e-05 0 -8.62362e-07 -1.21603e-05 0 -5.73949e-07 -1.19203e-05 0 -2.86677e-07 -1.17772e-05 0 0 -1.17297e-05 0 3.50949e-05 -8.74375e-05 0 2.8673e-05 -8.26613e-05 0 2.28922e-05 -7.78287e-05 0 1.77783e-05 -7.2864e-05 0 1.33834e-05 -6.78234e-05 0 9.70726e-06 -6.28091e-05 0 6.71188e-06 -5.79247e-05 0 4.3253e-06 -5.3256e-05 0 2.46277e-06 -4.88633e-05 0 1.03632e-06 -4.47802e-05 0 -3.4972e-08 -4.10198e-05 0 -8.22114e-07 -3.758e-05 0 -1.38438e-06 -3.44492e-05 0 -1.77024e-06 -3.16101e-05 0 -2.01849e-06 -2.90431e-05 0 -2.15992e-06 -2.67276e-05 0 -2.21877e-06 -2.46439e-05 0 -2.21405e-06 -2.27731e-05 0 -2.16064e-06 -2.1098e-05 0 -2.07012e-06 -1.96028e-05 0 -1.95156e-06 -1.82736e-05 0 -1.81196e-06 -1.70977e-05 0 -1.65675e-06 -1.60643e-05 0 -1.49011e-06 -1.51637e-05 0 -1.31523e-06 -1.43875e-05 0 -1.13451e-06 -1.37285e-05 0 -9.49726e-07 -1.31807e-05 0 -7.62206e-07 -1.27392e-05 0 -5.72892e-07 -1.23998e-05 0 -3.82455e-07 -1.21596e-05 0 -1.91373e-07 -1.20163e-05 0 0 -1.19687e-05 0 3.94409e-05 -8.06641e-05 0 3.31257e-05 -7.66192e-05 0 2.74618e-05 -7.24353e-05 0 2.24503e-05 -6.81413e-05 0 1.80833e-05 -6.37822e-05 0 1.43477e-05 -5.94267e-05 0 1.12073e-05 -5.51504e-05 0 8.60964e-06 -5.1021e-05 0 6.49053e-06 -4.70906e-05 0 4.78285e-06 -4.33941e-05 0 3.42127e-06 -3.9951e-05 0 2.34655e-06 -3.67682e-05 0 1.50673e-06 -3.38434e-05 0 8.57795e-07 -3.11684e-05 0 3.63015e-07 -2.87315e-05 0 -7.74356e-09 -2.65189e-05 0 -2.79029e-07 -2.45161e-05 0 -4.70707e-07 -2.27088e-05 0 -5.98808e-07 -2.10835e-05 0 -6.76231e-07 -1.96272e-05 0 -7.13349e-07 -1.83281e-05 0 -7.18495e-07 -1.71756e-05 0 -6.98363e-07 -1.61602e-05 0 -6.58327e-07 -1.52733e-05 0 -6.02703e-07 -1.45074e-05 0 -5.34963e-07 -1.38563e-05 0 -4.57906e-07 -1.33142e-05 0 -3.73803e-07 -1.28769e-05 0 -2.84512e-07 -1.25404e-05 0 -1.91585e-07 -1.23021e-05 0 -9.63516e-08 -1.21599e-05 0 0 -1.21126e-05 0 4.31147e-05 -7.40771e-05 0 3.69137e-05 -7.06942e-05 0 3.1386e-05 -6.71575e-05 0 2.64728e-05 -6.34891e-05 0 2.21495e-05 -5.9738e-05 0 1.83891e-05 -5.59635e-05 0 1.51585e-05 -5.22268e-05 0 1.24146e-05 -4.8584e-05 0 1.01075e-05 -4.50813e-05 0 8.18417e-06 -4.17526e-05 0 6.59202e-06 -3.86205e-05 0 5.28159e-06 -3.56973e-05 0 4.20825e-06 -3.29871e-05 0 3.33276e-06 -3.04884e-05 0 2.62144e-06 -2.81956e-05 0 2.04574e-06 -2.61002e-05 0 1.58175e-06 -2.41928e-05 0 1.20958e-06 -2.24629e-05 0 9.12764e-07 -2.09001e-05 0 6.77696e-07 -1.94944e-05 0 4.9316e-07 -1.82363e-05 0 3.49905e-07 -1.71167e-05 0 2.40295e-07 -1.61277e-05 0 1.58014e-07 -1.52619e-05 0 9.78222e-08 -1.45129e-05 0 5.53514e-08 -1.3875e-05 0 2.69352e-08 -1.33433e-05 0 9.46497e-09 -1.29137e-05 0 2.68136e-10 -1.2583e-05 0 -2.99749e-09 -1.23486e-05 0 -2.43656e-09 -1.22087e-05 0 0 -1.21622e-05 0 4.60086e-05 -6.76281e-05 0 4.00502e-05 -6.49402e-05 0 3.46958e-05 -6.20145e-05 0 2.99069e-05 -5.89209e-05 0 2.56506e-05 -5.57176e-05 0 2.18993e-05 -5.24615e-05 0 1.86217e-05 -4.92074e-05 0 1.57823e-05 -4.60049e-05 0 1.33408e-05 -4.28958e-05 0 1.12549e-05 -3.99129e-05 0 9.48183e-06 -3.70799e-05 0 7.9805e-06 -3.44123e-05 0 6.71283e-06 -3.19187e-05 0 5.64445e-06 -2.96022e-05 0 4.74503e-06 -2.74618e-05 0 3.98819e-06 -2.54936e-05 0 3.35128e-06 -2.36919e-05 0 2.815e-06 -2.20498e-05 0 2.36298e-06 -2.05598e-05 0 1.98142e-06 -1.92143e-05 0 1.65866e-06 -1.80059e-05 0 1.38488e-06 -1.69274e-05 0 1.1518e-06 -1.59721e-05 0 9.52411e-07 -1.5134e-05 0 7.80743e-07 -1.44074e-05 0 6.31704e-07 -1.37876e-05 0 5.00903e-07 -1.32703e-05 0 3.84514e-07 -1.28519e-05 0 2.79157e-07 -1.25294e-05 0 1.81789e-07 -1.23007e-05 0 8.96154e-08 -1.21642e-05 0 1.00953e-20 -1.21188e-05 0 4.82481e-05 -6.1517e-05 0 4.25791e-05 -5.94137e-05 0 3.74438e-05 -5.70385e-05 0 3.28081e-05 -5.44625e-05 0 2.86467e-05 -5.17496e-05 0 2.49347e-05 -4.89567e-05 0 2.16462e-05 -4.61353e-05 0 1.87515e-05 -4.33309e-05 0 1.62186e-05 -4.05826e-05 0 1.40131e-05 -3.79218e-05 0 1.21004e-05 -3.53726e-05 0 1.04464e-05 -3.29524e-05 0 9.0188e-06 -3.06726e-05 0 7.78786e-06 -2.85395e-05 0 6.72666e-06 -2.65556e-05 0 5.81128e-06 -2.47204e-05 0 5.02069e-06 -2.30314e-05 0 4.33658e-06 -2.14846e-05 0 3.74312e-06 -2.0075e-05 0 3.22664e-06 -1.87972e-05 0 2.77543e-06 -1.76457e-05 0 2.37937e-06 -1.6615e-05 0 2.02981e-06 -1.56996e-05 0 1.71923e-06 -1.48946e-05 0 1.44115e-06 -1.41954e-05 0 1.18991e-06 -1.35979e-05 0 9.60533e-07 -1.30985e-05 0 7.48589e-07 -1.26941e-05 0 5.50096e-07 -1.23822e-05 0 3.61407e-07 -1.21609e-05 0 1.79122e-07 -1.20286e-05 0 8.48901e-20 -1.19846e-05 0 4.99098e-05 -5.57601e-05 0 4.45799e-05 -5.41606e-05 0 3.96924e-05 -5.22614e-05 0 3.52354e-05 -5.014e-05 0 3.11927e-05 -4.78609e-05 0 2.75464e-05 -4.54795e-05 0 2.4276e-05 -4.30449e-05 0 2.13587e-05 -4.05997e-05 0 1.87687e-05 -3.81806e-05 0 1.64788e-05 -3.58178e-05 0 1.44606e-05 -3.35353e-05 0 1.26863e-05 -3.13514e-05 0 1.11286e-05 -2.92791e-05 0 9.76202e-06 -2.7327e-05 0 8.56297e-06 -2.55002e-05 0 7.51004e-06 -2.38007e-05 0 6.58403e-06 -2.22286e-05 0 5.76789e-06 -2.0782e-05 0 5.04658e-06 -1.94583e-05 0 4.40689e-06 -1.82539e-05 0 3.83727e-06 -1.71649e-05 0 3.32758e-06 -1.61872e-05 0 2.86898e-06 -1.53166e-05 0 2.45369e-06 -1.45494e-05 0 2.07484e-06 -1.38817e-05 0 1.72636e-06 -1.33101e-05 0 1.4028e-06 -1.28318e-05 0 1.09927e-06 -1.2444e-05 0 8.11272e-07 -1.21446e-05 0 5.34649e-07 -1.1932e-05 0 2.6548e-07 -1.18049e-05 0 1.48429e-20 -1.17626e-05 0 5.11232e-05 -5.04014e-05 0 4.61351e-05 -4.92031e-05 0 4.15104e-05 -4.77043e-05 0 3.72481e-05 -4.59741e-05 0 3.3342e-05 -4.40733e-05 0 2.97815e-05 -4.20546e-05 0 2.65526e-05 -3.99639e-05 0 2.36382e-05 -3.78414e-05 0 2.10187e-05 -3.57213e-05 0 1.86726e-05 -3.36326e-05 0 1.65773e-05 -3.15986e-05 0 1.47098e-05 -2.9638e-05 0 1.30476e-05 -2.77647e-05 0 1.1569e-05 -2.59889e-05 0 1.02535e-05 -2.43171e-05 0 9.08224e-06 -2.27535e-05 0 8.03784e-06 -2.12999e-05 0 7.10468e-06 -1.99565e-05 0 6.2687e-06 -1.87222e-05 0 5.51732e-06 -1.75951e-05 0 4.83937e-06 -1.65727e-05 0 4.22489e-06 -1.56522e-05 0 3.66501e-06 -1.48305e-05 0 3.15183e-06 -1.41047e-05 0 2.67827e-06 -1.34719e-05 0 2.23796e-06 -1.29293e-05 0 1.82512e-06 -1.24745e-05 0 1.43447e-06 -1.21055e-05 0 1.06111e-06 -1.18203e-05 0 7.00463e-07 -1.16176e-05 0 3.48162e-07 -1.14964e-05 0 0 -1.14561e-05 0 5.19782e-05 -4.54232e-05 0 4.73265e-05 -4.45461e-05 0 4.2965e-05 -4.33769e-05 0 3.89039e-05 -4.19774e-05 0 3.5145e-05 -4.04026e-05 0 3.16845e-05 -3.87006e-05 0 2.85142e-05 -3.69139e-05 0 2.56225e-05 -3.50797e-05 0 2.29951e-05 -3.32298e-05 0 2.06155e-05 -3.13917e-05 0 1.84661e-05 -2.95879e-05 0 1.65282e-05 -2.78366e-05 0 1.47833e-05 -2.61524e-05 0 1.32132e-05 -2.45461e-05 0 1.18002e-05 -2.30255e-05 0 1.05278e-05 -2.1596e-05 0 9.38069e-06 -2.02609e-05 0 8.34455e-06 -1.90217e-05 0 7.40643e-06 -1.78788e-05 0 6.55454e-06 -1.68316e-05 0 5.7782e-06 -1.58787e-05 0 5.06775e-06 -1.50184e-05 0 4.41447e-06 -1.42486e-05 0 3.81046e-06 -1.35671e-05 0 3.24854e-06 -1.29718e-05 0 2.72217e-06 -1.24607e-05 0 2.22532e-06 -1.20317e-05 0 1.75243e-06 -1.16831e-05 0 1.29828e-06 -1.14136e-05 0 8.57953e-07 -1.12219e-05 0 4.26719e-07 -1.11072e-05 0 0 -1.1069e-05 0 5.25629e-05 -4.08081e-05 0 4.82253e-05 -4.018e-05 0 4.4118e-05 -3.92784e-05 0 4.02566e-05 -3.8155e-05 0 3.66489e-05 -3.6858e-05 0 3.32966e-05 -3.54305e-05 0 3.01967e-05 -3.39107e-05 0 2.73421e-05 -3.23327e-05 0 2.47234e-05 -3.07259e-05 0 2.23283e-05 -2.91158e-05 0 2.01432e-05 -2.75238e-05 0 1.81537e-05 -2.59677e-05 0 1.63444e-05 -2.44617e-05 0 1.47003e-05 -2.30171e-05 0 1.32064e-05 -2.16425e-05 0 1.18484e-05 -2.03439e-05 0 1.06127e-05 -1.91257e-05 0 9.48659e-06 -1.79905e-05 0 8.45812e-06 -1.69397e-05 0 7.51639e-06 -1.59737e-05 0 6.65129e-06 -1.50921e-05 0 5.85359e-06 -1.4294e-05 0 5.1148e-06 -1.35783e-05 0 4.42711e-06 -1.29434e-05 0 3.78337e-06 -1.23878e-05 0 3.17693e-06 -1.19099e-05 0 2.60163e-06 -1.15084e-05 0 2.05169e-06 -1.11818e-05 0 1.52167e-06 -1.0929e-05 0 1.00637e-06 -1.07492e-05 0 5.00773e-07 -1.06415e-05 0 1.69379e-20 -1.06057e-05 0 5.29408e-05 -3.65232e-05 0 4.88923e-05 -3.60878e-05 0 4.50237e-05 -3.54007e-05 0 4.13546e-05 -3.45055e-05 0 3.78967e-05 -3.34433e-05 0 3.46559e-05 -3.22518e-05 0 3.16332e-05 -3.09651e-05 0 2.88257e-05 -2.96138e-05 0 2.62277e-05 -2.82246e-05 0 2.38307e-05 -2.68211e-05 0 2.16249e-05 -2.54233e-05 0 1.95988e-05 -2.4048e-05 0 1.77404e-05 -2.27091e-05 0 1.60373e-05 -2.14179e-05 0 1.44769e-05 -2.0183e-05 0 1.30469e-05 -1.90112e-05 0 1.17354e-05 -1.79073e-05 0 1.05311e-05 -1.68747e-05 0 9.42324e-06 -1.59157e-05 0 8.40173e-06 -1.50312e-05 0 7.45712e-06 -1.42218e-05 0 6.58064e-06 -1.34873e-05 0 5.76411e-06 -1.28271e-05 0 4.99992e-06 -1.22403e-05 0 4.28097e-06 -1.17259e-05 0 3.60062e-06 -1.12829e-05 0 2.95262e-06 -1.09101e-05 0 2.33108e-06 -1.06067e-05 0 1.73038e-06 -1.03716e-05 0 1.1451e-06 -1.02043e-05 0 5.70014e-07 -1.01041e-05 0 7.03404e-20 -1.00707e-05 0 5.31658e-05 -3.25365e-05 0 4.93775e-05 -3.22472e-05 0 4.57287e-05 -3.17307e-05 0 4.22403e-05 -3.10224e-05 0 3.89266e-05 -3.01573e-05 0 3.57964e-05 -2.91678e-05 0 3.28539e-05 -2.80837e-05 0 3.00995e-05 -2.69321e-05 0 2.75306e-05 -2.57372e-05 0 2.5142e-05 -2.45203e-05 0 2.29267e-05 -2.32998e-05 0 2.08762e-05 -2.20915e-05 0 1.89812e-05 -2.09085e-05 0 1.72316e-05 -1.97619e-05 0 1.5617e-05 -1.86601e-05 0 1.41269e-05 -1.76102e-05 0 1.2751e-05 -1.66173e-05 0 1.14793e-05 -1.56853e-05 0 1.03021e-05 -1.48168e-05 0 9.21026e-06 -1.40136e-05 0 8.19493e-06 -1.32766e-05 0 7.24784e-06 -1.26063e-05 0 6.36117e-06 -1.20024e-05 0 5.52756e-06 -1.14648e-05 0 4.74003e-06 -1.09927e-05 0 3.992e-06 -1.05856e-05 0 3.27721e-06 -1.02427e-05 0 2.58968e-06 -9.9632e-06 0 1.92368e-06 -9.74657e-06 0 1.27365e-06 -9.59224e-06 0 6.34194e-07 -9.49981e-06 0 5.64763e-21 -9.46902e-06 0 5.32784e-05 -2.88141e-05 0 4.97221e-05 -2.86344e-05 0 4.62723e-05 -2.8252e-05 0 4.29504e-05 -2.76959e-05 0 3.97722e-05 -2.69953e-05 0 3.67486e-05 -2.61778e-05 0 3.3886e-05 -2.52692e-05 0 3.11874e-05 -2.42932e-05 0 2.86528e-05 -2.32713e-05 0 2.62796e-05 -2.22225e-05 0 2.40634e-05 -2.11636e-05 0 2.19981e-05 -2.01092e-05 0 2.00766e-05 -1.90714e-05 0 1.82909e-05 -1.80606e-05 0 1.66325e-05 -1.70852e-05 0 1.50927e-05 -1.6152e-05 0 1.36624e-05 -1.52663e-05 0 1.2333e-05 -1.44322e-05 0 1.10958e-05 -1.36526e-05 0 9.94235e-06 -1.29297e-05 0 8.86457e-06 -1.22648e-05 0 7.85468e-06 -1.16586e-05 0 6.90525e-06 -1.11116e-05 0 6.00917e-06 -1.06237e-05 0 5.15965e-06 -1.01946e-05 0 4.3502e-06 -9.82415e-06 0 3.57458e-06 -9.51173e-06 0 2.82679e-06 -9.25691e-06 0 2.10103e-06 -9.05924e-06 0 1.39165e-06 -8.91834e-06 0 6.93119e-07 -8.83393e-06 0 0 -8.80581e-06 0 5.33113e-05 -2.53242e-05 0 4.99591e-05 -2.52248e-05 0 4.66869e-05 -2.49467e-05 0 4.35159e-05 -2.45137e-05 0 4.04626e-05 -2.39499e-05 0 3.75391e-05 -2.32785e-05 0 3.47536e-05 -2.25217e-05 0 3.2111e-05 -2.16999e-05 0 2.96132e-05 -2.08318e-05 0 2.726e-05 -1.99345e-05 0 2.50489e-05 -1.90228e-05 0 2.2976e-05 -1.81098e-05 0 2.10361e-05 -1.72069e-05 0 1.92229e-05 -1.63236e-05 0 1.75296e-05 -1.54678e-05 0 1.59488e-05 -1.46461e-05 0 1.44731e-05 -1.38636e-05 0 1.30946e-05 -1.31244e-05 0 1.18058e-05 -1.24317e-05 0 1.05988e-05 -1.17877e-05 0 9.46637e-06 -1.1194e-05 0 8.40113e-06 -1.06518e-05 0 7.39603e-06 -1.01616e-05 0 6.44428e-06 -9.72362e-06 0 5.53926e-06 -9.33801e-06 0 4.6746e-06 -9.00461e-06 0 3.84414e-06 -8.72319e-06 0 3.04189e-06 -8.49347e-06 0 2.26201e-06 -8.31515e-06 0 1.4988e-06 -8.18798e-06 0 7.46645e-07 -8.11177e-06 0 0 -8.08638e-06 0 5.32897e-05 -2.20367e-05 0 5.01152e-05 -2.19941e-05 0 4.69994e-05 -2.17963e-05 0 4.39629e-05 -2.14623e-05 0 4.10225e-05 -2.10119e-05 0 3.8191e-05 -2.04646e-05 0 3.54778e-05 -1.98389e-05 0 3.28892e-05 -1.91524e-05 0 3.04288e-05 -1.84214e-05 0 2.8098e-05 -1.76604e-05 0 2.58961e-05 -1.68828e-05 0 2.38209e-05 -1.61002e-05 0 2.18687e-05 -1.53226e-05 0 2.00348e-05 -1.45588e-05 0 1.8314e-05 -1.38162e-05 0 1.67e-05 -1.31007e-05 0 1.51865e-05 -1.24173e-05 0 1.37667e-05 -1.177e-05 0 1.24338e-05 -1.11619e-05 0 1.11809e-05 -1.05952e-05 0 1.0001e-05 -1.00719e-05 0 8.88745e-06 -9.59291e-06 0 7.83352e-06 -9.1592e-06 0 6.83268e-06 -8.77121e-06 0 5.87853e-06 -8.42915e-06 0 4.96484e-06 -8.13309e-06 0 4.08553e-06 -7.88296e-06 0 3.23465e-06 -7.67862e-06 0 2.40635e-06 -7.51991e-06 0 1.59491e-06 -7.40669e-06 0 7.94664e-07 -7.33881e-06 0 0 -7.31619e-06 0 5.32338e-05 -1.89234e-05 0 5.0212e-05 -1.89192e-05 0 4.72318e-05 -1.8782e-05 0 4.43133e-05 -1.85271e-05 0 4.1473e-05 -1.81707e-05 0 3.87242e-05 -1.77287e-05 0 3.6077e-05 -1.72167e-05 0 3.35388e-05 -1.66494e-05 0 3.11146e-05 -1.60405e-05 0 2.88069e-05 -1.54028e-05 0 2.66165e-05 -1.47476e-05 0 2.45425e-05 -1.40852e-05 0 2.25827e-05 -1.34243e-05 0 2.07338e-05 -1.27728e-05 0 1.89914e-05 -1.21372e-05 0 1.73507e-05 -1.1523e-05 0 1.58061e-05 -1.09348e-05 0 1.43519e-05 -1.03763e-05 0 1.29819e-05 -9.85043e-06 0 1.16898e-05 -9.35947e-06 0 1.04694e-05 -8.90515e-06 0 9.31418e-06 -8.48873e-06 0 8.21795e-06 -8.11109e-06 0 7.17441e-06 -7.77283e-06 0 6.17736e-06 -7.47428e-06 0 5.22073e-06 -7.21563e-06 0 4.29851e-06 -6.99693e-06 0 3.40483e-06 -6.81814e-06 0 2.53385e-06 -6.67921e-06 0 1.67984e-06 -6.58005e-06 0 8.37104e-07 -6.52059e-06 0 0 -6.50077e-06 0 5.31591e-05 -1.59581e-05 0 5.02666e-05 -1.59777e-05 0 4.74021e-05 -1.58854e-05 0 4.45849e-05 -1.56936e-05 0 4.18315e-05 -1.5415e-05 0 3.91552e-05 -1.50628e-05 0 3.65667e-05 -1.46496e-05 0 3.40742e-05 -1.41876e-05 0 3.16834e-05 -1.36884e-05 0 2.93981e-05 -1.31625e-05 0 2.72202e-05 -1.26196e-05 0 2.51498e-05 -1.20684e-05 0 2.31858e-05 -1.15165e-05 0 2.1326e-05 -1.09706e-05 0 1.95671e-05 -1.04366e-05 0 1.79051e-05 -9.91919e-06 0 1.63354e-05 -9.42251e-06 0 1.48528e-05 -8.94988e-06 0 1.3452e-05 -8.504e-06 0 1.21271e-05 -8.08699e-06 0 1.08724e-05 -7.70048e-06 0 9.68198e-06 -7.34571e-06 0 8.54972e-06 -7.02358e-06 0 7.46965e-06 -6.73471e-06 0 6.43579e-06 -6.4795e-06 0 5.4422e-06 -6.25821e-06 0 4.48299e-06 -6.07097e-06 0 3.55231e-06 -5.91781e-06 0 2.64439e-06 -5.79873e-06 0 1.75349e-06 -5.71372e-06 0 8.73919e-07 -5.66272e-06 0 0 -5.64573e-06 0 5.30781e-05 -1.31165e-05 0 5.02925e-05 -1.31483e-05 0 4.75244e-05 -1.30885e-05 0 4.47923e-05 -1.29467e-05 0 4.21124e-05 -1.2733e-05 0 3.94979e-05 -1.24577e-05 0 3.696e-05 -1.21311e-05 0 3.45074e-05 -1.1763e-05 0 3.21465e-05 -1.13627e-05 0 2.98818e-05 -1.09389e-05 0 2.7716e-05 -1.04996e-05 0 2.56504e-05 -1.0052e-05 0 2.36846e-05 -9.60245e-06 0 2.18172e-05 -9.15656e-06 0 2.00458e-05 -8.71921e-06 0 1.83672e-05 -8.29454e-06 0 1.67774e-05 -7.88605e-06 0 1.5272e-05 -7.49662e-06 0 1.3846e-05 -7.12862e-06 0 1.24943e-05 -6.78392e-06 0 1.12113e-05 -6.46401e-06 0 9.99158e-06 -6.17001e-06 0 8.82929e-06 -5.90277e-06 0 7.71869e-06 -5.66289e-06 0 6.65397e-06 -5.45079e-06 0 5.62931e-06 -5.26674e-06 0 4.63893e-06 -5.11091e-06 0 3.67705e-06 -4.98338e-06 0 2.73792e-06 -4.8842e-06 0 1.81583e-06 -4.81336e-06 0 9.0508e-07 -4.77087e-06 0 0 -4.7567e-06 0 5.30003e-05 -1.03756e-05 0 5.03006e-05 -1.04108e-05 0 4.76103e-05 -1.03737e-05 0 4.49473e-05 -1.02717e-05 0 4.23273e-05 -1.01125e-05 0 3.97637e-05 -9.90396e-06 0 3.72678e-05 -9.65406e-06 0 3.48486e-05 -9.37044e-06 0 3.2513e-05 -9.06041e-06 0 3.02662e-05 -8.73081e-06 0 2.81116e-05 -8.38793e-06 0 2.6051e-05 -8.0375e-06 0 2.40848e-05 -7.68462e-06 0 2.22122e-05 -7.33382e-06 0 2.04317e-05 -6.98903e-06 0 1.87404e-05 -6.65361e-06 0 1.7135e-05 -6.33043e-06 0 1.56116e-05 -6.02186e-06 0 1.41658e-05 -5.72986e-06 0 1.27926e-05 -5.45602e-06 0 1.1487e-05 -5.20158e-06 0 1.02437e-05 -4.96751e-06 0 9.05717e-06 -4.75456e-06 0 7.92185e-06 -4.56326e-06 0 6.83208e-06 -4.394e-06 0 5.78216e-06 -4.24703e-06 0 4.76638e-06 -4.12254e-06 0 3.77903e-06 -4.02062e-06 0 2.81441e-06 -3.94132e-06 0 1.86682e-06 -3.88467e-06 0 9.30575e-07 -3.85068e-06 0 0 -3.83935e-06 0 5.29328e-05 -7.71376e-06 0 5.0299e-05 -7.74564e-06 0 4.76685e-05 -7.72397e-06 0 4.50588e-05 -7.65397e-06 0 4.24854e-05 -7.54124e-06 0 3.99615e-05 -7.39155e-06 0 3.74985e-05 -7.21067e-06 0 3.51058e-05 -7.00423e-06 0 3.27905e-05 -6.7776e-06 0 3.05583e-05 -6.53585e-06 0 2.8413e-05 -6.28367e-06 0 2.63569e-05 -6.02532e-06 0 2.43911e-05 -5.76462e-06 0 2.25152e-05 -5.50499e-06 0 2.07281e-05 -5.24939e-06 0 1.90275e-05 -5.00037e-06 0 1.74106e-05 -4.76012e-06 0 1.58737e-05 -4.53046e-06 0 1.44128e-05 -4.3129e-06 0 1.30233e-05 -4.10866e-06 0 1.17004e-05 -3.91873e-06 0 1.0439e-05 -3.74388e-06 0 9.23384e-06 -3.58468e-06 0 8.07946e-06 -3.44158e-06 0 6.97033e-06 -3.3149e-06 0 5.90086e-06 -3.20485e-06 0 4.8654e-06 -3.11159e-06 0 3.85829e-06 -3.03522e-06 0 2.87388e-06 -2.97578e-06 0 1.90647e-06 -2.93331e-06 0 9.504e-07 -2.90783e-06 0 0 -2.89933e-06 0 5.2881e-05 -5.11041e-06 0 5.02937e-05 -5.13421e-06 0 4.77056e-05 -5.12261e-06 0 4.51338e-05 -5.07898e-06 0 4.25935e-05 -5.00697e-06 0 4.00981e-05 -4.91032e-06 0 3.76588e-05 -4.79282e-06 0 3.52851e-05 -4.65814e-06 0 3.29846e-05 -4.50985e-06 0 3.07631e-05 -4.35127e-06 0 2.86248e-05 -4.18551e-06 0 2.65724e-05 -4.0154e-06 0 2.46072e-05 -3.84349e-06 0 2.27293e-05 -3.67206e-06 0 2.09379e-05 -3.50309e-06 0 1.9231e-05 -3.3383e-06 0 1.7606e-05 -3.17916e-06 0 1.60598e-05 -3.02691e-06 0 1.45883e-05 -2.88256e-06 0 1.31873e-05 -2.74696e-06 0 1.18522e-05 -2.62078e-06 0 1.05781e-05 -2.50455e-06 0 9.35972e-06 -2.39868e-06 0 8.19181e-06 -2.30346e-06 0 7.06893e-06 -2.21914e-06 0 5.98554e-06 -2.14587e-06 0 4.93606e-06 -2.08376e-06 0 3.91487e-06 -2.03288e-06 0 2.91633e-06 -1.99327e-06 0 1.93478e-06 -1.96497e-06 0 9.64557e-07 -1.94799e-06 0 0 -1.94232e-06 0 5.28485e-05 -2.54563e-06 0 5.02889e-05 -2.55828e-06 0 4.77261e-05 -2.55332e-06 0 4.51769e-05 -2.5324e-06 0 4.26565e-05 -2.49733e-06 0 4.01781e-05 -2.44994e-06 0 3.77531e-05 -2.3921e-06 0 3.5391e-05 -2.32565e-06 0 3.30995e-05 -2.25233e-06 0 3.08846e-05 -2.17382e-06 0 2.87506e-05 -2.09164e-06 0 2.67005e-05 -2.00723e-06 0 2.47358e-05 -1.92184e-06 0 2.28569e-05 -1.83662e-06 0 2.10629e-05 -1.75257e-06 0 1.93524e-05 -1.67054e-06 0 1.77227e-05 -1.59128e-06 0 1.61709e-05 -1.51541e-06 0 1.46932e-05 -1.44345e-06 0 1.32854e-05 -1.37582e-06 0 1.19431e-05 -1.31287e-06 0 1.06614e-05 -1.25486e-06 0 9.43511e-06 -1.202e-06 0 8.25912e-06 -1.15445e-06 0 7.12801e-06 -1.11233e-06 0 6.0363e-06 -1.07572e-06 0 4.97843e-06 -1.04468e-06 0 3.9488e-06 -1.01926e-06 0 2.94179e-06 -9.99461e-07 0 1.95176e-06 -9.85314e-07 0 9.7305e-07 -9.76824e-07 0 0 -9.73993e-07 0 5.28374e-05 -0 0 5.0287e-05 3.34382e-19 0 4.77326e-05 -2.534e-19 0 4.5191e-05 -1.7464e-19 0 4.26772e-05 -0 0 4.02045e-05 -0 0 3.77843e-05 -0 0 3.5426e-05 -0 0 3.31375e-05 -0 0 3.09248e-05 -0 0 2.87923e-05 1.41923e-20 0 2.6743e-05 1.84682e-19 0 2.47785e-05 2.65039e-20 0 2.28992e-05 -1.61298e-19 0 2.11045e-05 -3.00641e-20 0 1.93927e-05 -0 0 1.77615e-05 -0 0 1.62079e-05 -0 0 1.47281e-05 -2.35217e-20 0 1.33181e-05 -9.30225e-20 0 1.19734e-05 -7.14129e-21 0 1.06891e-05 -0 0 9.46021e-06 -0 0 8.28154e-06 -0 0 7.1477e-06 2.02938e-20 0 6.05321e-06 3.7625e-20 0 4.99254e-06 6.1523e-22 0 3.96011e-06 -0 0 2.95028e-06 -0 0 1.95742e-06 -0 0 9.7588e-07 -0 0 0 -0 0 </DataArray> 
</PointData> 
<Points> 
<DataArray type="Float32" NumberOfComponents="3"> 