<?xml version="1.0"?> 
<VTKFile type="StructuredGrid" version="0.1"> 
<StructuredGrid WholeExtent="0 31 0 31 0 0"> 
<Piece Extent="0 31 0 31 0 0"> 
<PointData>
<DataArray type="Float32" Name="B" format="ascii" NumberOfComponents="3"> 
0 -4.54495e-07 0 -7.32119e-08 -4.58522e-07 0 -1.47402e-07 -4.70754e-07 0 -2.23582e-07 -4.91641e-07 0 -3.02774e-07 -5.2197e-07 0 -3.86094e-07 -5.62908e-07 0 -4.74673e-07 -6.1608e-07 0 -5.69799e-07 -6.83679e-07 0 -6.72785e-07 -7.68617e-07 0 -7.85022e-07 -8.7474e-07 0 -9.08268e-07 -1.00709e-06 0 -1.04321e-06 -1.1724e-06 0 -1.19348e-06 -1.37943e-06 0 -1.35483e-06 -1.64017e-06 0 -1.54013e-06 -1.97008e-06 0 -1.72101e-06 -2.39132e-06 0 -1.95374e-06 -2.93143e-06 0 -2.10531e-06 -3.63347e-06 0 -2.4214e-06 -4.54653e-06 0 -2.34184e-06 -5.75894e-06 0 -2.8911e-06 -7.35757e-06 0 -1.83846e-06 -9.53255e-06 0 -3.25415e-06 -1.24394e-05 0 1.38978e-06 -1.64927e-05 0 -3.36583e-06 -2.20218e-05 0 1.39378e-05 -2.98592e-05 0 -2.82549e-06 -4.11463e-05 0 5.85558e-05 -5.69868e-05 0 6.57271e-06 -8.37604e-05 0 0.000224704 -0.000118456 0 0.00031487 -0.000210321 0 -0.000706841 0.000267906 0 3.24387e-21 -4.29706e-07 0 -7.58479e-08 -4.33561e-07 0 -1.52777e-07 -4.45276e-07 0 -2.3189e-07 -4.65288e-07 0 -3.14344e-07 -4.94369e-07 0 -4.01366e-07 -5.33653e-07 0 -4.94294e-07 -5.84749e-07 0 -5.94578e-07 -6.4978e-07 0 -7.03837e-07 -7.3168e-07 0 -8.23865e-07 -8.34116e-07 0 -9.56573e-07 -9.62369e-07 0 -1.10429e-06 -1.1226e-06 0 -1.26879e-06 -1.32464e-06 0 -1.45357e-06 -1.57855e-06 0 -1.65792e-06 -1.90384e-06 0 -1.88944e-06 -2.31592e-06 0 -2.13453e-06 -2.85665e-06 0 -2.41905e-06 -3.54587e-06 0 -2.6738e-06 -4.48064e-06 0 -3.00583e-06 -5.67369e-06 0 -3.12142e-06 -7.3617e-06 0 -3.47177e-06 -9.51053e-06 0 -2.88811e-06 -1.26955e-05 0 -3.20714e-06 -1.67771e-05 0 6.1327e-08 -2.30152e-05 0 -2.14391e-07 -3.15078e-05 0 1.2799e-05 -4.40626e-05 0 1.30751e-05 -6.53206e-05 0 6.32133e-05 -9.22009e-05 0 8.49993e-05 -0.000174101 0 0.000329286 -0.000261396 0 0.00238784 -0.00240626 0 2.51253e-21 -4.04063e-07 0 -7.83661e-08 -4.07731e-07 0 -1.57907e-07 -4.18879e-07 0 -2.3983e-07 -4.37933e-07 0 -3.25402e-07 -4.65635e-07 0 -4.15991e-07 -5.03098e-07 0 -5.13089e-07 -5.51863e-07 0 -6.18367e-07 -6.14045e-07 0 -7.33705e-07 -6.92416e-07 0 -8.6123e-07 -7.90756e-07 0 -1.00342e-06 -9.13891e-07 0 -1.16293e-06 -1.06861e-06 0 -1.34321e-06 -1.26331e-06 0 -1.54696e-06 -1.51059e-06 0 -1.7797e-06 -1.82518e-06 0 -2.04106e-06 -2.23161e-06 0 -2.34321e-06 -2.75591e-06 0 -2.66849e-06 -3.44854e-06 0 -3.05616e-06 -4.35579e-06 0 -3.41174e-06 -5.58698e-06 0 -3.89076e-06 -7.2261e-06 0 -4.0834e-06 -9.51937e-06 0 -4.63237e-06 -1.26324e-05 0 -3.8854e-06 -1.71307e-05 0 -4.44075e-06 -2.34264e-05 0 1.07199e-07 -3.28432e-05 0 -2.895e-07 -4.68853e-05 0 1.85589e-05 -6.91478e-05 0 2.05973e-05 -0.000108282 0 9.48143e-05 -0.000184239 0 0.000153279 -0.000427685 0 -0.000752541 -0.00150107 0 0 -3.77606e-07 0 -8.07534e-08 -3.81072e-07 0 -1.62774e-07 -3.91607e-07 0 -2.47365e-07 -4.09619e-07 0 -3.35906e-07 -4.35824e-07 0 -4.29892e-07 -4.71288e-07 0 -5.3098e-07 -5.17505e-07 0 -6.41039e-07 -5.76499e-07 0 -7.62216e-07 -6.50989e-07 0 -8.96996e-07 -7.44574e-07 0 -1.04827e-06 -8.62085e-07 0 -1.21948e-06 -1.00991e-06 0 -1.41452e-06 -1.19675e-06 0 -1.63832e-06 -1.43417e-06 0 -1.89564e-06 -1.73831e-06 0 -2.19394e-06 -2.13087e-06 0 -2.53686e-06 -2.64286e-06 0 -2.93715e-06 -3.31667e-06 0 -3.38746e-06 -4.21439e-06 0 -3.91566e-06 -5.42309e-06 0 -4.46396e-06 -7.07252e-06 0 -5.11233e-06 -9.35229e-06 0 -5.60713e-06 -1.25489e-05 0 -6.21641e-06 -1.71048e-05 0 -5.98336e-06 -2.37164e-05 0 -5.8311e-06 -3.3524e-05 0 -2.41292e-06 -4.86145e-05 0 1.22235e-06 -7.26887e-05 0 1.58537e-05 -0.000115415 0 3.01977e-05 -0.000199642 0 2.92804e-05 -0.000427464 0 -0.000502908 -0.000976881 0 4.14504e-23 -3.50382e-07 0 -8.30006e-08 -3.53631e-07 0 -1.67356e-07 -3.63506e-07 0 -2.54463e-07 -3.80399e-07 0 -3.45806e-07 -4.04988e-07 0 -4.43006e-07 -4.3829e-07 0 -5.47875e-07 -4.8173e-07 0 -6.62481e-07 -5.37248e-07 0 -7.89222e-07 -6.07437e-07 0 -9.30924e-07 -6.95778e-07 0 -1.09094e-06 -8.06883e-07 0 -1.2733e-06 -9.47001e-07 0 -1.48285e-06 -1.12444e-06 0 -1.72545e-06 -1.35071e-06 0 -2.00815e-06 -1.64117e-06 0 -2.33945e-06 -2.01794e-06 0 -2.72927e-06 -2.51037e-06 0 -3.18946e-06 -3.163e-06 0 -3.73216e-06 -4.03415e-06 0 -4.37218e-06 -5.21856e-06 0 -5.11617e-06 -6.83754e-06 0 -5.97792e-06 -9.10405e-06 0 -6.92171e-06 -1.22883e-05 0 -7.95031e-06 -1.68955e-05 0 -8.84031e-06 -2.36057e-05 0 -9.59418e-06 -3.36979e-05 0 -9.32131e-06 -4.93305e-05 0 -8.44943e-06 -7.42915e-05 0 -5.01714e-06 -0.000118624 0 -9.01123e-06 -0.000200365 0 -7.25898e-05 -0.00038893 0 -0.000509728 -0.000507381 0 2.91092e-21 -3.22439e-07 0 -8.50976e-08 -3.25456e-07 0 -1.71633e-07 -3.3463e-07 0 -2.61091e-07 -3.50326e-07 0 -3.55057e-07 -3.73188e-07 0 -4.55271e-07 -4.04171e-07 0 -5.63693e-07 -4.44622e-07 0 -6.82578e-07 -4.96372e-07 0 -8.14571e-07 -5.61888e-07 0 -9.62824e-07 -6.44456e-07 0 -1.13113e-06 -7.48505e-07 0 -1.32413e-06 -8.79933e-07 0 -1.54749e-06 -1.04683e-06 0 -1.80824e-06 -1.26002e-06 0 -2.11508e-06 -1.53481e-06 0 -2.47888e-06 -1.89179e-06 0 -2.91301e-06 -2.36116e-06 0 -3.43433e-06 -2.98376e-06 0 -4.06264e-06 -3.82229e-06 0 -4.82363e-06 -4.96171e-06 0 -5.74265e-06 -6.53943e-06 0 -6.85746e-06 -8.74298e-06 0 -8.18303e-06 -1.18911e-05 0 -9.77682e-06 -1.64315e-05 0 -1.15706e-05 -2.31559e-05 0 -1.37141e-05 -3.32654e-05 0 -1.58783e-05 -4.89739e-05 0 -1.91433e-05 -7.42054e-05 0 -2.42275e-05 -0.000116846 0 -4.57356e-05 -0.000193547 0 -0.000135002 -0.000322061 0 -0.000426129 -0.000394384 0 1.35781e-21 -2.93827e-07 0 -8.70354e-08 -2.96599e-07 0 -1.75586e-07 -3.05031e-07 0 -2.6722e-07 -3.19462e-07 0 -3.63616e-07 -3.40489e-07 0 -4.66627e-07 -3.69005e-07 0 -5.78351e-07 -4.06264e-07 0 -7.01223e-07 -4.53978e-07 0 -8.38121e-07 -5.14451e-07 0 -9.92505e-07 -5.90773e-07 0 -1.1686e-06 -6.87087e-07 0 -1.37159e-06 -8.08989e-07 0 -1.60799e-06 -9.64048e-07 0 -1.88592e-06 -1.16268e-06 0 -2.21572e-06 -1.41918e-06 0 -2.61051e-06 -1.75369e-06 0 -3.08717e-06 -2.19439e-06 0 -3.66722e-06 -2.78211e-06 0 -4.37871e-06 -3.57516e-06 0 -5.25694e-06 -4.66071e-06 0 -6.34865e-06 -6.16637e-06 0 -7.71077e-06 -8.28908e-06 0 -9.42024e-06 -1.13261e-05 0 -1.15683e-05 -1.57518e-05 0 -1.42887e-05 -2.23124e-05 0 -1.77781e-05 -3.22454e-05 0 -2.24436e-05 -4.76256e-05 0 -2.94602e-05 -7.20751e-05 0 -4.24533e-05 -0.000112115 0 -7.54494e-05 -0.000177683 0 -0.000171854 -0.000267952 0 -0.000385566 -0.000260906 0 0 -2.64601e-07 0 -8.88055e-08 -2.67116e-07 0 -1.79198e-07 -2.74767e-07 0 -2.72821e-07 -2.87867e-07 0 -3.71443e-07 -3.06962e-07 0 -4.77018e-07 -3.32872e-07 0 -5.91776e-07 -3.6675e-07 0 -7.18316e-07 -4.10173e-07 0 -8.59735e-07 -4.65265e-07 0 -1.01978e-06 -5.34879e-07 0 -1.20308e-06 -6.22856e-07 0 -1.41537e-06 -7.34373e-07 0 -1.66389e-06 -8.76501e-07 0 -1.95787e-06 -1.05891e-06 0 -2.30916e-06 -1.29506e-06 0 -2.7331e-06 -1.60373e-06 0 -3.24985e-06 -2.01179e-06 0 -3.8857e-06 -2.55737e-06 0 -4.67609e-06 -3.29691e-06 0 -5.66722e-06 -4.31213e-06 0 -6.92361e-06 -5.72838e-06 0 -8.52808e-06 -7.73122e-06 0 -1.06041e-05 -1.06158e-05 0 -1.33067e-05 -1.48311e-05 0 -1.69036e-05 -2.11128e-05 0 -2.17551e-05 -3.06256e-05 0 -2.8697e-05 -4.52946e-05 0 -3.93273e-05 -6.83029e-05 0 -5.85155e-05 -0.000104355 0 -9.90713e-05 -0.000158845 0 -0.000192434 -0.000217886 0 -0.000352948 -0.000212016 0 0 -2.34818e-07 0 -9.03998e-08 -2.37065e-07 0 -1.82451e-07 -2.43901e-07 0 -2.7787e-07 -2.55609e-07 0 -3.785e-07 -2.7268e-07 0 -4.86393e-07 -2.95857e-07 0 -6.03896e-07 -3.26182e-07 0 -7.33762e-07 -3.6508e-07 0 -8.79287e-07 -4.14476e-07 0 -1.04449e-06 -4.76961e-07 0 -1.23436e-06 -5.56024e-07 0 -1.45513e-06 -6.56392e-07 0 -1.71477e-06 -7.84504e-07 0 -2.02349e-06 -9.49243e-07 0 -2.39457e-06 -1.16292e-06 0 -2.84548e-06 -1.44294e-06 0 -3.39934e-06 -1.81393e-06 0 -4.08723e-06 -2.31163e-06 0 -4.95112e-06 -2.98796e-06 0 -6.04867e-06 -3.92047e-06 0 -7.45935e-06 -5.22486e-06 0 -9.29525e-06 -7.07925e-06 0 -1.17156e-05 -9.75685e-06 0 -1.49544e-05 -1.36898e-05 0 -1.93681e-05 -1.95566e-05 0 -2.55363e-05 -2.84472e-05 0 -3.45116e-05 -4.20676e-05 0 -4.84239e-05 -6.30379e-05 0 -7.22196e-05 -9.46397e-05 0 -0.00011725 -0.000138103 0 -0.000203381 -0.000177839 0 -0.000326206 -0.000157921 0 0 -2.04537e-07 0 -9.18112e-08 -2.06506e-07 0 -1.85332e-07 -2.12496e-07 0 -2.82341e-07 -2.22757e-07 0 -3.84752e-07 -2.37724e-07 0 -4.94704e-07 -2.58053e-07 0 -6.14649e-07 -2.84666e-07 0 -7.47476e-07 -3.18826e-07 0 -8.96663e-07 -3.62242e-07 0 -1.06647e-06 -4.17213e-07 0 -1.26222e-06 -4.86845e-07 0 -1.4906e-06 -5.75348e-07 0 -1.76023e-06 -6.88481e-07 0 -2.08222e-06 -8.34179e-07 0 -2.47118e-06 -1.02352e-06 0 -2.94647e-06 -1.2721e-06 0 -3.53409e-06 -1.60224e-06 0 -4.26927e-06 -2.04615e-06 0 -5.2006e-06 -2.65121e-06 0 -6.3953e-06 -3.48765e-06 0 -7.949e-06 -4.66197e-06 0 -9.99691e-06 -6.33617e-06 0 -1.27397e-05 -8.76283e-06 0 -1.64692e-05 -1.2335e-05 0 -2.16502e-05 -1.7674e-05 0 -2.90009e-05 -2.57494e-05 0 -3.98286e-05 -3.80335e-05 0 -5.64427e-05 -5.65944e-05 0 -8.37567e-05 -8.3428e-05 0 -0.000130653 -0.000117489 0 -0.000209017 -0.000143243 0 -0.000308807 -0.000127042 0 0 -1.7382e-07 0 -9.30333e-08 -1.75501e-07 0 -1.87827e-07 -1.80618e-07 0 -2.86214e-07 -1.89384e-07 0 -3.90171e-07 -2.02175e-07 0 -5.01909e-07 -2.19554e-07 0 -6.23976e-07 -2.42316e-07 0 -7.5938e-07 -2.71551e-07 0 -9.11758e-07 -3.08732e-07 0 -1.08559e-06 -3.55848e-07 0 -1.28647e-06 -4.15584e-07 0 -1.52152e-06 -4.91592e-07 0 -1.7999e-06 -5.88868e-07 0 -2.13356e-06 -7.14319e-07 0 -2.53826e-06 -8.7759e-07 0 -3.03509e-06 -1.09233e-06 0 -3.65255e-06 -1.37803e-06 0 -4.42977e-06 -1.76306e-06 0 -5.42097e-06 -2.289e-06 0 -6.7027e-06 -3.01807e-06 0 -8.38388e-06 -4.0441e-06 0 -1.06233e-05 -5.51143e-06 0 -1.36539e-05 -7.64301e-06 0 -1.7829e-05 -1.07884e-05 0 -2.36893e-05 -1.54914e-05 0 -3.21034e-05 -2.2591e-05 0 -4.44996e-05 -3.33075e-05 0 -6.3369e-05 -4.91964e-05 0 -9.30805e-05 -7.13323e-05 0 -0.000140547 -9.73536e-05 0 -0.000211503 -0.000114252 0 -0.000293122 -9.7461e-05 0 0 -1.4273e-07 0 -9.40605e-08 -1.44117e-07 0 -1.89925e-07 -1.48336e-07 0 -2.8947e-07 -1.55566e-07 0 -3.94728e-07 -1.66118e-07 0 -5.07972e-07 -1.8046e-07 0 -6.31827e-07 -1.99251e-07 0 -7.69407e-07 -2.23398e-07 0 -9.24481e-07 -2.54125e-07 0 -1.10171e-06 -2.9309e-07 0 -1.30694e-06 -3.4253e-07 0 -1.54765e-06 -4.05493e-07 0 -1.83347e-06 -4.86154e-07 0 -2.17705e-06 -5.90296e-07 0 -2.59518e-06 -7.26009e-07 0 -3.1104e-06 -9.04747e-07 0 -3.75343e-06 -1.14295e-06 0 -4.56667e-06 -1.46449e-06 0 -5.60948e-06 -1.9046e-06 0 -6.96603e-06 -2.51588e-06 0 -8.75784e-06 -3.37818e-06 0 -1.11623e-05 -4.61386e-06 0 -1.44442e-05 -6.41297e-06 0 -1.90023e-05 -9.07117e-06 0 -2.5455e-05 -1.30473e-05 0 -3.47646e-05 -1.90342e-05 0 -4.84869e-05 -2.80046e-05 0 -6.9091e-05 -4.10798e-05 0 -0.000100493 -5.86875e-05 0 -0.000147578 -7.81177e-05 0 -0.000212405 -8.88743e-05 0 -0.000282616 -7.55084e-05 0 0 -1.11334e-07 0 -9.48881e-08 -1.12419e-07 0 -1.91615e-07 -1.15721e-07 0 -2.92094e-07 -1.21381e-07 0 -3.98401e-07 -1.29642e-07 0 -5.1286e-07 -1.40873e-07 0 -6.38161e-07 -1.55594e-07 0 -7.77498e-07 -1.74517e-07 0 -9.34754e-07 -1.9861e-07 0 -1.11474e-06 -2.29176e-07 0 -1.3235e-06 -2.67985e-07 0 -1.56879e-06 -3.17443e-07 0 -1.86066e-06 -3.80855e-07 0 -2.21233e-06 -4.62801e-07 0 -2.64139e-06 -5.69695e-07 0 -3.17163e-06 -7.10642e-07 0 -3.83557e-06 -8.9871e-07 0 -4.67834e-06 -1.15294e-06 0 -5.76345e-06 -1.50143e-06 0 -7.18166e-06 -1.98629e-06 0 -9.06439e-06 -2.67137e-06 0 -1.16055e-05 -3.65489e-06 0 -1.50941e-05 -5.08892e-06 0 -1.99699e-05 -7.21017e-06 0 -2.69063e-05 -1.03826e-05 0 -3.69503e-05 -1.51483e-05 0 -5.17149e-05 -2.22416e-05 0 -7.3647e-05 -3.2429e-05 0 -0.000106112 -4.577e-05 0 -0.000152543 -5.97211e-05 0 -0.000212443 -6.64903e-05 0 -0.000273824 -5.55001e-05 0 -9.9585e-23 -7.96967e-08 0 -9.55121e-08 -8.04755e-08 0 -1.92889e-07 -8.28456e-08 0 -2.94074e-07 -8.69075e-08 0 -4.01172e-07 -9.28377e-08 0 -5.16548e-07 -1.00901e-07 0 -6.42941e-07 -1.11473e-07 0 -7.83608e-07 -1.25067e-07 0 -9.42515e-07 -1.42379e-07 0 -1.12458e-06 -1.64353e-07 0 -1.33602e-06 -1.92266e-07 0 -1.58479e-06 -2.27857e-07 0 -1.88126e-06 -2.73516e-07 0 -2.23906e-06 -3.3256e-07 0 -2.67645e-06 -4.0964e-07 0 -3.21813e-06 -5.11359e-07 0 -3.89802e-06 -6.47216e-07 0 -4.76335e-06 -8.31054e-07 0 -5.88086e-06 -1.08335e-06 0 -7.34624e-06 -1.43478e-06 0 -9.29889e-06 -1.93199e-06 0 -1.19447e-05 -2.64666e-06 0 -1.55926e-05 -3.68992e-06 0 -2.07114e-05 -5.23408e-06 0 -2.80198e-05 -7.54315e-06 0 -3.86168e-05 -1.10047e-05 0 -5.4163e-05 -1.61293e-05 0 -7.70264e-05 -2.34047e-05 0 -0.000110167 -3.27246e-05 0 -0.000155856 -4.20876e-05 0 -0.000212174 -4.61101e-05 0 -0.000268038 -3.83765e-05 0 -5.08796e-22 -4.78872e-08 0 -9.59298e-08 -4.8356e-08 0 -1.93742e-07 -4.97825e-08 0 -2.95399e-07 -5.22275e-08 0 -4.03027e-07 -5.57974e-08 0 -5.19018e-07 -6.06522e-08 0 -6.46143e-07 -6.7018e-08 0 -7.87702e-07 -7.52051e-08 0 -9.47716e-07 -8.56345e-08 0 -1.13118e-06 -9.88756e-08 0 -1.34442e-06 -1.157e-07 0 -1.59553e-06 -1.37161e-07 0 -1.89508e-06 -1.64704e-07 0 -2.25702e-06 -2.00336e-07 0 -2.70002e-06 -2.46877e-07 0 -3.24941e-06 -3.0833e-07 0 -3.94006e-06 -3.90457e-07 0 -4.82063e-06 -5.01668e-07 0 -5.96003e-06 -6.54402e-07 0 -7.45739e-06 -8.67331e-07 0 -9.45733e-06 -1.16883e-06 0 -1.21743e-05 -1.60256e-06 0 -1.59301e-05 -2.23614e-06 0 -2.1214e-05 -3.17437e-06 0 -2.87729e-05 -4.57699e-06 0 -3.97427e-05 -6.67668e-06 0 -5.58024e-05 -9.77332e-06 0 -7.92664e-05 -1.41345e-05 0 -0.000112777 -1.96392e-05 0 -0.000157901 -2.50168e-05 0 -0.000211852 -2.71422e-05 0 -0.000264048 -2.24078e-05 0 -3.02357e-23 -1.5974e-08 0 -9.61391e-08 -1.61304e-08 0 -1.9417e-07 -1.66067e-08 0 -2.96063e-07 -1.7423e-08 0 -4.03957e-07 -1.86149e-08 0 -5.20256e-07 -2.0236e-08 0 -6.47748e-07 -2.23617e-08 0 -7.89754e-07 -2.50959e-08 0 -9.50325e-07 -2.85794e-08 0 -1.13449e-06 -3.30026e-08 0 -1.34863e-06 -3.86237e-08 0 -1.60092e-06 -4.57949e-08 0 -1.90203e-06 -5.50005e-08 0 -2.26604e-06 -6.69126e-08 0 -2.71186e-06 -8.24753e-08 0 -3.26514e-06 -1.0303e-07 0 -3.9612e-06 -1.30509e-07 0 -4.84945e-06 -1.67731e-07 0 -5.9999e-06 -2.18871e-07 0 -7.51338e-06 -2.90192e-07 0 -9.53723e-06 -3.91228e-07 0 -1.229e-05 -5.36628e-07 0 -1.61004e-05 -7.49109e-07 0 -2.14675e-05 -1.0638e-06 0 -2.9153e-05 -1.53422e-06 0 -4.03092e-05 -2.23786e-06 0 -5.66255e-05 -3.27359e-06 0 -8.03791e-05 -4.7264e-06 0 -0.000114059 -6.54601e-06 0 -0.000158867 -8.30001e-06 0 -0.000211659 -8.95789e-06 0 -0.000262195 -7.41089e-06 0 0 1.5974e-08 0 -9.61391e-08 1.61304e-08 0 -1.9417e-07 1.66067e-08 0 -2.96063e-07 1.7423e-08 0 -4.03957e-07 1.86149e-08 0 -5.20256e-07 2.0236e-08 0 -6.47748e-07 2.23617e-08 0 -7.89754e-07 2.50959e-08 0 -9.50325e-07 2.85794e-08 0 -1.13449e-06 3.30026e-08 0 -1.34863e-06 3.86237e-08 0 -1.60092e-06 4.57949e-08 0 -1.90203e-06 5.50005e-08 0 -2.26604e-06 6.69126e-08 0 -2.71186e-06 8.24753e-08 0 -3.26514e-06 1.0303e-07 0 -3.9612e-06 1.30509e-07 0 -4.84945e-06 1.67731e-07 0 -5.9999e-06 2.18871e-07 0 -7.51338e-06 2.90192e-07 0 -9.53723e-06 3.91228e-07 0 -1.229e-05 5.36628e-07 0 -1.61004e-05 7.49109e-07 0 -2.14675e-05 1.0638e-06 0 -2.9153e-05 1.53422e-06 0 -4.03092e-05 2.23786e-06 0 -5.66255e-05 3.27359e-06 0 -8.03791e-05 4.7264e-06 0 -0.000114059 6.54601e-06 0 -0.000158867 8.30001e-06 0 -0.000211659 8.95789e-06 0 -0.000262195 7.41089e-06 0 0 4.78872e-08 0 -9.59298e-08 4.8356e-08 0 -1.93742e-07 4.97825e-08 0 -2.95399e-07 5.22275e-08 0 -4.03027e-07 5.57974e-08 0 -5.19018e-07 6.06522e-08 0 -6.46143e-07 6.7018e-08 0 -7.87702e-07 7.52051e-08 0 -9.47716e-07 8.56345e-08 0 -1.13118e-06 9.88756e-08 0 -1.34442e-06 1.157e-07 0 -1.59553e-06 1.37161e-07 0 -1.89508e-06 1.64704e-07 0 -2.25702e-06 2.00336e-07 0 -2.70002e-06 2.46877e-07 0 -3.24941e-06 3.0833e-07 0 -3.94006e-06 3.90457e-07 0 -4.82063e-06 5.01668e-07 0 -5.96003e-06 6.54402e-07 0 -7.45739e-06 8.67331e-07 0 -9.45733e-06 1.16883e-06 0 -1.21743e-05 1.60256e-06 0 -1.59301e-05 2.23614e-06 0 -2.1214e-05 3.17437e-06 0 -2.87729e-05 4.57699e-06 0 -3.97427e-05 6.67668e-06 0 -5.58024e-05 9.77332e-06 0 -7.92664e-05 1.41345e-05 0 -0.000112777 1.96392e-05 0 -0.000157901 2.50168e-05 0 -0.000211852 2.71422e-05 0 -0.000264048 2.24078e-05 0 1.9092e-22 7.96967e-08 0 -9.55121e-08 8.04755e-08 0 -1.92889e-07 8.28456e-08 0 -2.94074e-07 8.69075e-08 0 -4.01172e-07 9.28377e-08 0 -5.16548e-07 1.00901e-07 0 -6.42941e-07 1.11473e-07 0 -7.83608e-07 1.25067e-07 0 -9.42515e-07 1.42379e-07 0 -1.12458e-06 1.64353e-07 0 -1.33602e-06 1.92266e-07 0 -1.58479e-06 2.27857e-07 0 -1.88126e-06 2.73516e-07 0 -2.23906e-06 3.3256e-07 0 -2.67645e-06 4.0964e-07 0 -3.21813e-06 5.11359e-07 0 -3.89802e-06 6.47216e-07 0 -4.76335e-06 8.31054e-07 0 -5.88086e-06 1.08335e-06 0 -7.34624e-06 1.43478e-06 0 -9.29889e-06 1.93199e-06 0 -1.19447e-05 2.64666e-06 0 -1.55926e-05 3.68992e-06 0 -2.07114e-05 5.23408e-06 0 -2.80198e-05 7.54315e-06 0 -3.86168e-05 1.10047e-05 0 -5.4163e-05 1.61293e-05 0 -7.70264e-05 2.34047e-05 0 -0.000110167 3.27246e-05 0 -0.000155856 4.20876e-05 0 -0.000212174 4.61101e-05 0 -0.000268038 3.83765e-05 0 1.16644e-21 1.11334e-07 0 -9.48881e-08 1.12419e-07 0 -1.91615e-07 1.15721e-07 0 -2.92094e-07 1.21381e-07 0 -3.98401e-07 1.29642e-07 0 -5.1286e-07 1.40873e-07 0 -6.38161e-07 1.55594e-07 0 -7.77498e-07 1.74517e-07 0 -9.34754e-07 1.9861e-07 0 -1.11474e-06 2.29176e-07 0 -1.3235e-06 2.67985e-07 0 -1.56879e-06 3.17443e-07 0 -1.86066e-06 3.80855e-07 0 -2.21233e-06 4.62801e-07 0 -2.64139e-06 5.69695e-07 0 -3.17163e-06 7.10642e-07 0 -3.83557e-06 8.9871e-07 0 -4.67834e-06 1.15294e-06 0 -5.76345e-06 1.50143e-06 0 -7.18166e-06 1.98629e-06 0 -9.06439e-06 2.67137e-06 0 -1.16055e-05 3.65489e-06 0 -1.50941e-05 5.08892e-06 0 -1.99699e-05 7.21017e-06 0 -2.69063e-05 1.03826e-05 0 -3.69503e-05 1.51483e-05 0 -5.17149e-05 2.22416e-05 0 -7.3647e-05 3.2429e-05 0 -0.000106112 4.577e-05 0 -0.000152543 5.97211e-05 0 -0.000212443 6.64903e-05 0 -0.000273824 5.55001e-05 0 1.27693e-22 1.4273e-07 0 -9.40605e-08 1.44117e-07 0 -1.89925e-07 1.48336e-07 0 -2.8947e-07 1.55566e-07 0 -3.94728e-07 1.66118e-07 0 -5.07972e-07 1.8046e-07 0 -6.31827e-07 1.99251e-07 0 -7.69407e-07 2.23398e-07 0 -9.24481e-07 2.54125e-07 0 -1.10171e-06 2.9309e-07 0 -1.30694e-06 3.4253e-07 0 -1.54765e-06 4.05493e-07 0 -1.83347e-06 4.86154e-07 0 -2.17705e-06 5.90296e-07 0 -2.59518e-06 7.26009e-07 0 -3.1104e-06 9.04747e-07 0 -3.75343e-06 1.14295e-06 0 -4.56667e-06 1.46449e-06 0 -5.60948e-06 1.9046e-06 0 -6.96603e-06 2.51588e-06 0 -8.75784e-06 3.37818e-06 0 -1.11623e-05 4.61386e-06 0 -1.44442e-05 6.41297e-06 0 -1.90023e-05 9.07117e-06 0 -2.5455e-05 1.30473e-05 0 -3.47646e-05 1.90342e-05 0 -4.84869e-05 2.80046e-05 0 -6.9091e-05 4.10798e-05 0 -0.000100493 5.86875e-05 0 -0.000147578 7.81177e-05 0 -0.000212405 8.88743e-05 0 -0.000282616 7.55084e-05 0 0 1.7382e-07 0 -9.30333e-08 1.75501e-07 0 -1.87827e-07 1.80618e-07 0 -2.86214e-07 1.89384e-07 0 -3.90171e-07 2.02175e-07 0 -5.01909e-07 2.19554e-07 0 -6.23976e-07 2.42316e-07 0 -7.5938e-07 2.71551e-07 0 -9.11758e-07 3.08732e-07 0 -1.08559e-06 3.55848e-07 0 -1.28647e-06 4.15584e-07 0 -1.52152e-06 4.91592e-07 0 -1.7999e-06 5.88868e-07 0 -2.13356e-06 7.14319e-07 0 -2.53826e-06 8.7759e-07 0 -3.03509e-06 1.09233e-06 0 -3.65255e-06 1.37803e-06 0 -4.42977e-06 1.76306e-06 0 -5.42097e-06 2.289e-06 0 -6.7027e-06 3.01807e-06 0 -8.38388e-06 4.0441e-06 0 -1.06233e-05 5.51143e-06 0 -1.36539e-05 7.64301e-06 0 -1.7829e-05 1.07884e-05 0 -2.36893e-05 1.54914e-05 0 -3.21034e-05 2.2591e-05 0 -4.44996e-05 3.33075e-05 0 -6.3369e-05 4.91964e-05 0 -9.30805e-05 7.13323e-05 0 -0.000140547 9.73536e-05 0 -0.000211503 0.000114252 0 -0.000293122 9.7461e-05 0 0 2.04537e-07 0 -9.18112e-08 2.06506e-07 0 -1.85332e-07 2.12496e-07 0 -2.82341e-07 2.22757e-07 0 -3.84752e-07 2.37724e-07 0 -4.94704e-07 2.58053e-07 0 -6.14649e-07 2.84666e-07 0 -7.47476e-07 3.18826e-07 0 -8.96663e-07 3.62242e-07 0 -1.06647e-06 4.17213e-07 0 -1.26222e-06 4.86845e-07 0 -1.4906e-06 5.75348e-07 0 -1.76023e-06 6.88481e-07 0 -2.08222e-06 8.34179e-07 0 -2.47118e-06 1.02352e-06 0 -2.94647e-06 1.2721e-06 0 -3.53409e-06 1.60224e-06 0 -4.26927e-06 2.04615e-06 0 -5.2006e-06 2.65121e-06 0 -6.3953e-06 3.48765e-06 0 -7.949e-06 4.66197e-06 0 -9.99691e-06 6.33617e-06 0 -1.27397e-05 8.76283e-06 0 -1.64692e-05 1.2335e-05 0 -2.16502e-05 1.7674e-05 0 -2.90009e-05 2.57494e-05 0 -3.98286e-05 3.80335e-05 0 -5.64427e-05 5.65944e-05 0 -8.37567e-05 8.3428e-05 0 -0.000130653 0.000117489 0 -0.000209017 0.000143243 0 -0.000308807 0.000127042 0 0 2.34818e-07 0 -9.03998e-08 2.37065e-07 0 -1.82451e-07 2.43901e-07 0 -2.7787e-07 2.55609e-07 0 -3.785e-07 2.7268e-07 0 -4.86393e-07 2.95857e-07 0 -6.03896e-07 3.26182e-07 0 -7.33762e-07 3.6508e-07 0 -8.79287e-07 4.14476e-07 0 -1.04449e-06 4.76961e-07 0 -1.23436e-06 5.56024e-07 0 -1.45513e-06 6.56392e-07 0 -1.71477e-06 7.84504e-07 0 -2.02349e-06 9.49243e-07 0 -2.39457e-06 1.16292e-06 0 -2.84548e-06 1.44294e-06 0 -3.39934e-06 1.81393e-06 0 -4.08723e-06 2.31163e-06 0 -4.95112e-06 2.98796e-06 0 -6.04867e-06 3.92047e-06 0 -7.45935e-06 5.22486e-06 0 -9.29525e-06 7.07925e-06 0 -1.17156e-05 9.75685e-06 0 -1.49544e-05 1.36898e-05 0 -1.93681e-05 1.95566e-05 0 -2.55363e-05 2.84472e-05 0 -3.45116e-05 4.20676e-05 0 -4.84239e-05 6.30379e-05 0 -7.22196e-05 9.46397e-05 0 -0.00011725 0.000138103 0 -0.000203381 0.000177839 0 -0.000326206 0.000157921 0 0 2.64601e-07 0 -8.88055e-08 2.67116e-07 0 -1.79198e-07 2.74767e-07 0 -2.72821e-07 2.87867e-07 0 -3.71443e-07 3.06962e-07 0 -4.77018e-07 3.32872e-07 0 -5.91776e-07 3.6675e-07 0 -7.18316e-07 4.10173e-07 0 -8.59735e-07 4.65265e-07 0 -1.01978e-06 5.34879e-07 0 -1.20308e-06 6.22856e-07 0 -1.41537e-06 7.34373e-07 0 -1.66389e-06 8.76501e-07 0 -1.95787e-06 1.05891e-06 0 -2.30916e-06 1.29506e-06 0 -2.7331e-06 1.60373e-06 0 -3.24985e-06 2.01179e-06 0 -3.8857e-06 2.55737e-06 0 -4.67609e-06 3.29691e-06 0 -5.66722e-06 4.31213e-06 0 -6.92361e-06 5.72838e-06 0 -8.52808e-06 7.73122e-06 0 -1.06041e-05 1.06158e-05 0 -1.33067e-05 1.48311e-05 0 -1.69036e-05 2.11128e-05 0 -2.17551e-05 3.06256e-05 0 -2.8697e-05 4.52946e-05 0 -3.93273e-05 6.83029e-05 0 -5.85155e-05 0.000104355 0 -9.90713e-05 0.000158845 0 -0.000192434 0.000217886 0 -0.000352948 0.000212016 0 0 2.93827e-07 0 -8.70354e-08 2.96599e-07 0 -1.75586e-07 3.05031e-07 0 -2.6722e-07 3.19462e-07 0 -3.63616e-07 3.40489e-07 0 -4.66627e-07 3.69005e-07 0 -5.78351e-07 4.06264e-07 0 -7.01223e-07 4.53978e-07 0 -8.38121e-07 5.14451e-07 0 -9.92505e-07 5.90773e-07 0 -1.1686e-06 6.87087e-07 0 -1.37159e-06 8.08989e-07 0 -1.60799e-06 9.64048e-07 0 -1.88592e-06 1.16268e-06 0 -2.21572e-06 1.41918e-06 0 -2.61051e-06 1.75369e-06 0 -3.08717e-06 2.19439e-06 0 -3.66722e-06 2.78211e-06 0 -4.37871e-06 3.57516e-06 0 -5.25694e-06 4.66071e-06 0 -6.34865e-06 6.16637e-06 0 -7.71077e-06 8.28908e-06 0 -9.42024e-06 1.13261e-05 0 -1.15683e-05 1.57518e-05 0 -1.42887e-05 2.23124e-05 0 -1.77781e-05 3.22454e-05 0 -2.24436e-05 4.76256e-05 0 -2.94602e-05 7.20751e-05 0 -4.24533e-05 0.000112115 0 -7.54494e-05 0.000177683 0 -0.000171854 0.000267952 0 -0.000385566 0.000260906 0 0 3.22439e-07 0 -8.50976e-08 3.25456e-07 0 -1.71633e-07 3.3463e-07 0 -2.61091e-07 3.50326e-07 0 -3.55057e-07 3.73188e-07 0 -4.55271e-07 4.04171e-07 0 -5.63693e-07 4.44622e-07 0 -6.82578e-07 4.96372e-07 0 -8.14571e-07 5.61888e-07 0 -9.62824e-07 6.44456e-07 0 -1.13113e-06 7.48505e-07 0 -1.32413e-06 8.79933e-07 0 -1.54749e-06 1.04683e-06 0 -1.80824e-06 1.26002e-06 0 -2.11508e-06 1.53481e-06 0 -2.47888e-06 1.89179e-06 0 -2.91301e-06 2.36116e-06 0 -3.43433e-06 2.98376e-06 0 -4.06264e-06 3.82229e-06 0 -4.82363e-06 4.96171e-06 0 -5.74265e-06 6.53943e-06 0 -6.85746e-06 8.74298e-06 0 -8.18303e-06 1.18911e-05 0 -9.77682e-06 1.64315e-05 0 -1.15706e-05 2.31559e-05 0 -1.37141e-05 3.32654e-05 0 -1.58783e-05 4.89739e-05 0 -1.91433e-05 7.42054e-05 0 -2.42275e-05 0.000116846 0 -4.57356e-05 0.000193547 0 -0.000135002 0.000322061 0 -0.000426129 0.000394384 0 0 3.50382e-07 0 -8.30006e-08 3.53631e-07 0 -1.67356e-07 3.63506e-07 0 -2.54463e-07 3.80399e-07 0 -3.45806e-07 4.04988e-07 0 -4.43006e-07 4.3829e-07 0 -5.47875e-07 4.8173e-07 0 -6.62481e-07 5.37248e-07 0 -7.89222e-07 6.07437e-07 0 -9.30924e-07 6.95778e-07 0 -1.09094e-06 8.06883e-07 0 -1.2733e-06 9.47001e-07 0 -1.48285e-06 1.12444e-06 0 -1.72545e-06 1.35071e-06 0 -2.00815e-06 1.64117e-06 0 -2.33945e-06 2.01794e-06 0 -2.72927e-06 2.51037e-06 0 -3.18946e-06 3.163e-06 0 -3.73216e-06 4.03415e-06 0 -4.37218e-06 5.21856e-06 0 -5.11617e-06 6.83754e-06 0 -5.97792e-06 9.10405e-06 0 -6.92171e-06 1.22883e-05 0 -7.95031e-06 1.68955e-05 0 -8.84031e-06 2.36057e-05 0 -9.59418e-06 3.36979e-05 0 -9.32131e-06 4.93305e-05 0 -8.44943e-06 7.42915e-05 0 -5.01714e-06 0.000118624 0 -9.01123e-06 0.000200365 0 -7.25898e-05 0.00038893 0 -0.000509728 0.000507381 0 0 3.77606e-07 0 -8.07534e-08 3.81072e-07 0 -1.62774e-07 3.91607e-07 0 -2.47365e-07 4.09619e-07 0 -3.35906e-07 4.35824e-07 0 -4.29892e-07 4.71288e-07 0 -5.3098e-07 5.17505e-07 0 -6.41039e-07 5.76499e-07 0 -7.62216e-07 6.50989e-07 0 -8.96996e-07 7.44574e-07 0 -1.04827e-06 8.62085e-07 0 -1.21948e-06 1.00991e-06 0 -1.41452e-06 1.19675e-06 0 -1.63832e-06 1.43417e-06 0 -1.89564e-06 1.73831e-06 0 -2.19394e-06 2.13087e-06 0 -2.53686e-06 2.64286e-06 0 -2.93715e-06 3.31667e-06 0 -3.38746e-06 4.21439e-06 0 -3.91566e-06 5.42309e-06 0 -4.46396e-06 7.07252e-06 0 -5.11233e-06 9.35229e-06 0 -5.60713e-06 1.25489e-05 0 -6.21641e-06 1.71048e-05 0 -5.98336e-06 2.37164e-05 0 -5.8311e-06 3.3524e-05 0 -2.41292e-06 4.86145e-05 0 1.22235e-06 7.26887e-05 0 1.58537e-05 0.000115415 0 3.01977e-05 0.000199642 0 2.92804e-05 0.000427464 0 -0.000502908 0.000976881 0 0 4.04063e-07 0 -7.83661e-08 4.07731e-07 0 -1.57907e-07 4.18879e-07 0 -2.3983e-07 4.37933e-07 0 -3.25402e-07 4.65635e-07 0 -4.15991e-07 5.03098e-07 0 -5.13089e-07 5.51863e-07 0 -6.18367e-07 6.14045e-07 0 -7.33705e-07 6.92416e-07 0 -8.6123e-07 7.90756e-07 0 -1.00342e-06 9.13891e-07 0 -1.16293e-06 1.06861e-06 0 -1.34321e-06 1.26331e-06 0 -1.54696e-06 1.51059e-06 0 -1.7797e-06 1.82518e-06 0 -2.04106e-06 2.23161e-06 0 -2.34321e-06 2.75591e-06 0 -2.66849e-06 3.44854e-06 0 -3.05616e-06 4.35579e-06 0 -3.41174e-06 5.58698e-06 0 -3.89076e-06 7.2261e-06 0 -4.0834e-06 9.51937e-06 0 -4.63237e-06 1.26324e-05 0 -3.8854e-06 1.71307e-05 0 -4.44075e-06 2.34264e-05 0 1.07199e-07 3.28432e-05 0 -2.895e-07 4.68853e-05 0 1.85589e-05 6.91478e-05 0 2.05973e-05 0.000108282 0 9.48143e-05 0.000184239 0 0.000153279 0.000427685 0 -0.000752541 0.00150107 0 0 4.29706e-07 0 -7.58479e-08 4.33561e-07 0 -1.52777e-07 4.45276e-07 0 -2.3189e-07 4.65288e-07 0 -3.14344e-07 4.94369e-07 0 -4.01366e-07 5.33653e-07 0 -4.94294e-07 5.84749e-07 0 -5.94578e-07 6.4978e-07 0 -7.03837e-07 7.3168e-07 0 -8.23865e-07 8.34116e-07 0 -9.56573e-07 9.62369e-07 0 -1.10429e-06 1.1226e-06 0 -1.26879e-06 1.32464e-06 0 -1.45357e-06 1.57855e-06 0 -1.65792e-06 1.90384e-06 0 -1.88944e-06 2.31592e-06 0 -2.13453e-06 2.85665e-06 0 -2.41905e-06 3.54587e-06 0 -2.6738e-06 4.48064e-06 0 -3.00583e-06 5.67369e-06 0 -3.12142e-06 7.3617e-06 0 -3.47177e-06 9.51053e-06 0 -2.88811e-06 1.26955e-05 0 -3.20714e-06 1.67771e-05 0 6.1327e-08 2.30152e-05 0 -2.14391e-07 3.15078e-05 0 1.2799e-05 4.40626e-05 0 1.30751e-05 6.53206e-05 0 6.32133e-05 9.22009e-05 0 8.49993e-05 0.000174101 0 0.000329286 0.000261396 0 0.00238784 0.00240626 0 0 4.54495e-07 0 -7.32119e-08 4.58522e-07 0 -1.47402e-07 4.70754e-07 0 -2.23582e-07 4.91641e-07 0 -3.02774e-07 5.2197e-07 0 -3.86094e-07 5.62908e-07 0 -4.74673e-07 6.1608e-07 0 -5.69799e-07 6.83679e-07 0 -6.72785e-07 7.68617e-07 0 -7.85022e-07 8.7474e-07 0 -9.08268e-07 1.00709e-06 0 -1.04321e-06 1.1724e-06 0 -1.19348e-06 1.37943e-06 0 -1.35483e-06 1.64017e-06 0 -1.54013e-06 1.97008e-06 0 -1.72101e-06 2.39132e-06 0 -1.95374e-06 2.93143e-06 0 -2.10531e-06 3.63347e-06 0 -2.4214e-06 4.54653e-06 0 -2.34184e-06 5.75894e-06 0 -2.8911e-06 7.35757e-06 0 -1.83846e-06 9.53255e-06 0 -3.25415e-06 1.24394e-05 0 1.38978e-06 1.64927e-05 0 -3.36583e-06 2.20218e-05 0 1.39378e-05 2.98592e-05 0 -2.82549e-06 4.11463e-05 0 5.85558e-05 5.69868e-05 0 6.57271e-06 8.37604e-05 0 0.000224704 0.000118456 0 0.00031487 0.000210321 0 -0.000706841 -0.000267906 0 </DataArray> 
</PointData> 
<Points> 
<DataArray type="Float32" NumberOfComponents="3"> 