<?xml version="1.0"?> 
<VTKFile type="StructuredGrid" version="0.1"> 
<StructuredGrid WholeExtent="0 31 0 31 0 0"> 
<Piece Extent="0 31 0 31 0 0"> 
<PointData>
<DataArray type="Float32" Name="B" format="ascii" NumberOfComponents="3"> 
0 -0 0 -8.59887e-07 -0 0 -1.72535e-06 -0 0 -2.60196e-06 -0 0 -3.49532e-06 -0 0 -4.41106e-06 -0 0 -5.35479e-06 -0 0 -6.3322e-06 -0 0 -7.34894e-06 -0 0 -8.41068e-06 -0 0 -9.52307e-06 -0 0 -1.06917e-05 -0 0 -1.19221e-05 -0 0 -1.32195e-05 -0 0 -1.45891e-05 -0 0 -1.60357e-05 -0 0 -1.75637e-05 -0 0 -1.9177e-05 -0 0 -2.0879e-05 -0 0 -2.26721e-05 -0 0 -2.45579e-05 -0 0 -2.6537e-05 -0 0 -2.86086e-05 -0 0 -3.07707e-05 -0 0 -3.30196e-05 -0 0 -3.53499e-05 -0 0 -3.77545e-05 -0 0 -4.02244e-05 -0 0 -4.27485e-05 -0 0 -4.53139e-05 -0 0 -4.79056e-05 -0 0 -5.05069e-05 -0 0 -2.1591e-21 8.5803e-07 0 -8.57101e-07 8.60815e-07 0 -1.71977e-06 8.69174e-07 0 -2.59359e-06 8.8312e-07 0 -3.48414e-06 9.02672e-07 0 -4.39705e-06 9.27851e-07 0 -5.33796e-06 9.58681e-07 0 -6.31253e-06 9.95179e-07 0 -7.32643e-06 1.03735e-06 0 -8.38535e-06 1.08519e-06 0 -9.49495e-06 1.13866e-06 0 -1.06608e-05 1.19768e-06 0 -1.18885e-05 1.26214e-06 0 -1.31834e-05 1.33184e-06 0 -1.45505e-05 1.40655e-06 0 -1.59949e-05 1.4859e-06 0 -1.7521e-05 1.56946e-06 0 -1.91326e-05 1.65667e-06 0 -2.08333e-05 1.74682e-06 0 -2.26256e-05 1.83908e-06 0 -2.45112e-05 1.93246e-06 0 -2.64906e-05 2.0258e-06 0 -2.85633e-05 2.1178e-06 0 -3.07272e-05 2.20696e-06 0 -3.29787e-05 2.29167e-06 0 -3.53126e-05 2.37017e-06 0 -3.77218e-05 2.44058e-06 0 -4.01971e-05 2.50098e-06 0 -4.27277e-05 2.54937e-06 0 -4.53005e-05 2.5838e-06 0 -4.79006e-05 2.60238e-06 0 -5.05112e-05 2.60336e-06 0 -3.54538e-21 1.71049e-06 0 -8.48747e-07 1.71606e-06 0 -1.70305e-06 1.73276e-06 0 -2.56848e-06 1.76064e-06 0 -3.45061e-06 1.79972e-06 0 -4.35506e-06 1.85005e-06 0 -5.28747e-06 1.91169e-06 0 -6.25352e-06 1.98468e-06 0 -7.25891e-06 2.06904e-06 0 -8.30934e-06 2.16475e-06 0 -9.41052e-06 2.27176e-06 0 -1.05681e-05 2.38992e-06 0 -1.17878e-05 2.51901e-06 0 -1.30749e-05 2.65868e-06 0 -1.44348e-05 2.80842e-06 0 -1.58724e-05 2.96758e-06 0 -1.73925e-05 3.13526e-06 0 -1.89992e-05 3.31036e-06 0 -2.0696e-05 3.49151e-06 0 -2.24857e-05 3.67702e-06 0 -2.43703e-05 3.86493e-06 0 -2.63507e-05 4.05293e-06 0 -2.84264e-05 4.23839e-06 0 -3.05957e-05 4.41835e-06 0 -3.28552e-05 4.58954e-06 0 -3.51997e-05 4.7484e-06 0 -3.76224e-05 4.89119e-06 0 -4.01143e-05 5.01396e-06 0 -4.26644e-05 5.11271e-06 0 -4.52597e-05 5.18347e-06 0 -4.78849e-05 5.22239e-06 0 -5.05232e-05 5.22594e-06 0 0 2.55182e-06 0 -8.3484e-07 2.56016e-06 0 -1.67521e-06 2.58519e-06 0 -2.52666e-06 2.62695e-06 0 -3.39476e-06 2.68551e-06 0 -4.28511e-06 2.76094e-06 0 -5.20336e-06 2.85335e-06 0 -6.15519e-06 2.96281e-06 0 -7.14634e-06 3.08936e-06 0 -8.18257e-06 3.23301e-06 0 -9.26966e-06 3.39369e-06 0 -1.04134e-05 3.57122e-06 0 -1.16195e-05 3.76529e-06 0 -1.28936e-05 3.9754e-06 0 -1.42411e-05 4.20086e-06 0 -1.56674e-05 4.44068e-06 0 -1.71774e-05 4.6936e-06 0 -1.87754e-05 4.95797e-06 0 -2.04655e-05 5.23176e-06 0 -2.22508e-05 5.51251e-06 0 -2.41336e-05 5.79725e-06 0 -2.61153e-05 6.08255e-06 0 -2.81958e-05 6.36444e-06 0 -3.03737e-05 6.63847e-06 0 -3.26462e-05 6.89968e-06 0 -3.50084e-05 7.1427e-06 0 -3.74536e-05 7.36179e-06 0 -3.9973e-05 7.55096e-06 0 -4.25556e-05 7.70407e-06 0 -4.51884e-05 7.81502e-06 0 -4.78559e-05 7.87788e-06 0 -5.05408e-05 7.88718e-06 0 -1.33147e-22 3.37648e-06 0 -8.15402e-07 3.38758e-06 0 -1.6363e-06 3.42088e-06 0 -2.46821e-06 3.47646e-06 0 -3.31667e-06 3.55441e-06 0 -4.18727e-06 3.65487e-06 0 -5.08566e-06 3.77796e-06 0 -6.01754e-06 3.92382e-06 0 -6.98869e-06 4.09256e-06 0 -8.00493e-06 4.28422e-06 0 -9.07215e-06 4.49874e-06 0 -1.01963e-05 4.73594e-06 0 -1.13832e-05 4.99548e-06 0 -1.26387e-05 5.27674e-06 0 -1.39687e-05 5.57887e-06 0 -1.53787e-05 5.90064e-06 0 -1.6874e-05 6.24041e-06 0 -1.84595e-05 6.59608e-06 0 -2.01396e-05 6.96499e-06 0 -2.19181e-05 7.34391e-06 0 -2.37978e-05 7.72894e-06 0 -2.57807e-05 8.11549e-06 0 -2.78674e-05 8.49828e-06 0 -3.0057e-05 8.87133e-06 0 -3.23472e-05 9.22796e-06 0 -3.47337e-05 9.56088e-06 0 -3.72101e-05 9.8623e-06 0 -3.9768e-05 1.0124e-05 0 -4.23964e-05 1.03376e-05 0 -4.50821e-05 1.04947e-05 0 -4.78093e-05 1.05871e-05 0 -5.05602e-05 1.06071e-05 0 -1.25756e-20 4.17896e-06 0 -7.9047e-07 4.19279e-06 0 -1.58638e-06 4.23431e-06 0 -2.39321e-06 4.30361e-06 0 -3.21644e-06 4.40083e-06 0 -4.06166e-06 4.52615e-06 0 -4.93448e-06 4.67979e-06 0 -5.84064e-06 4.86196e-06 0 -6.78595e-06 5.07284e-06 0 -7.77632e-06 5.31253e-06 0 -8.81776e-06 5.58107e-06 0 -9.91634e-06 5.87831e-06 0 -1.10782e-05 6.20388e-06 0 -1.23095e-05 6.55717e-06 0 -1.36163e-05 6.93718e-06 0 -1.50047e-05 7.34251e-06 0 -1.64803e-05 7.77124e-06 0 -1.80489e-05 8.22084e-06 0 -1.97153e-05 8.68811e-06 0 -2.1484e-05 9.16909e-06 0 -2.33587e-05 9.65897e-06 0 -2.53422e-05 1.01521e-05 0 -2.74357e-05 1.06418e-05 0 -2.96394e-05 1.11205e-05 0 -3.19516e-05 1.15798e-05 0 -3.43687e-05 1.20105e-05 0 -3.68849e-05 1.24025e-05 0 -3.9492e-05 1.27452e-05 0 -4.21794e-05 1.30278e-05 0 -4.49337e-05 1.32392e-05 0 -4.77388e-05 1.33688e-05 0 -5.05759e-05 1.34065e-05 0 -7.63069e-21 4.9538e-06 0 -7.60097e-07 4.97033e-06 0 -1.52557e-06 5.01997e-06 0 -2.3018e-06 5.10284e-06 0 -3.09426e-06 5.21913e-06 0 -3.90844e-06 5.36912e-06 0 -4.74999e-06 5.5531e-06 0 -5.62461e-06 5.77138e-06 0 -6.53817e-06 6.02427e-06 0 -7.49666e-06 6.31199e-06 0 -8.50623e-06 6.63467e-06 0 -9.57314e-06 6.99228e-06 0 -1.07038e-05 7.38452e-06 0 -1.19047e-05 7.81079e-06 0 -1.31823e-05 8.27008e-06 0 -1.45432e-05 8.76089e-06 0 -1.59938e-05 9.28107e-06 0 -1.75402e-05 9.8278e-06 0 -1.91885e-05 1.03974e-05 0 -2.09438e-05 1.09852e-05 0 -2.28108e-05 1.15856e-05 0 -2.47932e-05 1.21919e-05 0 -2.68936e-05 1.2796e-05 0 -2.9113e-05 1.33889e-05 0 -3.14508e-05 1.39603e-05 0 -3.39042e-05 1.44987e-05 0 -3.64683e-05 1.49918e-05 0 -3.91354e-05 1.54265e-05 0 -4.18951e-05 1.57891e-05 0 -4.47341e-05 1.60657e-05 0 -4.76357e-05 1.62427e-05 0 -5.05805e-05 1.63072e-05 0 0 5.69558e-06 0 -7.24356e-07 5.71477e-06 0 -1.45399e-06 5.77241e-06 0 -2.19419e-06 5.86864e-06 0 -2.95035e-06 6.00376e-06 0 -3.7279e-06 6.1781e-06 0 -4.53243e-06 6.39209e-06 0 -5.36966e-06 6.64619e-06 0 -6.24547e-06 6.94084e-06 0 -7.16595e-06 7.27645e-06 0 -8.13737e-06 7.65332e-06 0 -9.16622e-06 8.07156e-06 0 -1.02592e-05 8.53105e-06 0 -1.14231e-05 9.0313e-06 0 -1.2665e-05 9.57137e-06 0 -1.3992e-05 1.01498e-05 0 -1.54113e-05 1.07642e-05 0 -1.69298e-05 1.14117e-05 0 -1.85544e-05 1.20882e-05 0 -2.02916e-05 1.27886e-05 0 -2.21472e-05 1.35063e-05 0 -2.41261e-05 1.42336e-05 0 -2.62322e-05 1.49613e-05 0 -2.84679e-05 1.56787e-05 0 -3.08339e-05 1.63735e-05 0 -3.33287e-05 1.70321e-05 0 -3.59482e-05 1.76396e-05 0 -3.86857e-05 1.81799e-05 0 -4.15311e-05 1.86364e-05 0 -4.44712e-05 1.89918e-05 0 -4.74891e-05 1.92293e-05 0 -5.05641e-05 1.93326e-05 0 0 6.399e-06 0 -6.83348e-07 6.4208e-06 0 -1.37184e-06 6.48625e-06 0 -2.07066e-06 6.59559e-06 0 -2.78506e-06 6.74916e-06 0 -3.5204e-06 6.94744e-06 0 -4.2822e-06 7.19099e-06 0 -5.07615e-06 7.48044e-06 0 -5.90815e-06 7.81644e-06 0 -6.78434e-06 8.19963e-06 0 -7.71113e-06 8.63054e-06 0 -8.69522e-06 9.10955e-06 0 -9.7436e-06 9.63675e-06 0 -1.08635e-05 1.02119e-05 0 -1.20626e-05 1.08342e-05 0 -1.33486e-05 1.15024e-05 0 -1.47294e-05 1.22142e-05 0 -1.62132e-05 1.29665e-05 0 -1.78078e-05 1.37551e-05 0 -1.9521e-05 1.45743e-05 0 -2.136e-05 1.54171e-05 0 -2.33315e-05 1.62747e-05 0 -2.54408e-05 1.71368e-05 0 -2.76922e-05 1.79908e-05 0 -3.00879e-05 1.88228e-05 0 -3.26279e-05 1.96165e-05 0 -3.53096e-05 2.03543e-05 0 -3.81273e-05 2.10171e-05 0 -4.10718e-05 2.15847e-05 0 -4.41301e-05 2.20361e-05 0 -4.72847e-05 2.23504e-05 0 -5.0514e-05 2.25076e-05 0 0 7.05886e-06 0 -6.37201e-07 7.08318e-06 0 -1.27938e-06 7.15624e-06 0 -1.93156e-06 7.27833e-06 0 -2.59885e-06 7.44988e-06 0 -3.28648e-06 7.67152e-06 0 -3.99987e-06 7.94398e-06 0 -4.74464e-06 8.26812e-06 0 -5.52668e-06 8.64484e-06 0 -6.35217e-06 9.07506e-06 0 -7.22764e-06 9.55963e-06 0 -8.15998e-06 1.00993e-05 0 -9.1565e-06 1.06944e-05 0 -1.02249e-05 1.13452e-05 0 -1.13733e-05 1.20512e-05 0 -1.26103e-05 1.28112e-05 0 -1.39447e-05 1.36234e-05 0 -1.53857e-05 1.44848e-05 0 -1.69425e-05 1.5391e-05 0 -1.86243e-05 1.63361e-05 0 -2.04403e-05 1.73127e-05 0 -2.23987e-05 1.83111e-05 0 -2.45072e-05 1.93198e-05 0 -2.67718e-05 2.03248e-05 0 -2.9197e-05 2.13099e-05 0 -3.17848e-05 2.22565e-05 0 -3.45344e-05 2.31439e-05 0 -3.74415e-05 2.39495e-05 0 -4.04982e-05 2.46491e-05 0 -4.36917e-05 2.52176e-05 0 -4.70047e-05 2.56292e-05 0 -5.04147e-05 2.58592e-05 0 0 7.67009e-06 0 -5.86082e-07 7.69685e-06 0 -1.17693e-06 7.77724e-06 0 -1.77737e-06 7.91162e-06 0 -2.39232e-06 8.10054e-06 0 -3.02684e-06 8.34479e-06 0 -3.68619e-06 8.64531e-06 0 -4.37591e-06 9.00322e-06 0 -5.10181e-06 9.41973e-06 0 -5.87008e-06 9.89612e-06 0 -6.68733e-06 1.04336e-05 0 -7.56064e-06 1.10334e-05 0 -8.49759e-06 1.16964e-05 0 -9.50633e-06 1.24232e-05 0 -1.05956e-05 1.32138e-05 0 -1.17747e-05 1.40677e-05 0 -1.30534e-05 1.49834e-05 0 -1.44423e-05 1.5958e-05 0 -1.5952e-05 1.69876e-05 0 -1.75935e-05 1.80662e-05 0 -1.93779e-05 1.91861e-05 0 -2.13158e-05 2.0337e-05 0 -2.34171e-05 2.15062e-05 0 -2.56905e-05 2.26784e-05 0 -2.81431e-05 2.38351e-05 0 -3.07793e-05 2.49553e-05 0 -3.36009e-05 2.6015e-05 0 -3.66056e-05 2.69877e-05 0 -3.97868e-05 2.78447e-05 0 -4.3133e-05 2.85559e-05 0 -4.6627e-05 2.90901e-05 0 -5.0245e-05 2.94166e-05 0 0 8.22785e-06 0 -5.30202e-07 8.25693e-06 0 -1.06492e-06 8.3443e-06 0 -1.60871e-06 8.4904e-06 0 -2.16626e-06 8.69591e-06 0 -2.7424e-06 8.9618e-06 0 -3.34221e-06 9.28927e-06 0 -3.97105e-06 9.67973e-06 0 -4.63463e-06 1.01348e-05 0 -5.33909e-06 1.0656e-05 0 -6.09106e-06 1.12453e-05 0 -6.89775e-06 1.19043e-05 0 -7.76699e-06 1.26345e-05 0 -8.70734e-06 1.34372e-05 0 -9.7281e-06 1.43131e-05 0 -1.08394e-05 1.52623e-05 0 -1.20522e-05 1.6284e-05 0 -1.33781e-05 1.7376e-05 0 -1.48297e-05 1.85348e-05 0 -1.64199e-05 1.97547e-05 0 -1.81619e-05 2.1028e-05 0 -2.00692e-05 2.23439e-05 0 -2.21545e-05 2.36892e-05 0 -2.44297e-05 2.50468e-05 0 -2.69049e-05 2.63965e-05 0 -2.9588e-05 2.77143e-05 0 -3.24835e-05 2.89728e-05 0 -3.55921e-05 3.01413e-05 0 -3.89095e-05 3.11861e-05 0 -4.24256e-05 3.20712e-05 0 -4.61239e-05 3.27591e-05 0 -4.99809e-05 3.32125e-05 0 0 8.7275e-06 0 -4.6982e-07 8.75875e-06 0 -9.43839e-07 8.85268e-06 0 -1.42632e-06 9.00979e-06 0 -1.92163e-06 9.23094e-06 0 -2.43434e-06 9.51728e-06 0 -2.96926e-06 9.87028e-06 0 -3.53153e-06 1.02917e-05 0 -4.12666e-06 1.07835e-05 0 -4.76069e-06 1.13479e-05 0 -5.44019e-06 1.19873e-05 0 -6.17242e-06 1.27039e-05 0 -6.96541e-06 1.35e-05 0 -7.82806e-06 1.43778e-05 0 -8.77022e-06 1.53389e-05 0 -9.8028e-06 1.63842e-05 0 -1.09378e-05 1.7514e-05 0 -1.21884e-05 1.8727e-05 0 -1.35689e-05 2.00205e-05 0 -1.50943e-05 2.13895e-05 0 -1.67807e-05 2.28266e-05 0 -1.86444e-05 2.43211e-05 0 -2.07018e-05 2.58592e-05 0 -2.29684e-05 2.74226e-05 0 -2.54583e-05 2.89891e-05 0 -2.81835e-05 3.0532e-05 0 -3.11523e-05 3.20202e-05 0 -3.4369e-05 3.34182e-05 0 -3.78323e-05 3.46868e-05 0 -4.15347e-05 3.57836e-05 0 -4.54611e-05 3.66635e-05 0 -4.95871e-05 3.72799e-05 0 3.81725e-21 9.1647e-06 0 -4.05248e-07 9.19796e-06 0 -8.14324e-07 9.29793e-06 0 -1.23112e-06 9.46522e-06 0 -1.65965e-06 9.70082e-06 0 -2.10413e-06 1.00061e-05 0 -2.56904e-06 1.03829e-05 0 -3.05921e-06 1.08333e-05 0 -3.5799e-06 1.13597e-05 0 -4.13692e-06 1.19649e-05 0 -4.73671e-06 1.2652e-05 0 -5.38649e-06 1.34239e-05 0 -6.09435e-06 1.42839e-05 0 -6.86945e-06 1.5235e-05 0 -7.7221e-06 1.62802e-05 0 -8.66396e-06 1.74215e-05 0 -9.70809e-06 1.86605e-05 0 -1.08691e-05 1.99972e-05 0 -1.21631e-05 2.14302e-05 0 -1.36078e-05 2.29557e-05 0 -1.52221e-05 2.45671e-05 0 -1.70259e-05 2.62542e-05 0 -1.90396e-05 2.8003e-05 0 -2.12833e-05 2.97945e-05 0 -2.3776e-05 3.16046e-05 0 -2.65346e-05 3.34038e-05 0 -2.95724e-05 3.51571e-05 0 -3.28981e-05 3.68239e-05 0 -3.65148e-05 3.83591e-05 0 -4.04183e-05 3.97127e-05 0 -4.45963e-05 4.0831e-05 0 -4.90282e-05 4.16603e-05 0 3.3771e-20 9.53546e-06 0 -3.36859e-07 9.57052e-06 0 -6.77112e-07 9.67593e-06 0 -1.02422e-06 9.85239e-06 0 -1.38177e-06 1.01011e-05 0 -1.75355e-06 1.04236e-05 0 -2.14363e-06 1.0822e-05 0 -2.55646e-06 1.12989e-05 0 -2.99693e-06 1.18572e-05 0 -3.47052e-06 1.25002e-05 0 -3.98341e-06 1.32317e-05 0 -4.54263e-06 1.40558e-05 0 -5.15624e-06 1.49765e-05 0 -5.83349e-06 1.59982e-05 0 -6.58503e-06 1.71251e-05 0 -7.4231e-06 1.8361e-05 0 -8.36174e-06 1.97089e-05 0 -9.417e-06 2.11708e-05 0 -1.0607e-05 2.2747e-05 0 -1.19519e-05 2.44354e-05 0 -1.34741e-05 2.62311e-05 0 -1.51974e-05 2.8125e-05 0 -1.71471e-05 3.01033e-05 0 -1.93488e-05 3.21469e-05 0 -2.18273e-05 3.42301e-05 0 -2.46057e-05 3.63207e-05 0 -2.77034e-05 3.83795e-05 0 -3.11351e-05 4.03607e-05 0 -3.4909e-05 4.22122e-05 0 -3.90259e-05 4.38763e-05 0 -4.34772e-05 4.52903e-05 0 -4.82413e-05 4.63831e-05 0 6.206e-21 9.83617e-06 0 -2.65086e-07 9.8728e-06 0 -5.33068e-07 9.98295e-06 0 -8.06908e-07 1.01674e-05 0 -1.08969e-06 1.04275e-05 0 -1.38472e-06 1.07652e-05 0 -1.69556e-06 1.11827e-05 0 -2.02617e-06 1.16831e-05 0 -2.38095e-06 1.22699e-05 0 -2.76495e-06 1.2947e-05 0 -3.18393e-06 1.37191e-05 0 -3.64459e-06 1.4591e-05 0 -4.15474e-06 1.55681e-05 0 -4.72353e-06 1.66562e-05 0 -5.36173e-06 1.7861e-05 0 -6.08199e-06 1.91882e-05 0 -6.89915e-06 2.0643e-05 0 -7.83054e-06 2.22296e-05 0 -8.8962e-06 2.39509e-05 0 -1.01191e-05 2.58073e-05 0 -1.1525e-05 2.77961e-05 0 -1.31426e-05 2.99102e-05 0 -1.50026e-05 3.21374e-05 0 -1.71371e-05 3.44585e-05 0 -1.95782e-05 3.68471e-05 0 -2.23566e-05 3.92682e-05 0 -2.54995e-05 4.16785e-05 0 -2.90285e-05 4.40263e-05 0 -3.2959e-05 4.6252e-05 0 -3.72969e-05 4.82897e-05 0 -4.20403e-05 5.00653e-05 0 -4.71811e-05 5.15105e-05 0 0 1.00637e-05 0 -1.90427e-07 1.01016e-05 0 -3.83189e-07 1.02157e-05 0 -5.80684e-07 1.04069e-05 0 -7.85431e-07 1.06766e-05 0 -1.00014e-06 1.10269e-05 0 -1.22781e-06 1.14607e-05 0 -1.47179e-06 1.19811e-05 0 -1.73589e-06 1.25924e-05 0 -2.02455e-06 1.32991e-05 0 -2.34297e-06 1.41066e-05 0 -2.6973e-06 1.50209e-05 0 -3.09486e-06 1.60488e-05 0 -3.54448e-06 1.71975e-05 0 -4.05673e-06 1.84745e-05 0 -4.64439e-06 1.98877e-05 0 -5.32279e-06 2.1445e-05 0 -6.1103e-06 2.31535e-05 0 -7.02871e-06 2.50192e-05 0 -8.10366e-06 2.70461e-05 0 -9.36477e-06 2.92348e-05 0 -1.08457e-05 3.15814e-05 0 -1.25836e-05 3.40761e-05 0 -1.46185e-05 3.67013e-05 0 -1.69913e-05 3.943e-05 0 -1.97422e-05 4.22252e-05 0 -2.29079e-05 4.50388e-05 0 -2.65195e-05 4.78127e-05 0 -3.05992e-05 5.04792e-05 0 -3.51615e-05 5.29625e-05 0 -4.02094e-05 5.51824e-05 0 -4.57281e-05 5.70297e-05 0 0 1.02155e-05 0 -1.13443e-07 1.02544e-05 0 -2.286e-07 1.03716e-05 0 -3.4724e-07 1.05679e-05 0 -4.71246e-07 1.08451e-05 0 -6.02674e-07 1.12055e-05 0 -7.43836e-07 1.1652e-05 0 -8.97377e-07 1.21885e-05 0 -1.06639e-06 1.28195e-05 0 -1.25456e-06 1.35504e-05 0 -1.46631e-06 1.43873e-05 0 -1.707e-06 1.53375e-05 0 -1.98324e-06 1.64089e-05 0 -2.30315e-06 1.76104e-05 0 -2.67677e-06 1.89516e-05 0 -3.11656e-06 2.04431e-05 0 -3.63792e-06 2.20956e-05 0 -4.2598e-06 2.39198e-05 0 -5.00538e-06 2.59259e-05 0 -5.90274e-06 2.81223e-05 0 -6.98531e-06 3.05144e-05 0 -8.2922e-06 3.31033e-05 0 -9.86799e-06 3.58829e-05 0 -1.17618e-05 3.88387e-05 0 -1.40257e-05 4.19447e-05 0 -1.67119e-05 4.51619e-05 0 -1.98695e-05 4.84375e-05 0 -2.35401e-05 5.17053e-05 0 -2.77564e-05 5.48878e-05 0 -3.25375e-05 5.79003e-05 0 -3.78956e-05 6.06468e-05 0 -4.38521e-05 6.30738e-05 0 8.21643e-21 1.02895e-05 0 -3.4753e-08 1.03291e-05 0 -7.0545e-08 1.04483e-05 0 -1.08461e-07 1.06482e-05 0 -1.49679e-07 1.09306e-05 0 -1.95528e-07 1.12979e-05 0 -2.47553e-07 1.17535e-05 0 -3.0759e-07 1.23015e-05 0 -3.77873e-07 1.29469e-05 0 -4.61159e-07 1.36957e-05 0 -5.60893e-07 1.4555e-05 0 -6.81423e-07 1.5533e-05 0 -8.28274e-07 1.6639e-05 0 -1.0085e-06 1.78836e-05 0 -1.23114e-06 1.92787e-05 0 -1.50778e-06 2.08375e-05 0 -1.85323e-06 2.25743e-05 0 -2.28641e-06 2.4504e-05 0 -2.83121e-06 2.66418e-05 0 -3.51758e-06 2.90019e-05 0 -4.38247e-06 3.15963e-05 0 -5.47063e-06 3.44327e-05 0 -6.83477e-06 3.75117e-05 0 -8.5351e-06 4.08238e-05 0 -1.06373e-05 4.43458e-05 0 -1.32093e-05 4.8038e-05 0 -1.63158e-05 5.1842e-05 0 -2.0014e-05 5.56817e-05 0 -2.4345e-05 5.94669e-05 0 -2.93378e-05 6.30973e-05 0 -3.50021e-05 6.64815e-05 0 -4.13153e-05 6.94347e-05 0 3.59162e-20 1.02843e-05 0 4.4968e-08 1.03243e-05 0 8.96175e-08 1.04445e-05 0 1.33597e-07 1.06462e-05 0 1.76484e-07 1.09312e-05 0 2.17743e-07 1.13022e-05 0 2.56677e-07 1.17627e-05 0 2.92357e-07 1.23171e-05 0 3.23538e-07 1.2971e-05 0 3.48545e-07 1.37308e-05 0 3.65121e-07 1.46043e-05 0 3.70222e-07 1.56007e-05 0 3.59739e-07 1.67307e-05 0 3.28135e-07 1.80064e-05 0 2.67947e-07 1.94422e-05 0 1.69151e-07 2.10541e-05 0 1.8323e-08 2.28601e-05 0 -2.02408e-07 2.488e-05 0 -5.16643e-07 2.7135e-05 0 -9.55208e-07 2.96465e-05 0 -1.55776e-06 3.24351e-05 0 -2.37433e-06 3.55179e-05 0 -3.46639e-06 3.89052e-05 0 -4.90687e-06 4.25962e-05 0 -6.77871e-06 4.65737e-05 0 -9.17019e-06 5.07991e-05 0 -1.2169e-05 5.52082e-05 0 -1.58505e-05 5.97117e-05 0 -2.02729e-05 6.41984e-05 0 -2.54615e-05 6.85526e-05 0 -3.1427e-05 7.26425e-05 0 -3.82234e-05 7.65525e-05 0 3.0416e-21 1.01993e-05 0 1.25002e-07 1.02392e-05 0 2.50439e-07 1.03594e-05 0 3.76728e-07 1.05611e-05 0 5.04246e-07 1.0846e-05 0 6.33303e-07 1.12172e-05 0 7.6411e-07 1.16781e-05 0 8.96732e-07 1.22336e-05 0 1.03103e-06 1.28894e-05 0 1.16655e-06 1.36524e-05 0 1.30244e-06 1.4531e-05 0 1.43721e-06 1.55352e-05 0 1.56856e-06 1.66768e-05 0 1.69293e-06 1.79696e-05 0 1.80508e-06 1.943e-05 0 1.89737e-06 2.10769e-05 0 1.95882e-06 2.29323e-05 0 1.97388e-06 2.50211e-05 0 1.92076e-06 2.73714e-05 0 1.76939e-06 3.00135e-05 0 1.47901e-06 3.29786e-05 0 9.95452e-07 3.62967e-05 0 2.48752e-07 3.99922e-05 0 -8.48462e-07 4.40784e-05 0 -2.40005e-06 4.85495e-05 0 -4.52264e-06 5.3372e-05 0 -7.33453e-06 5.8477e-05 0 -1.09443e-05 6.37556e-05 0 -1.54246e-05 6.90684e-05 0 -2.08131e-05 7.42522e-05 0 -2.70854e-05 7.92009e-05 0 -3.41038e-05 8.34695e-05 0 0 1.00346e-05 0 2.04597e-07 1.00741e-05 0 4.10402e-07 1.01931e-05 0 6.1862e-07 1.03926e-05 0 8.30453e-07 1.06748e-05 0 1.04709e-06 1.10424e-05 0 1.26969e-06 1.14992e-05 0 1.49939e-06 1.205e-05 0 1.73722e-06 1.27008e-05 0 1.98409e-06 1.34586e-05 0 2.24072e-06 1.43324e-05 0 2.50744e-06 1.53327e-05 0 2.78407e-06 1.64721e-05 0 3.06954e-06 1.77657e-05 0 3.36152e-06 1.92317e-05 0 3.65566e-06 2.08917e-05 0 3.94469e-06 2.27715e-05 0 4.21698e-06 2.49012e-05 0 4.45461e-06 2.73163e-05 0 4.63077e-06 3.00572e-05 0 4.70627e-06 3.31682e-05 0 4.62543e-06 3.66962e-05 0 4.31143e-06 4.06854e-05 0 3.66229e-06 4.5171e-05 0 2.54854e-06 5.01678e-05 0 8.17169e-07 5.5656e-05 0 -1.69929e-06 6.15652e-05 0 -5.15475e-06 6.77651e-05 0 -9.66841e-06 7.40609e-05 0 -1.52659e-05 8.02399e-05 0 -2.18971e-05 8.60286e-05 0 -2.95796e-05 9.20098e-05 0 0 9.79091e-06 0 2.82984e-07 9.82964e-06 0 5.67951e-07 9.94621e-06 0 8.56897e-07 1.01418e-05 0 1.15185e-06 1.04183e-05 0 1.4549e-06 1.07787e-05 0 1.76817e-06 1.12266e-05 0 2.09389e-06 1.17667e-05 0 2.43432e-06 1.24052e-05 0 2.79183e-06 1.31492e-05 0 3.16881e-06 1.40077e-05 0 3.56763e-06 1.49915e-05 0 3.99051e-06 1.61136e-05 0 4.43934e-06 1.739e-05 0 4.91531e-06 1.88401e-05 0 5.41836e-06 2.04876e-05 0 5.94626e-06 2.23615e-05 0 6.49325e-06 2.44968e-05 0 7.0479e-06 2.69363e-05 0 7.59004e-06 2.97311e-05 0 8.08632e-06 3.29408e-05 0 8.48425e-06 3.66328e-05 0 8.70466e-06 4.08789e-05 0 8.6331e-06 4.57467e-05 0 8.11293e-06 5.12864e-05 0 6.9419e-06 5.75079e-05 0 4.88538e-06 6.43541e-05 0 1.69918e-06 7.16671e-05 0 -2.79752e-06 7.9189e-05 0 -8.6845e-06 8.65487e-05 0 -1.58266e-05 9.35236e-05 0 -2.36767e-05 9.85391e-05 0 0 9.46991e-06 0 3.59392e-07 9.50746e-06 0 7.21525e-07 9.62048e-06 0 1.08917e-06 9.8101e-06 0 1.46518e-06 1.00782e-05 0 1.8525e-06 1.04275e-05 0 2.25423e-06 1.08617e-05 0 2.67368e-06 1.13854e-05 0 3.11436e-06 1.20044e-05 0 3.58011e-06 1.27257e-05 0 4.07505e-06 1.35582e-05 0 4.6037e-06 1.45124e-05 0 5.1709e-06 1.56014e-05 0 5.7818e-06 1.68413e-05 0 6.44169e-06 1.8252e-05 0 7.15564e-06 1.98583e-05 0 7.92784e-06 2.16912e-05 0 8.76044e-06 2.37896e-05 0 9.65156e-06 2.62025e-05 0 1.0592e-05 2.89914e-05 0 1.15603e-05 3.22317e-05 0 1.25147e-05 3.60153e-05 0 1.33825e-05 4.04478e-05 0 1.40451e-05 4.56443e-05 0 1.43209e-05 5.17112e-05 0 1.39528e-05 5.872e-05 0 1.26029e-05 6.66533e-05 0 9.89521e-06 7.53544e-05 0 5.47601e-06 8.44491e-05 0 -7.94119e-07 9.34204e-05 0 -8.76572e-06 0.000101405 0 -1.82031e-05 0.000110567 0 0 9.07394e-06 0 4.33067e-07 9.10994e-06 0 8.69597e-07 9.21829e-06 0 1.3131e-06 9.40005e-06 0 1.76721e-06 9.65701e-06 0 2.23571e-06 9.99173e-06 0 2.72262e-06 1.04076e-05 0 3.23227e-06 1.0909e-05 0 3.7694e-06 1.15014e-05 0 4.33924e-06 1.21914e-05 0 4.94766e-06 1.29872e-05 0 5.60127e-06 1.38989e-05 0 6.30761e-06 1.4939e-05 0 7.07524e-06 1.61227e-05 0 7.91388e-06 1.74695e-05 0 8.83434e-06 1.90038e-05 0 9.84837e-06 2.07571e-05 0 1.0968e-05 2.27699e-05 0 1.22039e-05 2.50955e-05 0 1.35629e-05 2.78027e-05 0 1.5043e-05 3.09823e-05 0 1.66243e-05 3.47499e-05 0 1.82552e-05 3.92526e-05 0 1.98302e-05 4.46649e-05 0 2.11605e-05 5.11821e-05 0 2.19333e-05 5.89801e-05 0 2.169e-05 6.8157e-05 0 1.98168e-05 7.85955e-05 0 1.56873e-05 8.98659e-05 0 8.83941e-06 0.000101021 0 -5.49094e-07 0.000111297 0 -1.11637e-05 0.000114665 0 0 8.60607e-06 0 5.03287e-07 8.64017e-06 0 1.01071e-06 8.74281e-06 0 1.52647e-06 8.91493e-06 0 2.0549e-06 9.15819e-06 0 2.60056e-06 9.4749e-06 0 3.16833e-06 9.86817e-06 0 3.76348e-06 1.03419e-05 0 4.39183e-06 1.09011e-05 0 5.05993e-06 1.15516e-05 0 5.77522e-06 1.23008e-05 0 6.5463e-06 1.31577e-05 0 7.38323e-06 1.41335e-05 0 8.29789e-06 1.52419e-05 0 9.3044e-06 1.65004e-05 0 1.04195e-05 1.79318e-05 0 1.16632e-05 1.95653e-05 0 1.30585e-05 2.14404e-05 0 1.46316e-05 2.36099e-05 0 1.64101e-05 2.61466e-05 0 1.84195e-05 2.91492e-05 0 2.06757e-05 3.27557e-05 0 2.31695e-05 3.71499e-05 0 2.58409e-05 4.25811e-05 0 2.85289e-05 4.93562e-05 0 3.0909e-05 5.78352e-05 0 3.23851e-05 6.83285e-05 0 3.20489e-05 8.0958e-05 0 2.86735e-05 9.52563e-05 0 2.12115e-05 0.000110025 0 9.38578e-06 0.000122324 0 -5.37927e-06 0.000139329 0 0 8.0701e-06 0 5.69384e-07 8.10199e-06 0 1.14351e-06 8.19794e-06 0 1.72719e-06 8.35881e-06 0 2.3254e-06 8.58603e-06 0 2.94339e-06 8.88166e-06 0 3.58675e-06 9.24839e-06 0 4.26159e-06 9.68963e-06 0 4.97467e-06 1.02096e-05 0 5.73362e-06 1.08133e-05 0 6.54723e-06 1.1507e-05 0 7.42578e-06 1.22982e-05 0 8.38149e-06 1.31959e-05 0 9.42913e-06 1.42117e-05 0 1.05868e-05 1.53599e-05 0 1.18768e-05 1.66591e-05 0 1.33269e-05 1.81344e-05 0 1.49717e-05 1.98195e-05 0 1.68538e-05 2.17623e-05 0 1.90248e-05 2.40298e-05 0 2.15455e-05 2.67222e-05 0 2.44809e-05 2.99816e-05 0 2.78921e-05 3.4025e-05 0 3.18049e-05 3.91575e-05 0 3.61671e-05 4.58308e-05 0 4.07205e-05 5.46323e-05 0 4.48576e-05 6.63018e-05 0 4.72866e-05 8.14477e-05 0 4.59515e-05 0.000100138 0 3.8152e-05 0.000120583 0 2.2556e-05 0.000139977 0 1.27718e-07 0.000135605 0 0 7.47044e-06 0 6.30756e-07 7.49983e-06 0 1.26678e-06 7.58825e-06 0 1.91341e-06 7.73642e-06 0 2.57619e-06 7.94557e-06 0 3.26092e-06 8.21743e-06 0 3.97381e-06 8.55423e-06 0 4.72161e-06 8.95878e-06 0 5.51182e-06 9.43446e-06 0 6.3529e-06 9.9853e-06 0 7.25463e-06 1.0616e-05 0 8.22851e-06 1.13324e-05 0 9.28835e-06 1.21409e-05 0 1.04511e-05 1.30498e-05 0 1.17377e-05 1.40692e-05 0 1.31751e-05 1.52121e-05 0 1.47973e-05 1.64956e-05 0 1.66491e-05 1.79448e-05 0 1.87883e-05 1.95937e-05 0 2.12913e-05 2.14977e-05 0 2.42554e-05 2.37361e-05 0 2.78078e-05 2.64448e-05 0 3.20964e-05 2.98261e-05 0 3.72974e-05 3.42306e-05 0 4.35416e-05 4.0187e-05 0 5.08663e-05 4.85811e-05 0 5.88469e-05 6.06673e-05 0 6.62344e-05 7.82118e-05 0 6.9732e-05 0.000102618 0 6.37998e-05 0.000133361 0 4.18485e-05 0.000161406 0 1.07671e-05 0.000206165 0 0 6.81208e-06 0 6.86878e-07 6.83873e-06 0 1.37946e-06 6.91889e-06 0 2.08354e-06 7.05315e-06 0 2.8051e-06 7.2425e-06 0 3.55039e-06 7.48834e-06 0 4.32607e-06 7.79242e-06 0 5.13938e-06 8.1569e-06 0 5.9983e-06 8.58431e-06 0 6.91181e-06 9.07751e-06 0 7.89026e-06 9.63974e-06 0 8.94579e-06 1.02745e-05 0 1.0093e-05 1.09858e-05 0 1.135e-05 1.17779e-05 0 1.27393e-05 1.26558e-05 0 1.429e-05 1.36251e-05 0 1.60406e-05 1.46939e-05 0 1.80417e-05 1.58717e-05 0 2.03636e-05 1.71774e-05 0 2.30996e-05 1.86348e-05 0 2.6385e-05 2.02989e-05 0 3.03959e-05 2.22464e-05 0 3.5397e-05 2.4652e-05 0 4.17093e-05 2.77827e-05 0 4.98123e-05 3.22091e-05 0 6.01568e-05 3.88747e-05 0 7.32193e-05 4.96576e-05 0 8.84511e-05 6.76705e-05 0 0.000102849 9.79822e-05 0 0.000106049 0.00014502 0 7.94466e-05 0.000204352 0 -1.35545e-06 0.000185214 0 0 6.10047e-06 0 7.37308e-07 6.12418e-06 0 1.48068e-06 6.19549e-06 0 2.23625e-06 6.31484e-06 0 3.01034e-06 6.48302e-06 0 3.80955e-06 6.70106e-06 0 4.64083e-06 6.97027e-06 0 5.51172e-06 7.29217e-06 0 6.43041e-06 7.66841e-06 0 7.40609e-06 8.10077e-06 0 8.44919e-06 8.59087e-06 0 9.57191e-06 9.1403e-06 0 1.07887e-05 9.74998e-06 0 1.21176e-05 1.04205e-05 0 1.35807e-05 1.11509e-05 0 1.52075e-05 1.19399e-05 0 1.70355e-05 1.27825e-05 0 1.91192e-05 1.36754e-05 0 2.15277e-05 1.46078e-05 0 2.43723e-05 1.55792e-05 0 2.77898e-05 1.65769e-05 0 3.20276e-05 1.76299e-05 0 3.73707e-05 1.87631e-05 0 4.44008e-05 2.015e-05 0 5.37403e-05 2.20679e-05 0 6.67709e-05 2.53527e-05 0 8.48417e-05 3.16454e-05 0 0.00011066 4.51489e-05 0 0.000144922 7.50395e-05 0 0.000179814 0.000141594 0 0.000162393 0.000260415 0 6.271e-05 0.00043774 0 0 5.34148e-06 0 7.81691e-07 5.3621e-06 0 1.56971e-06 5.42408e-06 0 2.37048e-06 5.52777e-06 0 3.19054e-06 5.67371e-06 0 4.0367e-06 5.86265e-06 0 4.91612e-06 6.09546e-06 0 5.83639e-06 6.37309e-06 0 6.80574e-06 6.69643e-06 0 7.8332e-06 7.06619e-06 0 8.92892e-06 7.48271e-06 0 1.01044e-05 7.94558e-06 0 1.13734e-05 8.45333e-06 0 1.27517e-05 9.00267e-06 0 1.42608e-05 9.58791e-06 0 1.59242e-05 1.01995e-05 0 1.77818e-05 1.08227e-05 0 1.98696e-05 1.14358e-05 0 2.22774e-05 1.20059e-05 0 2.50566e-05 1.24898e-05 0 2.84429e-05 1.282e-05 0 3.24872e-05 1.29244e-05 0 3.7869e-05 1.26806e-05 0 4.45469e-05 1.20062e-05 0 5.45841e-05 1.0771e-05 0 6.75915e-05 9.04399e-06 0 9.00591e-05 7.45247e-06 0 0.000121413 7.49462e-06 0 0.000183254 1.88421e-05 0 0.000281982 6.62653e-05 0 0.000442662 0.000313003 0 -0.000207198 0.000831446 0 0 4.54129e-06 0 8.19756e-07 4.5587e-06 0 1.64605e-06 4.61101e-06 0 2.48544e-06 4.69846e-06 0 3.3447e-06 4.82143e-06 0 4.23069e-06 4.98036e-06 0 5.15066e-06 5.17587e-06 0 6.11212e-06 5.40821e-06 0 7.12313e-06 5.67807e-06 0 8.19237e-06 5.98454e-06 0 9.32895e-06 6.32843e-06 0 1.05444e-05 6.7049e-06 0 1.18476e-05 7.11616e-06 0 1.32593e-05 7.54548e-06 0 1.478e-05 8.0029e-06 0 1.64651e-05 8.43658e-06 0 1.82658e-05 8.88905e-06 0 2.03754e-05 9.20558e-06 0 2.25188e-05 9.54301e-06 0 2.54292e-05 9.45436e-06 0 2.78997e-05 9.44743e-06 0 3.27152e-05 8.30228e-06 0 3.50748e-05 7.43292e-06 0 4.52974e-05 3.88572e-06 0 4.54533e-05 6.47684e-07 0 7.25544e-05 -7.45133e-06 0 6.32886e-05 -1.91298e-05 0 0.000146147 -3.19271e-05 0 0.000114741 -8.4471e-05 0 0.000405533 -6.78146e-05 0 0.000784508 -0.000557084 0 0.00388926 0.00288707 0 </DataArray> 
</PointData> 
<Points> 
<DataArray type="Float32" NumberOfComponents="3"> 