<?xml version="1.0"?> 
<VTKFile type="StructuredGrid" version="0.1"> 
<StructuredGrid WholeExtent="0 31 0 31 0 0"> 
<Piece Extent="0 31 0 31 0 0"> 
<PointData>
<DataArray type="Float32" Name="B" format="ascii" NumberOfComponents="3"> 
0.0108344 -0.002176 0 0.000645425 5.80128e-05 0 -7.72357e-05 -9.18633e-05 0 0.000314033 -4.62733e-05 0 1.17076e-05 -5.14981e-05 0 0.000136689 -4.39054e-05 0 4.48725e-05 -3.98031e-05 0 7.59293e-05 -3.62787e-05 0 4.65734e-05 -3.20811e-05 0 5.13969e-05 -2.91931e-05 0 4.03728e-05 -2.59112e-05 0 3.87411e-05 -2.34328e-05 0 3.33171e-05 -2.09431e-05 0 3.05497e-05 -1.89103e-05 0 2.70751e-05 -1.70135e-05 0 2.44517e-05 -1.53997e-05 0 2.18422e-05 -1.39467e-05 0 1.95881e-05 -1.26883e-05 0 1.74787e-05 -1.15743e-05 0 1.55706e-05 -1.06045e-05 0 1.38038e-05 -9.7548e-06 0 1.21746e-05 -9.01706e-06 0 1.06588e-05 -8.37757e-06 0 9.24317e-06 -7.82822e-06 0 7.91271e-06 -7.36022e-06 0 6.65455e-06 -6.9672e-06 0 5.45676e-06 -6.64339e-06 0 4.30804e-06 -6.38435e-06 0 3.19792e-06 -6.18644e-06 0 2.11628e-06 -6.04697e-06 0 1.05347e-06 -5.96404e-06 0 0 -5.93652e-06 0 7.42664e-05 0.00157865 0 0.000368514 -1.88132e-06 0 0.000250546 -1.83404e-05 0 0.000117247 -4.20431e-05 0 0.000121011 -3.9549e-05 0 7.9622e-05 -3.90044e-05 0 7.6942e-05 -3.60866e-05 0 6.08645e-05 -3.29895e-05 0 5.60864e-05 -3.00397e-05 0 4.8047e-05 -2.70407e-05 0 4.34881e-05 -2.44078e-05 0 3.84288e-05 -2.19207e-05 0 3.45952e-05 -1.97434e-05 0 3.09104e-05 -1.77687e-05 0 2.7773e-05 -1.60362e-05 0 2.48833e-05 -1.44945e-05 0 2.23096e-05 -1.31412e-05 0 1.99575e-05 -1.19478e-05 0 1.78214e-05 -1.09018e-05 0 1.5862e-05 -9.98494e-06 0 1.40614e-05 -9.18461e-06 0 1.23967e-05 -8.48804e-06 0 1.0851e-05 -7.88513e-06 0 9.40754e-06 -7.36676e-06 0 8.05181e-06 -6.92543e-06 0 6.77039e-06 -6.55473e-06 0 5.55091e-06 -6.24939e-06 0 4.38188e-06 -6.00512e-06 0 3.25242e-06 -5.81852e-06 0 2.15222e-06 -5.68702e-06 0 1.07132e-06 -5.60883e-06 0 -8.4291e-20 -5.58289e-06 0 -1.46424e-05 0.000758611 0 0.000312163 0.000134048 0 0.000198852 1.16089e-06 0 0.00013796 -2.41908e-05 0 0.000107276 -3.21902e-05 0 8.72976e-05 -3.33491e-05 0 7.3833e-05 -3.22042e-05 0 6.38446e-05 -3.01168e-05 0 5.59156e-05 -2.76139e-05 0 4.94966e-05 -2.51279e-05 0 4.4011e-05 -2.27047e-05 0 3.93207e-05 -2.04869e-05 0 3.51864e-05 -1.84541e-05 0 3.15424e-05 -1.66389e-05 0 2.82814e-05 -1.50158e-05 0 2.53578e-05 -1.35805e-05 0 2.27156e-05 -1.23112e-05 0 2.03201e-05 -1.11945e-05 0 1.81368e-05 -1.02131e-05 0 1.6139e-05 -9.35343e-06 0 1.43024e-05 -8.60237e-06 0 1.26062e-05 -7.9489e-06 0 1.10317e-05 -7.38316e-06 0 9.5622e-06 -6.89684e-06 0 8.18267e-06 -6.48278e-06 0 6.87933e-06 -6.13503e-06 0 5.63949e-06 -5.84861e-06 0 4.45131e-06 -5.61949e-06 0 3.30368e-06 -5.44447e-06 0 2.18601e-06 -5.32115e-06 0 1.0881e-06 -5.24782e-06 0 -6.49611e-20 -5.22349e-06 0 1.42584e-05 0.000425329 0 0.000229258 0.000161615 0 0.000176179 2.40015e-05 0 0.00013386 -1.13403e-05 0 0.000104792 -2.45204e-05 0 8.74094e-05 -2.81399e-05 0 7.4109e-05 -2.84559e-05 0 6.457e-05 -2.71987e-05 0 5.66658e-05 -2.52638e-05 0 5.02702e-05 -2.31504e-05 0 4.47463e-05 -2.10152e-05 0 3.99965e-05 -1.90099e-05 0 3.58025e-05 -1.71536e-05 0 3.20921e-05 -1.54801e-05 0 2.87723e-05 -1.39787e-05 0 2.57915e-05 -1.26458e-05 0 2.30988e-05 -1.14656e-05 0 2.0657e-05 -1.04256e-05 0 1.84325e-05 -9.51111e-06 0 1.63978e-05 -8.70969e-06 0 1.45281e-05 -8.00939e-06 0 1.28021e-05 -7.39999e-06 0 1.12007e-05 -6.87241e-06 0 9.70687e-06 -6.41888e-06 0 8.30508e-06 -6.03278e-06 0 6.98123e-06 -5.70852e-06 0 5.72232e-06 -5.44147e-06 0 4.51625e-06 -5.22786e-06 0 3.35162e-06 -5.0647e-06 0 2.21761e-06 -4.94973e-06 0 1.10379e-06 -4.88138e-06 0 0 -4.8587e-06 0 -1.64973e-06 0.000300484 0 0.000166507 0.000151023 0 0.000154708 3.99332e-05 0 0.000125869 -1.43999e-06 0 0.000102283 -1.75548e-05 0 8.64879e-05 -2.33469e-05 0 7.42599e-05 -2.48626e-05 0 6.49888e-05 -2.43444e-05 0 5.73085e-05 -2.29406e-05 0 5.0924e-05 -2.11674e-05 0 4.54062e-05 -1.93152e-05 0 4.06073e-05 -1.75132e-05 0 3.63663e-05 -1.58343e-05 0 3.25985e-05 -1.43013e-05 0 2.92256e-05 -1.29233e-05 0 2.61933e-05 -1.16939e-05 0 2.34541e-05 -1.06045e-05 0 2.09698e-05 -9.64264e-06 0 1.87072e-05 -8.79665e-06 0 1.66382e-05 -8.05471e-06 0 1.47378e-05 -7.40634e-06 0 1.29842e-05 -6.842e-06 0 1.13578e-05 -6.35344e-06 0 9.84132e-06 -5.93344e-06 0 8.41883e-06 -5.57591e-06 0 7.07592e-06 -5.27566e-06 0 5.79929e-06 -5.0284e-06 0 4.57658e-06 -4.83063e-06 0 3.39616e-06 -4.67957e-06 0 2.24697e-06 -4.57314e-06 0 1.11837e-06 -4.50986e-06 0 -1.06207e-21 -4.48887e-06 0 -1.28029e-07 0.000208406 0 0.000122862 0.000134208 0 0.000134163 4.73465e-05 0 0.000116897 6.17788e-06 0 9.90178e-05 -1.17107e-05 0 8.51377e-05 -1.90015e-05 0 7.41037e-05 -2.14666e-05 0 6.52302e-05 -2.16015e-05 0 5.78098e-05 -2.06416e-05 0 5.1483e-05 -1.9202e-05 0 4.59863e-05 -1.76023e-05 0 4.1157e-05 -1.60067e-05 0 3.68775e-05 -1.44961e-05 0 3.30612e-05 -1.31067e-05 0 2.96411e-05 -1.18504e-05 0 2.65627e-05 -1.07269e-05 0 2.37812e-05 -9.72891e-06 0 2.1258e-05 -8.84698e-06 0 1.89605e-05 -8.07055e-06 0 1.68599e-05 -7.38939e-06 0 1.49312e-05 -6.79394e-06 0 1.31521e-05 -6.27561e-06 0 1.15028e-05 -5.82685e-06 0 9.96535e-06 -5.44108e-06 0 8.52376e-06 -5.11269e-06 0 7.16326e-06 -4.83692e-06 0 5.87028e-06 -4.60983e-06 0 4.63223e-06 -4.42821e-06 0 3.43723e-06 -4.2895e-06 0 2.27404e-06 -4.19176e-06 0 1.13181e-06 -4.13365e-06 0 -7.42876e-20 -4.11438e-06 0 -2.71044e-06 0.000164635 0 9.33279e-05 0.000114413 0 0.000115753 4.94833e-05 0 0.000107929 1.13132e-05 0 9.51952e-05 -6.96665e-06 0 8.35262e-05 -1.51634e-05 0 7.3679e-05 -1.83212e-05 0 6.53306e-05 -1.89708e-05 0 5.8181e-05 -1.8396e-05 0 5.19561e-05 -1.72506e-05 0 4.64898e-05 -1.58896e-05 0 4.16474e-05 -1.44893e-05 0 3.73367e-05 -1.31447e-05 0 3.34804e-05 -1.18967e-05 0 3.00185e-05 -1.07631e-05 0 2.68993e-05 -9.74571e-06 0 2.40795e-05 -8.84054e-06 0 2.15212e-05 -8.03955e-06 0 1.91919e-05 -7.33391e-06 0 1.70626e-05 -6.71454e-06 0 1.51081e-05 -6.17299e-06 0 1.33057e-05 -5.7015e-06 0 1.16353e-05 -5.29328e-06 0 1.00787e-05 -4.94235e-06 0 8.61969e-06 -4.64362e-06 0 7.2431e-06 -4.39278e-06 0 5.93518e-06 -4.18623e-06 0 4.68309e-06 -4.02103e-06 0 3.47478e-06 -3.89487e-06 0 2.29878e-06 -3.80599e-06 0 1.1441e-06 -3.75314e-06 0 -3.45253e-20 -3.73561e-06 0 2.57569e-07 0.000125071 0 7.32438e-05 9.69081e-05 0 0.000100024 4.77927e-05 0 9.94908e-05 1.43965e-05 0 9.11222e-05 -3.32977e-06 0 8.17543e-05 -1.18533e-05 0 7.3063e-05 -1.54418e-05 0 6.53114e-05 -1.64733e-05 0 5.84439e-05 -1.62081e-05 0 5.23484e-05 -1.53235e-05 0 4.69229e-05 -1.41791e-05 0 4.20797e-05 -1.29661e-05 0 3.77451e-05 -1.17819e-05 0 3.38561e-05 -1.06742e-05 0 3.03579e-05 -9.66252e-06 0 2.72028e-05 -8.75216e-06 0 2.43488e-05 -7.94053e-06 0 2.17591e-05 -7.22156e-06 0 1.94011e-05 -6.58767e-06 0 1.72459e-05 -6.03107e-06 0 1.5268e-05 -5.54425e-06 0 1.34446e-05 -5.12038e-06 0 1.17551e-05 -4.75335e-06 0 1.01813e-05 -4.43783e-06 0 8.70647e-06 -4.16925e-06 0 7.31533e-06 -3.94373e-06 0 5.99388e-06 -3.75803e-06 0 4.7291e-06 -3.60953e-06 0 3.50873e-06 -3.49611e-06 0 2.32117e-06 -3.41621e-06 0 1.15521e-06 -3.36871e-06 0 0 -3.35295e-06 0 -1.12542e-06 0.000101909 0 5.92348e-05 8.06955e-05 0 8.72524e-05 4.40666e-05 0 9.17396e-05 1.56991e-05 0 8.71424e-05 -6.84245e-07 0 7.98806e-05 -9.0711e-06 0 7.23487e-05 -1.28381e-05 0 6.51888e-05 -1.41121e-05 0 5.86239e-05 -1.40876e-05 0 5.26651e-05 -1.34225e-05 0 4.72922e-05 -1.24761e-05 0 4.24551e-05 -1.14386e-05 0 3.81043e-05 -1.04106e-05 0 3.41883e-05 -9.44065e-06 0 3.06592e-05 -8.55075e-06 0 2.74727e-05 -7.74755e-06 0 2.45888e-05 -7.03024e-06 0 2.19712e-05 -6.39409e-06 0 1.95877e-05 -5.83286e-06 0 1.74095e-05 -5.33984e-06 0 1.54108e-05 -4.90854e-06 0 1.35686e-05 -4.53294e-06 0 1.18622e-05 -4.2077e-06 0 1.02729e-05 -3.9281e-06 0 8.78395e-06 -3.6901e-06 0 7.37982e-06 -3.49026e-06 0 6.04629e-06 -3.32571e-06 0 4.77017e-06 -3.19412e-06 0 3.53905e-06 -3.09363e-06 0 2.34115e-06 -3.02284e-06 0 1.16514e-06 -2.98075e-06 0 0 -2.96679e-06 0 3.06924e-07 7.99581e-05 0 4.94084e-05 6.66667e-05 0 7.69419e-05 3.90419e-05 0 8.4986e-05 1.56563e-05 0 8.33743e-05 1.0739e-06 0 7.80458e-05 -6.78581e-06 0 7.1577e-05 -1.05021e-05 0 6.50046e-05 -1.18907e-05 0 5.8733e-05 -1.20346e-05 0 5.2918e-05 -1.15517e-05 0 4.76011e-05 -1.07819e-05 0 4.27768e-05 -9.90988e-06 0 3.84151e-05 -9.03239e-06 0 3.44776e-05 -8.19817e-06 0 3.09225e-05 -7.42922e-06 0 2.77092e-05 -6.73339e-06 0 2.47992e-05 -6.1109e-06 0 2.21574e-05 -5.55831e-06 0 1.97517e-05 -5.07047e-06 0 1.75532e-05 -4.64177e-06 0 1.55363e-05 -4.26663e-06 0 1.36775e-05 -3.93992e-06 0 1.19562e-05 -3.65699e-06 0 1.03534e-05 -3.41376e-06 0 8.85203e-06 -3.20671e-06 0 7.43647e-06 -3.03287e-06 0 6.09234e-06 -2.88973e-06 0 4.80626e-06 -2.77527e-06 0 3.56568e-06 -2.68786e-06 0 2.3587e-06 -2.62628e-06 0 1.17385e-06 -2.58967e-06 0 0 -2.57753e-06 0 -4.04411e-07 6.4163e-05 0 4.23356e-05 5.39904e-05 0 6.89037e-05 3.34104e-05 0 7.92071e-05 1.45717e-05 0 8.00097e-05 2.08786e-06 0 7.63094e-05 -4.95165e-06 0 7.08187e-05 -8.4178e-06 0 6.47807e-05 -9.80227e-06 0 5.87925e-05 -1.0049e-05 0 5.31139e-05 -9.71082e-06 0 4.78557e-05 -9.09838e-06 0 4.30468e-05 -8.38113e-06 0 3.86789e-05 -7.64922e-06 0 3.47244e-05 -6.94825e-06 0 3.11479e-05 -6.29952e-06 0 2.79119e-05 -5.71102e-06 0 2.49799e-05 -5.18379e-06 0 2.23173e-05 -4.71532e-06 0 1.98926e-05 -4.30152e-06 0 1.76768e-05 -3.93774e-06 0 1.56442e-05 -3.61936e-06 0 1.37713e-05 -3.34204e-06 0 1.20371e-05 -3.10187e-06 0 1.04226e-05 -2.8954e-06 0 8.91058e-06 -2.71964e-06 0 7.4852e-06 -2.57207e-06 0 6.13194e-06 -2.45057e-06 0 4.83729e-06 -2.35341e-06 0 3.58859e-06 -2.27922e-06 0 2.37379e-06 -2.22695e-06 0 1.18135e-06 -2.19588e-06 0 0 -2.18557e-06 0 1.63849e-07 4.94349e-05 0 3.72888e-05 4.26715e-05 0 6.26749e-05 2.74432e-05 0 7.44888e-05 1.2741e-05 0 7.71016e-05 2.48832e-06 0 7.47676e-05 -3.5085e-06 0 7.01097e-05 -6.55898e-06 0 6.45507e-05 -7.83658e-06 0 5.88148e-05 -8.1258e-06 0 5.32631e-05 -7.89921e-06 0 4.80597e-05 -7.42565e-06 0 4.32678e-05 -6.85363e-06 0 3.88966e-05 -6.26234e-06 0 3.49291e-05 -5.69242e-06 0 3.13354e-05 -5.16305e-06 0 2.80809e-05 -4.68182e-06 0 2.51307e-05 -4.25013e-06 0 2.24509e-05 -3.86625e-06 0 2.00103e-05 -3.527e-06 0 1.77801e-05 -3.22867e-06 0 1.57343e-05 -2.96753e-06 0 1.38496e-05 -2.74004e-06 0 1.21047e-05 -2.54301e-06 0 1.04805e-05 -2.37363e-06 0 8.95952e-06 -2.22944e-06 0 7.52592e-06 -2.10838e-06 0 6.16503e-06 -2.00871e-06 0 4.86323e-06 -1.92901e-06 0 3.60773e-06 -1.86815e-06 0 2.38641e-06 -1.82527e-06 0 1.18761e-06 -1.79978e-06 0 0 -1.79133e-06 0 -1.1204e-07 3.71754e-05 0 3.36859e-05 3.22509e-05 0 5.80437e-05 2.13626e-05 0 7.07636e-05 1.03722e-05 0 7.47356e-05 2.40835e-06 0 7.34657e-05 -2.39005e-06 0 6.94972e-05 -4.89303e-06 0 6.4335e-05 -5.97734e-06 0 5.88155e-05 -6.258e-06 0 5.33721e-05 -6.11374e-06 0 4.82176e-05 -5.76324e-06 0 4.34416e-05 -5.32785e-06 0 3.90695e-05 -4.87288e-06 0 3.50923e-05 -4.43195e-06 0 3.14852e-05 -4.02117e-06 0 2.82162e-05 -3.64708e-06 0 2.52514e-05 -3.31115e-06 0 2.25579e-05 -3.01222e-06 0 2.01046e-05 -2.74794e-06 0 1.78628e-05 -2.51548e-06 0 1.58066e-05 -2.31196e-06 0 1.39124e-05 -2.13466e-06 0 1.21589e-05 -1.98109e-06 0 1.05269e-05 -1.84906e-06 0 8.99876e-06 -1.73668e-06 0 7.55858e-06 -1.64232e-06 0 6.19157e-06 -1.56464e-06 0 4.88403e-06 -1.50252e-06 0 3.62308e-06 -1.45508e-06 0 2.39652e-06 -1.42166e-06 0 1.19263e-06 -1.4018e-06 0 0 -1.39521e-06 0 8.35975e-08 2.56923e-05 0 3.12295e-05 2.25676e-05 0 5.47391e-05 1.5244e-05 0 6.80241e-05 7.63948e-06 0 7.2933e-05 1.96744e-06 0 7.24563e-05 -1.52547e-06 0 6.90087e-05 -3.3817e-06 0 6.41561e-05 -4.20501e-06 0 5.88051e-05 -4.43573e-06 0 5.34481e-05 -4.35027e-06 0 4.83326e-05 -4.10967e-06 0 4.35703e-05 -3.80395e-06 0 3.91982e-05 -3.48168e-06 0 3.52143e-05 -3.16804e-06 0 3.15974e-05 -2.87516e-06 0 2.83176e-05 -2.60808e-06 0 2.53421e-05 -2.36804e-06 0 2.26383e-05 -2.15433e-06 0 2.01755e-05 -1.96534e-06 0 1.7925e-05 -1.79907e-06 0 1.58609e-05 -1.65348e-06 0 1.39596e-05 -1.52664e-06 0 1.21996e-05 -1.41677e-06 0 1.05617e-05 -1.32232e-06 0 9.02825e-06 -1.24192e-06 0 7.58312e-06 -1.17441e-06 0 6.21152e-06 -1.11883e-06 0 4.89965e-06 -1.07439e-06 0 3.63461e-06 -1.04046e-06 0 2.40412e-06 -1.01655e-06 0 1.19641e-06 -1.00234e-06 0 2.49316e-21 -9.97623e-07 0 1.83052e-09 1.51787e-05 0 2.96875e-05 1.33497e-05 0 5.2629e-05 9.13662e-06 0 6.62169e-05 4.67047e-06 0 7.17246e-05 1.27769e-06 0 7.17656e-05 -8.42636e-07 0 6.86706e-05 -1.98325e-06 0 6.40278e-05 -2.49677e-06 0 5.87933e-05 -2.64747e-06 0 5.34958e-05 -2.60331e-06 0 4.84078e-05 -2.46294e-06 0 4.36553e-05 -2.28165e-06 0 3.92836e-05 -2.0894e-06 0 3.52955e-05 -1.90175e-06 0 3.16722e-05 -1.72624e-06 0 2.83852e-05 -1.56605e-06 0 2.54025e-05 -1.42199e-06 0 2.26919e-05 -1.2937e-06 0 2.02228e-05 -1.18021e-06 0 1.79665e-05 -1.08036e-06 0 1.58972e-05 -9.92921e-07 0 1.39911e-05 -9.16738e-07 0 1.22268e-05 -8.50749e-07 0 1.0585e-05 -7.94016e-07 0 9.04793e-06 -7.45724e-07 0 7.5995e-06 -7.05177e-07 0 6.22483e-06 -6.71795e-07 0 4.91009e-06 -6.45102e-07 0 3.64231e-06 -6.24719e-07 0 2.4092e-06 -6.10361e-07 0 1.19893e-06 -6.01825e-07 0 1.27284e-20 -5.98993e-07 0 4.68383e-08 4.99011e-06 0 2.89477e-05 4.42111e-06 0 5.15956e-05 3.04288e-06 0 6.53229e-05 1.57094e-06 0 7.1117e-05 4.41876e-07 0 7.14161e-05 -2.6877e-07 0 6.84973e-05 -6.53409e-07 0 6.39612e-05 -8.2785e-07 0 5.87857e-05 -8.80127e-07 0 5.35187e-05 -8.66613e-07 0 4.84449e-05 -8.20489e-07 0 4.36975e-05 -7.60425e-07 0 3.93262e-05 -6.96529e-07 0 3.5336e-05 -6.3407e-07 0 3.17095e-05 -5.75605e-07 0 2.8419e-05 -5.22217e-07 0 2.54328e-05 -4.74193e-07 0 2.27188e-05 -4.31416e-07 0 2.02464e-05 -3.93572e-07 0 1.79873e-05 -3.60273e-07 0 1.59153e-05 -3.31113e-07 0 1.40069e-05 -3.05705e-07 0 1.22404e-05 -2.83697e-07 0 1.05966e-05 -2.64776e-07 0 9.05778e-06 -2.4867e-07 0 7.6077e-06 -2.35147e-07 0 6.23149e-06 -2.24014e-07 0 4.91531e-06 -2.15112e-07 0 3.64616e-06 -2.08314e-07 0 2.41174e-06 -2.03525e-07 0 1.20019e-06 -2.00679e-07 0 7.56117e-22 -1.99734e-07 0 4.68383e-08 -4.99011e-06 0 2.89477e-05 -4.42111e-06 0 5.15956e-05 -3.04288e-06 0 6.53229e-05 -1.57094e-06 0 7.1117e-05 -4.41876e-07 0 7.14161e-05 2.6877e-07 0 6.84973e-05 6.53409e-07 0 6.39612e-05 8.2785e-07 0 5.87857e-05 8.80127e-07 0 5.35187e-05 8.66613e-07 0 4.84449e-05 8.20489e-07 0 4.36975e-05 7.60425e-07 0 3.93262e-05 6.96529e-07 0 3.5336e-05 6.3407e-07 0 3.17095e-05 5.75605e-07 0 2.8419e-05 5.22217e-07 0 2.54328e-05 4.74193e-07 0 2.27188e-05 4.31416e-07 0 2.02464e-05 3.93572e-07 0 1.79873e-05 3.60273e-07 0 1.59153e-05 3.31113e-07 0 1.40069e-05 3.05705e-07 0 1.22404e-05 2.83697e-07 0 1.05966e-05 2.64776e-07 0 9.05778e-06 2.4867e-07 0 7.6077e-06 2.35147e-07 0 6.23149e-06 2.24014e-07 0 4.91531e-06 2.15112e-07 0 3.64616e-06 2.08314e-07 0 2.41174e-06 2.03525e-07 0 1.20019e-06 2.00679e-07 0 0 1.99734e-07 0 1.83052e-09 -1.51787e-05 0 2.96875e-05 -1.33497e-05 0 5.2629e-05 -9.13662e-06 0 6.62169e-05 -4.67047e-06 0 7.17246e-05 -1.27769e-06 0 7.17656e-05 8.42636e-07 0 6.86706e-05 1.98325e-06 0 6.40278e-05 2.49677e-06 0 5.87933e-05 2.64747e-06 0 5.34958e-05 2.60331e-06 0 4.84078e-05 2.46294e-06 0 4.36553e-05 2.28165e-06 0 3.92836e-05 2.0894e-06 0 3.52955e-05 1.90175e-06 0 3.16722e-05 1.72624e-06 0 2.83852e-05 1.56605e-06 0 2.54025e-05 1.42199e-06 0 2.26919e-05 1.2937e-06 0 2.02228e-05 1.18021e-06 0 1.79665e-05 1.08036e-06 0 1.58972e-05 9.92921e-07 0 1.39911e-05 9.16738e-07 0 1.22268e-05 8.50749e-07 0 1.0585e-05 7.94016e-07 0 9.04793e-06 7.45724e-07 0 7.5995e-06 7.05177e-07 0 6.22483e-06 6.71795e-07 0 4.91009e-06 6.45102e-07 0 3.64231e-06 6.24719e-07 0 2.4092e-06 6.10361e-07 0 1.19893e-06 6.01825e-07 0 0 5.98993e-07 0 8.35975e-08 -2.56923e-05 0 3.12295e-05 -2.25676e-05 0 5.47391e-05 -1.5244e-05 0 6.80241e-05 -7.63948e-06 0 7.2933e-05 -1.96744e-06 0 7.24563e-05 1.52547e-06 0 6.90087e-05 3.3817e-06 0 6.41561e-05 4.20501e-06 0 5.88051e-05 4.43573e-06 0 5.34481e-05 4.35027e-06 0 4.83326e-05 4.10967e-06 0 4.35703e-05 3.80395e-06 0 3.91982e-05 3.48168e-06 0 3.52143e-05 3.16804e-06 0 3.15974e-05 2.87516e-06 0 2.83176e-05 2.60808e-06 0 2.53421e-05 2.36804e-06 0 2.26383e-05 2.15433e-06 0 2.01755e-05 1.96534e-06 0 1.7925e-05 1.79907e-06 0 1.58609e-05 1.65348e-06 0 1.39596e-05 1.52664e-06 0 1.21996e-05 1.41677e-06 0 1.05617e-05 1.32232e-06 0 9.02825e-06 1.24192e-06 0 7.58312e-06 1.17441e-06 0 6.21152e-06 1.11883e-06 0 4.89965e-06 1.07439e-06 0 3.63461e-06 1.04046e-06 0 2.40412e-06 1.01655e-06 0 1.19641e-06 1.00234e-06 0 -4.77978e-21 9.97623e-07 0 -1.1204e-07 -3.71754e-05 0 3.36859e-05 -3.22509e-05 0 5.80437e-05 -2.13626e-05 0 7.07636e-05 -1.03722e-05 0 7.47356e-05 -2.40835e-06 0 7.34657e-05 2.39005e-06 0 6.94972e-05 4.89303e-06 0 6.4335e-05 5.97734e-06 0 5.88155e-05 6.258e-06 0 5.33721e-05 6.11374e-06 0 4.82176e-05 5.76324e-06 0 4.34416e-05 5.32785e-06 0 3.90695e-05 4.87288e-06 0 3.50923e-05 4.43195e-06 0 3.14852e-05 4.02117e-06 0 2.82162e-05 3.64708e-06 0 2.52514e-05 3.31115e-06 0 2.25579e-05 3.01222e-06 0 2.01046e-05 2.74794e-06 0 1.78628e-05 2.51548e-06 0 1.58066e-05 2.31196e-06 0 1.39124e-05 2.13466e-06 0 1.21589e-05 1.98109e-06 0 1.05269e-05 1.84906e-06 0 8.99876e-06 1.73668e-06 0 7.55858e-06 1.64232e-06 0 6.19157e-06 1.56464e-06 0 4.88403e-06 1.50252e-06 0 3.62308e-06 1.45508e-06 0 2.39652e-06 1.42166e-06 0 1.19263e-06 1.4018e-06 0 -2.92351e-20 1.39521e-06 0 1.63849e-07 -4.94349e-05 0 3.72888e-05 -4.26715e-05 0 6.26749e-05 -2.74432e-05 0 7.44888e-05 -1.2741e-05 0 7.71016e-05 -2.48832e-06 0 7.47676e-05 3.5085e-06 0 7.01097e-05 6.55898e-06 0 6.45507e-05 7.83658e-06 0 5.88148e-05 8.1258e-06 0 5.32631e-05 7.89921e-06 0 4.80597e-05 7.42565e-06 0 4.32678e-05 6.85363e-06 0 3.88966e-05 6.26234e-06 0 3.49291e-05 5.69242e-06 0 3.13354e-05 5.16305e-06 0 2.80809e-05 4.68182e-06 0 2.51307e-05 4.25013e-06 0 2.24509e-05 3.86625e-06 0 2.00103e-05 3.527e-06 0 1.77801e-05 3.22867e-06 0 1.57343e-05 2.96753e-06 0 1.38496e-05 2.74004e-06 0 1.21047e-05 2.54301e-06 0 1.04805e-05 2.37363e-06 0 8.95952e-06 2.22944e-06 0 7.52592e-06 2.10838e-06 0 6.16503e-06 2.00871e-06 0 4.86323e-06 1.92901e-06 0 3.60773e-06 1.86815e-06 0 2.38641e-06 1.82527e-06 0 1.18761e-06 1.79978e-06 0 -3.20521e-21 1.79133e-06 0 -4.04411e-07 -6.4163e-05 0 4.23356e-05 -5.39904e-05 0 6.89037e-05 -3.34104e-05 0 7.92071e-05 -1.45717e-05 0 8.00097e-05 -2.08786e-06 0 7.63094e-05 4.95165e-06 0 7.08187e-05 8.4178e-06 0 6.47807e-05 9.80227e-06 0 5.87925e-05 1.0049e-05 0 5.31139e-05 9.71082e-06 0 4.78557e-05 9.09838e-06 0 4.30468e-05 8.38113e-06 0 3.86789e-05 7.64922e-06 0 3.47244e-05 6.94825e-06 0 3.11479e-05 6.29952e-06 0 2.79119e-05 5.71102e-06 0 2.49799e-05 5.18379e-06 0 2.23173e-05 4.71532e-06 0 1.98926e-05 4.30152e-06 0 1.76768e-05 3.93774e-06 0 1.56442e-05 3.61936e-06 0 1.37713e-05 3.34204e-06 0 1.20371e-05 3.10187e-06 0 1.04226e-05 2.8954e-06 0 8.91058e-06 2.71964e-06 0 7.4852e-06 2.57207e-06 0 6.13194e-06 2.45057e-06 0 4.83729e-06 2.35341e-06 0 3.58859e-06 2.27922e-06 0 2.37379e-06 2.22695e-06 0 1.18135e-06 2.19588e-06 0 0 2.18557e-06 0 3.06924e-07 -7.99581e-05 0 4.94084e-05 -6.66667e-05 0 7.69419e-05 -3.90419e-05 0 8.4986e-05 -1.56563e-05 0 8.33743e-05 -1.0739e-06 0 7.80458e-05 6.78581e-06 0 7.1577e-05 1.05021e-05 0 6.50046e-05 1.18907e-05 0 5.8733e-05 1.20346e-05 0 5.2918e-05 1.15517e-05 0 4.76011e-05 1.07819e-05 0 4.27768e-05 9.90988e-06 0 3.84151e-05 9.03239e-06 0 3.44776e-05 8.19817e-06 0 3.09225e-05 7.42922e-06 0 2.77092e-05 6.73339e-06 0 2.47992e-05 6.1109e-06 0 2.21574e-05 5.55831e-06 0 1.97517e-05 5.07047e-06 0 1.75532e-05 4.64177e-06 0 1.55363e-05 4.26663e-06 0 1.36775e-05 3.93992e-06 0 1.19562e-05 3.65699e-06 0 1.03534e-05 3.41376e-06 0 8.85203e-06 3.20671e-06 0 7.43647e-06 3.03287e-06 0 6.09234e-06 2.88973e-06 0 4.80626e-06 2.77527e-06 0 3.56568e-06 2.68786e-06 0 2.3587e-06 2.62628e-06 0 1.17385e-06 2.58967e-06 0 0 2.57753e-06 0 -1.12542e-06 -0.000101909 0 5.92348e-05 -8.06955e-05 0 8.72524e-05 -4.40666e-05 0 9.17396e-05 -1.56991e-05 0 8.71424e-05 6.84245e-07 0 7.98806e-05 9.0711e-06 0 7.23487e-05 1.28381e-05 0 6.51888e-05 1.41121e-05 0 5.86239e-05 1.40876e-05 0 5.26651e-05 1.34225e-05 0 4.72922e-05 1.24761e-05 0 4.24551e-05 1.14386e-05 0 3.81043e-05 1.04106e-05 0 3.41883e-05 9.44065e-06 0 3.06592e-05 8.55075e-06 0 2.74727e-05 7.74755e-06 0 2.45888e-05 7.03024e-06 0 2.19712e-05 6.39409e-06 0 1.95877e-05 5.83286e-06 0 1.74095e-05 5.33984e-06 0 1.54108e-05 4.90854e-06 0 1.35686e-05 4.53294e-06 0 1.18622e-05 4.2077e-06 0 1.02729e-05 3.9281e-06 0 8.78395e-06 3.6901e-06 0 7.37982e-06 3.49026e-06 0 6.04629e-06 3.32571e-06 0 4.77017e-06 3.19412e-06 0 3.53905e-06 3.09363e-06 0 2.34115e-06 3.02284e-06 0 1.16514e-06 2.98075e-06 0 0 2.96679e-06 0 2.57569e-07 -0.000125071 0 7.32438e-05 -9.69081e-05 0 0.000100024 -4.77927e-05 0 9.94908e-05 -1.43965e-05 0 9.11222e-05 3.32977e-06 0 8.17543e-05 1.18533e-05 0 7.3063e-05 1.54418e-05 0 6.53114e-05 1.64733e-05 0 5.84439e-05 1.62081e-05 0 5.23484e-05 1.53235e-05 0 4.69229e-05 1.41791e-05 0 4.20797e-05 1.29661e-05 0 3.77451e-05 1.17819e-05 0 3.38561e-05 1.06742e-05 0 3.03579e-05 9.66252e-06 0 2.72028e-05 8.75216e-06 0 2.43488e-05 7.94053e-06 0 2.17591e-05 7.22156e-06 0 1.94011e-05 6.58767e-06 0 1.72459e-05 6.03107e-06 0 1.5268e-05 5.54425e-06 0 1.34446e-05 5.12038e-06 0 1.17551e-05 4.75335e-06 0 1.01813e-05 4.43783e-06 0 8.70647e-06 4.16925e-06 0 7.31533e-06 3.94373e-06 0 5.99388e-06 3.75803e-06 0 4.7291e-06 3.60953e-06 0 3.50873e-06 3.49611e-06 0 2.32117e-06 3.41621e-06 0 1.15521e-06 3.36871e-06 0 0 3.35295e-06 0 -2.71044e-06 -0.000164635 0 9.33279e-05 -0.000114413 0 0.000115753 -4.94833e-05 0 0.000107929 -1.13132e-05 0 9.51952e-05 6.96665e-06 0 8.35262e-05 1.51634e-05 0 7.3679e-05 1.83212e-05 0 6.53306e-05 1.89708e-05 0 5.8181e-05 1.8396e-05 0 5.19561e-05 1.72506e-05 0 4.64898e-05 1.58896e-05 0 4.16474e-05 1.44893e-05 0 3.73367e-05 1.31447e-05 0 3.34804e-05 1.18967e-05 0 3.00185e-05 1.07631e-05 0 2.68993e-05 9.74571e-06 0 2.40795e-05 8.84054e-06 0 2.15212e-05 8.03955e-06 0 1.91919e-05 7.33391e-06 0 1.70626e-05 6.71454e-06 0 1.51081e-05 6.17299e-06 0 1.33057e-05 5.7015e-06 0 1.16353e-05 5.29328e-06 0 1.00787e-05 4.94235e-06 0 8.61969e-06 4.64362e-06 0 7.2431e-06 4.39278e-06 0 5.93518e-06 4.18623e-06 0 4.68309e-06 4.02103e-06 0 3.47478e-06 3.89487e-06 0 2.29878e-06 3.80599e-06 0 1.1441e-06 3.75314e-06 0 0 3.73561e-06 0 -1.28029e-07 -0.000208406 0 0.000122862 -0.000134208 0 0.000134163 -4.73465e-05 0 0.000116897 -6.17788e-06 0 9.90178e-05 1.17107e-05 0 8.51377e-05 1.90015e-05 0 7.41037e-05 2.14666e-05 0 6.52302e-05 2.16015e-05 0 5.78098e-05 2.06416e-05 0 5.1483e-05 1.9202e-05 0 4.59863e-05 1.76023e-05 0 4.1157e-05 1.60067e-05 0 3.68775e-05 1.44961e-05 0 3.30612e-05 1.31067e-05 0 2.96411e-05 1.18504e-05 0 2.65627e-05 1.07269e-05 0 2.37812e-05 9.72891e-06 0 2.1258e-05 8.84698e-06 0 1.89605e-05 8.07055e-06 0 1.68599e-05 7.38939e-06 0 1.49312e-05 6.79394e-06 0 1.31521e-05 6.27561e-06 0 1.15028e-05 5.82685e-06 0 9.96535e-06 5.44108e-06 0 8.52376e-06 5.11269e-06 0 7.16326e-06 4.83692e-06 0 5.87028e-06 4.60983e-06 0 4.63223e-06 4.42821e-06 0 3.43723e-06 4.2895e-06 0 2.27404e-06 4.19176e-06 0 1.13181e-06 4.13365e-06 0 0 4.11438e-06 0 -1.64973e-06 -0.000300484 0 0.000166507 -0.000151023 0 0.000154708 -3.99332e-05 0 0.000125869 1.43999e-06 0 0.000102283 1.75548e-05 0 8.64879e-05 2.33469e-05 0 7.42599e-05 2.48626e-05 0 6.49888e-05 2.43444e-05 0 5.73085e-05 2.29406e-05 0 5.0924e-05 2.11674e-05 0 4.54062e-05 1.93152e-05 0 4.06073e-05 1.75132e-05 0 3.63663e-05 1.58343e-05 0 3.25985e-05 1.43013e-05 0 2.92256e-05 1.29233e-05 0 2.61933e-05 1.16939e-05 0 2.34541e-05 1.06045e-05 0 2.09698e-05 9.64264e-06 0 1.87072e-05 8.79665e-06 0 1.66382e-05 8.05471e-06 0 1.47378e-05 7.40634e-06 0 1.29842e-05 6.842e-06 0 1.13578e-05 6.35344e-06 0 9.84132e-06 5.93344e-06 0 8.41883e-06 5.57591e-06 0 7.07592e-06 5.27566e-06 0 5.79929e-06 5.0284e-06 0 4.57658e-06 4.83063e-06 0 3.39616e-06 4.67957e-06 0 2.24697e-06 4.57314e-06 0 1.11837e-06 4.50986e-06 0 0 4.48887e-06 0 1.42584e-05 -0.000425329 0 0.000229258 -0.000161615 0 0.000176179 -2.40015e-05 0 0.00013386 1.13403e-05 0 0.000104792 2.45204e-05 0 8.74094e-05 2.81399e-05 0 7.4109e-05 2.84559e-05 0 6.457e-05 2.71987e-05 0 5.66658e-05 2.52638e-05 0 5.02702e-05 2.31504e-05 0 4.47463e-05 2.10152e-05 0 3.99965e-05 1.90099e-05 0 3.58025e-05 1.71536e-05 0 3.20921e-05 1.54801e-05 0 2.87723e-05 1.39787e-05 0 2.57915e-05 1.26458e-05 0 2.30988e-05 1.14656e-05 0 2.0657e-05 1.04256e-05 0 1.84325e-05 9.51111e-06 0 1.63978e-05 8.70969e-06 0 1.45281e-05 8.00939e-06 0 1.28021e-05 7.39999e-06 0 1.12007e-05 6.87241e-06 0 9.70687e-06 6.41888e-06 0 8.30508e-06 6.03278e-06 0 6.98123e-06 5.70852e-06 0 5.72232e-06 5.44147e-06 0 4.51625e-06 5.22786e-06 0 3.35162e-06 5.0647e-06 0 2.21761e-06 4.94973e-06 0 1.10379e-06 4.88138e-06 0 0 4.8587e-06 0 -1.46424e-05 -0.000758611 0 0.000312163 -0.000134048 0 0.000198852 -1.16089e-06 0 0.00013796 2.41908e-05 0 0.000107276 3.21902e-05 0 8.72976e-05 3.33491e-05 0 7.3833e-05 3.22042e-05 0 6.38446e-05 3.01168e-05 0 5.59156e-05 2.76139e-05 0 4.94966e-05 2.51279e-05 0 4.4011e-05 2.27047e-05 0 3.93207e-05 2.04869e-05 0 3.51864e-05 1.84541e-05 0 3.15424e-05 1.66389e-05 0 2.82814e-05 1.50158e-05 0 2.53578e-05 1.35805e-05 0 2.27156e-05 1.23112e-05 0 2.03201e-05 1.11945e-05 0 1.81368e-05 1.02131e-05 0 1.6139e-05 9.35343e-06 0 1.43024e-05 8.60237e-06 0 1.26062e-05 7.9489e-06 0 1.10317e-05 7.38316e-06 0 9.5622e-06 6.89684e-06 0 8.18267e-06 6.48278e-06 0 6.87933e-06 6.13503e-06 0 5.63949e-06 5.84861e-06 0 4.45131e-06 5.61949e-06 0 3.30368e-06 5.44447e-06 0 2.18601e-06 5.32115e-06 0 1.0881e-06 5.24782e-06 0 0 5.22349e-06 0 7.42664e-05 -0.00157865 0 0.000368514 1.88132e-06 0 0.000250546 1.83404e-05 0 0.000117247 4.20431e-05 0 0.000121011 3.9549e-05 0 7.9622e-05 3.90044e-05 0 7.6942e-05 3.60866e-05 0 6.08645e-05 3.29895e-05 0 5.60864e-05 3.00397e-05 0 4.8047e-05 2.70407e-05 0 4.34881e-05 2.44078e-05 0 3.84288e-05 2.19207e-05 0 3.45952e-05 1.97434e-05 0 3.09104e-05 1.77687e-05 0 2.7773e-05 1.60362e-05 0 2.48833e-05 1.44945e-05 0 2.23096e-05 1.31412e-05 0 1.99575e-05 1.19478e-05 0 1.78214e-05 1.09018e-05 0 1.5862e-05 9.98494e-06 0 1.40614e-05 9.18461e-06 0 1.23967e-05 8.48804e-06 0 1.0851e-05 7.88513e-06 0 9.40754e-06 7.36676e-06 0 8.05181e-06 6.92543e-06 0 6.77039e-06 6.55473e-06 0 5.55091e-06 6.24939e-06 0 4.38188e-06 6.00512e-06 0 3.25242e-06 5.81852e-06 0 2.15222e-06 5.68702e-06 0 1.07132e-06 5.60883e-06 0 0 5.58289e-06 0 0.0108344 0.002176 0 0.000645425 -5.80128e-05 0 -7.72357e-05 9.18633e-05 0 0.000314033 4.62733e-05 0 1.17076e-05 5.14981e-05 0 0.000136689 4.39054e-05 0 4.48725e-05 3.98031e-05 0 7.59293e-05 3.62787e-05 0 4.65734e-05 3.20811e-05 0 5.13969e-05 2.91931e-05 0 4.03728e-05 2.59112e-05 0 3.87411e-05 2.34328e-05 0 3.33171e-05 2.09431e-05 0 3.05497e-05 1.89103e-05 0 2.70751e-05 1.70135e-05 0 2.44517e-05 1.53997e-05 0 2.18422e-05 1.39467e-05 0 1.95881e-05 1.26883e-05 0 1.74787e-05 1.15743e-05 0 1.55706e-05 1.06045e-05 0 1.38038e-05 9.7548e-06 0 1.21746e-05 9.01706e-06 0 1.06588e-05 8.37757e-06 0 9.24317e-06 7.82822e-06 0 7.91271e-06 7.36022e-06 0 6.65455e-06 6.9672e-06 0 5.45676e-06 6.64339e-06 0 4.30804e-06 6.38435e-06 0 3.19792e-06 6.18644e-06 0 2.11628e-06 6.04697e-06 0 1.05347e-06 5.96404e-06 0 0 5.93652e-06 0 </DataArray> 
</PointData> 
<Points> 
<DataArray type="Float32" NumberOfComponents="3"> 