<?xml version="1.0"?> 
<VTKFile type="StructuredGrid" version="0.1"> 
<StructuredGrid WholeExtent="0 31 0 31 0 0"> 
<Piece Extent="0 31 0 31 0 0"> 
<PointData>
<DataArray type="Float32" Name="B" format="ascii" NumberOfComponents="3"> 
5.3712e-05 -0 0 5.11885e-05 -0 0 4.86538e-05 -0 0 4.61247e-05 -0 0 4.36163e-05 -0 0 4.1142e-05 -0 0 3.87138e-05 -0 0 3.63415e-05 -0 0 3.40336e-05 -0 0 3.17965e-05 -0 0 2.96355e-05 -0 0 2.75541e-05 -0 0 2.55545e-05 -0 0 2.36377e-05 -0 0 2.18035e-05 -0 0 2.00509e-05 -0 0 1.83778e-05 -0 0 1.67816e-05 -0 0 1.5259e-05 -0 0 1.3806e-05 -0 0 1.24184e-05 -0 0 1.10916e-05 -0 0 9.82058e-06 -0 0 8.6002e-06 -0 0 7.42514e-06 -0 0 6.28992e-06 -0 0 5.18899e-06 -0 0 4.11671e-06 -0 0 3.0674e-06 -0 0 2.03534e-06 -0 0 1.01479e-06 -0 0 0 -0 0 5.37265e-05 2.51506e-06 0 5.1194e-05 2.53488e-06 0 4.8651e-05 2.53723e-06 0 4.61142e-05 2.52357e-06 0 4.3599e-05 2.49554e-06 0 4.11189e-05 2.45487e-06 0 3.86856e-05 2.4033e-06 0 3.63092e-05 2.34258e-06 0 3.3998e-05 2.27441e-06 0 3.17584e-05 2.20043e-06 0 2.95956e-05 2.12216e-06 0 2.75131e-05 2.04103e-06 0 2.5513e-05 1.95835e-06 0 2.35963e-05 1.87529e-06 0 2.17627e-05 1.79288e-06 0 2.0011e-05 1.71206e-06 0 1.83393e-05 1.63361e-06 0 1.67448e-05 1.55821e-06 0 1.52241e-05 1.48644e-06 0 1.37733e-05 1.41877e-06 0 1.2388e-05 1.3556e-06 0 1.10637e-05 1.29724e-06 0 9.79524e-06 1.24395e-06 0 8.57753e-06 1.19592e-06 0 7.4052e-06 1.1533e-06 0 6.27277e-06 1.11621e-06 0 5.17466e-06 1.08472e-06 0 4.10522e-06 1.05889e-06 0 3.05877e-06 1.03877e-06 0 2.02958e-06 1.02439e-06 0 1.01191e-06 1.01575e-06 0 5.09747e-21 1.01287e-06 0 5.37697e-05 5.04896e-06 0 5.12098e-05 5.0873e-06 0 4.86415e-05 5.09048e-06 0 4.60819e-05 5.06152e-06 0 4.35464e-05 5.00374e-06 0 4.10486e-05 4.92063e-06 0 3.86003e-05 4.81574e-06 0 3.62115e-05 4.69259e-06 0 3.38904e-05 4.55462e-06 0 3.16433e-05 4.40512e-06 0 2.94753e-05 4.24716e-06 0 2.73895e-05 4.0836e-06 0 2.5388e-05 3.91707e-06 0 2.34716e-05 3.74989e-06 0 2.16397e-05 3.58417e-06 0 1.98911e-05 3.42172e-06 0 1.82235e-05 3.26414e-06 0 1.66341e-05 3.11277e-06 0 1.51192e-05 2.96875e-06 0 1.36749e-05 2.83303e-06 0 1.22967e-05 2.70637e-06 0 1.09798e-05 2.58941e-06 0 9.71915e-06 2.48263e-06 0 8.50947e-06 2.38642e-06 0 7.34536e-06 2.30108e-06 0 6.22129e-06 2.2268e-06 0 5.13164e-06 2.16377e-06 0 4.07074e-06 2.11208e-06 0 3.03288e-06 2.07182e-06 0 2.0123e-06 2.04303e-06 0 1.00327e-06 2.02574e-06 0 8.37371e-21 2.01998e-06 0 5.38395e-05 7.6208e-06 0 5.12337e-05 7.67496e-06 0 4.86231e-05 7.67591e-06 0 4.60252e-05 7.62831e-06 0 4.34558e-05 7.53728e-06 0 4.09286e-05 7.40818e-06 0 3.84553e-05 7.24642e-06 0 3.60459e-05 7.0574e-06 0 3.37084e-05 6.84634e-06 0 3.1449e-05 6.61822e-06 0 2.92723e-05 6.37771e-06 0 2.71814e-05 6.12911e-06 0 2.51778e-05 5.87637e-06 0 2.32621e-05 5.62301e-06 0 2.14334e-05 5.37213e-06 0 1.969e-05 5.12649e-06 0 1.80295e-05 4.88843e-06 0 1.64487e-05 4.65995e-06 0 1.49438e-05 4.44274e-06 0 1.35105e-05 4.23819e-06 0 1.21441e-05 4.04743e-06 0 1.08397e-05 3.87138e-06 0 9.59204e-06 3.71073e-06 0 8.39581e-06 3.56606e-06 0 7.24546e-06 3.43776e-06 0 6.13538e-06 3.32616e-06 0 5.05987e-06 3.23146e-06 0 4.01323e-06 3.15384e-06 0 2.98969e-06 3.09338e-06 0 1.98349e-06 3.05016e-06 0 9.88854e-07 3.02421e-06 0 0 3.01556e-06 0 5.3933e-05 1.02502e-05 0 5.1262e-05 1.0316e-05 0 4.85916e-05 1.031e-05 0 4.59398e-05 1.02386e-05 0 4.33227e-05 1.01089e-05 0 4.07542e-05 9.92836e-06 0 3.8246e-05 9.70434e-06 0 3.5808e-05 9.44421e-06 0 3.3448e-05 9.15507e-06 0 3.11717e-05 8.84365e-06 0 2.89834e-05 8.51627e-06 0 2.68857e-05 8.17871e-06 0 2.48797e-05 7.83624e-06 0 2.29654e-05 7.49355e-06 0 2.11415e-05 7.15481e-06 0 1.94059e-05 6.82361e-06 0 1.77558e-05 6.50307e-06 0 1.61874e-05 6.19581e-06 0 1.46967e-05 5.90403e-06 0 1.3279e-05 5.62953e-06 0 1.19294e-05 5.37376e-06 0 1.06427e-05 5.1379e-06 0 9.41351e-06 4.92284e-06 0 8.23626e-06 4.72928e-06 0 7.10529e-06 4.55774e-06 0 6.01487e-06 4.40859e-06 0 4.95924e-06 4.28209e-06 0 3.9326e-06 4.17842e-06 0 2.92916e-06 4.0977e-06 0 1.94311e-06 4.04001e-06 0 9.68659e-07 4.00538e-06 0 3.14982e-22 3.99383e-06 0 5.40455e-05 1.29574e-05 0 5.12894e-05 1.3029e-05 0 4.85411e-05 1.30094e-05 0 4.58194e-05 1.29071e-05 0 4.31407e-05 1.27315e-05 0 4.05191e-05 1.2492e-05 0 3.79663e-05 1.21983e-05 0 3.5492e-05 1.186e-05 0 3.31035e-05 1.1486e-05 0 3.08062e-05 1.1085e-05 0 2.86037e-05 1.06649e-05 0 2.64981e-05 1.02331e-05 0 2.44897e-05 9.79622e-06 0 2.25781e-05 9.36007e-06 0 2.07612e-05 8.92985e-06 0 1.90364e-05 8.51e-06 0 1.74001e-05 8.10436e-06 0 1.58484e-05 7.71614e-06 0 1.43764e-05 7.34798e-06 0 1.29793e-05 7.00207e-06 0 1.16518e-05 6.68015e-06 0 1.03882e-05 6.38358e-06 0 9.18303e-06 6.11343e-06 0 8.03042e-06 5.87048e-06 0 6.92456e-06 5.65531e-06 0 5.85958e-06 5.46835e-06 0 4.82961e-06 5.30987e-06 0 3.82878e-06 5.18005e-06 0 2.85124e-06 5.079e-06 0 1.89115e-06 5.00679e-06 0 9.42669e-07 4.96346e-06 0 2.97858e-20 4.94901e-06 0 5.41707e-05 1.57639e-05 0 5.13086e-05 1.58336e-05 0 4.84637e-05 1.57917e-05 0 4.56556e-05 1.56492e-05 0 4.29012e-05 1.54178e-05 0 4.02147e-05 1.51098e-05 0 3.76079e-05 1.4737e-05 0 3.50898e-05 1.43113e-05 0 3.26674e-05 1.38438e-05 0 3.03455e-05 1.33452e-05 0 2.81269e-05 1.28252e-05 0 2.60128e-05 1.22925e-05 0 2.4003e-05 1.17553e-05 0 2.20958e-05 1.12206e-05 0 2.02887e-05 1.06944e-05 0 1.85781e-05 1.01821e-05 0 1.696e-05 9.68815e-06 0 1.54294e-05 9.2163e-06 0 1.39813e-05 8.76961e-06 0 1.26101e-05 8.35057e-06 0 1.13101e-05 7.96112e-06 0 1.00754e-05 7.6028e-06 0 8.89996e-06 7.27677e-06 0 7.77783e-06 6.98385e-06 0 6.70294e-06 6.72467e-06 0 5.66928e-06 6.49962e-06 0 4.67084e-06 6.30897e-06 0 3.70168e-06 6.15289e-06 0 2.75588e-06 6.03145e-06 0 1.82756e-06 5.9447e-06 0 9.10873e-07 5.89265e-06 0 1.81003e-20 5.8753e-06 0 5.43005e-05 1.86923e-05 0 5.13102e-05 1.875e-05 0 4.83491e-05 1.86746e-05 0 4.54376e-05 1.848e-05 0 4.25933e-05 1.81809e-05 0 3.98303e-05 1.77922e-05 0 3.71602e-05 1.73285e-05 0 3.45916e-05 1.68042e-05 0 3.21306e-05 1.62327e-05 0 2.97813e-05 1.56268e-05 0 2.75454e-05 1.49978e-05 0 2.54232e-05 1.43564e-05 0 2.34134e-05 1.37118e-05 0 2.15133e-05 1.30723e-05 0 1.97195e-05 1.24449e-05 0 1.80274e-05 1.18357e-05 0 1.64321e-05 1.12497e-05 0 1.4928e-05 1.06912e-05 0 1.35092e-05 1.01635e-05 0 1.21697e-05 9.66938e-06 0 1.09031e-05 9.21091e-06 0 9.70321e-06 8.7897e-06 0 8.5636e-06 8.40694e-06 0 7.47799e-06 8.06347e-06 0 6.44011e-06 7.75985e-06 0 5.44375e-06 7.49646e-06 0 4.48281e-06 7.27351e-06 0 3.55123e-06 7.09108e-06 0 2.64304e-06 6.94922e-06 0 1.75234e-06 6.84791e-06 0 8.73266e-07 6.78714e-06 0 0 6.76688e-06 0 5.44242e-05 2.17669e-05 0 5.12821e-05 2.17997e-05 0 4.81842e-05 2.16769e-05 0 4.51521e-05 2.14155e-05 0 4.22034e-05 2.10337e-05 0 3.93526e-05 2.05495e-05 0 3.66106e-05 1.99806e-05 0 3.39853e-05 1.93441e-05 0 3.14819e-05 1.8656e-05 0 2.91032e-05 1.79311e-05 0 2.685e-05 1.71828e-05 0 2.4721e-05 1.64232e-05 0 2.27138e-05 1.56631e-05 0 2.08245e-05 1.49117e-05 0 1.90484e-05 1.41771e-05 0 1.73799e-05 1.34659e-05 0 1.58129e-05 1.27837e-05 0 1.43412e-05 1.21351e-05 0 1.29579e-05 1.15238e-05 0 1.16563e-05 1.09525e-05 0 1.04295e-05 1.04234e-05 0 9.27074e-06 9.93809e-06 0 8.17327e-06 9.49778e-06 0 7.13044e-06 9.10319e-06 0 6.13576e-06 8.7548e-06 0 5.18283e-06 8.45286e-06 0 4.26542e-06 8.1975e-06 0 3.37739e-06 7.9887e-06 0 2.51272e-06 7.82642e-06 0 1.6655e-06 7.71058e-06 0 8.29857e-07 7.64111e-06 0 0 7.61796e-06 0 5.45284e-05 2.50137e-05 0 5.12092e-05 2.50056e-05 0 4.7953e-05 2.48178e-05 0 4.47824e-05 2.44715e-05 0 4.17152e-05 2.39887e-05 0 3.87657e-05 2.33912e-05 0 3.59438e-05 2.27002e-05 0 3.32567e-05 2.19355e-05 0 3.07081e-05 2.11159e-05 0 2.82995e-05 2.02585e-05 0 2.60299e-05 1.93787e-05 0 2.38969e-05 1.84904e-05 0 2.18961e-05 1.76054e-05 0 2.00224e-05 1.67343e-05 0 1.82695e-05 1.58857e-05 0 1.66307e-05 1.50669e-05 0 1.50986e-05 1.4284e-05 0 1.36659e-05 1.35417e-05 0 1.23249e-05 1.28439e-05 0 1.1068e-05 1.21932e-05 0 9.88786e-06 1.15919e-05 0 8.777e-06 1.10415e-05 0 7.7283e-06 1.05428e-05 0 6.73478e-06 1.00967e-05 0 5.78967e-06 9.70325e-06 0 4.88643e-06 9.36268e-06 0 4.01867e-06 9.07491e-06 0 3.1802e-06 8.8398e-06 0 2.36497e-06 8.65718e-06 0 1.56708e-06 8.52689e-06 0 7.80672e-07 8.44878e-06 0 0 8.42275e-06 0 5.45958e-05 2.84609e-05 0 5.10725e-05 2.83916e-05 0 4.76356e-05 2.81172e-05 0 4.43084e-05 2.76639e-05 0 4.11089e-05 2.70583e-05 0 3.80503e-05 2.63264e-05 0 3.51419e-05 2.54931e-05 0 3.2389e-05 2.45815e-05 0 2.9794e-05 2.36133e-05 0 2.73563e-05 2.26079e-05 0 2.50732e-05 2.1583e-05 0 2.29402e-05 2.05538e-05 0 2.09513e-05 1.95337e-05 0 1.90994e-05 1.8534e-05 0 1.73766e-05 1.75641e-05 0 1.57746e-05 1.66319e-05 0 1.42849e-05 1.57435e-05 0 1.28988e-05 1.49038e-05 0 1.16077e-05 1.41166e-05 0 1.04031e-05 1.33845e-05 0 9.27693e-06 1.27095e-05 0 8.22115e-06 1.20929e-05 0 7.22819e-06 1.15354e-05 0 6.29073e-06 1.10374e-05 0 5.40176e-06 1.05988e-05 0 4.55456e-06 1.02197e-05 0 3.74265e-06 9.89965e-06 0 2.95978e-06 9.6384e-06 0 2.19992e-06 9.43563e-06 0 1.45717e-06 9.29103e-06 0 7.2576e-07 9.20436e-06 0 0 9.17549e-06 0 5.46046e-05 3.21393e-05 0 5.08483e-05 3.1983e-05 0 4.72076e-05 3.15954e-05 0 4.3706e-05 3.10085e-05 0 4.03608e-05 3.02541e-05 0 3.71843e-05 2.93629e-05 0 3.41839e-05 2.83639e-05 0 3.13631e-05 2.72839e-05 0 2.87221e-05 2.61474e-05 0 2.62582e-05 2.49767e-05 0 2.39662e-05 2.37911e-05 0 2.18393e-05 2.26078e-05 0 1.98694e-05 2.14412e-05 0 1.80471e-05 2.03035e-05 0 1.63628e-05 1.92047e-05 0 1.48064e-05 1.81528e-05 0 1.33677e-05 1.7154e-05 0 1.20368e-05 1.62133e-05 0 1.0804e-05 1.5334e-05 0 9.65995e-06 1.45186e-05 0 8.59562e-06 1.37687e-05 0 7.60254e-06 1.30852e-05 0 6.67263e-06 1.24685e-05 0 5.79824e-06 1.19185e-05 0 4.97213e-06 1.1435e-05 0 4.18744e-06 1.10176e-05 0 3.43761e-06 1.06656e-05 0 2.71639e-06 1.03785e-05 0 2.01778e-06 1.01559e-05 0 1.33594e-06 9.99724e-06 0 6.65205e-07 9.90217e-06 0 0 9.87051e-06 0 5.45267e-05 3.60813e-05 0 5.05074e-05 3.58063e-05 0 4.66395e-05 3.5273e-05 0 4.29462e-05 3.45203e-05 0 3.94434e-05 3.35864e-05 0 3.61415e-05 3.25069e-05 0 3.30457e-05 3.13153e-05 0 3.0157e-05 3.00423e-05 0 2.74728e-05 2.87155e-05 0 2.49877e-05 2.73598e-05 0 2.26938e-05 2.59967e-05 0 2.05814e-05 2.46447e-05 0 1.86396e-05 2.33195e-05 0 1.68568e-05 2.20339e-05 0 1.52211e-05 2.07981e-05 0 1.37203e-05 1.96202e-05 0 1.23427e-05 1.85064e-05 0 1.10768e-05 1.74611e-05 0 9.91172e-06 1.64873e-05 0 8.83707e-06 1.55871e-05 0 7.84314e-06 1.47614e-05 0 6.92083e-06 1.40107e-05 0 6.06161e-06 1.33348e-05 0 5.25753e-06 1.27332e-05 0 4.50115e-06 1.22052e-05 0 3.7855e-06 1.17499e-05 0 3.104e-06 1.13666e-05 0 2.45044e-06 1.10543e-05 0 1.81888e-06 1.08123e-05 0 1.20362e-06 1.06399e-05 0 5.99129e-07 1.05366e-05 0 0 1.05022e-05 0 5.43275e-05 4.03223e-05 0 5.00137e-05 3.98881e-05 0 4.58958e-05 3.91695e-05 0 4.19947e-05 3.82132e-05 0 3.83242e-05 3.70637e-05 0 3.48918e-05 3.57625e-05 0 3.16997e-05 3.43477e-05 0 2.87458e-05 3.28538e-05 0 2.60241e-05 3.13121e-05 0 2.35259e-05 2.97498e-05 0 2.12397e-05 2.81906e-05 0 1.91526e-05 2.66544e-05 0 1.72508e-05 2.51578e-05 0 1.55195e-05 2.37139e-05 0 1.39444e-05 2.23332e-05 0 1.25112e-05 2.10234e-05 0 1.12061e-05 1.97901e-05 0 1.00161e-05 1.86372e-05 0 8.92905e-06 1.7567e-05 0 7.93357e-06 1.65809e-05 0 7.01915e-06 1.56791e-05 0 6.17612e-06 1.48613e-05 0 5.39554e-06 1.41267e-05 0 4.66919e-06 1.34742e-05 0 3.98951e-06 1.29025e-05 0 3.34946e-06 1.24105e-05 0 2.7425e-06 1.19966e-05 0 2.16252e-06 1.16598e-05 0 1.6037e-06 1.1399e-05 0 1.06054e-06 1.12133e-05 0 5.27706e-07 1.11022e-05 0 -9.21768e-21 1.10652e-05 0 5.39605e-05 4.4897e-05 0 4.93229e-05 4.42547e-05 0 4.49339e-05 4.33033e-05 0 4.08117e-05 4.20987e-05 0 3.69662e-05 4.06923e-05 0 3.34011e-05 3.91313e-05 0 3.01149e-05 3.74585e-05 0 2.71018e-05 3.57127e-05 0 2.43517e-05 3.39285e-05 0 2.18516e-05 3.2136e-05 0 1.95862e-05 3.03608e-05 0 1.75387e-05 2.8624e-05 0 1.56913e-05 2.69428e-05 0 1.40262e-05 2.53305e-05 0 1.2526e-05 2.37971e-05 0 1.11741e-05 2.23496e-05 0 9.95447e-06 2.09931e-05 0 8.85261e-06 1.97303e-05 0 7.85496e-06 1.85626e-05 0 6.94915e-06 1.74902e-05 0 6.12392e-06 1.65127e-05 0 5.36907e-06 1.56286e-05 0 4.67533e-06 1.48364e-05 0 4.0343e-06 1.41343e-05 0 3.43832e-06 1.35204e-05 0 2.8804e-06 1.29927e-05 0 2.3541e-06 1.25496e-05 0 1.85347e-06 1.21893e-05 0 1.37291e-06 1.19106e-05 0 9.07166e-07 1.17124e-05 0 4.51164e-07 1.15937e-05 0 -8.18415e-20 1.15542e-05 0 5.33719e-05 4.98432e-05 0 4.83811e-05 4.89297e-05 0 4.37041e-05 4.76895e-05 0 3.9351e-05 4.61853e-05 0 3.53268e-05 4.4475e-05 0 3.16306e-05 4.26111e-05 0 2.82565e-05 4.06415e-05 0 2.51942e-05 3.86092e-05 0 2.24288e-05 3.65526e-05 0 1.99424e-05 3.45043e-05 0 1.77149e-05 3.24919e-05 0 1.57245e-05 3.05375e-05 0 1.39495e-05 2.86585e-05 0 1.23681e-05 2.68677e-05 0 1.09596e-05 2.51745e-05 0 9.7047e-06 2.35848e-05 0 8.58533e-06 2.21021e-05 0 7.58511e-06 2.0728e-05 0 6.68921e-06 1.94626e-05 0 5.88431e-06 1.83048e-05 0 5.15847e-06 1.72527e-05 0 4.50105e-06 1.6304e-05 0 3.90255e-06 1.54561e-05 0 3.35446e-06 1.47063e-05 0 2.84916e-06 1.4052e-05 0 2.37979e-06 1.34905e-05 0 1.9401e-06 1.30197e-05 0 1.52438e-06 1.26374e-05 0 1.12736e-06 1.23419e-05 0 7.44066e-07 1.21318e-05 0 3.69797e-07 1.20061e-05 0 -1.50975e-20 1.19643e-05 0 5.24852e-05 5.51854e-05 0 4.71253e-05 5.39318e-05 0 4.2149e-05 5.23385e-05 0 3.75606e-05 5.04771e-05 0 3.33585e-05 4.84105e-05 0 2.95371e-05 4.61959e-05 0 2.60858e-05 4.38863e-05 0 2.2989e-05 4.15294e-05 0 2.02265e-05 3.91673e-05 0 1.77743e-05 3.68358e-05 0 1.56062e-05 3.45641e-05 0 1.36952e-05 3.23748e-05 0 1.20142e-05 3.02851e-05 0 1.05372e-05 2.83069e-05 0 9.23995e-06 2.64479e-05 0 8.10007e-06 2.47125e-05 0 7.09731e-06 2.31023e-05 0 6.21355e-06 2.1617e-05 0 5.43271e-06 2.0255e-05 0 4.74062e-06 1.90135e-05 0 4.1248e-06 1.78892e-05 0 3.57429e-06 1.68785e-05 0 3.0795e-06 1.59776e-05 0 2.63195e-06 1.51829e-05 0 2.22419e-06 1.44907e-05 0 1.84958e-06 1.38978e-05 0 1.5022e-06 1.34013e-05 0 1.17667e-06 1.29987e-05 0 8.6811e-07 1.26877e-05 0 5.71971e-07 1.24668e-05 0 2.83971e-07 1.23348e-05 0 0 1.22909e-05 0 5.12258e-05 6.0955e-05 0 4.54825e-05 5.92701e-05 0 4.02057e-05 5.72542e-05 0 3.53832e-05 5.49735e-05 0 3.10088e-05 5.24932e-05 0 2.70725e-05 4.9875e-05 0 2.35597e-05 4.71774e-05 0 2.0449e-05 4.44536e-05 0 1.77134e-05 4.17504e-05 0 1.53218e-05 3.91066e-05 0 1.32406e-05 3.65527e-05 0 1.1436e-05 3.41118e-05 0 9.87506e-06 3.17996e-05 0 8.52693e-06 2.96263e-05 0 7.36327e-06 2.75974e-05 0 6.35868e-06 2.57146e-05 0 5.49063e-06 2.39772e-05 0 4.73938e-06 2.23826e-05 0 4.08776e-06 2.09267e-05 0 3.52092e-06 1.96049e-05 0 3.02603e-06 1.84121e-05 0 2.59202e-06 1.73433e-05 0 2.20936e-06 1.63931e-05 0 1.8698e-06 1.55569e-05 0 1.56618e-06 1.48302e-05 0 1.29225e-06 1.42088e-05 0 1.04251e-06 1.36892e-05 0 8.12052e-07 1.32683e-05 0 5.96483e-07 1.29436e-05 0 3.91764e-07 1.27131e-05 0 1.94132e-07 1.25754e-05 0 0 1.25296e-05 0 4.94795e-05 6.71261e-05 0 4.33786e-05 6.49428e-05 0 3.78076e-05 6.24335e-05 0 3.27577e-05 5.9669e-05 0 2.82196e-05 5.67133e-05 0 2.41835e-05 5.36328e-05 0 2.06304e-05 5.04934e-05 0 1.75332e-05 4.73559e-05 0 1.48561e-05 4.42727e-05 0 1.25587e-05 4.1286e-05 0 1.05985e-05 3.84274e-05 0 8.93346e-06 3.5719e-05 0 7.52364e-06 3.31744e-05 0 6.33267e-06 3.08008e-05 0 5.32803e-06 2.86002e-05 0 4.48122e-06 2.65711e-05 0 3.76757e-06 2.47093e-05 0 3.16596e-06 2.30092e-05 0 2.65838e-06 2.14642e-05 0 2.22957e-06 2.00673e-05 0 1.86662e-06 1.88113e-05 0 1.55862e-06 1.76893e-05 0 1.29631e-06 1.66947e-05 0 1.07187e-06 1.58216e-05 0 8.78617e-07 1.50643e-05 0 7.1084e-07 1.4418e-05 0 5.63605e-07 1.38784e-05 0 4.32611e-07 1.34419e-05 0 3.14051e-07 1.31054e-05 0 2.045e-07 1.28668e-05 0 1.00808e-07 1.27242e-05 0 -2.02456e-20 1.26768e-05 0 4.71883e-05 7.37178e-05 0 4.074e-05 7.09316e-05 0 3.4891e-05 6.78684e-05 0 2.96191e-05 6.45565e-05 0 2.49276e-05 6.10581e-05 0 2.08094e-05 5.74487e-05 0 1.72443e-05 5.38062e-05 0 1.41962e-05 5.02021e-05 0 1.16187e-05 4.66967e-05 0 9.4586e-06 4.33356e-05 0 7.66184e-06 4.01506e-05 0 6.17625e-06 3.71612e-05 0 4.95405e-06 3.43774e-05 0 3.95277e-06 3.18017e-05 0 3.13562e-06 2.94312e-05 0 2.47119e-06 2.72599e-05 0 1.93302e-06 2.52795e-05 0 1.49897e-06 2.34807e-05 0 1.15062e-06 2.18537e-05 0 8.72695e-07 2.03888e-05 0 6.5256e-07 1.90764e-05 0 4.79748e-07 1.79079e-05 0 3.45593e-07 1.68751e-05 0 2.42906e-07 1.59705e-05 0 1.65706e-07 1.51877e-05 0 1.08989e-07 1.45207e-05 0 6.85468e-08 1.39647e-05 0 4.07981e-08 1.35155e-05 0 2.26562e-08 1.31696e-05 0 1.14088e-08 1.29243e-05 0 4.6129e-09 1.2778e-05 0 -8.89098e-20 1.27293e-05 0 4.42349e-05 8.05666e-05 0 3.7523e-05 7.72178e-05 0 3.13959e-05 7.35559e-05 0 2.59e-05 6.9632e-05 0 2.10589e-05 6.55145e-05 0 1.688e-05 6.12968e-05 0 1.33388e-05 5.70782e-05 0 1.0388e-05 5.29474e-05 0 7.96354e-06 4.8974e-05 0 5.99562e-06 4.52071e-05 0 4.41469e-06 4.16763e-05 0 3.15659e-06 3.83967e-05 0 2.16447e-06 3.53716e-05 0 1.38967e-06 3.25966e-05 0 7.91319e-07 3.00626e-05 0 3.35644e-07 2.77576e-05 0 -5.02398e-09 2.56681e-05 0 -2.53198e-07 2.37805e-05 0 -4.27136e-07 2.20813e-05 0 -5.41602e-07 2.05577e-05 0 -6.08525e-07 1.91979e-05 0 -6.37531e-07 1.7991e-05 0 -6.36392e-07 1.69272e-05 0 -6.11379e-07 1.59978e-05 0 -5.67559e-07 1.51952e-05 0 -5.0903e-07 1.45126e-05 0 -4.39123e-07 1.39444e-05 0 -3.60559e-07 1.34859e-05 0 -2.75588e-07 1.31331e-05 0 -1.86105e-07 1.28832e-05 0 -9.37506e-08 1.27341e-05 0 -7.56549e-21 1.26846e-05 0 4.07343e-05 8.77982e-05 0 3.37039e-05 8.37929e-05 0 2.72747e-05 7.95119e-05 0 2.15196e-05 7.49069e-05 0 1.65242e-05 7.00715e-05 0 1.23078e-05 6.51436e-05 0 8.8409e-06 6.02593e-05 0 6.05209e-06 5.55316e-05 0 3.85223e-06 5.10419e-05 0 2.14647e-06 4.68396e-05 0 8.46052e-07 4.29492e-05 0 -1.27691e-07 3.93764e-05 0 -8.41065e-07 3.61147e-05 0 -1.3487e-06 3.31502e-05 0 -1.69463e-06 3.04649e-05 0 -1.91406e-06 2.80397e-05 0 -2.03485e-06 2.58549e-05 0 -2.07902e-06 2.38919e-05 0 -2.06389e-06 2.21333e-05 0 -2.00306e-06 2.0563e-05 0 -1.90722e-06 1.91666e-05 0 -1.78471e-06 1.79311e-05 0 -1.64205e-06 1.68451e-05 0 -1.48431e-06 1.58986e-05 0 -1.3154e-06 1.50828e-05 0 -1.13833e-06 1.43903e-05 0 -9.55371e-07 1.38146e-05 0 -7.68263e-07 1.33506e-05 0 -5.78302e-07 1.29939e-05 0 -3.86464e-07 1.27415e-05 0 -1.93497e-07 1.25909e-05 0 0 1.25409e-05 0 3.66586e-05 9.50109e-05 0 2.93293e-05 9.07266e-05 0 2.24645e-05 8.58116e-05 0 1.63735e-05 8.04154e-05 0 1.11985e-05 7.47211e-05 0 6.9812e-06 6.89427e-05 0 3.66072e-06 6.32779e-05 0 1.12719e-06 5.7873e-05 0 -7.52445e-07 5.28177e-05 0 -2.10599e-06 4.81573e-05 0 -3.04727e-06 4.39024e-05 0 -3.67028e-06 4.00439e-05 0 -4.05061e-06 3.65601e-05 0 -4.24726e-06 3.34241e-05 0 -4.30588e-06 3.06073e-05 0 -4.26141e-06 2.80814e-05 0 -4.14052e-06 2.58201e-05 0 -3.96353e-06 2.37993e-05 0 -3.74584e-06 2.19973e-05 0 -3.49915e-06 2.03947e-05 0 -3.23227e-06 1.89746e-05 0 -2.95179e-06 1.7722e-05 0 -2.6626e-06 1.66238e-05 0 -2.36826e-06 1.56689e-05 0 -2.0713e-06 1.48475e-05 0 -1.77341e-06 1.41513e-05 0 -1.4757e-06 1.35733e-05 0 -1.17877e-06 1.3108e-05 0 -8.82856e-07 1.27507e-05 0 -5.87929e-07 1.2498e-05 0 -2.9376e-07 1.23473e-05 0 0 1.22972e-05 0 3.25171e-05 0.00010309 0 2.44216e-05 9.82155e-05 0 1.68757e-05 9.26008e-05 0 1.02839e-05 8.62349e-05 0 4.90326e-06 7.94492e-05 0 7.46315e-07 7.26188e-05 0 -2.30783e-06 6.60278e-05 0 -4.45163e-06 5.9856e-05 0 -5.87995e-06 5.4194e-05 0 -6.7677e-06 4.90655e-05 0 -7.25552e-06 4.44577e-05 0 -7.45289e-06 4.03356e-05 0 -7.44154e-06 3.66575e-05 0 -7.2821e-06 3.33791e-05 0 -7.01883e-06 3.04589e-05 0 -6.68412e-06 2.78589e-05 0 -6.3015e-06 2.55453e-05 0 -5.88811e-06 2.34884e-05 0 -5.45633e-06 2.16622e-05 0 -5.01507e-06 2.00443e-05 0 -4.57063e-06 1.86154e-05 0 -4.12736e-06 1.73586e-05 0 -3.68814e-06 1.62596e-05 0 -3.25472e-06 1.53059e-05 0 -2.828e-06 1.44871e-05 0 -2.40824e-06 1.37941e-05 0 -1.99519e-06 1.32197e-05 0 -1.58821e-06 1.27577e-05 0 -1.18639e-06 1.24032e-05 0 -7.88614e-07 1.21526e-05 0 -3.93604e-07 1.20032e-05 0 0 1.19536e-05 0 2.83242e-05 0.000111106 0 1.90219e-05 0.000106697 0 1.02721e-05 0.000100204 0 2.95314e-06 9.24586e-05 0 -2.64512e-06 8.42098e-05 0 -6.59797e-06 7.60377e-05 0 -9.18911e-06 6.83416e-05 0 -1.07404e-05 6.13202e-05 0 -1.1543e-05 5.50292e-05 0 -1.18235e-05 4.94508e-05 0 -1.17499e-05 4.45253e-05 0 -1.14405e-05 4.01837e-05 0 -1.0978e-05 3.63552e-05 0 -1.04188e-05 3.29765e-05 0 -9.80182e-06 2.99911e-05 0 -9.15368e-06 2.73508e-05 0 -8.49249e-06 2.50145e-05 0 -7.83051e-06 2.29472e-05 0 -7.17588e-06 2.11193e-05 0 -6.53386e-06 1.95055e-05 0 -5.90759e-06 1.80845e-05 0 -5.29871e-06 1.68379e-05 0 -4.70773e-06 1.57503e-05 0 -4.13435e-06 1.48084e-05 0 -3.57767e-06 1.4001e-05 0 -3.03631e-06 1.33187e-05 0 -2.50856e-06 1.27538e-05 0 -1.99246e-06 1.22999e-05 0 -1.48587e-06 1.19519e-05 0 -9.86517e-07 1.17061e-05 0 -4.92034e-07 1.15596e-05 0 0 1.1511e-05 0 2.48672e-05 0.000122616 0 1.29178e-05 0.000117031 0 2.1631e-06 0.000109003 0 -6.17127e-06 9.9201e-05 0 -1.18661e-05 8.8849e-05 0 -1.5312e-05 7.89456e-05 0 -1.71012e-05 6.99611e-05 0 -1.77681e-05 6.20381e-05 0 -1.77173e-05 5.51486e-05 0 -1.72256e-05 4.91798e-05 0 -1.64739e-05 4.40103e-05 0 -1.55773e-05 3.9519e-05 0 -1.46081e-05 3.56051e-05 0 -1.36112e-05 3.21818e-05 0 -1.26146e-05 2.91794e-05 0 -1.16354e-05 2.65397e-05 0 -1.06836e-05 2.42155e-05 0 -9.76507e-06 2.21674e-05 0 -8.88249e-06 2.03628e-05 0 -8.03665e-06 1.87745e-05 0 -7.22698e-06 1.73796e-05 0 -6.45201e-06 1.61587e-05 0 -5.70962e-06 1.50956e-05 0 -4.99723e-06 1.41766e-05 0 -4.31197e-06 1.339e-05 0 -3.65072e-06 1.27262e-05 0 -3.01024e-06 1.21772e-05 0 -2.38717e-06 1.17364e-05 0 -1.7781e-06 1.13988e-05 0 -1.17954e-06 1.11603e-05 0 -5.88011e-07 1.10183e-05 0 0 1.09712e-05 0 2.23424e-05 0.000134739 0 5.43292e-06 0.000130493 0 -8.5277e-06 0.000119775 0 -1.8049e-05 0.000106339 0 -2.33546e-05 9.29723e-05 0 -2.56727e-05 8.08817e-05 0 -2.61098e-05 7.0485e-05 0 -2.54929e-05 6.17178e-05 0 -2.43162e-05 5.43403e-05 0 -2.28771e-05 4.81147e-05 0 -2.13358e-05 4.28177e-05 0 -1.97825e-05 3.82812e-05 0 -1.82631e-05 3.43659e-05 0 -1.68017e-05 3.09689e-05 0 -1.54089e-05 2.80065e-05 0 -1.40888e-05 2.54148e-05 0 -1.28411e-05 2.31415e-05 0 -1.16634e-05 2.1145e-05 0 -1.05522e-05 1.93908e-05 0 -9.50311e-06 1.78507e-05 0 -8.51157e-06 1.65011e-05 0 -7.57267e-06 1.53221e-05 0 -6.68145e-06 1.42973e-05 0 -5.83295e-06 1.34127e-05 0 -5.02222e-06 1.26566e-05 0 -4.24435e-06 1.20192e-05 0 -3.4945e-06 1.14925e-05 0 -2.7679e-06 1.107e-05 0 -2.0598e-06 1.07466e-05 0 -1.36553e-06 1.05183e-05 0 -6.8047e-07 1.03824e-05 0 0 1.03373e-05 0 2.01433e-05 0.000159549 0 -5.01191e-06 0.00014995 0 -2.41813e-05 0.000132717 0 -3.41906e-05 0.000113352 0 -3.7853e-05 9.56316e-05 0 -3.78269e-05 8.10506e-05 0 -3.61354e-05 6.93691e-05 0 -3.37353e-05 5.99955e-05 0 -3.11614e-05 5.23959e-05 0 -2.86168e-05 4.61216e-05 0 -2.62045e-05 4.08755e-05 0 -2.39495e-05 3.64243e-05 0 -2.18584e-05 3.26142e-05 0 -1.99222e-05 2.93231e-05 0 -1.81302e-05 2.64657e-05 0 -1.64695e-05 2.39727e-05 0 -1.49283e-05 2.17921e-05 0 -1.34951e-05 1.98811e-05 0 -1.21596e-05 1.82055e-05 0 -1.0912e-05 1.6737e-05 0 -9.74352e-06 1.54524e-05 0 -8.64565e-06 1.43319e-05 0 -7.61058e-06 1.33592e-05 0 -6.63092e-06 1.25206e-05 0 -5.69962e-06 1.18046e-05 0 -4.80997e-06 1.12017e-05 0 -3.95554e-06 1.07039e-05 0 -3.13012e-06 1.03048e-05 0 -2.32767e-06 9.99949e-06 0 -1.54233e-06 9.78405e-06 0 -7.68339e-07 9.65584e-06 0 0 9.61328e-06 0 2.27554e-05 0.000190125 0 -2.4529e-05 0.000178619 0 -4.91722e-05 0.000148097 0 -5.69266e-05 0.00011784 0 -5.56789e-05 9.50052e-05 0 -5.15945e-05 7.82786e-05 0 -4.6733e-05 6.5936e-05 0 -4.21392e-05 5.65445e-05 0 -3.79412e-05 4.91279e-05 0 -3.42236e-05 4.31278e-05 0 -3.09075e-05 3.81402e-05 0 -2.79532e-05 3.39388e-05 0 -2.5297e-05 3.03447e-05 0 -2.28991e-05 2.72492e-05 0 -2.07198e-05 2.45617e-05 0 -1.8731e-05 2.22207e-05 0 -1.69075e-05 2.01742e-05 0 -1.52294e-05 1.83829e-05 0 -1.36792e-05 1.68138e-05 0 -1.22421e-05 1.54403e-05 0 -1.09049e-05 1.424e-05 0 -9.65589e-06 1.31942e-05 0 -8.48438e-06 1.22874e-05 0 -7.38058e-06 1.15063e-05 0 -6.33541e-06 1.084e-05 0 -5.34042e-06 1.02793e-05 0 -4.38761e-06 9.81672e-06 0 -3.46938e-06 9.44612e-06 0 -2.57845e-06 9.16268e-06 0 -1.7078e-06 8.96276e-06 0 -8.50561e-07 8.84381e-06 0 0 8.80434e-06 0 1.39288e-05 0.000274504 0 -6.64874e-05 0.000225514 0 -9.32085e-05 0.000158435 0 -8.70496e-05 0.000114753 0 -7.63345e-05 8.80451e-05 0 -6.56121e-05 7.12204e-05 0 -5.71497e-05 5.96736e-05 0 -5.00215e-05 5.11355e-05 0 -4.42848e-05 4.45107e-05 0 -3.9399e-05 3.9119e-05 0 -3.5265e-05 3.4647e-05 0 -3.16523e-05 3.0844e-05 0 -2.84832e-05 2.75881e-05 0 -2.56562e-05 2.47667e-05 0 -2.31211e-05 2.23157e-05 0 -2.08274e-05 2.01747e-05 0 -1.87422e-05 1.83029e-05 0 -1.68359e-05 1.66632e-05 0 -1.5086e-05 1.52275e-05 0 -1.34724e-05 1.3971e-05 0 -1.19783e-05 1.28736e-05 0 -1.05888e-05 1.19181e-05 0 -9.2906e-06 1.10901e-05 0 -8.07169e-06 1.03775e-05 0 -6.92112e-06 9.76996e-06 0 -5.82876e-06 9.25906e-06 0 -4.78514e-06 8.83778e-06 0 -3.78138e-06 8.50043e-06 0 -2.809e-06 8.24253e-06 0 -1.85987e-06 8.06067e-06 0 -9.26114e-07 7.95249e-06 0 0 7.91659e-06 0 5.03604e-05 0.000509661 0 -0.000201287 0.000274827 0 -0.000156727 0.000141076 0 -0.00012312 9.43603e-05 0 -9.38193e-05 7.19465e-05 0 -7.86692e-05 5.92556e-05 0 -6.54128e-05 5.05096e-05 0 -5.69679e-05 4.39488e-05 0 -4.955e-05 3.86573e-05 0 -4.3962e-05 3.42437e-05 0 -3.90408e-05 3.04753e-05 0 -3.49484e-05 2.72229e-05 0 -3.13124e-05 2.43925e-05 0 -2.81331e-05 2.1922e-05 0 -2.5278e-05 1.97585e-05 0 -2.27186e-05 1.78627e-05 0 -2.03975e-05 1.61995e-05 0 -1.82873e-05 1.47409e-05 0 -1.63566e-05 1.34623e-05 0 -1.45836e-05 1.23432e-05 0 -1.29474e-05 1.13657e-05 0 -1.14306e-05 1.05149e-05 0 -1.00177e-05 9.77789e-06 0 -8.6946e-06 9.14382e-06 0 -7.44873e-06 8.60355e-06 0 -6.26842e-06 8.14942e-06 0 -5.1429e-06 7.77511e-06 0 -4.06205e-06 7.47548e-06 0 -3.01633e-06 7.24649e-06 0 -1.9966e-06 7.08506e-06 0 -9.94035e-07 6.98904e-06 0 0 6.95718e-06 0 -0.000669499 0.00217276 0 -0.000406558 -6.40775e-05 0 -0.000267397 9.00022e-05 0 -0.000106763 4.47588e-05 0 -0.000124842 5.04992e-05 0 -7.51654e-05 4.31343e-05 0 -7.70692e-05 3.92085e-05 0 -5.86575e-05 3.58221e-05 0 -5.52969e-05 3.1715e-05 0 -4.66962e-05 2.89091e-05 0 -4.26137e-05 2.56821e-05 0 -3.74841e-05 2.32529e-05 0 -3.38481e-05 2.07983e-05 0 -3.02105e-05 1.87956e-05 0 -2.71806e-05 1.69213e-05 0 -2.43542e-05 1.53264e-05 0 -2.18522e-05 1.3888e-05 0 -1.95558e-05 1.26415e-05 0 -1.74723e-05 1.1537e-05 0 -1.55578e-05 1.05748e-05 0 -1.37977e-05 9.73121e-06 0 -1.21689e-05 8.9984e-06 0 -1.06552e-05 8.36287e-06 0 -9.24056e-06 7.81668e-06 0 -7.91099e-06 7.3512e-06 0 -6.65349e-06 6.96018e-06 0 -5.4561e-06 6.63793e-06 0 -4.3077e-06 6.38008e-06 0 -3.19774e-06 6.18304e-06 0 -2.11622e-06 6.04417e-06 0 -1.05345e-06 5.96159e-06 0 0 5.93418e-06 0 </DataArray> 
</PointData> 
<Points> 
<DataArray type="Float32" NumberOfComponents="3"> 