<?xml version="1.0"?> 
<VTKFile type="StructuredGrid" version="0.1"> 
<StructuredGrid WholeExtent="0 31 0 31 0 0"> 
<Piece Extent="0 31 0 31 0 0"> 
<PointData>
<DataArray type="Float32" Name="B" format="ascii" NumberOfComponents="3"> 
0 -0 0 -3.3501e-07 -0 0 -6.7194e-07 -0 0 -1.01272e-06 -0 0 -1.35926e-06 -0 0 -1.7135e-06 -0 0 -2.07737e-06 -0 0 -2.45281e-06 -0 0 -2.84175e-06 -0 0 -3.24614e-06 -0 0 -3.6679e-06 -0 0 -4.10895e-06 -0 0 -4.57122e-06 -0 0 -5.05656e-06 -0 0 -5.56683e-06 -0 0 -6.10379e-06 -0 0 -6.66916e-06 -0 0 -7.26452e-06 -0 0 -7.89132e-06 -0 0 -8.55086e-06 -0 0 -9.24418e-06 -0 0 -9.97207e-06 -0 0 -1.0735e-05 -0 0 -1.15329e-05 -0 0 -1.23653e-05 -0 0 -1.32312e-05 -0 0 -1.41289e-05 -0 0 -1.50558e-05 -0 0 -1.60086e-05 -0 0 -1.69829e-05 -0 0 -1.79735e-05 -0 0 -1.8974e-05 -0 0 -8.41391e-22 3.34369e-07 0 -3.34049e-07 3.3533e-07 0 -6.70019e-07 3.38212e-07 0 -1.00983e-06 3.43017e-07 0 -1.35541e-06 3.49749e-07 0 -1.70869e-06 3.58412e-07 0 -2.07159e-06 3.69009e-07 0 -2.44606e-06 3.81544e-07 0 -2.83403e-06 3.96018e-07 0 -3.23745e-06 4.12428e-07 0 -3.65824e-06 4.3077e-07 0 -4.09835e-06 4.51029e-07 0 -4.55967e-06 4.73184e-07 0 -5.0441e-06 4.97202e-07 0 -5.55347e-06 5.23034e-07 0 -6.08959e-06 5.50613e-07 0 -6.65415e-06 5.79849e-07 0 -7.24878e-06 6.10622e-07 0 -7.87494e-06 6.42777e-07 0 -8.53394e-06 6.76118e-07 0 -9.22687e-06 7.10396e-07 0 -9.95454e-06 7.45303e-07 0 -1.07174e-05 7.80464e-07 0 -1.15156e-05 8.15424e-07 0 -1.23485e-05 8.49645e-07 0 -1.32153e-05 8.82495e-07 0 -1.41142e-05 9.1325e-07 0 -1.50428e-05 9.41093e-07 0 -1.59977e-05 9.65125e-07 0 -1.69747e-05 9.84377e-07 0 -1.79684e-05 9.97832e-07 0 -1.89726e-05 1.00448e-06 0 -1.38213e-21 6.66818e-07 0 -3.31168e-07 6.68738e-07 0 -6.64255e-07 6.745e-07 0 -1.00118e-06 6.84107e-07 0 -1.34387e-06 6.97567e-07 0 -1.69424e-06 7.14889e-07 0 -2.05424e-06 7.3608e-07 0 -2.4258e-06 7.61148e-07 0 -2.81086e-06 7.90097e-07 0 -3.21138e-06 8.22925e-07 0 -3.62928e-06 8.59621e-07 0 -4.06652e-06 9.00161e-07 0 -4.52502e-06 9.44504e-07 0 -5.00668e-06 9.92587e-07 0 -5.51337e-06 1.04432e-06 0 -6.04691e-06 1.09956e-06 0 -6.60906e-06 1.15815e-06 0 -7.20147e-06 1.21985e-06 0 -7.82568e-06 1.28436e-06 0 -8.48306e-06 1.35129e-06 0 -9.17477e-06 1.42015e-06 0 -9.90173e-06 1.49034e-06 0 -1.06645e-05 1.56111e-06 0 -1.14633e-05 1.63157e-06 0 -1.22978e-05 1.70064e-06 0 -1.31671e-05 1.76707e-06 0 -1.40698e-05 1.8294e-06 0 -1.50033e-05 1.88599e-06 0 -1.59646e-05 1.93502e-06 0 -1.69495e-05 1.97455e-06 0 -1.79527e-05 2.00249e-06 0 -1.89679e-05 2.01679e-06 0 0 9.95427e-07 0 -3.2637e-07 9.98305e-07 0 -6.54653e-07 1.00694e-06 0 -9.86768e-07 1.02134e-06 0 -1.32463e-06 1.04152e-06 0 -1.67018e-06 1.0675e-06 0 -2.02533e-06 1.09927e-06 0 -2.39204e-06 1.13687e-06 0 -2.77225e-06 1.1803e-06 0 -3.16791e-06 1.22955e-06 0 -3.58099e-06 1.28462e-06 0 -4.01343e-06 1.34549e-06 0 -4.4672e-06 1.41208e-06 0 -4.94421e-06 1.48432e-06 0 -5.4464e-06 1.56207e-06 0 -5.97562e-06 1.64516e-06 0 -6.53369e-06 1.73334e-06 0 -7.12234e-06 1.82626e-06 0 -7.74322e-06 1.92351e-06 0 -8.39779e-06 2.02451e-06 0 -9.08738e-06 2.12855e-06 0 -9.81303e-06 2.23477e-06 0 -1.05755e-05 2.34205e-06 0 -1.13752e-05 2.44908e-06 0 -1.22121e-05 2.55426e-06 0 -1.30855e-05 2.65571e-06 0 -1.39942e-05 2.75125e-06 0 -1.49359e-05 2.83841e-06 0 -1.59078e-05 2.91442e-06 0 -1.69058e-05 2.97628e-06 0 -1.79248e-05 3.02083e-06 0 -1.89585e-05 3.04485e-06 0 -5.19845e-23 1.31828e-06 0 -3.19657e-07 1.32211e-06 0 -6.41222e-07 1.33362e-06 0 -9.66606e-07 1.35281e-06 0 -1.29773e-06 1.37969e-06 0 -1.6365e-06 1.4143e-06 0 -1.98488e-06 1.45665e-06 0 -2.34478e-06 1.50676e-06 0 -2.71818e-06 1.56466e-06 0 -3.10704e-06 1.63036e-06 0 -3.51332e-06 1.70384e-06 0 -3.93902e-06 1.78507e-06 0 -4.38612e-06 1.874e-06 0 -4.85658e-06 1.97052e-06 0 -5.35238e-06 2.07449e-06 0 -5.87546e-06 2.18567e-06 0 -6.42771e-06 2.30375e-06 0 -7.01098e-06 2.42834e-06 0 -7.62702e-06 2.55887e-06 0 -8.27748e-06 2.69464e-06 0 -8.96386e-06 2.83476e-06 0 -9.68743e-06 2.97808e-06 0 -1.04492e-05 3.1232e-06 0 -1.12499e-05 3.26839e-06 0 -1.20898e-05 3.41155e-06 0 -1.29686e-05 3.55021e-06 0 -1.38853e-05 3.68145e-06 0 -1.48382e-05 3.80194e-06 0 -1.58247e-05 3.90794e-06 0 -1.6841e-05 3.99533e-06 0 -1.7882e-05 4.05973e-06 0 -1.89416e-05 4.09669e-06 0 -4.91555e-21 1.63347e-06 0 -3.11036e-07 1.63825e-06 0 -6.23972e-07 1.65262e-06 0 -9.40709e-07 1.67657e-06 0 -1.26316e-06 1.71014e-06 0 -1.59324e-06 1.75335e-06 0 -1.93288e-06 1.80625e-06 0 -2.28403e-06 1.86887e-06 0 -2.64866e-06 1.94124e-06 0 -3.02873e-06 2.02337e-06 0 -3.42625e-06 2.11529e-06 0 -3.84322e-06 2.21696e-06 0 -4.28166e-06 2.32832e-06 0 -4.74361e-06 2.44928e-06 0 -5.23108e-06 2.57967e-06 0 -5.74611e-06 2.71924e-06 0 -6.2907e-06 2.86765e-06 0 -6.86682e-06 3.02443e-06 0 -7.47638e-06 3.18896e-06 0 -8.12123e-06 3.3604e-06 0 -8.8031e-06 3.53771e-06 0 -9.52355e-06 3.71955e-06 0 -1.0284e-05 3.90422e-06 0 -1.10854e-05 4.08965e-06 0 -1.19285e-05 4.27328e-06 0 -1.28136e-05 4.45205e-06 0 -1.37401e-05 4.62233e-06 0 -1.47068e-05 4.77991e-06 0 -1.57116e-05 4.92001e-06 0 -1.67511e-05 5.03733e-06 0 -1.78205e-05 5.12613e-06 0 -1.89137e-05 5.18054e-06 0 -2.98692e-21 1.93909e-06 0 -3.00517e-07 1.94482e-06 0 -6.02921e-07 1.96202e-06 0 -9.09103e-07 1.99072e-06 0 -1.22096e-06 2.03094e-06 0 -1.54041e-06 2.08273e-06 0 -1.86938e-06 2.14614e-06 0 -2.20982e-06 2.22122e-06 0 -2.56369e-06 2.30803e-06 0 -2.93298e-06 2.40661e-06 0 -3.31972e-06 2.51698e-06 0 -3.72594e-06 2.63913e-06 0 -4.1537e-06 2.77304e-06 0 -4.6051e-06 2.91859e-06 0 -5.08223e-06 3.07565e-06 0 -5.58721e-06 3.24395e-06 0 -6.12216e-06 3.42315e-06 0 -6.6892e-06 3.61275e-06 0 -7.29043e-06 3.81208e-06 0 -7.92793e-06 4.02025e-06 0 -8.60371e-06 4.23609e-06 0 -9.31968e-06 4.45811e-06 0 -1.00776e-05 4.68441e-06 0 -1.0879e-05 4.91262e-06 0 -1.17252e-05 5.13977e-06 0 -1.26169e-05 5.36228e-06 0 -1.35545e-05 5.57581e-06 0 -1.45372e-05 5.77528e-06 0 -1.55636e-05 5.95481e-06 0 -1.6631e-05 6.10779e-06 0 -1.77349e-05 6.22699e-06 0 -1.88695e-05 6.30488e-06 0 0 2.23325e-06 0 -2.88111e-07 2.23992e-06 0 -5.78093e-07 2.25994e-06 0 -8.71821e-07 2.29334e-06 0 -1.17118e-06 2.34017e-06 0 -1.47807e-06 2.40048e-06 0 -1.79442e-06 2.47435e-06 0 -2.12217e-06 2.56185e-06 0 -2.46329e-06 2.66306e-06 0 -2.81979e-06 2.77805e-06 0 -3.19371e-06 2.90688e-06 0 -3.58712e-06 3.04956e-06 0 -4.00212e-06 3.20608e-06 0 -4.44086e-06 3.3764e-06 0 -4.90553e-06 3.56036e-06 0 -5.39833e-06 3.75775e-06 0 -5.92152e-06 3.96823e-06 0 -6.47738e-06 4.19131e-06 0 -7.06821e-06 4.42632e-06 0 -7.69635e-06 4.67236e-06 0 -8.36411e-06 4.92821e-06 0 -9.07381e-06 5.1923e-06 0 -9.82768e-06 5.46261e-06 0 -1.06278e-05 5.73653e-06 0 -1.14762e-05 6.0108e-06 0 -1.23744e-05 6.28136e-06 0 -1.33234e-05 6.54323e-06 0 -1.43237e-05 6.79047e-06 0 -1.53745e-05 7.01605e-06 0 -1.64739e-05 7.21196e-06 0 -1.76183e-05 7.36924e-06 0 -1.88022e-05 7.47841e-06 0 0 2.51407e-06 0 -2.73837e-07 2.52167e-06 0 -5.49521e-07 2.54448e-06 0 -8.28909e-07 2.58254e-06 0 -1.11387e-06 2.63592e-06 0 -1.40628e-06 2.70468e-06 0 -1.70806e-06 2.78893e-06 0 -2.02115e-06 2.88877e-06 0 -2.34753e-06 3.00431e-06 0 -2.6892e-06 3.13566e-06 0 -3.04822e-06 3.28291e-06 0 -3.42671e-06 3.44612e-06 0 -3.8268e-06 3.62534e-06 0 -4.25071e-06 3.82053e-06 0 -4.70069e-06 4.03162e-06 0 -5.17907e-06 4.25843e-06 0 -5.68821e-06 4.50067e-06 0 -6.23058e-06 4.7579e-06 0 -6.80869e-06 5.02949e-06 0 -7.42513e-06 5.31459e-06 0 -8.08257e-06 5.61201e-06 0 -8.78374e-06 5.9202e-06 0 -9.53142e-06 6.23708e-06 0 -1.03284e-05 6.55996e-06 0 -1.11774e-05 6.88539e-06 0 -1.20809e-05 7.20895e-06 0 -1.3041e-05 7.52512e-06 0 -1.40594e-05 7.82713e-06 0 -1.51365e-05 8.10682e-06 0 -1.62716e-05 8.35463e-06 0 -1.7462e-05 8.55966e-06 0 -1.87029e-05 8.71012e-06 0 0 2.77969e-06 0 -2.57715e-07 2.78821e-06 0 -5.17249e-07 2.81377e-06 0 -7.8043e-07 2.85644e-06 0 -1.0491e-06 2.91628e-06 0 -1.32513e-06 2.99339e-06 0 -1.6104e-06 3.08792e-06 0 -1.90686e-06 3.19999e-06 0 -2.21647e-06 3.32975e-06 0 -2.54125e-06 3.47736e-06 0 -2.88328e-06 3.64297e-06 0 -3.24469e-06 3.82668e-06 0 -3.62768e-06 4.0286e-06 0 -4.03449e-06 4.24876e-06 0 -4.46747e-06 4.48715e-06 0 -4.92904e-06 4.74366e-06 0 -5.4217e-06 5.01809e-06 0 -5.94806e-06 5.31008e-06 0 -6.51085e-06 5.61911e-06 0 -7.11292e-06 5.94443e-06 0 -7.7573e-06 6.28497e-06 0 -8.44717e-06 6.63929e-06 0 -9.18587e-06 7.00541e-06 0 -9.97692e-06 7.3807e-06 0 -1.08239e-05 7.76166e-06 0 -1.17306e-05 8.14371e-06 0 -1.27003e-05 8.52095e-06 0 -1.37361e-05 8.88588e-06 0 -1.48402e-05 9.22925e-06 0 -1.60135e-05 9.53989e-06 0 -1.72548e-05 9.80468e-06 0 -1.85603e-05 1.00091e-05 0 0 3.02828e-06 0 -2.39774e-07 3.0377e-06 0 -4.81332e-07 3.06597e-06 0 -7.26466e-07 3.11316e-06 0 -9.76986e-07 3.17936e-06 0 -1.23473e-06 3.26471e-06 0 -1.50157e-06 3.36936e-06 0 -1.77942e-06 3.4935e-06 0 -2.07025e-06 3.63734e-06 0 -2.37607e-06 3.80107e-06 0 -2.69898e-06 3.98491e-06 0 -3.04112e-06 4.18903e-06 0 -3.40473e-06 4.4136e-06 0 -3.79212e-06 4.65875e-06 0 -4.20569e-06 4.92454e-06 0 -4.64795e-06 5.21096e-06 0 -5.12151e-06 5.51791e-06 0 -5.62914e-06 5.84518e-06 0 -6.17374e-06 6.1924e-06 0 -6.75844e-06 6.55898e-06 0 -7.38658e-06 6.94407e-06 0 -8.06178e-06 7.34646e-06 0 -8.78798e-06 7.76444e-06 0 -9.56947e-06 8.19559e-06 0 -1.04109e-05 8.63663e-06 0 -1.13171e-05 9.08304e-06 0 -1.22933e-05 9.52878e-06 0 -1.33443e-05 9.96588e-06 0 -1.44744e-05 1.03841e-05 0 -1.56868e-05 1.07707e-05 0 -1.69827e-05 1.11101e-05 0 -1.836e-05 1.13845e-05 0 0 3.25805e-06 0 -2.20052e-07 3.26835e-06 0 -4.41842e-07 3.29926e-06 0 -6.67119e-07 3.35088e-06 0 -8.97653e-07 3.42331e-06 0 -1.13524e-06 3.51672e-06 0 -1.38174e-06 3.63131e-06 0 -1.63902e-06 3.76733e-06 0 -1.90904e-06 3.92503e-06 0 -2.19382e-06 4.10468e-06 0 -2.49545e-06 4.30655e-06 0 -2.81609e-06 4.53092e-06 0 -3.15802e-06 4.77802e-06 0 -3.52358e-06 5.04809e-06 0 -3.91524e-06 5.34127e-06 0 -4.33556e-06 5.65769e-06 0 -4.78728e-06 5.99739e-06 0 -5.27326e-06 6.36031e-06 0 -5.79659e-06 6.74627e-06 0 -6.36057e-06 7.15495e-06 0 -6.96885e-06 7.58579e-06 0 -7.62545e-06 8.03794e-06 0 -8.33486e-06 8.51012e-06 0 -9.10215e-06 9.00041e-06 0 -9.93302e-06 9.50597e-06 0 -1.08338e-05 1.00227e-05 0 -1.18114e-05 1.05449e-05 0 -1.28731e-05 1.10643e-05 0 -1.4026e-05 1.15702e-05 0 -1.52763e-05 1.20482e-05 0 -1.66284e-05 1.24803e-05 0 -1.80833e-05 1.28449e-05 0 0 3.46723e-06 0 -1.98593e-07 3.47838e-06 0 -3.98868e-07 3.51187e-06 0 -6.02521e-07 3.56778e-06 0 -8.11269e-07 3.64627e-06 0 -1.02687e-06 3.74755e-06 0 -1.25112e-06 3.87185e-06 0 -1.48588e-06 4.01949e-06 0 -1.73309e-06 4.19077e-06 0 -1.99473e-06 4.38606e-06 0 -2.27291e-06 4.6057e-06 0 -2.5698e-06 4.85006e-06 0 -2.88769e-06 5.11948e-06 0 -3.22897e-06 5.41429e-06 0 -3.59613e-06 5.73476e-06 0 -3.99182e-06 6.08114e-06 0 -4.41882e-06 6.45363e-06 0 -4.88009e-06 6.85236e-06 0 -5.37882e-06 7.2774e-06 0 -5.91847e-06 7.7287e-06 0 -6.50288e-06 8.20612e-06 0 -7.1364e-06 8.7093e-06 0 -7.82397e-06 9.23756e-06 0 -8.57137e-06 9.78973e-06 0 -9.38533e-06 1.03638e-05 0 -1.02737e-05 1.09566e-05 0 -1.12454e-05 1.15632e-05 0 -1.23106e-05 1.21758e-05 0 -1.34798e-05 1.27835e-05 0 -1.47634e-05 1.33711e-05 0 -1.61705e-05 1.39178e-05 0 -1.77067e-05 1.43979e-05 0 1.522e-21 3.65412e-06 0 -1.75454e-07 3.66609e-06 0 -3.52522e-07 3.70206e-06 0 -5.32833e-07 3.76212e-06 0 -7.18043e-07 3.84647e-06 0 -9.09849e-07 3.95535e-06 0 -1.11e-06 4.08907e-06 0 -1.32032e-06 4.24799e-06 0 -1.5427e-06 4.43252e-06 0 -1.77913e-06 4.64308e-06 0 -2.03168e-06 4.88014e-06 0 -2.30254e-06 5.14414e-06 0 -2.594e-06 5.43556e-06 0 -2.90849e-06 5.75481e-06 0 -3.24853e-06 6.10232e-06 0 -3.6168e-06 6.47847e-06 0 -4.01613e-06 6.88362e-06 0 -4.44951e-06 7.3181e-06 0 -4.92019e-06 7.78223e-06 0 -5.43168e-06 8.27631e-06 0 -5.98793e-06 8.80065e-06 0 -6.59342e-06 9.35549e-06 0 -7.25341e-06 9.94096e-06 0 -7.97421e-06 1.05569e-05 0 -8.76344e-06 1.12027e-05 0 -9.63037e-06 1.18765e-05 0 -1.05862e-05 1.25748e-05 0 -1.1644e-05 1.32914e-05 0 -1.28188e-05 1.40163e-05 0 -1.41265e-05 1.47337e-05 0 -1.55826e-05 1.54213e-05 0 -1.71996e-05 1.60486e-05 0 1.35186e-20 3.81706e-06 0 -1.50702e-07 3.82983e-06 0 -3.02937e-07 3.86816e-06 0 -4.58252e-07 3.93219e-06 0 -6.18229e-07 4.02214e-06 0 -7.84493e-07 4.13832e-06 0 -9.58734e-07 4.28109e-06 0 -1.14272e-06 4.45089e-06 0 -1.33829e-06 4.64822e-06 0 -1.54742e-06 4.87361e-06 0 -1.77216e-06 5.12762e-06 0 -2.01469e-06 5.41082e-06 0 -2.27731e-06 5.72378e-06 0 -2.56247e-06 6.06708e-06 0 -2.87272e-06 6.44124e-06 0 -3.21075e-06 6.8468e-06 0 -3.57941e-06 7.28428e-06 0 -3.98169e-06 7.75419e-06 0 -4.42081e-06 8.25711e-06 0 -4.90024e-06 8.79367e-06 0 -5.42386e-06 9.36465e-06 0 -5.9961e-06 9.97099e-06 0 -6.62228e-06 1.06138e-05 0 -7.3089e-06 1.12942e-05 0 -8.06417e-06 1.20132e-05 0 -8.89852e-06 1.27713e-05 0 -9.8252e-06 1.35674e-05 0 -1.08607e-05 1.4398e-05 0 -1.20249e-05 1.52552e-05 0 -1.33408e-05 1.6125e-05 0 -1.48327e-05 1.69839e-05 0 -1.65237e-05 1.77982e-05 0 2.49504e-21 3.9545e-06 0 -1.24421e-07 3.968e-06 0 -2.50276e-07 4.00857e-06 0 -3.79019e-07 4.07635e-06 0 -5.12138e-07 4.17161e-06 0 -6.51174e-07 4.2947e-06 0 -7.97739e-07 4.44609e-06 0 -9.53532e-07 4.62628e-06 0 -1.12035e-06 4.83588e-06 0 -1.30012e-06 5.07553e-06 0 -1.49486e-06 5.34591e-06 0 -1.70676e-06 5.64772e-06 0 -1.93812e-06 5.98168e-06 0 -2.19139e-06 6.34846e-06 0 -2.46914e-06 6.74876e-06 0 -2.7741e-06 7.18322e-06 0 -3.1091e-06 7.65251e-06 0 -3.47709e-06 8.15729e-06 0 -3.88119e-06 8.69835e-06 0 -4.32471e-06 9.27662e-06 0 -4.81129e-06 9.89332e-06 0 -5.34506e-06 1.05501e-05 0 -5.93099e-06 1.1249e-05 0 -6.57533e-06 1.19927e-05 0 -7.2863e-06 1.27845e-05 0 -8.07492e-06 1.36277e-05 0 -8.95598e-06 1.45248e-05 0 -9.94917e-06 1.54768e-05 0 -1.10797e-05 1.64803e-05 0 -1.23789e-05 1.7525e-05 0 -1.38827e-05 1.85898e-05 0 -1.56292e-05 1.96379e-05 0 0 4.06495e-06 0 -9.67081e-08 4.07914e-06 0 -1.94735e-07 4.12178e-06 0 -2.9542e-07 4.19304e-06 0 -4.00141e-07 4.29325e-06 0 -5.10339e-07 4.42282e-06 0 -6.27533e-07 4.58228e-06 0 -7.5334e-07 4.77227e-06 0 -8.89493e-07 4.99349e-06 0 -1.03786e-06 5.24671e-06 0 -1.20043e-06 5.53277e-06 0 -1.37939e-06 5.85249e-06 0 -1.57703e-06 6.20673e-06 0 -1.79583e-06 6.59634e-06 0 -2.03839e-06 7.02211e-06 0 -2.30744e-06 7.48482e-06 0 -2.60581e-06 7.98524e-06 0 -2.9364e-06 8.52415e-06 0 -3.30219e-06 9.10244e-06 0 -3.70621e-06 9.72122e-06 0 -4.15167e-06 1.0382e-05 0 -4.64208e-06 1.10871e-05 0 -5.18161e-06 1.18394e-05 0 -5.77559e-06 1.26433e-05 0 -6.43143e-06 1.35044e-05 0 -7.15966e-06 1.44297e-05 0 -7.97566e-06 1.54268e-05 0 -8.90123e-06 1.65029e-05 0 -9.96689e-06 1.76623e-05 0 -1.12126e-05 1.89026e-05 0 -1.26895e-05 2.02089e-05 0 -1.44562e-05 2.15493e-05 0 0 4.14704e-06 0 -6.76799e-08 4.16186e-06 0 -1.36542e-07 4.20637e-06 0 -2.07793e-07 4.28082e-06 0 -2.82681e-07 4.38554e-06 0 -3.62526e-07 4.52105e-06 0 -4.48734e-07 4.68797e-06 0 -5.42824e-07 4.88704e-06 0 -6.46447e-07 5.1191e-06 0 -7.61403e-07 5.38508e-06 0 -8.8966e-07 5.68595e-06 0 -1.03336e-06 6.02273e-06 0 -1.19482e-06 6.39643e-06 0 -1.37654e-06 6.80804e-06 0 -1.58117e-06 7.25851e-06 0 -1.81148e-06 7.74873e-06 0 -2.07031e-06 8.27951e-06 0 -2.36054e-06 8.85167e-06 0 -2.68497e-06 9.4661e-06 0 -3.04632e-06 1.01239e-05 0 -3.44719e-06 1.08267e-05 0 -3.89017e-06 1.15769e-05 0 -4.37809e-06 1.23784e-05 0 -4.91456e-06 1.32368e-05 0 -5.50492e-06 1.41603e-05 0 -6.1578e-06 1.51599e-05 0 -6.88708e-06 1.62494e-05 0 -7.71513e-06 1.74447e-05 0 -8.67542e-06 1.87615e-05 0 -9.81732e-06 2.02106e-05 0 -1.12067e-05 2.1792e-05 0 -1.29295e-05 2.34802e-05 0 3.35344e-21 4.19953e-06 0 -3.74728e-08 4.21489e-06 0 -7.59697e-08 4.26107e-06 0 -1.16539e-07 4.33833e-06 0 -1.60281e-07 4.44707e-06 0 -2.08368e-07 4.5879e-06 0 -2.62075e-07 4.76153e-06 0 -3.228e-07 4.96883e-06 0 -3.92095e-07 5.21081e-06 0 -4.71681e-07 5.48856e-06 0 -5.63473e-07 5.80323e-06 0 -6.69593e-07 6.15604e-06 0 -7.92376e-07 6.5482e-06 0 -9.34363e-07 6.98087e-06 0 -1.09828e-06 7.45516e-06 0 -1.28699e-06 7.97205e-06 0 -1.50342e-06 8.5324e-06 0 -1.75045e-06 9.13696e-06 0 -2.03082e-06 9.78645e-06 0 -2.3469e-06 1.04817e-05 0 -2.70064e-06 1.12241e-05 0 -3.09345e-06 1.20159e-05 0 -3.52631e-06 1.2861e-05 0 -4.00014e-06 1.37658e-05 0 -4.51685e-06 1.47406e-05 0 -5.08079e-06 1.58004e-05 0 -5.70191e-06 1.69662e-05 0 -6.39897e-06 1.82645e-05 0 -7.20608e-06 1.97264e-05 0 -8.17669e-06 2.13836e-05 0 -9.39403e-06 2.32586e-05 0 -1.09724e-05 2.53626e-05 0 1.47422e-20 4.22131e-06 0 -6.24589e-09 4.23714e-06 0 -1.33323e-08 4.28473e-06 0 -2.2127e-08 4.36437e-06 0 -3.35518e-08 4.47656e-06 0 -4.86114e-08 4.62196e-06 0 -6.84213e-08 4.80142e-06 0 -9.42372e-08 5.01597e-06 0 -1.27485e-07 5.26677e-06 0 -1.69788e-07 5.55511e-06 0 -2.22995e-07 5.88237e-06 0 -2.892e-07 6.25e-06 0 -3.70758e-07 6.65943e-06 0 -4.70279e-07 7.11207e-06 0 -5.90608e-07 7.60919e-06 0 -7.34771e-07 8.1519e-06 0 -9.0588e-07 8.74108e-06 0 -1.10698e-06 9.37734e-06 0 -1.34086e-06 1.00611e-05 0 -1.60973e-06 1.07926e-05 0 -1.91494e-06 1.15725e-05 0 -2.25668e-06 1.2402e-05 0 -2.63365e-06 1.32844e-05 0 -3.04332e-06 1.42256e-05 0 -3.48229e-06 1.52368e-05 0 -3.94835e-06 1.63361e-05 0 -4.44282e-06 1.75512e-05 0 -4.97692e-06 1.89208e-05 0 -5.57672e-06 2.04954e-05 0 -6.29685e-06 2.23336e-05 0 -7.22533e-06 2.44996e-05 0 -8.50471e-06 2.70271e-05 0 1.25592e-21 4.21146e-06 0 2.58171e-08 4.22766e-06 0 5.10041e-08 4.27636e-06 0 7.4902e-08 4.35791e-06 0 9.67934e-08 4.47285e-06 0 1.15872e-07 4.62198e-06 0 1.3121e-07 4.80626e-06 0 1.41724e-07 5.02688e-06 0 1.46143e-07 5.28521e-06 0 1.42968e-07 5.58275e-06 0 1.30439e-07 5.92116e-06 0 1.06501e-07 6.30214e-06 0 6.87822e-08 6.72745e-06 0 1.45817e-08 7.19875e-06 0 -5.91182e-08 7.71759e-06 0 -1.556e-07 8.28524e-06 0 -2.78307e-07 8.90264e-06 0 -4.30656e-07 9.57022e-06 0 -6.15761e-07 1.02879e-05 0 -8.36001e-07 1.10553e-05 0 -1.0925e-06 1.18714e-05 0 -1.38439e-06 1.27359e-05 0 -1.70822e-06 1.36497e-05 0 -2.05719e-06 1.46166e-05 0 -2.42147e-06 1.56464e-05 0 -2.78856e-06 1.67579e-05 0 -3.14749e-06 1.79835e-05 0 -3.4923e-06 1.93738e-05 0 -3.83536e-06 2.10003e-05 0 -4.21392e-06 2.29583e-05 0 -4.71854e-06 2.53532e-05 0 -5.50036e-06 2.8335e-05 0 0 4.16926e-06 0 5.85053e-08 4.18571e-06 0 1.1662e-07 4.23519e-06 0 1.73923e-07 4.31808e-06 0 2.29931e-07 4.43501e-06 0 2.8407e-07 4.58687e-06 0 3.35632e-07 4.77479e-06 0 3.83743e-07 5.00012e-06 0 4.27322e-07 5.26444e-06 0 4.65029e-07 5.56954e-06 0 4.95226e-07 5.91737e-06 0 5.15927e-07 6.30996e-06 0 5.24751e-07 6.74944e-06 0 5.18895e-07 7.23786e-06 0 4.95125e-07 7.77711e-06 0 4.49797e-07 8.36877e-06 0 3.78961e-07 9.01391e-06 0 2.78542e-07 9.71288e-06 0 1.4469e-07 1.04651e-05 0 -2.57062e-08 1.12691e-05 0 -2.34177e-07 1.21222e-05 0 -4.79665e-07 1.3021e-05 0 -7.56969e-07 1.39627e-05 0 -1.05553e-06 1.49464e-05 0 -1.35751e-06 1.59766e-05 0 -1.63858e-06 1.70686e-05 0 -1.86767e-06 1.82549e-05 0 -2.01622e-06 1.95939e-05 0 -2.06277e-06 2.1179e-05 0 -2.0215e-06 2.31389e-05 0 -1.94647e-06 2.56597e-05 0 -1.98131e-06 2.88753e-05 0 0 4.09419e-06 0 9.15792e-08 4.11077e-06 0 1.83037e-07 4.16064e-06 0 2.74222e-07 4.24424e-06 0 3.64919e-07 4.36228e-06 0 4.54816e-07 4.51575e-06 0 5.43469e-07 4.70593e-06 0 6.30253e-07 4.93439e-06 0 7.1432e-07 5.20293e-06 0 7.94541e-07 5.51364e-06 0 8.69446e-07 5.86881e-06 0 9.37158e-07 6.27089e-06 0 9.95325e-07 6.72246e-06 0 1.04106e-06 7.22608e-06 0 1.07087e-06 7.78414e-06 0 1.08068e-06 8.3987e-06 0 1.06584e-06 9.07119e-06 0 1.0213e-06 9.80207e-06 0 9.41923e-07 1.05905e-05 0 8.23125e-07 1.14337e-05 0 6.61784e-07 1.23271e-05 0 4.57904e-07 1.32636e-05 0 2.16543e-07 1.42346e-05 0 -4.88523e-08 1.52311e-05 0 -3.1405e-07 1.6248e-05 0 -5.39407e-07 1.72892e-05 0 -6.71945e-07 1.83791e-05 0 -6.43493e-07 1.95757e-05 0 -3.92156e-07 2.09845e-05 0 1.32955e-07 2.27829e-05 0 9.11858e-07 2.5184e-05 0 1.85423e-06 2.86268e-05 0 0 3.98602e-06 0 1.24769e-07 4.00258e-06 0 2.49717e-07 4.05242e-06 0 3.74992e-07 4.13602e-06 0 5.00683e-07 4.25416e-06 0 6.26779e-07 4.40796e-06 0 7.53138e-07 4.59886e-06 0 8.79435e-07 4.82861e-06 0 1.00511e-06 5.09929e-06 0 1.1293e-06 5.41331e-06 0 1.25078e-06 5.77334e-06 0 1.36784e-06 6.18234e-06 0 1.47824e-06 6.64342e-06 0 1.57903e-06 7.15979e-06 0 1.66652e-06 7.73457e-06 0 1.73614e-06 8.37054e-06 0 1.7824e-06 9.06983e-06 0 1.79896e-06 9.83345e-06 0 1.77884e-06 1.06606e-05 0 1.71495e-06 1.15479e-05 0 1.60121e-06 1.24886e-05 0 1.43416e-06 1.34718e-05 0 1.21625e-06 1.44813e-05 0 9.59591e-07 1.54974e-05 0 6.93129e-07 1.64978e-05 0 4.67527e-07 1.74669e-05 0 3.65918e-07 1.84052e-05 0 4.9799e-07 1.93534e-05 0 1.00443e-06 2.04217e-05 0 2.00543e-06 2.17984e-05 0 3.59547e-06 2.38523e-05 0 5.74384e-06 2.67068e-05 0 0 3.84477e-06 0 1.57776e-07 3.86116e-06 0 3.1606e-07 3.9105e-06 0 4.75333e-07 3.9933e-06 0 6.36018e-07 4.11044e-06 0 7.98449e-07 4.26314e-06 0 9.6283e-07 4.45299e-06 0 1.12919e-06 4.68194e-06 0 1.29732e-06 4.95237e-06 0 1.4667e-06 5.267e-06 0 1.63643e-06 5.62896e-06 0 1.80509e-06 6.04172e-06 0 1.97062e-06 6.50908e-06 0 2.13016e-06 7.03505e-06 0 2.27989e-06 7.62369e-06 0 2.41481e-06 8.27887e-06 0 2.52855e-06 9.0039e-06 0 2.61327e-06 9.80085e-06 0 2.65963e-06 1.06699e-05 0 2.65712e-06 1.16078e-05 0 2.59475e-06 1.2607e-05 0 2.46307e-06 1.36525e-05 0 2.25702e-06 1.47216e-05 0 1.98236e-06 1.57793e-05 0 1.66332e-06 1.67828e-05 0 1.35818e-06 1.76806e-05 0 1.17045e-06 1.84321e-05 0 1.2716e-06 1.90318e-05 0 1.8866e-06 1.95497e-05 0 3.28978e-06 2.02295e-05 0 5.6867e-06 2.13582e-05 0 9.17054e-06 2.40585e-05 0 0 3.6708e-06 0 1.9027e-07 3.68685e-06 0 3.81405e-07 3.73517e-06 0 5.74246e-07 3.81631e-06 0 7.69587e-07 3.93123e-06 0 9.6814e-07 4.08123e-06 0 1.17051e-06 4.26806e-06 0 1.37712e-06 4.49388e-06 0 1.58821e-06 4.76131e-06 0 1.80367e-06 5.07343e-06 0 2.02305e-06 5.43381e-06 0 2.24533e-06 5.84654e-06 0 2.46882e-06 6.31614e-06 0 2.69091e-06 6.8476e-06 0 2.90786e-06 7.44616e-06 0 3.1144e-06 8.11719e-06 0 3.30347e-06 8.86565e-06 0 3.46573e-06 9.69572e-06 0 3.58925e-06 1.06094e-05 0 3.65926e-06 1.16057e-05 0 3.65842e-06 1.26771e-05 0 3.5678e-06 1.38087e-05 0 3.36987e-06 1.497e-05 0 3.05411e-06 1.61158e-05 0 2.62891e-06 1.71725e-05 0 2.13988e-06 1.80476e-05 0 1.7014e-06 1.8625e-05 0 1.53124e-06 1.88053e-05 0 1.98634e-06 1.85859e-05 0 3.53724e-06 1.80912e-05 0 6.66765e-06 1.80371e-05 0 1.1626e-05 1.80757e-05 0 0 3.46481e-06 0 2.21895e-07 3.48032e-06 0 4.45036e-07 3.52707e-06 0 6.70648e-07 3.60562e-06 0 8.99924e-07 3.71699e-06 0 1.13399e-06 3.86257e-06 0 1.3739e-06 4.04422e-06 0 1.62054e-06 4.2643e-06 0 1.87464e-06 4.52564e-06 0 2.13665e-06 4.83167e-06 0 2.40666e-06 5.18642e-06 0 2.68422e-06 5.59454e-06 0 2.96823e-06 6.06142e-06 0 3.25658e-06 6.59306e-06 0 3.54591e-06 7.19617e-06 0 3.8311e-06 7.87785e-06 0 4.10476e-06 8.64559e-06 0 4.35645e-06 9.50622e-06 0 4.5719e-06 1.04657e-05 0 4.73197e-06 1.15263e-05 0 4.81199e-06 1.2686e-05 0 4.78095e-06 1.39303e-05 0 4.60332e-06 1.52325e-05 0 4.24138e-06 1.65336e-05 0 3.66912e-06 1.77444e-05 0 2.88878e-06 1.87102e-05 0 1.98731e-06 1.92253e-05 0 1.18873e-06 1.90302e-05 0 9.94134e-07 1.78735e-05 0 2.17108e-06 1.58715e-05 0 5.742e-06 1.31585e-05 0 1.23613e-05 1.32451e-05 0 0 3.22784e-06 0 2.52273e-07 3.24263e-06 0 5.06188e-07 3.28722e-06 0 7.63377e-07 3.3622e-06 0 1.02545e-06 3.4686e-06 0 1.29399e-06 3.60791e-06 0 1.57052e-06 3.78206e-06 0 1.85646e-06 3.99353e-06 0 2.15311e-06 4.24538e-06 0 2.46156e-06 4.54131e-06 0 2.78259e-06 4.88574e-06 0 3.11653e-06 5.28393e-06 0 3.46307e-06 5.74202e-06 0 3.82098e-06 6.26717e-06 0 4.18771e-06 6.86755e-06 0 4.55886e-06 7.55255e-06 0 4.92737e-06 8.33221e-06 0 5.28266e-06 9.21776e-06 0 5.60891e-06 1.02194e-05 0 5.88386e-06 1.13475e-05 0 6.07538e-06 1.26055e-05 0 6.141e-06 1.39929e-05 0 6.0211e-06 1.54851e-05 0 5.64613e-06 1.70389e-05 0 4.92481e-06 1.85425e-05 0 3.79114e-06 1.98201e-05 0 2.19709e-06 2.05416e-05 0 3.25653e-07 2.02132e-05 0 -1.37611e-06 1.8248e-05 0 -1.56436e-06 1.3917e-05 0 1.56453e-06 8.42949e-06 0 9.92039e-06 -4.61998e-07 0 0 2.96135e-06 0 2.81009e-07 2.97522e-06 0 5.64064e-07 3.01704e-06 0 8.51214e-07 3.08742e-06 0 1.14451e-06 3.1874e-06 0 1.44599e-06 3.31848e-06 0 1.7577e-06 3.48267e-06 0 2.08164e-06 3.6825e-06 0 2.41973e-06 3.92117e-06 0 2.77381e-06 4.20258e-06 0 3.1455e-06 4.53148e-06 0 3.53607e-06 4.91358e-06 0 3.94634e-06 5.35576e-06 0 4.37627e-06 5.86617e-06 0 4.8247e-06 6.45464e-06 0 5.28862e-06 7.13245e-06 0 5.76249e-06 7.91339e-06 0 6.2366e-06 8.81221e-06 0 6.6961e-06 9.8473e-06 0 7.11649e-06 1.10351e-05 0 7.4637e-06 1.23966e-05 0 7.68111e-06 1.39402e-05 0 7.69709e-06 1.56764e-05 0 7.38735e-06 1.75688e-05 0 6.61881e-06 1.9559e-05 0 5.14366e-06 2.14446e-05 0 2.80613e-06 2.28702e-05 0 -7.02762e-07 2.31144e-05 0 -4.90847e-06 2.08227e-05 0 -8.87055e-06 1.46011e-05 0 -8.12445e-06 1.72137e-06 0 2.98656e-06 -6.3924e-06 0 0 2.66718e-06 0 3.07698e-07 2.67993e-06 0 6.17846e-07 2.71837e-06 0 9.32907e-07 2.78312e-06 0 1.25537e-06 2.87518e-06 0 1.58776e-06 2.99606e-06 0 1.93265e-06 3.14773e-06 0 2.29263e-06 3.33275e-06 0 2.67035e-06 3.55435e-06 0 3.06842e-06 3.81653e-06 0 3.48944e-06 4.12419e-06 0 3.93583e-06 4.4834e-06 0 4.40973e-06 4.90147e-06 0 4.91281e-06 5.38754e-06 0 5.44572e-06 5.95245e-06 0 6.00795e-06 6.61005e-06 0 6.59616e-06 7.37618e-06 0 7.20448e-06 8.27206e-06 0 7.81914e-06 9.32003e-06 0 8.42215e-06 1.05524e-05 0 8.97278e-06 1.19973e-05 0 9.42694e-06 1.37013e-05 0 9.67296e-06 1.56877e-05 0 9.6139e-06 1.80062e-05 0 8.94787e-06 2.06237e-05 0 7.48422e-06 2.34939e-05 0 4.42006e-06 2.63025e-05 0 -4.77681e-07 2.83067e-05 0 -8.95293e-06 2.78768e-05 0 -1.93324e-05 2.05026e-05 0 -2.93372e-05 2.34834e-06 0 -2.03659e-05 -4.33319e-05 0 0 2.34758e-06 0 3.31939e-07 2.35901e-06 0 6.66717e-07 2.39348e-06 0 1.0072e-06 2.45156e-06 0 1.35631e-06 2.53424e-06 0 1.71705e-06 2.64293e-06 0 2.0925e-06 2.77954e-06 0 2.4859e-06 2.94656e-06 0 2.90058e-06 3.14712e-06 0 3.34006e-06 3.38517e-06 0 3.80795e-06 3.66562e-06 0 4.30795e-06 3.99457e-06 0 4.84387e-06 4.37965e-06 0 5.41912e-06 4.83027e-06 0 6.03734e-06 5.35847e-06 0 6.70008e-06 5.979e-06 0 7.4101e-06 6.71118e-06 0 8.16187e-06 7.57849e-06 0 8.95699e-06 8.61282e-06 0 9.76606e-06 9.85176e-06 0 1.05938e-05 1.13489e-05 0 1.13325e-05 1.31637e-05 0 1.20172e-05 1.53851e-05 0 1.22841e-05 1.81014e-05 0 1.23119e-05 2.14442e-05 0 1.08946e-05 2.55076e-05 0 8.73115e-06 3.03623e-05 0 1.81154e-06 3.5795e-05 0 -7.6922e-06 4.05582e-05 0 -3.23723e-05 4.03363e-05 0 -6.31542e-05 1.87954e-05 0 -8.4552e-05 -5.62341e-05 0 0 2.00519e-06 0 3.53347e-07 2.01511e-06 0 7.099e-07 2.04503e-06 0 1.0729e-06 2.09548e-06 0 1.44567e-06 2.16737e-06 0 1.83165e-06 2.26196e-06 0 2.23447e-06 2.38108e-06 0 2.65792e-06 2.52693e-06 0 3.1061e-06 2.7026e-06 0 3.58338e-06 2.91154e-06 0 4.09436e-06 3.15894e-06 0 4.64445e-06 3.44968e-06 0 5.23821e-06 3.7931e-06 0 5.88368e-06 4.19514e-06 0 6.58184e-06 4.67432e-06 0 7.35022e-06 5.23444e-06 0 8.17052e-06 5.917e-06 0 9.09848e-06 6.71079e-06 0 1.00325e-05 7.71765e-06 0 1.11822e-05 8.87005e-06 0 1.2116e-05 1.04274e-05 0 1.36403e-05 1.21555e-05 0 1.40822e-05 1.46926e-05 0 1.64663e-05 1.74272e-05 0 1.46348e-05 2.17081e-05 0 1.94967e-05 2.65693e-05 0 9.28079e-06 3.35652e-05 0 2.14422e-05 4.46188e-05 0 -1.81807e-05 5.26701e-05 0 4.96535e-06 9.22487e-05 0 -0.000121371 1.36142e-05 0 -0.000649313 0.000731495 0 </DataArray> 
</PointData> 
<Points> 
<DataArray type="Float32" NumberOfComponents="3"> 