<?xml version="1.0"?> 
<VTKFile type="StructuredGrid" version="0.1"> 
<StructuredGrid WholeExtent="0 31 0 31 0 0"> 
<Piece Extent="0 31 0 31 0 0"> 
<PointData>
<DataArray type="Float32" Name="B" format="ascii" NumberOfComponents="3"> 
0 4.46505e-06 0 8.06624e-07 4.48201e-06 0 1.61961e-06 4.53295e-06 0 2.4455e-06 4.61808e-06 0 3.29075e-06 4.73773e-06 0 4.16232e-06 4.89223e-06 0 5.067e-06 5.0821e-06 0 6.01248e-06 5.30743e-06 0 7.00642e-06 5.5687e-06 0 8.05697e-06 5.86473e-06 0 9.1752e-06 6.19598e-06 0 1.03654e-05 6.55718e-06 0 1.16551e-05 6.94989e-06 0 1.30191e-05 7.35673e-06 0 1.45627e-05 7.78655e-06 0 1.61084e-05 8.18644e-06 0 1.81103e-05 8.59661e-06 0 1.96979e-05 8.86081e-06 0 2.28085e-05 9.1309e-06 0 2.36461e-05 8.95807e-06 0 3.01676e-05 8.83909e-06 0 2.6849e-05 7.55256e-06 0 4.51195e-05 6.48781e-06 0 2.43863e-05 2.69096e-06 0 8.42876e-05 -9.03268e-07 0 -2.27479e-06 -9.4729e-06 0 0.000203842 -2.1829e-05 0 -0.000113694 -3.56123e-05 0 0.000590734 -8.95209e-05 0 -0.000379888 -7.54608e-05 0 0.00133915 -0.000566395 0 0.0265651 0.00287766 0 -3.1666e-20 4.1947e-06 0 8.17565e-07 4.21058e-06 0 1.64157e-06 4.25831e-06 0 2.47851e-06 4.33805e-06 0 3.335e-06 4.45007e-06 0 4.2178e-06 4.59469e-06 0 5.13399e-06 4.7722e-06 0 6.09085e-06 4.98279e-06 0 7.09615e-06 5.22634e-06 0 8.15821e-06 5.50235e-06 0 9.28563e-06 5.80928e-06 0 1.04891e-05 6.14483e-06 0 1.17769e-05 6.50372e-06 0 1.31677e-05 6.87994e-06 0 1.46615e-05 7.25878e-06 0 1.63083e-05 7.6277e-06 0 1.80612e-05 7.94798e-06 0 2.00977e-05 8.19868e-06 0 2.21538e-05 8.2778e-06 0 2.49221e-05 8.1631e-06 0 2.72235e-05 7.58429e-06 0 3.17714e-05 6.55272e-06 0 3.37513e-05 4.37233e-06 0 4.3558e-05 1.12374e-06 0 4.25995e-05 -4.7694e-06 0 6.95574e-05 -1.38065e-05 0 5.60096e-05 -2.81288e-05 0 0.000141618 -5.61653e-05 0 9.01746e-05 -9.25776e-05 0 0.000387072 -0.000225241 0 0.000531833 -0.000444353 0 -0.00157974 -0.00527 0 -2.43803e-20 3.92081e-06 0 8.27804e-07 3.93562e-06 0 1.66208e-06 3.98011e-06 0 2.50937e-06 4.05443e-06 0 3.37629e-06 4.1588e-06 0 4.26963e-06 4.29347e-06 0 5.1964e-06 4.45866e-06 0 6.16387e-06 4.65441e-06 0 7.17966e-06 4.88053e-06 0 8.2518e-06 5.13622e-06 0 9.38888e-06 5.41999e-06 0 1.06e-05 5.72869e-06 0 1.18955e-05 6.05783e-06 0 1.32858e-05 6.39854e-06 0 1.47854e-05 6.73996e-06 0 1.64058e-05 7.05952e-06 0 1.81727e-05 7.33375e-06 0 2.00965e-05 7.50684e-06 0 2.22381e-05 7.53165e-06 0 2.4596e-05 7.26984e-06 0 2.7341e-05 6.63053e-06 0 3.04288e-05 5.26953e-06 0 3.43592e-05 2.99998e-06 0 3.90022e-05 -1.02315e-06 0 4.57578e-05 -7.33419e-06 0 5.4641e-05 -1.79364e-05 0 6.92226e-05 -3.53664e-05 0 9.24125e-05 -6.46495e-05 0 0.000132637 -0.000123673 0 0.000215068 -0.000241844 0 0.000318624 -0.000705008 0 -0.00144592 -0.00211783 0 0 3.64363e-06 0 8.37323e-07 3.65736e-06 0 1.68115e-06 3.6986e-06 0 2.53805e-06 3.76748e-06 0 3.41465e-06 3.86417e-06 0 4.31774e-06 3.98887e-06 0 5.2543e-06 4.14171e-06 0 6.23152e-06 4.32266e-06 0 7.2569e-06 4.5314e-06 0 8.33824e-06 4.76702e-06 0 9.48374e-06 5.02778e-06 0 1.0702e-05 5.3105e-06 0 1.20024e-05 5.6101e-06 0 1.33946e-05 5.91798e-06 0 1.48899e-05 6.22157e-06 0 1.64996e-05 6.49979e-06 0 1.82405e-05 6.72384e-06 0 2.01252e-05 6.84343e-06 0 2.21899e-05 6.7946e-06 0 2.44438e-05 6.45686e-06 0 2.69957e-05 5.68866e-06 0 2.98206e-05 4.1953e-06 0 3.33029e-05 1.64901e-06 0 3.72325e-05 -2.68579e-06 0 4.30226e-05 -9.6923e-06 0 4.96373e-05 -2.12524e-05 0 6.2203e-05 -4.06292e-05 0 7.63439e-05 -7.3356e-05 0 0.000109083 -0.000138125 0 0.000136488 -0.00026765 0 9.24733e-05 -0.000654595 0 -0.000886903 -0.000980466 0 -3.97891e-22 3.36339e-06 0 8.46119e-07 3.37604e-06 0 1.69877e-06 3.41402e-06 0 2.56453e-06 3.47743e-06 0 3.45006e-06 3.56642e-06 0 4.36213e-06 3.68113e-06 0 5.30768e-06 3.82163e-06 0 6.29383e-06 3.98783e-06 0 7.32793e-06 4.17927e-06 0 8.41755e-06 4.395e-06 0 9.57052e-06 4.63311e-06 0 1.07949e-05 4.8904e-06 0 1.20992e-05 5.16141e-06 0 1.34918e-05 5.43779e-06 0 1.4982e-05 5.70592e-06 0 1.65787e-05 5.94588e-06 0 1.82927e-05 6.12534e-06 0 2.01339e-05 6.1983e-06 0 2.212e-05 6.08906e-06 0 2.42626e-05 5.69105e-06 0 2.6609e-05 4.82519e-06 0 2.91716e-05 3.23732e-06 0 3.21216e-05 4.90484e-07 0 3.54418e-05 -4.05731e-06 0 3.97911e-05 -1.15484e-05 0 4.48831e-05 -2.37818e-05 0 5.31131e-05 -4.42876e-05 0 6.216e-05 -7.93401e-05 0 7.79228e-05 -0.000144477 0 7.29826e-05 -0.000273183 0 -4.69593e-05 -0.000539095 0 -0.000630801 -0.000586691 0 -2.78088e-20 3.08035e-06 0 8.54189e-07 3.09191e-06 0 1.71493e-06 3.12661e-06 0 2.58883e-06 3.18454e-06 0 3.48253e-06 3.26582e-06 0 4.40281e-06 3.37053e-06 0 5.35656e-06 3.4987e-06 0 6.35082e-06 3.65017e-06 0 7.39279e-06 3.82445e-06 0 8.48982e-06 4.02047e-06 0 9.64937e-06 4.23632e-06 0 1.0879e-05 4.46868e-06 0 1.21861e-05 4.71217e-06 0 1.35782e-05 4.95827e-06 0 1.50622e-05 5.19363e-06 0 1.66446e-05 5.3979e-06 0 1.83309e-05 5.53951e-06 0 2.01264e-05 5.57108e-06 0 2.20333e-05 5.41835e-06 0 2.40582e-05 4.97053e-06 0 2.62e-05 4.04994e-06 0 2.84788e-05 2.39034e-06 0 3.09008e-05 -4.48765e-07 0 3.35432e-05 -5.14253e-06 0 3.64607e-05 -1.28499e-05 0 3.98446e-05 -2.54603e-05 0 4.37587e-05 -4.64018e-05 0 4.75583e-05 -8.20178e-05 0 4.74546e-05 -0.000144901 0 2.00995e-05 -0.000259826 0 -0.000125091 -0.000435265 0 -0.000506697 -0.000420108 0 -1.29148e-20 2.79474e-06 0 8.61532e-07 2.80521e-06 0 1.72964e-06 2.83662e-06 0 2.61092e-06 2.88906e-06 0 3.51205e-06 2.9626e-06 0 4.43977e-06 3.05732e-06 0 5.40093e-06 3.17318e-06 0 6.4025e-06 3.30998e-06 0 7.45153e-06 3.46719e-06 0 8.55514e-06 3.64373e-06 0 9.72043e-06 3.83766e-06 0 1.09544e-05 4.04571e-06 0 1.22637e-05 4.26258e-06 0 1.36544e-05 4.4799e-06 0 1.51315e-05 4.68463e-06 0 1.66988e-05 4.8568e-06 0 1.83574e-05 4.96554e-06 0 2.01054e-05 4.96409e-06 0 2.19357e-05 4.77963e-06 0 2.38365e-05 4.30172e-06 0 2.57844e-05 3.35514e-06 0 2.77534e-05 1.67166e-06 0 2.96895e-05 -1.18578e-06 0 3.15502e-05 -5.90113e-06 0 3.32012e-05 -1.36218e-05 0 3.45125e-05 -2.62313e-05 0 3.48149e-05 -4.69819e-05 0 3.24923e-05 -8.16672e-05 0 2.07122e-05 -0.000140029 0 -2.34716e-05 -0.000236446 0 -0.000166053 -0.000351021 0 -0.000430221 -0.000316652 0 0 2.50681e-06 0 8.68144e-07 2.51618e-06 0 1.74288e-06 2.5443e-06 0 2.63081e-06 2.59124e-06 0 3.53861e-06 2.65704e-06 0 4.47301e-06 2.74175e-06 0 5.44082e-06 2.84532e-06 0 6.44891e-06 2.96751e-06 0 7.50421e-06 3.10778e-06 0 8.61361e-06 3.26505e-06 0 9.78387e-06 3.43742e-06 0 1.10214e-05 3.62173e-06 0 1.23321e-05 3.81289e-06 0 1.37209e-05 4.00285e-06 0 1.51909e-05 4.17915e-06 0 1.67429e-05 4.32255e-06 0 1.83739e-05 4.40359e-06 0 2.00753e-05 4.37697e-06 0 2.18299e-05 4.173e-06 0 2.36096e-05 3.68379e-06 0 2.53662e-05 2.74097e-06 0 2.70314e-05 1.08025e-06 0 2.84869e-05 -1.7199e-06 0 2.95767e-05 -6.33418e-06 0 2.99848e-05 -1.38635e-05 0 2.92616e-05 -2.61178e-05 0 2.61717e-05 -4.60737e-05 0 1.82324e-05 -7.86885e-05 0 -2.69517e-06 -0.000130973 0 -5.68491e-05 -0.000208841 0 -0.000187641 -0.000283781 0 -0.000385441 -0.000252728 0 0 2.21679e-06 0 8.74025e-07 2.22506e-06 0 1.75465e-06 2.24989e-06 0 2.64849e-06 2.29131e-06 0 3.56222e-06 2.34937e-06 0 4.50254e-06 2.42409e-06 0 5.47623e-06 2.51539e-06 0 6.49008e-06 2.62303e-06 0 7.55088e-06 2.74647e-06 0 8.66532e-06 2.88467e-06 0 9.83982e-06 3.03583e-06 0 1.10803e-05 3.19696e-06 0 1.23919e-05 3.36328e-06 0 1.37783e-05 3.52725e-06 0 1.5241e-05 3.6772e-06 0 1.67781e-05 3.7951e-06 0 1.83825e-05 3.85331e-06 0 2.00391e-05 3.80925e-06 0 2.17214e-05 3.59731e-06 0 2.33848e-05 3.11551e-06 0 2.49584e-05 2.20464e-06 0 2.63309e-05 6.13428e-07 0 2.73266e-05 -2.05748e-06 0 2.76713e-05 -6.44903e-06 0 2.69009e-05 -1.3594e-05 0 2.42339e-05 -2.51633e-05 0 1.80778e-05 -4.37961e-05 0 5.17913e-06 -7.35044e-05 0 -2.24834e-05 -0.000118922 0 -8.19231e-05 -0.000180258 0 -0.000198675 -0.000229701 0 -0.000351297 -0.000199422 0 0 1.92494e-06 0 8.79173e-07 1.93211e-06 0 1.76495e-06 1.95363e-06 0 2.66397e-06 1.98954e-06 0 3.58287e-06 2.03986e-06 0 4.52836e-06 2.10459e-06 0 5.50717e-06 2.18365e-06 0 6.52603e-06 2.2768e-06 0 7.59159e-06 2.38351e-06 0 8.71035e-06 2.50284e-06 0 9.88842e-06 2.63311e-06 0 1.11313e-05 2.77159e-06 0 1.24434e-05 2.91389e-06 0 1.38273e-05 3.05315e-06 0 1.52829e-05 3.17871e-06 0 1.68058e-05 3.27413e-06 0 1.83851e-05 3.31415e-06 0 2e-05 3.25983e-06 0 2.16145e-05 3.051e-06 0 2.31698e-05 2.59402e-06 0 2.45718e-05 1.74234e-06 0 2.56721e-05 2.64307e-07 0 2.62354e-05 -2.20806e-06 0 2.58891e-05 -6.26386e-06 0 2.40163e-05 -1.28435e-05 0 1.95851e-05 -2.34371e-05 0 1.0679e-05 -4.03022e-05 0 -6.31428e-06 -6.6545e-05 0 -3.89098e-05 -0.000104876 0 -0.000100274 -0.000152357 0 -0.000204135 -0.000184962 0 -0.000328418 -0.000159999 0 0 1.63149e-06 0 8.83587e-07 1.63756e-06 0 1.77379e-06 1.65578e-06 0 2.67723e-06 1.68616e-06 0 3.60057e-06 1.72874e-06 0 4.55049e-06 1.78349e-06 0 5.53367e-06 1.85033e-06 0 6.55679e-06 1.92904e-06 0 7.62638e-06 2.01915e-06 0 8.74877e-06 2.11978e-06 0 9.92982e-06 2.22946e-06 0 1.11746e-05 2.34576e-06 0 1.24868e-05 2.4648e-06 0 1.38682e-05 2.58051e-06 0 1.53172e-05 2.68348e-06 0 1.68271e-05 2.75918e-06 0 1.83837e-05 2.78525e-06 0 1.99607e-05 2.72723e-06 0 2.15139e-05 2.53172e-06 0 2.29713e-05 2.11553e-06 0 2.4218e-05 1.34823e-06 0 2.50714e-05 2.34878e-08 0 2.52432e-05 -2.18629e-06 0 2.42716e-05 -5.80368e-06 0 2.14094e-05 -1.16553e-05 0 1.54134e-05 -2.10232e-05 0 4.14902e-06 -3.57694e-05 0 -1.61574e-05 -5.81951e-05 0 -5.21561e-05 -8.96257e-05 0 -0.000113628 -0.000125737 0 -0.000206533 -0.000147304 0 -0.000309692 -0.000125687 0 0 1.3367e-06 0 8.87266e-07 1.34166e-06 0 1.78115e-06 1.35657e-06 0 2.68829e-06 1.38143e-06 0 3.61532e-06 1.41626e-06 0 4.56891e-06 1.46105e-06 0 5.55573e-06 1.5157e-06 0 6.58238e-06 1.58002e-06 0 7.6553e-06 1.65361e-06 0 8.78068e-06 1.73571e-06 0 9.96412e-06 1.82506e-06 0 1.12103e-05 1.91961e-06 0 1.25226e-05 2.01605e-06 0 1.39016e-05 2.10924e-06 0 1.53446e-05 2.1912e-06 0 1.68431e-05 2.24961e-06 0 1.83797e-05 2.26551e-06 0 1.99237e-05 2.2096e-06 0 2.14235e-05 2.03648e-06 0 2.27956e-05 1.67531e-06 0 2.39066e-05 1.01482e-06 0 2.4545e-05 -1.20915e-07 0 2.43747e-05 -2.01126e-06 0 2.28603e-05 -5.09981e-06 0 1.91399e-05 -1.00827e-05 0 1.1815e-05 -1.80174e-05 0 -1.41336e-06 -3.03778e-05 0 -2.42842e-05 -4.87976e-05 0 -6.25861e-05 -7.36967e-05 0 -0.000123172 -0.000100575 0 -0.000207341 -0.000114686 0 -0.000296531 -9.75929e-05 0 0 1.0408e-06 0 8.9021e-07 1.04466e-06 0 1.78704e-06 1.05626e-06 0 2.69713e-06 1.0756e-06 0 3.62711e-06 1.10268e-06 0 4.58365e-06 1.13751e-06 0 5.57336e-06 1.17999e-06 0 6.60282e-06 1.22997e-06 0 7.67839e-06 1.28711e-06 0 8.80612e-06 1.35082e-06 0 9.99143e-06 1.42007e-06 0 1.12387e-05 1.49322e-06 0 1.25508e-05 1.56763e-06 0 1.39278e-05 1.63917e-06 0 1.53659e-05 1.70147e-06 0 1.68548e-05 1.74466e-06 0 1.83748e-05 1.75358e-06 0 1.98913e-05 1.70474e-06 0 2.13467e-05 1.56173e-06 0 2.2648e-05 1.26767e-06 0 2.36466e-05 7.33179e-07 0 2.41064e-05 -1.83154e-07 0 2.36526e-05 -1.70562e-06 0 2.16885e-05 -4.18924e-06 0 1.72627e-05 -8.18662e-06 0 8.85633e-06 -1.45227e-05 0 -5.92356e-06 -2.43045e-05 0 -3.07214e-05 -3.86345e-05 0 -7.04886e-05 -5.74385e-05 0 -0.000129892 -7.67386e-05 0 -0.00020735 -8.58206e-05 0 -0.000286159 -7.25014e-05 0 9.29715e-22 7.4404e-07 0 8.92419e-07 7.468e-07 0 1.79146e-06 7.55084e-07 0 2.70376e-06 7.68898e-07 0 3.63596e-06 7.88246e-07 0 4.59469e-06 8.13112e-07 0 5.58658e-06 8.43444e-07 0 6.61814e-06 8.79117e-07 0 7.69568e-06 9.19886e-07 0 8.82516e-06 9.65309e-07 0 1.00118e-05 1.01464e-06 0 1.12599e-05 1.06668e-06 0 1.25718e-05 1.1195e-06 0 1.39472e-05 1.17009e-06 0 1.53813e-05 1.2138e-06 0 1.68628e-05 1.24344e-06 0 1.837e-05 1.24793e-06 0 1.98653e-05 1.21013e-06 0 2.12866e-05 1.10343e-06 0 2.25333e-05 8.8623e-07 0 2.3445e-05 4.93121e-07 0 2.37671e-05 -1.79354e-07 0 2.30945e-05 -1.29523e-06 0 2.07847e-05 -3.11329e-06 0 1.58182e-05 -6.03397e-06 0 6.59408e-06 -1.06463e-05 0 -9.33877e-06 -1.77164e-05 0 -3.54937e-05 -2.79377e-05 0 -7.61628e-05 -4.10473e-05 0 -0.000134417 -5.40053e-05 0 -0.000207056 -5.95646e-05 0 -0.000279152 -5.02494e-05 0 4.7458e-21 4.46669e-07 0 8.93891e-07 4.48326e-07 0 1.79441e-06 4.53296e-07 0 2.70818e-06 4.61585e-07 0 3.64185e-06 4.73193e-07 0 4.60206e-06 4.8811e-07 0 5.59539e-06 5.06304e-07 0 6.62834e-06 5.27697e-07 0 7.70719e-06 5.52139e-07 0 8.83782e-06 5.7936e-07 0 1.00254e-05 6.08907e-07 0 1.1274e-05 6.40044e-07 0 1.25857e-05 6.71601e-07 0 1.396e-05 7.0175e-07 0 1.53914e-05 7.27658e-07 0 1.68678e-05 7.44951e-07 0 1.83663e-05 7.46886e-07 0 1.98472e-05 7.23027e-07 0 2.12452e-05 6.57162e-07 0 2.24548e-05 5.23945e-07 0 2.33075e-05 2.83497e-07 0 2.35358e-05 -1.27258e-07 0 2.27147e-05 -8.08251e-07 0 2.01701e-05 -1.91685e-06 0 1.48384e-05 -3.69541e-06 0 5.06502e-06 -6.49694e-06 0 -1.16271e-05 -1.07702e-05 0 -3.86482e-05 -1.68924e-05 0 -7.98175e-05 -2.46249e-05 0 -0.000137214 -3.20759e-05 0 -0.00020673 -3.50737e-05 0 -0.000274469 -2.94824e-05 0 2.81897e-22 1.48931e-07 0 8.94627e-07 1.49483e-07 0 1.79588e-06 1.5114e-07 0 2.71039e-06 1.53903e-07 0 3.6448e-06 1.57772e-07 0 4.60574e-06 1.62744e-07 0 5.59979e-06 1.68808e-07 0 6.63344e-06 1.75937e-07 0 7.71294e-06 1.84081e-07 0 8.84415e-06 1.93149e-07 0 1.00322e-05 2.02989e-07 0 1.1281e-05 2.13354e-07 0 1.25927e-05 2.2385e-07 0 1.39663e-05 2.33865e-07 0 1.53964e-05 2.42448e-07 0 1.68703e-05 2.4813e-07 0 1.83643e-05 2.48647e-07 0 1.98379e-05 2.40497e-07 0 2.12241e-05 2.18232e-07 0 2.24149e-05 1.73341e-07 0 2.32378e-05 9.24209e-08 0 2.34187e-05 -4.57156e-08 0 2.25224e-05 -2.74639e-07 0 1.98592e-05 -6.47141e-07 0 1.43432e-05 -1.24436e-06 0 4.29474e-06 -2.18383e-06 0 -1.27749e-05 -3.61325e-06 0 -4.02152e-05 -5.65177e-06 0 -8.16085e-05 -8.20648e-06 0 -0.000138544 -1.06376e-05 0 -0.000206533 -1.15807e-05 0 -0.00027226 -9.74598e-06 0 0 -1.48931e-07 0 8.94627e-07 -1.49483e-07 0 1.79588e-06 -1.5114e-07 0 2.71039e-06 -1.53903e-07 0 3.6448e-06 -1.57772e-07 0 4.60574e-06 -1.62744e-07 0 5.59979e-06 -1.68808e-07 0 6.63344e-06 -1.75937e-07 0 7.71294e-06 -1.84081e-07 0 8.84415e-06 -1.93149e-07 0 1.00322e-05 -2.02989e-07 0 1.1281e-05 -2.13354e-07 0 1.25927e-05 -2.2385e-07 0 1.39663e-05 -2.33865e-07 0 1.53964e-05 -2.42448e-07 0 1.68703e-05 -2.4813e-07 0 1.83643e-05 -2.48647e-07 0 1.98379e-05 -2.40497e-07 0 2.12241e-05 -2.18232e-07 0 2.24149e-05 -1.73341e-07 0 2.32378e-05 -9.24209e-08 0 2.34187e-05 4.57156e-08 0 2.25224e-05 2.74639e-07 0 1.98592e-05 6.47141e-07 0 1.43432e-05 1.24436e-06 0 4.29474e-06 2.18383e-06 0 -1.27749e-05 3.61325e-06 0 -4.02152e-05 5.65177e-06 0 -8.16085e-05 8.20648e-06 0 -0.000138544 1.06376e-05 0 -0.000206533 1.15807e-05 0 -0.00027226 9.74598e-06 0 0 -4.46669e-07 0 8.93891e-07 -4.48326e-07 0 1.79441e-06 -4.53296e-07 0 2.70818e-06 -4.61585e-07 0 3.64185e-06 -4.73193e-07 0 4.60206e-06 -4.8811e-07 0 5.59539e-06 -5.06304e-07 0 6.62834e-06 -5.27697e-07 0 7.70719e-06 -5.52139e-07 0 8.83782e-06 -5.7936e-07 0 1.00254e-05 -6.08907e-07 0 1.1274e-05 -6.40044e-07 0 1.25857e-05 -6.71601e-07 0 1.396e-05 -7.0175e-07 0 1.53914e-05 -7.27658e-07 0 1.68678e-05 -7.44951e-07 0 1.83663e-05 -7.46886e-07 0 1.98472e-05 -7.23027e-07 0 2.12452e-05 -6.57162e-07 0 2.24548e-05 -5.23945e-07 0 2.33075e-05 -2.83497e-07 0 2.35358e-05 1.27258e-07 0 2.27147e-05 8.08251e-07 0 2.01701e-05 1.91685e-06 0 1.48384e-05 3.69541e-06 0 5.06502e-06 6.49694e-06 0 -1.16271e-05 1.07702e-05 0 -3.86482e-05 1.68924e-05 0 -7.98175e-05 2.46249e-05 0 -0.000137214 3.20759e-05 0 -0.00020673 3.50737e-05 0 -0.000274469 2.94824e-05 0 -1.78241e-21 -7.4404e-07 0 8.92419e-07 -7.468e-07 0 1.79146e-06 -7.55084e-07 0 2.70376e-06 -7.68898e-07 0 3.63596e-06 -7.88246e-07 0 4.59469e-06 -8.13112e-07 0 5.58658e-06 -8.43444e-07 0 6.61814e-06 -8.79117e-07 0 7.69568e-06 -9.19886e-07 0 8.82516e-06 -9.65309e-07 0 1.00118e-05 -1.01464e-06 0 1.12599e-05 -1.06668e-06 0 1.25718e-05 -1.1195e-06 0 1.39472e-05 -1.17009e-06 0 1.53813e-05 -1.2138e-06 0 1.68628e-05 -1.24344e-06 0 1.837e-05 -1.24793e-06 0 1.98653e-05 -1.21013e-06 0 2.12866e-05 -1.10343e-06 0 2.25333e-05 -8.8623e-07 0 2.3445e-05 -4.93121e-07 0 2.37671e-05 1.79354e-07 0 2.30945e-05 1.29523e-06 0 2.07847e-05 3.11329e-06 0 1.58182e-05 6.03397e-06 0 6.59408e-06 1.06463e-05 0 -9.33877e-06 1.77164e-05 0 -3.54937e-05 2.79377e-05 0 -7.61628e-05 4.10473e-05 0 -0.000134417 5.40053e-05 0 -0.000207056 5.95646e-05 0 -0.000279152 5.02494e-05 0 -1.09044e-20 -1.0408e-06 0 8.9021e-07 -1.04466e-06 0 1.78704e-06 -1.05626e-06 0 2.69713e-06 -1.0756e-06 0 3.62711e-06 -1.10268e-06 0 4.58365e-06 -1.13751e-06 0 5.57336e-06 -1.17999e-06 0 6.60282e-06 -1.22997e-06 0 7.67839e-06 -1.28711e-06 0 8.80612e-06 -1.35082e-06 0 9.99143e-06 -1.42007e-06 0 1.12387e-05 -1.49322e-06 0 1.25508e-05 -1.56763e-06 0 1.39278e-05 -1.63917e-06 0 1.53659e-05 -1.70147e-06 0 1.68548e-05 -1.74466e-06 0 1.83748e-05 -1.75358e-06 0 1.98913e-05 -1.70474e-06 0 2.13467e-05 -1.56173e-06 0 2.2648e-05 -1.26767e-06 0 2.36466e-05 -7.33179e-07 0 2.41064e-05 1.83154e-07 0 2.36526e-05 1.70562e-06 0 2.16885e-05 4.18924e-06 0 1.72627e-05 8.18662e-06 0 8.85633e-06 1.45227e-05 0 -5.92356e-06 2.43045e-05 0 -3.07214e-05 3.86345e-05 0 -7.04886e-05 5.74385e-05 0 -0.000129892 7.67386e-05 0 -0.00020735 8.58206e-05 0 -0.000286159 7.25014e-05 0 -1.19587e-21 -1.3367e-06 0 8.87266e-07 -1.34166e-06 0 1.78115e-06 -1.35657e-06 0 2.68829e-06 -1.38143e-06 0 3.61532e-06 -1.41626e-06 0 4.56891e-06 -1.46105e-06 0 5.55573e-06 -1.5157e-06 0 6.58238e-06 -1.58002e-06 0 7.6553e-06 -1.65361e-06 0 8.78068e-06 -1.73571e-06 0 9.96412e-06 -1.82506e-06 0 1.12103e-05 -1.91961e-06 0 1.25226e-05 -2.01605e-06 0 1.39016e-05 -2.10924e-06 0 1.53446e-05 -2.1912e-06 0 1.68431e-05 -2.24961e-06 0 1.83797e-05 -2.26551e-06 0 1.99237e-05 -2.2096e-06 0 2.14235e-05 -2.03648e-06 0 2.27956e-05 -1.67531e-06 0 2.39066e-05 -1.01482e-06 0 2.4545e-05 1.20915e-07 0 2.43747e-05 2.01126e-06 0 2.28603e-05 5.09981e-06 0 1.91399e-05 1.00827e-05 0 1.1815e-05 1.80174e-05 0 -1.41336e-06 3.03778e-05 0 -2.42842e-05 4.87976e-05 0 -6.25861e-05 7.36967e-05 0 -0.000123172 0.000100575 0 -0.000207341 0.000114686 0 -0.000296531 9.75929e-05 0 0 -1.63149e-06 0 8.83587e-07 -1.63756e-06 0 1.77379e-06 -1.65578e-06 0 2.67723e-06 -1.68616e-06 0 3.60057e-06 -1.72874e-06 0 4.55049e-06 -1.78349e-06 0 5.53367e-06 -1.85033e-06 0 6.55679e-06 -1.92904e-06 0 7.62638e-06 -2.01915e-06 0 8.74877e-06 -2.11978e-06 0 9.92982e-06 -2.22946e-06 0 1.11746e-05 -2.34576e-06 0 1.24868e-05 -2.4648e-06 0 1.38682e-05 -2.58051e-06 0 1.53172e-05 -2.68348e-06 0 1.68271e-05 -2.75918e-06 0 1.83837e-05 -2.78525e-06 0 1.99607e-05 -2.72723e-06 0 2.15139e-05 -2.53172e-06 0 2.29713e-05 -2.11553e-06 0 2.4218e-05 -1.34823e-06 0 2.50714e-05 -2.34878e-08 0 2.52432e-05 2.18629e-06 0 2.42716e-05 5.80368e-06 0 2.14094e-05 1.16553e-05 0 1.54134e-05 2.10232e-05 0 4.14902e-06 3.57694e-05 0 -1.61574e-05 5.81951e-05 0 -5.21561e-05 8.96257e-05 0 -0.000113628 0.000125737 0 -0.000206533 0.000147304 0 -0.000309692 0.000125687 0 0 -1.92494e-06 0 8.79173e-07 -1.93211e-06 0 1.76495e-06 -1.95363e-06 0 2.66397e-06 -1.98954e-06 0 3.58287e-06 -2.03986e-06 0 4.52836e-06 -2.10459e-06 0 5.50717e-06 -2.18365e-06 0 6.52603e-06 -2.2768e-06 0 7.59159e-06 -2.38351e-06 0 8.71035e-06 -2.50284e-06 0 9.88842e-06 -2.63311e-06 0 1.11313e-05 -2.77159e-06 0 1.24434e-05 -2.91389e-06 0 1.38273e-05 -3.05315e-06 0 1.52829e-05 -3.17871e-06 0 1.68058e-05 -3.27413e-06 0 1.83851e-05 -3.31415e-06 0 2e-05 -3.25983e-06 0 2.16145e-05 -3.051e-06 0 2.31698e-05 -2.59402e-06 0 2.45718e-05 -1.74234e-06 0 2.56721e-05 -2.64307e-07 0 2.62354e-05 2.20806e-06 0 2.58891e-05 6.26386e-06 0 2.40163e-05 1.28435e-05 0 1.95851e-05 2.34371e-05 0 1.0679e-05 4.03022e-05 0 -6.31428e-06 6.6545e-05 0 -3.89098e-05 0.000104876 0 -0.000100274 0.000152357 0 -0.000204135 0.000184962 0 -0.000328418 0.000159999 0 0 -2.21679e-06 0 8.74025e-07 -2.22506e-06 0 1.75465e-06 -2.24989e-06 0 2.64849e-06 -2.29131e-06 0 3.56222e-06 -2.34937e-06 0 4.50254e-06 -2.42409e-06 0 5.47623e-06 -2.51539e-06 0 6.49008e-06 -2.62303e-06 0 7.55088e-06 -2.74647e-06 0 8.66532e-06 -2.88467e-06 0 9.83982e-06 -3.03583e-06 0 1.10803e-05 -3.19696e-06 0 1.23919e-05 -3.36328e-06 0 1.37783e-05 -3.52725e-06 0 1.5241e-05 -3.6772e-06 0 1.67781e-05 -3.7951e-06 0 1.83825e-05 -3.85331e-06 0 2.00391e-05 -3.80925e-06 0 2.17214e-05 -3.59731e-06 0 2.33848e-05 -3.11551e-06 0 2.49584e-05 -2.20464e-06 0 2.63309e-05 -6.13428e-07 0 2.73266e-05 2.05748e-06 0 2.76713e-05 6.44903e-06 0 2.69009e-05 1.3594e-05 0 2.42339e-05 2.51633e-05 0 1.80778e-05 4.37961e-05 0 5.17913e-06 7.35044e-05 0 -2.24834e-05 0.000118922 0 -8.19231e-05 0.000180258 0 -0.000198675 0.000229701 0 -0.000351297 0.000199422 0 0 -2.50681e-06 0 8.68144e-07 -2.51618e-06 0 1.74288e-06 -2.5443e-06 0 2.63081e-06 -2.59124e-06 0 3.53861e-06 -2.65704e-06 0 4.47301e-06 -2.74175e-06 0 5.44082e-06 -2.84532e-06 0 6.44891e-06 -2.96751e-06 0 7.50421e-06 -3.10778e-06 0 8.61361e-06 -3.26505e-06 0 9.78387e-06 -3.43742e-06 0 1.10214e-05 -3.62173e-06 0 1.23321e-05 -3.81289e-06 0 1.37209e-05 -4.00285e-06 0 1.51909e-05 -4.17915e-06 0 1.67429e-05 -4.32255e-06 0 1.83739e-05 -4.40359e-06 0 2.00753e-05 -4.37697e-06 0 2.18299e-05 -4.173e-06 0 2.36096e-05 -3.68379e-06 0 2.53662e-05 -2.74097e-06 0 2.70314e-05 -1.08025e-06 0 2.84869e-05 1.7199e-06 0 2.95767e-05 6.33418e-06 0 2.99848e-05 1.38635e-05 0 2.92616e-05 2.61178e-05 0 2.61717e-05 4.60737e-05 0 1.82324e-05 7.86885e-05 0 -2.69517e-06 0.000130973 0 -5.68491e-05 0.000208841 0 -0.000187641 0.000283781 0 -0.000385441 0.000252728 0 0 -2.79474e-06 0 8.61532e-07 -2.80521e-06 0 1.72964e-06 -2.83662e-06 0 2.61092e-06 -2.88906e-06 0 3.51205e-06 -2.9626e-06 0 4.43977e-06 -3.05732e-06 0 5.40093e-06 -3.17318e-06 0 6.4025e-06 -3.30998e-06 0 7.45153e-06 -3.46719e-06 0 8.55514e-06 -3.64373e-06 0 9.72043e-06 -3.83766e-06 0 1.09544e-05 -4.04571e-06 0 1.22637e-05 -4.26258e-06 0 1.36544e-05 -4.4799e-06 0 1.51315e-05 -4.68463e-06 0 1.66988e-05 -4.8568e-06 0 1.83574e-05 -4.96554e-06 0 2.01054e-05 -4.96409e-06 0 2.19357e-05 -4.77963e-06 0 2.38365e-05 -4.30172e-06 0 2.57844e-05 -3.35514e-06 0 2.77534e-05 -1.67166e-06 0 2.96895e-05 1.18578e-06 0 3.15502e-05 5.90113e-06 0 3.32012e-05 1.36218e-05 0 3.45125e-05 2.62313e-05 0 3.48149e-05 4.69819e-05 0 3.24923e-05 8.16672e-05 0 2.07122e-05 0.000140029 0 -2.34716e-05 0.000236446 0 -0.000166053 0.000351021 0 -0.000430221 0.000316652 0 0 -3.08035e-06 0 8.54189e-07 -3.09191e-06 0 1.71493e-06 -3.12661e-06 0 2.58883e-06 -3.18454e-06 0 3.48253e-06 -3.26582e-06 0 4.40281e-06 -3.37053e-06 0 5.35656e-06 -3.4987e-06 0 6.35082e-06 -3.65017e-06 0 7.39279e-06 -3.82445e-06 0 8.48982e-06 -4.02047e-06 0 9.64937e-06 -4.23632e-06 0 1.0879e-05 -4.46868e-06 0 1.21861e-05 -4.71217e-06 0 1.35782e-05 -4.95827e-06 0 1.50622e-05 -5.19363e-06 0 1.66446e-05 -5.3979e-06 0 1.83309e-05 -5.53951e-06 0 2.01264e-05 -5.57108e-06 0 2.20333e-05 -5.41835e-06 0 2.40582e-05 -4.97053e-06 0 2.62e-05 -4.04994e-06 0 2.84788e-05 -2.39034e-06 0 3.09008e-05 4.48765e-07 0 3.35432e-05 5.14253e-06 0 3.64607e-05 1.28499e-05 0 3.98446e-05 2.54603e-05 0 4.37587e-05 4.64018e-05 0 4.75583e-05 8.20178e-05 0 4.74546e-05 0.000144901 0 2.00995e-05 0.000259826 0 -0.000125091 0.000435265 0 -0.000506697 0.000420108 0 0 -3.36339e-06 0 8.46119e-07 -3.37604e-06 0 1.69877e-06 -3.41402e-06 0 2.56453e-06 -3.47743e-06 0 3.45006e-06 -3.56642e-06 0 4.36213e-06 -3.68113e-06 0 5.30768e-06 -3.82163e-06 0 6.29383e-06 -3.98783e-06 0 7.32793e-06 -4.17927e-06 0 8.41755e-06 -4.395e-06 0 9.57052e-06 -4.63311e-06 0 1.07949e-05 -4.8904e-06 0 1.20992e-05 -5.16141e-06 0 1.34918e-05 -5.43779e-06 0 1.4982e-05 -5.70592e-06 0 1.65787e-05 -5.94588e-06 0 1.82927e-05 -6.12534e-06 0 2.01339e-05 -6.1983e-06 0 2.212e-05 -6.08906e-06 0 2.42626e-05 -5.69105e-06 0 2.6609e-05 -4.82519e-06 0 2.91716e-05 -3.23732e-06 0 3.21216e-05 -4.90484e-07 0 3.54418e-05 4.05731e-06 0 3.97911e-05 1.15484e-05 0 4.48831e-05 2.37818e-05 0 5.31131e-05 4.42876e-05 0 6.216e-05 7.93401e-05 0 7.79228e-05 0.000144477 0 7.29826e-05 0.000273183 0 -4.69593e-05 0.000539095 0 -0.000630801 0.000586691 0 0 -3.64363e-06 0 8.37323e-07 -3.65736e-06 0 1.68115e-06 -3.6986e-06 0 2.53805e-06 -3.76748e-06 0 3.41465e-06 -3.86417e-06 0 4.31774e-06 -3.98887e-06 0 5.2543e-06 -4.14171e-06 0 6.23152e-06 -4.32266e-06 0 7.2569e-06 -4.5314e-06 0 8.33824e-06 -4.76702e-06 0 9.48374e-06 -5.02778e-06 0 1.0702e-05 -5.3105e-06 0 1.20024e-05 -5.6101e-06 0 1.33946e-05 -5.91798e-06 0 1.48899e-05 -6.22157e-06 0 1.64996e-05 -6.49979e-06 0 1.82405e-05 -6.72384e-06 0 2.01252e-05 -6.84343e-06 0 2.21899e-05 -6.7946e-06 0 2.44438e-05 -6.45686e-06 0 2.69957e-05 -5.68866e-06 0 2.98206e-05 -4.1953e-06 0 3.33029e-05 -1.64901e-06 0 3.72325e-05 2.68579e-06 0 4.30226e-05 9.6923e-06 0 4.96373e-05 2.12524e-05 0 6.2203e-05 4.06292e-05 0 7.63439e-05 7.3356e-05 0 0.000109083 0.000138125 0 0.000136488 0.00026765 0 9.24733e-05 0.000654595 0 -0.000886903 0.000980466 0 0 -3.92081e-06 0 8.27804e-07 -3.93562e-06 0 1.66208e-06 -3.98011e-06 0 2.50937e-06 -4.05443e-06 0 3.37629e-06 -4.1588e-06 0 4.26963e-06 -4.29347e-06 0 5.1964e-06 -4.45866e-06 0 6.16387e-06 -4.65441e-06 0 7.17966e-06 -4.88053e-06 0 8.2518e-06 -5.13622e-06 0 9.38888e-06 -5.41999e-06 0 1.06e-05 -5.72869e-06 0 1.18955e-05 -6.05783e-06 0 1.32858e-05 -6.39854e-06 0 1.47854e-05 -6.73996e-06 0 1.64058e-05 -7.05952e-06 0 1.81727e-05 -7.33375e-06 0 2.00965e-05 -7.50684e-06 0 2.22381e-05 -7.53165e-06 0 2.4596e-05 -7.26984e-06 0 2.7341e-05 -6.63053e-06 0 3.04288e-05 -5.26953e-06 0 3.43592e-05 -2.99998e-06 0 3.90022e-05 1.02315e-06 0 4.57578e-05 7.33419e-06 0 5.4641e-05 1.79364e-05 0 6.92226e-05 3.53664e-05 0 9.24125e-05 6.46495e-05 0 0.000132637 0.000123673 0 0.000215068 0.000241844 0 0.000318624 0.000705008 0 -0.00144592 0.00211783 0 0 -4.1947e-06 0 8.17565e-07 -4.21058e-06 0 1.64157e-06 -4.25831e-06 0 2.47851e-06 -4.33805e-06 0 3.335e-06 -4.45007e-06 0 4.2178e-06 -4.59469e-06 0 5.13399e-06 -4.7722e-06 0 6.09085e-06 -4.98279e-06 0 7.09615e-06 -5.22634e-06 0 8.15821e-06 -5.50235e-06 0 9.28563e-06 -5.80928e-06 0 1.04891e-05 -6.14483e-06 0 1.17769e-05 -6.50372e-06 0 1.31677e-05 -6.87994e-06 0 1.46615e-05 -7.25878e-06 0 1.63083e-05 -7.6277e-06 0 1.80612e-05 -7.94798e-06 0 2.00977e-05 -8.19868e-06 0 2.21538e-05 -8.2778e-06 0 2.49221e-05 -8.1631e-06 0 2.72235e-05 -7.58429e-06 0 3.17714e-05 -6.55272e-06 0 3.37513e-05 -4.37233e-06 0 4.3558e-05 -1.12374e-06 0 4.25995e-05 4.7694e-06 0 6.95574e-05 1.38065e-05 0 5.60096e-05 2.81288e-05 0 0.000141618 5.61653e-05 0 9.01746e-05 9.25776e-05 0 0.000387072 0.000225241 0 0.000531833 0.000444353 0 -0.00157974 0.00527 0 0 -4.46505e-06 0 8.06624e-07 -4.48201e-06 0 1.61961e-06 -4.53295e-06 0 2.4455e-06 -4.61808e-06 0 3.29075e-06 -4.73773e-06 0 4.16232e-06 -4.89223e-06 0 5.067e-06 -5.0821e-06 0 6.01248e-06 -5.30743e-06 0 7.00642e-06 -5.5687e-06 0 8.05697e-06 -5.86473e-06 0 9.1752e-06 -6.19598e-06 0 1.03654e-05 -6.55718e-06 0 1.16551e-05 -6.94989e-06 0 1.30191e-05 -7.35673e-06 0 1.45627e-05 -7.78655e-06 0 1.61084e-05 -8.18644e-06 0 1.81103e-05 -8.59661e-06 0 1.96979e-05 -8.86081e-06 0 2.28085e-05 -9.1309e-06 0 2.36461e-05 -8.95807e-06 0 3.01676e-05 -8.83909e-06 0 2.6849e-05 -7.55256e-06 0 4.51195e-05 -6.48781e-06 0 2.43863e-05 -2.69096e-06 0 8.42876e-05 9.03268e-07 0 -2.27479e-06 9.4729e-06 0 0.000203842 2.1829e-05 0 -0.000113694 3.56123e-05 0 0.000590734 8.95209e-05 0 -0.000379888 7.54608e-05 0 0.00133915 0.000566395 0 0.0265651 -0.00287766 0 </DataArray> 
</PointData> 
<Points> 
<DataArray type="Float32" NumberOfComponents="3"> 