<?xml version="1.0"?> 
<VTKFile type="StructuredGrid" version="0.1"> 
<StructuredGrid WholeExtent="0 31 0 31 0 0"> 
<Piece Extent="0 31 0 31 0 0"> 
<PointData>
<DataArray type="Float32" Name="B" format="ascii" NumberOfComponents="3"> 
0.000667361 0.00215071 0 0.000410906 -4.50665e-05 0 0.000266392 9.4236e-05 0 0.00010885 4.86198e-05 0 0.00012409 5.27396e-05 0 7.55404e-05 4.48031e-05 0 7.65854e-05 4.04087e-05 0 5.85151e-05 3.66602e-05 0 5.49076e-05 3.23435e-05 0 4.64088e-05 2.93337e-05 0 4.22643e-05 2.59902e-05 0 3.71712e-05 2.34496e-05 0 3.35291e-05 2.09265e-05 0 2.99127e-05 1.88632e-05 0 2.68939e-05 1.69491e-05 0 2.40861e-05 1.53213e-05 0 2.16005e-05 1.38604e-05 0 1.93225e-05 1.25965e-05 0 1.72569e-05 1.148e-05 0 1.53606e-05 1.05091e-05 0 1.36185e-05 9.65952e-06 0 1.20074e-05 8.9227e-06 0 1.05111e-05 8.28467e-06 0 9.11362e-06 7.73701e-06 0 7.80081e-06 7.27081e-06 0 6.55975e-06 6.87954e-06 0 5.3785e-06 6.55735e-06 0 4.24596e-06 6.29972e-06 0 3.15164e-06 6.10295e-06 0 2.08558e-06 5.96433e-06 0 1.03816e-06 5.8819e-06 0 0 5.85456e-06 0 -5.80874e-05 0.000518444 0 0.000197199 0.000283054 0 0.000155238 0.000146594 0 0.000122047 9.79534e-05 0 9.30734e-05 7.43806e-05 0 7.79473e-05 6.09514e-05 0 6.48e-05 5.17099e-05 0 5.63859e-05 4.48013e-05 0 4.90284e-05 3.92595e-05 0 4.34754e-05 3.4662e-05 0 3.85961e-05 3.07575e-05 0 3.45364e-05 2.74033e-05 0 3.09334e-05 2.4497e-05 0 2.77832e-05 2.19697e-05 0 2.49562e-05 1.97639e-05 0 2.24227e-05 1.78368e-05 0 2.01264e-05 1.61507e-05 0 1.80395e-05 1.46757e-05 0 1.61312e-05 1.33853e-05 0 1.43794e-05 1.22581e-05 0 1.27635e-05 1.12751e-05 0 1.12662e-05 1.04209e-05 0 9.8719e-06 9.68189e-06 0 8.56682e-06 9.04686e-06 0 7.3383e-06 8.50632e-06 0 6.1748e-06 8.05237e-06 0 5.06561e-06 7.67848e-06 0 4.00069e-06 7.37937e-06 0 2.97059e-06 7.15088e-06 0 1.96624e-06 6.98986e-06 0 9.78895e-07 6.89412e-06 0 3.45362e-20 6.86235e-06 0 -2.22983e-05 0.000280416 0 6.1118e-05 0.000230647 0 8.98092e-05 0.000162555 0 8.48234e-05 0.000117732 0 7.47046e-05 9.0171e-05 0 6.43583e-05 7.27295e-05 0 5.61247e-05 6.07442e-05 0 4.91665e-05 5.18915e-05 0 4.3551e-05 4.50358e-05 0 3.87625e-05 3.94747e-05 0 3.4705e-05 3.48758e-05 0 3.11562e-05 3.09788e-05 0 2.80403e-05 2.76524e-05 0 2.52593e-05 2.47787e-05 0 2.27642e-05 2.22888e-05 0 2.0506e-05 2.01194e-05 0 1.84525e-05 1.8227e-05 0 1.65751e-05 1.65728e-05 0 1.48515e-05 1.5127e-05 0 1.32621e-05 1.38638e-05 0 1.17906e-05 1.27622e-05 0 1.04222e-05 1.18044e-05 0 9.14384e-06 1.09753e-05 0 7.9437e-06 1.02625e-05 0 6.811e-06 9.65546e-06 0 5.73572e-06 9.14535e-06 0 4.70856e-06 8.72499e-06 0 3.72073e-06 8.38858e-06 0 2.76386e-06 8.13149e-06 0 1.82995e-06 7.95028e-06 0 9.11202e-07 7.8425e-06 0 3.23624e-20 7.80674e-06 0 -3.08344e-05 0.000192828 0 1.86279e-05 0.000181607 0 4.49961e-05 0.000150692 0 5.3922e-05 0.000119919 0 5.34603e-05 9.65717e-05 0 4.98884e-05 7.94262e-05 0 4.53828e-05 6.67586e-05 0 4.10396e-05 5.71199e-05 0 3.70283e-05 4.95176e-05 0 3.34522e-05 4.33773e-05 0 3.02473e-05 3.82846e-05 0 2.73818e-05 3.40042e-05 0 2.47983e-05 3.03512e-05 0 2.24607e-05 2.72119e-05 0 2.03326e-05 2.44924e-05 0 1.83876e-05 2.21282e-05 0 1.66023e-05 2.00653e-05 0 1.49578e-05 1.82628e-05 0 1.34376e-05 1.66864e-05 0 1.20275e-05 1.53085e-05 0 1.07149e-05 1.41059e-05 0 9.48838e-06 1.30594e-05 0 8.33769e-06 1.21529e-05 0 7.25329e-06 1.13728e-05 0 6.22636e-06 1.07079e-05 0 5.24862e-06 1.01488e-05 0 4.31225e-06 9.68778e-06 0 3.40984e-06 9.31863e-06 0 2.53422e-06 9.03641e-06 0 1.67851e-06 8.83741e-06 0 8.35976e-07 8.71903e-06 0 0 8.67975e-06 0 -2.76902e-05 0.000160408 0 -8.3379e-07 0.00015113 0 1.97393e-05 0.000133984 0 3.08346e-05 0.000114476 0 3.52872e-05 9.65422e-05 0 3.58327e-05 8.17403e-05 0 3.45533e-05 6.98642e-05 0 3.24573e-05 6.03309e-05 0 3.01111e-05 5.26041e-05 0 2.77413e-05 4.62312e-05 0 2.54654e-05 4.09093e-05 0 2.33189e-05 3.64007e-05 0 2.13156e-05 3.25477e-05 0 1.94516e-05 2.92252e-05 0 1.77197e-05 2.63451e-05 0 1.61098e-05 2.38363e-05 0 1.4612e-05 2.16451e-05 0 1.32165e-05 1.97275e-05 0 1.19139e-05 1.80484e-05 0 1.06956e-05 1.65786e-05 0 9.55317e-06 1.52941e-05 0 8.4789e-06 1.4175e-05 0 7.46536e-06 1.32044e-05 0 6.50551e-06 1.23682e-05 0 5.5926e-06 1.16548e-05 0 4.72019e-06 1.10544e-05 0 3.88206e-06 1.05589e-05 0 3.07218e-06 1.01619e-05 0 2.28471e-06 9.85829e-06 0 1.51392e-06 9.64409e-06 0 7.54201e-07 9.51664e-06 0 7.47213e-22 9.47434e-06 0 -2.91874e-05 0.000133884 0 -1.09386e-05 0.000130294 0 4.1734e-06 0.000119891 0 1.4629e-05 0.000106584 0 2.06661e-05 9.32237e-05 0 2.35426e-05 8.10836e-05 0 2.44038e-05 7.06173e-05 0 2.41096e-05 6.17794e-05 0 2.3181e-05 5.43392e-05 0 2.19347e-05 4.80612e-05 0 2.05453e-05 4.27226e-05 0 1.91132e-05 3.81542e-05 0 1.76918e-05 3.42153e-05 0 1.63106e-05 3.08014e-05 0 1.49844e-05 2.78278e-05 0 1.372e-05 2.52292e-05 0 1.25195e-05 2.29524e-05 0 1.13823e-05 2.09549e-05 0 1.03061e-05 1.92017e-05 0 9.2878e-06 1.7664e-05 0 8.32341e-06 1.63176e-05 0 7.40876e-06 1.51425e-05 0 6.53941e-06 1.41217e-05 0 5.71082e-06 1.32412e-05 0 4.9184e-06 1.2489e-05 0 4.15753e-06 1.18553e-05 0 3.42364e-06 1.13319e-05 0 2.71215e-06 1.09121e-05 0 2.01852e-06 1.05909e-05 0 1.33827e-06 1.03642e-05 0 6.66914e-07 1.02293e-05 0 6.12958e-20 1.01845e-05 0 -3.08732e-05 0.000120562 0 -1.78827e-05 0.000115705 0 -6.21214e-06 0.000108178 0 2.8973e-06 9.86771e-05 0 9.22676e-06 8.84949e-05 0 1.31804e-05 7.8677e-05 0 1.53708e-05 6.97294e-05 0 1.63534e-05 6.18176e-05 0 1.65513e-05 5.4927e-05 0 1.62566e-05 4.89525e-05 0 1.56622e-05 4.37766e-05 0 1.48922e-05 3.92803e-05 0 1.40258e-05 3.53634e-05 0 1.31134e-05 3.19394e-05 0 1.21866e-05 2.89383e-05 0 1.12658e-05 2.63016e-05 0 1.03634e-05 2.39818e-05 0 9.48689e-06 2.1939e-05 0 8.64047e-06 2.01405e-05 0 7.82603e-06 1.85586e-05 0 7.04389e-06 1.71703e-05 0 6.2933e-06 1.5956e-05 0 5.57269e-06 1.48993e-05 0 4.87997e-06 1.39862e-05 0 4.21263e-06 1.3205e-05 0 3.56791e-06 1.25461e-05 0 2.94282e-06 1.20013e-05 0 2.33425e-06 1.15641e-05 0 1.73898e-06 1.12292e-05 0 1.15373e-06 1.09927e-05 0 5.75186e-07 1.0852e-05 0 3.32881e-20 1.08052e-05 0 -3.33904e-05 0.00010808 0 -2.33197e-05 0.00010452 0 -1.38718e-05 9.86256e-05 0 -5.93863e-06 9.12988e-05 0 1.82921e-07 8.33312e-05 0 4.57157e-06 7.53449e-05 0 7.51959e-06 6.77704e-05 0 9.36063e-06 6.08287e-05 0 1.03974e-05 5.45912e-05 0 1.08673e-05 4.90499e-05 0 1.09473e-05 4.41515e-05 0 1.07631e-05 3.98311e-05 0 1.04031e-05 3.60203e-05 0 9.92845e-06 3.26571e-05 0 9.38178e-06 2.96858e-05 0 8.79247e-06 2.70588e-05 0 8.18088e-06 2.47351e-05 0 7.56106e-06 2.26798e-05 0 6.94257e-06 2.08633e-05 0 6.33177e-06 1.92604e-05 0 5.73271e-06 1.78495e-05 0 5.14776e-06 1.66125e-05 0 4.57802e-06 1.55335e-05 0 4.02368e-06 1.45995e-05 0 3.48423e-06 1.37992e-05 0 2.95864e-06 1.31231e-05 0 2.44548e-06 1.25634e-05 0 1.94304e-06 1.21138e-05 0 1.4494e-06 1.17692e-05 0 9.62482e-07 1.15258e-05 0 4.80099e-07 1.13808e-05 0 0 1.13326e-05 0 -3.65925e-05 9.94226e-05 0 -2.79826e-05 9.5414e-05 0 -1.99395e-05 9.04554e-05 0 -1.2889e-05 8.45731e-05 0 -7.09949e-06 7.81402e-05 0 -2.58843e-06 7.15647e-05 0 7.66428e-07 6.51575e-05 0 3.16194e-06 5.91191e-05 0 4.79926e-06 5.35553e-05 0 5.85975e-06 4.85006e-05 0 6.4902e-06 4.39496e-05 0 6.80543e-06 3.98727e-05 0 6.89174e-06 3.62313e-05 0 6.81351e-06 3.29839e-05 0 6.61809e-06 3.00904e-05 0 6.34036e-06 2.75137e-05 0 6.00588e-06 2.52208e-05 0 5.63339e-06 2.31825e-05 0 5.23661e-06 2.13732e-05 0 4.8255e-06 1.97706e-05 0 4.40723e-06 1.83555e-05 0 3.98686e-06 1.71111e-05 0 3.56785e-06 1.60232e-05 0 3.15243e-06 1.50795e-05 0 2.74191e-06 1.42693e-05 0 2.33688e-06 1.35838e-05 0 1.93737e-06 1.30157e-05 0 1.543e-06 1.25588e-05 0 1.15309e-06 1.22083e-05 0 7.66689e-07 1.19606e-05 0 3.82724e-07 1.18129e-05 0 0 1.17639e-05 0 -3.97515e-05 9.09514e-05 0 -3.21336e-05 8.75203e-05 0 -2.49536e-05 8.32675e-05 0 -1.85467e-05 7.83824e-05 0 -1.30734e-05 7.30787e-05 0 -8.58485e-06 6.75973e-05 0 -5.02489e-06 6.2158e-05 0 -2.28395e-06 5.69251e-05 0 -2.27195e-07 5.20022e-05 0 1.27631e-06 4.74448e-05 0 2.34385e-06 4.32715e-05 0 3.0729e-06 3.94786e-05 0 3.54224e-06 3.60486e-05 0 3.81366e-06 3.29575e-05 0 3.93522e-06 3.01787e-05 0 3.94389e-06 2.76855e-05 0 3.86805e-06 2.54527e-05 0 3.7294e-06 2.34568e-05 0 3.54451e-06 2.16768e-05 0 3.32604e-06 2.00938e-05 0 3.08358e-06 1.8691e-05 0 2.8244e-06 1.74537e-05 0 2.55392e-06 1.63691e-05 0 2.27616e-06 1.54261e-05 0 1.99402e-06 1.46149e-05 0 1.70953e-06 1.39275e-05 0 1.42407e-06 1.33569e-05 0 1.13849e-06 1.28976e-05 0 8.53225e-07 1.25449e-05 0 5.68447e-07 1.22954e-05 0 2.84099e-07 1.21467e-05 0 0 1.20973e-05 0 -4.29076e-05 8.35863e-05 0 -3.57774e-05 8.03669e-05 0 -2.91874e-05 7.67206e-05 0 -2.32426e-05 7.26221e-05 0 -1.80493e-05 6.81885e-05 0 -1.36408e-05 6.35775e-05 0 -9.99527e-06 5.89428e-05 0 -7.0455e-06 5.4412e-05 0 -4.70356e-06 5.00783e-05 0 -2.87422e-06 4.60008e-05 0 -1.46739e-06 4.22111e-05 0 -4.02629e-07 3.87204e-05 0 3.88291e-07 3.55266e-05 0 9.61847e-07 3.26187e-05 0 1.3638e-06 2.99815e-05 0 1.63084e-06 2.75973e-05 0 1.79219e-06 2.54479e-05 0 1.87098e-06 2.35157e-05 0 1.8855e-06 2.17839e-05 0 1.85017e-06 2.02371e-05 0 1.77636e-06 1.88613e-05 0 1.673e-06 1.76439e-05 0 1.5471e-06 1.65738e-05 0 1.40413e-06 1.5641e-05 0 1.24835e-06 1.4837e-05 0 1.08307e-06 1.41545e-05 0 9.10835e-07 1.35872e-05 0 7.33595e-07 1.31299e-05 0 5.52848e-07 1.27784e-05 0 3.69751e-07 1.25296e-05 0 1.85216e-07 1.23812e-05 0 0 1.23319e-05 0 -4.55917e-05 7.63784e-05 0 -3.89234e-05 7.37256e-05 0 -3.276e-05 7.06445e-05 0 -2.71794e-05 6.72002e-05 0 -2.22278e-05 6.34752e-05 0 -1.7928e-05 5.95768e-05 0 -1.42654e-05 5.56172e-05 0 -1.11989e-05 5.16964e-05 0 -8.6679e-06 4.78935e-05 0 -6.6042e-06 4.42657e-05 0 -4.93855e-06 4.08492e-05 0 -3.60639e-06 3.76641e-05 0 -2.55006e-06 3.47178e-05 0 -1.71989e-06 3.20091e-05 0 -1.07397e-06 2.95313e-05 0 -5.77516e-07 2.72743e-05 0 -2.01913e-07 2.52262e-05 0 7.62012e-08 2.33743e-05 0 2.7583e-07 2.17061e-05 0 4.12392e-07 2.02096e-05 0 4.98378e-07 1.88734e-05 0 5.439e-07 1.76871e-05 0 5.57146e-07 1.66412e-05 0 5.44742e-07 1.57273e-05 0 5.12063e-07 1.49379e-05 0 4.63471e-07 1.42665e-05 0 4.02527e-07 1.37076e-05 0 3.32154e-07 1.32565e-05 0 2.54782e-07 1.29094e-05 0 1.72467e-07 1.26636e-05 0 8.70006e-08 1.25169e-05 0 0 1.24681e-05 0 -4.7851e-05 6.96819e-05 0 -4.15455e-05 6.7488e-05 0 -3.57528e-05 6.49385e-05 0 -3.04796e-05 6.20645e-05 0 -2.575e-05 5.89355e-05 0 -2.15722e-05 5.5635e-05 0 -1.79368e-05 5.22495e-05 0 -1.48151e-05 4.88588e-05 0 -1.21652e-05 4.55303e-05 0 -9.93683e-06 4.23163e-05 0 -8.0775e-06 3.92541e-05 0 -6.53565e-06 3.63676e-05 0 -5.26358e-06 3.36704e-05 0 -4.21856e-06 3.1168e-05 0 -3.36332e-06 2.88601e-05 0 -2.6659e-06 2.67424e-05 0 -2.09926e-06 2.48082e-05 0 -1.64069e-06 2.30493e-05 0 -1.27126e-06 2.14569e-05 0 -9.75211e-07 2.0022e-05 0 -7.39467e-07 1.87359e-05 0 -5.53186e-07 1.75901e-05 0 -4.07369e-07 1.65769e-05 0 -2.94534e-07 1.56893e-05 0 -2.08447e-07 1.49209e-05 0 -1.43882e-07 1.42662e-05 0 -9.64334e-08 1.37203e-05 0 -6.23489e-08 1.32791e-05 0 -3.83863e-08 1.29394e-05 0 -2.16927e-08 1.26985e-05 0 -9.69468e-09 1.25548e-05 0 0 1.2507e-05 0 -4.95705e-05 6.33191e-05 0 -4.36738e-05 6.1628e-05 0 -3.82238e-05 5.9561e-05 0 -3.3235e-05 5.71859e-05 0 -2.87162e-05 5.45679e-05 0 -2.46713e-05 5.17772e-05 0 -2.1092e-05 4.88846e-05 0 -1.79584e-05 4.59563e-05 0 -1.52403e-05 4.30502e-05 0 -1.29008e-05 4.02131e-05 0 -1.08996e-05 3.74813e-05 0 -9.19602e-06 3.48804e-05 0 -7.75098e-06 3.24273e-05 0 -6.52837e-06 3.01318e-05 0 -5.49568e-06 2.79982e-05 0 -4.62424e-06 2.60267e-05 0 -3.88916e-06 2.42147e-05 0 -3.26899e-06 2.25578e-05 0 -2.74542e-06 2.10502e-05 0 -2.30288e-06 1.96858e-05 0 -1.92816e-06 1.8458e-05 0 -1.61006e-06 1.73605e-05 0 -1.33911e-06 1.63871e-05 0 -1.10723e-06 1.55322e-05 0 -9.0757e-07 1.47905e-05 0 -7.34227e-07 1.41572e-05 0 -5.82116e-07 1.36284e-05 0 -4.46795e-07 1.32004e-05 0 -3.24332e-07 1.28706e-05 0 -2.11187e-07 1.26365e-05 0 -1.04101e-07 1.24968e-05 0 -1.03715e-20 1.24503e-05 0 -5.08557e-05 5.7418e-05 0 -4.53496e-05 5.61348e-05 0 -4.02356e-05 5.44928e-05 0 -3.55185e-05 5.25513e-05 0 -3.12068e-05 5.03731e-05 0 -2.73023e-05 4.80205e-05 0 -2.37998e-05 4.55539e-05 0 -2.0685e-05 4.303e-05 0 -1.79363e-05 4.04989e-05 0 -1.55263e-05 3.8003e-05 0 -1.34244e-05 3.55761e-05 0 -1.15984e-05 3.32441e-05 0 -1.00166e-05 3.10256e-05 0 -8.64891e-06 2.8933e-05 0 -7.46741e-06 2.69738e-05 0 -6.44683e-06 2.51513e-05 0 -5.56467e-06 2.34661e-05 0 -4.80115e-06 2.19168e-05 0 -4.13895e-06 2.05003e-05 0 -3.56307e-06 1.92129e-05 0 -3.06051e-06 1.80499e-05 0 -2.62004e-06 1.70068e-05 0 -2.23196e-06 1.6079e-05 0 -1.88789e-06 1.5262e-05 0 -1.58051e-06 1.45516e-05 0 -1.30345e-06 1.39439e-05 0 -1.05109e-06 1.34356e-05 0 -8.18448e-07 1.30238e-05 0 -6.01008e-07 1.2706e-05 0 -3.94654e-07 1.24804e-05 0 -1.95539e-07 1.23456e-05 0 -8.71291e-20 1.23007e-05 0 -5.17473e-05 5.19335e-05 0 -4.66384e-05 5.10048e-05 0 -4.18493e-05 4.97235e-05 0 -3.73962e-05 4.81534e-05 0 -3.32884e-05 4.63526e-05 0 -2.95301e-05 4.4377e-05 0 -2.61186e-05 4.22796e-05 0 -2.30446e-05 4.01096e-05 0 -2.0293e-05 3.79112e-05 0 -1.78437e-05 3.57224e-05 0 -1.56733e-05 3.35747e-05 0 -1.37567e-05 3.14933e-05 0 -1.20685e-05 2.94972e-05 0 -1.05837e-05 2.76003e-05 0 -9.27868e-06 2.5812e-05 0 -8.13143e-06 2.41381e-05 0 -7.12199e-06 2.25814e-05 0 -6.23236e-06 2.11428e-05 0 -5.44651e-06 1.98214e-05 0 -4.75023e-06 1.86154e-05 0 -4.13102e-06 1.75219e-05 0 -3.57784e-06 1.6538e-05 0 -3.08101e-06 1.56602e-05 0 -2.632e-06 1.48853e-05 0 -2.22325e-06 1.421e-05 0 -1.84807e-06 1.36313e-05 0 -1.50045e-06 1.31465e-05 0 -1.17496e-06 1.27532e-05 0 -8.66645e-07 1.24494e-05 0 -5.7091e-07 1.22336e-05 0 -2.83416e-07 1.21045e-05 0 -1.52202e-20 1.20616e-05 0 -5.23423e-05 4.68766e-05 0 -4.76043e-05 4.62244e-05 0 -4.31266e-05 4.52427e-05 0 -3.89275e-05 4.39858e-05 0 -3.50197e-05 4.25065e-05 0 -3.14099e-05 4.08546e-05 0 -2.80987e-05 3.90769e-05 0 -2.50811e-05 3.72166e-05 0 -2.23469e-05 3.53127e-05 0 -1.98818e-05 3.33996e-05 0 -1.76682e-05 3.15062e-05 0 -1.56868e-05 2.96563e-05 0 -1.39173e-05 2.78689e-05 0 -1.23391e-05 2.61584e-05 0 -1.09325e-05 2.45354e-05 0 -9.67858e-06 2.30072e-05 0 -8.55983e-06 2.15784e-05 0 -7.56011e-06 2.02514e-05 0 -6.66477e-06 1.90271e-05 0 -5.8606e-06 1.79052e-05 0 -5.13571e-06 1.68844e-05 0 -4.47948e-06 1.59629e-05 0 -3.88241e-06 1.51385e-05 0 -3.33598e-06 1.4409e-05 0 -2.83255e-06 1.37719e-05 0 -2.36523e-06 1.32249e-05 0 -1.92774e-06 1.2766e-05 0 -1.51435e-06 1.23932e-05 0 -1.11975e-06 1.2105e-05 0 -7.38955e-07 1.19e-05 0 -3.6723e-07 1.17774e-05 0 0 1.17366e-05 0 -5.26998e-05 4.22072e-05 0 -4.83097e-05 4.17747e-05 0 -4.41241e-05 4.10362e-05 0 -4.01664e-05 4.00401e-05 0 -3.64519e-05 3.88326e-05 0 -3.299e-05 3.74576e-05 0 -2.97843e-05 3.59561e-05 0 -2.68334e-05 3.43663e-05 0 -2.41313e-05 3.27227e-05 0 -2.1668e-05 3.10562e-05 0 -1.94309e-05 2.93932e-05 0 -1.74051e-05 2.77561e-05 0 -1.55747e-05 2.6163e-05 0 -1.39231e-05 2.46285e-05 0 -1.24338e-05 2.31637e-05 0 -1.10908e-05 2.17766e-05 0 -9.87888e-06 2.04732e-05 0 -8.78372e-06 1.9257e-05 0 -7.79211e-06 1.81303e-05 0 -6.89188e-06 1.70938e-05 0 -6.07193e-06 1.61475e-05 0 -5.32214e-06 1.52907e-05 0 -4.63331e-06 1.45221e-05 0 -3.99709e-06 1.38403e-05 0 -3.40586e-06 1.32436e-05 0 -2.85264e-06 1.27305e-05 0 -2.33101e-06 1.22993e-05 0 -1.83502e-06 1.19486e-05 0 -1.35909e-06 1.16773e-05 0 -8.97955e-07 1.14841e-05 0 -4.46561e-07 1.13686e-05 0 0 1.13301e-05 0 -5.28839e-05 3.78965e-05 0 -4.88084e-05 3.76307e-05 0 -4.48928e-05 3.70869e-05 0 -4.1161e-05 3.63054e-05 0 -3.76306e-05 3.5326e-05 0 -3.4313e-05 3.41865e-05 0 -3.12145e-05 3.2923e-05 0 -2.83364e-05 3.1569e-05 0 -2.56762e-05 3.0155e-05 0 -2.32277e-05 2.87086e-05 0 -2.0982e-05 2.72537e-05 0 -1.8928e-05 2.58111e-05 0 -1.70534e-05 2.4398e-05 0 -1.53449e-05 2.30284e-05 0 -1.3789e-05 2.17136e-05 0 -1.23721e-05 2.04622e-05 0 -1.10813e-05 1.92805e-05 0 -9.90397e-06 1.81731e-05 0 -8.82824e-06 1.7143e-05 0 -7.84306e-06 1.61921e-05 0 -6.93815e-06 1.53211e-05 0 -6.10397e-06 1.45301e-05 0 -5.33173e-06 1.38188e-05 0 -4.61333e-06 1.31864e-05 0 -3.94125e-06 1.26319e-05 0 -3.30853e-06 1.21542e-05 0 -2.7087e-06 1.17522e-05 0 -2.13566e-06 1.14249e-05 0 -1.58367e-06 1.11713e-05 0 -1.04724e-06 1.09908e-05 0 -5.21071e-07 1.08827e-05 0 -1.73228e-20 1.08467e-05 0 -5.2938e-05 3.39051e-05 0 -4.91462e-05 3.37652e-05 0 -4.54763e-05 3.33751e-05 0 -4.19533e-05 3.27685e-05 0 -3.85956e-05 3.19789e-05 0 -3.54162e-05 3.10391e-05 0 -3.24234e-05 2.99801e-05 0 -2.96209e-05 2.88311e-05 0 -2.7009e-05 2.76192e-05 0 -2.45843e-05 2.63688e-05 0 -2.2341e-05 2.51015e-05 0 -2.02714e-05 2.38362e-05 0 -1.83659e-05 2.25889e-05 0 -1.66141e-05 2.13732e-05 0 -1.50051e-05 2.01998e-05 0 -1.35276e-05 1.90776e-05 0 -1.21704e-05 1.80132e-05 0 -1.09227e-05 1.70116e-05 0 -9.77395e-06 1.60765e-05 0 -8.71411e-06 1.52103e-05 0 -7.73375e-06 1.44145e-05 0 -6.82397e-06 1.36899e-05 0 -5.97643e-06 1.30367e-05 0 -5.18333e-06 1.24546e-05 0 -4.43735e-06 1.19433e-05 0 -3.73162e-06 1.15021e-05 0 -3.05965e-06 1.11304e-05 0 -2.41531e-06 1.08274e-05 0 -1.79274e-06 1.05924e-05 0 -1.18629e-06 1.0425e-05 0 -5.90492e-07 1.03247e-05 0 -7.18816e-20 1.02913e-05 0 -5.2901e-05 3.01982e-05 0 -4.93607e-05 3.01502e-05 0 -4.59121e-05 2.98798e-05 0 -4.25793e-05 2.94143e-05 0 -3.93813e-05 2.87819e-05 0 -3.63321e-05 2.80105e-05 0 -3.34413e-05 2.71266e-05 0 -3.07145e-05 2.61558e-05 0 -2.8154e-05 2.51215e-05 0 -2.5759e-05 2.40453e-05 0 -2.35263e-05 2.29467e-05 0 -2.14504e-05 2.18427e-05 0 -1.95245e-05 2.0748e-05 0 -1.77405e-05 1.96751e-05 0 -1.60897e-05 1.86346e-05 0 -1.45627e-05 1.76349e-05 0 -1.31502e-05 1.66828e-05 0 -1.18426e-05 1.57835e-05 0 -1.06308e-05 1.49409e-05 0 -9.50578e-06 1.4158e-05 0 -8.45886e-06 1.34367e-05 0 -7.48181e-06 1.27782e-05 0 -6.56677e-06 1.21832e-05 0 -5.70628e-06 1.16521e-05 0 -4.89327e-06 1.11846e-05 0 -4.12099e-06 1.07807e-05 0 -3.38303e-06 1.04399e-05 0 -2.67324e-06 1.01618e-05 0 -1.9857e-06 9.94599e-06 0 -1.31469e-06 9.79214e-06 0 -6.54622e-07 9.69995e-06 0 -5.76704e-21 9.66924e-06 0 -5.28011e-05 2.6741e-05 0 -4.94826e-05 2.67583e-05 0 -4.62311e-05 2.65795e-05 0 -4.30698e-05 2.62269e-05 0 -4.00176e-05 2.57239e-05 0 -3.70889e-05 2.5094e-05 0 -3.42945e-05 2.436e-05 0 -3.16412e-05 2.35435e-05 0 -2.91331e-05 2.26653e-05 0 -2.67713e-05 2.1744e-05 0 -2.45544e-05 2.0797e-05 0 -2.24793e-05 1.98394e-05 0 -2.05411e-05 1.88847e-05 0 -1.87337e-05 1.79445e-05 0 -1.70504e-05 1.70283e-05 0 -1.54834e-05 1.61444e-05 0 -1.40249e-05 1.52994e-05 0 -1.26668e-05 1.44984e-05 0 -1.1401e-05 1.37456e-05 0 -1.02194e-05 1.3044e-05 0 -9.11418e-06 1.23959e-05 0 -8.07771e-06 1.18029e-05 0 -7.10262e-06 1.1266e-05 0 -6.18183e-06 1.07857e-05 0 -5.3085e-06 1.03624e-05 0 -4.47609e-06 9.99609e-06 0 -3.67827e-06 9.68665e-06 0 -2.90893e-06 9.43391e-06 0 -2.16216e-06 9.23764e-06 0 -1.43217e-06 9.09762e-06 0 -7.13314e-07 9.01369e-06 0 0 8.98573e-06 0 -5.26616e-05 2.35019e-05 0 -4.95368e-05 2.35631e-05 0 -4.6459e-05 2.3453e-05 0 -4.34505e-05 2.31898e-05 0 -4.05296e-05 2.27928e-05 0 -3.7711e-05 2.22816e-05 0 -3.50059e-05 2.16754e-05 0 -3.24224e-05 2.09929e-05 0 -2.99656e-05 2.02517e-05 0 -2.76382e-05 1.94682e-05 0 -2.54405e-05 1.86575e-05 0 -2.3371e-05 1.7833e-05 0 -2.14266e-05 1.70068e-05 0 -1.96029e-05 1.61893e-05 0 -1.78946e-05 1.53895e-05 0 -1.62956e-05 1.46149e-05 0 -1.47993e-05 1.38716e-05 0 -1.33988e-05 1.31649e-05 0 -1.2087e-05 1.24988e-05 0 -1.08567e-05 1.18764e-05 0 -9.70078e-06 1.13e-05 0 -8.61226e-06 1.07715e-05 0 -7.58423e-06 1.0292e-05 0 -6.60994e-06 9.8624e-06 0 -5.68287e-06 9.48318e-06 0 -4.79664e-06 9.15459e-06 0 -3.94506e-06 8.87672e-06 0 -3.1221e-06 8.64956e-06 0 -2.32185e-06 8.47303e-06 0 -1.53854e-06 8.34704e-06 0 -7.66467e-07 8.27148e-06 0 0 8.2463e-06 0 -5.25004e-05 2.04516e-05 0 -4.95432e-05 2.05397e-05 0 -4.66171e-05 2.04797e-05 0 -4.3743e-05 2.02865e-05 0 -4.09387e-05 1.99758e-05 0 -3.8219e-05 1.9564e-05 0 -3.55953e-05 1.9067e-05 0 -3.30763e-05 1.85008e-05 0 -3.06683e-05 1.78802e-05 0 -2.83751e-05 1.72194e-05 0 -2.61981e-05 1.65314e-05 0 -2.41374e-05 1.58281e-05 0 -2.21912e-05 1.512e-05 0 -2.03566e-05 1.44164e-05 0 -1.86295e-05 1.37253e-05 0 -1.7005e-05 1.30537e-05 0 -1.54779e-05 1.24072e-05 0 -1.40421e-05 1.17908e-05 0 -1.26914e-05 1.12082e-05 0 -1.14196e-05 1.06625e-05 0 -1.022e-05 1.01562e-05 0 -9.08637e-06 9.6909e-06 0 -8.0121e-06 9.26809e-06 0 -6.99088e-06 8.88867e-06 0 -6.01642e-06 8.5533e-06 0 -5.08257e-06 8.26236e-06 0 -4.18326e-06 8.01608e-06 0 -3.31256e-06 7.81459e-06 0 -2.46462e-06 7.6579e-06 0 -1.63368e-06 7.54601e-06 0 -8.14021e-07 7.47889e-06 0 0 7.45652e-06 0 -5.23319e-05 1.75633e-05 0 -4.9518e-05 1.76647e-05 0 -4.67225e-05 1.76399e-05 0 -4.39651e-05 1.75007e-05 0 -4.12629e-05 1.72601e-05 0 -3.86304e-05 1.69314e-05 0 -3.60794e-05 1.65279e-05 0 -3.3619e-05 1.60628e-05 0 -3.1256e-05 1.55487e-05 0 -2.89952e-05 1.49976e-05 0 -2.68393e-05 1.44205e-05 0 -2.47891e-05 1.38278e-05 0 -2.28441e-05 1.32284e-05 0 -2.10026e-05 1.26306e-05 0 -1.92615e-05 1.20414e-05 0 -1.76172e-05 1.14671e-05 0 -1.6065e-05 1.09127e-05 0 -1.46001e-05 1.03827e-05 0 -1.32171e-05 9.8806e-06 0 -1.19101e-05 9.40931e-06 0 -1.06735e-05 8.97112e-06 0 -9.50108e-06 8.56781e-06 0 -8.38696e-06 8.20073e-06 0 -7.32507e-06 7.87087e-06 0 -6.30939e-06 7.57894e-06 0 -5.33396e-06 7.32543e-06 0 -4.39287e-06 7.11065e-06 0 -3.48028e-06 6.9348e-06 0 -2.59041e-06 6.79797e-06 0 -1.71753e-06 6.70022e-06 0 -8.55943e-07 6.64156e-06 0 0 6.62201e-06 0 -5.21671e-05 1.48123e-05 0 -4.94742e-05 1.49162e-05 0 -4.67893e-05 1.49144e-05 0 -4.41314e-05 1.48164e-05 0 -4.1517e-05 1.46325e-05 0 -3.896e-05 1.43735e-05 0 -3.64725e-05 1.40503e-05 0 -3.40638e-05 1.36737e-05 0 -3.17413e-05 1.32541e-05 0 -2.95103e-05 1.28015e-05 0 -2.73744e-05 1.23252e-05 0 -2.53353e-05 1.18338e-05 0 -2.33935e-05 1.13351e-05 0 -2.1548e-05 1.0836e-05 0 -1.97968e-05 1.03427e-05 0 -1.81369e-05 9.86037e-06 0 -1.65649e-05 9.39372e-06 0 -1.50763e-05 8.94656e-06 0 -1.36665e-05 8.52208e-06 0 -1.23304e-05 8.1229e-06 0 -1.10626e-05 7.75113e-06 0 -9.85753e-06 7.40844e-06 0 -8.7096e-06 7.0961e-06 0 -7.61305e-06 6.8151e-06 0 -6.56212e-06 6.56615e-06 0 -5.55102e-06 6.34976e-06 0 -4.57399e-06 6.16629e-06 0 -3.6253e-06 6.01597e-06 0 -2.69922e-06 5.89895e-06 0 -1.79009e-06 5.81532e-06 0 -8.92227e-07 5.76513e-06 0 0 5.7484e-06 0 -5.20149e-05 1.21757e-05 0 -4.94218e-05 1.22737e-05 0 -4.68289e-05 1.22853e-05 0 -4.4254e-05 1.22181e-05 0 -4.1713e-05 1.20801e-05 0 -3.92199e-05 1.18798e-05 0 -3.67863e-05 1.16261e-05 0 -3.4422e-05 1.13274e-05 0 -3.21346e-05 1.09924e-05 0 -2.99301e-05 1.0629e-05 0 -2.78124e-05 1.02449e-05 0 -2.57841e-05 9.8471e-06 0 -2.38463e-05 9.44206e-06 0 -2.19989e-05 9.03554e-06 0 -2.02404e-05 8.63266e-06 0 -1.85689e-05 8.2379e-06 0 -1.69812e-05 7.85513e-06 0 -1.54737e-05 7.48763e-06 0 -1.40423e-05 7.13817e-06 0 -1.26823e-05 6.80901e-06 0 -1.13889e-05 6.50201e-06 0 -1.01569e-05 6.21865e-06 0 -8.98085e-06 5.9601e-06 0 -7.85542e-06 5.72724e-06 0 -6.77501e-06 5.52076e-06 0 -5.734e-06 5.34114e-06 0 -4.72678e-06 5.18875e-06 0 -3.74769e-06 5.06383e-06 0 -2.7911e-06 4.96654e-06 0 -1.85137e-06 4.89699e-06 0 -9.22878e-07 4.85523e-06 0 0 4.84131e-06 0 -5.1882e-05 9.63208e-06 0 -4.93691e-05 9.71763e-06 0 -4.68501e-05 9.7353e-06 0 -4.43422e-05 9.69066e-06 0 -4.1861e-05 9.58995e-06 0 -3.94199e-05 9.4397e-06 0 -3.70306e-05 9.24665e-06 0 -3.4703e-05 9.01752e-06 0 -3.24449e-05 8.75889e-06 0 -3.02627e-05 8.4771e-06 0 -2.81608e-05 8.17812e-06 0 -2.61422e-05 7.86752e-06 0 -2.42087e-05 7.55038e-06 0 -2.23606e-05 7.23132e-06 0 -2.05972e-05 6.91444e-06 0 -1.89169e-05 6.60335e-06 0 -1.73172e-05 6.30117e-06 0 -1.5795e-05 6.01059e-06 0 -1.43465e-05 5.73387e-06 0 -1.29676e-05 5.47289e-06 0 -1.16538e-05 5.22919e-06 0 -1.04001e-05 5.00401e-06 0 -9.20152e-06 4.79835e-06 0 -8.05277e-06 4.61298e-06 0 -6.94849e-06 4.44848e-06 0 -5.88321e-06 4.30529e-06 0 -4.85143e-06 4.18374e-06 0 -3.84759e-06 4.08405e-06 0 -2.86612e-06 4.00639e-06 0 -1.90142e-06 3.95085e-06 0 -9.47915e-07 3.9175e-06 0 0 3.90638e-06 0 -5.17738e-05 7.16147e-06 0 -4.93221e-05 7.22967e-06 0 -4.68598e-05 7.24763e-06 0 -4.44036e-05 7.21936e-06 0 -4.19684e-05 7.14935e-06 0 -3.95677e-05 7.04236e-06 0 -3.72129e-05 6.90329e-06 0 -3.49141e-05 6.73707e-06 0 -3.26792e-05 6.54853e-06 0 -3.05147e-05 6.34234e-06 0 -2.84255e-05 6.12291e-06 0 -2.64151e-05 5.89438e-06 0 -2.44854e-05 5.66054e-06 0 -2.26374e-05 5.42484e-06 0 -2.08707e-05 5.19036e-06 0 -1.91841e-05 4.9598e-06 0 -1.75756e-05 4.73555e-06 0 -1.60424e-05 4.51963e-06 0 -1.45811e-05 4.31378e-06 0 -1.31879e-05 4.11944e-06 0 -1.18585e-05 3.9378e-06 0 -1.05883e-05 3.76983e-06 0 -9.37233e-06 3.6163e-06 0 -8.20564e-06 3.47782e-06 0 -7.08295e-06 3.35486e-06 0 -5.99892e-06 3.24778e-06 0 -4.94814e-06 3.15684e-06 0 -3.92513e-06 3.08224e-06 0 -2.92436e-06 3.0241e-06 0 -1.94029e-06 2.98251e-06 0 -9.67357e-07 2.95754e-06 0 0 2.94921e-06 0 -5.16939e-05 4.74474e-06 0 -4.92854e-05 4.79209e-06 0 -4.68632e-05 4.80625e-06 0 -4.44436e-05 4.78984e-06 0 -4.20412e-05 4.74575e-06 0 -3.96692e-05 4.6771e-06 0 -3.73391e-05 4.58708e-06 0 -3.50609e-05 4.47891e-06 0 -3.28427e-05 4.35578e-06 0 -3.06911e-05 4.22075e-06 0 -2.86113e-05 4.07675e-06 0 -2.6607e-05 3.92649e-06 0 -2.46804e-05 3.77251e-06 0 -2.28327e-05 3.61709e-06 0 -2.10639e-05 3.46228e-06 0 -1.93731e-05 3.3099e-06 0 -1.77586e-05 3.16153e-06 0 -1.62178e-05 3.01856e-06 0 -1.47476e-05 2.88214e-06 0 -1.33443e-05 2.75326e-06 0 -1.2004e-05 2.63271e-06 0 -1.07221e-05 2.52117e-06 0 -9.49388e-06 2.41917e-06 0 -8.31448e-06 2.32712e-06 0 -7.17872e-06 2.24536e-06 0 -6.08138e-06 2.17412e-06 0 -5.01708e-06 2.11361e-06 0 -3.98041e-06 2.06395e-06 0 -2.96589e-06 2.02525e-06 0 -1.96801e-06 1.99756e-06 0 -9.81227e-07 1.98093e-06 0 0 1.97538e-06 0 -5.16449e-05 2.36355e-06 0 -4.92621e-05 2.38777e-06 0 -4.68639e-05 2.39551e-06 0 -4.44661e-05 2.38802e-06 0 -4.20832e-05 2.36674e-06 0 -3.97285e-05 2.33321e-06 0 -3.74132e-05 2.289e-06 0 -3.51474e-05 2.23571e-06 0 -3.29393e-05 2.1749e-06 0 -3.07956e-05 2.10812e-06 0 -2.87215e-05 2.03679e-06 0 -2.67209e-05 1.9623e-06 0 -2.47963e-05 1.88588e-06 0 -2.29489e-05 1.80868e-06 0 -2.1179e-05 1.73173e-06 0 -1.94858e-05 1.65593e-06 0 -1.78677e-05 1.5821e-06 0 -1.63225e-05 1.5109e-06 0 -1.4847e-05 1.44294e-06 0 -1.34378e-05 1.3787e-06 0 -1.2091e-05 1.3186e-06 0 -1.08021e-05 1.26296e-06 0 -9.56663e-06 1.21207e-06 0 -8.37964e-06 1.16612e-06 0 -7.23608e-06 1.12531e-06 0 -6.13077e-06 1.08974e-06 0 -5.05839e-06 1.05952e-06 0 -4.01354e-06 1.03471e-06 0 -2.99079e-06 1.01538e-06 0 -1.98462e-06 1.00154e-06 0 -9.89541e-07 9.93235e-07 0 0 9.90464e-07 0 -5.16284e-05 -0 0 -4.92542e-05 -3.27515e-19 0 -4.68639e-05 2.48788e-19 0 -4.44733e-05 1.71866e-19 0 -4.2097e-05 -0 0 -3.9748e-05 -0 0 -3.74377e-05 -0 0 -3.5176e-05 -0 0 -3.29713e-05 -0 0 -3.08302e-05 -0 0 -2.8758e-05 -1.41754e-20 0 -2.67587e-05 -1.8479e-19 0 -2.48347e-05 -2.65641e-20 0 -2.29875e-05 1.61919e-19 0 -2.12172e-05 3.02247e-20 0 -1.95232e-05 -0 0 -1.7904e-05 -0 0 -1.63573e-05 -0 0 -1.48801e-05 2.37643e-20 0 -1.34689e-05 9.40759e-20 0 -1.21199e-05 7.22871e-21 0 -1.08288e-05 -0 0 -9.59084e-06 -0 0 -8.40133e-06 -0 0 -7.25518e-06 -2.0599e-20 0 -6.14722e-06 -3.82093e-20 0 -5.07215e-06 -6.25039e-22 0 -4.02458e-06 -0 0 -2.99908e-06 -0 0 -1.99016e-06 -0 0 -9.92311e-07 -0 0 0 -0 0 </DataArray> 
</PointData> 
<Points> 
<DataArray type="Float32" NumberOfComponents="3"> 