<?xml version="1.0"?> 
<VTKFile type="StructuredGrid" version="0.1"> 
<StructuredGrid WholeExtent="0 31 0 31 0 0"> 
<Piece Extent="0 31 0 31 0 0"> 
<PointData>
<DataArray type="Float32" Name="B" format="ascii" NumberOfComponents="3"> 
0.0194316 -0.0208695 0 0.00531362 -0.00898497 0 0.00385546 -0.0072362 0 0.0037993 -0.00590545 0 0.0031676 -0.00507075 0 0.00302695 -0.00440798 0 0.00271241 -0.00388518 0 0.00254458 -0.00345378 0 0.00233811 -0.00308854 0 0.0021792 -0.00277794 0 0.00201745 -0.00250811 0 0.00187446 -0.00227391 0 0.00173656 -0.0020681 0 0.00160853 -0.00188727 0 0.0014865 -0.00172742 0 0.00137115 -0.0015861 0 0.00126115 -0.00146084 0 0.00115632 -0.00134987 0 0.00105599 -0.00125156 0 0.000959825 -0.00116463 0 0.000867378 -0.00108793 0 0.00077829 -0.00102052 0 0.000692199 -0.000961601 0 0.000608771 -0.000910488 0 0.000527677 -0.000866605 0 0.000448605 -0.000829469 0 0.000371249 -0.000798681 0 0.000295313 -0.000773913 0 0.000220504 -0.000754909 0 0.000146537 -0.000741471 0 7.31289e-05 -0.000733462 0 0 -0.000730802 0 0.0101661 -0.00800004 0 0.00664847 -0.00791753 0 0.00509888 -0.00656966 0 0.00423409 -0.00557398 0 0.00374627 -0.00481079 0 0.00334573 -0.00420999 0 0.00304926 -0.0037185 0 0.00278707 -0.00330819 0 0.00256561 -0.00295965 0 0.00236451 -0.00266009 0 0.00218402 -0.0024003 0 0.00201739 -0.00217349 0 0.00186354 -0.00197448 0 0.00171984 -0.0017992 0 0.00158522 -0.00164441 0 0.00145839 -0.00150746 0 0.00133853 -0.00138617 0 0.00122482 -0.00127873 0 0.00111664 -0.00118362 0 0.00101338 -0.00109954 0 0.000914532 -0.00102541 0 0.000819615 -0.000960299 0 0.000728188 -0.000903416 0 0.000639835 -0.000854094 0 0.000554166 -0.000811769 0 0.000470809 -0.000775966 0 0.000389408 -0.000746294 0 0.000309618 -0.000722432 0 0.000231105 -0.000704127 0 0.000153545 -0.000691186 0 7.66149e-05 -0.000683475 0 -2.71864e-17 -0.000680913 0 0.00928145 -0.00601211 0 0.00718163 -0.00643458 0 0.00568252 -0.00582194 0 0.0047708 -0.00511328 0 0.00414886 -0.00448928 0 0.00369466 -0.00396218 0 0.00333188 -0.00351631 0 0.00303228 -0.00313591 0 0.00277359 -0.00280871 0 0.00254614 -0.00252503 0 0.00234173 -0.00227769 0 0.00215602 -0.00206092 0 0.00198536 -0.00187028 0 0.00182744 -0.0017021 0 0.00168033 -0.00155346 0 0.00154262 -0.00142189 0 0.00141313 -0.00130536 0 0.00129089 -0.00120214 0 0.00117508 -0.00111078 0 0.00106498 -0.00103005 0 0.000959937 -0.000958898 0 0.00085939 -0.000896428 0 0.000762808 -0.000841877 0 0.000669705 -0.000794596 0 0.000579626 -0.000754038 0 0.000492143 -0.000719743 0 0.000406849 -0.000691328 0 0.000323354 -0.000668484 0 0.000241284 -0.000650964 0 0.000160271 -0.000638579 0 7.9961e-05 -0.000631201 0 0 -0.00062875 0 0.00866874 -0.00510433 0 0.00728869 -0.00534141 0 0.00605872 -0.00508315 0 0.00515565 -0.00460912 0 0.00449806 -0.00412371 0 0.00399486 -0.00367856 0 0.00359237 -0.00328505 0 0.00325693 -0.00294027 0 0.00296935 -0.00263847 0 0.00271689 -0.00237396 0 0.00249159 -0.00214151 0 0.00228781 -0.0019368 0 0.00210165 -0.00175611 0 0.00193021 -0.00159636 0 0.0017713 -0.00145494 0 0.0016232 -0.00132966 0 0.00148452 -0.00121864 0 0.00135411 -0.00112028 0 0.001231 -0.00103322 0 0.00111432 -0.000956308 0 0.00100335 -0.000888532 0 0.000897405 -0.000829043 0 0.000795885 -0.000777111 0 0.000698233 -0.000732115 0 0.000603934 -0.000693528 0 0.000512506 -0.000660909 0 0.000423492 -0.000633891 0 0.000336459 -0.000612174 0 0.000250992 -0.000595521 0 0.000166687 -0.000583751 0 8.31518e-05 -0.000576739 0 0 -0.000574411 0 0.00835636 -0.00429855 0 0.00729173 -0.00453894 0 0.00627264 -0.00441548 0 0.00543724 -0.00410658 0 0.00477791 -0.00373748 0 0.00425295 -0.00337159 0 0.00382286 -0.00303207 0 0.00346114 -0.00272544 0 0.00314946 -0.00245177 0 0.00287584 -0.00220864 0 0.00263191 -0.00199308 0 0.00241185 -0.00180202 0 0.00221142 -0.00163267 0 0.00202744 -0.00148249 0 0.00185748 -0.00134928 0 0.00169961 -0.00123111 0 0.00155225 -0.0011263 0 0.0014141 -0.00103341 0 0.00128405 -0.000951172 0 0.00116114 -0.000878511 0 0.00104453 -0.00081449 0 0.000933455 -0.000758305 0 0.000827244 -0.000709268 0 0.000725273 -0.000666789 0 0.000626968 -0.00063037 0 0.000531796 -0.00059959 0 0.000439255 -0.0005741 0 0.000348869 -0.000553616 0 0.000260184 -0.00053791 0 0.000172761 -0.000526811 0 8.61725e-05 -0.000520199 0 0 -0.000518004 0 0.0081292 -0.00372936 0 0.00726274 -0.00388414 0 0.00639953 -0.00383226 0 0.00563764 -0.00362563 0 0.00499944 -0.00334823 0 0.00446907 -0.00305208 0 0.00402369 -0.00276412 0 0.00364329 -0.00249591 0 0.00331292 -0.00225141 0 0.00302168 -0.00203109 0 0.00276171 -0.00183375 0 0.00252722 -0.00165762 0 0.00231391 -0.00150071 0 0.00211847 -0.00136109 0 0.00193831 -0.00123694 0 0.00177135 -0.00112663 0 0.00161589 -0.00102868 0 0.00147049 -0.00094181 0 0.00133394 -0.000864874 0 0.00120517 -0.000796882 0 0.00108325 -0.000736971 0 0.000967349 -0.000684396 0 0.000856722 -0.000638514 0 0.000750685 -0.000598775 0 0.000648611 -0.00056471 0 0.000549918 -0.000535924 0 0.000454061 -0.000512089 0 0.000360523 -0.000492936 0 0.000268815 -0.000478254 0 0.000178464 -0.000467879 0 8.90087e-05 -0.0004617 0 0 -0.000459647 0 0.00797472 -0.00320691 0 0.00722886 -0.00333907 0 0.00647613 -0.00331547 0 0.00578175 -0.00317498 0 0.00517253 -0.00296577 0 0.00464778 -0.0027282 0 0.00419583 -0.00248704 0 0.00380345 -0.00225563 0 0.00345914 -0.00204026 0 0.00315375 -0.00184328 0 0.00288025 -0.001665 0 0.00263323 -0.00150468 0 0.00240849 -0.00136109 0 0.00220273 -0.00123282 0 0.00201329 -0.00111847 0 0.001838 -0.00101666 0 0.00167507 -0.000926151 0 0.00152296 -0.000845804 0 0.00138037 -0.000774607 0 0.00124615 -0.000711667 0 0.0011193 -0.000656198 0 0.000998903 -0.000607518 0 0.000884163 -0.000565035 0 0.000774339 -0.000528243 0 0.000668754 -0.000496706 0 0.000566782 -0.00047006 0 0.000467836 -0.000447999 0 0.000371366 -0.000430273 0 0.000276845 -0.000416686 0 0.000183768 -0.000407086 0 9.16467e-05 -0.000401368 0 0 -0.000399468 0 0.0078584 -0.00276402 0 0.00719704 -0.00286036 0 0.0065245 -0.00285265 0 0.00588647 -0.00275387 0 0.00530762 -0.00259514 0 0.00479409 -0.00240528 0 0.00434163 -0.00220526 0 0.00394239 -0.00200804 0 0.00358816 -0.00182082 0 0.00327173 -0.00164712 0 0.0029871 -0.00148825 0 0.00272939 -0.00134429 0 0.00249468 -0.00121465 0 0.00227976 -0.00109838 0 0.00208199 -0.000994418 0 0.00189917 -0.000901678 0 0.00172945 -0.000819109 0 0.00157121 -0.000745737 0 0.00142309 -0.000680677 0 0.00128387 -0.000623136 0 0.00115248 -0.000572412 0 0.00102795 -0.000527889 0 0.000909422 -0.000489032 0 0.000796111 -0.000455378 0 0.000687293 -0.000426533 0 0.000582302 -0.000402161 0 0.000480514 -0.000381984 0 0.000381343 -0.000365774 0 0.000284233 -0.000353348 0 0.000188649 -0.000344569 0 9.40739e-05 -0.00033934 0 0 -0.000337604 0 0.00777147 -0.00235491 0 0.00716962 -0.00243227 0 0.00655634 -0.00243046 0 0.00596381 -0.00235938 0 0.00541318 -0.00223783 0 0.00491306 -0.00208646 0 0.00446378 -0.00192194 0 0.00406137 -0.00175581 0 0.00370046 -0.00159526 0 0.00337564 -0.00144429 0 0.00308202 -0.00130483 0 0.00281537 -0.00117753 0 0.0025721 -0.00106226 0 0.00234919 -0.000958463 0 0.00214407 -0.000865387 0 0.00195455 -0.000782179 0 0.00177873 -0.000707985 0 0.00161498 -0.000641982 0 0.00146186 -0.000583411 0 0.00131812 -0.000531581 0 0.00118261 -0.000485875 0 0.00105433 -0.000445746 0 0.000932366 -0.000410719 0 0.000815888 -0.00038038 0 0.000704134 -0.000354374 0 0.0005964 -0.000332401 0 0.00049203 -0.00031421 0 0.000390406 -0.000299595 0 0.000290944 -0.000288392 0 0.000193083 -0.000280477 0 9.62785e-05 -0.000275763 0 0 -0.000274197 0 0.00770518 -0.00198083 0 0.00714728 -0.00203908 0 0.00657817 -0.00203991 0 0.00602189 -0.00198729 0 0.0054958 -0.00189357 0 0.00500926 -0.0017732 0 0.00456502 -0.00163909 0 0.00416191 -0.00150095 0 0.00379675 -0.00136533 0 0.00346573 -0.00123628 0 0.003165 -0.00111597 0 0.00289098 -0.0010054 0 0.0026405 -0.00090475 0 0.00241074 -0.00081378 0 0.00219923 -0.000731969 0 0.00200384 -0.000658678 0 0.00182265 -0.000593222 0 0.00165403 -0.000534927 0 0.00149648 -0.000483153 0 0.00134871 -0.000437308 0 0.00120953 -0.000396862 0 0.00107791 -0.00036134 0 0.000952876 -0.000330326 0 0.000833569 -0.000303459 0 0.000719191 -0.000280425 0 0.000609005 -0.000260962 0 0.000502326 -0.000244848 0 0.00039851 -0.000231901 0 0.000296945 -0.000221976 0 0.000197047 -0.000214965 0 9.82498e-05 -0.000210788 0 0 -0.000209401 0 0.00765518 -0.00162827 0 0.00712978 -0.00167257 0 0.00659398 -0.0016734 0 0.00606604 -0.0016336 0 0.00556051 -0.00156103 0 0.00508642 -0.00146588 0 0.0046479 -0.00135786 0 0.00424554 -0.00124481 0 0.00387787 -0.0011324 0 0.00354237 -0.00102431 0 0.00323611 -0.00092275 0 0.00295616 -0.000828823 0 0.00269971 -0.000742932 0 0.00246419 -0.00066502 0 0.00224725 -0.000594763 0 0.00204682 -0.000531694 0 0.00186101 -0.00047528 0 0.00168816 -0.000424978 0 0.00152676 -0.000380262 0 0.00137548 -0.000340639 0 0.00123311 -0.000305664 0 0.00109856 -0.000274933 0 0.000970846 -0.000248094 0 0.000849063 -0.000224836 0 0.000732387 -0.000204893 0 0.000620054 -0.000188038 0 0.000511352 -0.000174081 0 0.000405614 -0.000162866 0 0.000302206 -0.000154268 0 0.000200522 -0.000148193 0 9.99781e-05 -0.000144575 0 0 -0.000143373 0 0.00761813 -0.00129383 0 0.00711696 -0.00132551 0 0.00660602 -0.00132532 0 0.00609995 -0.00129457 0 0.00561097 -0.00123849 0 0.0051476 -0.00116417 0 0.00471459 -0.00107874 0 0.00431371 -0.0009883 0 0.00394468 -0.000897459 0 0.00360601 -0.000809395 0 0.00329555 -0.000726095 0 0.00301091 -0.000648656 0 0.00274963 -0.000577553 0 0.00250938 -0.00051285 0 0.00228795 -0.000454359 0 0.00208331 -0.000401751 0 0.00189362 -0.000354622 0 0.00171721 -0.000312548 0 0.00155255 -0.000275109 0 0.0013983 -0.000241908 0 0.00125322 -0.000212581 0 0.00111618 -0.0001868 0 0.000986182 -0.000164271 0 0.000862291 -0.000144741 0 0.000743656 -0.000127989 0 0.000629491 -0.000113827 0 0.000519063 -0.000102096 0 0.000411683 -9.26687e-05 0 0.000306701 -8.544e-05 0 0.000203492 -8.03318e-05 0 0.000101455 -7.72887e-05 0 0 -7.62781e-05 0 0.00759198 -0.00097197 0 0.00710846 -0.000992973 0 0.00661578 -0.000990988 0 0.00612605 -0.000966893 0 0.00564985 -0.000924064 0 0.00519512 -0.00086733 0 0.00476689 -0.00080177 0 0.00436765 -0.000731885 0 0.00399796 -0.000661221 0 0.0036571 -0.000592311 0 0.00334351 -0.000526803 0 0.00305527 -0.000465652 0 0.00279022 -0.000409316 0 0.00254623 -0.000357911 0 0.0023212 -0.000311338 0 0.00211318 -0.000269372 0 0.00192034 -0.000231718 0 0.00174104 -0.000198059 0 0.00157373 -0.000168074 0 0.00141705 -0.000141457 0 0.00126975 -0.000117925 0 0.00113068 -9.72219e-05 0 0.000998808 -7.91183e-05 0 0.000873186 -6.34143e-05 0 0.000752942 -4.99364e-05 0 0.00063727 -3.85365e-05 0 0.00052542 -2.90903e-05 0 0.000416689 -2.14956e-05 0 0.000310409 -1.56707e-05 0 0.000205943 -1.15536e-05 0 0.000102674 -9.10066e-06 0 0 -8.28594e-06 0 0.00757525 -0.000659531 0 0.00710406 -0.000670761 0 0.00662414 -0.00066664 0 0.00614598 -0.000647618 0 0.00567902 -0.000615826 0 0.00523072 -0.000574382 0 0.0048062 -0.000526667 0 0.00440839 -0.000475761 0 0.0040384 -0.000424156 0 0.00369603 -0.000373678 0 0.00338021 -0.000325546 0 0.00308931 -0.00028049 0 0.00282146 -0.000238876 0 0.00257464 -0.000200818 0 0.00234689 -0.000166266 0 0.00213629 -0.000135074 0 0.00194106 -0.000107039 0 0.00175953 -8.19381e-05 0 0.00159019 -5.95437e-05 0 0.00143165 -3.96369e-05 0 0.00128263 -2.20141e-05 0 0.00114198 -6.49023e-06 0 0.00100866 7.09968e-06 0 0.000881694 1.89007e-05 0 0.000760198 2.90387e-05 0 0.000643352 3.76209e-05 0 0.000530394 4.47377e-05 0 0.000420607 5.04631e-05 0 0.000313312 5.48566e-05 0 0.000207861 5.79632e-05 0 0.000103628 5.98146e-05 0 0 6.04296e-05 0 0.00756699 -0.000353272 0 0.00710355 -0.000355492 0 0.00663166 -0.000349 0 0.00616082 -0.000334073 0 0.00569977 -0.000311889 0 0.00525563 -0.000284204 0 0.00483355 -0.000252949 0 0.00443669 -0.000219911 0 0.00406651 -0.000186557 0 0.00372314 -0.000153976 0 0.00340581 -0.000122904 0 0.00311312 -9.37855e-05 0 0.00284334 -6.68472e-05 0 0.0025946 -4.21611e-05 0 0.00236497 -1.9699e-05 0 0.00215259 6.28444e-07 0 0.00195569 1.89441e-05 0 0.00177263 3.53852e-05 0 0.00160186 5.00915e-05 0 0.00144201 6.31977e-05 0 0.00129179 7.48291e-05 0 0.00115004 8.50998e-05 0 0.00101569 9.41117e-05 0 0.000887775 0.000101954 0 0.00076539 0.000108704 0 0.00064771 0.000114429 0 0.000533961 0.000119183 0 0.000423418 0.000123013 0 0.000315397 0.000125955 0 0.00020924 0.000128037 0 0.000104314 0.000129279 0 0 0.000129691 0 0.00756663 -5.05861e-05 0 0.00710682 -4.41378e-05 0 0.00663867 -3.51635e-05 0 0.00617122 -2.37836e-05 0 0.00571289 -1.04052e-05 0 0.00527063 4.39536e-06 0 0.0048496 1.99941e-05 0 0.00445307 3.58189e-05 0 0.00408265 5.14049e-05 0 0.00373866 6.64127e-05 0 0.00342044 8.06191e-05 0 0.00312673 9.38964e-05 0 0.00285588 0.000106188 0 0.00260606 0.000117487 0 0.00237538 0.000127819 0 0.00216201 0.000137226 0 0.00196419 0.00014576 0 0.00178025 0.000153479 0 0.00160869 0.000160437 0 0.0014481 0.000166687 0 0.0012972 0.000172276 0 0.00115481 0.000177249 0 0.00101987 0.000181643 0 0.000891399 0.000185492 0 0.000768495 0.000188825 0 0.000650322 0.000191667 0 0.000536104 0.000194039 0 0.000425111 0.000195957 0 0.000316654 0.000197436 0 0.000210072 0.000198484 0 0.000104728 0.000199111 0 -6.63175e-19 0.000199319 0 0.00757392 0.000251067 0 0.00711382 0.000266071 0 0.00664532 0.000277591 0 0.00617749 0.000285608 0 0.00571876 0.000290444 0 0.0052761 0.000292643 0 0.00485467 0.000292843 0 0.00445776 0.000291662 0 0.004087 0.00028963 0 0.00374268 0.000287163 0 0.00342416 0.000284559 0 0.00313017 0.000282019 0 0.00285907 0.000279666 0 0.00260901 0.000277567 0 0.00237811 0.000275748 0 0.00216453 0.00027421 0 0.00196651 0.000272939 0 0.00178239 0.000271911 0 0.00161065 0.000271098 0 0.00144989 0.000270469 0 0.00129882 0.000269997 0 0.00115627 0.000269655 0 0.00102118 0.000269416 0 0.000892554 0.000269259 0 0.0007695 0.000269164 0 0.000651179 0.000269115 0 0.000536816 0.000269096 0 0.000425679 0.000269097 0 0.000317079 0.000269107 0 0.000210355 0.000269119 0 0.00010487 0.000269128 0 -5.7349e-18 0.000269132 0 0.00758888 0.000554096 0 0.00712457 0.000577852 0 0.00665164 0.000591918 0 0.00617964 0.000596427 0 0.00571738 0.00059247 0 0.00527202 0.000581779 0 0.00484876 0.000566301 0 0.00445077 0.000547876 0 0.00407953 0.000528043 0 0.00373519 0.000507968 0 0.00341696 0.000488466 0 0.00312344 0.000470055 0 0.0028529 0.00045303 0 0.00260344 0.000437521 0 0.00237315 0.000423551 0 0.00216015 0.000411076 0 0.00196266 0.00040001 0 0.00177904 0.000390248 0 0.00160774 0.000381676 0 0.00144738 0.000374183 0 0.00129666 0.000367661 0 0.00115443 0.000362014 0 0.00101961 0.000357153 0 0.000891238 0.000352998 0 0.000768404 0.000349483 0 0.000650281 0.000346548 0 0.000536095 0.000344145 0 0.000425121 0.000342232 0 0.000316671 0.000340777 0 0.000210088 0.000339755 0 0.000104738 0.000339149 0 -9.82395e-19 0.000338948 0 0.00761184 0.000861046 0 0.00713918 0.000893985 0 0.00665749 0.00091055 0 0.00617738 0.00091104 0 0.00570837 0.000897501 0 0.00525802 0.000873034 0 0.00483152 0.000841051 0 0.00443182 0.000804697 0 0.00406007 0.000766543 0 0.00371608 0.000728502 0 0.00339876 0.000691875 0 0.00310648 0.000657468 0 0.00283735 0.000625714 0 0.00258936 0.000596787 0 0.0023605 0.000570689 0 0.00214887 0.000547315 0 0.00195266 0.000526501 0 0.00177021 0.000508055 0 0.00159998 0.000491775 0 0.00144058 0.000477464 0 0.00129074 0.000464937 0 0.00114929 0.000454025 0 0.00101519 0.000444576 0 0.000887462 0.000436454 0 0.000765217 0.000429544 0 0.000647635 0.000423747 0 0.00053395 0.000418976 0 0.000423443 0.000415164 0 0.000315434 0.000412255 0 0.000209274 0.000410207 0 0.000104334 0.00040899 0 0 0.000408586 0 0.00764343 0.00117454 0 0.0071578 0.00121752 0 0.0066626 0.00123642 0 0.00617006 0.00123195 0 0.00569094 0.0012074 0 0.0052333 0.00116761 0 0.00480226 0.00111771 0 0.00440037 0.00106228 0 0.00402822 0.00100496 0 0.00368508 0.000948382 0 0.00336941 0.000894278 0 0.00307924 0.000843687 0 0.00281242 0.000797132 0 0.00256678 0.00075479 0 0.00234021 0.000716612 0 0.00213075 0.000682414 0 0.00193655 0.00065194 0 0.00175595 0.0006249 0 0.00158741 0.000601 0 0.00142954 0.000579954 0 0.00128109 0.000561497 0 0.0011409 0.000545387 0 0.00100794 0.000531409 0 0.000881252 0.000519372 0 0.000759962 0.000509113 0 0.00064326 0.000500489 0 0.000530394 0.000493382 0 0.000420656 0.000487696 0 0.000313377 0.000483351 0 0.000207918 0.00048029 0 0.000103661 0.000478469 0 0 0.000477865 0 0.00768467 0.00149782 0 0.00718072 0.00155187 0 0.00666642 0.00157283 0 0.00615664 0.00156185 0 0.0056638 0.00152409 0 0.00519661 0.00146666 0 0.00475994 0.00139678 0 0.00435564 0.00132065 0 0.00398344 0.001243 0 0.00364185 0.00116712 0 0.00332872 0.00109509 0 0.00304161 0.00102809 0 0.00277807 0.000966665 0 0.00253572 0.000910935 0 0.00231233 0.000860762 0 0.00210585 0.000815857 0 0.00191441 0.000775852 0 0.00173634 0.00074035 0 0.0015701 0.000708957 0 0.00141433 0.000681294 0 0.00126777 0.000657014 0 0.0011293 0.000635803 0 0.000997904 0.000617381 0 0.000872646 0.000601502 0 0.00075267 0.000587955 0 0.000637183 0.000576558 0 0.000525449 0.000567158 0 0.000416777 0.000559632 0 0.000310513 0.000553878 0 0.00020603 0.000549822 0 0.000102723 0.00054741 0 0 0.000546609 0 0.00773715 0.0018341 0 0.00720821 0.00190128 0 0.00666812 0.00192362 0 0.00613545 0.00190376 0 0.00562506 0.00184953 0 0.00514619 0.00177117 0 0.00470314 0.00167854 0 0.00429656 0.00157961 0 0.00392502 0.00148019 0 0.00358596 0.0013841 0 0.00327646 0.00129364 0 0.00299352 0.00121 0 0.00273432 0.00113365 0 0.00249625 0.0010646 0 0.00227694 0.00100257 0 0.00207427 0.000947121 0 0.00188635 0.000897763 0 0.00171148 0.000853976 0 0.00154816 0.000815257 0 0.00139502 0.000781132 0 0.00125086 0.00075117 0 0.00111456 0.000724982 0 0.000985146 0.000702224 0 0.000861697 0.000682598 0 0.000743385 0.000665843 0 0.00062944 0.00065174 0 0.000519145 0.000640103 0 0.00041183 0.000630781 0 0.000306858 0.000623652 0 0.000203619 0.000618625 0 0.000101525 0.000615634 0 0 0.000614642 0 0.00780301 0.00218894 0 0.00724072 0.00227074 0 0.00666625 0.00229354 0 0.00610409 0.00226106 0 0.00557201 0.00218566 0 0.00507967 0.00208193 0 0.00463 0.00196297 0 0.00422187 0.00183869 0 0.00385213 0.00171582 0 0.00351694 0.00159853 0 0.0032124 0.00148911 0 0.0029349 0.00138864 0 0.0026812 0.00129738 0 0.00244845 0.00121514 0 0.00223416 0.00114144 0 0.00203615 0.00107568 0 0.00185249 0.0010172 0 0.0016815 0.000965352 0 0.00152169 0.000919517 0 0.00137173 0.000879123 0 0.00123045 0.000843651 0 0.00109677 0.000812638 0 0.000969738 0.000785679 0 0.000848469 0.000762419 0 0.000732162 0.000742555 0 0.000620076 0.000725828 0 0.00051152 0.000712021 0 0.000405844 0.000700957 0 0.000302434 0.000692494 0 0.000200701 0.000686524 0 0.000100075 0.000682972 0 -4.87972e-18 0.000681793 0 0.00788576 0.0025658 0 0.00727852 0.00266761 0 0.00665858 0.00268832 0 0.00605883 0.00263758 0 0.00550096 0.00253426 0 0.00499396 0.00239928 0 0.0045383 0.00224959 0 0.00413008 0.002097 0 0.0037639 0.00194888 0 0.00343431 0.00180939 0 0.00313634 0.00168057 0 0.00286571 0.00156316 0 0.00261878 0.0014571 0 0.00239247 0.00136188 0 0.00218417 0.00127678 0 0.00199165 0.001201 0 0.001813 0.00113369 0 0.00164655 0.00107406 0 0.00149085 0.00102136 0 0.0013446 0.00097493 0 0.00120667 0.000934152 0 0.00107604 0.000898495 0 0.000951772 0.000867491 0 0.000833039 0.000840734 0 0.000719067 0.000817875 0 0.000609147 0.00079862 0 0.000502616 0.000782722 0 0.000398852 0.000769979 0 0.000297265 0.000760229 0 0.000197291 0.00075335 0 9.83806e-05 0.000749257 0 -1.46982e-17 0.000747899 0 0.00798995 0.00297826 0 0.00732194 0.00310026 0 0.00664117 0.00311573 0 0.00599431 0.00303743 0 0.00540682 0.00289673 0 0.00488523 0.00272288 0 0.00442544 0.00253727 0 0.0040196 0.00235316 0 0.00365944 0.00217799 0 0.00333766 0.00201543 0 0.00304817 0.00186692 0 0.00278602 0.00173262 0 0.00254722 0.00161198 0 0.0023285 0.00150411 0 0.00212718 0.00140799 0 0.00194101 0.00132255 0 0.00176811 0.00124677 0 0.00160684 0.00117968 0 0.00145581 0.00112043 0 0.00131378 0.00106823 0 0.00117966 0.00102238 0 0.00105247 0.000982288 0 0.000931351 0.000947419 0 0.000815495 0.000917318 0 0.000704173 0.000891596 0 0.000596713 0.000869923 0 0.000492483 0.000852023 0 0.000390893 0.000837672 0 0.000291381 0.00082669 0 0.000193408 0.000818941 0 9.64511e-05 0.000814329 0 -5.88946e-19 0.000812798 0 0.00812461 0.00342523 0 0.0073705 0.00358465 0 0.00660746 0.003585 0 0.00590231 0.003465 0 0.00528287 0.00327341 0 0.00474884 0.00305129 0 0.00428862 0.00282397 0 0.00388888 0.00260515 0 0.003538 0.00240138 0 0.00322672 0.00221516 0 0.00294789 0.00204692 0 0.00269599 0.00189598 0 0.00246676 0.00176117 0 0.00225682 0.00164112 0 0.00206347 0.00153445 0 0.00188449 0.00143982 0 0.00171805 0.00135598 0 0.00156259 0.00128184 0 0.00141678 0.00121637 0 0.00127944 0.0011587 0 0.00114956 0.00110806 0 0.00102622 0.00106376 0 0.000908594 0.00102523 0 0.000795938 0.00099196 0 0.000687567 0.000963521 0 0.000582844 0.000939551 0 0.000481179 0.00091975 0 0.000382013 0.00090387 0 0.000284814 0.000891716 0 0.000189074 0.000883138 0 9.42973e-05 0.000878033 0 0 0.000876338 0 0.00829902 0.00395259 0 0.00742203 0.00413696 0 0.00654568 0.00410983 0 0.00577064 0.00392339 0 0.00512048 0.00366287 0 0.00457959 0.00338138 0 0.00412502 0.00310651 0 0.00373656 0.00285026 0 0.00339907 0.00261684 0 0.00310145 0.00240686 0 0.0028357 0.0022192 0 0.00259594 0.00205217 0 0.00237777 0.0019038 0 0.0021778 0.0017722 0 0.00199339 0.00165557 0 0.00182242 0.00155229 0 0.00166313 0.00146091 0 0.00151407 0.00138013 0 0.00137399 0.00130885 0 0.0012418 0.00124606 0 0.00111657 0.00119092 0 0.000997428 0.00114268 0 0.000883631 0.00110071 0 0.000774481 0.00106446 0 0.00066934 0.00103346 0 0.000567619 0.00100733 0 0.000468766 0.000985736 0 0.000372258 0.000968415 0 0.0002776 0.000955155 0 0.000184312 0.000945795 0 9.19306e-05 0.000940224 0 0 0.000938374 0 0.00854849 0.00452799 0 0.00746982 0.00480128 0 0.00643353 0.00470315 0 0.00558211 0.00441352 0 0.00490899 0.0040601 0 0.00437234 0.00370776 0 0.00393225 0.00338042 0 0.00356186 0.00308502 0 0.00324256 0.00282184 0 0.00296213 0.00258858 0 0.00271204 0.00238233 0 0.00248636 0.00220005 0 0.00228072 0.00203899 0 0.00209189 0.00189662 0 0.00191736 0.00177076 0 0.00175516 0.00165948 0 0.00160367 0.00156112 0 0.00146156 0.00147423 0 0.00132769 0.00139756 0 0.00120108 0.00133003 0 0.00108086 0.00127072 0 0.000966268 0.00121882 0 0.000856606 0.00117365 0 0.000751243 0.00113462 0 0.000649595 0.00110125 0 0.000551121 0.0010731 0 0.000455311 0.00104983 0 0.000361684 0.00103116 0 0.000269777 0.00101686 0 0.000179148 0.00100677 0 8.93638e-05 0.00100076 0 0 0.000998768 0 0.00888722 0.00534152 0 0.00748686 0.00561701 0 0.00623361 0.00538361 0 0.00531136 0.00492677 0 0.00463824 0.00445522 0 0.00412237 0.00402218 0 0.00370922 0.00363978 0 0.00336464 0.00330541 0 0.00306903 0.00301346 0 0.00280942 0.00275833 0 0.00257764 0.00253478 0 0.00236791 0.00233854 0 0.00217624 0.00216588 0 0.00199964 0.00201373 0 0.00183587 0.00187948 0 0.00168315 0.00176095 0 0.00154006 0.00165624 0 0.0014054 0.00156378 0 0.00127818 0.00148221 0 0.00115752 0.00141035 0 0.00104266 0.00134723 0 0.00093292 0.00129197 0 0.000827674 0.00124386 0 0.000726356 0.00120228 0 0.000628442 0.00116671 0 0.00053344 0.00113669 0 0.000440888 0.00111188 0 0.000350344 0.00109196 0 0.000261388 0.0010767 0 0.000173609 0.00106593 0 8.66103e-05 0.00105952 0 0 0.00105739 0 0.00953437 0.00625996 0 0.00740023 0.00673028 0 0.0058694 0.00613832 0 0.00493564 0.00544302 0 0.00429692 0.00483042 0 0.0038294 0.0043137 0 0.00345555 0.00387772 0 0.00314649 0.00350685 0 0.00287949 0.00318884 0 0.0026446 0.00291402 0 0.00243344 0.00267518 0 0.00224152 0.00246656 0 0.00206508 0.00228369 0 0.00190173 0.0021229 0 0.00174949 0.00198125 0 0.00160689 0.00185628 0 0.0014727 0.00174594 0 0.00134594 0.00164851 0 0.00122575 0.00156255 0 0.00111139 0.00148681 0 0.00100219 0.00142024 0 0.000897575 0.00136195 0 0.000796997 0.00131118 0 0.000699958 0.00126728 0 0.000605996 0.0012297 0 0.000514672 0.00119799 0 0.000425573 0.00117175 0 0.000338301 0.00115069 0 0.000252475 0.00113456 0 0.000167723 0.00112316 0 8.36844e-05 0.00111638 0 0 0.00111412 0 0.0104747 0.00826043 0 0.00688116 0.00824836 0 0.00529437 0.00690341 0 0.0044054 0.00591684 0 0.00390094 0.00516188 0 0.00348659 0.00456963 0 0.00317908 0.00408673 0 0.00290725 0.00368507 0 0.00267734 0.00334506 0 0.00246862 0.00305386 0 0.00228117 0.00280218 0 0.0021081 0.0025832 0 0.00194824 0.0023917 0 0.00179886 0.0022236 0 0.00165886 0.00207562 0 0.00152688 0.00194512 0 0.00140206 0.00182991 0 0.00128357 0.00172816 0 0.00117074 0.00163836 0 0.00106296 0.00155919 0 0.00095969 0.00148959 0 0.000860438 0.0014286 0 0.000764748 0.00137546 0 0.000672195 0.00132947 0 0.000582378 0.0012901 0 0.000494916 0.00125685 0 0.000409446 0.00122933 0 0.000325615 0.00120724 0 0.000243085 0.0011903 0 0.000161522 0.00117834 0 8.06009e-05 0.00117122 0 0 0.00116886 0 0.0198807 0.0211306 0 0.0055052 0.00939147 0 0.00407353 0.00757617 0 0.0039633 0.00626439 0 0.00333387 0.00543104 0 0.00316913 0.00477572 0 0.00284985 0.00426037 0 0.00266904 0.00383651 0 0.00245595 0.00347944 0 0.00228831 0.00317652 0 0.00211999 0.00291456 0 0.0019701 0.00268779 0 0.00182612 0.0024893 0 0.00169213 0.00231541 0 0.00156452 0.00216223 0 0.00144376 0.0020272 0 0.00132858 0.00190791 0 0.0012187 0.00180252 0 0.00111348 0.00170944 0 0.00101253 0.00162734 0 0.000915401 0.0015551 0 0.000821718 0.00149178 0 0.000731105 0.00143655 0 0.000643215 0.00138874 0 0.000557713 0.00134777 0 0.000474275 0.00131316 0 0.00039259 0.00128451 0 0.000312352 0.00126149 0 0.000233264 0.00124385 0 0.000155035 0.00123138 0 7.73752e-05 0.00122395 0 0 0.00122149 0 </DataArray> 
</PointData> 
<Points> 
<DataArray type="Float32" NumberOfComponents="3"> 