<?xml version="1.0"?> 
<VTKFile type="StructuredGrid" version="0.1"> 
<StructuredGrid WholeExtent="0 31 0 31 0 0"> 
<Piece Extent="0 31 0 31 0 0"> 
<PointData>
<DataArray type="Float32" Name="u" format="ascii" NumberOfComponents="3"> 
0.000993381 7.14918e-05 0 0 0 0 0 0 0 0 0 0 0 0 0 0 0 0 0 0 0 0 0 0 0 0 0 0 0 0 0 0 0 0 0 0 0 0 0 0 0 0 0 0 0 0 0 0 0 0 0 0 0 0 0 0 0 0 0 0 0 0 0 0 0 0 0 0 0 0 0 0 0 0 0 0 0 0 0 0 0 0 0 0 0 0 0 0 0 0 0 0 0 0 0 0 0.000993368 6.68761e-05 0 0 0 0 0 0 0 0 0 0 0 0 0 0 0 0 0 0 0 0 0 0 0 0 0 0 0 0 0 0 0 0 0 0 0 0 0 0 0 0 0 0 0 0 0 0 0 0 0 0 0 0 0 0 0 0 0 0 0 0 0 0 0 0 0 0 0 0 0 0 0 0 0 0 0 0 0 0 0 0 0 0 0 0 0 0 0 0 0 0 0 0 0 0 0.000993357 6.22602e-05 0 0 0 0 0 0 0 0 0 0 0 0 0 0 0 0 0 0 0 0 0 0 0 0 0 0 0 0 0 0 0 0 0 0 0 0 0 0 0 0 0 0 0 0 0 0 0 0 0 0 0 0 0 0 0 0 0 0 0 0 0 0 0 0 0 0 0 0 0 0 0 0 0 0 0 0 0 0 0 0 0 0 0 0 0 0 0 0 0 0 0 0 0 0 0.000993347 5.76443e-05 0 0 0 0 0 0 0 0 0 0 0 0 0 0 0 0 0 0 0 0 0 0 0 0 0 0 0 0 0 0 0 0 0 0 0 0 0 0 0 0 0 0 0 0 0 0 0 0 0 0 0 0 0 0 0 0 0 0 0 0 0 0 0 0 0 0 0 0 0 0 0 0 0 0 0 0 0 0 0 0 0 0 0 0 0 0 0 0 0 0 0 0 0 0 0.000993338 5.30284e-05 0 0 0 0 0 0 0 0 0 0 0 0 0 0 0 0 0 0 0 0 0 0 0 0 0 0 0 0 0 0 0 0 0 0 0 0 0 0 0 0 0 0 0 0 0 0 0 0 0 0 0 0 0 0 0 0 0 0 0 0 0 0 0 0 0 0 0 0 0 0 0 0 0 0 0 0 0 0 0 0 0 0 0 0 0 0 0 0 0 0 0 0 0 0 0.000993331 4.84124e-05 0 0 0 0 0 0 0 0 0 0 0 0 0 0 0 0 0 0 0 0 0 0 0 0 0 0 0 0 0 0 0 0 0 0 0 0 0 0 0 0 0 0 0 0 0 0 0 0 0 0 0 0 0 0 0 0 0 0 0 0 0 0 0 0 0 0 0 0 0 0 0 0 0 0 0 0 0 0 0 0 0 0 0 0 0 0 0 0 0 0 0 0 0 0 0.000993324 4.37965e-05 0 0 0 0 0 0 0 0 0 0 0 0 0 0 0 0 0 0 0 0 0 0 0 0 0 0 0 0 0 0 0 0 0 0 0 0 0 0 0 0 0 0 0 0 0 0 0 0 0 0 0 0 0 0 0 0 0 0 0 0 0 0 0 0 0 0 0 0 0 0 0 0 0 0 0 0 0 0 0 0 0 0 0 0 0 0 0 0 0 0 0 0 0 0 0.000993318 3.91805e-05 0 0 0 0 0 0 0 0 0 0 0 0 0 0 0 0 0 0 0 0 0 0 0 0 0 0 0 0 0 0 0 0 0 0 0 0 0 0 0 0 0 0 0 0 0 0 0 0 0 0 0 0 0 0 0 0 0 0 0 0 0 0 0 0 0 0 0 0 0 0 0 0 0 0 0 0 0 0 0 0 0 0 0 0 0 0 0 0 0 0 0 0 0 0 0.000993313 3.45646e-05 0 0 0 0 0 0 0 0 0 0 0 0 0 0 0 0 0 0 0 0 0 0 0 0 0 0 0 0 0 0 0 0 0 0 0 0 0 0 0 0 0 0 0 0 0 0 0 0 0 0 0 0 0 0 0 0 0 0 0 0 0 0 0 0 0 0 0 0 0 0 0 0 0 0 0 0 0 0 0 0 0 0 0 0 0 0 0 0 0 0 0 0 0 0 0.000993309 2.99487e-05 0 0 0 0 0 0 0 0 0 0 0 0 0 0 0 0 0 0 0 0 0 0 0 0 0 0 0 0 0 0 0 0 0 0 0 0 0 0 0 0 0 0 0 0 0 0 0 0 0 0 0 0 0 0 0 0 0 0 0 0 0 0 0 0 0 0 0 0 0 0 0 0 0 0 0 0 0 0 0 0 0 0 0 0 0 0 0 0 0 0 0 0 0 0 0.000993305 2.53328e-05 0 0 0 0 0 0 0 0 0 0 0 0 0 0 0 0 0 0 0 0 0 0 0 0 0 0 0 0 0 0 0 0 0 0 0 0 0 0 0 0 0 0 0 0 0 0 0 0 0 0 0 0 0 0 0 0 0 0 0 0 0 0 0 0 0 0 0 0 0 0 0 0 0 0 0 0 0 0 0 0 0 0 0 0 0 0 0 0 0 0 0 0 0 0 0.000993303 2.07169e-05 0 0 0 0 0 0 0 0 0 0 0 0 0 0 0 0 0 0 0 0 0 0 0 0 0 0 0 0 0 0 0 0 0 0 0 0 0 0 0 0 0 0 0 0 0 0 0 0 0 0 0 0 0 0 0 0 0 0 0 0 0 0 0 0 0 0 0 0 0 0 0 0 0 0 0 0 0 0 0 0 0 0 0 0 0 0 0 0 0 0 0 0 0 0 0.0009933 1.6101e-05 0 0 0 0 0 0 0 0 0 0 0 0 0 0 0 0 0 0 0 0 0 0 0 0 0 0 0 0 0 0 0 0 0 0 0 0 0 0 0 0 0 0 0 0 0 0 0 0 0 0 0 0 0 0 0 0 0 0 0 0 0 0 0 0 0 0 0 0 0 0 0 0 0 0 0 0 0 0 0 0 0 0 0 0 0 0 0 0 0 0 0 0 0 0 0.000993299 1.14852e-05 0 0 0 0 0 0 0 0 0 0 0 0 0 0 0 0 0 0 0 0 0 0 0 0 0 0 0 0 0 0 0 0 0 0 0 0 0 0 0 0 0 0 0 0 0 0 0 0 0 0 0 0 0 0 0 0 0 0 0 0 0 0 0 0 0 0 0 0 0 0 0 0 0 0 0 0 0 0 0 0 0 0 0 0 0 0 0 0 0 0 0 0 0 0 0.000993298 6.86935e-06 0 0 0 0 0 0 0 0 0 0 0 0 0 0 0 0 0 0 0 0 0 0 0 0 0 0 0 0 0 0 0 0 0 0 0 0 0 0 0 0 0 0 0 0 0 0 0 0 0 0 0 0 0 0 0 0 0 0 0 0 0 0 0 0 0 0 0 0 0 0 0 0 0 0 0 0 0 0 0 0 0 0 0 0 0 0 0 0 0 0 0 0 0 0 0.000993298 2.25352e-06 0 0 0 0 0 0 0 0 0 0 0 0 0 0 0 0 0 0 0 0 0 0 0 0 0 0 0 0 0 0 0 0 0 0 0 0 0 0 0 0 0 0 0 0 0 0 0 0 0 0 0 0 0 0 0 0 0 0 0 0 0 0 0 0 0 0 0 0 0 0 0 0 0 0 0 0 0 0 0 0 0 0 0 0 0 0 0 0 0 0 0 0 0 0 0.000993298 -2.36231e-06 0 0 0 0 0 0 0 0 0 0 0 0 0 0 0 0 0 0 0 0 0 0 0 0 0 0 0 0 0 0 0 0 0 0 0 0 0 0 0 0 0 0 0 0 0 0 0 0 0 0 0 0 0 0 0 0 0 0 0 0 0 0 0 0 0 0 0 0 0 0 0 0 0 0 0 0 0 0 0 0 0 0 0 0 0 0 0 0 0 0 0 0 0 0 0.000993299 -6.97814e-06 0 0 0 0 0 0 0 0 0 0 0 0 0 0 0 0 0 0 0 0 0 0 0 0 0 0 0 0 0 0 0 0 0 0 0 0 0 0 0 0 0 0 0 0 0 0 0 0 0 0 0 0 0 0 0 0 0 0 0 0 0 0 0 0 0 0 0 0 0 0 0 0 0 0 0 0 0 0 0 0 0 0 0 0 0 0 0 0 0 0 0 0 0 0 0.000993301 -1.1594e-05 0 0 0 0 0 0 0 0 0 0 0 0 0 0 0 0 0 0 0 0 0 0 0 0 0 0 0 0 0 0 0 0 0 0 0 0 0 0 0 0 0 0 0 0 0 0 0 0 0 0 0 0 0 0 0 0 0 0 0 0 0 0 0 0 0 0 0 0 0 0 0 0 0 0 0 0 0 0 0 0 0 0 0 0 0 0 0 0 0 0 0 0 0 0 0.000993303 -1.62098e-05 0 0 0 0 0 0 0 0 0 0 0 0 0 0 0 0 0 0 0 0 0 0 0 0 0 0 0 0 0 0 0 0 0 0 0 0 0 0 0 0 0 0 0 0 0 0 0 0 0 0 0 0 0 0 0 0 0 0 0 0 0 0 0 0 0 0 0 0 0 0 0 0 0 0 0 0 0 0 0 0 0 0 0 0 0 0 0 0 0 0 0 0 0 0 0.000993306 -2.08257e-05 0 0 0 0 0 0 0 0 0 0 0 0 0 0 0 0 0 0 0 0 0 0 0 0 0 0 0 0 0 0 0 0 0 0 0 0 0 0 0 0 0 0 0 0 0 0 0 0 0 0 0 0 0 0 0 0 0 0 0 0 0 0 0 0 0 0 0 0 0 0 0 0 0 0 0 0 0 0 0 0 0 0 0 0 0 0 0 0 0 0 0 0 0 0 0.00099331 -2.54416e-05 0 0 0 0 0 0 0 0 0 0 0 0 0 0 0 0 0 0 0 0 0 0 0 0 0 0 0 0 0 0 0 0 0 0 0 0 0 0 0 0 0 0 0 0 0 0 0 0 0 0 0 0 0 0 0 0 0 0 0 0 0 0 0 0 0 0 0 0 0 0 0 0 0 0 0 0 0 0 0 0 0 0 0 0 0 0 0 0 0 0 0 0 0 0 0.000993314 -3.00575e-05 0 0 0 0 0 0 0 0 0 0 0 0 0 0 0 0 0 0 0 0 0 0 0 0 0 0 0 0 0 0 0 0 0 0 0 0 0 0 0 0 0 0 0 0 0 0 0 0 0 0 0 0 0 0 0 0 0 0 0 0 0 0 0 0 0 0 0 0 0 0 0 0 0 0 0 0 0 0 0 0 0 0 0 0 0 0 0 0 0 0 0 0 0 0 0.000993319 -3.46735e-05 0 0 0 0 0 0 0 0 0 0 0 0 0 0 0 0 0 0 0 0 0 0 0 0 0 0 0 0 0 0 0 0 0 0 0 0 0 0 0 0 0 0 0 0 0 0 0 0 0 0 0 0 0 0 0 0 0 0 0 0 0 0 0 0 0 0 0 0 0 0 0 0 0 0 0 0 0 0 0 0 0 0 0 0 0 0 0 0 0 0 0 0 0 0 0.000993325 -3.92894e-05 0 0 0 0 0 0 0 0 0 0 0 0 0 0 0 0 0 0 0 0 0 0 0 0 0 0 0 0 0 0 0 0 0 0 0 0 0 0 0 0 0 0 0 0 0 0 0 0 0 0 0 0 0 0 0 0 0 0 0 0 0 0 0 0 0 0 0 0 0 0 0 0 0 0 0 0 0 0 0 0 0 0 0 0 0 0 0 0 0 0 0 0 0 0 0.000993331 -4.39054e-05 0 0 0 0 0 0 0 0 0 0 0 0 0 0 0 0 0 0 0 0 0 0 0 0 0 0 0 0 0 0 0 0 0 0 0 0 0 0 0 0 0 0 0 0 0 0 0 0 0 0 0 0 0 0 0 0 0 0 0 0 0 0 0 0 0 0 0 0 0 0 0 0 0 0 0 0 0 0 0 0 0 0 0 0 0 0 0 0 0 0 0 0 0 0 0.000993339 -4.85214e-05 0 0 0 0 0 0 0 0 0 0 0 0 0 0 0 0 0 0 0 0 0 0 0 0 0 0 0 0 0 0 0 0 0 0 0 0 0 0 0 0 0 0 0 0 0 0 0 0 0 0 0 0 0 0 0 0 0 0 0 0 0 0 0 0 0 0 0 0 0 0 0 0 0 0 0 0 0 0 0 0 0 0 0 0 0 0 0 0 0 0 0 0 0 0 0.000993347 -5.31375e-05 0 0 0 0 0 0 0 0 0 0 0 0 0 0 0 0 0 0 0 0 0 0 0 0 0 0 0 0 0 0 0 0 0 0 0 0 0 0 0 0 0 0 0 0 0 0 0 0 0 0 0 0 0 0 0 0 0 0 0 0 0 0 0 0 0 0 0 0 0 0 0 0 0 0 0 0 0 0 0 0 0 0 0 0 0 0 0 0 0 0 0 0 0 0 0.000993357 -5.77534e-05 0 0 0 0 0 0 0 0 0 0 0 0 0 0 0 0 0 0 0 0 0 0 0 0 0 0 0 0 0 0 0 0 0 0 0 0 0 0 0 0 0 0 0 0 0 0 0 0 0 0 0 0 0 0 0 0 0 0 0 0 0 0 0 0 0 0 0 0 0 0 0 0 0 0 0 0 0 0 0 0 0 0 0 0 0 0 0 0 0 0 0 0 0 0 0.000993367 -6.23694e-05 0 0 0 0 0 0 0 0 0 0 0 0 0 0 0 0 0 0 0 0 0 0 0 0 0 0 0 0 0 0 0 0 0 0 0 0 0 0 0 0 0 0 0 0 0 0 0 0 0 0 0 0 0 0 0 0 0 0 0 0 0 0 0 0 0 0 0 0 0 0 0 0 0 0 0 0 0 0 0 0 0 0 0 0 0 0 0 0 0 0 0 0 0 0 0.000993379 -6.69853e-05 0 0 0 0 0 0 0 0 0 0 0 0 0 0 0 0 0 0 0 0 0 0 0 0 0 0 0 0 0 0 0 0 0 0 0 0 0 0 0 0 0 0 0 0 0 0 0 0 0 0 0 0 0 0 0 0 0 0 0 0 0 0 0 0 0 0 0 0 0 0 0 0 0 0 0 0 0 0 0 0 0 0 0 0 0 0 0 0 0 0 0 0 0 0 0.000993394 -7.16011e-05 0 0 0 0 0 0 0 0 0 0 0 0 0 0 0 0 0 0 0 0 0 0 0 0 0 0 0 0 0 0 0 0 0 0 0 0 0 0 0 0 0 0 0 0 0 0 0 0 0 0 0 0 0 0 0 0 0 0 0 0 0 0 0 0 0 0 0 0 0 0 0 0 0 0 0 0 0 0 0 0 0 0 0 0 0 0 0 0 0 0 0 0 0 0 </DataArray> 
</PointData> 
<Points> 
<DataArray type="Float32" NumberOfComponents="3"> 
3 2 0 3.06452 2 0 3.12903 2 0 3.19355 2 0 3.25806 2 0 3.32258 2 0 3.3871 2 0 3.45161 2 0 3.51613 2 0 3.58065 2 0 3.64516 2 0 3.70968 2 0 3.77419 2 0 3.83871 2 0 3.90323 2 0 3.96774 2 0 4.03226 2 0 4.09677 2 0 4.16129 2 0 4.22581 2 0 4.29032 2 0 4.35484 2 0 4.41935 2 0 4.48387 2 0 4.54839 2 0 4.6129 2 0 4.67742 2 0 4.74194 2 0 4.80645 2 0 4.87097 2 0 4.93548 2 0 5 2 0 3 2.03226 0 3.06452 2.03226 0 3.12903 2.03226 0 3.19355 2.03226 0 3.25806 2.03226 0 3.32258 2.03226 0 3.3871 2.03226 0 3.45161 2.03226 0 3.51613 2.03226 0 3.58065 2.03226 0 3.64516 2.03226 0 3.70968 2.03226 0 3.77419 2.03226 0 3.83871 2.03226 0 3.90323 2.03226 0 3.96774 2.03226 0 4.03226 2.03226 0 4.09677 2.03226 0 4.16129 2.03226 0 4.22581 2.03226 0 4.29032 2.03226 0 4.35484 2.03226 0 4.41935 2.03226 0 4.48387 2.03226 0 4.54839 2.03226 0 4.6129 2.03226 0 4.67742 2.03226 0 4.74194 2.03226 0 4.80645 2.03226 0 4.87097 2.03226 0 4.93548 2.03226 0 5 2.03226 0 3 2.06452 0 3.06452 2.06452 0 3.12903 2.06452 0 3.19355 2.06452 0 3.25806 2.06452 0 3.32258 2.06452 0 3.3871 2.06452 0 3.45161 2.06452 0 3.51613 2.06452 0 3.58065 2.06452 0 3.64516 2.06452 0 3.70968 2.06452 0 3.77419 2.06452 0 3.83871 2.06452 0 3.90323 2.06452 0 3.96774 2.06452 0 4.03226 2.06452 0 4.09677 2.06452 0 4.16129 2.06452 0 4.22581 2.06452 0 4.29032 2.06452 0 4.35484 2.06452 0 4.41935 2.06452 0 4.48387 2.06452 0 4.54839 2.06452 0 4.6129 2.06452 0 4.67742 2.06452 0 4.74194 2.06452 0 4.80645 2.06452 0 4.87097 2.06452 0 4.93548 2.06452 0 5 2.06452 0 3 2.09677 0 3.06452 2.09677 0 3.12903 2.09677 0 3.19355 2.09677 0 3.25806 2.09677 0 3.32258 2.09677 0 3.3871 2.09677 0 3.45161 2.09677 0 3.51613 2.09677 0 3.58065 2.09677 0 3.64516 2.09677 0 3.70968 2.09677 0 3.77419 2.09677 0 3.83871 2.09677 0 3.90323 2.09677 0 3.96774 2.09677 0 4.03226 2.09677 0 4.09677 2.09677 0 4.16129 2.09677 0 4.22581 2.09677 0 4.29032 2.09677 0 4.35484 2.09677 0 4.41935 2.09677 0 4.48387 2.09677 0 4.54839 2.09677 0 4.6129 2.09677 0 4.67742 2.09677 0 4.74194 2.09677 0 4.80645 2.09677 0 4.87097 2.09677 0 4.93548 2.09677 0 5 2.09677 0 3 2.12903 0 3.06452 2.12903 0 3.12903 2.12903 0 3.19355 2.12903 0 3.25806 2.12903 0 3.32258 2.12903 0 3.3871 2.12903 0 3.45161 2.12903 0 3.51613 2.12903 0 3.58065 2.12903 0 3.64516 2.12903 0 3.70968 2.12903 0 3.77419 2.12903 0 3.83871 2.12903 0 3.90323 2.12903 0 3.96774 2.12903 0 4.03226 2.12903 0 4.09677 2.12903 0 4.16129 2.12903 0 4.22581 2.12903 0 4.29032 2.12903 0 4.35484 2.12903 0 4.41935 2.12903 0 4.48387 2.12903 0 4.54839 2.12903 0 4.6129 2.12903 0 4.67742 2.12903 0 4.74194 2.12903 0 4.80645 2.12903 0 4.87097 2.12903 0 4.93548 2.12903 0 5 2.12903 0 3 2.16129 0 3.06452 2.16129 0 3.12903 2.16129 0 3.19355 2.16129 0 3.25806 2.16129 0 3.32258 2.16129 0 3.3871 2.16129 0 3.45161 2.16129 0 3.51613 2.16129 0 3.58065 2.16129 0 3.64516 2.16129 0 3.70968 2.16129 0 3.77419 2.16129 0 3.83871 2.16129 0 3.90323 2.16129 0 3.96774 2.16129 0 4.03226 2.16129 0 4.09677 2.16129 0 4.16129 2.16129 0 4.22581 2.16129 0 4.29032 2.16129 0 4.35484 2.16129 0 4.41935 2.16129 0 4.48387 2.16129 0 4.54839 2.16129 0 4.6129 2.16129 0 4.67742 2.16129 0 4.74194 2.16129 0 4.80645 2.16129 0 4.87097 2.16129 0 4.93548 2.16129 0 5 2.16129 0 3 2.19355 0 3.06452 2.19355 0 3.12903 2.19355 0 3.19355 2.19355 0 3.25806 2.19355 0 3.32258 2.19355 0 3.3871 2.19355 0 3.45161 2.19355 0 3.51613 2.19355 0 3.58065 2.19355 0 3.64516 2.19355 0 3.70968 2.19355 0 3.77419 2.19355 0 3.83871 2.19355 0 3.90323 2.19355 0 3.96774 2.19355 0 4.03226 2.19355 0 4.09677 2.19355 0 4.16129 2.19355 0 4.22581 2.19355 0 4.29032 2.19355 0 4.35484 2.19355 0 4.41935 2.19355 0 4.48387 2.19355 0 4.54839 2.19355 0 4.6129 2.19355 0 4.67742 2.19355 0 4.74194 2.19355 0 4.80645 2.19355 0 4.87097 2.19355 0 4.93548 2.19355 0 5 2.19355 0 3 2.22581 0 3.06452 2.22581 0 3.12903 2.22581 0 3.19355 2.22581 0 3.25806 2.22581 0 3.32258 2.22581 0 3.3871 2.22581 0 3.45161 2.22581 0 3.51613 2.22581 0 3.58065 2.22581 0 3.64516 2.22581 0 3.70968 2.22581 0 3.77419 2.22581 0 3.83871 2.22581 0 3.90323 2.22581 0 3.96774 2.22581 0 4.03226 2.22581 0 4.09677 2.22581 0 4.16129 2.22581 0 4.22581 2.22581 0 4.29032 2.22581 0 4.35484 2.22581 0 4.41935 2.22581 0 4.48387 2.22581 0 4.54839 2.22581 0 4.6129 2.22581 0 4.67742 2.22581 0 4.74194 2.22581 0 4.80645 2.22581 0 4.87097 2.22581 0 4.93548 2.22581 0 5 2.22581 0 3 2.25806 0 3.06452 2.25806 0 3.12903 2.25806 0 3.19355 2.25806 0 3.25806 2.25806 0 3.32258 2.25806 0 3.3871 2.25806 0 3.45161 2.25806 0 3.51613 2.25806 0 3.58065 2.25806 0 3.64516 2.25806 0 3.70968 2.25806 0 3.77419 2.25806 0 3.83871 2.25806 0 3.90323 2.25806 0 3.96774 2.25806 0 4.03226 2.25806 0 4.09677 2.25806 0 4.16129 2.25806 0 4.22581 2.25806 0 4.29032 2.25806 0 4.35484 2.25806 0 4.41935 2.25806 0 4.48387 2.25806 0 4.54839 2.25806 0 4.6129 2.25806 0 4.67742 2.25806 0 4.74194 2.25806 0 4.80645 2.25806 0 4.87097 2.25806 0 4.93548 2.25806 0 5 2.25806 0 3 2.29032 0 3.06452 2.29032 0 3.12903 2.29032 0 3.19355 2.29032 0 3.25806 2.29032 0 3.32258 2.29032 0 3.3871 2.29032 0 3.45161 2.29032 0 3.51613 2.29032 0 3.58065 2.29032 0 3.64516 2.29032 0 3.70968 2.29032 0 3.77419 2.29032 0 3.83871 2.29032 0 3.90323 2.29032 0 3.96774 2.29032 0 4.03226 2.29032 0 4.09677 2.29032 0 4.16129 2.29032 0 4.22581 2.29032 0 4.29032 2.29032 0 4.35484 2.29032 0 4.41935 2.29032 0 4.48387 2.29032 0 4.54839 2.29032 0 4.6129 2.29032 0 4.67742 2.29032 0 4.74194 2.29032 0 4.80645 2.29032 0 4.87097 2.29032 0 4.93548 2.29032 0 5 2.29032 0 3 2.32258 0 3.06452 2.32258 0 3.12903 2.32258 0 3.19355 2.32258 0 3.25806 2.32258 0 3.32258 2.32258 0 3.3871 2.32258 0 3.45161 2.32258 0 3.51613 2.32258 0 3.58065 2.32258 0 3.64516 2.32258 0 3.70968 2.32258 0 3.77419 2.32258 0 3.83871 2.32258 0 3.90323 2.32258 0 3.96774 2.32258 0 4.03226 2.32258 0 4.09677 2.32258 0 4.16129 2.32258 0 4.22581 2.32258 0 4.29032 2.32258 0 4.35484 2.32258 0 4.41935 2.32258 0 4.48387 2.32258 0 4.54839 2.32258 0 4.6129 2.32258 0 4.67742 2.32258 0 4.74194 2.32258 0 4.80645 2.32258 0 4.87097 2.32258 0 4.93548 2.32258 0 5 2.32258 0 3 2.35484 0 3.06452 2.35484 0 3.12903 2.35484 0 3.19355 2.35484 0 3.25806 2.35484 0 3.32258 2.35484 0 3.3871 2.35484 0 3.45161 2.35484 0 3.51613 2.35484 0 3.58065 2.35484 0 3.64516 2.35484 0 3.70968 2.35484 0 3.77419 2.35484 0 3.83871 2.35484 0 3.90323 2.35484 0 3.96774 2.35484 0 4.03226 2.35484 0 4.09677 2.35484 0 4.16129 2.35484 0 4.22581 2.35484 0 4.29032 2.35484 0 4.35484 2.35484 0 4.41935 2.35484 0 4.48387 2.35484 0 4.54839 2.35484 0 4.6129 2.35484 0 4.67742 2.35484 0 4.74194 2.35484 0 4.80645 2.35484 0 4.87097 2.35484 0 4.93548 2.35484 0 5 2.35484 0 3 2.3871 0 3.06452 2.3871 0 3.12903 2.3871 0 3.19355 2.3871 0 3.25806 2.3871 0 3.32258 2.3871 0 3.3871 2.3871 0 3.45161 2.3871 0 3.51613 2.3871 0 3.58065 2.3871 0 3.64516 2.3871 0 3.70968 2.3871 0 3.77419 2.3871 0 3.83871 2.3871 0 3.90323 2.3871 0 3.96774 2.3871 0 4.03226 2.3871 0 4.09677 2.3871 0 4.16129 2.3871 0 4.22581 2.3871 0 4.29032 2.3871 0 4.35484 2.3871 0 4.41935 2.3871 0 4.48387 2.3871 0 4.54839 2.3871 0 4.6129 2.3871 0 4.67742 2.3871 0 4.74194 2.3871 0 4.80645 2.3871 0 4.87097 2.3871 0 4.93548 2.3871 0 5 2.3871 0 3 2.41935 0 3.06452 2.41935 0 3.12903 2.41935 0 3.19355 2.41935 0 3.25806 2.41935 0 3.32258 2.41935 0 3.3871 2.41935 0 3.45161 2.41935 0 3.51613 2.41935 0 3.58065 2.41935 0 3.64516 2.41935 0 3.70968 2.41935 0 3.77419 2.41935 0 3.83871 2.41935 0 3.90323 2.41935 0 3.96774 2.41935 0 4.03226 2.41935 0 4.09677 2.41935 0 4.16129 2.41935 0 4.22581 2.41935 0 4.29032 2.41935 0 4.35484 2.41935 0 4.41935 2.41935 0 4.48387 2.41935 0 4.54839 2.41935 0 4.6129 2.41935 0 4.67742 2.41935 0 4.74194 2.41935 0 4.80645 2.41935 0 4.87097 2.41935 0 4.93548 2.41935 0 5 2.41935 0 3 2.45161 0 3.06452 2.45161 0 3.12903 2.45161 0 3.19355 2.45161 0 3.25806 2.45161 0 3.32258 2.45161 0 3.3871 2.45161 0 3.45161 2.45161 0 3.51613 2.45161 0 3.58065 2.45161 0 3.64516 2.45161 0 3.70968 2.45161 0 3.77419 2.45161 0 3.83871 2.45161 0 3.90323 2.45161 0 3.96774 2.45161 0 4.03226 2.45161 0 4.09677 2.45161 0 4.16129 2.45161 0 4.22581 2.45161 0 4.29032 2.45161 0 4.35484 2.45161 0 4.41935 2.45161 0 4.48387 2.45161 0 4.54839 2.45161 0 4.6129 2.45161 0 4.67742 2.45161 0 4.74194 2.45161 0 4.80645 2.45161 0 4.87097 2.45161 0 4.93548 2.45161 0 5 2.45161 0 3 2.48387 0 3.06452 2.48387 0 3.12903 2.48387 0 3.19355 2.48387 0 3.25806 2.48387 0 3.32258 2.48387 0 3.3871 2.48387 0 3.45161 2.48387 0 3.51613 2.48387 0 3.58065 2.48387 0 3.64516 2.48387 0 3.70968 2.48387 0 3.77419 2.48387 0 3.83871 2.48387 0 3.90323 2.48387 0 3.96774 2.48387 0 4.03226 2.48387 0 4.09677 2.48387 0 4.16129 2.48387 0 4.22581 2.48387 0 4.29032 2.48387 0 4.35484 2.48387 0 4.41935 2.48387 0 4.48387 2.48387 0 4.54839 2.48387 0 4.6129 2.48387 0 4.67742 2.48387 0 4.74194 2.48387 0 4.80645 2.48387 0 4.87097 2.48387 0 4.93548 2.48387 0 5 2.48387 0 3 2.51613 0 3.06452 2.51613 0 3.12903 2.51613 0 3.19355 2.51613 0 3.25806 2.51613 0 3.32258 2.51613 0 3.3871 2.51613 0 3.45161 2.51613 0 3.51613 2.51613 0 3.58065 2.51613 0 3.64516 2.51613 0 3.70968 2.51613 0 3.77419 2.51613 0 3.83871 2.51613 0 3.90323 2.51613 0 3.96774 2.51613 0 4.03226 2.51613 0 4.09677 2.51613 0 4.16129 2.51613 0 4.22581 2.51613 0 4.29032 2.51613 0 4.35484 2.51613 0 4.41935 2.51613 0 4.48387 2.51613 0 4.54839 2.51613 0 4.6129 2.51613 0 4.67742 2.51613 0 4.74194 2.51613 0 4.80645 2.51613 0 4.87097 2.51613 0 4.93548 2.51613 0 5 2.51613 0 3 2.54839 0 3.06452 2.54839 0 3.12903 2.54839 0 3.19355 2.54839 0 3.25806 2.54839 0 3.32258 2.54839 0 3.3871 2.54839 0 3.45161 2.54839 0 3.51613 2.54839 0 3.58065 2.54839 0 3.64516 2.54839 0 3.70968 2.54839 0 3.77419 2.54839 0 3.83871 2.54839 0 3.90323 2.54839 0 3.96774 2.54839 0 4.03226 2.54839 0 4.09677 2.54839 0 4.16129 2.54839 0 4.22581 2.54839 0 4.29032 2.54839 0 4.35484 2.54839 0 4.41935 2.54839 0 4.48387 2.54839 0 4.54839 2.54839 0 4.6129 2.54839 0 4.67742 2.54839 0 4.74194 2.54839 0 4.80645 2.54839 0 4.87097 2.54839 0 4.93548 2.54839 0 5 2.54839 0 3 2.58065 0 3.06452 2.58065 0 3.12903 2.58065 0 3.19355 2.58065 0 3.25806 2.58065 0 3.32258 2.58065 0 3.3871 2.58065 0 3.45161 2.58065 0 3.51613 2.58065 0 3.58065 2.58065 0 3.64516 2.58065 0 3.70968 2.58065 0 3.77419 2.58065 0 3.83871 2.58065 0 3.90323 2.58065 0 3.96774 2.58065 0 4.03226 2.58065 0 4.09677 2.58065 0 4.16129 2.58065 0 4.22581 2.58065 0 4.29032 2.58065 0 4.35484 2.58065 0 4.41935 2.58065 0 4.48387 2.58065 0 4.54839 2.58065 0 4.6129 2.58065 0 4.67742 2.58065 0 4.74194 2.58065 0 4.80645 2.58065 0 4.87097 2.58065 0 4.93548 2.58065 0 5 2.58065 0 3 2.6129 0 3.06452 2.6129 0 3.12903 2.6129 0 3.19355 2.6129 0 3.25806 2.6129 0 3.32258 2.6129 0 3.3871 2.6129 0 3.45161 2.6129 0 3.51613 2.6129 0 3.58065 2.6129 0 3.64516 2.6129 0 3.70968 2.6129 0 3.77419 2.6129 0 3.83871 2.6129 0 3.90323 2.6129 0 3.96774 2.6129 0 4.03226 2.6129 0 4.09677 2.6129 0 4.16129 2.6129 0 4.22581 2.6129 0 4.29032 2.6129 0 4.35484 2.6129 0 4.41935 2.6129 0 4.48387 2.6129 0 4.54839 2.6129 0 4.6129 2.6129 0 4.67742 2.6129 0 4.74194 2.6129 0 4.80645 2.6129 0 4.87097 2.6129 0 4.93548 2.6129 0 5 2.6129 0 3 2.64516 0 3.06452 2.64516 0 3.12903 2.64516 0 3.19355 2.64516 0 3.25806 2.64516 0 3.32258 2.64516 0 3.3871 2.64516 0 3.45161 2.64516 0 3.51613 2.64516 0 3.58065 2.64516 0 3.64516 2.64516 0 3.70968 2.64516 0 3.77419 2.64516 0 3.83871 2.64516 0 3.90323 2.64516 0 3.96774 2.64516 0 4.03226 2.64516 0 4.09677 2.64516 0 4.16129 2.64516 0 4.22581 2.64516 0 4.29032 2.64516 0 4.35484 2.64516 0 4.41935 2.64516 0 4.48387 2.64516 0 4.54839 2.64516 0 4.6129 2.64516 0 4.67742 2.64516 0 4.74194 2.64516 0 4.80645 2.64516 0 4.87097 2.64516 0 4.93548 2.64516 0 5 2.64516 0 3 2.67742 0 3.06452 2.67742 0 3.12903 2.67742 0 3.19355 2.67742 0 3.25806 2.67742 0 3.32258 2.67742 0 3.3871 2.67742 0 3.45161 2.67742 0 3.51613 2.67742 0 3.58065 2.67742 0 3.64516 2.67742 0 3.70968 2.67742 0 3.77419 2.67742 0 3.83871 2.67742 0 3.90323 2.67742 0 3.96774 2.67742 0 4.03226 2.67742 0 4.09677 2.67742 0 4.16129 2.67742 0 4.22581 2.67742 0 4.29032 2.67742 0 4.35484 2.67742 0 4.41935 2.67742 0 4.48387 2.67742 0 4.54839 2.67742 0 4.6129 2.67742 0 4.67742 2.67742 0 4.74194 2.67742 0 4.80645 2.67742 0 4.87097 2.67742 0 4.93548 2.67742 0 5 2.67742 0 3 2.70968 0 3.06452 2.70968 0 3.12903 2.70968 0 3.19355 2.70968 0 3.25806 2.70968 0 3.32258 2.70968 0 3.3871 2.70968 0 3.45161 2.70968 0 3.51613 2.70968 0 3.58065 2.70968 0 3.64516 2.70968 0 3.70968 2.70968 0 3.77419 2.70968 0 3.83871 2.70968 0 3.90323 2.70968 0 3.96774 2.70968 0 4.03226 2.70968 0 4.09677 2.70968 0 4.16129 2.70968 0 4.22581 2.70968 0 4.29032 2.70968 0 4.35484 2.70968 0 4.41935 2.70968 0 4.48387 2.70968 0 4.54839 2.70968 0 4.6129 2.70968 0 4.67742 2.70968 0 4.74194 2.70968 0 4.80645 2.70968 0 4.87097 2.70968 0 4.93548 2.70968 0 5 2.70968 0 3 2.74194 0 3.06452 2.74194 0 3.12903 2.74194 0 3.19355 2.74194 0 3.25806 2.74194 0 3.32258 2.74194 0 3.3871 2.74194 0 3.45161 2.74194 0 3.51613 2.74194 0 3.58065 2.74194 0 3.64516 2.74194 0 3.70968 2.74194 0 3.77419 2.74194 0 3.83871 2.74194 0 3.90323 2.74194 0 3.96774 2.74194 0 4.03226 2.74194 0 4.09677 2.74194 0 4.16129 2.74194 0 4.22581 2.74194 0 4.29032 2.74194 0 4.35484 2.74194 0 4.41935 2.74194 0 4.48387 2.74194 0 4.54839 2.74194 0 4.6129 2.74194 0 4.67742 2.74194 0 4.74194 2.74194 0 4.80645 2.74194 0 4.87097 2.74194 0 4.93548 2.74194 0 5 2.74194 0 3 2.77419 0 3.06452 2.77419 0 3.12903 2.77419 0 3.19355 2.77419 0 3.25806 2.77419 0 3.32258 2.77419 0 3.3871 2.77419 0 3.45161 2.77419 0 3.51613 2.77419 0 3.58065 2.77419 0 3.64516 2.77419 0 3.70968 2.77419 0 3.77419 2.77419 0 3.83871 2.77419 0 3.90323 2.77419 0 3.96774 2.77419 0 4.03226 2.77419 0 4.09677 2.77419 0 4.16129 2.77419 0 4.22581 2.77419 0 4.29032 2.77419 0 4.35484 2.77419 0 4.41935 2.77419 0 4.48387 2.77419 0 4.54839 2.77419 0 4.6129 2.77419 0 4.67742 2.77419 0 4.74194 2.77419 0 4.80645 2.77419 0 4.87097 2.77419 0 4.93548 2.77419 0 5 2.77419 0 3 2.80645 0 3.06452 2.80645 0 3.12903 2.80645 0 3.19355 2.80645 0 3.25806 2.80645 0 3.32258 2.80645 0 3.3871 2.80645 0 3.45161 2.80645 0 3.51613 2.80645 0 3.58065 2.80645 0 3.64516 2.80645 0 3.70968 2.80645 0 3.77419 2.80645 0 3.83871 2.80645 0 3.90323 2.80645 0 3.96774 2.80645 0 4.03226 2.80645 0 4.09677 2.80645 0 4.16129 2.80645 0 4.22581 2.80645 0 4.29032 2.80645 0 4.35484 2.80645 0 4.41935 2.80645 0 4.48387 2.80645 0 4.54839 2.80645 0 4.6129 2.80645 0 4.67742 2.80645 0 4.74194 2.80645 0 4.80645 2.80645 0 4.87097 2.80645 0 4.93548 2.80645 0 5 2.80645 0 3 2.83871 0 3.06452 2.83871 0 3.12903 2.83871 0 3.19355 2.83871 0 3.25806 2.83871 0 3.32258 2.83871 0 3.3871 2.83871 0 3.45161 2.83871 0 3.51613 2.83871 0 3.58065 2.83871 0 3.64516 2.83871 0 3.70968 2.83871 0 3.77419 2.83871 0 3.83871 2.83871 0 3.90323 2.83871 0 3.96774 2.83871 0 4.03226 2.83871 0 4.09677 2.83871 0 4.16129 2.83871 0 4.22581 2.83871 0 4.29032 2.83871 0 4.35484 2.83871 0 4.41935 2.83871 0 4.48387 2.83871 0 4.54839 2.83871 0 4.6129 2.83871 0 4.67742 2.83871 0 4.74194 2.83871 0 4.80645 2.83871 0 4.87097 2.83871 0 4.93548 2.83871 0 5 2.83871 0 3 2.87097 0 3.06452 2.87097 0 3.12903 2.87097 0 3.19355 2.87097 0 3.25806 2.87097 0 3.32258 2.87097 0 3.3871 2.87097 0 3.45161 2.87097 0 3.51613 2.87097 0 3.58065 2.87097 0 3.64516 2.87097 0 3.70968 2.87097 0 3.77419 2.87097 0 3.83871 2.87097 0 3.90323 2.87097 0 3.96774 2.87097 0 4.03226 2.87097 0 4.09677 2.87097 0 4.16129 2.87097 0 4.22581 2.87097 0 4.29032 2.87097 0 4.35484 2.87097 0 4.41935 2.87097 0 4.48387 2.87097 0 4.54839 2.87097 0 4.6129 2.87097 0 4.67742 2.87097 0 4.74194 2.87097 0 4.80645 2.87097 0 4.87097 2.87097 0 4.93548 2.87097 0 5 2.87097 0 3 2.90323 0 3.06452 2.90323 0 3.12903 2.90323 0 3.19355 2.90323 0 3.25806 2.90323 0 3.32258 2.90323 0 3.3871 2.90323 0 3.45161 2.90323 0 3.51613 2.90323 0 3.58065 2.90323 0 3.64516 2.90323 0 3.70968 2.90323 0 3.77419 2.90323 0 3.83871 2.90323 0 3.90323 2.90323 0 3.96774 2.90323 0 4.03226 2.90323 0 4.09677 2.90323 0 4.16129 2.90323 0 4.22581 2.90323 0 4.29032 2.90323 0 4.35484 2.90323 0 4.41935 2.90323 0 4.48387 2.90323 0 4.54839 2.90323 0 4.6129 2.90323 0 4.67742 2.90323 0 4.74194 2.90323 0 4.80645 2.90323 0 4.87097 2.90323 0 4.93548 2.90323 0 5 2.90323 0 3 2.93548 0 3.06452 2.93548 0 3.12903 2.93548 0 3.19355 2.93548 0 3.25806 2.93548 0 3.32258 2.93548 0 3.3871 2.93548 0 3.45161 2.93548 0 3.51613 2.93548 0 3.58065 2.93548 0 3.64516 2.93548 0 3.70968 2.93548 0 3.77419 2.93548 0 3.83871 2.93548 0 3.90323 2.93548 0 3.96774 2.93548 0 4.03226 2.93548 0 4.09677 2.93548 0 4.16129 2.93548 0 4.22581 2.93548 0 4.29032 2.93548 0 4.35484 2.93548 0 4.41935 2.93548 0 4.48387 2.93548 0 4.54839 2.93548 0 4.6129 2.93548 0 4.67742 2.93548 0 4.74194 2.93548 0 4.80645 2.93548 0 4.87097 2.93548 0 4.93548 2.93548 0 5 2.93548 0 3 2.96774 0 3.06452 2.96774 0 3.12903 2.96774 0 3.19355 2.96774 0 3.25806 2.96774 0 3.32258 2.96774 0 3.3871 2.96774 0 3.45161 2.96774 0 3.51613 2.96774 0 3.58065 2.96774 0 3.64516 2.96774 0 3.70968 2.96774 0 3.77419 2.96774 0 3.83871 2.96774 0 3.90323 2.96774 0 3.96774 2.96774 0 4.03226 2.96774 0 4.09677 2.96774 0 4.16129 2.96774 0 4.22581 2.96774 0 4.29032 2.96774 0 4.35484 2.96774 0 4.41935 2.96774 0 4.48387 2.96774 0 4.54839 2.96774 0 4.6129 2.96774 0 4.67742 2.96774 0 4.74194 2.96774 0 4.80645 2.96774 0 4.87097 2.96774 0 4.93548 2.96774 0 5 2.96774 0 3 3 0 3.06452 3 0 3.12903 3 0 3.19355 3 0 3.25806 3 0 3.32258 3 0 3.3871 3 0 3.45161 3 0 3.51613 3 0 3.58065 3 0 3.64516 3 0 3.70968 3 0 3.77419 3 0 3.83871 3 0 3.90323 3 0 3.96774 3 0 4.03226 3 0 4.09677 3 0 4.16129 3 0 4.22581 3 0 4.29032 3 0 4.35484 3 0 4.41935 3 0 4.48387 3 0 4.54839 3 0 4.6129 3 0 4.67742 3 0 4.74194 3 0 4.80645 3 0 4.87097 3 0 4.93548 3 0 5 3 0 
</DataArray>
</Points> 
</Piece> 
</StructuredGrid> 
</VTKFile> 
