<?xml version="1.0"?> 
<VTKFile type="StructuredGrid" version="0.1"> 
<StructuredGrid WholeExtent="0 31 0 31 0 0"> 
<Piece Extent="0 31 0 31 0 0"> 
<PointData>
<DataArray type="Float32" Name="u" format="ascii" NumberOfComponents="3"> 
0 0 0 0 0 0 0 0 0 0 0 0 0 0 0 0 0 0 0 0 0 0 0 0 0 0 0 0 0 0 0 0 0 0 0 0 0 0 0 0 0 0 0 0 0 0 0 0 0 0 0 0 0 0 0 0 0 0 0 0 0 0 0 0 0 0 0 0 0 0 0 0 0 0 0 0 0 0 0 0 0 0 0 0 0 0 0 0 0 0 0 0 0 0 0 0 0 0 0 0 0 0 0 0 0 0 0 0 0 0 0 0 0 0 0 0 0 0 0 0 0 0 0 0 0 0 0 0 0 0 0 0 0 0 0 0 0 0 0 0 0 0 0 0 0 0 0 0 0 0 0 0 0 0 0 0 0 0 0 0 0 0 0 0 0 0 0 0 0 0 0 0 0 0 0 0 0 0 0 0 0 0 0 0 0 0 0 0 0 0 0 0 0 0 0 0 0 0 0 0 0 0 0 0 0 0 0 0 0 0 0 0 0 0 0 0 0 0 0 0 0 0 0 0 0 0 0 0 0 0 0 0 0 0 0 0 0 0 0 0 0 0 0 0 0 0 0 0 0 0 0 0 0 0 0 0 0 0 0 0 0 0 0 0 0 0 0 0 0 0 0 0 0 0 0 0 0 0 0 0 0 0 0 0 0 0 0 0 0 0 0 0 0 0 0 0 0 0 0 0 0 0 0 0 0 0 0 0 0 0 0 0 0 0 0 0 0 0 0 0 0 0 0 0 0 0 0 0 0 0 0 0 0 0 0 0 0 0 0 0 0 0 0 0 0 0 0 0 0 0 0 0 0 0 0 0 0 0 0 0 0 0 0 0 0 0 0 0 0 0 0 0 0 0 0 0 0 0 0 0 0 0 0 0 0 0 0 0 0 0 0 0 0 0 0 0 0 0 0 0 0 0 0 0 0 0 0 0 0 0 0 0 0 0 0 0 0 0 0 0 0 0 0 0 0 0 0 0 0 0 0 0 0 0 0 0 0 0 0 0 0 0 0 0 0 0 0 0 0 0 0 0 0 0 0 0 0 0 0 0 0 0 0 0 0 0 0 0 0 0 0 0 0 0 0 0 0 0 0 0 0 0 0 0 0 0 0 0 0 0 0 0 0 0 0 0 0 0 0 0 0 0 0 0 0 0 0 0 0 0 0 0 0 0 0 0 0 0 0 0 0 0 0 0 0 0 0 0 0 0 0 0 0 0 0 0 0 0 0 0 0 0 0 0 0 0 0 0 0 0 0 0 0 0 0 0 0 0 0 0 0 0 0 0 0 0 0 0 0 0 0 0 0 0 0 0 0 0 0 0 0 0 0 0 0 0 0 0 0 0 0 0 0 0 0 0 0 0 0 0 0 0 0 0 0 0 0 0 0 0 0 0 0 0 0 0 0 0 0 0 0 0 0 0 0 0 0 0 0 0 0 0 0 0 0 0 0 0 0 0 0 0 0 0 0 0 0 0 0 0 0 0 0 0 0 0 0 0 0 0 0 0 0 0 0 0 0 0 0 0 0 0 0 0 0 0 0 0 0 0 0 0 0 0 0 0 0 0 0 0 0 0 0 0 0 0 0 0 0 0 0 0 0 0 0 0 0 0 0 0 0 0 0 0 0 0 0 0 0 0 0 0 0 0 0 0 0 0 0 0 0 0 0 0 0 0 0 0 0 0 0 0 0 0 0 0 0 0 0 0 0 0 0 0 0 0 0 0 0 0 0 0 0 0 0 0 0 0 0 0 0 0 0 0 0 0 0 0 0 0 0 0 0 0 0 0 0 0 0 0 0 0 0 0 0 0 0 0 0 0 0 0 0 0 0 0 0 0 0 0 0 0 0 0 0 0 0 0 0 0 0 0 0 0 0 0 0 0 0 0 0 0 0 0 0 0 0 0 0 0 0 0 0 0 0 0 0 0 0 0 0 0 0 0 0 0 0 0 0 0 0 0 0 0 0 0 0 0 0 0 0 0 0 0 0 0 0 0 0 0 0 0 0 0 0 0 0 0 0 0 0 0 0 0 0 0 0 0 0 0 0 0 0 0 0 0 0 0 0 0 0 0 0 0 0 0 0 0 0 0 0 0 0 0 0 0 0 0 0 0 0 0 0 0 0 0 0 0 0 0 0 0 0 0 0 0 0 0 0 0 0 0 0 0 0 0 0 0 0 0 0 0 0 0 0 0 0 0 0 0 0 0 0 0 0 0 0 0 0 0 0 0 0 0 0 0 0 0 0 0 0 0 0 0 0 0 0 0 0 0 0 0 0 0 0 0 0 0 0 0 0 0 0 0 0 0 0 0 0 0 0 0 0 0 0 0 0 0 0 0 0 0 0 0 0 0 0 0 0 0 0 0 0 0 0 0 0 0 0 0 0 0 0 0 0 0 0 0 0 0 0 0 0 0 0 0 0 0 0 0 0 0 0 0 0 0 0 0 0 0 0 0 0 0 0 0 0 0 0 0 0 0 0 0 0 0 0 0 0 0 0 0 0 0 0 0 0 0 0 0 0 0 0 0 0 0 0 0 0 0 0 0 0 0 0 0 0 0 0 0 0 0 0 0 0 0 0 0 0 0 0 0 0 0 0 0 0 0 0 0 0 0 0 0 0 0 0 0 0 0 0 0 0 0 0 0 0 0 0 0 0 0 0 0 0 0 0 0 0 0 0 0 0 0 0 0 0 0 0 0 0 0 0 0 0 0 0 0 0 0 0 0 0 0 0 0 0 0 0 0 0 0 0 0 0 0 0 0 0 0 0 0 0 0 0 0 0 0 0 0 0 0 0 0 0 0 0 0 0 0 0 0 0 0 0 0 0 0 0 0 0 0 0 0 0 0 0 0 0 0 0 0 0 0 0 0 0 0 0 0 0 0 0 0 0 0 0 0 0 0 0 0 0 0 0 0 0 0 0 0 0 0 0 0 0 0 0 0 0 0 0 0 0 0 0 0 0 0 0 0 0 0 0 0 0 0 0 0 0 0 0 0 0 0 0 0 0 0 0 0 0 0 0 0 0 0 0 0 0 0 0 0 0 0 0 0 0 0 0 0 0 0 0 0 0 0 0 0 0 0 0 0 0 0 0 0 0 0 0 0 0 0 0 0 0 0 0 0 0 0 0 0 0 0 0 0 0 0 0 0 0 0 0 0 0 0 0 0 0 0 0 0 0 0 0 0 0 0 0 0 0 0 0 0 0 0 0 0 0 0 0 0 0 0 0 0 0 0 0 0 0 0 0 0 0 0 0 0 0 0 0 0 0 0 0 0 0 0 0 0 0 0 0 0 0 0 0 0 0 0 0 0 0 0 0 0 0 0 0 0 0 0 0 0 0 0 0 0 0 0 0 0 0 0 0 0 0 0 0 0 0 0 0 0 0 0 0 0 0 0 0 0 0 0 0 0 0 0 0 0 0 0 0 0 0 0 0 0 0 0 0 0 0 0 0 0 0 0 0 0 0 0 0 0 0 0 0 0 0 0 0 0 0 0 0 0 0 0 0 0 0 0 0 0 0 0 0 0 0 0 0 0 0 0 0 0 0 0 0 0 0 0 0 0 0 0 0 0 0 0 0 0 0 0 0 0 0 0 0 0 0 0 0 0 0 0 0 0 0 0 0 0 0 0 0 0 0 0 0 0 0 0 0 0 0 0 0 0 0 0 0 0 0 0 0 0 0 0 0 0 0 0 0 0 0 0 0 0 0 0 0 0 0 0 0 0 0 0 0 0 0 0 0 0 0 0 0 0 0 0 0 0 0 0 0 0 0 0 0 0 0 0 0 0 0 0 0 0 0 0 0 0 0 0 0 0 0 0 0 0 0 0 0 0 0 0 0 0 0 0 0 0 0 0 0 0 0 0 0 0 0 0 0 0 0 0 0 0 0 0 0 0 0 0 0 0 0 0 0 0 0 0 0 0 0 0 0 0 0 0 0 0 0 0 0 0 0 0 0 0 0 0 0 0 0 0 0 0 0 0 0 0 0 0 0 0 0 0 0 0 0 0 0 0 0 0 0 0 0 0 0 0 0 0 0 0 0 0 0 0 0 0 0 0 0 0 0 0 0 0 0 0 0 0 0 0 0 0 0 0 0 0 0 0 0 0 0 0 0 0 0 0 0 0 0 0 0 0 0 0 0 0 0 0 0 0 0 0 0 0 0 0 0 0 0 0 0 0 0 0 0 0 0 0 0 0 0 0 0 0 0 0 0 0 0 0 0 0 0 0 0 0 0 0 0 0 0 0 0 0 0 0 0 0 0 0 0 0 0 0 0 0 0 0 0 0 0 0 0 0 0 0 0 0 0 0 0 0 0 0 0 0 0 0 0 0 0 0 0 0 0 0 0 0 0 0 0 0 0 0 0 0 0 0 0 0 0 0 0 0 0 0 0 0 0 0 0 0 0 0 0 0 0 0 0 0 0 0 0 0 0 0 0 0 0 0 0 0 0 0 0 0 0 0 0 0 0 0 0 0 0 0 0 0 0 0 0 0 0 0 0 0 0 0 0 0 0 0 0 0 0 0 0 0 0 0 0 0 0 0 0 0 0 0 0 0 0 0 0 0 0 0 0 0 0 0 0 0 0 0 0 0 0 0 0 0 0 0 0 0 0 0 0 0 0 0 0 0 0 0 0 0 0 0 0 0 0 0 0 0 0 0 0 0 0 0 0 0 0 0 0 0 0 0 0 0 0 0 0 0 0 0 0 0 0 0 0 0 0 0 0 0 0 0 0 0 0 0 0 0 0 0 0 0 0 0 0 0 0 0 0 0 0 0 0 0 0 0 0 0 0 0 0 0 0 0 0 0 0 0 0 0 0 0 0 0 0 0 0 0 0 0 0 0 0 0 0 0 0 0 0 0 0 0 0 0 0 0 0 0 0 0 0 0 0 0 0 0 0 0 0 0 0 0 0 0 0 0 0 0 0 0 0 0 0 0 0 0 0 0 0 0 0 0 0 0 0 0 0 0 0 0 0 0 0 0 0 0 0 0 0 0 0 0 0 0 0 0 0 0 0 0 0 0 0 0 0 0 0 0 0 0 0 0 0 0 0 0 0 0 0 0 0 0 0 0 0 0 0 0 0 0 0 0 0 0 0 0 0 0 0 0 0 0 0 0 0 0 0 0 0 0 0 0 0 0 0 0 0 0 0 0 0 0 0 0 0 0 0 0 0 0 0 0 0 0 0 0 0 0 0 0 0 0 0 0 0 0 0 0 0 0 0 0 0 0 0 0 0 0 0 0 0 0 0 0 0 0 0 0 0 0 0 0 0 0 0 0 0 0 0 0 0 0 0 0 0 0 0 0 0 0 0 0 0 0 0 0 0 0 0 0 0 0 0 0 0 0 0 0 0 0 0 0 0 0 0 0 0 0 0 0 0 0 0 0 0 0 0 0 0 0 0 0 0 0 0 0 0 0 0 0 0 0 0 0 0 0 0 0 0 0 0 0 0 0 0 0 0 0 0 0 0 0 0 0 0 0 0 0 0 0 0 0 0 0 0 0 0 0 0 0 0 0 0 0 0 0 0 0 0 0 0 0 0 0 0 0 0 0 0 0 0 0 0 0 0 0 0 0 0 0 0 0 0 0 0 0 0 0 0 0 0 0 0 0 0 0 0 0 0 0 0 0 0 0 0 0 0 0 0 0 0 0 0 0 0 0 0 0 0 0 0 0 0 0 0 0 0 0 0 0 0 0 0 0 0 0 0 0 0 0 0 0 0 0 0 0 0 0 0 0 0 0 0 0 0 0 0 0 0 0 0 0 0 0 0 0 0 0 0 0 0 0 0 0 0 0 0 0 0 0 0 0 0 0 0 0 0 0 0 0 0 0 0 0 0 0 0 0 0 0 0 0 0 0 0 0 0 0 0 0 0 0 0 0 0 0 0 0 0 0 0 0 0 0 0 0 0 0 0 0 0 0 0 0 0 0 0 0 0 0 0 0 0 0 0 0 0 0 0 0 0 0 0 0 0 0 0 0 0 0 0 0 0 0 0 0 0 0 0 0 0 0 0 0 0 0 0 0 0 0 0 0 0 0 0 0 0 0 0 0 0 0 0 0 0 0 0 0 0 0 0 0 0 0 0 0 0 0 0 0 0 0 0 0 0 0 0 0 0 0 0 0 0 0 0 0 0 0 0 0 0 0 0 0 0 0 0 0 0 0 0 0 0 0 0 0 0 0 0 0 0 0 0 0 0 0 0 0 0 0 0 0 0 0 0 0 0 0 0 0 0 0 0 0 0 0 0 0 0 0 0 0 0 0 0 0 0 0 0 0 0 0 0 0 0 0 0 0 0 0 0 0 0 0 0 0 0 0 0 0 0 0 0 0 0 0 0 0 0 0 0 0 0 0 0 0 0 0 0 0 0 0 0 0 0 0 0 0 0 0 0 0 0 0 0 0 0 0 0 0 0 0 0 0 0 0 0 0 0 0 0 0 0 0 0 0 0 0 0 0 0 0 0 0 0 0 0 0 0 0 0 0 0 0 0 0 0 0 0 0 0 0 0 0 0 0 0 0 0 0 0 0 0 0 0 0 0 0 0 0 0 0 0 0 0 0 0 0 0 0 0 0 0 0 0 0 0 0 0 0 0 0 0 0 0 0 0 0 0 0 0 0 0 0 0 0 0 0 0 0 0 0 0 0 0 0 0 0 0 0 0 0 0 0 0 0 0 0 0 0 0 0 0 0 0 0 0 0 0 0 0 0 0 0 0 0 0 4.28294e-05 3.48801e-05 0 7.2945e-05 5.07607e-05 0 0.000101812 6.03117e-05 0 0.000130785 6.59533e-05 0 0.000160325 6.92687e-05 0 0.000190458 7.10617e-05 0 0.000221179 7.1953e-05 0 0.000252364 7.23024e-05 0 0.00028392 7.23616e-05 0 0.000315743 7.22778e-05 0 0.000347755 7.21402e-05 0 0.000379891 7.19963e-05 0 0.000412107 7.18689e-05 0 0.000444371 7.17662e-05 0 0.000476661 7.16886e-05 0 0.000508964 7.16327e-05 0 0.000541273 7.1594e-05 0 0.000573582 7.15682e-05 0 0.00060589 7.15512e-05 0 0.000638195 7.15403e-05 0 0.000670497 7.1533e-05 0 0.000702797 7.15278e-05 0 0.000735093 7.15238e-05 0 0.000767387 7.15202e-05 0 0.000799678 7.15167e-05 0 0.000831967 7.15131e-05 0 0.000864253 7.15093e-05 0 0.000896538 7.15054e-05 0 0.00092882 7.15013e-05 0 0.000961101 7.14969e-05 0 0.000993381 7.14918e-05 0 </DataArray> 
</PointData> 
<Points> 
<DataArray type="Float32" NumberOfComponents="3"> 
0 0 0 0.0967742 0 0 0.193548 0 0 0.290323 0 0 0.387097 0 0 0.483871 0 0 0.580645 0 0 0.677419 0 0 0.774194 0 0 0.870968 0 0 0.967742 0 0 1.06452 0 0 1.16129 0 0 1.25806 0 0 1.35484 0 0 1.45161 0 0 1.54839 0 0 1.64516 0 0 1.74194 0 0 1.83871 0 0 1.93548 0 0 2.03226 0 0 2.12903 0 0 2.22581 0 0 2.32258 0 0 2.41935 0 0 2.51613 0 0 2.6129 0 0 2.70968 0 0 2.80645 0 0 2.90323 0 0 3 0 0 0 0.0645161 0 0.0967742 0.0645161 0 0.193548 0.0645161 0 0.290323 0.0645161 0 0.387097 0.0645161 0 0.483871 0.0645161 0 0.580645 0.0645161 0 0.677419 0.0645161 0 0.774194 0.0645161 0 0.870968 0.0645161 0 0.967742 0.0645161 0 1.06452 0.0645161 0 1.16129 0.0645161 0 1.25806 0.0645161 0 1.35484 0.0645161 0 1.45161 0.0645161 0 1.54839 0.0645161 0 1.64516 0.0645161 0 1.74194 0.0645161 0 1.83871 0.0645161 0 1.93548 0.0645161 0 2.03226 0.0645161 0 2.12903 0.0645161 0 2.22581 0.0645161 0 2.32258 0.0645161 0 2.41935 0.0645161 0 2.51613 0.0645161 0 2.6129 0.0645161 0 2.70968 0.0645161 0 2.80645 0.0645161 0 2.90323 0.0645161 0 3 0.0645161 0 0 0.129032 0 0.0967742 0.129032 0 0.193548 0.129032 0 0.290323 0.129032 0 0.387097 0.129032 0 0.483871 0.129032 0 0.580645 0.129032 0 0.677419 0.129032 0 0.774194 0.129032 0 0.870968 0.129032 0 0.967742 0.129032 0 1.06452 0.129032 0 1.16129 0.129032 0 1.25806 0.129032 0 1.35484 0.129032 0 1.45161 0.129032 0 1.54839 0.129032 0 1.64516 0.129032 0 1.74194 0.129032 0 1.83871 0.129032 0 1.93548 0.129032 0 2.03226 0.129032 0 2.12903 0.129032 0 2.22581 0.129032 0 2.32258 0.129032 0 2.41935 0.129032 0 2.51613 0.129032 0 2.6129 0.129032 0 2.70968 0.129032 0 2.80645 0.129032 0 2.90323 0.129032 0 3 0.129032 0 0 0.193548 0 0.0967742 0.193548 0 0.193548 0.193548 0 0.290323 0.193548 0 0.387097 0.193548 0 0.483871 0.193548 0 0.580645 0.193548 0 0.677419 0.193548 0 0.774194 0.193548 0 0.870968 0.193548 0 0.967742 0.193548 0 1.06452 0.193548 0 1.16129 0.193548 0 1.25806 0.193548 0 1.35484 0.193548 0 1.45161 0.193548 0 1.54839 0.193548 0 1.64516 0.193548 0 1.74194 0.193548 0 1.83871 0.193548 0 1.93548 0.193548 0 2.03226 0.193548 0 2.12903 0.193548 0 2.22581 0.193548 0 2.32258 0.193548 0 2.41935 0.193548 0 2.51613 0.193548 0 2.6129 0.193548 0 2.70968 0.193548 0 2.80645 0.193548 0 2.90323 0.193548 0 3 0.193548 0 0 0.258065 0 0.0967742 0.258065 0 0.193548 0.258065 0 0.290323 0.258065 0 0.387097 0.258065 0 0.483871 0.258065 0 0.580645 0.258065 0 0.677419 0.258065 0 0.774194 0.258065 0 0.870968 0.258065 0 0.967742 0.258065 0 1.06452 0.258065 0 1.16129 0.258065 0 1.25806 0.258065 0 1.35484 0.258065 0 1.45161 0.258065 0 1.54839 0.258065 0 1.64516 0.258065 0 1.74194 0.258065 0 1.83871 0.258065 0 1.93548 0.258065 0 2.03226 0.258065 0 2.12903 0.258065 0 2.22581 0.258065 0 2.32258 0.258065 0 2.41935 0.258065 0 2.51613 0.258065 0 2.6129 0.258065 0 2.70968 0.258065 0 2.80645 0.258065 0 2.90323 0.258065 0 3 0.258065 0 0 0.322581 0 0.0967742 0.322581 0 0.193548 0.322581 0 0.290323 0.322581 0 0.387097 0.322581 0 0.483871 0.322581 0 0.580645 0.322581 0 0.677419 0.322581 0 0.774194 0.322581 0 0.870968 0.322581 0 0.967742 0.322581 0 1.06452 0.322581 0 1.16129 0.322581 0 1.25806 0.322581 0 1.35484 0.322581 0 1.45161 0.322581 0 1.54839 0.322581 0 1.64516 0.322581 0 1.74194 0.322581 0 1.83871 0.322581 0 1.93548 0.322581 0 2.03226 0.322581 0 2.12903 0.322581 0 2.22581 0.322581 0 2.32258 0.322581 0 2.41935 0.322581 0 2.51613 0.322581 0 2.6129 0.322581 0 2.70968 0.322581 0 2.80645 0.322581 0 2.90323 0.322581 0 3 0.322581 0 0 0.387097 0 0.0967742 0.387097 0 0.193548 0.387097 0 0.290323 0.387097 0 0.387097 0.387097 0 0.483871 0.387097 0 0.580645 0.387097 0 0.677419 0.387097 0 0.774194 0.387097 0 0.870968 0.387097 0 0.967742 0.387097 0 1.06452 0.387097 0 1.16129 0.387097 0 1.25806 0.387097 0 1.35484 0.387097 0 1.45161 0.387097 0 1.54839 0.387097 0 1.64516 0.387097 0 1.74194 0.387097 0 1.83871 0.387097 0 1.93548 0.387097 0 2.03226 0.387097 0 2.12903 0.387097 0 2.22581 0.387097 0 2.32258 0.387097 0 2.41935 0.387097 0 2.51613 0.387097 0 2.6129 0.387097 0 2.70968 0.387097 0 2.80645 0.387097 0 2.90323 0.387097 0 3 0.387097 0 0 0.451613 0 0.0967742 0.451613 0 0.193548 0.451613 0 0.290323 0.451613 0 0.387097 0.451613 0 0.483871 0.451613 0 0.580645 0.451613 0 0.677419 0.451613 0 0.774194 0.451613 0 0.870968 0.451613 0 0.967742 0.451613 0 1.06452 0.451613 0 1.16129 0.451613 0 1.25806 0.451613 0 1.35484 0.451613 0 1.45161 0.451613 0 1.54839 0.451613 0 1.64516 0.451613 0 1.74194 0.451613 0 1.83871 0.451613 0 1.93548 0.451613 0 2.03226 0.451613 0 2.12903 0.451613 0 2.22581 0.451613 0 2.32258 0.451613 0 2.41935 0.451613 0 2.51613 0.451613 0 2.6129 0.451613 0 2.70968 0.451613 0 2.80645 0.451613 0 2.90323 0.451613 0 3 0.451613 0 0 0.516129 0 0.0967742 0.516129 0 0.193548 0.516129 0 0.290323 0.516129 0 0.387097 0.516129 0 0.483871 0.516129 0 0.580645 0.516129 0 0.677419 0.516129 0 0.774194 0.516129 0 0.870968 0.516129 0 0.967742 0.516129 0 1.06452 0.516129 0 1.16129 0.516129 0 1.25806 0.516129 0 1.35484 0.516129 0 1.45161 0.516129 0 1.54839 0.516129 0 1.64516 0.516129 0 1.74194 0.516129 0 1.83871 0.516129 0 1.93548 0.516129 0 2.03226 0.516129 0 2.12903 0.516129 0 2.22581 0.516129 0 2.32258 0.516129 0 2.41935 0.516129 0 2.51613 0.516129 0 2.6129 0.516129 0 2.70968 0.516129 0 2.80645 0.516129 0 2.90323 0.516129 0 3 0.516129 0 0 0.580645 0 0.0967742 0.580645 0 0.193548 0.580645 0 0.290323 0.580645 0 0.387097 0.580645 0 0.483871 0.580645 0 0.580645 0.580645 0 0.677419 0.580645 0 0.774194 0.580645 0 0.870968 0.580645 0 0.967742 0.580645 0 1.06452 0.580645 0 1.16129 0.580645 0 1.25806 0.580645 0 1.35484 0.580645 0 1.45161 0.580645 0 1.54839 0.580645 0 1.64516 0.580645 0 1.74194 0.580645 0 1.83871 0.580645 0 1.93548 0.580645 0 2.03226 0.580645 0 2.12903 0.580645 0 2.22581 0.580645 0 2.32258 0.580645 0 2.41935 0.580645 0 2.51613 0.580645 0 2.6129 0.580645 0 2.70968 0.580645 0 2.80645 0.580645 0 2.90323 0.580645 0 3 0.580645 0 0 0.645161 0 0.0967742 0.645161 0 0.193548 0.645161 0 0.290323 0.645161 0 0.387097 0.645161 0 0.483871 0.645161 0 0.580645 0.645161 0 0.677419 0.645161 0 0.774194 0.645161 0 0.870968 0.645161 0 0.967742 0.645161 0 1.06452 0.645161 0 1.16129 0.645161 0 1.25806 0.645161 0 1.35484 0.645161 0 1.45161 0.645161 0 1.54839 0.645161 0 1.64516 0.645161 0 1.74194 0.645161 0 1.83871 0.645161 0 1.93548 0.645161 0 2.03226 0.645161 0 2.12903 0.645161 0 2.22581 0.645161 0 2.32258 0.645161 0 2.41935 0.645161 0 2.51613 0.645161 0 2.6129 0.645161 0 2.70968 0.645161 0 2.80645 0.645161 0 2.90323 0.645161 0 3 0.645161 0 0 0.709677 0 0.0967742 0.709677 0 0.193548 0.709677 0 0.290323 0.709677 0 0.387097 0.709677 0 0.483871 0.709677 0 0.580645 0.709677 0 0.677419 0.709677 0 0.774194 0.709677 0 0.870968 0.709677 0 0.967742 0.709677 0 1.06452 0.709677 0 1.16129 0.709677 0 1.25806 0.709677 0 1.35484 0.709677 0 1.45161 0.709677 0 1.54839 0.709677 0 1.64516 0.709677 0 1.74194 0.709677 0 1.83871 0.709677 0 1.93548 0.709677 0 2.03226 0.709677 0 2.12903 0.709677 0 2.22581 0.709677 0 2.32258 0.709677 0 2.41935 0.709677 0 2.51613 0.709677 0 2.6129 0.709677 0 2.70968 0.709677 0 2.80645 0.709677 0 2.90323 0.709677 0 3 0.709677 0 0 0.774194 0 0.0967742 0.774194 0 0.193548 0.774194 0 0.290323 0.774194 0 0.387097 0.774194 0 0.483871 0.774194 0 0.580645 0.774194 0 0.677419 0.774194 0 0.774194 0.774194 0 0.870968 0.774194 0 0.967742 0.774194 0 1.06452 0.774194 0 1.16129 0.774194 0 1.25806 0.774194 0 1.35484 0.774194 0 1.45161 0.774194 0 1.54839 0.774194 0 1.64516 0.774194 0 1.74194 0.774194 0 1.83871 0.774194 0 1.93548 0.774194 0 2.03226 0.774194 0 2.12903 0.774194 0 2.22581 0.774194 0 2.32258 0.774194 0 2.41935 0.774194 0 2.51613 0.774194 0 2.6129 0.774194 0 2.70968 0.774194 0 2.80645 0.774194 0 2.90323 0.774194 0 3 0.774194 0 0 0.83871 0 0.0967742 0.83871 0 0.193548 0.83871 0 0.290323 0.83871 0 0.387097 0.83871 0 0.483871 0.83871 0 0.580645 0.83871 0 0.677419 0.83871 0 0.774194 0.83871 0 0.870968 0.83871 0 0.967742 0.83871 0 1.06452 0.83871 0 1.16129 0.83871 0 1.25806 0.83871 0 1.35484 0.83871 0 1.45161 0.83871 0 1.54839 0.83871 0 1.64516 0.83871 0 1.74194 0.83871 0 1.83871 0.83871 0 1.93548 0.83871 0 2.03226 0.83871 0 2.12903 0.83871 0 2.22581 0.83871 0 2.32258 0.83871 0 2.41935 0.83871 0 2.51613 0.83871 0 2.6129 0.83871 0 2.70968 0.83871 0 2.80645 0.83871 0 2.90323 0.83871 0 3 0.83871 0 0 0.903226 0 0.0967742 0.903226 0 0.193548 0.903226 0 0.290323 0.903226 0 0.387097 0.903226 0 0.483871 0.903226 0 0.580645 0.903226 0 0.677419 0.903226 0 0.774194 0.903226 0 0.870968 0.903226 0 0.967742 0.903226 0 1.06452 0.903226 0 1.16129 0.903226 0 1.25806 0.903226 0 1.35484 0.903226 0 1.45161 0.903226 0 1.54839 0.903226 0 1.64516 0.903226 0 1.74194 0.903226 0 1.83871 0.903226 0 1.93548 0.903226 0 2.03226 0.903226 0 2.12903 0.903226 0 2.22581 0.903226 0 2.32258 0.903226 0 2.41935 0.903226 0 2.51613 0.903226 0 2.6129 0.903226 0 2.70968 0.903226 0 2.80645 0.903226 0 2.90323 0.903226 0 3 0.903226 0 0 0.967742 0 0.0967742 0.967742 0 0.193548 0.967742 0 0.290323 0.967742 0 0.387097 0.967742 0 0.483871 0.967742 0 0.580645 0.967742 0 0.677419 0.967742 0 0.774194 0.967742 0 0.870968 0.967742 0 0.967742 0.967742 0 1.06452 0.967742 0 1.16129 0.967742 0 1.25806 0.967742 0 1.35484 0.967742 0 1.45161 0.967742 0 1.54839 0.967742 0 1.64516 0.967742 0 1.74194 0.967742 0 1.83871 0.967742 0 1.93548 0.967742 0 2.03226 0.967742 0 2.12903 0.967742 0 2.22581 0.967742 0 2.32258 0.967742 0 2.41935 0.967742 0 2.51613 0.967742 0 2.6129 0.967742 0 2.70968 0.967742 0 2.80645 0.967742 0 2.90323 0.967742 0 3 0.967742 0 0 1.03226 0 0.0967742 1.03226 0 0.193548 1.03226 0 0.290323 1.03226 0 0.387097 1.03226 0 0.483871 1.03226 0 0.580645 1.03226 0 0.677419 1.03226 0 0.774194 1.03226 0 0.870968 1.03226 0 0.967742 1.03226 0 1.06452 1.03226 0 1.16129 1.03226 0 1.25806 1.03226 0 1.35484 1.03226 0 1.45161 1.03226 0 1.54839 1.03226 0 1.64516 1.03226 0 1.74194 1.03226 0 1.83871 1.03226 0 1.93548 1.03226 0 2.03226 1.03226 0 2.12903 1.03226 0 2.22581 1.03226 0 2.32258 1.03226 0 2.41935 1.03226 0 2.51613 1.03226 0 2.6129 1.03226 0 2.70968 1.03226 0 2.80645 1.03226 0 2.90323 1.03226 0 3 1.03226 0 0 1.09677 0 0.0967742 1.09677 0 0.193548 1.09677 0 0.290323 1.09677 0 0.387097 1.09677 0 0.483871 1.09677 0 0.580645 1.09677 0 0.677419 1.09677 0 0.774194 1.09677 0 0.870968 1.09677 0 0.967742 1.09677 0 1.06452 1.09677 0 1.16129 1.09677 0 1.25806 1.09677 0 1.35484 1.09677 0 1.45161 1.09677 0 1.54839 1.09677 0 1.64516 1.09677 0 1.74194 1.09677 0 1.83871 1.09677 0 1.93548 1.09677 0 2.03226 1.09677 0 2.12903 1.09677 0 2.22581 1.09677 0 2.32258 1.09677 0 2.41935 1.09677 0 2.51613 1.09677 0 2.6129 1.09677 0 2.70968 1.09677 0 2.80645 1.09677 0 2.90323 1.09677 0 3 1.09677 0 0 1.16129 0 0.0967742 1.16129 0 0.193548 1.16129 0 0.290323 1.16129 0 0.387097 1.16129 0 0.483871 1.16129 0 0.580645 1.16129 0 0.677419 1.16129 0 0.774194 1.16129 0 0.870968 1.16129 0 0.967742 1.16129 0 1.06452 1.16129 0 1.16129 1.16129 0 1.25806 1.16129 0 1.35484 1.16129 0 1.45161 1.16129 0 1.54839 1.16129 0 1.64516 1.16129 0 1.74194 1.16129 0 1.83871 1.16129 0 1.93548 1.16129 0 2.03226 1.16129 0 2.12903 1.16129 0 2.22581 1.16129 0 2.32258 1.16129 0 2.41935 1.16129 0 2.51613 1.16129 0 2.6129 1.16129 0 2.70968 1.16129 0 2.80645 1.16129 0 2.90323 1.16129 0 3 1.16129 0 0 1.22581 0 0.0967742 1.22581 0 0.193548 1.22581 0 0.290323 1.22581 0 0.387097 1.22581 0 0.483871 1.22581 0 0.580645 1.22581 0 0.677419 1.22581 0 0.774194 1.22581 0 0.870968 1.22581 0 0.967742 1.22581 0 1.06452 1.22581 0 1.16129 1.22581 0 1.25806 1.22581 0 1.35484 1.22581 0 1.45161 1.22581 0 1.54839 1.22581 0 1.64516 1.22581 0 1.74194 1.22581 0 1.83871 1.22581 0 1.93548 1.22581 0 2.03226 1.22581 0 2.12903 1.22581 0 2.22581 1.22581 0 2.32258 1.22581 0 2.41935 1.22581 0 2.51613 1.22581 0 2.6129 1.22581 0 2.70968 1.22581 0 2.80645 1.22581 0 2.90323 1.22581 0 3 1.22581 0 0 1.29032 0 0.0967742 1.29032 0 0.193548 1.29032 0 0.290323 1.29032 0 0.387097 1.29032 0 0.483871 1.29032 0 0.580645 1.29032 0 0.677419 1.29032 0 0.774194 1.29032 0 0.870968 1.29032 0 0.967742 1.29032 0 1.06452 1.29032 0 1.16129 1.29032 0 1.25806 1.29032 0 1.35484 1.29032 0 1.45161 1.29032 0 1.54839 1.29032 0 1.64516 1.29032 0 1.74194 1.29032 0 1.83871 1.29032 0 1.93548 1.29032 0 2.03226 1.29032 0 2.12903 1.29032 0 2.22581 1.29032 0 2.32258 1.29032 0 2.41935 1.29032 0 2.51613 1.29032 0 2.6129 1.29032 0 2.70968 1.29032 0 2.80645 1.29032 0 2.90323 1.29032 0 3 1.29032 0 0 1.35484 0 0.0967742 1.35484 0 0.193548 1.35484 0 0.290323 1.35484 0 0.387097 1.35484 0 0.483871 1.35484 0 0.580645 1.35484 0 0.677419 1.35484 0 0.774194 1.35484 0 0.870968 1.35484 0 0.967742 1.35484 0 1.06452 1.35484 0 1.16129 1.35484 0 1.25806 1.35484 0 1.35484 1.35484 0 1.45161 1.35484 0 1.54839 1.35484 0 1.64516 1.35484 0 1.74194 1.35484 0 1.83871 1.35484 0 1.93548 1.35484 0 2.03226 1.35484 0 2.12903 1.35484 0 2.22581 1.35484 0 2.32258 1.35484 0 2.41935 1.35484 0 2.51613 1.35484 0 2.6129 1.35484 0 2.70968 1.35484 0 2.80645 1.35484 0 2.90323 1.35484 0 3 1.35484 0 0 1.41935 0 0.0967742 1.41935 0 0.193548 1.41935 0 0.290323 1.41935 0 0.387097 1.41935 0 0.483871 1.41935 0 0.580645 1.41935 0 0.677419 1.41935 0 0.774194 1.41935 0 0.870968 1.41935 0 0.967742 1.41935 0 1.06452 1.41935 0 1.16129 1.41935 0 1.25806 1.41935 0 1.35484 1.41935 0 1.45161 1.41935 0 1.54839 1.41935 0 1.64516 1.41935 0 1.74194 1.41935 0 1.83871 1.41935 0 1.93548 1.41935 0 2.03226 1.41935 0 2.12903 1.41935 0 2.22581 1.41935 0 2.32258 1.41935 0 2.41935 1.41935 0 2.51613 1.41935 0 2.6129 1.41935 0 2.70968 1.41935 0 2.80645 1.41935 0 2.90323 1.41935 0 3 1.41935 0 0 1.48387 0 0.0967742 1.48387 0 0.193548 1.48387 0 0.290323 1.48387 0 0.387097 1.48387 0 0.483871 1.48387 0 0.580645 1.48387 0 0.677419 1.48387 0 0.774194 1.48387 0 0.870968 1.48387 0 0.967742 1.48387 0 1.06452 1.48387 0 1.16129 1.48387 0 1.25806 1.48387 0 1.35484 1.48387 0 1.45161 1.48387 0 1.54839 1.48387 0 1.64516 1.48387 0 1.74194 1.48387 0 1.83871 1.48387 0 1.93548 1.48387 0 2.03226 1.48387 0 2.12903 1.48387 0 2.22581 1.48387 0 2.32258 1.48387 0 2.41935 1.48387 0 2.51613 1.48387 0 2.6129 1.48387 0 2.70968 1.48387 0 2.80645 1.48387 0 2.90323 1.48387 0 3 1.48387 0 0 1.54839 0 0.0967742 1.54839 0 0.193548 1.54839 0 0.290323 1.54839 0 0.387097 1.54839 0 0.483871 1.54839 0 0.580645 1.54839 0 0.677419 1.54839 0 0.774194 1.54839 0 0.870968 1.54839 0 0.967742 1.54839 0 1.06452 1.54839 0 1.16129 1.54839 0 1.25806 1.54839 0 1.35484 1.54839 0 1.45161 1.54839 0 1.54839 1.54839 0 1.64516 1.54839 0 1.74194 1.54839 0 1.83871 1.54839 0 1.93548 1.54839 0 2.03226 1.54839 0 2.12903 1.54839 0 2.22581 1.54839 0 2.32258 1.54839 0 2.41935 1.54839 0 2.51613 1.54839 0 2.6129 1.54839 0 2.70968 1.54839 0 2.80645 1.54839 0 2.90323 1.54839 0 3 1.54839 0 0 1.6129 0 0.0967742 1.6129 0 0.193548 1.6129 0 0.290323 1.6129 0 0.387097 1.6129 0 0.483871 1.6129 0 0.580645 1.6129 0 0.677419 1.6129 0 0.774194 1.6129 0 0.870968 1.6129 0 0.967742 1.6129 0 1.06452 1.6129 0 1.16129 1.6129 0 1.25806 1.6129 0 1.35484 1.6129 0 1.45161 1.6129 0 1.54839 1.6129 0 1.64516 1.6129 0 1.74194 1.6129 0 1.83871 1.6129 0 1.93548 1.6129 0 2.03226 1.6129 0 2.12903 1.6129 0 2.22581 1.6129 0 2.32258 1.6129 0 2.41935 1.6129 0 2.51613 1.6129 0 2.6129 1.6129 0 2.70968 1.6129 0 2.80645 1.6129 0 2.90323 1.6129 0 3 1.6129 0 0 1.67742 0 0.0967742 1.67742 0 0.193548 1.67742 0 0.290323 1.67742 0 0.387097 1.67742 0 0.483871 1.67742 0 0.580645 1.67742 0 0.677419 1.67742 0 0.774194 1.67742 0 0.870968 1.67742 0 0.967742 1.67742 0 1.06452 1.67742 0 1.16129 1.67742 0 1.25806 1.67742 0 1.35484 1.67742 0 1.45161 1.67742 0 1.54839 1.67742 0 1.64516 1.67742 0 1.74194 1.67742 0 1.83871 1.67742 0 1.93548 1.67742 0 2.03226 1.67742 0 2.12903 1.67742 0 2.22581 1.67742 0 2.32258 1.67742 0 2.41935 1.67742 0 2.51613 1.67742 0 2.6129 1.67742 0 2.70968 1.67742 0 2.80645 1.67742 0 2.90323 1.67742 0 3 1.67742 0 0 1.74194 0 0.0967742 1.74194 0 0.193548 1.74194 0 0.290323 1.74194 0 0.387097 1.74194 0 0.483871 1.74194 0 0.580645 1.74194 0 0.677419 1.74194 0 0.774194 1.74194 0 0.870968 1.74194 0 0.967742 1.74194 0 1.06452 1.74194 0 1.16129 1.74194 0 1.25806 1.74194 0 1.35484 1.74194 0 1.45161 1.74194 0 1.54839 1.74194 0 1.64516 1.74194 0 1.74194 1.74194 0 1.83871 1.74194 0 1.93548 1.74194 0 2.03226 1.74194 0 2.12903 1.74194 0 2.22581 1.74194 0 2.32258 1.74194 0 2.41935 1.74194 0 2.51613 1.74194 0 2.6129 1.74194 0 2.70968 1.74194 0 2.80645 1.74194 0 2.90323 1.74194 0 3 1.74194 0 0 1.80645 0 0.0967742 1.80645 0 0.193548 1.80645 0 0.290323 1.80645 0 0.387097 1.80645 0 0.483871 1.80645 0 0.580645 1.80645 0 0.677419 1.80645 0 0.774194 1.80645 0 0.870968 1.80645 0 0.967742 1.80645 0 1.06452 1.80645 0 1.16129 1.80645 0 1.25806 1.80645 0 1.35484 1.80645 0 1.45161 1.80645 0 1.54839 1.80645 0 1.64516 1.80645 0 1.74194 1.80645 0 1.83871 1.80645 0 1.93548 1.80645 0 2.03226 1.80645 0 2.12903 1.80645 0 2.22581 1.80645 0 2.32258 1.80645 0 2.41935 1.80645 0 2.51613 1.80645 0 2.6129 1.80645 0 2.70968 1.80645 0 2.80645 1.80645 0 2.90323 1.80645 0 3 1.80645 0 0 1.87097 0 0.0967742 1.87097 0 0.193548 1.87097 0 0.290323 1.87097 0 0.387097 1.87097 0 0.483871 1.87097 0 0.580645 1.87097 0 0.677419 1.87097 0 0.774194 1.87097 0 0.870968 1.87097 0 0.967742 1.87097 0 1.06452 1.87097 0 1.16129 1.87097 0 1.25806 1.87097 0 1.35484 1.87097 0 1.45161 1.87097 0 1.54839 1.87097 0 1.64516 1.87097 0 1.74194 1.87097 0 1.83871 1.87097 0 1.93548 1.87097 0 2.03226 1.87097 0 2.12903 1.87097 0 2.22581 1.87097 0 2.32258 1.87097 0 2.41935 1.87097 0 2.51613 1.87097 0 2.6129 1.87097 0 2.70968 1.87097 0 2.80645 1.87097 0 2.90323 1.87097 0 3 1.87097 0 0 1.93548 0 0.0967742 1.93548 0 0.193548 1.93548 0 0.290323 1.93548 0 0.387097 1.93548 0 0.483871 1.93548 0 0.580645 1.93548 0 0.677419 1.93548 0 0.774194 1.93548 0 0.870968 1.93548 0 0.967742 1.93548 0 1.06452 1.93548 0 1.16129 1.93548 0 1.25806 1.93548 0 1.35484 1.93548 0 1.45161 1.93548 0 1.54839 1.93548 0 1.64516 1.93548 0 1.74194 1.93548 0 1.83871 1.93548 0 1.93548 1.93548 0 2.03226 1.93548 0 2.12903 1.93548 0 2.22581 1.93548 0 2.32258 1.93548 0 2.41935 1.93548 0 2.51613 1.93548 0 2.6129 1.93548 0 2.70968 1.93548 0 2.80645 1.93548 0 2.90323 1.93548 0 3 1.93548 0 0 2 0 0.0967742 2 0 0.193548 2 0 0.290323 2 0 0.387097 2 0 0.483871 2 0 0.580645 2 0 0.677419 2 0 0.774194 2 0 0.870968 2 0 0.967742 2 0 1.06452 2 0 1.16129 2 0 1.25806 2 0 1.35484 2 0 1.45161 2 0 1.54839 2 0 1.64516 2 0 1.74194 2 0 1.83871 2 0 1.93548 2 0 2.03226 2 0 2.12903 2 0 2.22581 2 0 2.32258 2 0 2.41935 2 0 2.51613 2 0 2.6129 2 0 2.70968 2 0 2.80645 2 0 2.90323 2 0 3 2 0 
</DataArray>
</Points> 
</Piece> 
</StructuredGrid> 
</VTKFile> 
