<?xml version="1.0"?> 
<VTKFile type="StructuredGrid" version="0.1"> 
<StructuredGrid WholeExtent="0 31 0 31 0 0"> 
<Piece Extent="0 31 0 31 0 0"> 
<PointData>
<DataArray type="Float32" Name="B" format="ascii" NumberOfComponents="3"> 
5.35526e-05 -0 0 5.61941e-05 -0 0 5.88011e-05 -0 0 6.13525e-05 -0 0 6.3826e-05 -0 0 6.61989e-05 -0 0 6.84485e-05 -0 0 7.05523e-05 -0 0 7.24888e-05 -0 0 7.42378e-05 -0 0 7.57804e-05 -0 0 7.71001e-05 -0 0 7.81824e-05 -0 0 7.90155e-05 -0 0 7.95902e-05 -0 0 7.99003e-05 -0 0 7.99424e-05 -0 0 7.97161e-05 -0 0 7.9224e-05 -0 0 7.84718e-05 -0 0 7.74678e-05 -0 0 7.62232e-05 -0 0 7.47519e-05 -0 0 7.30699e-05 -0 0 7.11954e-05 -0 0 6.91482e-05 -0 0 6.69497e-05 -0 0 6.46218e-05 -0 0 6.21873e-05 -0 0 5.96685e-05 -0 0 5.70877e-05 -0 0 5.44662e-05 -0 0 5.35604e-05 -2.65591e-06 0 5.62132e-05 -2.63206e-06 0 5.88323e-05 -2.58742e-06 0 6.13962e-05 -2.52091e-06 0 6.38825e-05 -2.4318e-06 0 6.62683e-05 -2.31975e-06 0 6.85305e-05 -2.18498e-06 0 7.06465e-05 -2.02809e-06 0 7.25945e-05 -1.84987e-06 0 7.43539e-05 -1.65229e-06 0 7.5906e-05 -1.4369e-06 0 7.72338e-05 -1.20588e-06 0 7.83228e-05 -9.61654e-07 0 7.9161e-05 -7.06855e-07 0 7.97393e-05 -4.44275e-07 0 8.00513e-05 -1.76815e-07 0 8.00936e-05 9.25502e-08 0 7.98658e-05 3.60761e-07 0 7.93706e-05 6.24826e-07 0 7.86136e-05 8.81824e-07 0 7.76033e-05 1.12893e-06 0 7.63509e-05 1.36348e-06 0 7.48705e-05 1.58299e-06 0 7.31782e-05 1.78523e-06 0 7.12925e-05 1.96857e-06 0 6.92334e-05 2.13099e-06 0 6.70224e-05 2.27161e-06 0 6.46818e-05 2.38976e-06 0 6.22345e-05 2.48512e-06 0 5.97032e-05 2.55798e-06 0 5.71104e-05 2.60897e-06 0 5.44775e-05 2.63909e-06 0 5.35805e-05 -5.33142e-06 0 5.62634e-05 -5.28514e-06 0 5.89144e-05 -5.19695e-06 0 6.15117e-05 -5.06463e-06 0 6.4032e-05 -4.88673e-06 0 6.6452e-05 -4.66248e-06 0 6.87479e-05 -4.39233e-06 0 7.08963e-05 -4.07749e-06 0 7.28748e-05 -3.71957e-06 0 7.46623e-05 -3.32254e-06 0 7.62394e-05 -2.88958e-06 0 7.75888e-05 -2.42509e-06 0 7.86956e-05 -1.93397e-06 0 7.95476e-05 -1.42154e-06 0 8.01353e-05 -8.93444e-07 0 8.04523e-05 -3.5552e-07 0 8.04951e-05 1.86238e-07 0 8.02634e-05 7.25674e-07 0 7.97599e-05 1.25676e-06 0 7.89902e-05 1.77362e-06 0 7.79631e-05 2.27054e-06 0 7.66901e-05 2.74214e-06 0 7.51855e-05 3.1834e-06 0 7.34659e-05 3.5898e-06 0 7.15503e-05 3.95805e-06 0 6.94593e-05 4.28402e-06 0 6.72151e-05 4.56596e-06 0 6.48406e-05 4.80248e-06 0 6.23594e-05 4.99299e-06 0 5.97948e-05 5.13807e-06 0 5.71699e-05 5.23903e-06 0 5.45068e-05 5.29793e-06 0 5.36113e-05 -8.04593e-06 0 5.63449e-05 -7.98005e-06 0 5.90499e-05 -7.85052e-06 0 6.17033e-05 -7.65387e-06 0 6.42813e-05 -7.38779e-06 0 6.67591e-05 -7.05105e-06 0 6.91118e-05 -6.64432e-06 0 7.13151e-05 -6.16942e-06 0 7.33452e-05 -5.62881e-06 0 7.518e-05 -5.02863e-06 0 7.67994e-05 -4.37372e-06 0 7.81852e-05 -3.67084e-06 0 7.93219e-05 -2.9275e-06 0 8.0197e-05 -2.15181e-06 0 8.08006e-05 -1.35235e-06 0 8.1126e-05 -5.37985e-07 0 8.11698e-05 2.82189e-07 0 8.09315e-05 1.09884e-06 0 8.04139e-05 1.90285e-06 0 7.96229e-05 2.68525e-06 0 7.85675e-05 3.43741e-06 0 7.72597e-05 4.15106e-06 0 7.57142e-05 4.81857e-06 0 7.39486e-05 5.43299e-06 0 7.19825e-05 5.98925e-06 0 6.98376e-05 6.48105e-06 0 6.75372e-05 6.90566e-06 0 6.51054e-05 7.26101e-06 0 6.25669e-05 7.54621e-06 0 5.99462e-05 7.7622e-06 0 5.72673e-05 7.91107e-06 0 5.45532e-05 7.99606e-06 0 5.36495e-05 -1.082e-05 0 5.64563e-05 -1.0739e-05 0 5.92394e-05 -1.05717e-05 0 6.19746e-05 -1.0313e-05 0 6.46363e-05 -9.95977e-06 0 6.71983e-05 -9.51016e-06 0 6.96338e-05 -8.96498e-06 0 7.19168e-05 -8.32675e-06 0 7.4022e-05 -7.59885e-06 0 7.59258e-05 -6.78973e-06 0 7.76065e-05 -5.90611e-06 0 7.90451e-05 -4.95727e-06 0 8.02252e-05 -3.95351e-06 0 8.11336e-05 -2.90591e-06 0 8.17601e-05 -1.82613e-06 0 8.20978e-05 -7.26197e-07 0 8.2143e-05 3.81595e-07 0 8.18952e-05 1.48463e-06 0 8.13573e-05 2.57056e-06 0 8.05355e-05 3.62727e-06 0 7.94391e-05 4.64297e-06 0 7.80807e-05 5.6064e-06 0 7.64759e-05 6.5071e-06 0 7.46433e-05 7.33551e-06 0 7.26037e-05 8.08462e-06 0 7.03804e-05 8.74575e-06 0 6.79981e-05 9.31515e-06 0 6.54829e-05 9.78998e-06 0 6.2861e-05 1.01691e-05 0 6.01588e-05 1.04539e-05 0 5.74016e-05 1.06474e-05 0 5.46138e-05 1.07542e-05 0 5.36887e-05 -1.36745e-05 0 5.65896e-05 -1.35847e-05 0 5.94732e-05 -1.33844e-05 0 6.23137e-05 -1.30671e-05 0 6.50836e-05 -1.26282e-05 0 6.77544e-05 -1.20652e-05 0 7.02972e-05 -1.13791e-05 0 7.26833e-05 -1.0573e-05 0 7.48855e-05 -9.65151e-06 0 7.68781e-05 -8.62553e-06 0 7.86379e-05 -7.50389e-06 0 8.01444e-05 -6.29874e-06 0 8.13803e-05 -5.02341e-06 0 8.23314e-05 -3.69217e-06 0 8.29873e-05 -2.31997e-06 0 8.33406e-05 -9.22153e-07 0 8.33875e-05 4.85652e-07 0 8.31275e-05 1.88743e-06 0 8.25637e-05 3.26747e-06 0 8.17024e-05 4.61032e-06 0 8.05534e-05 5.90089e-06 0 7.913e-05 7.12467e-06 0 7.74488e-05 8.26809e-06 0 7.55296e-05 9.3187e-06 0 7.33951e-05 1.02673e-05 0 7.10702e-05 1.11026e-05 0 6.85821e-05 1.18196e-05 0 6.5959e-05 1.24148e-05 0 6.32295e-05 1.28866e-05 0 6.0422e-05 1.32372e-05 0 5.75641e-05 1.34708e-05 0 5.46817e-05 1.35934e-05 0 5.37205e-05 -1.66312e-05 0 5.67407e-05 -1.65409e-05 0 5.97523e-05 -1.63144e-05 0 6.27275e-05 -1.59431e-05 0 6.56361e-05 -1.54207e-05 0 6.84465e-05 -1.47438e-05 0 7.11269e-05 -1.39135e-05 0 7.36455e-05 -1.29337e-05 0 7.5972e-05 -1.18102e-05 0 7.80783e-05 -1.0557e-05 0 7.99388e-05 -9.18528e-06 0 8.15317e-05 -7.71041e-06 0 8.28382e-05 -6.14915e-06 0 8.38435e-05 -4.51927e-06 0 8.45364e-05 -2.83926e-06 0 8.49094e-05 -1.12793e-06 0 8.49585e-05 5.95596e-07 0 8.46832e-05 2.31179e-06 0 8.40866e-05 4.00145e-06 0 8.31753e-05 5.6456e-06 0 8.19596e-05 7.2256e-06 0 8.04536e-05 8.72339e-06 0 7.8675e-05 1.01219e-05 0 7.66451e-05 1.14055e-05 0 7.43888e-05 1.25623e-05 0 7.19337e-05 1.3578e-05 0 6.93096e-05 1.44464e-05 0 6.65479e-05 1.51628e-05 0 6.36804e-05 1.57257e-05 0 6.07385e-05 1.61379e-05 0 5.77522e-05 1.64052e-05 0 5.47498e-05 1.65356e-05 0 5.37351e-05 -1.97137e-05 0 5.68996e-05 -1.9634e-05 0 6.00671e-05 -1.93903e-05 0 6.32068e-05 -1.89711e-05 0 6.62853e-05 -1.83682e-05 0 6.92673e-05 -1.7577e-05 0 7.21167e-05 -1.65984e-05 0 7.47978e-05 -1.54374e-05 0 7.72766e-05 -1.41013e-05 0 7.95217e-05 -1.26075e-05 0 8.1505e-05 -1.09703e-05 0 8.32026e-05 -9.2088e-06 0 8.45944e-05 -7.34365e-06 0 8.56648e-05 -5.39655e-06 0 8.64023e-05 -3.38975e-06 0 8.67989e-05 -1.34576e-06 0 8.68506e-05 7.12726e-07 0 8.6557e-05 2.76255e-06 0 8.59211e-05 4.78092e-06 0 8.49497e-05 6.74517e-06 0 8.36535e-05 8.63281e-06 0 8.20472e-05 1.04218e-05 0 8.015e-05 1.20913e-05 0 7.79849e-05 1.36214e-05 0 7.55794e-05 1.49976e-05 0 7.29643e-05 1.62019e-05 0 7.01732e-05 1.72261e-05 0 6.72413e-05 1.80648e-05 0 6.42046e-05 1.87163e-05 0 6.10983e-05 1.91845e-05 0 5.79557e-05 1.94771e-05 0 5.48079e-05 1.96048e-05 0 5.37215e-05 -2.29463e-05 0 5.70558e-05 -2.28914e-05 0 6.04077e-05 -2.26421e-05 0 6.3743e-05 -2.21833e-05 0 6.70243e-05 -2.15041e-05 0 7.02114e-05 -2.05982e-05 0 7.3263e-05 -1.94663e-05 0 7.61384e-05 -1.81147e-05 0 7.87988e-05 -1.65525e-05 0 8.12087e-05 -1.48015e-05 0 8.33372e-05 -1.28798e-05 0 8.51578e-05 -1.08109e-05 0 8.66496e-05 -8.62001e-06 0 8.77959e-05 -6.33333e-06 0 8.85851e-05 -3.97716e-06 0 8.90091e-05 -1.57784e-06 0 8.9064e-05 8.38303e-07 0 8.87492e-05 3.2445e-06 0 8.80677e-05 5.61431e-06 0 8.70263e-05 7.92122e-06 0 8.56358e-05 1.01386e-05 0 8.39117e-05 1.22401e-05 0 8.18741e-05 1.41999e-05 0 7.95485e-05 1.59939e-05 0 7.69651e-05 1.76035e-05 0 7.41588e-05 1.90063e-05 0 7.11677e-05 2.01921e-05 0 6.80323e-05 2.11542e-05 0 6.47936e-05 2.18907e-05 0 6.14917e-05 2.24073e-05 0 5.81642e-05 2.27141e-05 0 5.48453e-05 2.28255e-05 0 5.3654e-05 -2.63558e-05 0 5.71915e-05 -2.6344e-05 0 6.07659e-05 -2.61042e-05 0 6.43391e-05 -2.56169e-05 0 6.78684e-05 -2.48672e-05 0 7.1307e-05 -2.38465e-05 0 7.46069e-05 -2.25553e-05 0 7.77203e-05 -2.10011e-05 0 8.06021e-05 -1.91958e-05 0 8.32118e-05 -1.71668e-05 0 8.55146e-05 -1.49367e-05 0 8.74821e-05 -1.25349e-05 0 8.9092e-05 -9.99215e-06 0 9.03275e-05 -7.33939e-06 0 9.1177e-05 -4.60742e-06 0 9.1633e-05 -1.82649e-06 0 9.16916e-05 9.73581e-07 0 9.13523e-05 3.76253e-06 0 9.06177e-05 6.51037e-06 0 8.94943e-05 9.18671e-06 0 8.79924e-05 1.17605e-05 0 8.61278e-05 1.42002e-05 0 8.39216e-05 1.64747e-05 0 8.14014e-05 1.85541e-05 0 7.8601e-05 2.04148e-05 0 7.55603e-05 2.20289e-05 0 7.23237e-05 2.33832e-05 0 6.89385e-05 2.44695e-05 0 6.54527e-05 2.52861e-05 0 6.19129e-05 2.58408e-05 0 5.8362e-05 2.61474e-05 0 5.48385e-05 2.62247e-05 0 5.3521e-05 -2.99706e-05 0 5.72916e-05 -3.00255e-05 0 6.11239e-05 -2.98154e-05 0 6.49752e-05 -2.93143e-05 0 6.87959e-05 -2.85024e-05 0 7.25313e-05 -2.73674e-05 0 7.61241e-05 -2.59092e-05 0 7.95176e-05 -2.41371e-05 0 8.26586e-05 -2.20671e-05 0 8.55004e-05 -1.97336e-05 0 8.80042e-05 -1.71658e-05 0 9.01391e-05 -1.44002e-05 0 9.18823e-05 -1.14741e-05 0 9.32177e-05 -8.42437e-06 0 9.41344e-05 -5.2863e-06 0 9.46259e-05 -2.09394e-06 0 9.46888e-05 1.11968e-06 0 9.43225e-05 4.32127e-06 0 9.35291e-05 7.47765e-06 0 9.23139e-05 1.05546e-05 0 9.06865e-05 1.35164e-05 0 8.86617e-05 1.63259e-05 0 8.62614e-05 1.89452e-05 0 8.3515e-05 2.13371e-05 0 8.04605e-05 2.34715e-05 0 7.71438e-05 2.53129e-05 0 7.36174e-05 2.68444e-05 0 6.99375e-05 2.80554e-05 0 6.61611e-05 2.89449e-05 0 6.23432e-05 2.95238e-05 0 5.85333e-05 2.98111e-05 0 5.47746e-05 2.98316e-05 0 5.32903e-05 -3.38207e-05 0 5.7329e-05 -3.39725e-05 0 6.14619e-05 -3.38184e-05 0 6.5641e-05 -3.33236e-05 0 6.98082e-05 -3.24609e-05 0 7.38981e-05 -3.12129e-05 0 7.7841e-05 -2.95782e-05 0 8.15678e-05 -2.75688e-05 0 8.5015e-05 -2.52061e-05 0 8.8128e-05 -2.25346e-05 0 9.08631e-05 -1.95924e-05 0 9.31881e-05 -1.64255e-05 0 9.50807e-05 -1.30793e-05 0 9.65265e-05 -9.59705e-06 0 9.75169e-05 -6.01888e-06 0 9.80471e-05 -2.38222e-06 0 9.81149e-05 1.27744e-06 0 9.77196e-05 4.92464e-06 0 9.68622e-05 8.52372e-06 0 9.5546e-05 1.20371e-05 0 9.37782e-05 1.54243e-05 0 9.15719e-05 1.86416e-05 0 8.89479e-05 2.16431e-05 0 8.59374e-05 2.43819e-05 0 8.25827e-05 2.68187e-05 0 7.89375e-05 2.89082e-05 0 7.50645e-05 3.06275e-05 0 7.10324e-05 3.19632e-05 0 6.69104e-05 3.29152e-05 0 6.27644e-05 3.34994e-05 0 5.86523e-05 3.3742e-05 0 5.4623e-05 3.36763e-05 0 5.29189e-05 -3.79386e-05 0 5.72653e-05 -3.82267e-05 0 6.17495e-05 -3.8164e-05 0 6.63176e-05 -3.77036e-05 0 7.0901e-05 -3.68069e-05 0 7.54194e-05 -3.54486e-05 0 7.97858e-05 -3.36251e-05 0 8.39137e-05 -3.13523e-05 0 8.77247e-05 -2.866e-05 0 9.11545e-05 -2.56069e-05 0 9.41547e-05 -2.2244e-05 0 9.66929e-05 -1.86298e-05 0 9.87494e-05 -1.482e-05 0 0.000100314 -1.08649e-05 0 0.000101383 -6.80928e-06 0 0.000101954 -2.69303e-06 0 0.000102028 1.44724e-06 0 0.000101603 5.57541e-06 0 0.000100678 9.65469e-06 0 9.92534e-05 1.36451e-05 0 9.73321e-05 1.75016e-05 0 9.49226e-05 2.11734e-05 0 9.20428e-05 2.46041e-05 0 8.87236e-05 2.77344e-05 0 8.50121e-05 3.0512e-05 0 8.09714e-05 3.28769e-05 0 7.6679e-05 3.47977e-05 0 7.22207e-05 3.62568e-05 0 6.76835e-05 3.72559e-05 0 6.31479e-05 3.78188e-05 0 5.86826e-05 3.79824e-05 0 5.43422e-05 3.77923e-05 0 5.23819e-05 -4.23568e-05 0 5.70727e-05 -4.28324e-05 0 6.19581e-05 -4.29091e-05 0 6.69786e-05 -4.25224e-05 0 7.20531e-05 -4.16166e-05 0 7.70815e-05 -4.01534e-05 0 8.19522e-05 -3.81251e-05 0 8.65541e-05 -3.55532e-05 0 9.0789e-05 -3.24812e-05 0 9.45801e-05 -2.8989e-05 0 9.78752e-05 -2.51462e-05 0 0.000100644 -2.10288e-05 0 0.000102874 -1.67046e-05 0 0.000104561 -1.2232e-05 0 0.000105709 -7.65936e-06 0 0.000106322 -3.0273e-06 0 0.000106402 1.62865e-06 0 0.000105947 6.27407e-06 0 0.000104956 1.08733e-05 0 0.000103421 1.53857e-05 0 0.000101339 1.97627e-05 0 9.87098e-05 2.39455e-05 0 9.55457e-05 2.78655e-05 0 9.18747e-05 3.1446e-05 0 8.77474e-05 3.46158e-05 0 8.32391e-05 3.72935e-05 0 7.84469e-05 3.94335e-05 0 7.34815e-05 4.10124e-05 0 6.84539e-05 4.20355e-05 0 6.34648e-05 4.25393e-05 0 5.85956e-05 4.25773e-05 0 5.3907e-05 4.22127e-05 0 5.15911e-05 -4.71071e-05 0 5.6668e-05 -4.78371e-05 0 6.20177e-05 -4.81191e-05 0 6.75776e-05 -4.78631e-05 0 7.32518e-05 -4.69862e-05 0 7.89119e-05 -4.54282e-05 0 8.44083e-05 -4.31732e-05 0 8.95911e-05 -4.02516e-05 0 9.43322e-05 -3.67298e-05 0 9.85399e-05 -3.27205e-05 0 0.000102161 -2.83218e-05 0 0.000105173 -2.36325e-05 0 0.000107577 -1.87358e-05 0 0.000109384 -1.36975e-05 0 0.000110606 -8.56766e-06 0 0.000111258 -3.38481e-06 0 0.000111345 1.82001e-06 0 0.000110866 7.01768e-06 0 0.000109813 1.21771e-05 0 0.000108174 1.72599e-05 0 0.000105931 2.22158e-05 0 0.000103072 2.69788e-05 0 9.95944e-05 3.14653e-05 0 9.55182e-05 3.55754e-05 0 9.08943e-05 3.92092e-05 0 8.58127e-05 4.22522e-05 0 8.04002e-05 4.46356e-05 0 7.48058e-05 4.63263e-05 0 6.91791e-05 4.73374e-05 0 6.36489e-05 4.77268e-05 0 5.83118e-05 4.75751e-05 0 5.32319e-05 4.69705e-05 0 5.0493e-05 -5.22178e-05 0 5.59898e-05 -5.32898e-05 0 6.18644e-05 -5.38696e-05 0 6.8058e-05 -5.38301e-05 0 7.44602e-05 -5.30441e-05 0 8.09033e-05 -5.14108e-05 0 8.71766e-05 -4.88975e-05 0 9.30688e-05 -4.55499e-05 0 9.84069e-05 -4.14751e-05 0 0.000103082 -3.68398e-05 0 0.000107048 -3.17849e-05 0 0.000110303 -2.64404e-05 0 0.000112869 -2.09056e-05 0 0.000114779 -1.52519e-05 0 0.000116064 -9.52731e-06 0 0.000116748 -3.76348e-06 0 0.000116842 2.01783e-06 0 0.000116347 7.79786e-06 0 0.000115248 1.35549e-05 0 0.00011352 1.92577e-05 0 0.000111131 2.48584e-05 0 0.000108045 3.02858e-05 0 0.000104238 3.54399e-05 0 9.97071e-05 4.01899e-05 0 9.44977e-05 4.43929e-05 0 8.87157e-05 4.78801e-05 0 8.25323e-05 5.0541e-05 0 7.61579e-05 5.23268e-05 0 6.98032e-05 5.32666e-05 0 6.36367e-05 5.3458e-05 0 5.777e-05 5.30259e-05 0 5.22637e-05 5.20951e-05 0 4.90198e-05 -5.77058e-05 0 5.49569e-05 -5.9232e-05 0 6.14097e-05 -6.02388e-05 0 6.83388e-05 -6.05478e-05 0 7.56269e-05 -5.99567e-05 0 8.30509e-05 -5.82872e-05 0 9.0307e-05 -5.54673e-05 0 9.70713e-05 -5.15729e-05 0 0.000103107 -4.67891e-05 0 0.000108292 -4.13738e-05 0 0.000112603 -3.55328e-05 0 0.000116077 -2.94335e-05 0 0.000118774 -2.31904e-05 0 0.000120759 -1.68743e-05 0 0.000122084 -1.05245e-05 0 0.000122789 -4.15891e-06 0 0.000122891 2.21634e-06 0 0.000122392 8.59928e-06 0 0.00012127 1.49842e-05 0 0.000119485 2.13537e-05 0 0.000116983 2.76694e-05 0 0.000113696 3.38608e-05 0 0.000109561 3.98137e-05 0 0.000104537 4.53594e-05 0 9.86433e-05 5.02902e-05 0 9.19997e-05 5.43453e-05 0 8.48404e-05 5.73356e-05 0 7.74882e-05 5.91807e-05 0 7.0247e-05 5.99482e-05 0 6.3341e-05 5.98126e-05 0 5.68898e-05 5.89727e-05 0 5.0935e-05 5.76049e-05 0 4.69731e-05 -6.35673e-05 0 5.33409e-05 -6.56868e-05 0 6.04063e-05 -6.73018e-05 0 6.81933e-05 -6.81699e-05 0 7.66171e-05 -6.7964e-05 0 8.5388e-05 -6.63393e-05 0 9.40055e-05 -6.31363e-05 0 0.000101917 -5.84842e-05 0 0.00010878 -5.27407e-05 0 0.00011449 -4.63236e-05 0 0.000119097 -3.95292e-05 0 0.000122717 -3.25627e-05 0 0.000125472 -2.55424e-05 0 0.00012747 -1.85268e-05 0 0.000128793 -1.15352e-05 0 0.000129496 -4.56326e-06 0 0.000129608 2.40658e-06 0 0.000129127 9.39663e-06 0 0.000128026 1.64251e-05 0 0.000126249 2.34977e-05 0 0.00012371 3.05966e-05 0 0.000120299 3.76648e-05 0 0.000115888 4.45844e-05 0 0.00011036 5.11498e-05 0 0.000103656 5.70619e-05 0 9.58789e-05 6.19e-05 0 8.73663e-05 6.53006e-05 0 7.867e-05 6.71286e-05 0 7.02908e-05 6.75377e-05 0 6.25208e-05 6.68672e-05 0 5.54478e-05 6.54408e-05 0 4.90515e-05 6.34983e-05 0 4.43311e-05 -6.97624e-05 0 5.10703e-05 -7.26318e-05 0 5.87147e-05 -7.50957e-05 0 6.74216e-05 -7.68625e-05 0 7.72464e-05 -7.74159e-05 0 8.78705e-05 -7.6037e-05 0 9.83296e-05 -7.2297e-05 0 0.000107721 -6.64815e-05 0 0.000115493 -5.93619e-05 0 0.000121665 -5.16299e-05 0 0.000126454 -4.3682e-05 0 0.000130101 -3.57346e-05 0 0.000132812 -2.78826e-05 0 0.000134745 -2.01508e-05 0 0.000136014 -1.25241e-05 0 0.000136691 -4.96486e-06 0 0.000136811 2.5762e-06 0 0.000136376 1.01535e-05 0 0.000135349 1.78175e-05 0 0.000133658 2.56082e-05 0 0.000131187 3.35434e-05 0 0.000127774 4.16012e-05 0 0.000123208 4.96883e-05 0 0.000117242 5.75885e-05 0 0.000109652 6.49025e-05 0 0.000100411 7.09345e-05 0 9.00662e-05 7.49055e-05 0 7.9519e-05 7.65216e-05 0 6.97346e-05 7.62032e-05 0 6.10351e-05 7.46624e-05 0 5.33706e-05 7.24107e-05 0 4.65891e-05 6.9738e-05 0 4.09317e-05 -7.62013e-05 0 4.78974e-05 -7.99618e-05 0 5.59471e-05 -8.35512e-05 0 6.5471e-05 -8.67284e-05 0 7.695e-05 -8.88079e-05 0 9.03994e-05 -8.83687e-05 0 0.0001041 -8.35891e-05 0 0.000115411 -7.57415e-05 0 0.000124012 -6.65671e-05 0 0.000130403 -5.71215e-05 0 0.000135125 -4.7817e-05 0 0.000138593 -3.88018e-05 0 0.000141102 -3.00977e-05 0 0.000142858 -2.16674e-05 0 0.000144 -1.34446e-05 0 0.000144615 -5.34827e-06 0 0.000144744 2.70992e-06 0 0.000144388 1.08229e-05 0 0.000143508 1.9081e-05 0 0.000142018 2.75691e-05 0 0.000139777 3.63582e-05 0 0.000136575 4.54907e-05 0 0.000132109 5.49484e-05 0 0.000125956 6.45844e-05 0 0.000117565 7.39838e-05 0 0.000106425 8.20856e-05 0 9.28508e-05 8.71382e-05 0 7.94795e-05 8.7857e-05 0 6.80325e-05 8.60516e-05 0 5.85011e-05 8.31331e-05 0 5.04131e-05 7.97816e-05 0 4.33868e-05 7.62372e-05 0 3.66754e-05 -8.27318e-05 0 4.36216e-05 -8.7436e-05 0 5.16669e-05 -9.23492e-05 0 6.14305e-05 -9.75283e-05 0 7.41705e-05 -0.000102677 0 9.27608e-05 -0.00010527 0 0.000114091 -9.81412e-05 0 0.000127305 -8.61144e-05 0 0.000136061 -7.39565e-05 0 0.00014209 -6.24255e-05 0 0.000146318 -5.16406e-05 0 0.000149302 -4.15464e-05 0 0.000151397 -3.20332e-05 0 0.000152834 -2.2974e-05 0 0.000153762 -1.42378e-05 0 0.000154272 -5.69375e-06 0 0.000154408 2.78954e-06 0 0.000154173 1.13467e-05 0 0.000153527 2.01123e-05 0 0.000152382 2.92232e-05 0 0.000150587 3.88181e-05 0 0.000147906 4.90323e-05 0 0.000143977 5.99828e-05 0 0.000138229 7.17286e-05 0 0.000129722 8.41484e-05 0 0.000116709 9.64774e-05 0 9.55191e-05 0.000103934 0 7.70058e-05 0.000101675 0 6.42824e-05 9.68501e-05 0 5.44867e-05 9.19681e-05 0 4.63755e-05 8.73191e-05 0 3.93439e-05 8.28479e-05 0 3.16941e-05 -8.91757e-05 0 3.83637e-05 -9.46955e-05 0 4.58642e-05 -0.00010084 0 5.47935e-05 -0.00010817 0 6.65032e-05 -0.000117583 0 8.40711e-05 -0.000131666 0 0.000104126 -0.000114868 0 0.000116077 -9.62669e-05 0 0.000123527 -8.06423e-05 0 0.000128381 -6.69611e-05 0 0.000131618 -5.4766e-05 0 0.0001338 -4.37084e-05 0 0.000135272 -3.35152e-05 0 0.000136254 -2.39587e-05 0 0.000136884 -1.48404e-05 0 0.000137249 -5.97954e-06 0 0.00013739 2.79701e-06 0 0.000137312 1.16642e-05 0 0.00013698 2.07998e-05 0 0.000136316 3.03937e-05 0 0.00013518 4.06567e-05 0 0.000133349 5.18298e-05 0 0.000130466 6.41988e-05 0 0.00012595 7.81205e-05 0 0.000118802 9.40517e-05 0 0.000107091 0.000113017 0 8.71965e-05 0.000130217 0 6.97008e-05 0.000116544 0 5.79816e-05 0.000107518 0 4.89806e-05 0.00010053 0 4.13733e-05 9.46741e-05 0 3.45854e-05 8.93966e-05 0 2.60963e-05 -9.53998e-05 0 3.22908e-05 -0.000101361 0 3.86709e-05 -0.000108189 0 4.54877e-05 -0.000116872 0 5.33254e-05 -0.000128931 0 6.24685e-05 -0.000146809 0 7.12819e-05 -0.000126622 0 7.80302e-05 -0.000103734 0 8.23879e-05 -8.541e-05 0 8.51057e-05 -7.00367e-05 0 8.67837e-05 -5.67681e-05 0 8.78104e-05 -4.50157e-05 0 8.8434e-05 -3.43673e-05 0 8.88156e-05 -2.45101e-05 0 8.9061e-05 -1.51894e-05 0 8.92364e-05 -6.1829e-06 0 8.93773e-05 2.71658e-06 0 8.94911e-05 1.17176e-05 0 8.95561e-05 2.10345e-05 0 8.95162e-05 3.09025e-05 0 8.92703e-05 4.15947e-05 0 8.86534e-05 5.34451e-05 0 8.74034e-05 6.68872e-05 0 8.51068e-05 8.25256e-05 0 8.11296e-05 0.000101211 0 7.46827e-05 0.000124547 0 6.60588e-05 0.000145239 0 5.69764e-05 0.000127877 0 4.90801e-05 0.000116294 0 4.2121e-05 0.000108006 0 3.55656e-05 0.000101484 0 2.9206e-05 9.57553e-05 0 2.03159e-05 -0.000101438 0 2.61037e-05 -0.000107219 0 3.11418e-05 -0.000113758 0 3.52493e-05 -0.000122336 0 3.85005e-05 -0.000134643 0 4.1061e-05 -0.000152617 0 4.29221e-05 -0.000131358 0 4.40191e-05 -0.000106854 0 4.44681e-05 -8.72606e-05 0 4.44791e-05 -7.10554e-05 0 4.42362e-05 -5.72788e-05 0 4.38761e-05 -4.52339e-05 0 4.34995e-05 -3.44377e-05 0 4.31814e-05 -2.45313e-05 0 4.2978e-05 -1.52282e-05 0 4.29298e-05 -6.28141e-06 0 4.3063e-05 2.53801e-06 0 4.33889e-05 1.14608e-05 0 4.39031e-05 2.07255e-05 0 4.45827e-05 3.05973e-05 0 4.53816e-05 4.13893e-05 0 4.62241e-05 5.34926e-05 0 4.6994e-05 6.7425e-05 0 4.75214e-05 8.39134e-05 0 4.75715e-05 0.000103932 0 4.68722e-05 0.000128998 0 4.5248e-05 0.000150915 0 4.27279e-05 0.000133617 0 3.93312e-05 0.000121915 0 3.49569e-05 0.000113799 0 2.96282e-05 0.00010756 0 2.36098e-05 0.000101962 0 1.48572e-05 -0.00010763 0 2.06806e-05 -0.000112393 0 2.45517e-05 -0.000117355 0 2.58522e-05 -0.000124116 0 2.43206e-05 -0.000134655 0 2.02253e-05 -0.00015129 0 1.4988e-05 -0.00012957 0 1.03022e-05 -0.000105148 0 6.62171e-06 -8.5741e-05 0 3.74471e-06 -6.97066e-05 0 1.44895e-06 -5.60934e-05 0 -3.94415e-07 -4.42255e-05 0 -1.84357e-06 -3.36318e-05 0 -2.91582e-06 -2.3958e-05 0 -3.60727e-06 -1.49163e-05 0 -3.90434e-06 -6.25536e-06 0 -3.79023e-06 2.26016e-06 0 -3.2482e-06 1.08692e-05 0 -2.26292e-06 1.98196e-05 0 -8.20067e-07 2.93869e-05 0 1.09619e-06 3.98952e-05 0 3.50929e-06 5.17463e-05 0 6.46321e-06 6.54658e-05 0 1.00455e-05 8.17835e-05 0 1.4406e-05 0.000101686 0 1.96469e-05 0.000126827 0 2.52065e-05 0.000149432 0 2.93131e-05 0.000133731 0 3.05468e-05 0.000124007 0 2.87529e-05 0.000117795 0 2.43876e-05 0.000113076 0 1.82405e-05 0.000108355 0 1.04051e-05 -0.000114817 0 1.72962e-05 -0.00011746 0 2.06105e-05 -0.000119207 0 1.93661e-05 -0.000122179 0 1.29551e-05 -0.00012858 0 6.67309e-07 -0.000141781 0 -1.38009e-05 -0.000120716 0 -2.44837e-05 -9.85793e-05 0 -3.2002e-05 -8.08789e-05 0 -3.75408e-05 -6.59952e-05 0 -4.1769e-05 -5.3195e-05 0 -4.50445e-05 -4.19622e-05 0 -4.75534e-05 -3.19183e-05 0 -4.93866e-05 -2.27603e-05 0 -5.05815e-05 -1.42285e-05 0 -5.11453e-05 -6.08642e-06 0 -5.10674e-05 1.89311e-06 0 -5.03244e-05 9.94344e-06 0 -4.88817e-05 1.83069e-05 0 -4.66896e-05 2.72499e-05 0 -4.3676e-05 3.70794e-05 0 -3.97302e-05 4.81641e-05 0 -3.46716e-05 6.09648e-05 0 -2.81866e-05 7.60897e-05 0 -1.97035e-05 9.43485e-05 0 -8.19257e-06 0.00011741 0 6.77146e-06 0.000139712 0 1.90463e-05 0.000127877 0 2.48875e-05 0.000122665 0 2.51955e-05 0.00012038 0 2.09888e-05 0.000118702 0 1.36367e-05 0.000115748 0 7.80421e-06 -0.000124659 0 1.76527e-05 -0.000123523 0 2.12994e-05 -0.00011981 0 1.79476e-05 -0.000116891 0 7.68996e-06 -0.000116576 0 -1.22965e-05 -0.000117923 0 -3.79618e-05 -0.000104472 0 -5.27218e-05 -8.79565e-05 0 -6.29157e-05 -7.32436e-05 0 -7.04876e-05 -6.02428e-05 0 -7.63124e-05 -4.87506e-05 0 -8.08458e-05 -3.85228e-05 0 -8.43305e-05 -2.9327e-05 0 -8.68909e-05 -2.09421e-05 0 -8.85838e-05 -1.31549e-05 0 -8.9426e-05 -5.75711e-06 0 -8.94075e-05 1.4593e-06 0 -8.8498e-05 8.71134e-06 0 -8.6646e-05 1.62237e-05 0 -8.37742e-05 2.42382e-05 0 -7.97691e-05 3.30245e-05 0 -7.44617e-05 4.28889e-05 0 -6.75921e-05 5.41815e-05 0 -5.87375e-05 6.72939e-05 0 -4.71367e-05 8.25796e-05 0 -3.10703e-05 0.000100267 0 -4.54024e-06 0.000115486 0 1.54792e-05 0.000116268 0 2.47064e-05 0.000118508 0 2.62238e-05 0.000122402 0 2.0836e-05 0.000125748 0 1.0321e-05 0.000125706 0 8.39655e-06 -0.000140491 0 2.47077e-05 -0.000132248 0 2.9149e-05 -0.000119288 0 2.30965e-05 -0.000108656 0 1.0339e-05 -0.000101825 0 -6.72346e-06 -9.58886e-05 0 -2.45081e-05 -8.68372e-05 0 -3.90787e-05 -7.5422e-05 0 -5.03301e-05 -6.38571e-05 0 -5.91362e-05 -5.29829e-05 0 -6.61315e-05 -4.30436e-05 0 -7.16952e-05 -3.40536e-05 0 -7.60391e-05 -2.59272e-05 0 -7.92741e-05 -1.85283e-05 0 -8.14508e-05 -1.16941e-05 0 -8.25819e-05 -5.2482e-06 0 -8.26534e-05 9.93235e-07 0 -8.16278e-05 7.22451e-06 0 -7.9442e-05 1.36448e-05 0 -7.60009e-05 2.04626e-05 0 -7.11677e-05 2.78999e-05 0 -6.47476e-05 3.61933e-05 0 -5.64653e-05 4.55827e-05 0 -4.59316e-05 5.62736e-05 0 -3.26094e-05 6.8287e-05 0 -1.59047e-05 8.10963e-05 0 3.53671e-06 9.2665e-05 0 2.0972e-05 0.000102068 0 3.20236e-05 0.000112407 0 3.43548e-05 0.00012483 0 2.61303e-05 0.0001364 0 8.82898e-06 0.000141211 0 1.51997e-05 -0.000170122 0 4.53898e-05 -0.000145478 0 4.77842e-05 -0.000115265 0 3.45237e-05 -9.59466e-05 0 1.74242e-05 -8.57091e-05 0 4.22361e-07 -7.8725e-05 0 -1.52593e-05 -7.13487e-05 0 -2.88279e-05 -6.27914e-05 0 -4.01709e-05 -5.36951e-05 0 -4.95887e-05 -4.47554e-05 0 -5.73906e-05 -3.63715e-05 0 -6.3783e-05 -2.87128e-05 0 -6.88817e-05 -2.17965e-05 0 -7.27445e-05 -1.55489e-05 0 -7.53937e-05 -9.84557e-06 0 -7.68282e-05 -4.53641e-06 0 -7.7027e-05 5.39696e-07 0 -7.59477e-05 5.55264e-06 0 -7.35214e-05 1.06727e-05 0 -6.96457e-05 1.6071e-05 0 -6.41756e-05 2.19214e-05 0 -5.69134e-05 2.83975e-05 0 -4.76014e-05 3.56618e-05 0 -3.59267e-05 4.38389e-05 0 -2.15833e-05 5.29468e-05 0 -4.51676e-06 6.2892e-05 0 1.44573e-05 7.36405e-05 0 3.31105e-05 8.62859e-05 0 4.80097e-05 0.00010353 0 5.36216e-05 0.000127451 0 4.16786e-05 0.000154154 0 9.86459e-06 0.000168726 0 3.77691e-05 -0.000238139 0 0.000100259 -0.000160758 0 8.07024e-05 -9.68203e-05 0 4.82547e-05 -7.39359e-05 0 2.41046e-05 -6.68042e-05 0 6.25951e-06 -6.25002e-05 0 -8.2846e-06 -5.72631e-05 0 -2.08625e-05 -5.0672e-05 0 -3.19268e-05 -4.33277e-05 0 -4.16359e-05 -3.59317e-05 0 -5.00434e-05 -2.89486e-05 0 -5.71543e-05 -2.26146e-05 0 -6.29542e-05 -1.69893e-05 0 -6.74244e-05 -1.20221e-05 0 -7.05479e-05 -7.60268e-06 0 -7.23064e-05 -3.59349e-06 0 -7.2674e-05 1.50288e-07 0 -7.16085e-05 3.77595e-06 0 -6.90426e-05 7.42435e-06 0 -6.48756e-05 1.12286e-05 0 -5.89644e-05 1.53163e-05 0 -5.11182e-05 1.98078e-05 0 -4.10959e-05 2.48137e-05 0 -2.86187e-05 3.04336e-05 0 -1.34144e-05 3.67658e-05 0 4.67729e-06 4.40678e-05 0 2.55497e-05 5.30821e-05 0 4.86888e-05 6.58832e-05 0 7.25592e-05 8.71083e-05 0 9.09254e-05 0.000124859 0 8.16329e-05 0.000183753 0 1.48204e-05 0.000226402 0 0.000124148 -0.000481082 0 0.000252701 -0.000119522 0 0.000112583 -3.45423e-05 0 5.13386e-05 -3.94948e-05 0 2.47206e-05 -4.64234e-05 0 9.12029e-06 -4.76706e-05 0 -3.14521e-06 -4.46744e-05 0 -1.43717e-05 -3.93017e-05 0 -2.50214e-05 -3.29769e-05 0 -3.49759e-05 -2.66521e-05 0 -4.39884e-05 -2.08464e-05 0 -5.18352e-05 -1.57895e-05 0 -5.83554e-05 -1.15145e-05 0 -6.34497e-05 -7.94411e-06 0 -6.70646e-05 -4.94983e-06 0 -6.91716e-05 -2.38824e-06 0 -6.97485e-05 -1.21867e-07 0 -6.87625e-05 1.97716e-06 0 -6.61566e-05 4.02033e-06 0 -6.18397e-05 6.1025e-06 0 -5.56779e-05 8.30587e-06 0 -4.74896e-05 1.07015e-05 0 -3.70422e-05 1.33517e-05 0 -2.40518e-05 1.63194e-05 0 -8.17629e-06 1.96959e-05 0 1.1028e-05 2.37408e-05 0 3.42736e-05 2.9141e-05 0 6.29925e-05 3.77407e-05 0 0.000100181 5.45693e-05 0 0.000150426 9.51397e-05 0 0.000197069 0.000213055 0 2.75151e-05 0.000398589 0 -0.00263178 -0.0213564 0 0.000262823 0.000358267 0 5.68581e-05 6.2869e-05 0 2.6263e-05 -9.77757e-06 0 1.651e-05 -3.2359e-05 0 9.38281e-06 -3.70703e-05 0 1.20792e-06 -3.438e-05 0 -8.38373e-06 -2.8794e-05 0 -1.88498e-05 -2.25212e-05 0 -2.92696e-05 -1.67978e-05 0 -3.91099e-05 -1.19624e-05 0 -4.78521e-05 -8.16448e-06 0 -5.51885e-05 -5.32751e-06 0 -6.0957e-05 -3.2889e-06 0 -6.50882e-05 -1.86669e-06 0 -6.75633e-05 -8.93023e-07 0 -6.83802e-05 -2.29785e-07 0 -6.75287e-05 2.33016e-07 0 -6.49728e-05 5.76039e-07 0 -6.06388e-05 8.538e-07 0 -5.44074e-05 1.10176e-06 0 -4.6109e-05 1.34019e-06 0 -3.55195e-05 1.57691e-06 0 -2.23517e-05 1.80969e-06 0 -6.22616e-06 2.02741e-06 0 1.34494e-05 2.22466e-06 0 3.77867e-05 2.41769e-06 0 6.92814e-05 2.68709e-06 0 0.000114316 3.28147e-06 0 0.000192901 5.11968e-06 0 0.000408806 1.73815e-05 0 -0.00101607 0.00748785 0 </DataArray> 
</PointData> 
<Points> 
<DataArray type="Float32" NumberOfComponents="3"> 