<?xml version="1.0"?> 
<VTKFile type="StructuredGrid" version="0.1"> 
<StructuredGrid WholeExtent="0 31 0 31 0 0"> 
<Piece Extent="0 31 0 31 0 0"> 
<PointData>
<DataArray type="Float32" Name="B" format="ascii" NumberOfComponents="3"> 
0.0112469 -0.00519242 0 0.000369039 -0.000112836 0 0.000191988 -6.85379e-05 0 0.000130704 -5.56298e-05 0 9.98733e-05 -4.84769e-05 0 8.12424e-05 -4.31525e-05 0 6.85983e-05 -3.86529e-05 0 5.92831e-05 -3.46716e-05 0 5.19972e-05 -3.11098e-05 0 4.604e-05 -2.79043e-05 0 4.10189e-05 -2.50312e-05 0 3.66879e-05 -2.24936e-05 0 3.28928e-05 -2.02209e-05 0 2.95297e-05 -1.82196e-05 0 2.65224e-05 -1.6453e-05 0 2.3816e-05 -1.48804e-05 0 2.13667e-05 -1.3515e-05 0 1.91392e-05 -1.23041e-05 0 1.71049e-05 -1.12381e-05 0 1.52384e-05 -1.0312e-05 0 1.35186e-05 -9.49426e-06 0 1.19268e-05 -8.78674e-06 0 1.04459e-05 -8.17359e-06 0 9.06128e-06 -7.63992e-06 0 7.75911e-06 -7.19361e-06 0 6.52682e-06 -6.81393e-06 0 5.35306e-06 -6.50004e-06 0 4.22681e-06 -6.25229e-06 0 3.13796e-06 -6.05906e-06 0 2.07683e-06 -5.92537e-06 0 1.03385e-06 -5.84591e-06 0 0 -5.81601e-06 0 0.000659865 0.00122879 0 0.000365263 2.84147e-06 0 0.000193423 -3.76987e-05 0 0.000132121 -4.18499e-05 0 0.000101219 -4.07155e-05 0 8.25319e-05 -3.81265e-05 0 6.98225e-05 -3.50728e-05 0 6.04274e-05 -3.19381e-05 0 5.30508e-05 -2.89107e-05 0 4.6998e-05 -2.60735e-05 0 4.18815e-05 -2.34681e-05 0 3.7459e-05 -2.11303e-05 0 3.35787e-05 -1.9019e-05 0 3.01375e-05 -1.71488e-05 0 2.70595e-05 -1.54918e-05 0 2.42898e-05 -1.40137e-05 0 2.1784e-05 -1.27282e-05 0 1.95061e-05 -1.15872e-05 0 1.74268e-05 -1.05822e-05 0 1.55203e-05 -9.70893e-06 0 1.37646e-05 -8.93765e-06 0 1.21406e-05 -8.27034e-06 0 1.06306e-05 -7.69205e-06 0 9.21952e-06 -7.18876e-06 0 7.89314e-06 -6.7679e-06 0 6.6385e-06 -6.40989e-06 0 5.44392e-06 -6.11395e-06 0 4.29809e-06 -5.88039e-06 0 3.1906e-06 -5.69823e-06 0 2.11154e-06 -5.57221e-06 0 1.05109e-06 -5.49731e-06 0 0 -5.46912e-06 0 0.000194886 0.000662504 0 0.000306896 8.59237e-05 0 0.000185354 -9.24973e-06 0 0.000130551 -2.85377e-05 0 0.000101303 -3.30966e-05 0 8.3189e-05 -3.31475e-05 0 7.06914e-05 -3.15e-05 0 6.13536e-05 -2.91922e-05 0 5.396e-05 -2.66894e-05 0 4.78539e-05 -2.4216e-05 0 4.26678e-05 -2.18771e-05 0 3.81705e-05 -1.97397e-05 0 3.42161e-05 -1.77915e-05 0 3.0705e-05 -1.60544e-05 0 2.75626e-05 -1.45092e-05 0 2.47344e-05 -1.31277e-05 0 2.2176e-05 -1.19242e-05 0 1.9851e-05 -1.0855e-05 0 1.77296e-05 -9.91267e-06 0 1.57855e-05 -9.09358e-06 0 1.39961e-05 -8.37007e-06 0 1.23417e-05 -7.74405e-06 0 1.08044e-05 -7.20155e-06 0 9.36838e-06 -6.72943e-06 0 8.0192e-06 -6.33467e-06 0 6.74353e-06 -5.99888e-06 0 5.52937e-06 -5.72134e-06 0 4.36511e-06 -5.50231e-06 0 3.2401e-06 -5.3315e-06 0 2.14419e-06 -5.21334e-06 0 1.06731e-06 -5.14311e-06 0 0 -5.11668e-06 0 7.71508e-05 0.000419175 0 0.000235943 0.000122302 0 0.000170409 1.33161e-05 0 0.000126392 -1.65782e-05 0 0.000100225 -2.59242e-05 0 8.32498e-05 -2.83434e-05 0 7.12209e-05 -2.79954e-05 0 6.20695e-05 -2.64657e-05 0 5.47285e-05 -2.44638e-05 0 4.86095e-05 -2.23424e-05 0 4.33782e-05 -2.02647e-05 0 3.88221e-05 -1.83263e-05 0 3.48048e-05 -1.65414e-05 0 3.12317e-05 -1.49386e-05 0 2.8031e-05 -1.35071e-05 0 2.51491e-05 -1.2224e-05 0 2.2542e-05 -1.11041e-05 0 2.01733e-05 -1.01084e-05 0 1.80128e-05 -9.23031e-06 0 1.60335e-05 -8.46675e-06 0 1.42126e-05 -7.79218e-06 0 1.25299e-05 -7.20847e-06 0 1.09669e-05 -6.70263e-06 0 9.50761e-06 -6.26243e-06 0 8.13711e-06 -5.89438e-06 0 6.84176e-06 -5.58134e-06 0 5.60928e-06 -5.32261e-06 0 4.42779e-06 -5.11845e-06 0 3.28639e-06 -4.95924e-06 0 2.17471e-06 -4.84911e-06 0 1.08246e-06 -4.78365e-06 0 2.4434e-19 -4.75902e-06 0 3.76465e-05 0.000291434 0 0.000176468 0.000128021 0 0.000152116 2.87377e-05 0 0.000120312 -6.57822e-06 0 9.81721e-05 -1.94468e-05 0 8.27817e-05 -2.38262e-05 0 7.14403e-05 -2.46144e-05 0 6.2589e-05 -2.37881e-05 0 5.53633e-05 -2.22507e-05 0 4.9268e-05 -2.04628e-05 0 4.40143e-05 -1.86372e-05 0 3.94142e-05 -1.68943e-05 0 3.53444e-05 -1.52717e-05 0 3.17171e-05 -1.38039e-05 0 2.8464e-05 -1.24871e-05 0 2.55333e-05 -1.13039e-05 0 2.28817e-05 -1.02693e-05 0 2.04726e-05 -9.34855e-06 0 1.82758e-05 -8.53605e-06 0 1.62639e-05 -7.82924e-06 0 1.44138e-05 -7.2047e-06 0 1.27047e-05 -6.66423e-06 0 1.1118e-05 -6.19586e-06 0 9.63699e-06 -5.78828e-06 0 8.24667e-06 -5.44752e-06 0 6.93303e-06 -5.1577e-06 0 5.68352e-06 -4.91819e-06 0 4.48601e-06 -4.7292e-06 0 3.32939e-06 -4.58183e-06 0 2.20306e-06 -4.47989e-06 0 1.09655e-06 -4.4193e-06 0 0 -4.39651e-06 0 2.14501e-05 0.000214982 0 0.000132795 0.000119442 0 0.000133446 3.75836e-05 0 0.000113078 1.19025e-06 0 9.53807e-05 -1.3834e-05 0 8.18749e-05 -1.96841e-05 0 7.13893e-05 -2.14033e-05 0 6.29312e-05 -2.11844e-05 0 5.5874e-05 -2.00646e-05 0 4.98341e-05 -1.85859e-05 0 4.45781e-05 -1.70004e-05 0 3.99476e-05 -1.54477e-05 0 3.58351e-05 -1.39854e-05 0 3.21609e-05 -1.26523e-05 0 2.88613e-05 -1.14511e-05 0 2.58866e-05 -1.0369e-05 0 2.31944e-05 -9.421e-06 0 2.07484e-05 -8.57647e-06 0 1.85182e-05 -7.83079e-06 0 1.64764e-05 -7.18186e-06 0 1.45993e-05 -6.60834e-06 0 1.2866e-05 -6.11198e-06 0 1.12572e-05 -5.68182e-06 0 9.7563e-06 -5.3075e-06 0 8.34769e-06 -4.99456e-06 0 7.01718e-06 -4.72842e-06 0 5.75196e-06 -4.50848e-06 0 4.53969e-06 -4.33495e-06 0 3.36902e-06 -4.19964e-06 0 2.22919e-06 -4.10604e-06 0 1.10953e-06 -4.05042e-06 0 0 -4.02949e-06 0 1.3739e-05 0.00016468 0 0.000102018 0.000105728 0 0.000116235 4.12753e-05 0 0.0001054 6.74628e-06 0 9.21119e-05 -9.17135e-06 0 8.06369e-05 -1.59767e-05 0 7.11172e-05 -1.83969e-05 0 6.31205e-05 -1.86751e-05 0 5.62728e-05 -1.79176e-05 0 5.03142e-05 -1.67194e-05 0 4.50727e-05 -1.53591e-05 0 4.04238e-05 -1.39901e-05 0 3.62774e-05 -1.26851e-05 0 3.25632e-05 -1.14861e-05 0 2.92227e-05 -1.04008e-05 0 2.62086e-05 -9.42062e-06 0 2.34797e-05 -8.56035e-06 0 2.10002e-05 -7.79323e-06 0 1.87398e-05 -7.11547e-06 0 1.66706e-05 -6.52541e-06 0 1.47689e-05 -6.00383e-06 0 1.30134e-05 -5.55237e-06 0 1.13846e-05 -5.16111e-06 0 9.86537e-06 -4.82063e-06 0 8.44004e-06 -4.536e-06 0 7.0941e-06 -4.29395e-06 0 5.81453e-06 -4.09393e-06 0 4.58875e-06 -3.93612e-06 0 3.40526e-06 -3.81307e-06 0 2.25308e-06 -3.72795e-06 0 1.12139e-06 -3.67738e-06 0 -8.31811e-19 -3.65834e-06 0 9.63205e-06 0.000129101 0 8.0458e-05 9.10136e-05 0 0.000101311 4.13249e-05 0 9.78379e-05 1.03039e-05 0 8.86127e-05 -5.46863e-06 0 7.91786e-05 -1.27345e-05 0 7.06772e-05 -1.56181e-05 0 6.31835e-05 -1.62746e-05 0 5.65737e-05 -1.58191e-05 0 5.07154e-05 -1.48693e-05 0 4.55019e-05 -1.37177e-05 0 4.08444e-05 -1.25247e-05 0 3.66718e-05 -1.13733e-05 0 3.2924e-05 -1.03071e-05 0 2.95479e-05 -9.33785e-06 0 2.6499e-05 -8.46026e-06 0 2.37374e-05 -7.68862e-06 0 2.12278e-05 -6.99989e-06 0 1.89401e-05 -6.39103e-06 0 1.68463e-05 -5.86074e-06 0 1.49223e-05 -5.39191e-06 0 1.31468e-05 -4.98606e-06 0 1.14998e-05 -4.63432e-06 0 9.96404e-06 -4.32823e-06 0 8.52358e-06 -4.07236e-06 0 7.16368e-06 -3.85476e-06 0 5.87112e-06 -3.67496e-06 0 4.63313e-06 -3.53311e-06 0 3.43802e-06 -3.42251e-06 0 2.27468e-06 -3.34601e-06 0 1.13212e-06 -3.30055e-06 0 0 -3.28344e-06 0 7.25539e-06 0.000102451 0 6.52951e-05 7.69134e-05 0 8.88932e-05 3.89801e-05 0 9.07934e-05 1.2173e-05 0 8.51019e-05 -2.67655e-06 0 7.76083e-05 -9.96095e-06 0 7.01231e-05 -1.30769e-05 0 6.31475e-05 -1.39912e-05 0 5.67905e-05 -1.37751e-05 0 5.10445e-05 -1.30401e-05 0 4.58686e-05 -1.20795e-05 0 4.12107e-05 -1.1054e-05 0 3.70187e-05 -1.00522e-05 0 3.32431e-05 -9.11736e-06 0 2.98365e-05 -8.26386e-06 0 2.67572e-05 -7.48927e-06 0 2.39668e-05 -6.80701e-06 0 2.14306e-05 -6.19754e-06 0 1.91186e-05 -5.65842e-06 0 1.70028e-05 -5.1887e-06 0 1.50591e-05 -4.77334e-06 0 1.32657e-05 -4.41374e-06 0 1.16025e-05 -4.10207e-06 0 1.0052e-05 -3.83085e-06 0 8.59806e-06 -3.60413e-06 0 7.22571e-06 -3.41134e-06 0 5.92157e-06 -3.25203e-06 0 4.67269e-06 -3.12635e-06 0 3.46723e-06 -3.02836e-06 0 2.29394e-06 -2.96059e-06 0 1.14168e-06 -2.92032e-06 0 0 -2.90517e-06 0 5.76486e-06 8.15275e-05 0 5.44195e-05 6.39264e-05 0 7.8783e-05 3.51462e-05 0 8.44908e-05 1.26846e-05 0 8.1755e-05 -7.06206e-07 0 7.6027e-05 -7.63667e-06 0 6.95104e-05 -1.07717e-05 0 6.3043e-05 -1.18274e-05 0 5.69401e-05 -1.17884e-05 0 5.13112e-05 -1.12344e-05 0 4.61786e-05 -1.04469e-05 0 4.15259e-05 -9.58033e-06 0 3.732e-05 -8.72369e-06 0 3.35217e-05 -7.91846e-06 0 3.00892e-05 -7.18036e-06 0 2.69837e-05 -6.50901e-06 0 2.41682e-05 -5.91675e-06 0 2.16088e-05 -5.38722e-06 0 1.92756e-05 -4.91858e-06 0 1.71406e-05 -4.51012e-06 0 1.51795e-05 -4.14887e-06 0 1.33703e-05 -3.83609e-06 0 1.16928e-05 -3.56498e-06 0 1.01294e-05 -3.32906e-06 0 8.66359e-06 -3.13184e-06 0 7.28029e-06 -2.96415e-06 0 5.96595e-06 -2.82558e-06 0 4.70749e-06 -2.71627e-06 0 3.49293e-06 -2.63105e-06 0 2.31089e-06 -2.5721e-06 0 1.1501e-06 -2.53708e-06 0 -8.33035e-20 -2.5239e-06 0 4.7932e-06 6.44265e-05 0 4.6599e-05 5.20906e-05 0 7.07512e-05 3.0431e-05 0 7.90653e-05 1.2146e-05 0 7.87083e-05 5.53485e-07 0 7.45205e-05 -5.72443e-06 0 6.88873e-05 -8.6903e-06 0 6.28961e-05 -9.77953e-06 0 5.70361e-05 -9.8587e-06 0 5.15223e-05 -9.45329e-06 0 4.6435e-05 -8.82148e-06 0 4.17913e-05 -8.10529e-06 0 3.7576e-05 -7.38943e-06 0 3.37595e-05 -6.712e-06 0 3.03056e-05 -6.0888e-06 0 2.7178e-05 -5.52082e-06 0 2.43413e-05 -5.01901e-06 0 2.1762e-05 -4.57003e-06 0 1.94106e-05 -4.17249e-06 0 1.7259e-05 -3.82588e-06 0 1.52829e-05 -3.51929e-06 0 1.34603e-05 -3.2538e-06 0 1.17706e-05 -3.02368e-06 0 1.0196e-05 -2.82343e-06 0 8.71996e-06 -2.65603e-06 0 7.32723e-06 -2.51369e-06 0 6.00413e-06 -2.39608e-06 0 4.73742e-06 -2.3033e-06 0 3.51503e-06 -2.23097e-06 0 2.32545e-06 -2.18094e-06 0 1.15733e-06 -2.15122e-06 0 0 -2.14003e-06 0 4.14017e-06 4.99433e-05 0 4.09685e-05 4.12701e-05 0 6.45143e-05 2.5221e-05 0 7.4568e-05 1.08208e-05 0 7.60609e-05 1.22232e-06 0 7.31618e-05 -4.17406e-06 0 6.82981e-05 -6.81168e-06 0 6.27317e-05 -7.83895e-06 0 5.70926e-05 -7.9828e-06 0 5.16853e-05 -7.69607e-06 0 4.66419e-05 -7.20377e-06 0 4.20091e-05 -6.63005e-06 0 3.77877e-05 -6.05084e-06 0 3.39571e-05 -5.49944e-06 0 3.04858e-05 -4.99057e-06 0 2.73401e-05 -4.52597e-06 0 2.44857e-05 -4.11498e-06 0 2.189e-05 -3.74703e-06 0 1.95233e-05 -3.42109e-06 0 1.7358e-05 -3.13683e-06 0 1.53695e-05 -2.88536e-06 0 1.35355e-05 -2.66758e-06 0 1.18355e-05 -2.47881e-06 0 1.02516e-05 -2.31454e-06 0 8.76707e-06 -2.17722e-06 0 7.36647e-06 -2.06046e-06 0 6.03603e-06 -1.96398e-06 0 4.76244e-06 -1.88788e-06 0 3.5335e-06 -1.82855e-06 0 2.33763e-06 -1.78751e-06 0 1.16338e-06 -1.76313e-06 0 0 -1.75396e-06 0 3.69759e-06 3.72701e-05 0 3.69652e-05 3.12744e-05 0 5.98218e-05 1.97507e-05 0 7.10052e-05 8.92455e-06 0 7.38815e-05 1.41997e-06 0 7.20092e-05 -2.92673e-06 0 6.77806e-05 -5.10765e-06 0 6.25722e-05 -5.99237e-06 0 5.71217e-05 -6.15474e-06 0 5.1807e-05 -5.96063e-06 0 4.68028e-05 -5.59362e-06 0 4.21809e-05 -5.15535e-06 0 3.7956e-05 -4.70906e-06 0 3.41148e-05 -4.28209e-06 0 3.06299e-05 -3.88698e-06 0 2.74699e-05 -3.52573e-06 0 2.46015e-05 -3.20583e-06 0 2.19925e-05 -2.91927e-06 0 1.96138e-05 -2.66535e-06 0 1.74374e-05 -2.44385e-06 0 1.54388e-05 -2.24787e-06 0 1.35958e-05 -2.07814e-06 0 1.18877e-05 -1.93101e-06 0 1.02963e-05 -1.80298e-06 0 8.80487e-06 -1.69595e-06 0 7.39795e-06 -1.60495e-06 0 6.06163e-06 -1.52976e-06 0 4.78251e-06 -1.47044e-06 0 3.54832e-06 -1.4242e-06 0 2.3474e-06 -1.39222e-06 0 1.16823e-06 -1.37322e-06 0 0 -1.36607e-06 0 3.40406e-06 2.58329e-05 0 3.42222e-05 2.19052e-05 0 5.64723e-05 1.41547e-05 0 6.83611e-05 6.62998e-06 0 7.22151e-05 1.26119e-06 0 7.11073e-05 -1.91837e-06 0 6.73653e-05 -3.54454e-06 0 6.24357e-05 -4.22278e-06 0 5.71339e-05 -4.36632e-06 0 5.1893e-05 -4.24355e-06 0 4.69206e-05 -3.99015e-06 0 4.23084e-05 -3.68149e-06 0 3.80816e-05 -3.36505e-06 0 3.42328e-05 -3.06112e-06 0 3.0738e-05 -2.7793e-06 0 2.75673e-05 -2.52133e-06 0 2.46884e-05 -2.2927e-06 0 2.20696e-05 -2.08783e-06 0 1.96818e-05 -1.90623e-06 0 1.74971e-05 -1.7478e-06 0 1.5491e-05 -1.6076e-06 0 1.36412e-05 -1.48618e-06 0 1.19268e-05 -1.38093e-06 0 1.03299e-05 -1.28933e-06 0 8.83328e-06 -1.21276e-06 0 7.42161e-06 -1.14766e-06 0 6.08087e-06 -1.09387e-06 0 4.7976e-06 -1.05144e-06 0 3.55946e-06 -1.01836e-06 0 2.35475e-06 -9.95483e-07 0 1.17188e-06 -9.81889e-07 0 -8.95536e-21 -9.76775e-07 0 3.22419e-06 1.51987e-05 0 3.25056e-05 1.29722e-05 0 5.43174e-05 8.50516e-06 0 6.66132e-05 4.07528e-06 0 7.10898e-05 8.54096e-07 0 7.04882e-05 -1.08197e-06 0 6.70751e-05 -2.0847e-06 0 6.23365e-05 -2.51026e-06 0 5.71374e-05 -2.60756e-06 0 5.19478e-05 -2.54035e-06 0 4.69979e-05 -2.39189e-06 0 4.23928e-05 -2.20848e-06 0 3.81651e-05 -2.01958e-06 0 3.43114e-05 -1.83766e-06 0 3.08101e-05 -1.66872e-06 0 2.76323e-05 -1.51397e-06 0 2.47465e-05 -1.37675e-06 0 2.21211e-05 -1.25375e-06 0 1.97272e-05 -1.1447e-06 0 1.7537e-05 -1.04955e-06 0 1.55259e-05 -9.65357e-07 0 1.36715e-05 -8.9243e-07 0 1.1953e-05 -8.29211e-07 0 1.03523e-05 -7.74196e-07 0 8.85227e-06 -7.28208e-07 0 7.43743e-06 -6.89105e-07 0 6.09373e-06 -6.56798e-07 0 4.80768e-06 -6.31314e-07 0 3.56691e-06 -6.11446e-07 0 2.35965e-06 -5.97705e-07 0 1.17432e-06 -5.89541e-07 0 0 -5.86469e-07 0 3.13836e-06 5.01744e-06 0 3.16768e-05 4.29587e-06 0 5.326e-05 2.83649e-06 0 6.57415e-05 1.37416e-06 0 7.05215e-05 3.00787e-07 0 7.01723e-05 -3.49133e-07 0 6.69256e-05 -6.87848e-07 0 6.22843e-05 -8.32811e-07 0 5.71377e-05 -8.6712e-07 0 5.19745e-05 -8.45805e-07 0 4.70363e-05 -7.96919e-07 0 4.24349e-05 -7.36088e-07 0 3.82069e-05 -6.73282e-07 0 3.43508e-05 -6.12714e-07 0 3.08463e-05 -5.56432e-07 0 2.7665e-05 -5.04854e-07 0 2.47757e-05 -4.59105e-07 0 2.2147e-05 -4.18092e-07 0 1.975e-05 -3.81728e-07 0 1.7557e-05 -3.49998e-07 0 1.55434e-05 -3.21918e-07 0 1.36867e-05 -2.97597e-07 0 1.19662e-05 -2.76513e-07 0 1.03636e-05 -2.58165e-07 0 8.86181e-06 -2.42828e-07 0 7.44537e-06 -2.29787e-07 0 6.10019e-06 -2.19012e-07 0 4.81275e-06 -2.10513e-07 0 3.57065e-06 -2.03887e-07 0 2.36212e-06 -1.99304e-07 0 1.17554e-06 -1.96582e-07 0 0 -1.95557e-07 0 3.13836e-06 -5.01744e-06 0 3.16768e-05 -4.29587e-06 0 5.326e-05 -2.83649e-06 0 6.57415e-05 -1.37416e-06 0 7.05215e-05 -3.00787e-07 0 7.01723e-05 3.49133e-07 0 6.69256e-05 6.87848e-07 0 6.22843e-05 8.32811e-07 0 5.71377e-05 8.6712e-07 0 5.19745e-05 8.45805e-07 0 4.70363e-05 7.96919e-07 0 4.24349e-05 7.36088e-07 0 3.82069e-05 6.73282e-07 0 3.43508e-05 6.12714e-07 0 3.08463e-05 5.56432e-07 0 2.7665e-05 5.04854e-07 0 2.47757e-05 4.59105e-07 0 2.2147e-05 4.18092e-07 0 1.975e-05 3.81728e-07 0 1.7557e-05 3.49998e-07 0 1.55434e-05 3.21918e-07 0 1.36867e-05 2.97597e-07 0 1.19662e-05 2.76513e-07 0 1.03636e-05 2.58165e-07 0 8.86181e-06 2.42828e-07 0 7.44537e-06 2.29787e-07 0 6.10019e-06 2.19012e-07 0 4.81275e-06 2.10513e-07 0 3.57065e-06 2.03887e-07 0 2.36212e-06 1.99304e-07 0 1.17554e-06 1.96582e-07 0 0 1.95557e-07 0 3.22419e-06 -1.51987e-05 0 3.25056e-05 -1.29722e-05 0 5.43174e-05 -8.50516e-06 0 6.66132e-05 -4.07528e-06 0 7.10898e-05 -8.54096e-07 0 7.04882e-05 1.08197e-06 0 6.70751e-05 2.0847e-06 0 6.23365e-05 2.51026e-06 0 5.71374e-05 2.60756e-06 0 5.19478e-05 2.54035e-06 0 4.69979e-05 2.39189e-06 0 4.23928e-05 2.20848e-06 0 3.81651e-05 2.01958e-06 0 3.43114e-05 1.83766e-06 0 3.08101e-05 1.66872e-06 0 2.76323e-05 1.51397e-06 0 2.47465e-05 1.37675e-06 0 2.21211e-05 1.25375e-06 0 1.97272e-05 1.1447e-06 0 1.7537e-05 1.04955e-06 0 1.55259e-05 9.65357e-07 0 1.36715e-05 8.9243e-07 0 1.1953e-05 8.29211e-07 0 1.03523e-05 7.74196e-07 0 8.85227e-06 7.28208e-07 0 7.43743e-06 6.89105e-07 0 6.09373e-06 6.56798e-07 0 4.80768e-06 6.31314e-07 0 3.56691e-06 6.11446e-07 0 2.35965e-06 5.97705e-07 0 1.17432e-06 5.89541e-07 0 0 5.86469e-07 0 3.40406e-06 -2.58329e-05 0 3.42222e-05 -2.19052e-05 0 5.64723e-05 -1.41547e-05 0 6.83611e-05 -6.62998e-06 0 7.22151e-05 -1.26119e-06 0 7.11073e-05 1.91837e-06 0 6.73653e-05 3.54454e-06 0 6.24357e-05 4.22278e-06 0 5.71339e-05 4.36632e-06 0 5.1893e-05 4.24355e-06 0 4.69206e-05 3.99015e-06 0 4.23084e-05 3.68149e-06 0 3.80816e-05 3.36505e-06 0 3.42328e-05 3.06112e-06 0 3.0738e-05 2.7793e-06 0 2.75673e-05 2.52133e-06 0 2.46884e-05 2.2927e-06 0 2.20696e-05 2.08783e-06 0 1.96818e-05 1.90623e-06 0 1.74971e-05 1.7478e-06 0 1.5491e-05 1.6076e-06 0 1.36412e-05 1.48618e-06 0 1.19268e-05 1.38093e-06 0 1.03299e-05 1.28933e-06 0 8.83328e-06 1.21276e-06 0 7.42161e-06 1.14766e-06 0 6.08087e-06 1.09387e-06 0 4.7976e-06 1.05144e-06 0 3.55946e-06 1.01836e-06 0 2.35475e-06 9.95483e-07 0 1.17188e-06 9.81889e-07 0 0 9.76775e-07 0 3.69759e-06 -3.72701e-05 0 3.69652e-05 -3.12744e-05 0 5.98218e-05 -1.97507e-05 0 7.10052e-05 -8.92455e-06 0 7.38815e-05 -1.41997e-06 0 7.20092e-05 2.92673e-06 0 6.77806e-05 5.10765e-06 0 6.25722e-05 5.99237e-06 0 5.71217e-05 6.15474e-06 0 5.1807e-05 5.96063e-06 0 4.68028e-05 5.59362e-06 0 4.21809e-05 5.15535e-06 0 3.7956e-05 4.70906e-06 0 3.41148e-05 4.28209e-06 0 3.06299e-05 3.88698e-06 0 2.74699e-05 3.52573e-06 0 2.46015e-05 3.20583e-06 0 2.19925e-05 2.91927e-06 0 1.96138e-05 2.66535e-06 0 1.74374e-05 2.44385e-06 0 1.54388e-05 2.24787e-06 0 1.35958e-05 2.07814e-06 0 1.18877e-05 1.93101e-06 0 1.02963e-05 1.80298e-06 0 8.80487e-06 1.69595e-06 0 7.39795e-06 1.60495e-06 0 6.06163e-06 1.52976e-06 0 4.78251e-06 1.47044e-06 0 3.54832e-06 1.4242e-06 0 2.3474e-06 1.39222e-06 0 1.16823e-06 1.37322e-06 0 4.25834e-20 1.36607e-06 0 4.14017e-06 -4.99433e-05 0 4.09685e-05 -4.12701e-05 0 6.45143e-05 -2.5221e-05 0 7.4568e-05 -1.08208e-05 0 7.60609e-05 -1.22232e-06 0 7.31618e-05 4.17406e-06 0 6.82981e-05 6.81168e-06 0 6.27317e-05 7.83895e-06 0 5.70926e-05 7.9828e-06 0 5.16853e-05 7.69607e-06 0 4.66419e-05 7.20377e-06 0 4.20091e-05 6.63005e-06 0 3.77877e-05 6.05084e-06 0 3.39571e-05 5.49944e-06 0 3.04858e-05 4.99057e-06 0 2.73401e-05 4.52597e-06 0 2.44857e-05 4.11498e-06 0 2.189e-05 3.74703e-06 0 1.95233e-05 3.42109e-06 0 1.7358e-05 3.13683e-06 0 1.53695e-05 2.88536e-06 0 1.35355e-05 2.66758e-06 0 1.18355e-05 2.47881e-06 0 1.02516e-05 2.31454e-06 0 8.76707e-06 2.17722e-06 0 7.36647e-06 2.06046e-06 0 6.03603e-06 1.96398e-06 0 4.76244e-06 1.88788e-06 0 3.5335e-06 1.82855e-06 0 2.33763e-06 1.78751e-06 0 1.16338e-06 1.76313e-06 0 0 1.75396e-06 0 4.7932e-06 -6.44265e-05 0 4.6599e-05 -5.20906e-05 0 7.07512e-05 -3.0431e-05 0 7.90653e-05 -1.2146e-05 0 7.87083e-05 -5.53485e-07 0 7.45205e-05 5.72443e-06 0 6.88873e-05 8.6903e-06 0 6.28961e-05 9.77953e-06 0 5.70361e-05 9.8587e-06 0 5.15223e-05 9.45329e-06 0 4.6435e-05 8.82148e-06 0 4.17913e-05 8.10529e-06 0 3.7576e-05 7.38943e-06 0 3.37595e-05 6.712e-06 0 3.03056e-05 6.0888e-06 0 2.7178e-05 5.52082e-06 0 2.43413e-05 5.01901e-06 0 2.1762e-05 4.57003e-06 0 1.94106e-05 4.17249e-06 0 1.7259e-05 3.82588e-06 0 1.52829e-05 3.51929e-06 0 1.34603e-05 3.2538e-06 0 1.17706e-05 3.02368e-06 0 1.0196e-05 2.82343e-06 0 8.71996e-06 2.65603e-06 0 7.32723e-06 2.51369e-06 0 6.00413e-06 2.39608e-06 0 4.73742e-06 2.3033e-06 0 3.51503e-06 2.23097e-06 0 2.32545e-06 2.18094e-06 0 1.15733e-06 2.15122e-06 0 0 2.14003e-06 0 5.76486e-06 -8.15275e-05 0 5.44195e-05 -6.39264e-05 0 7.8783e-05 -3.51462e-05 0 8.44908e-05 -1.26846e-05 0 8.1755e-05 7.06206e-07 0 7.6027e-05 7.63667e-06 0 6.95104e-05 1.07717e-05 0 6.3043e-05 1.18274e-05 0 5.69401e-05 1.17884e-05 0 5.13112e-05 1.12344e-05 0 4.61786e-05 1.04469e-05 0 4.15259e-05 9.58033e-06 0 3.732e-05 8.72369e-06 0 3.35217e-05 7.91846e-06 0 3.00892e-05 7.18036e-06 0 2.69837e-05 6.50901e-06 0 2.41682e-05 5.91675e-06 0 2.16088e-05 5.38722e-06 0 1.92756e-05 4.91858e-06 0 1.71406e-05 4.51012e-06 0 1.51795e-05 4.14887e-06 0 1.33703e-05 3.83609e-06 0 1.16928e-05 3.56498e-06 0 1.01294e-05 3.32906e-06 0 8.66359e-06 3.13184e-06 0 7.28029e-06 2.96415e-06 0 5.96595e-06 2.82558e-06 0 4.70749e-06 2.71627e-06 0 3.49293e-06 2.63105e-06 0 2.31089e-06 2.5721e-06 0 1.1501e-06 2.53708e-06 0 0 2.5239e-06 0 7.25539e-06 -0.000102451 0 6.52951e-05 -7.69134e-05 0 8.88932e-05 -3.89801e-05 0 9.07934e-05 -1.2173e-05 0 8.51019e-05 2.67655e-06 0 7.76083e-05 9.96095e-06 0 7.01231e-05 1.30769e-05 0 6.31475e-05 1.39912e-05 0 5.67905e-05 1.37751e-05 0 5.10445e-05 1.30401e-05 0 4.58686e-05 1.20795e-05 0 4.12107e-05 1.1054e-05 0 3.70187e-05 1.00522e-05 0 3.32431e-05 9.11736e-06 0 2.98365e-05 8.26386e-06 0 2.67572e-05 7.48927e-06 0 2.39668e-05 6.80701e-06 0 2.14306e-05 6.19754e-06 0 1.91186e-05 5.65842e-06 0 1.70028e-05 5.1887e-06 0 1.50591e-05 4.77334e-06 0 1.32657e-05 4.41374e-06 0 1.16025e-05 4.10207e-06 0 1.0052e-05 3.83085e-06 0 8.59806e-06 3.60413e-06 0 7.22571e-06 3.41134e-06 0 5.92157e-06 3.25203e-06 0 4.67269e-06 3.12635e-06 0 3.46723e-06 3.02836e-06 0 2.29394e-06 2.96059e-06 0 1.14168e-06 2.92032e-06 0 -1.2785e-19 2.90517e-06 0 9.63205e-06 -0.000129101 0 8.0458e-05 -9.10136e-05 0 0.000101311 -4.13249e-05 0 9.78379e-05 -1.03039e-05 0 8.86127e-05 5.46863e-06 0 7.91786e-05 1.27345e-05 0 7.06772e-05 1.56181e-05 0 6.31835e-05 1.62746e-05 0 5.65737e-05 1.58191e-05 0 5.07154e-05 1.48693e-05 0 4.55019e-05 1.37177e-05 0 4.08444e-05 1.25247e-05 0 3.66718e-05 1.13733e-05 0 3.2924e-05 1.03071e-05 0 2.95479e-05 9.33785e-06 0 2.6499e-05 8.46026e-06 0 2.37374e-05 7.68862e-06 0 2.12278e-05 6.99989e-06 0 1.89401e-05 6.39103e-06 0 1.68463e-05 5.86074e-06 0 1.49223e-05 5.39191e-06 0 1.31468e-05 4.98606e-06 0 1.14998e-05 4.63432e-06 0 9.96404e-06 4.32823e-06 0 8.52358e-06 4.07236e-06 0 7.16368e-06 3.85476e-06 0 5.87112e-06 3.67496e-06 0 4.63313e-06 3.53311e-06 0 3.43802e-06 3.42251e-06 0 2.27468e-06 3.34601e-06 0 1.13212e-06 3.30055e-06 0 0 3.28344e-06 0 1.3739e-05 -0.00016468 0 0.000102018 -0.000105728 0 0.000116235 -4.12753e-05 0 0.0001054 -6.74628e-06 0 9.21119e-05 9.17135e-06 0 8.06369e-05 1.59767e-05 0 7.11172e-05 1.83969e-05 0 6.31205e-05 1.86751e-05 0 5.62728e-05 1.79176e-05 0 5.03142e-05 1.67194e-05 0 4.50727e-05 1.53591e-05 0 4.04238e-05 1.39901e-05 0 3.62774e-05 1.26851e-05 0 3.25632e-05 1.14861e-05 0 2.92227e-05 1.04008e-05 0 2.62086e-05 9.42062e-06 0 2.34797e-05 8.56035e-06 0 2.10002e-05 7.79323e-06 0 1.87398e-05 7.11547e-06 0 1.66706e-05 6.52541e-06 0 1.47689e-05 6.00383e-06 0 1.30134e-05 5.55237e-06 0 1.13846e-05 5.16111e-06 0 9.86537e-06 4.82063e-06 0 8.44004e-06 4.536e-06 0 7.0941e-06 4.29395e-06 0 5.81453e-06 4.09393e-06 0 4.58875e-06 3.93612e-06 0 3.40526e-06 3.81307e-06 0 2.25308e-06 3.72795e-06 0 1.12139e-06 3.67738e-06 0 0 3.65834e-06 0 2.14501e-05 -0.000214982 0 0.000132795 -0.000119442 0 0.000133446 -3.75836e-05 0 0.000113078 -1.19025e-06 0 9.53807e-05 1.3834e-05 0 8.18749e-05 1.96841e-05 0 7.13893e-05 2.14033e-05 0 6.29312e-05 2.11844e-05 0 5.5874e-05 2.00646e-05 0 4.98341e-05 1.85859e-05 0 4.45781e-05 1.70004e-05 0 3.99476e-05 1.54477e-05 0 3.58351e-05 1.39854e-05 0 3.21609e-05 1.26523e-05 0 2.88613e-05 1.14511e-05 0 2.58866e-05 1.0369e-05 0 2.31944e-05 9.421e-06 0 2.07484e-05 8.57647e-06 0 1.85182e-05 7.83079e-06 0 1.64764e-05 7.18186e-06 0 1.45993e-05 6.60834e-06 0 1.2866e-05 6.11198e-06 0 1.12572e-05 5.68182e-06 0 9.7563e-06 5.3075e-06 0 8.34769e-06 4.99456e-06 0 7.01718e-06 4.72842e-06 0 5.75196e-06 4.50848e-06 0 4.53969e-06 4.33495e-06 0 3.36902e-06 4.19964e-06 0 2.22919e-06 4.10604e-06 0 1.10953e-06 4.05042e-06 0 -2.65994e-19 4.02949e-06 0 3.76465e-05 -0.000291434 0 0.000176468 -0.000128021 0 0.000152116 -2.87377e-05 0 0.000120312 6.57822e-06 0 9.81721e-05 1.94468e-05 0 8.27817e-05 2.38262e-05 0 7.14403e-05 2.46144e-05 0 6.2589e-05 2.37881e-05 0 5.53633e-05 2.22507e-05 0 4.9268e-05 2.04628e-05 0 4.40143e-05 1.86372e-05 0 3.94142e-05 1.68943e-05 0 3.53444e-05 1.52717e-05 0 3.17171e-05 1.38039e-05 0 2.8464e-05 1.24871e-05 0 2.55333e-05 1.13039e-05 0 2.28817e-05 1.02693e-05 0 2.04726e-05 9.34855e-06 0 1.82758e-05 8.53605e-06 0 1.62639e-05 7.82924e-06 0 1.44138e-05 7.2047e-06 0 1.27047e-05 6.66423e-06 0 1.1118e-05 6.19586e-06 0 9.63699e-06 5.78828e-06 0 8.24667e-06 5.44752e-06 0 6.93303e-06 5.1577e-06 0 5.68352e-06 4.91819e-06 0 4.48601e-06 4.7292e-06 0 3.32939e-06 4.58183e-06 0 2.20306e-06 4.47989e-06 0 1.09655e-06 4.4193e-06 0 0 4.39651e-06 0 7.71508e-05 -0.000419175 0 0.000235943 -0.000122302 0 0.000170409 -1.33161e-05 0 0.000126392 1.65782e-05 0 0.000100225 2.59242e-05 0 8.32498e-05 2.83434e-05 0 7.12209e-05 2.79954e-05 0 6.20695e-05 2.64657e-05 0 5.47285e-05 2.44638e-05 0 4.86095e-05 2.23424e-05 0 4.33782e-05 2.02647e-05 0 3.88221e-05 1.83263e-05 0 3.48048e-05 1.65414e-05 0 3.12317e-05 1.49386e-05 0 2.8031e-05 1.35071e-05 0 2.51491e-05 1.2224e-05 0 2.2542e-05 1.11041e-05 0 2.01733e-05 1.01084e-05 0 1.80128e-05 9.23031e-06 0 1.60335e-05 8.46675e-06 0 1.42126e-05 7.79218e-06 0 1.25299e-05 7.20847e-06 0 1.09669e-05 6.70263e-06 0 9.50761e-06 6.26243e-06 0 8.13711e-06 5.89438e-06 0 6.84176e-06 5.58134e-06 0 5.60928e-06 5.32261e-06 0 4.42779e-06 5.11845e-06 0 3.28639e-06 4.95924e-06 0 2.17471e-06 4.84911e-06 0 1.08246e-06 4.78365e-06 0 8.37737e-19 4.75902e-06 0 0.000194886 -0.000662504 0 0.000306896 -8.59237e-05 0 0.000185354 9.24973e-06 0 0.000130551 2.85377e-05 0 0.000101303 3.30966e-05 0 8.3189e-05 3.31475e-05 0 7.06914e-05 3.15e-05 0 6.13536e-05 2.91922e-05 0 5.396e-05 2.66894e-05 0 4.78539e-05 2.4216e-05 0 4.26678e-05 2.18771e-05 0 3.81705e-05 1.97397e-05 0 3.42161e-05 1.77915e-05 0 3.0705e-05 1.60544e-05 0 2.75626e-05 1.45092e-05 0 2.47344e-05 1.31277e-05 0 2.2176e-05 1.19242e-05 0 1.9851e-05 1.0855e-05 0 1.77296e-05 9.91267e-06 0 1.57855e-05 9.09358e-06 0 1.39961e-05 8.37007e-06 0 1.23417e-05 7.74405e-06 0 1.08044e-05 7.20155e-06 0 9.36838e-06 6.72943e-06 0 8.0192e-06 6.33467e-06 0 6.74353e-06 5.99888e-06 0 5.52937e-06 5.72134e-06 0 4.36511e-06 5.50231e-06 0 3.2401e-06 5.3315e-06 0 2.14419e-06 5.21334e-06 0 1.06731e-06 5.14311e-06 0 5.62935e-19 5.11668e-06 0 0.000659865 -0.00122879 0 0.000365263 -2.84147e-06 0 0.000193423 3.76987e-05 0 0.000132121 4.18499e-05 0 0.000101219 4.07155e-05 0 8.25319e-05 3.81265e-05 0 6.98225e-05 3.50728e-05 0 6.04274e-05 3.19381e-05 0 5.30508e-05 2.89107e-05 0 4.6998e-05 2.60735e-05 0 4.18815e-05 2.34681e-05 0 3.7459e-05 2.11303e-05 0 3.35787e-05 1.9019e-05 0 3.01375e-05 1.71488e-05 0 2.70595e-05 1.54918e-05 0 2.42898e-05 1.40137e-05 0 2.1784e-05 1.27282e-05 0 1.95061e-05 1.15872e-05 0 1.74268e-05 1.05822e-05 0 1.55203e-05 9.70893e-06 0 1.37646e-05 8.93765e-06 0 1.21406e-05 8.27034e-06 0 1.06306e-05 7.69205e-06 0 9.21952e-06 7.18876e-06 0 7.89314e-06 6.7679e-06 0 6.6385e-06 6.40989e-06 0 5.44392e-06 6.11395e-06 0 4.29809e-06 5.88039e-06 0 3.1906e-06 5.69823e-06 0 2.11154e-06 5.57221e-06 0 1.05109e-06 5.49731e-06 0 0 5.46912e-06 0 0.0112469 0.00519242 0 0.000369039 0.000112836 0 0.000191988 6.85379e-05 0 0.000130704 5.56298e-05 0 9.98733e-05 4.84769e-05 0 8.12424e-05 4.31525e-05 0 6.85983e-05 3.86529e-05 0 5.92831e-05 3.46716e-05 0 5.19972e-05 3.11098e-05 0 4.604e-05 2.79043e-05 0 4.10189e-05 2.50312e-05 0 3.66879e-05 2.24936e-05 0 3.28928e-05 2.02209e-05 0 2.95297e-05 1.82196e-05 0 2.65224e-05 1.6453e-05 0 2.3816e-05 1.48804e-05 0 2.13667e-05 1.3515e-05 0 1.91392e-05 1.23041e-05 0 1.71049e-05 1.12381e-05 0 1.52384e-05 1.0312e-05 0 1.35186e-05 9.49426e-06 0 1.19268e-05 8.78674e-06 0 1.04459e-05 8.17359e-06 0 9.06128e-06 7.63992e-06 0 7.75911e-06 7.19361e-06 0 6.52682e-06 6.81393e-06 0 5.35306e-06 6.50004e-06 0 4.22681e-06 6.25229e-06 0 3.13796e-06 6.05906e-06 0 2.07683e-06 5.92537e-06 0 1.03385e-06 5.84591e-06 0 0 5.81601e-06 0 </DataArray> 
</PointData> 
<Points> 
<DataArray type="Float32" NumberOfComponents="3"> 