<?xml version="1.0"?> 
<VTKFile type="StructuredGrid" version="0.1"> 
<StructuredGrid WholeExtent="0 31 0 31 0 0"> 
<Piece Extent="0 31 0 31 0 0"> 
<PointData>
<DataArray type="Float32" Name="B" format="ascii" NumberOfComponents="3"> 
-5.21317e-05 -0 0 -5.4746e-05 -0 0 -5.73296e-05 -0 0 -5.98612e-05 -0 0 -6.23182e-05 -0 0 -6.46777e-05 -0 0 -6.69166e-05 -0 0 -6.90121e-05 -0 0 -7.0942e-05 -0 0 -7.26858e-05 -0 0 -7.42241e-05 -0 0 -7.55399e-05 -0 0 -7.66185e-05 -0 0 -7.74477e-05 -0 0 -7.80181e-05 -0 0 -7.83232e-05 -0 0 -7.83596e-05 -0 0 -7.81271e-05 -0 0 -7.76283e-05 -0 0 -7.68691e-05 -0 0 -7.58582e-05 -0 0 -7.46073e-05 -0 0 -7.31306e-05 -0 0 -7.14446e-05 -0 0 -6.9568e-05 -0 0 -6.75214e-05 -0 0 -6.53263e-05 -0 0 -6.30054e-05 -0 0 -6.05816e-05 -0 0 -5.80779e-05 -0 0 -5.55165e-05 -0 0 -5.29191e-05 -0 0 -5.21374e-05 2.62686e-06 0 -5.47631e-05 2.60679e-06 0 -5.73588e-05 2.56584e-06 0 -5.9903e-05 2.50285e-06 0 -6.2373e-05 2.41701e-06 0 -6.47456e-05 2.30788e-06 0 -6.69973e-05 2.17562e-06 0 -6.91052e-05 2.0208e-06 0 -7.10469e-05 1.84416e-06 0 -7.28014e-05 1.6477e-06 0 -7.43494e-05 1.43299e-06 0 -7.56736e-05 1.20223e-06 0 -7.6759e-05 9.57922e-07 0 -7.75935e-05 7.02762e-07 0 -7.81675e-05 4.39626e-07 0 -7.84745e-05 1.71508e-07 0 -7.85111e-05 -9.85207e-08 0 -7.82771e-05 -3.67301e-07 0 -7.7775e-05 -6.31746e-07 0 -7.70109e-05 -8.88845e-07 0 -7.59935e-05 -1.13569e-06 0 -7.47345e-05 -1.36955e-06 0 -7.32484e-05 -1.58788e-06 0 -7.15518e-05 -1.78843e-06 0 -6.96638e-05 -1.96955e-06 0 -6.76049e-05 -2.12921e-06 0 -6.53971e-05 -2.26658e-06 0 -6.30632e-05 -2.38102e-06 0 -6.06265e-05 -2.47231e-06 0 -5.81101e-05 -2.5408e-06 0 -5.55367e-05 -2.58724e-06 0 -5.29278e-05 -2.61273e-06 0 -5.21518e-05 5.27331e-06 0 -5.48076e-05 5.23467e-06 0 -5.74355e-05 5.15397e-06 0 -6.00133e-05 5.02879e-06 0 -6.25179e-05 4.85749e-06 0 -6.49252e-05 4.63914e-06 0 -6.72113e-05 4.37407e-06 0 -6.93523e-05 4.06338e-06 0 -7.13252e-05 3.70863e-06 0 -7.31085e-05 3.31383e-06 0 -7.46822e-05 2.88217e-06 0 -7.60285e-05 2.41815e-06 0 -7.71322e-05 1.92679e-06 0 -7.79808e-05 1.41355e-06 0 -7.85644e-05 8.84249e-07 0 -7.88765e-05 3.44911e-07 0 -7.89137e-05 -1.98273e-07 0 -7.86754e-05 -7.38944e-07 0 -7.81647e-05 -1.27089e-06 0 -7.73874e-05 -1.78802e-06 0 -7.63526e-05 -2.2845e-06 0 -7.50723e-05 -2.75477e-06 0 -7.35612e-05 -3.19372e-06 0 -7.18366e-05 -3.59675e-06 0 -6.99179e-05 -3.96055e-06 0 -6.78263e-05 -4.28097e-06 0 -6.55845e-05 -4.55634e-06 0 -6.32161e-05 -4.78538e-06 0 -6.0745e-05 -4.96764e-06 0 -5.8195e-05 -5.10389e-06 0 -5.55893e-05 -5.19565e-06 0 -5.29502e-05 -5.24518e-06 0 -5.21731e-05 7.95869e-06 0 -5.48796e-05 7.90453e-06 0 -5.75617e-05 7.78649e-06 0 -6.01963e-05 7.60079e-06 0 -6.27593e-05 7.34481e-06 0 -6.52254e-05 7.01709e-06 0 -6.75695e-05 6.61807e-06 0 -6.97665e-05 6.14946e-06 0 -7.17923e-05 5.61361e-06 0 -7.36241e-05 5.01671e-06 0 -7.52411e-05 4.36365e-06 0 -7.66249e-05 3.66132e-06 0 -7.77594e-05 2.91743e-06 0 -7.86316e-05 2.14032e-06 0 -7.92314e-05 1.33881e-06 0 -7.95522e-05 5.22085e-07 0 -7.95901e-05 -3.00475e-07 0 -7.9345e-05 -1.11923e-06 0 -7.88196e-05 -1.92474e-06 0 -7.80202e-05 -2.70778e-06 0 -7.69561e-05 -3.45944e-06 0 -7.56398e-05 -4.17124e-06 0 -7.40865e-05 -4.83538e-06 0 -7.23144e-05 -5.44478e-06 0 -7.03438e-05 -5.99435e-06 0 -6.8197e-05 -6.47775e-06 0 -6.58978e-05 -6.89238e-06 0 -6.34711e-05 -7.23632e-06 0 -6.09418e-05 -7.50892e-06 0 -5.8335e-05 -7.7114e-06 0 -5.56751e-05 -7.84619e-06 0 -5.29849e-05 -7.91684e-06 0 -5.21972e-05 1.07036e-05 0 -5.4977e-05 1.06387e-05 0 -5.77377e-05 1.04871e-05 0 -6.04549e-05 1.02435e-05 0 -6.31028e-05 9.90416e-06 0 -6.56546e-05 9.46687e-06 0 -6.80832e-05 8.9322e-06 0 -7.03617e-05 8.30245e-06 0 -7.24644e-05 7.5809e-06 0 -7.43669e-05 6.77605e-06 0 -7.6047e-05 5.89468e-06 0 -7.7485e-05 4.9463e-06 0 -7.8664e-05 3.94144e-06 0 -7.95705e-05 2.89153e-06 0 -8.01939e-05 1.80858e-06 0 -8.0527e-05 7.05026e-07 0 -8.05662e-05 -4.06421e-07 0 -8.0311e-05 -1.51272e-06 0 -7.97644e-05 -2.6011e-06 0 -7.8933e-05 -3.65905e-06 0 -7.78264e-05 -4.67443e-06 0 -7.64578e-05 -5.63568e-06 0 -7.48434e-05 -6.53206e-06 0 -7.30022e-05 -7.35386e-06 0 -7.0956e-05 -8.09402e-06 0 -6.87288e-05 -8.74381e-06 0 -6.6346e-05 -9.29964e-06 0 -6.38341e-05 -9.7589e-06 0 -6.12203e-05 -1.01208e-05 0 -5.85311e-05 -1.03871e-05 0 -5.57923e-05 -1.05613e-05 0 -5.30284e-05 -1.06484e-05 0 -5.2218e-05 1.35287e-05 0 -5.5092e-05 1.34598e-05 0 -5.79539e-05 1.32801e-05 0 -6.07775e-05 1.29824e-05 0 -6.35352e-05 1.25615e-05 0 -6.61977e-05 1.20145e-05 0 -6.87357e-05 1.13418e-05 0 -7.11199e-05 1.05466e-05 0 -7.3322e-05 9.63294e-06 0 -7.53158e-05 8.61209e-06 0 -7.70771e-05 7.49294e-06 0 -7.85849e-05 6.28786e-06 0 -7.98213e-05 5.01056e-06 0 -8.07718e-05 3.67575e-06 0 -8.14252e-05 2.29885e-06 0 -8.17743e-05 8.95743e-07 0 -8.1815e-05 -5.1741e-07 0 -8.15469e-05 -1.92403e-06 0 -8.09733e-05 -3.30786e-06 0 -8.01007e-05 -4.65293e-06 0 -7.89396e-05 -5.94367e-06 0 -7.75037e-05 -7.16518e-06 0 -7.58103e-05 -8.30351e-06 0 -7.38799e-05 -9.346e-06 0 -7.1736e-05 -1.02834e-05 0 -6.94046e-05 -1.11043e-05 0 -6.69135e-05 -1.18039e-05 0 -6.42916e-05 -1.2379e-05 0 -6.15684e-05 -1.28286e-05 0 -5.87727e-05 -1.31552e-05 0 -5.59326e-05 -1.33637e-05 0 -5.3074e-05 -1.34609e-05 0 -5.22261e-05 1.64558e-05 0 -5.52195e-05 1.63919e-05 0 -5.82102e-05 1.61914e-05 0 -6.11699e-05 1.58448e-05 0 -6.40683e-05 1.5345e-05 0 -6.68732e-05 1.46881e-05 0 -6.95518e-05 1.38745e-05 0 -7.20716e-05 1.29079e-05 0 -7.44014e-05 1.17939e-05 0 -7.65119e-05 1.05465e-05 0 -7.8377e-05 9.17721e-06 0 -7.99737e-05 7.70168e-06 0 -8.12828e-05 6.13714e-06 0 -8.2289e-05 4.50195e-06 0 -8.29805e-05 2.81518e-06 0 -8.33496e-05 1.09633e-06 0 -8.33922e-05 -6.34789e-07 0 -8.3108e-05 -2.35794e-06 0 -8.25001e-05 -4.05325e-06 0 -8.15756e-05 -5.70108e-06 0 -8.03452e-05 -7.28217e-06 0 -7.88236e-05 -8.77794e-06 0 -7.70294e-05 -1.01709e-05 0 -7.49848e-05 -1.14449e-05 0 -7.27155e-05 -1.25882e-05 0 -7.02502e-05 -1.35863e-05 0 -6.76198e-05 -1.44331e-05 0 -6.48566e-05 -1.51245e-05 0 -6.19931e-05 -1.56596e-05 0 -5.90613e-05 -1.60417e-05 0 -5.6092e-05 -1.62775e-05 0 -5.31133e-05 -1.63761e-05 0 -5.22112e-05 1.95084e-05 0 -5.5349e-05 1.94614e-05 0 -5.84965e-05 1.92498e-05 0 -6.16227e-05 1.88612e-05 0 -6.46937e-05 1.82862e-05 0 -6.76735e-05 1.75194e-05 0 -7.0525e-05 1.65612e-05 0 -7.32115e-05 1.54159e-05 0 -7.56978e-05 1.40908e-05 0 -7.79512e-05 1.26034e-05 0 -7.99428e-05 1.09682e-05 0 -8.16474e-05 9.20485e-06 0 -8.30445e-05 7.33455e-06 0 -8.41177e-05 5.37974e-06 0 -8.4855e-05 3.36346e-06 0 -8.52482e-05 1.30904e-06 0 -8.52932e-05 -7.59981e-07 0 -8.49896e-05 -2.81958e-06 0 -8.43405e-05 -4.84612e-06 0 -8.33533e-05 -6.81612e-06 0 -8.20392e-05 -8.70632e-06 0 -8.04136e-05 -1.0494e-05 0 -7.84965e-05 -1.21576e-05 0 -7.63121e-05 -1.36771e-05 0 -7.3889e-05 -1.50375e-05 0 -7.12592e-05 -1.62206e-05 0 -6.84575e-05 -1.72189e-05 0 -6.55204e-05 -1.80271e-05 0 -6.24848e-05 -1.86443e-05 0 -5.93867e-05 -1.90756e-05 0 -5.626e-05 -1.93294e-05 0 -5.31359e-05 -1.94178e-05 0 -5.21618e-05 2.27106e-05 0 -5.54695e-05 2.26958e-05 0 -5.88025e-05 2.24858e-05 0 -6.21268e-05 2.20644e-05 0 -6.5404e-05 2.14193e-05 0 -6.85932e-05 2.0543e-05 0 -7.16518e-05 1.94355e-05 0 -7.45378e-05 1.81024e-05 0 -7.72109e-05 1.65526e-05 0 -7.96343e-05 1.48082e-05 0 -8.17755e-05 1.28876e-05 0 -8.36073e-05 1.0815e-05 0 -8.51075e-05 8.61638e-06 0 -8.6259e-05 6.31882e-06 0 -8.70494e-05 3.94961e-06 0 -8.74707e-05 1.5361e-06 0 -8.75184e-05 -8.94374e-07 0 -8.71923e-05 -3.314e-06 0 -8.64955e-05 -5.69532e-06 0 -8.54352e-05 -8.01083e-06 0 -8.4023e-05 -1.0233e-05 0 -8.22749e-05 -1.23344e-05 0 -8.02123e-05 -1.42887e-05 0 -7.78617e-05 -1.6071e-05 0 -7.52549e-05 -1.76625e-05 0 -7.24282e-05 -1.90406e-05 0 -6.94212e-05 -2.01954e-05 0 -6.6276e-05 -2.11207e-05 0 -6.30348e-05 -2.18157e-05 0 -5.97385e-05 -2.22873e-05 0 -5.64256e-05 -2.2547e-05 0 -5.31305e-05 -2.26105e-05 0 -5.20498e-05 2.6089e-05 0 -5.55604e-05 2.61259e-05 0 -5.91175e-05 2.59342e-05 0 -6.26827e-05 2.54924e-05 0 -6.62124e-05 2.47841e-05 0 -6.96588e-05 2.37991e-05 0 -7.29722e-05 2.25368e-05 0 -7.6103e-05 2.1004e-05 0 -7.90044e-05 1.92124e-05 0 -8.1634e-05 1.71898e-05 0 -8.39555e-05 1.49593e-05 0 -8.59391e-05 1.25512e-05 0 -8.75614e-05 9.99712e-06 0 -8.8805e-05 7.32933e-06 0 -8.96577e-05 4.57977e-06 0 -9.01116e-05 1.77986e-06 0 -9.01627e-05 -1.03936e-06 0 -8.98105e-05 -3.84641e-06 0 -8.9058e-05 -6.6101e-06 0 -8.79119e-05 -9.29885e-06 0 -8.63835e-05 -1.18804e-05 0 -8.44891e-05 -1.43222e-05 0 -8.22513e-05 -1.65921e-05 0 -7.96989e-05 -1.86592e-05 0 -7.68676e-05 -2.04996e-05 0 -7.37991e-05 -2.2085e-05 0 -7.05397e-05 -2.34027e-05 0 -6.71386e-05 -2.4445e-05 0 -6.36455e-05 -2.52116e-05 0 -6.01081e-05 -2.57119e-05 0 -5.65703e-05 -2.59615e-05 0 -5.30707e-05 -2.5981e-05 0 -5.18636e-05 2.96716e-05 0 -5.56069e-05 2.97857e-05 0 -5.94235e-05 2.96341e-05 0 -6.32706e-05 2.91885e-05 0 -6.70974e-05 2.84267e-05 0 -7.08477e-05 2.73345e-05 0 -7.44622e-05 2.59105e-05 0 -7.78817e-05 2.4163e-05 0 -8.10508e-05 2.21077e-05 0 -8.39205e-05 1.97798e-05 0 -8.645e-05 1.72091e-05 0 -8.8607e-05 1.44335e-05 0 -9.03675e-05 1.14915e-05 0 -9.17144e-05 8.42134e-06 0 -9.26363e-05 5.2599e-06 0 -9.31265e-05 2.04258e-06 0 -9.31815e-05 -1.19621e-06 0 -9.28006e-05 -4.42176e-06 0 -9.19862e-05 -7.59953e-06 0 -9.0744e-05 -1.06939e-05 0 -8.90844e-05 -1.36677e-05 0 -8.7023e-05 -1.64824e-05 0 -8.45831e-05 -1.90988e-05 0 -8.17958e-05 -2.14784e-05 0 -7.87011e-05 -2.35905e-05 0 -7.53473e-05 -2.5399e-05 0 -7.17894e-05 -2.68874e-05 0 -6.8086e-05 -2.80461e-05 0 -6.42963e-05 -2.88754e-05 0 -6.04768e-05 -2.93887e-05 0 -5.66782e-05 -2.9607e-05 0 -5.29438e-05 -2.95578e-05 0 -5.15682e-05 3.34878e-05 0 -5.55789e-05 3.37115e-05 0 -5.96983e-05 3.36289e-05 0 -6.38778e-05 3.32018e-05 0 -6.80584e-05 3.24001e-05 0 -7.21724e-05 3.12035e-05 0 -7.61474e-05 2.96089e-05 0 -7.99113e-05 2.76274e-05 0 -8.33974e-05 2.52801e-05 0 -8.65481e-05 2.26124e-05 0 -8.93177e-05 1.96638e-05 0 -9.1672e-05 1.64817e-05 0 -9.35873e-05 1.31135e-05 0 -9.50485e-05 9.60402e-06 0 -9.60466e-05 5.99531e-06 0 -9.65765e-05 2.32632e-06 0 -9.66358e-05 -1.36589e-06 0 -9.62239e-05 -5.0443e-06 0 -9.5342e-05 -8.67172e-06 0 -9.39939e-05 -1.2209e-05 0 -9.21873e-05 -1.56138e-05 0 -8.99362e-05 -1.88408e-05 0 -8.72631e-05 -2.18422e-05 0 -8.42008e-05 -2.45695e-05 0 -8.07943e-05 -2.69825e-05 0 -7.71001e-05 -2.90346e-05 0 -7.31844e-05 -3.07035e-05 0 -6.9119e-05 -3.19768e-05 0 -6.49761e-05 -3.28565e-05 0 -6.08235e-05 -3.33612e-05 0 -5.67207e-05 -3.35203e-05 0 -5.27165e-05 -3.33707e-05 0 -5.11177e-05 3.75692e-05 0 -5.54347e-05 3.79451e-05 0 -5.99075e-05 3.797e-05 0 -6.4482e-05 3.75927e-05 0 -6.90883e-05 3.67704e-05 0 -7.3643e-05 3.54741e-05 0 -7.80554e-05 3.36979e-05 0 -8.22347e-05 3.14562e-05 0 -8.60984e-05 2.87791e-05 0 -8.95784e-05 2.57268e-05 0 -9.26236e-05 2.2352e-05 0 -9.51995e-05 1.87158e-05 0 -9.72852e-05 1.4876e-05 0 -9.88699e-05 1.08852e-05 0 -9.9949e-05 6.79027e-06 0 -0.000100521 2.6328e-06 0 -0.000100585 -1.54891e-06 0 -0.000100141 -5.71709e-06 0 -9.91883e-05 -9.83327e-06 0 -9.77264e-05 -1.38557e-05 0 -9.57588e-05 -1.77373e-05 0 -9.32949e-05 -2.1425e-05 0 -9.03541e-05 -2.48602e-05 0 -8.69697e-05 -2.79811e-05 0 -8.31915e-05 -3.07339e-05 0 -7.90866e-05 -3.3057e-05 0 -7.47369e-05 -3.49189e-05 0 -7.02325e-05 -3.63035e-05 0 -6.56644e-05 -3.72152e-05 0 -6.11159e-05 -3.76815e-05 0 -5.66574e-05 -3.77438e-05 0 -5.23438e-05 -3.74521e-05 0 -5.04858e-05 4.19471e-05 0 -5.51447e-05 4.25303e-05 0 -6.00211e-05 4.27152e-05 0 -6.50555e-05 4.24313e-05 0 -7.01649e-05 4.1617e-05 0 -7.52454e-05 4.02289e-05 0 -8.018e-05 3.82561e-05 0 -8.48516e-05 3.57185e-05 0 -8.91563e-05 3.26601e-05 0 -9.30128e-05 2.91635e-05 0 -9.63652e-05 2.53012e-05 0 -9.91815e-05 2.11524e-05 0 -0.000101447 1.67881e-05 0 -0.000103159 1.22693e-05 0 -0.000104321 7.64678e-06 0 -0.000104935 2.96294e-06 0 -0.000105005 -1.74495e-06 0 -0.00010453 -6.44083e-06 0 -0.000103506 -1.10873e-05 0 -0.000101927 -1.56419e-05 0 -9.97903e-05 -2.00536e-05 0 -9.70961e-05 -2.4261e-05 0 -9.38574e-05 -2.81923e-05 0 -9.01048e-05 -3.17677e-05 0 -8.58925e-05 -3.4913e-05 0 -8.13007e-05 -3.75443e-05 0 -7.64324e-05 -3.96157e-05 0 -7.14042e-05 -4.11053e-05 0 -6.63331e-05 -4.2022e-05 0 -6.13233e-05 -4.24076e-05 0 -5.64585e-05 -4.23218e-05 0 -5.17992e-05 -4.18339e-05 0 -4.95774e-05 4.66512e-05 0 -5.4618e-05 4.75139e-05 0 -5.99608e-05 4.79306e-05 0 -6.55441e-05 4.78031e-05 0 -7.12695e-05 4.70401e-05 0 -7.70034e-05 4.55739e-05 0 -8.25882e-05 4.33838e-05 0 -8.78652e-05 4.04989e-05 0 -9.26984e-05 3.69867e-05 0 -9.699e-05 3.29648e-05 0 -0.000100683 2.85355e-05 0 -0.000103753 2.38025e-05 0 -0.000106201 1.88528e-05 0 -0.000108037 1.37555e-05 0 -0.000109275 8.56328e-06 0 -0.000109929 3.31644e-06 0 -0.000110006 -1.9524e-06 0 -0.000109503 -7.21265e-06 0 -0.000108415 -1.24316e-05 0 -0.000106725 -1.7569e-05 0 -0.000104419 -2.25721e-05 0 -0.000101482 -2.73715e-05 0 -9.79142e-05 -3.18795e-05 0 -9.37363e-05 -3.59916e-05 0 -8.90037e-05 -3.96035e-05 0 -8.38128e-05 -4.25963e-05 0 -7.82985e-05 -4.48998e-05 0 -7.26189e-05 -4.64827e-05 0 -6.69315e-05 -4.7363e-05 0 -6.13708e-05 -4.76064e-05 0 -5.60358e-05 -4.73021e-05 0 -5.09898e-05 -4.65469e-05 0 -4.83355e-05 5.17064e-05 0 -5.37883e-05 5.29432e-05 0 -5.96573e-05 5.36925e-05 0 -6.5886e-05 5.38161e-05 0 -7.23613e-05 5.31741e-05 0 -7.89078e-05 5.16541e-05 0 -8.53029e-05 4.92167e-05 0 -9.13218e-05 4.59061e-05 0 -9.67803e-05 4.1833e-05 0 -0.000101562 3.71718e-05 0 -0.000105616 3.20706e-05 0 -0.00010894 2.66657e-05 0 -0.000111557 2.10618e-05 0 -0.0001135 1.5334e-05 0 -0.000114803 9.53264e-06 0 -0.00011549 3.69111e-06 0 -0.000115573 -2.1677e-06 0 -0.000115053 -8.02395e-06 0 -0.000113914 -1.38548e-05 0 -0.000112131 -1.96271e-05 0 -0.000109669 -2.52906e-05 0 -0.000106493 -3.07703e-05 0 -0.000102577 -3.5961e-05 0 -9.79204e-05 -4.07252e-05 0 -9.25724e-05 -4.49129e-05 0 -8.66471e-05 -4.83478e-05 0 -8.03272e-05 -5.0916e-05 0 -7.38367e-05 -5.25703e-05 0 -6.73987e-05 -5.33469e-05 0 -6.11895e-05 -5.33553e-05 0 -5.53233e-05 -5.27331e-05 0 -4.98587e-05 -5.16171e-05 0 -4.66874e-05 5.71245e-05 0 -5.25678e-05 5.88566e-05 0 -5.90142e-05 6.00797e-05 0 -6.59923e-05 6.05992e-05 0 -7.33827e-05 6.01937e-05 0 -8.09511e-05 5.86667e-05 0 -8.83753e-05 5.59347e-05 0 -9.53099e-05 5.20735e-05 0 -0.000101501 4.72761e-05 0 -0.000106819 4.1814e-05 0 -0.000111235 3.59039e-05 0 -0.000114789 2.97227e-05 0 -0.000117543 2.33908e-05 0 -0.000119564 1.69829e-05 0 -0.000120908 1.05404e-05 0 -0.000121615 4.08228e-06 0 -0.000121706 -2.38492e-06 0 -0.00012118 -8.85889e-06 0 -0.000120015 -1.53334e-05 0 -0.000118171 -2.17899e-05 0 -0.000115588 -2.81878e-05 0 -0.000112199 -3.44526e-05 0 -0.000107936 -4.04639e-05 0 -0.000102758 -4.60436e-05 0 -9.66884e-05 -5.0973e-05 0 -8.98562e-05 -5.49778e-05 0 -8.25124e-05 -5.78612e-05 0 -7.50019e-05 -5.95433e-05 0 -6.76471e-05 -6.01033e-05 0 -6.06839e-05 -5.97343e-05 0 -5.42337e-05 -5.86549e-05 0 -4.83335e-05 -5.70579e-05 0 -4.44192e-05 6.28933e-05 0 -5.07071e-05 6.52714e-05 0 -5.77592e-05 6.71657e-05 0 -6.56106e-05 6.83118e-05 0 -7.41784e-05 6.83525e-05 0 -8.31574e-05 6.69112e-05 0 -9.20146e-05 6.38087e-05 0 -0.000100159 5.91762e-05 0 -0.000107223 5.33906e-05 0 -0.000113094 4.68934e-05 0 -0.000117822 3.99983e-05 0 -0.000121529 3.2922e-05 0 -0.000124343 2.57896e-05 0 -0.000126377 1.86626e-05 0 -0.000127718 1.15615e-05 0 -0.000128424 4.48174e-06 0 -0.000128522 -2.59474e-06 0 -0.000128015 -9.69109e-06 0 -0.00012687 -1.6826e-05 0 -0.000125031 -2.40052e-05 0 -0.000122407 -3.12095e-05 0 -0.000118884 -3.83784e-05 0 -0.000114328 -4.53873e-05 0 -0.000108615 -5.20188e-05 0 -0.000101688 -5.79566e-05 0 -9.36568e-05 -6.27559e-05 0 -8.48863e-05 -6.60347e-05 0 -7.59664e-05 -6.7656e-05 0 -6.74308e-05 -6.77936e-05 0 -5.95871e-05 -6.68191e-05 0 -5.25219e-05 -6.50867e-05 0 -4.62035e-05 -6.2859e-05 0 -4.1508e-05 6.89599e-05 0 -4.81294e-05 7.2154e-05 0 -5.57419e-05 7.49825e-05 0 -6.45263e-05 7.71257e-05 0 -7.45506e-05 7.80212e-05 0 -8.54797e-05 7.68887e-05 0 -9.62833e-05 7.32584e-05 0 -0.000105995 6.74268e-05 0 -0.000114021 6.02121e-05 0 -0.000120379 5.23488e-05 0 -0.0001253 4.42571e-05 0 -0.000129035 3.6166e-05 0 -0.000131802 2.81756e-05 0 -0.000133768 2.03118e-05 0 -0.000135052 1.25588e-05 0 -0.000135728 4.87729e-06 0 -0.000135835 -2.78425e-06 0 -0.000135373 -1.04825e-05 0 -0.000134305 -1.82699e-05 0 -0.000132554 -2.61879e-05 0 -0.000129999 -3.42549e-05 0 -0.00012647 -4.24472e-05 0 -0.000121746 -5.06661e-05 0 -0.000115566 -5.86825e-05 0 -0.000107696 -6.60734e-05 0 -9.81119e-05 -7.21002e-05 0 -8.74022e-05 -7.59374e-05 0 -7.65325e-05 -7.72807e-05 0 -6.65345e-05 -7.65918e-05 0 -5.77476e-05 -7.46449e-05 0 -5.0109e-05 -7.19982e-05 0 -4.34434e-05 -6.89701e-05 0 -3.77783e-05 7.52147e-05 0 -4.45634e-05 7.93801e-05 0 -5.25379e-05 8.34462e-05 0 -6.21355e-05 8.71443e-05 0 -7.38821e-05 8.97264e-05 0 -8.77999e-05 8.96564e-05 0 -0.000102049 8.49696e-05 0 -0.000113801 7.70164e-05 0 -0.000122706 6.76521e-05 0 -0.000129297 5.79999e-05 0 -0.000134147 4.8497e-05 0 -0.000137693 3.92994e-05 0 -0.000140247 3.04296e-05 0 -0.000142027 2.18478e-05 0 -0.000143177 1.34838e-05 0 -0.000143788 5.25288e-06 0 -0.000143903 -2.9374e-06 0 -0.000143524 -1.11839e-05 0 -0.000142607 -1.95808e-05 0 -0.000141064 -2.82164e-05 0 -0.000138747 -3.7165e-05 0 -0.000135436 -4.64708e-05 0 -0.000130812 -5.61145e-05 0 -0.000124429 -6.5941e-05 0 -0.000115705 -7.55104e-05 0 -0.000104098 -8.3694e-05 0 -8.9951e-05 -8.86266e-05 0 -7.60915e-05 -8.8946e-05 0 -6.43613e-05 -8.66056e-05 0 -5.4745e-05 -8.31322e-05 0 -4.67256e-05 -7.92692e-05 0 -3.98781e-05 -7.52848e-05 0 -3.31211e-05 8.14766e-05 0 -3.97858e-05 8.66752e-05 0 -4.76667e-05 9.22026e-05 0 -5.7448e-05 9.81032e-05 0 -7.04898e-05 0.000104039 0 -8.98745e-05 0.000107286 0 -0.000112271 0.000100153 0 -0.000126049 8.77888e-05 0 -0.000135118 7.52871e-05 0 -0.000141325 6.34523e-05 0 -0.000145652 5.24081e-05 0 -0.000148688 4.20932e-05 0 -0.000150807 3.23898e-05 0 -0.000152252 2.31631e-05 0 -0.000153177 1.4275e-05 0 -0.000153678 5.58805e-06 0 -0.0001538 -3.035e-06 0 -0.000153545 -1.17345e-05 0 -0.000152872 -2.06505e-05 0 -0.000151688 -2.99259e-05 0 -0.000149836 -3.97058e-05 0 -0.000147069 -5.01324e-05 0 -0.000143007 -6.13299e-05 0 -0.000137047 -7.33626e-05 0 -0.000128193 -8.61044e-05 0 -0.000114584 -9.87443e-05 0 -9.23017e-05 -0.000106174 0 -7.29713e-05 -0.000103227 0 -5.99284e-05 -9.75774e-05 0 -5.01024e-05 -9.1935e-05 0 -4.21484e-05 -8.6632e-05 0 -3.53965e-05 -8.16259e-05 0 -2.76758e-05 8.75302e-05 0 -3.39194e-05 9.36341e-05 0 -4.11085e-05 0.000100541 0 -4.99115e-05 0.000108825 0 -6.17905e-05 0.000119416 0 -8.00443e-05 0.000135055 0 -0.000101058 0.000117652 0 -0.00011348 9.83228e-05 0 -0.000121156 8.21733e-05 0 -0.000126116 6.80907e-05 0 -0.000129395 5.55822e-05 0 -0.000131585 4.42738e-05 0 -0.000133051 3.3874e-05 0 -0.000134018 2.41414e-05 0 -0.000134633 1.48668e-05 0 -0.000134983 5.8605e-06 0 -0.000135109 -3.05795e-06 0 -0.000135017 -1.20707e-05 0 -0.000134671 -2.13627e-05 0 -0.000133988 -3.11316e-05 0 -0.000132823 -4.1598e-05 0 -0.000130946 -5.30152e-05 0 -0.000127981 -6.5686e-05 0 -0.00012332 -7.99917e-05 0 -0.000115906 -9.64241e-05 0 -0.000103688 -0.000116088 0 -8.28035e-05 -0.000133857 0 -6.45959e-05 -0.000118588 0 -5.26874e-05 -0.000108341 0 -4.37988e-05 -0.000100354 0 -3.64948e-05 -9.36911e-05 0 -3.01308e-05 -8.77832e-05 0 -2.15504e-05 9.31977e-05 0 -2.71182e-05 9.98216e-05 0 -3.29683e-05 0.000107548 0 -3.94083e-05 0.000117393 0 -4.70794e-05 0.000130936 0 -5.62834e-05 0.000150753 0 -6.52549e-05 0.000129823 0 -7.21166e-05 0.000105989 0 -7.6501e-05 8.70204e-05 0 -7.91954e-05 7.11836e-05 0 -8.08282e-05 5.75718e-05 0 -8.18042e-05 4.55562e-05 0 -8.23801e-05 3.46983e-05 0 -8.27211e-05 2.4667e-05 0 -8.29346e-05 1.51941e-05 0 -8.30873e-05 6.04723e-06 0 -8.32142e-05 -2.98941e-06 0 -8.33221e-05 -1.21323e-05 0 -8.33881e-05 -2.16037e-05 0 -8.33547e-05 -3.16478e-05 0 -8.31183e-05 -4.25495e-05 0 -8.25097e-05 -5.46592e-05 0 -8.12593e-05 -6.84348e-05 0 -7.89391e-05 -8.45194e-05 0 -7.48887e-05 -0.000103824 0 -6.82855e-05 -0.000128072 0 -5.94663e-05 -0.000149465 0 -5.02933e-05 -0.000130118 0 -4.25414e-05 -0.000117 0 -3.59441e-05 -0.0001075 0 -2.99096e-05 -0.000100028 0 -2.41738e-05 -9.35845e-05 0 -1.52017e-05 9.84624e-05 0 -2.01086e-05 0.000104965 0 -2.43439e-05 0.000112514 0 -2.77669e-05 0.000122409 0 -3.04696e-05 0.000136383 0 -3.2612e-05 0.000156449 0 -3.41539e-05 0.000134491 0 -3.49939e-05 0.000109025 0 -3.52283e-05 8.8772e-05 0 -3.50604e-05 7.2103e-05 0 -3.46706e-05 5.7992e-05 0 -3.41927e-05 4.56973e-05 0 -3.37242e-05 3.47064e-05 0 -3.33374e-05 2.46409e-05 0 -3.3086e-05 1.51999e-05 0 -3.30083e-05 6.12611e-06 0 -3.31288e-05 -2.81814e-06 0 -3.34577e-05 -1.18713e-05 0 -3.39901e-05 -2.12797e-05 0 -3.47036e-05 -3.13175e-05 0 -3.55533e-05 -4.23094e-05 0 -3.6466e-05 -5.46636e-05 0 -3.73295e-05 -6.8924e-05 0 -3.7979e-05 -8.58602e-05 0 -3.8187e-05 -0.000106511 0 -3.76923e-05 -0.0001325 0 -3.63429e-05 -0.000155065 0 -3.42071e-05 -0.00013562 0 -3.13356e-05 -0.000122194 0 -2.76305e-05 -0.000112703 0 -2.30948e-05 -0.000105397 0 -1.79522e-05 -9.90182e-05 0 -9.1543e-06 0.000103606 0 -1.37844e-05 0.000109137 0 -1.654e-05 0.000115208 0 -1.68312e-05 0.0001234 0 -1.43746e-05 0.000135706 0 -9.40884e-06 0.000154522 0 -3.39705e-06 0.000132214 0 1.89871e-06 0.000106938 0 6.0298e-06 8.69602e-05 0 9.23803e-06 7.05296e-05 0 1.17793e-05 5.66343e-05 0 1.38049e-05 4.45581e-05 0 1.53874e-05 3.3804e-05 0 1.65539e-05 2.39996e-05 0 1.73075e-05 1.48447e-05 0 1.76392e-05 6.07842e-06 0 1.75355e-05 -2.54214e-06 0 1.69811e-05 -1.12625e-05 0 1.59606e-05 -2.03371e-05 0 1.44577e-05 -3.00488e-05 0 1.24517e-05 -4.0731e-05 0 9.91024e-06 -5.27995e-05 0 6.77395e-06 -6.68013e-05 0 2.93014e-06 -8.3502e-05 0 -1.80973e-06 -0.000103946 0 -7.59458e-06 -0.000129893 0 -1.38746e-05 -0.000153026 0 -1.8814e-05 -0.000135073 0 -2.09507e-05 -0.000123513 0 -2.01538e-05 -0.000115807 0 -1.68939e-05 -0.00010992 0 -1.19302e-05 -0.000104367 0 -4.10825e-06 0.00010939 0 -9.41086e-06 0.000112859 0 -1.12668e-05 0.00011584 0 -8.71643e-06 0.000120348 0 -1.052e-06 0.000128534 0 1.2604e-05 0.0001439 0 2.84007e-05 0.000122444 0 4.0024e-05 9.97167e-05 0 4.81828e-05 8.16345e-05 0 5.41714e-05 6.64836e-05 0 5.87221e-05 5.34919e-05 0 6.223e-05 4.21177e-05 0 6.49042e-05 3.19647e-05 0 6.68506e-05 2.27173e-05 0 6.81169e-05 1.41061e-05 0 6.87174e-05 5.88773e-06 0 6.86458e-05 -2.17065e-06 0 6.78811e-05 -1.03071e-05 0 6.63883e-05 -1.87681e-05 0 6.41146e-05 -2.78245e-05 0 6.0981e-05 -3.77888e-05 0 5.68635e-05 -4.90367e-05 0 5.15581e-05 -6.20402e-05 0 4.47112e-05 -7.74255e-05 0 3.56805e-05 -9.60357e-05 0 2.33159e-05 -0.00011963 0 7.09196e-06 -0.000142242 0 -6.51007e-06 -0.000128152 0 -1.35907e-05 -0.000121067 0 -1.52039e-05 -0.000117178 0 -1.24482e-05 -0.000114213 0 -6.66318e-06 -0.000110373 0 -9.08221e-07 0.000117343 0 -8.62797e-06 0.000117162 0 -1.04498e-05 0.000114927 0 -5.60122e-06 0.000113719 0 6.03635e-06 0.000115131 0 2.77437e-05 0.000118052 0 5.53581e-05 0.000104887 0 7.12116e-05 8.82583e-05 0 8.21296e-05 7.34244e-05 0 9.02102e-05 6.03233e-05 0 9.63994e-05 4.87547e-05 0 0.000101193 3.84695e-05 0 0.000104861 2.92288e-05 0 0.000107543 2.08047e-05 0 0.00010931 1.2979e-05 0 0.000110186 5.5394e-06 0 0.000110168 -1.72518e-06 0 0.000109228 -9.03386e-06 0 0.000107313 -1.66127e-05 0 0.000104345 -2.47047e-05 0 0.000100202 -3.35795e-05 0 9.47019e-05 -4.35428e-05 0 8.75596e-05 -5.49416e-05 0 7.83095e-05 -6.81606e-05 0 6.61101e-05 -8.35391e-05 0 4.90713e-05 -0.000101269 0 2.06856e-05 -0.000116089 0 -1.0103e-06 -0.000115164 0 -1.16265e-05 -0.00011556 0 -1.46745e-05 -0.000117675 0 -1.11169e-05 -0.000119517 0 -2.6809e-06 -0.000118485 0 -8.59848e-07 0.000130525 0 -1.41909e-05 0.000123581 0 -1.64261e-05 0.000112678 0 -8.91229e-06 0.000104148 0 4.98008e-06 9.90758e-05 0 2.31939e-05 9.44022e-05 0 4.21178e-05 8.60217e-05 0 5.75994e-05 7.48837e-05 0 6.95301e-05 6.34392e-05 0 7.88389e-05 5.26305e-05 0 8.62024e-05 4.27355e-05 0 9.203e-05 3.37795e-05 0 9.65567e-05 2.56787e-05 0 9.99104e-05 1.82963e-05 0 0.000102155 1.14683e-05 0 0.000103312 5.01788e-06 0 0.000103375 -1.23897e-06 0 0.000102309 -7.49593e-06 0 0.000100052 -1.39508e-05 0 9.65069e-05 -2.08095e-05 0 9.15311e-05 -2.829e-05 0 8.49198e-05 -3.66204e-05 0 7.63794e-05 -4.60259e-05 0 6.54904e-05 -5.66828e-05 0 5.16639e-05 -6.85588e-05 0 3.42274e-05 -8.10043e-05 0 1.37898e-05 -9.17402e-05 0 -4.74114e-06 -9.96679e-05 0 -1.69893e-05 -0.000108057 0 -2.0913e-05 -0.000118309 0 -1.49486e-05 -0.000127892 0 -5.02692e-07 -0.000131462 0 -6.87102e-06 0.000156075 0 -3.24548e-05 0.000133712 0 -3.23773e-05 0.000106964 0 -1.81948e-05 9.04878e-05 0 -5.90605e-07 8.21323e-05 0 1.69981e-05 7.63287e-05 0 3.33725e-05 6.96696e-05 0 4.76154e-05 6.15439e-05 0 5.95336e-05 5.27259e-05 0 6.94067e-05 4.39879e-05 0 7.75507e-05 3.57603e-05 0 8.4188e-05 2.82258e-05 0 8.94524e-05 2.14068e-05 0 9.34176e-05 1.52325e-05 0 9.61193e-05 9.5808e-06 0 9.7566e-05 4.3044e-06 0 9.77436e-05 -7.54987e-07 0 9.66137e-05 -5.7639e-06 0 9.4109e-05 -1.08888e-05 0 9.01267e-05 -1.62957e-05 0 8.45192e-05 -2.21513e-05 0 7.70847e-05 -2.86168e-05 0 6.75585e-05 -3.58336e-05 0 5.56184e-05 -4.38878e-05 0 4.09474e-05 -5.27328e-05 0 2.34855e-05 -6.21544e-05 0 4.0667e-06 -7.19524e-05 0 -1.50646e-05 -8.30506e-05 0 -3.06223e-05 -9.80319e-05 0 -3.75576e-05 -0.000118995 0 -2.8338e-05 -0.000142583 0 -7.79621e-07 -0.000155246 0 -2.82418e-05 0.000216515 0 -8.21788e-05 0.000144767 0 -6.10468e-05 8.77818e-05 0 -2.95049e-05 6.85572e-05 0 -5.91656e-06 6.30776e-05 0 1.19836e-05 5.96515e-05 0 2.69331e-05 5.49993e-05 0 4.00259e-05 4.88565e-05 0 5.15761e-05 4.18789e-05 0 6.16837e-05 3.47912e-05 0 7.03899e-05 2.80653e-05 0 7.77085e-05 2.19414e-05 0 8.36406e-05 1.64825e-05 0 8.81838e-05 1.16429e-05 0 9.13345e-05 7.31786e-06 0 9.30844e-05 3.37572e-06 0 9.34145e-05 -3.22418e-07 0 9.22866e-05 -3.91803e-06 0 8.96357e-05 -7.54617e-06 0 8.53618e-05 -1.13337e-05 0 7.93229e-05 -1.54001e-05 0 7.13297e-05 -1.98537e-05 0 6.11467e-05 -2.47844e-05 0 4.85062e-05 -3.02572e-05 0 3.31598e-05 -3.63139e-05 0 1.49918e-05 -4.31107e-05 0 -5.82233e-06 -5.12398e-05 0 -2.87084e-05 -6.25379e-05 0 -5.22187e-05 -8.12343e-05 0 -7.07669e-05 -0.000114816 0 -6.42386e-05 -0.000167887 0 -4.79639e-06 -0.00020655 0 -0.000113122 0.000438526 0 -0.000219703 0.000100215 0 -8.71789e-05 2.89144e-05 0 -3.08815e-05 3.60188e-05 0 -5.84094e-06 4.31892e-05 0 9.60828e-06 4.46184e-05 0 2.22385e-05 4.19496e-05 0 3.39537e-05 3.69942e-05 0 4.50517e-05 3.11058e-05 0 5.53562e-05 2.51891e-05 0 6.46135e-05 1.97383e-05 0 7.26138e-05 1.49738e-05 0 7.92163e-05 1.09297e-05 0 8.43405e-05 7.53556e-06 0 8.79472e-05 4.67214e-06 0 9.00182e-05 2.20591e-06 0 9.05373e-05 8.3934e-09 0 8.94752e-05 -2.04011e-06 0 8.67768e-05 -4.04402e-06 0 8.23523e-05 -6.09187e-06 0 7.60706e-05 -8.2592e-06 0 6.77565e-05 -1.06085e-05 0 5.71911e-05 -1.31891e-05 0 4.41172e-05 -1.60425e-05 0 2.82421e-05 -1.92251e-05 0 9.2082e-06 -2.29316e-05 0 -1.35556e-05 -2.77376e-05 0 -4.12602e-05 -3.52601e-05 0 -7.6585e-05 -4.99706e-05 0 -0.000123923 -8.57789e-05 0 -0.000169415 -0.00019193 0 -1.63805e-05 -0.00036378 0 0.00241743 0.0214404 0 -0.000200959 -0.000337737 0 -3.23106e-05 -5.73068e-05 0 -7.24217e-06 9.14212e-06 0 1.81709e-06 2.95094e-05 0 9.39159e-06 3.36444e-05 0 1.82397e-05 3.11056e-05 0 2.8441e-05 2.59796e-05 0 3.93665e-05 2.02587e-05 0 5.00904e-05 1.50681e-05 0 6.01052e-05 1.06936e-05 0 6.89258e-05 7.26874e-06 0 7.62757e-05 4.71979e-06 0 8.20164e-05 2.89629e-06 0 8.60942e-05 1.63144e-06 0 8.84998e-05 7.72183e-07 0 8.92354e-05 1.93034e-07 0 8.82926e-05 -2.05606e-07 0 8.56354e-05 -4.9654e-07 0 8.11905e-05 -7.28806e-07 0 7.48414e-05 -9.3411e-07 0 6.64256e-05 -1.13025e-06 0 5.57357e-05 -1.32331e-06 0 4.25175e-05 -1.50922e-06 0 2.6452e-05 -1.67399e-06 0 7.0559e-06 -1.80343e-06 0 -1.65919e-05 -1.89342e-06 0 -4.66342e-05 -1.97262e-06 0 -8.86939e-05 -2.13889e-06 0 -0.000160619 -2.70614e-06 0 -0.000356097 -7.62402e-06 0 0.000955673 -0.00728778 0 </DataArray> 
</PointData> 
<Points> 
<DataArray type="Float32" NumberOfComponents="3"> 