<?xml version="1.0"?> 
<VTKFile type="StructuredGrid" version="0.1"> 
<StructuredGrid WholeExtent="0 31 0 31 0 0"> 
<Piece Extent="0 31 0 31 0 0"> 
<PointData>
<DataArray type="Float32" Name="B" format="ascii" NumberOfComponents="3"> 
-0.000139285 -0.00175103 0 -3.84774e-05 4.92421e-05 0 -1.77173e-05 2.34799e-05 0 -1.2876e-05 1.32836e-05 0 -1.06693e-05 7.89735e-06 0 -9.29058e-06 4.64648e-06 0 -8.28239e-06 2.5461e-06 0 -7.47908e-06 1.14477e-06 0 -6.80442e-06 2.04189e-07 0 -6.21716e-06 -4.38131e-07 0 -5.69359e-06 -8.69631e-07 0 -5.21855e-06 -1.14051e-06 0 -4.78251e-06 -1.31446e-06 0 -4.37914e-06 -1.4107e-06 0 -4.00391e-06 -1.45473e-06 0 -3.65361e-06 -1.46505e-06 0 -3.32571e-06 -1.4481e-06 0 -3.01811e-06 -1.41636e-06 0 -2.72904e-06 -1.37479e-06 0 -2.45683e-06 -1.32737e-06 0 -2.19996e-06 -1.27794e-06 0 -1.957e-06 -1.22865e-06 0 -1.72652e-06 -1.18122e-06 0 -1.50718e-06 -1.13662e-06 0 -1.29766e-06 -1.09644e-06 0 -1.09666e-06 -1.06054e-06 0 -9.02914e-07 -1.02959e-06 0 -7.15171e-07 -1.00426e-06 0 -5.32211e-07 -9.84035e-07 0 -3.52835e-07 -9.69765e-07 0 -1.75821e-07 -9.6118e-07 0 0 -9.57931e-07 0 -3.96802e-05 -3.78768e-06 0 -4.09843e-05 1.09394e-05 0 -2.63214e-05 1.25675e-05 0 -1.84201e-05 8.70957e-06 0 -1.41916e-05 5.37037e-06 0 -1.16012e-05 2.98929e-06 0 -9.83332e-06 1.33919e-06 0 -8.5307e-06 2.03317e-07 0 -7.51661e-06 -5.67398e-07 0 -6.69318e-06 -1.0918e-06 0 -6.00359e-06 -1.43774e-06 0 -5.41094e-06 -1.64541e-06 0 -4.89165e-06 -1.76878e-06 0 -4.42973e-06 -1.8243e-06 0 -4.01371e-06 -1.83433e-06 0 -3.6356e-06 -1.81524e-06 0 -3.28935e-06 -1.7731e-06 0 -2.97029e-06 -1.71897e-06 0 -2.67481e-06 -1.6575e-06 0 -2.39987e-06 -1.59248e-06 0 -2.14295e-06 -1.52723e-06 0 -1.90188e-06 -1.46395e-06 0 -1.67467e-06 -1.40414e-06 0 -1.45962e-06 -1.34856e-06 0 -1.25509e-06 -1.299e-06 0 -1.05956e-06 -1.25499e-06 0 -8.71636e-07 -1.21723e-06 0 -6.89943e-07 -1.18647e-06 0 -5.13184e-07 -1.16196e-06 0 -3.40104e-07 -1.1447e-06 0 -1.69443e-07 -1.13433e-06 0 0 -1.13041e-06 0 -3.97919e-05 -1.78427e-06 0 -3.45423e-05 1.43943e-06 0 -2.71342e-05 3.54023e-06 0 -2.07429e-05 3.10898e-06 0 -1.62523e-05 1.84313e-06 0 -1.31539e-05 6.09404e-07 0 -1.09451e-05 -3.711e-07 0 -9.30593e-06 -1.0902e-06 0 -8.0437e-06 -1.58824e-06 0 -7.0392e-06 -1.92261e-06 0 -6.21844e-06 -2.13176e-06 0 -5.5312e-06 -2.24046e-06 0 -4.94432e-06 -2.28671e-06 0 -4.43485e-06 -2.28243e-06 0 -3.98598e-06 -2.24452e-06 0 -3.58599e-06 -2.18557e-06 0 -3.22594e-06 -2.11083e-06 0 -2.89904e-06 -2.02877e-06 0 -2.60012e-06 -1.9433e-06 0 -2.32496e-06 -1.85777e-06 0 -2.07015e-06 -1.77452e-06 0 -1.8329e-06 -1.69571e-06 0 -1.61073e-06 -1.62242e-06 0 -1.40156e-06 -1.55505e-06 0 -1.20351e-06 -1.49558e-06 0 -1.01488e-06 -1.44309e-06 0 -8.34133e-07 -1.39828e-06 0 -6.59791e-07 -1.36191e-06 0 -4.90496e-07 -1.33301e-06 0 -3.24948e-07 -1.3127e-06 0 -1.61856e-07 -1.30052e-06 0 0 -1.29591e-06 0 -3.75232e-05 -7.34478e-06 0 -3.17623e-05 -4.70176e-06 0 -2.61029e-05 -2.73247e-06 0 -2.10217e-05 -1.88808e-06 0 -1.69504e-05 -1.81248e-06 0 -1.38507e-05 -2.0516e-06 0 -1.15084e-05 -2.3492e-06 0 -9.71655e-06 -2.60146e-06 0 -8.31947e-06 -2.77662e-06 0 -7.20637e-06 -2.8788e-06 0 -6.30218e-06 -2.91781e-06 0 -5.5528e-06 -2.90244e-06 0 -4.92094e-06 -2.85211e-06 0 -4.37998e-06 -2.77352e-06 0 -3.90999e-06 -2.67679e-06 0 -3.49683e-06 -2.56967e-06 0 -3.12962e-06 -2.45632e-06 0 -2.80004e-06 -2.34179e-06 0 -2.50181e-06 -2.22897e-06 0 -2.22978e-06 -2.12053e-06 0 -1.97991e-06 -2.0175e-06 0 -1.74888e-06 -1.9219e-06 0 -1.53384e-06 -1.83423e-06 0 -1.33242e-06 -1.75445e-06 0 -1.14255e-06 -1.68465e-06 0 -9.62365e-07 -1.6234e-06 0 -7.90233e-07 -1.57135e-06 0 -6.24606e-07 -1.52927e-06 0 -4.64081e-07 -1.49592e-06 0 -3.0733e-07 -1.47252e-06 0 -1.53045e-07 -1.4585e-06 0 2.48704e-20 -1.45321e-06 0 -3.44763e-05 -1.31542e-05 0 -2.91976e-05 -1.00705e-05 0 -2.44201e-05 -7.70539e-06 0 -2.01983e-05 -6.1267e-06 0 -1.66546e-05 -5.19501e-06 0 -1.37956e-05 -4.67842e-06 0 -1.15307e-05 -4.38391e-06 0 -9.74063e-06 -4.19277e-06 0 -8.3163e-06 -4.04158e-06 0 -7.16914e-06 -3.89941e-06 0 -6.23345e-06 -3.75432e-06 0 -5.45864e-06 -3.60206e-06 0 -4.80813e-06 -3.44416e-06 0 -4.25482e-06 -3.28243e-06 0 -3.77788e-06 -3.1199e-06 0 -3.36218e-06 -2.95908e-06 0 -2.99592e-06 -2.80304e-06 0 -2.66999e-06 -2.65292e-06 0 -2.37744e-06 -2.5104e-06 0 -2.11259e-06 -2.37737e-06 0 -1.87096e-06 -2.25334e-06 0 -1.64893e-06 -2.1401e-06 0 -1.44339e-06 -2.03748e-06 0 -1.25179e-06 -1.94489e-06 0 -1.07192e-06 -1.86453e-06 0 -9.01836e-07 -1.79438e-06 0 -7.39836e-07 -1.73502e-06 0 -5.84336e-07 -1.6872e-06 0 -4.33914e-07 -1.64938e-06 0 -2.87239e-07 -1.62291e-06 0 -1.43006e-07 -1.60706e-06 0 0 -1.60108e-06 0 -3.07274e-05 -1.83831e-05 0 -2.61946e-05 -1.47132e-05 0 -2.21868e-05 -1.1844e-05 0 -1.86688e-05 -9.70479e-06 0 -1.56558e-05 -8.17383e-06 0 -1.31413e-05 -7.09588e-06 0 -1.10795e-05 -6.32434e-06 0 -9.40226e-06 -5.74966e-06 0 -8.03838e-06 -5.29974e-06 0 -6.92338e-06 -4.92452e-06 0 -6.00531e-06 -4.5983e-06 0 -5.24143e-06 -4.30797e-06 0 -4.59925e-06 -4.03996e-06 0 -4.05376e-06 -3.79213e-06 0 -3.58508e-06 -3.56102e-06 0 -3.17843e-06 -3.34409e-06 0 -2.82208e-06 -3.14345e-06 0 -2.50678e-06 -2.95622e-06 0 -2.22546e-06 -2.78287e-06 0 -1.97224e-06 -2.62446e-06 0 -1.74251e-06 -2.47887e-06 0 -1.53251e-06 -2.34764e-06 0 -1.33902e-06 -2.22987e-06 0 -1.15945e-06 -2.12438e-06 0 -9.91518e-07 -2.03345e-06 0 -8.33245e-07 -1.95442e-06 0 -6.82931e-07 -1.88781e-06 0 -5.38991e-07 -1.83432e-06 0 -4.00015e-07 -1.79211e-06 0 -2.64693e-07 -1.76261e-06 0 -1.3175e-07 -1.74496e-06 0 0 -1.73831e-06 0 -2.63219e-05 -2.27516e-05 0 -2.26895e-05 -1.85544e-05 0 -1.94725e-05 -1.52404e-05 0 -1.66294e-05 -1.26683e-05 0 -1.41518e-05 -1.07034e-05 0 -1.20312e-05 -9.21297e-06 0 -1.0244e-05 -8.07398e-06 0 -8.75254e-06 -7.18793e-06 0 -7.51337e-06 -6.48353e-06 0 -6.48325e-06 -5.90198e-06 0 -5.62443e-06 -5.41022e-06 0 -4.90384e-06 -4.99018e-06 0 -4.29496e-06 -4.61684e-06 0 -3.77649e-06 -4.28538e-06 0 -3.33093e-06 -3.98693e-06 0 -2.94489e-06 -3.71452e-06 0 -2.60747e-06 -3.46957e-06 0 -2.30995e-06 -3.24539e-06 0 -2.04554e-06 -3.04135e-06 0 -1.80856e-06 -2.8577e-06 0 -1.59449e-06 -2.69071e-06 0 -1.39964e-06 -2.5417e-06 0 -1.22084e-06 -2.409e-06 0 -1.05554e-06 -2.29084e-06 0 -9.01486e-07 -2.18958e-06 0 -7.56751e-07 -2.1019e-06 0 -6.19669e-07 -2.02824e-06 0 -4.88702e-07 -1.96926e-06 0 -3.62487e-07 -1.9228e-06 0 -2.39765e-07 -1.89037e-06 0 -1.19314e-07 -1.871e-06 0 -1.41252e-19 -1.86369e-06 0 -2.14055e-05 -2.60716e-05 0 -1.87813e-05 -2.15169e-05 0 -1.63903e-05 -1.78942e-05 0 -1.42241e-05 -1.50244e-05 0 -1.22879e-05 -1.27619e-05 0 -1.05857e-05 -1.09821e-05 0 -9.11207e-06 -9.57473e-06 0 -7.85105e-06 -8.45075e-06 0 -6.78004e-06 -7.5431e-06 0 -5.87332e-06 -6.79046e-06 0 -5.10623e-06 -6.1569e-06 0 -4.45548e-06 -5.62245e-06 0 -3.90124e-06 -5.15428e-06 0 -3.42679e-06 -4.7461e-06 0 -3.01786e-06 -4.38501e-06 0 -2.66314e-06 -4.06047e-06 0 -2.35321e-06 -3.77351e-06 0 -2.08032e-06 -3.51415e-06 0 -1.83836e-06 -3.28076e-06 0 -1.62211e-06 -3.07295e-06 0 -1.4274e-06 -2.88547e-06 0 -1.25078e-06 -2.71943e-06 0 -1.08926e-06 -2.57246e-06 0 -9.40429e-07 -2.44221e-06 0 -8.02173e-07 -2.3311e-06 0 -6.72656e-07 -2.2352e-06 0 -5.50309e-07 -2.15486e-06 0 -4.33681e-07 -2.09068e-06 0 -3.21493e-07 -2.04019e-06 0 -2.12564e-07 -2.00502e-06 0 -1.05752e-07 -1.98401e-06 0 0 -1.97609e-06 0 -1.62237e-05 -2.82325e-05 0 -1.46448e-05 -2.35561e-05 0 -1.30843e-05 -1.97995e-05 0 -1.15861e-05 -1.67759e-05 0 -1.01856e-05 -1.43418e-05 0 -8.90716e-06 -1.23812e-05 0 -7.76354e-06 -1.07951e-05 0 -6.75654e-06 -9.50336e-06 0 -5.87991e-06 -8.44497e-06 0 -5.12226e-06 -7.56008e-06 0 -4.47023e-06 -6.81288e-06 0 -3.90956e-06 -6.18365e-06 0 -3.42702e-06 -5.63507e-06 0 -3.01075e-06 -5.16039e-06 0 -2.65006e-06 -4.74406e-06 0 -2.33615e-06 -4.37296e-06 0 -2.06142e-06 -4.04802e-06 0 -1.81947e-06 -3.7566e-06 0 -1.60511e-06 -3.49633e-06 0 -1.41386e-06 -3.26627e-06 0 -1.24203e-06 -3.05988e-06 0 -1.08658e-06 -2.87809e-06 0 -9.44831e-07 -2.71792e-06 0 -8.14606e-07 -2.57648e-06 0 -6.93987e-07 -2.45628e-06 0 -5.81307e-07 -2.35279e-06 0 -4.75137e-07 -2.26628e-06 0 -3.74157e-07 -2.1973e-06 0 -2.77204e-07 -2.14312e-06 0 -1.83204e-07 -2.1054e-06 0 -9.1122e-08 -2.0829e-06 0 0 -2.07441e-06 0 -1.10744e-05 -2.92318e-05 0 -1.04902e-05 -2.46866e-05 0 -9.71705e-06 -2.09783e-05 0 -8.85224e-06 -1.79423e-05 0 -7.96329e-06 -1.54527e-05 0 -7.09645e-06 -1.34084e-05 0 -6.28145e-06 -1.17235e-05 0 -5.53497e-06 -1.03284e-05 0 -4.86403e-06 -9.16967e-06 0 -4.26887e-06 -8.19149e-06 0 -3.74565e-06 -7.36032e-06 0 -3.28802e-06 -6.65812e-06 0 -2.88885e-06 -6.04581e-06 0 -2.5409e-06 -5.51699e-06 0 -2.23712e-06 -5.05471e-06 0 -1.97132e-06 -4.64426e-06 0 -1.73792e-06 -4.28672e-06 0 -1.53202e-06 -3.96749e-06 0 -1.34953e-06 -3.6837e-06 0 -1.18682e-06 -3.43404e-06 0 -1.04087e-06 -3.21091e-06 0 -9.09113e-07 -3.01514e-06 0 -7.89279e-07 -2.84321e-06 0 -6.79499e-07 -2.6918e-06 0 -5.78115e-07 -2.56347e-06 0 -4.83676e-07 -2.45321e-06 0 -3.94935e-07 -2.3612e-06 0 -3.10738e-07 -2.28795e-06 0 -2.30066e-07 -2.23046e-06 0 -1.51979e-07 -2.19048e-06 0 -7.55693e-08 -2.16664e-06 0 0 -2.15766e-06 0 -6.23194e-06 -2.91811e-05 0 -6.50896e-06 -2.49881e-05 0 -6.43168e-06 -2.14892e-05 0 -6.13594e-06 -1.85658e-05 0 -5.71442e-06 -1.61218e-05 0 -5.231e-06 -1.40777e-05 0 -4.72908e-06 -1.23638e-05 0 -4.23705e-06 -1.09227e-05 0 -3.77219e-06 -9.70966e-06 0 -3.34389e-06 -8.67504e-06 0 -2.95597e-06 -7.78896e-06 0 -2.60871e-06 -7.03596e-06 0 -2.30023e-06 -6.37742e-06 0 -2.02751e-06 -5.80786e-06 0 -1.78688e-06 -5.31e-06 0 -1.57471e-06 -4.86842e-06 0 -1.38741e-06 -4.48455e-06 0 -1.22166e-06 -4.14256e-06 0 -1.07454e-06 -3.83929e-06 0 -9.43363e-07 -3.57322e-06 0 -8.25832e-07 -3.33599e-06 0 -7.19939e-07 -3.12837e-06 0 -6.23888e-07 -2.94645e-06 0 -5.36168e-07 -2.78653e-06 0 -4.55428e-07 -2.65127e-06 0 -3.80473e-07 -2.53521e-06 0 -3.10272e-07 -2.43849e-06 0 -2.43865e-07 -2.36157e-06 0 -1.80402e-07 -2.30126e-06 0 -1.191e-07 -2.25935e-06 0 -5.91987e-08 -2.23436e-06 0 0 -2.22494e-06 0 -1.96594e-06 -2.82934e-05 0 -2.89369e-06 -2.46007e-05 0 -3.37173e-06 -2.14282e-05 0 -3.54852e-06 -1.87128e-05 0 -3.5276e-06 -1.63943e-05 0 -3.38212e-06 -1.44181e-05 0 -3.16369e-06 -1.27329e-05 0 -2.90822e-06 -1.12941e-05 0 -2.63996e-06 -1.00668e-05 0 -2.37479e-06 -9.00879e-06 0 -2.12218e-06 -8.09465e-06 0 -1.88752e-06 -7.31205e-06 0 -1.67317e-06 -6.62447e-06 0 -1.47962e-06 -6.02772e-06 0 -1.30616e-06 -5.50504e-06 0 -1.15146e-06 -5.04103e-06 0 -1.01381e-06 -4.63764e-06 0 -8.91406e-07 -4.27842e-06 0 -7.82484e-07 -3.96016e-06 0 -6.85324e-07 -3.6813e-06 0 -5.98374e-07 -3.43296e-06 0 -5.20233e-07 -3.21593e-06 0 -4.49607e-07 -3.02602e-06 0 -3.85384e-07 -2.85927e-06 0 -3.26551e-07 -2.71842e-06 0 -2.72203e-07 -2.59768e-06 0 -2.21548e-07 -2.49715e-06 0 -1.73846e-07 -2.41727e-06 0 -1.28438e-07 -2.35467e-06 0 -8.47139e-08 -2.31118e-06 0 -4.20832e-08 -2.28527e-06 0 0 -2.27551e-06 0 1.69433e-06 -2.68225e-05 0 3.12882e-07 -2.36925e-05 0 -5.8591e-07 -2.09105e-05 0 -1.14102e-06 -1.84637e-05 0 -1.45398e-06 -1.63264e-05 0 -1.5993e-06 -1.44683e-05 0 -1.63157e-06 -1.28561e-05 0 -1.5905e-06 -1.14586e-05 0 -1.5045e-06 -1.02503e-05 0 -1.39372e-06 -9.19712e-06 0 -1.27164e-06 -8.27861e-06 0 -1.14747e-06 -7.48569e-06 0 -1.02686e-06 -6.78514e-06 0 -9.13153e-07 -6.17417e-06 0 -8.08141e-07 -5.63722e-06 0 -7.1248e-07 -5.15951e-06 0 -6.26162e-07 -4.74351e-06 0 -5.48751e-07 -4.37282e-06 0 -4.79589e-07 -4.04429e-06 0 -4.17883e-07 -3.75646e-06 0 -3.62819e-07 -3.50021e-06 0 -3.13598e-07 -3.2764e-06 0 -2.69439e-07 -3.08067e-06 0 -2.2964e-07 -2.90892e-06 0 -1.93542e-07 -2.76394e-06 0 -1.60541e-07 -2.63975e-06 0 -1.30102e-07 -2.53639e-06 0 -1.01716e-07 -2.45431e-06 0 -7.49293e-08 -2.39001e-06 0 -4.93165e-08 -2.34535e-06 0 -2.44671e-08 -2.31875e-06 0 0 -2.30873e-06 0 4.66435e-06 -2.50085e-05 0 3.02532e-06 -2.24303e-05 0 1.84811e-06 -2.00543e-05 0 1.01879e-06 -1.79035e-05 0 4.48412e-07 -1.59794e-05 0 6.83578e-08 -1.42721e-05 0 -1.73854e-07 -1.27644e-05 0 -3.17985e-07 -1.14374e-05 0 -3.93777e-07 -1.02742e-05 0 -4.23421e-07 -9.24898e-06 0 -4.22684e-07 -8.34608e-06 0 -4.03214e-07 -7.55965e-06 0 -3.72976e-07 -6.86047e-06 0 -3.37403e-07 -6.2472e-06 0 -3.00205e-07 -5.70589e-06 0 -2.63655e-07 -5.22281e-06 0 -2.29152e-07 -4.80099e-06 0 -1.97457e-07 -4.4245e-06 0 -1.6889e-07 -4.09045e-06 0 -1.43502e-07 -3.79755e-06 0 -1.21172e-07 -3.53669e-06 0 -1.01676e-07 -3.30881e-06 0 -8.47304e-08 -3.10953e-06 0 -7.00405e-08 -2.93469e-06 0 -5.73016e-08 -2.78715e-06 0 -4.62173e-08 -2.66077e-06 0 -3.65133e-08 -2.55563e-06 0 -2.79225e-08 -2.47216e-06 0 -2.02012e-08 -2.40678e-06 0 -1.31201e-08 -2.36138e-06 0 -6.45568e-09 -2.33434e-06 0 0 -2.32415e-06 0 7.03308e-06 -2.3045e-05 0 5.27926e-06 -2.09609e-05 0 3.93706e-06 -1.89703e-05 0 2.92189e-06 -1.71154e-05 0 2.16224e-06 -1.54156e-05 0 1.59955e-06 -1.3876e-05 0 1.18686e-06 -1.24923e-05 0 8.87079e-07 -1.12554e-05 0 6.71319e-07 -1.01565e-05 0 5.17129e-07 -9.17682e-06 0 4.07847e-07 -8.30547e-06 0 3.3053e-07 -7.53948e-06 0 2.75805e-07 -6.85392e-06 0 2.36821e-07 -6.24882e-06 0 2.08478e-07 -5.71207e-06 0 1.87275e-07 -5.23129e-06 0 1.70694e-07 -4.81002e-06 0 1.56986e-07 -4.43317e-06 0 1.44998e-07 -4.0982e-06 0 1.33936e-07 -3.80405e-06 0 1.23304e-07 -3.54185e-06 0 1.12794e-07 -3.31264e-06 0 1.02225e-07 -3.11211e-06 0 9.15022e-08 -2.93612e-06 0 8.05881e-08 -2.78759e-06 0 6.94775e-08 -2.66036e-06 0 5.81849e-08 -2.55451e-06 0 4.67362e-08 -2.47047e-06 0 3.51616e-08 -2.40466e-06 0 2.34927e-08 -2.35896e-06 0 1.17619e-08 -2.33174e-06 0 1.76579e-20 -2.32148e-06 0 8.93092e-06 -2.10567e-05 0 7.15198e-06 -1.93916e-05 0 5.72422e-06 -1.77462e-05 0 4.58986e-06 -1.61696e-05 0 3.69524e-06 -1.46902e-05 0 2.99335e-06 -1.33229e-05 0 2.44441e-06 -1.20725e-05 0 2.01561e-06 -1.09377e-05 0 1.68034e-06 -9.9158e-06 0 1.41714e-06 -8.99445e-06 0 1.20947e-06 -8.16679e-06 0 1.04398e-06 -7.43237e-06 0 9.10581e-07 -6.77053e-06 0 8.0157e-07 -6.1825e-06 0 7.10911e-07 -5.65811e-06 0 6.34211e-07 -5.18647e-06 0 5.68097e-07 -4.77155e-06 0 5.10032e-07 -4.39939e-06 0 4.58174e-07 -4.06781e-06 0 4.11099e-07 -3.77608e-06 0 3.67769e-07 -3.5157e-06 0 3.27402e-07 -3.28781e-06 0 2.89389e-07 -3.08828e-06 0 2.53278e-07 -2.91307e-06 0 2.18705e-07 -2.76512e-06 0 1.85377e-07 -2.63836e-06 0 1.53056e-07 -2.53287e-06 0 1.21534e-07 -2.44912e-06 0 9.06275e-08 -2.38351e-06 0 6.01735e-08 -2.33796e-06 0 3.00132e-08 -2.31083e-06 0 -2.7811e-20 -2.30061e-06 0 1.03731e-05 -1.91194e-05 0 8.63382e-06 -1.77978e-05 0 7.18612e-06 -1.645e-05 0 5.9928e-06 -1.51239e-05 0 5.01562e-06 -1.38512e-05 0 4.21865e-06 -1.26519e-05 0 3.56981e-06 -1.15363e-05 0 3.04139e-06 -1.05089e-05 0 2.61009e-06 -9.5713e-06 0 2.2564e-06 -8.7166e-06 0 1.96478e-06 -7.94125e-06 0 1.72226e-06 -7.24679e-06 0 1.51873e-06 -6.6166e-06 0 1.34618e-06 -6.0529e-06 0 1.1981e-06 -5.54742e-06 0 1.06957e-06 -5.09081e-06 0 9.56671e-07 -4.68737e-06 0 8.56299e-07 -4.32441e-06 0 7.661e-07 -4.00019e-06 0 6.84155e-07 -3.71428e-06 0 6.08986e-07 -3.45867e-06 0 5.39414e-07 -3.23464e-06 0 4.74461e-07 -3.03827e-06 0 4.13358e-07 -2.8657e-06 0 3.55445e-07 -2.71987e-06 0 3.00165e-07 -2.59487e-06 0 2.47044e-07 -2.49081e-06 0 1.95648e-07 -2.40816e-06 0 1.45594e-07 -2.34342e-06 0 9.6527e-08 -2.29845e-06 0 4.81024e-08 -2.27167e-06 0 0 -2.26158e-06 0 1.15142e-05 -1.72722e-05 0 9.84348e-06 -1.62273e-05 0 8.41091e-06 -1.51299e-05 0 7.19439e-06 -1.4023e-05 0 6.16816e-06 -1.29379e-05 0 5.306e-06 -1.18962e-05 0 4.58303e-06 -1.09115e-05 0 3.97673e-06 -9.99151e-06 0 3.46739e-06 -9.14129e-06 0 3.03789e-06 -8.35787e-06 0 2.67417e-06 -7.64034e-06 0 2.36412e-06 -6.99173e-06 0 2.09798e-06 -6.3991e-06 0 1.86781e-06 -5.86541e-06 0 1.66697e-06 -5.38415e-06 0 1.49028e-06 -4.94748e-06 0 1.33345e-06 -4.55991e-06 0 1.19301e-06 -4.21012e-06 0 1.06623e-06 -3.89678e-06 0 9.50813e-07 -3.61976e-06 0 8.44921e-07 -3.37165e-06 0 7.47045e-07 -3.15383e-06 0 6.55892e-07 -2.96265e-06 0 5.70412e-07 -2.79448e-06 0 4.89684e-07 -2.65223e-06 0 4.12907e-07 -2.53024e-06 0 3.39389e-07 -2.42862e-06 0 2.68487e-07 -2.34789e-06 0 1.99625e-07 -2.28462e-06 0 1.32266e-07 -2.24068e-06 0 6.58874e-08 -2.21449e-06 0 0 -2.20463e-06 0 1.24047e-05 -1.55313e-05 0 1.08173e-05 -1.4707e-05 0 9.42248e-06 -1.38171e-05 0 8.20868e-06 -1.28984e-05 0 7.15959e-06 -1.19797e-05 0 6.25689e-06 -1.10822e-05 0 5.48203e-06 -1.02208e-05 0 4.81732e-06 -9.40511e-06 0 4.24659e-06 -8.64202e-06 0 3.75533e-06 -7.93161e-06 0 3.33117e-06 -7.27492e-06 0 2.96317e-06 -6.67601e-06 0 2.64226e-06 -6.12509e-06 0 2.36084e-06 -5.62567e-06 0 2.11238e-06 -5.17278e-06 0 1.89166e-06 -4.76003e-06 0 1.69425e-06 -4.39201e-06 0 1.51646e-06 -4.05878e-06 0 1.3553e-06 -3.75939e-06 0 1.2082e-06 -3.49399e-06 0 1.07307e-06 -3.25583e-06 0 9.48121e-07 -3.04636e-06 0 8.31808e-07 -2.86225e-06 0 7.22841e-07 -2.70011e-06 0 6.20071e-07 -2.56283e-06 0 5.22481e-07 -2.445e-06 0 4.29183e-07 -2.3468e-06 0 3.39339e-07 -2.26874e-06 0 2.52196e-07 -2.20755e-06 0 1.67046e-07 -2.16504e-06 0 8.31965e-08 -2.1397e-06 0 0 -2.13016e-06 0 1.30832e-05 -1.39001e-05 0 1.15838e-05 -1.32511e-05 0 1.02399e-05 -1.25317e-05 0 9.04679e-06 -1.17727e-05 0 7.99475e-06 -1.09993e-05 0 7.07156e-06 -1.02315e-05 0 6.26381e-06 -9.48383e-06 0 5.55802e-06 -8.76682e-06 0 4.94131e-06 -8.08828e-06 0 4.40165e-06 -7.45039e-06 0 3.92852e-06 -6.85552e-06 0 3.51228e-06 -6.30836e-06 0 3.14473e-06 -5.80178e-06 0 2.81885e-06 -5.33959e-06 0 2.52842e-06 -4.91818e-06 0 2.26835e-06 -4.53244e-06 0 2.03423e-06 -4.18693e-06 0 1.82229e-06 -3.87305e-06 0 1.62943e-06 -3.59022e-06 0 1.4529e-06 -3.33881e-06 0 1.29042e-06 -3.11275e-06 0 1.14001e-06 -2.91354e-06 0 9.99929e-07 -2.73818e-06 0 8.68687e-07 -2.58357e-06 0 7.44945e-07 -2.45251e-06 0 6.27503e-07 -2.33994e-06 0 5.15297e-07 -2.24606e-06 0 4.07319e-07 -2.17138e-06 0 3.02653e-07 -2.11283e-06 0 2.00435e-07 -2.07214e-06 0 9.98158e-08 -2.04788e-06 0 0 -2.03874e-06 0 1.36187e-05 -1.23749e-05 0 1.22056e-05 -1.1865e-05 0 1.09176e-05 -1.1285e-05 0 9.75416e-06 -1.06603e-05 0 8.71065e-06 -1.00127e-05 0 7.77946e-06 -9.35985e-06 0 6.95138e-06 -8.71561e-06 0 6.21648e-06 -8.09042e-06 0 5.5648e-06 -7.49237e-06 0 4.98667e-06 -6.92498e-06 0 4.47331e-06 -6.39145e-06 0 4.01645e-06 -5.89674e-06 0 3.60884e-06 -5.4359e-06 0 3.2441e-06 -5.01284e-06 0 2.91647e-06 -4.62511e-06 0 2.6211e-06 -4.26867e-06 0 2.35371e-06 -3.948e-06 0 2.11055e-06 -3.65576e-06 0 1.88847e-06 -3.39165e-06 0 1.68463e-06 -3.15623e-06 0 1.49663e-06 -2.94413e-06 0 1.32236e-06 -2.75686e-06 0 1.15989e-06 -2.59176e-06 0 1.0076e-06 -2.44601e-06 0 8.63992e-07 -2.32232e-06 0 7.27695e-07 -2.21598e-06 0 5.97498e-07 -2.12725e-06 0 4.72238e-07 -2.05662e-06 0 3.50854e-07 -2.00122e-06 0 2.32338e-07 -1.96271e-06 0 1.15698e-07 -1.93975e-06 0 0 -1.93109e-06 0 1.40271e-05 -1.09481e-05 0 1.26949e-05 -1.05485e-05 0 1.14634e-05 -1.00823e-05 0 1.0335e-05 -9.57022e-06 0 9.30828e-06 -9.03061e-06 0 8.37896e-06 -8.47891e-06 0 7.54109e-06 -7.92776e-06 0 6.78764e-06 -7.38699e-06 0 6.11112e-06 -6.86454e-06 0 5.50393e-06 -6.36462e-06 0 4.9589e-06 -5.89091e-06 0 4.46906e-06 -5.44834e-06 0 4.02814e-06 -5.03368e-06 0 3.63046e-06 -4.65081e-06 0 3.27079e-06 -4.29818e-06 0 2.9446e-06 -3.9727e-06 0 2.64781e-06 -3.67864e-06 0 2.37678e-06 -3.40981e-06 0 2.1284e-06 -3.16619e-06 0 1.8998e-06 -2.94844e-06 0 1.6885e-06 -2.75188e-06 0 1.49232e-06 -2.578e-06 0 1.30921e-06 -2.42446e-06 0 1.13744e-06 -2.28876e-06 0 9.75372e-07 -2.17345e-06 0 8.21512e-07 -2.07424e-06 0 6.7452e-07 -1.99139e-06 0 5.33099e-07 -1.92541e-06 0 3.96059e-07 -1.87364e-06 0 2.62266e-07 -1.83763e-06 0 1.30599e-07 -1.81616e-06 0 0 -1.80807e-06 0 1.43412e-05 -9.61037e-06 0 1.30829e-05 -9.29834e-06 0 1.19059e-05 -8.92501e-06 0 1.08141e-05 -8.50721e-06 0 9.80839e-06 -8.06014e-06 0 8.88702e-06 -7.59707e-06 0 8.04647e-06 -7.12917e-06 0 7.28202e-06 -6.66546e-06 0 6.58823e-06 -6.21332e-06 0 5.95926e-06 -5.7773e-06 0 5.3894e-06 -5.36119e-06 0 4.87289e-06 -4.96972e-06 0 4.40438e-06 -4.60098e-06 0 3.97891e-06 -4.25867e-06 0 3.59176e-06 -3.94193e-06 0 3.2388e-06 -3.64848e-06 0 2.9162e-06 -3.38231e-06 0 2.62048e-06 -3.13826e-06 0 2.34859e-06 -2.9165e-06 0 2.09771e-06 -2.71779e-06 0 1.86533e-06 -2.53807e-06 0 1.6492e-06 -2.37879e-06 0 1.44724e-06 -2.23794e-06 0 1.2576e-06 -2.11331e-06 0 1.07855e-06 -2.00728e-06 0 9.08491e-07 -1.91598e-06 0 7.45973e-07 -1.83968e-06 0 5.89588e-07 -1.77888e-06 0 4.38033e-07 -1.73115e-06 0 2.90062e-07 -1.69795e-06 0 1.4444e-07 -1.67815e-06 0 0 -1.67068e-06 0 1.45864e-05 -8.35191e-06 0 1.33948e-05 -8.10948e-06 0 1.22686e-05 -7.81202e-06 0 1.12128e-05 -7.4731e-06 0 1.02298e-05 -7.10527e-06 0 9.31983e-06 -6.71968e-06 0 8.48111e-06 -6.32604e-06 0 7.7108e-06 -5.93233e-06 0 7.00517e-06 -5.54527e-06 0 6.35988e-06 -5.16934e-06 0 5.77049e-06 -4.80826e-06 0 5.23232e-06 -4.46641e-06 0 4.74088e-06 -4.14283e-06 0 4.2919e-06 -3.84097e-06 0 3.88119e-06 -3.56047e-06 0 3.505e-06 -3.29969e-06 0 3.15977e-06 -3.06228e-06 0 2.84221e-06 -2.84401e-06 0 2.5494e-06 -2.64518e-06 0 2.27855e-06 -2.4666e-06 0 2.02718e-06 -2.30479e-06 0 1.79303e-06 -2.16114e-06 0 1.57394e-06 -2.03393e-06 0 1.36801e-06 -1.92123e-06 0 1.17344e-06 -1.82525e-06 0 9.88536e-07 -1.74255e-06 0 8.11769e-07 -1.67338e-06 0 6.41628e-07 -1.61823e-06 0 4.76714e-07 -1.57492e-06 0 3.15684e-07 -1.54478e-06 0 1.57201e-07 -1.5268e-06 0 0 -1.52003e-06 0 1.47668e-05 -7.16268e-06 0 1.36328e-05 -6.97564e-06 0 1.25518e-05 -6.74035e-06 0 1.15295e-05 -6.46768e-06 0 1.05693e-05 -6.16784e-06 0 9.6726e-06 -5.8501e-06 0 8.83904e-06 -5.52269e-06 0 8.06716e-06 -5.19255e-06 0 7.35452e-06 -4.86557e-06 0 6.69803e-06 -4.54597e-06 0 6.09428e-06 -4.23722e-06 0 5.53952e-06 -3.94326e-06 0 5.03002e-06 -3.66379e-06 0 4.56212e-06 -3.40191e-06 0 4.13212e-06 -3.15765e-06 0 3.73665e-06 -2.92984e-06 0 3.37243e-06 -2.72175e-06 0 3.03638e-06 -2.52998e-06 0 2.72569e-06 -2.35487e-06 0 2.43767e-06 -2.19726e-06 0 2.16986e-06 -2.05422e-06 0 1.92002e-06 -1.92703e-06 0 1.68596e-06 -1.81424e-06 0 1.46574e-06 -1.71423e-06 0 1.25752e-06 -1.62896e-06 0 1.05953e-06 -1.55542e-06 0 8.7016e-07 -1.49389e-06 0 6.87836e-07 -1.4448e-06 0 5.11074e-07 -1.40624e-06 0 3.3845e-07 -1.37939e-06 0 1.68541e-07 -1.36337e-06 0 0 -1.35733e-06 0 1.49056e-05 -6.03283e-06 0 1.38214e-05 -5.89003e-06 0 1.27804e-05 -5.70597e-06 0 1.17885e-05 -5.48924e-06 0 1.08499e-05 -5.24807e-06 0 9.96665e-06 -4.99001e-06 0 9.13966e-06 -4.7219e-06 0 8.36846e-06 -4.4496e-06 0 7.65168e-06 -4.17814e-06 0 6.9872e-06 -3.91133e-06 0 6.3725e-06 -3.65228e-06 0 5.80463e-06 -3.40439e-06 0 5.28052e-06 -3.16783e-06 0 4.79704e-06 -2.94529e-06 0 4.35095e-06 -2.73702e-06 0 3.93923e-06 -2.54224e-06 0 3.55886e-06 -2.36379e-06 0 3.20696e-06 -2.19897e-06 0 2.88086e-06 -2.04818e-06 0 2.57796e-06 -1.91218e-06 0 2.29584e-06 -1.78858e-06 0 2.03228e-06 -1.67852e-06 0 1.7851e-06 -1.5808e-06 0 1.55232e-06 -1.49407e-06 0 1.33205e-06 -1.42005e-06 0 1.1225e-06 -1.35618e-06 0 9.21982e-07 -1.3027e-06 0 7.28861e-07 -1.26002e-06 0 5.41589e-07 -1.22647e-06 0 3.58673e-07 -1.20311e-06 0 1.78616e-07 -1.18917e-06 0 0 -1.18392e-06 0 1.50093e-05 -4.95311e-06 0 1.39669e-05 -4.8458e-06 0 1.29599e-05 -4.70426e-06 0 1.19946e-05 -4.53518e-06 0 1.10753e-05 -4.34503e-06 0 1.02049e-05 -4.13983e-06 0 9.38497e-06 -3.92513e-06 0 8.61586e-06 -3.70572e-06 0 7.89702e-06 -3.48577e-06 0 7.22714e-06 -3.26856e-06 0 6.6044e-06 -3.05675e-06 0 6.0265e-06 -2.85321e-06 0 5.49091e-06 -2.65832e-06 0 4.99498e-06 -2.47438e-06 0 4.53588e-06 -2.30172e-06 0 4.11087e-06 -2.13987e-06 0 3.71718e-06 -1.99122e-06 0 3.35212e-06 -1.85366e-06 0 3.01314e-06 -1.72758e-06 0 2.69773e-06 -1.61368e-06 0 2.40355e-06 -1.51003e-06 0 2.12838e-06 -1.41762e-06 0 1.87004e-06 -1.33549e-06 0 1.62657e-06 -1.26253e-06 0 1.39602e-06 -1.20021e-06 0 1.17657e-06 -1.14641e-06 0 9.66503e-07 -1.10134e-06 0 7.6412e-07 -1.06535e-06 0 5.67823e-07 -1.03705e-06 0 3.76062e-07 -1.01735e-06 0 1.8728e-07 -1.00559e-06 0 0 -1.00115e-06 0 1.50833e-05 -3.91432e-06 0 1.40743e-05 -3.8358e-06 0 1.3095e-05 -3.73004e-06 0 1.21515e-05 -3.60208e-06 0 1.12485e-05 -3.45688e-06 0 1.03894e-05 -3.29907e-06 0 9.57612e-06 -3.13296e-06 0 8.80974e-06 -2.96233e-06 0 8.09027e-06 -2.7905e-06 0 7.41699e-06 -2.62014e-06 0 6.78863e-06 -2.45342e-06 0 6.2034e-06 -2.29265e-06 0 5.65922e-06 -2.13829e-06 0 5.15381e-06 -1.99219e-06 0 4.68465e-06 -1.85474e-06 0 4.24927e-06 -1.72563e-06 0 3.84512e-06 -1.6068e-06 0 3.46963e-06 -1.49666e-06 0 3.12041e-06 -1.39556e-06 0 2.795e-06 -1.30411e-06 0 2.49113e-06 -1.22079e-06 0 2.2066e-06 -1.14643e-06 0 1.93925e-06 -1.08029e-06 0 1.6871e-06 -1.02149e-06 0 1.44821e-06 -9.71236e-07 0 1.22071e-06 -9.27825e-07 0 1.00287e-06 -8.91443e-07 0 7.9293e-07 -8.6238e-07 0 5.89264e-07 -8.39527e-07 0 3.90277e-07 -8.23606e-07 0 1.94363e-07 -8.14103e-07 0 0 -8.1052e-07 0 1.5137e-05 -2.90786e-06 0 1.41542e-05 -2.8531e-06 0 1.31967e-05 -2.778e-06 0 1.22707e-05 -2.68619e-06 0 1.1381e-05 -2.58124e-06 0 1.05312e-05 -2.46653e-06 0 9.72381e-06 -2.34521e-06 0 8.96013e-06 -2.2201e-06 0 8.2407e-06 -2.09364e-06 0 7.56524e-06 -1.96788e-06 0 6.9329e-06 -1.84446e-06 0 6.34229e-06 -1.72511e-06 0 5.79167e-06 -1.61028e-06 0 5.27905e-06 -1.50137e-06 0 4.80219e-06 -1.3987e-06 0 4.3588e-06 -1.30212e-06 0 3.94651e-06 -1.21307e-06 0 3.56289e-06 -1.13044e-06 0 3.20563e-06 -1.0545e-06 0 2.87236e-06 -9.85732e-07 0 2.56084e-06 -9.23031e-07 0 2.26891e-06 -8.6702e-07 0 1.99442e-06 -8.17165e-07 0 1.73539e-06 -7.72823e-07 0 1.48986e-06 -7.34901e-07 0 1.25595e-06 -7.02131e-07 0 1.0319e-06 -6.74658e-07 0 8.15941e-07 -6.52706e-07 0 6.06394e-07 -6.3544e-07 0 4.01635e-07 -6.2341e-07 0 2.00023e-07 -6.16228e-07 0 0 -6.1352e-07 0 1.51716e-05 -1.92543e-06 0 1.42072e-05 -1.89082e-06 0 1.3265e-05 -1.84272e-06 0 1.23513e-05 -1.78345e-06 0 1.14711e-05 -1.71533e-06 0 1.06282e-05 -1.64056e-06 0 9.82513e-06 -1.56122e-06 0 9.06366e-06 -1.47916e-06 0 8.34457e-06 -1.396e-06 0 7.66789e-06 -1.31312e-06 0 7.03304e-06 -1.23162e-06 0 6.4389e-06 -1.15265e-06 0 5.88398e-06 -1.07656e-06 0 5.3665e-06 -1.00427e-06 0 4.88438e-06 -9.3604e-07 0 4.4355e-06 -8.71778e-07 0 4.0176e-06 -8.12462e-07 0 3.62835e-06 -7.57369e-07 0 3.26551e-06 -7.06699e-07 0 2.92677e-06 -6.60773e-07 0 2.60991e-06 -6.18874e-07 0 2.3128e-06 -5.81425e-07 0 2.0333e-06 -5.48074e-07 0 1.76943e-06 -5.184e-07 0 1.51924e-06 -4.93011e-07 0 1.28082e-06 -4.71066e-07 0 1.0524e-06 -4.52663e-07 0 8.32187e-07 -4.37955e-07 0 6.18489e-07 -4.26386e-07 0 4.09655e-07 -4.18324e-07 0 2.04021e-07 -4.1351e-07 0 0 -4.11695e-07 0 1.51913e-05 -9.58749e-07 0 1.42377e-05 -9.42015e-07 0 1.33048e-05 -9.18544e-07 0 1.23986e-05 -8.89487e-07 0 1.15241e-05 -8.5598e-07 0 1.06853e-05 -8.19111e-07 0 9.88503e-06 -7.79906e-07 0 9.125e-06 -7.39283e-07 0 8.40622e-06 -6.98051e-07 0 7.72891e-06 -6.56902e-07 0 7.09266e-06 -6.16389e-07 0 6.49651e-06 -5.7709e-07 0 5.93909e-06 -5.39185e-07 0 5.41876e-06 -5.03141e-07 0 4.93356e-06 -4.69091e-07 0 4.48144e-06 -4.37001e-07 0 4.06021e-06 -4.07359e-07 0 3.66762e-06 -3.79813e-07 0 3.30145e-06 -3.54465e-07 0 2.95944e-06 -3.3148e-07 0 2.63939e-06 -3.10502e-07 0 2.33918e-06 -2.91745e-07 0 2.05668e-06 -2.75036e-07 0 1.78991e-06 -2.60165e-07 0 1.53691e-06 -2.47439e-07 0 1.29578e-06 -2.36436e-07 0 1.06474e-06 -2.27209e-07 0 8.41966e-07 -2.19833e-07 0 6.2577e-07 -2.1403e-07 0 4.14484e-07 -2.09987e-07 0 2.06428e-07 -2.07572e-07 0 0 -2.06662e-07 0 1.51986e-05 -0 0 1.42491e-05 -2.78698e-19 0 1.33196e-05 -0 0 1.24162e-05 -0 0 1.1544e-05 -0 0 1.07068e-05 2.35591e-19 0 9.9075e-06 -0 0 9.14804e-06 -0 0 8.4294e-06 -0 0 7.75188e-06 7.05451e-20 0 7.11512e-06 8.11795e-20 0 6.51822e-06 -0 0 5.95988e-06 -0 0 5.43848e-06 -5.31857e-20 0 4.95212e-06 -3.76673e-20 0 4.49879e-06 -1.22211e-21 0 4.07631e-06 -0 0 3.68246e-06 -0 0 3.31504e-06 -3.73725e-20 0 2.97179e-06 -0 0 2.65054e-06 2.88011e-20 0 2.34915e-06 -0 0 2.06552e-06 -0 0 1.79766e-06 -0 0 1.5436e-06 -5.24156e-21 0 1.30145e-06 4.24251e-21 0 1.06941e-06 -0 0 8.45668e-07 -0 0 6.28527e-07 -0 0 4.16313e-07 -0 0 2.07339e-07 -0 0 0 -0 0 </DataArray> 
</PointData> 
<Points> 
<DataArray type="Float32" NumberOfComponents="3"> 