<?xml version="1.0"?> 
<VTKFile type="StructuredGrid" version="0.1"> 
<StructuredGrid WholeExtent="0 31 0 31 0 0"> 
<Piece Extent="0 31 0 31 0 0"> 
<PointData>
<DataArray type="Float32" Name="B" format="ascii" NumberOfComponents="3"> 
-3.98624e-06 -0 0 -3.57095e-06 -0 0 -3.1769e-06 -0 0 -2.8068e-06 -0 0 -2.46254e-06 -0 0 -2.14529e-06 -0 0 -1.85551e-06 -0 0 -1.59308e-06 -0 0 -1.35739e-06 -0 0 -1.14739e-06 -0 0 -9.6178e-07 -0 0 -7.98977e-07 -0 0 -6.57294e-07 -0 0 -5.34981e-07 -0 0 -4.30215e-07 -0 0 -3.41264e-07 -0 0 -2.66424e-07 -0 0 -2.04068e-07 -0 0 -1.52719e-07 -0 0 -1.10958e-07 -0 0 -7.75232e-08 -0 0 -5.12692e-08 -0 0 -3.11356e-08 -0 0 -1.62059e-08 -0 0 -5.64224e-09 -0 0 1.30484e-09 -0 0 5.28818e-09 -0 0 6.91539e-09 -0 0 6.7219e-09 -0 0 5.19829e-09 -0 0 2.81412e-09 -0 0 0 -0 0 -3.97619e-06 -4.25631e-07 0 -3.55892e-06 -4.05841e-07 0 -3.16335e-06 -3.8294e-07 0 -2.79217e-06 -3.57749e-07 0 -2.44728e-06 -3.31052e-07 0 -2.12977e-06 -3.03572e-07 0 -1.84008e-06 -2.75953e-07 0 -1.57801e-06 -2.48742e-07 0 -1.34291e-06 -2.22415e-07 0 -1.13367e-06 -1.97267e-07 0 -9.4894e-07 -1.73558e-07 0 -7.87098e-07 -1.5162e-07 0 -6.46417e-07 -1.31309e-07 0 -5.25114e-07 -1.12874e-07 0 -4.21341e-07 -9.62368e-08 0 -3.33348e-07 -8.12116e-08 0 -2.59414e-07 -6.80352e-08 0 -1.97906e-07 -5.63199e-08 0 -1.47339e-07 -4.60315e-08 0 -1.06294e-07 -3.71656e-08 0 -7.35075e-08 -2.94215e-08 0 -4.78373e-08 -2.2828e-08 0 -2.82267e-08 -1.72161e-08 0 -1.3764e-08 -1.2421e-08 0 -3.61682e-09 -8.50312e-09 0 2.95819e-09 -5.23408e-09 0 6.60775e-09 -2.58451e-09 0 7.93296e-09 -5.33704e-10 0 7.4629e-09 1.04272e-09 0 5.68179e-09 2.11913e-09 0 3.05269e-09 2.75341e-09 0 1.42194e-23 2.99108e-09 0 -3.94919e-06 -8.55237e-07 0 -3.52666e-06 -8.14816e-07 0 -3.12709e-06 -7.6818e-07 0 -2.75312e-06 -7.17003e-07 0 -2.40657e-06 -6.62877e-07 0 -2.08843e-06 -6.07268e-07 0 -1.799e-06 -5.51476e-07 0 -1.53794e-06 -4.96601e-07 0 -1.30443e-06 -4.43593e-07 0 -1.09725e-06 -3.93035e-07 0 -9.14894e-07 -3.45438e-07 0 -7.55628e-07 -3.01463e-07 0 -6.17623e-07 -2.60798e-07 0 -4.99015e-07 -2.23941e-07 0 -3.97888e-07 -1.90717e-07 0 -3.12439e-07 -1.60746e-07 0 -2.40914e-07 -1.34495e-07 0 -1.81654e-07 -1.11177e-07 0 -1.3316e-07 -9.07207e-08 0 -9.40072e-08 -7.31105e-08 0 -6.29346e-08 -5.77412e-08 0 -3.88061e-08 -4.46671e-08 0 -2.05756e-08 -3.35484e-08 0 -7.34402e-09 -2.40544e-08 0 1.70596e-09 -1.63033e-08 0 7.30158e-09 -9.83955e-09 0 1.00732e-08 -4.60346e-09 0 1.06046e-08 -5.52706e-10 0 9.40795e-09 2.55993e-09 0 6.95071e-09 4.68464e-09 0 3.67875e-09 5.93638e-09 0 2.00104e-23 6.40537e-09 0 -3.9028e-06 -1.29273e-06 0 -3.47148e-06 -1.22998e-06 0 -3.06526e-06 -1.15793e-06 0 -2.68673e-06 -1.07917e-06 0 -2.33754e-06 -9.96148e-07 0 -2.0185e-06 -9.11118e-07 0 -1.72966e-06 -8.26055e-07 0 -1.47044e-06 -7.42619e-07 0 -1.23976e-06 -6.62239e-07 0 -1.03615e-06 -5.8576e-07 0 -8.57886e-07 -5.13931e-07 0 -7.03028e-07 -4.47733e-07 0 -5.69581e-07 -3.86644e-07 0 -4.55541e-07 -3.31397e-07 0 -3.58881e-07 -2.81698e-07 0 -2.77718e-07 -2.36945e-07 0 -2.10237e-07 -1.97828e-07 0 -1.5474e-07 -1.63139e-07 0 -1.09709e-07 -1.32756e-07 0 -7.37114e-08 -1.06646e-07 0 -4.54903e-08 -8.38891e-08 0 -2.39219e-08 -6.45598e-08 0 -7.97865e-09 -4.81431e-08 0 3.21596e-09 -3.41416e-08 0 1.04537e-08 -2.27252e-08 0 1.44342e-08 -1.32137e-08 0 1.57602e-08 -5.51587e-09 0 1.49864e-08 4.34364e-10 0 1.25966e-08 5.00384e-09 0 9.03027e-09 8.12134e-09 0 4.70456e-09 9.95736e-09 0 0 1.06451e-08 0 -3.83348e-06 -1.74222e-06 0 -3.3896e-06 -1.65448e-06 0 -2.97401e-06 -1.55439e-06 0 -2.58917e-06 -1.44556e-06 0 -2.23653e-06 -1.33138e-06 0 -1.91655e-06 -1.21495e-06 0 -1.62894e-06 -1.09894e-06 0 -1.37273e-06 -9.85598e-07 0 -1.14646e-06 -8.76813e-07 0 -9.48269e-07 -7.73665e-07 0 -7.76135e-07 -6.77113e-07 0 -6.27816e-07 -5.88443e-07 0 -5.01074e-07 -5.06852e-07 0 -3.93713e-07 -4.33294e-07 0 -3.03546e-07 -3.67314e-07 0 -2.2858e-07 -3.08052e-07 0 -1.66921e-07 -2.56403e-07 0 -1.16821e-07 -2.10708e-07 0 -7.6737e-08 -1.70778e-07 0 -4.52322e-08 -1.36545e-07 0 -2.10579e-08 -1.06769e-07 0 -3.11147e-09 -8.153e-08 0 9.60495e-09 -6.01353e-08 0 1.79339e-08 -4.1918e-08 0 2.26289e-08 -2.70911e-08 0 2.43491e-08 -1.47553e-08 0 2.36569e-08 -4.7844e-09 0 2.10651e-08 2.91347e-09 0 1.7017e-08 8.81994e-09 0 1.19115e-08 1.28466e-08 0 6.12535e-09 1.52168e-08 0 0 1.61046e-08 0 -3.74119e-06 -2.2078e-06 0 -3.28142e-06 -2.09135e-06 0 -2.85418e-06 -1.95956e-06 0 -2.46174e-06 -1.81723e-06 0 -2.10519e-06 -1.6688e-06 0 -1.78459e-06 -1.51828e-06 0 -1.49912e-06 -1.3691e-06 0 -1.24728e-06 -1.22405e-06 0 -1.02712e-06 -1.08553e-06 0 -8.36289e-07 -9.54761e-07 0 -6.72334e-07 -8.32887e-07 0 -5.32639e-07 -7.21469e-07 0 -4.14665e-07 -6.19332e-07 0 -3.15968e-07 -5.27623e-07 0 -2.34173e-07 -4.45668e-07 0 -1.67151e-07 -3.723e-07 0 -1.12917e-07 -3.086e-07 0 -6.96671e-08 -2.52412e-07 0 -3.5836e-08 -2.03462e-07 0 -9.98612e-09 -1.61628e-07 0 9.11311e-09 -1.25333e-07 0 2.25334e-08 -9.46551e-08 0 3.12312e-08 -6.87136e-08 0 3.6003e-08 -4.66724e-08 0 3.75515e-08 -2.87763e-08 0 3.64832e-08 -1.39136e-08 0 3.33085e-08 -1.921e-09 0 2.84865e-08 7.32296e-09 0 2.24088e-08 1.44076e-08 0 1.54238e-08 1.92326e-08 0 7.85661e-09 2.2071e-08 0 0 2.31337e-08 0 -3.61791e-06 -2.69367e-06 0 -3.13845e-06 -2.54353e-06 0 -2.69715e-06 -2.37522e-06 0 -2.29598e-06 -2.1949e-06 0 -1.93553e-06 -2.00823e-06 0 -1.6152e-06 -1.82019e-06 0 -1.33348e-06 -1.63501e-06 0 -1.08816e-06 -1.45607e-06 0 -8.76591e-07 -1.28619e-06 0 -6.95793e-07 -1.12671e-06 0 -5.42767e-07 -9.78858e-07 0 -4.14424e-07 -8.44448e-07 0 -3.07845e-07 -7.21801e-07 0 -2.20294e-07 -6.12227e-07 0 -1.4917e-07 -5.14759e-07 0 -9.21927e-08 -4.27859e-07 0 -4.72783e-08 -3.52761e-07 0 -1.25711e-08 -2.86768e-07 0 1.35111e-08 -2.29491e-07 0 3.23931e-08 -1.80733e-07 0 4.52726e-08 -1.38567e-07 0 5.31744e-08 -1.03049e-07 0 5.69963e-08 -7.3108e-08 0 5.74725e-08 -4.77379e-08 0 5.52388e-08 -2.72011e-08 0 5.08335e-08 -1.01841e-08 0 4.47006e-08 3.517e-09 0 3.72317e-08 1.40564e-08 0 2.8754e-08 2.21221e-08 0 1.9553e-08 2.76081e-08 0 9.89078e-09 3.08328e-08 0 0 3.20396e-08 0 -3.46008e-06 -3.2042e-06 0 -2.95745e-06 -3.01389e-06 0 -2.50018e-06 -2.80283e-06 0 -2.08975e-06 -2.57881e-06 0 -1.72602e-06 -2.34886e-06 0 -1.40752e-06 -2.11908e-06 0 -1.13177e-06 -1.89451e-06 0 -8.9565e-07 -1.67909e-06 0 -6.9561e-07 -1.47603e-06 0 -5.27887e-07 -1.28664e-06 0 -3.88816e-07 -1.11218e-06 0 -2.74737e-07 -9.54636e-07 0 -1.82293e-07 -8.11677e-07 0 -1.08415e-07 -6.84719e-07 0 -5.0254e-08 -5.72412e-07 0 -5.37336e-09 -4.72773e-07 0 2.84068e-08 -3.87149e-07 0 5.29831e-08 -3.12247e-07 0 6.99373e-08 -2.47532e-07 0 8.06632e-08 -1.92703e-07 0 8.63058e-08 -1.45473e-07 0 8.78232e-08 -1.05856e-07 0 8.60349e-08 -7.25872e-08 0 8.1595e-08 -4.44912e-08 0 7.50551e-08 -2.18326e-08 0 6.68696e-08 -3.11022e-09 0 5.74021e-08 1.19232e-08 0 4.69632e-08 2.34581e-08 0 3.58038e-08 3.22696e-08 0 2.41356e-08 3.82533e-08 0 1.21467e-08 4.17668e-08 0 3.45241e-22 4.3081e-08 0 -3.26318e-06 -3.74371e-06 0 -2.73425e-06 -3.50493e-06 0 -2.25965e-06 -3.24329e-06 0 -1.84012e-06 -2.96849e-06 0 -1.47448e-06 -2.68916e-06 0 -1.16009e-06 -2.41261e-06 0 -8.93247e-07 -2.14471e-06 0 -6.69616e-07 -1.8899e-06 0 -4.84571e-07 -1.6517e-06 0 -3.33387e-07 -1.43123e-06 0 -2.11612e-07 -1.22964e-06 0 -1.14934e-07 -1.04903e-06 0 -3.95024e-08 -8.86199e-07 0 1.81104e-08 -7.42605e-07 0 6.10069e-08 -6.16408e-07 0 9.17761e-08 -5.0509e-07 0 1.12677e-07 -4.10065e-07 0 1.25625e-07 -3.27382e-07 0 1.32179e-07 -2.56331e-07 0 1.33676e-07 -1.96473e-07 0 1.31183e-07 -1.45151e-07 0 1.25567e-07 -1.0232e-07 0 1.17549e-07 -6.65186e-08 0 1.07682e-07 -3.64055e-08 0 9.64151e-08 -1.22305e-08 0 8.41035e-08 7.67584e-09 0 7.10164e-08 2.36067e-08 0 5.73707e-08 3.57918e-08 0 4.33297e-08 4.50789e-08 0 2.90211e-08 5.13729e-08 0 1.45497e-08 5.50639e-08 0 0 5.64436e-08 0 -3.00832e-06 -4.31656e-06 0 -2.44973e-06 -4.01877e-06 0 -1.95706e-06 -3.69671e-06 0 -1.52986e-06 -3.36245e-06 0 -1.1654e-06 -3.02643e-06 0 -8.59347e-07 -2.69726e-06 0 -6.06327e-07 -2.38159e-06 0 -4.00439e-07 -2.08426e-06 0 -2.35672e-07 -1.80896e-06 0 -1.06121e-07 -1.55639e-06 0 -6.40477e-09 -1.32743e-06 0 6.8533e-08 -1.12415e-06 0 1.23077e-07 -9.42242e-07 0 1.61026e-07 -7.83131e-07 0 1.8572e-07 -6.4435e-07 0 1.99871e-07 -5.22754e-07 0 2.05779e-07 -4.19759e-07 0 2.05335e-07 -3.30701e-07 0 2.0003e-07 -2.54658e-07 0 1.91102e-07 -1.91023e-07 0 1.79502e-07 -1.36765e-07 0 1.65972e-07 -9.17587e-08 0 1.51099e-07 -5.43464e-08 0 1.3531e-07 -2.30331e-08 0 1.18928e-07 1.96599e-09 0 1.02187e-07 2.24636e-08 0 8.52458e-08 3.88001e-08 0 6.82115e-08 5.12467e-08 0 5.11474e-08 6.07062e-08 0 3.40859e-08 6.71009e-08 0 1.70379e-08 7.08448e-08 0 0 7.22432e-08 0 -2.69383e-06 -4.92693e-06 0 -2.10345e-06 -4.55672e-06 0 -1.59326e-06 -4.16206e-06 0 -1.16103e-06 -3.75782e-06 0 -8.01904e-07 -3.3565e-06 0 -5.09288e-07 -2.96806e-06 0 -2.75657e-07 -2.59981e-06 0 -9.31708e-08 -2.25678e-06 0 4.58396e-08 -1.94262e-06 0 1.48646e-07 -1.65727e-06 0 2.21671e-07 -1.40114e-06 0 2.70767e-07 -1.17607e-06 0 3.00866e-07 -9.76388e-07 0 3.16116e-07 -8.0336e-07 0 3.2006e-07 -6.53754e-07 0 3.15482e-07 -5.2369e-07 0 3.04669e-07 -4.14513e-07 0 2.89438e-07 -3.208e-07 0 2.71161e-07 -2.4138e-07 0 2.5093e-07 -1.75442e-07 0 2.29539e-07 -1.19594e-07 0 2.07571e-07 -7.36053e-08 0 1.85449e-07 -3.56328e-08 0 1.63447e-07 -4.04101e-09 0 1.41742e-07 2.10081e-08 0 1.20429e-07 4.14383e-08 0 9.95409e-08 5.76371e-08 0 7.90639e-08 6.99178e-08 0 5.89509e-08 7.92175e-08 0 3.91306e-08 8.5484e-08 0 1.95129e-08 8.9145e-08 0 0 9.05111e-08 0 -2.29995e-06 -5.57839e-06 0 -1.67661e-06 -5.11887e-06 0 -1.15128e-06 -4.63663e-06 0 -7.19007e-07 -4.14989e-06 0 -3.7189e-07 -3.67338e-06 0 -1.00313e-07 -3.21835e-06 0 1.06036e-07 -2.79253e-06 0 2.57407e-07 -2.40082e-06 0 3.63444e-07 -2.04647e-06 0 4.32977e-07 -1.72828e-06 0 4.73561e-07 -1.44581e-06 0 4.91871e-07 -1.20051e-06 0 4.93354e-07 -9.85017e-07 0 4.8245e-07 -8.00274e-07 0 4.62826e-07 -6.42137e-07 0 4.37259e-07 -5.05891e-07 0 4.07942e-07 -3.92721e-07 0 3.76533e-07 -2.96413e-07 0 3.44224e-07 -2.15512e-07 0 3.11896e-07 -1.48979e-07 0 2.80135e-07 -9.30755e-08 0 2.49319e-07 -4.74478e-08 0 2.1967e-07 -1.00849e-08 0 1.91283e-07 2.0768e-08 0 1.64162e-07 4.50204e-08 0 1.38246e-07 6.46677e-08 0 1.13425e-07 8.01421e-08 0 8.95526e-08 9.17979e-08 0 6.64626e-08 1.00583e-07 0 4.39723e-08 1.06477e-07 0 2.18838e-08 1.0991e-07 0 0 1.1119e-07 0 -1.80134e-06 -6.27355e-06 0 -1.14598e-06 -5.70325e-06 0 -6.10983e-07 -5.11504e-06 0 -1.87214e-07 -4.53101e-06 0 1.3759e-07 -3.96818e-06 0 3.77143e-07 -3.43882e-06 0 5.45342e-07 -2.95063e-06 0 6.55388e-07 -2.50784e-06 0 7.19226e-07 -2.11282e-06 0 7.4741e-07 -1.76263e-06 0 7.48667e-07 -1.45566e-06 0 7.3045e-07 -1.19264e-06 0 6.98631e-07 -9.64144e-07 0 6.57824e-07 -7.70656e-07 0 6.11687e-07 -6.06946e-07 0 5.62864e-07 -4.67371e-07 0 5.13333e-07 -3.52859e-07 0 4.64493e-07 -2.56399e-07 0 4.17259e-07 -1.76226e-07 0 3.72224e-07 -1.11044e-07 0 3.29702e-07 -5.68124e-08 0 2.89817e-07 -1.30377e-08 0 2.52548e-07 2.24327e-08 0 2.17775e-07 5.14417e-08 0 1.85308e-07 7.39877e-08 0 1.54906e-07 9.20889e-08 0 1.26306e-07 1.06217e-07 0 9.92164e-08 1.16765e-07 0 7.33439e-08 1.24662e-07 0 4.83887e-08 1.29929e-07 0 2.40407e-08 1.32985e-07 0 0 1.34122e-07 0 -1.18697e-06 -7.01291e-06 0 -5.03506e-07 -6.30479e-06 0 3.24999e-08 -5.58841e-06 0 4.36242e-07 -4.89008e-06 0 7.25913e-07 -4.22888e-06 0 9.20503e-07 -3.61749e-06 0 1.03829e-06 -3.06283e-06 0 1.09592e-06 -2.56765e-06 0 1.10788e-06 -2.13277e-06 0 1.08651e-06 -1.75279e-06 0 1.04168e-06 -1.42445e-06 0 9.8149e-07 -1.14739e-06 0 9.12081e-07 -9.09766e-07 0 8.38075e-07 -7.11396e-07 0 7.6295e-07 -5.45818e-07 0 6.89068e-07 -4.06389e-07 0 6.18056e-07 -2.93672e-07 0 5.50932e-07 -1.99891e-07 0 4.88242e-07 -1.22956e-07 0 4.30212e-07 -6.13007e-08 0 3.76822e-07 -1.06444e-08 0 3.2789e-07 2.96581e-08 0 2.83114e-07 6.18603e-08 0 2.42135e-07 8.78529e-08 0 2.04541e-07 1.07738e-07 0 1.69902e-07 1.23498e-07 0 1.37788e-07 1.35638e-07 0 1.07756e-07 1.44583e-07 0 7.93802e-08 1.51212e-07 0 5.22411e-08 1.55592e-07 0 2.59155e-08 1.58117e-07 0 0 1.59054e-07 0 -4.03313e-07 -7.79328e-06 0 2.97579e-07 -6.91351e-06 0 8.17747e-07 -6.0426e-06 0 1.18158e-06 -5.21103e-06 0 1.41553e-06 -4.4391e-06 0 1.54546e-06 -3.73883e-06 0 1.59498e-06 -3.11507e-06 0 1.58466e-06 -2.56805e-06 0 1.53169e-06 -2.09602e-06 0 1.45013e-06 -1.69033e-06 0 1.35075e-06 -1.34544e-06 0 1.24205e-06 -1.05949e-06 0 1.13013e-06 -8.17888e-07 0 1.01934e-06 -6.19541e-07 0 9.12705e-07 -4.56637e-07 0 8.12078e-07 -3.215e-07 0 7.18538e-07 -2.14221e-07 0 6.32562e-07 -1.26342e-07 0 5.54202e-07 -5.54484e-08 0 4.83212e-07 2.97137e-10 0 4.19162e-07 4.53243e-08 0 3.61508e-07 8.04331e-08 0 3.09623e-07 1.07924e-07 0 2.62876e-07 1.29684e-07 0 2.20617e-07 1.45928e-07 0 1.82208e-07 1.58541e-07 0 1.47045e-07 1.68045e-07 0 1.1453e-07 1.7489e-07 0 8.41015e-08 1.79872e-07 0 5.52219e-08 1.83109e-07 0 2.7356e-08 1.84953e-07 0 0 1.85633e-07 0 5.78246e-07 -8.60459e-06 0 1.27757e-06 -7.51128e-06 0 1.75718e-06 -6.45543e-06 0 2.05456e-06 -5.47056e-06 0 2.20705e-06 -4.57647e-06 0 2.24891e-06 -3.78253e-06 0 2.20988e-06 -3.08977e-06 0 2.11468e-06 -2.4943e-06 0 1.9831e-06 -1.99064e-06 0 1.83063e-06 -1.56583e-06 0 1.66858e-06 -1.21143e-06 0 1.50539e-06 -9.23593e-07 0 1.34673e-06 -6.84668e-07 0 1.1963e-06 -4.92442e-07 0 1.05635e-06 -3.3768e-07 0 9.2797e-07 -2.11697e-07 0 8.11472e-07 -1.14011e-07 0 7.06623e-07 -3.56312e-08 0 6.12852e-07 2.61531e-08 0 5.29344e-07 7.34327e-08 0 4.55187e-07 1.10662e-07 0 3.89425e-07 1.3879e-07 0 3.31071e-07 1.60093e-07 0 2.79196e-07 1.76391e-07 0 2.32899e-07 1.8802e-07 0 1.91325e-07 1.96688e-07 0 1.53695e-07 2.02925e-07 0 1.19252e-07 2.07189e-07 0 8.73048e-08 2.1016e-07 0 5.72009e-08 2.12007e-07 0 2.82989e-08 2.13026e-07 0 0 2.13395e-07 0 1.79589e-06 -9.42598e-06 0 2.46266e-06 -8.06912e-06 0 2.86642e-06 -6.79519e-06 0 3.0624e-06 -5.63778e-06 0 3.10145e-06 -4.61288e-06 0 3.02754e-06 -3.72431e-06 0 2.87693e-06 -2.96674e-06 0 2.67842e-06 -2.33019e-06 0 2.45397e-06 -1.80401e-06 0 2.21991e-06 -1.36981e-06 0 1.98749e-06 -1.01555e-06 0 1.7645e-06 -7.34886e-07 0 1.55564e-06 -5.06942e-07 0 1.36352e-06 -3.28171e-07 0 1.18924e-06 -1.8793e-07 0 1.03282e-06 -7.66352e-08 0 8.93578e-07 6.85543e-09 0 7.70398e-07 7.18286e-08 0 6.6196e-07 1.2124e-07 0 5.66786e-07 1.57389e-07 0 4.8342e-07 1.84599e-07 0 4.1045e-07 2.03945e-07 0 3.465e-07 2.17596e-07 0 2.90334e-07 2.2723e-07 0 2.40785e-07 2.33303e-07 0 1.96783e-07 2.37268e-07 0 1.57375e-07 2.3964e-07 0 1.21652e-07 2.40876e-07 0 8.87994e-08 2.41498e-07 0 5.80564e-08 2.41729e-07 0 2.86847e-08 2.41791e-07 0 0 2.41801e-07 0 3.3687e-06 -1.02167e-05 0 3.94038e-06 -8.53997e-06 0 4.20564e-06 -7.0153e-06 0 4.2431e-06 -5.67027e-06 0 4.11965e-06 -4.51182e-06 0 3.88967e-06 -3.53408e-06 0 3.59566e-06 -2.72208e-06 0 3.26958e-06 -2.05744e-06 0 2.9345e-06 -1.5226e-06 0 2.60637e-06 -1.09266e-06 0 2.29529e-06 -7.51336e-07 0 2.00738e-06 -4.8927e-07 0 1.74556e-06 -2.82412e-07 0 1.51066e-06 -1.25713e-07 0 1.30211e-06 -7.26525e-09 0 1.11846e-06 8.31918e-08 0 9.57753e-07 1.47515e-07 0 8.17769e-07 1.94956e-07 0 6.96298e-07 2.28622e-07 0 5.91103e-07 2.50951e-07 0 5.00121e-07 2.65937e-07 0 4.21449e-07 2.74754e-07 0 3.53304e-07 2.79358e-07 0 2.94134e-07 2.812e-07 0 2.42513e-07 2.80852e-07 0 1.97162e-07 2.79424e-07 0 1.56964e-07 2.77399e-07 0 1.20873e-07 2.7521e-07 0 8.79642e-08 2.73189e-07 0 5.73846e-08 2.71606e-07 0 2.83147e-08 2.70598e-07 0 -1.35794e-21 2.70206e-07 0 5.30739e-06 -1.0906e-05 0 5.70172e-06 -8.85307e-06 0 5.7546e-06 -7.05181e-06 0 5.57111e-06 -5.51355e-06 0 5.23464e-06 -4.22894e-06 0 4.80927e-06 -3.17705e-06 0 4.34239e-06 -2.32956e-06 0 3.86761e-06 -1.65702e-06 0 3.40743e-06 -1.13323e-06 0 2.97598e-06 -7.25811e-07 0 2.58088e-06 -4.13694e-07 0 2.22548e-06 -1.84128e-07 0 1.91007e-06 -1.02486e-08 0 1.63306e-06 1.14578e-07 0 1.39168e-06 2.03211e-07 0 1.18269e-06 2.66224e-07 0 1.00259e-06 3.06197e-07 0 8.47928e-07 3.31904e-07 0 7.15489e-07 3.46475e-07 0 6.02217e-07 3.52379e-07 0 5.05413e-07 3.53054e-07 0 4.22671e-07 3.49725e-07 0 3.518e-07 3.44019e-07 0 2.90942e-07 3.37071e-07 0 2.38427e-07 3.29555e-07 0 1.92783e-07 3.22151e-07 0 1.52746e-07 3.15284e-07 0 1.17151e-07 3.09347e-07 0 8.49809e-08 3.04444e-07 0 5.53089e-08 3.00893e-07 0 2.72513e-08 2.98723e-07 0 -8.49708e-22 2.97897e-07 0 7.71309e-06 -1.1382e-05 0 7.80183e-06 -8.91004e-06 0 7.53725e-06 -6.8227e-06 0 7.04956e-06 -5.10193e-06 0 6.43629e-06 -3.71346e-06 0 5.76842e-06 -2.61552e-06 0 5.09541e-06 -1.76234e-06 0 4.44971e-06 -1.11083e-06 0 3.85072e-06 -6.24502e-07 0 3.30844e-06 -2.62857e-07 0 2.82624e-06 1.86891e-10 0 2.40322e-06 1.80976e-07 0 2.03595e-06 3.08403e-07 0 1.71963e-06 3.90629e-07 0 1.44875e-06 4.40939e-07 0 1.21794e-06 4.69693e-07 0 1.02193e-06 4.80137e-07 0 8.55865e-07 4.80026e-07 0 7.15477e-07 4.72333e-07 0 5.96855e-07 4.59423e-07 0 4.9666e-07 4.43924e-07 0 4.11998e-07 4.27049e-07 0 3.40295e-07 4.09975e-07 0 2.79411e-07 3.93423e-07 0 2.27462e-07 3.7815e-07 0 1.82812e-07 3.64323e-07 0 1.44078e-07 3.52285e-07 0 1.10005e-07 3.42368e-07 0 7.95083e-08 3.34416e-07 0 5.16103e-08 3.2879e-07 0 2.53875e-08 3.254e-07 0 0 3.24116e-07 0 1.06568e-05 -1.1475e-05 0 1.02631e-05 -8.57597e-06 0 9.5466e-06 -6.22304e-06 0 8.654e-06 -4.35592e-06 0 7.69074e-06 -2.90728e-06 0 6.72956e-06 -1.80889e-06 0 5.81734e-06 -9.93752e-07 0 4.98111e-06 -4.02801e-07 0 4.23349e-06 1.19806e-08 0 3.57729e-06 2.99199e-07 0 3.00925e-06 4.89734e-07 0 2.52246e-06 6.03365e-07 0 2.10852e-06 6.69652e-07 0 1.75865e-06 6.98026e-07 0 1.46406e-06 7.01404e-07 0 1.21692e-06 6.89228e-07 0 1.01005e-06 6.65276e-07 0 8.3712e-07 6.35634e-07 0 6.92793e-07 6.02903e-07 0 5.72327e-07 5.69176e-07 0 4.71786e-07 5.36002e-07 0 3.87831e-07 5.04509e-07 0 3.17559e-07 4.75297e-07 0 2.58601e-07 4.4858e-07 0 2.08902e-07 4.25173e-07 0 1.66709e-07 4.04656e-07 0 1.30561e-07 3.87265e-07 0 9.91451e-08 3.73251e-07 0 7.13448e-08 3.62173e-07 0 4.61621e-08 3.54425e-07 0 2.26622e-08 3.49789e-07 0 0 3.48039e-07 0 1.40775e-05 -1.09717e-05 0 1.30172e-05 -7.69304e-06 0 1.17146e-05 -5.1361e-06 0 1.03206e-05 -3.19125e-06 0 8.94082e-06 -1.75231e-06 0 7.64364e-06 -7.19824e-07 0 6.46777e-06 -2.2398e-09 0 5.4298e-06 4.77235e-07 0 4.5313e-06 7.78721e-07 0 3.76448e-06 9.57958e-07 0 3.11705e-06 1.0497e-06 0 2.57438e-06 1.07647e-06 0 2.12204e-06 1.06647e-06 0 1.74661e-06 1.02988e-06 0 1.43567e-06 9.78173e-07 0 1.1788e-06 9.19001e-07 0 9.66858e-07 8.56444e-07 0 7.92072e-07 7.94211e-07 0 6.48099e-07 7.34279e-07 0 5.29447e-07 6.7828e-07 0 4.31658e-07 6.26418e-07 0 3.51035e-07 5.79655e-07 0 2.84415e-07 5.37892e-07 0 2.29264e-07 5.00755e-07 0 1.83416e-07 4.69086e-07 0 1.45052e-07 4.41819e-07 0 1.12674e-07 4.1906e-07 0 8.49545e-08 4.0096e-07 0 6.07773e-08 3.86777e-07 0 3.9155e-08 3.76928e-07 0 1.91705e-08 3.71062e-07 0 0 3.68853e-07 0 1.79653e-05 -9.63456e-06 0 1.60192e-05 -6.08922e-06 0 1.39709e-05 -3.43771e-06 0 1.19638e-05 -1.52214e-06 0 1.00957e-05 -1.93896e-07 0 8.42269e-06 6.82168e-07 0 6.96696e-06 1.22515e-06 0 5.7269e-06 1.53049e-06 0 4.6867e-06 1.66985e-06 0 3.82331e-06 1.70372e-06 0 3.11236e-06 1.66875e-06 0 2.52956e-06 1.58887e-06 0 2.05348e-06 1.48804e-06 0 1.66557e-06 1.37638e-06 0 1.34967e-06 1.2626e-06 0 1.0928e-06 1.15153e-06 0 8.84002e-07 1.04724e-06 0 7.14259e-07 9.50335e-07 0 5.76393e-07 8.61894e-07 0 4.6434e-07 7.82895e-07 0 3.73282e-07 7.11955e-07 0 2.99292e-07 6.49787e-07 0 2.39073e-07 5.95494e-07 0 1.90022e-07 5.48043e-07 0 1.49948e-07 5.08272e-07 0 1.17037e-07 4.74431e-07 0 8.98144e-08 4.46477e-07 0 6.69922e-08 4.24446e-07 0 4.74978e-08 4.07287e-07 0 3.03939e-08 3.95433e-07 0 1.4818e-08 3.88396e-07 0 0 3.85749e-07 0 2.21265e-05 -7.23262e-06 0 1.911e-05 -3.5908e-06 0 1.61757e-05 -1.00274e-06 0 1.34604e-05 7.3299e-07 0 1.10508e-05 1.81279e-06 0 8.98239e-06 2.41405e-06 0 7.25048e-06 2.68661e-06 0 5.82561e-06 2.7441e-06 0 4.66728e-06 2.66724e-06 0 3.73237e-06 2.51671e-06 0 2.98178e-06 2.32768e-06 0 2.38025e-06 2.12306e-06 0 1.89888e-06 1.91901e-06 0 1.51408e-06 1.72438e-06 0 1.20617e-06 1.5436e-06 0 9.59963e-07 1.37758e-06 0 7.6305e-07 1.23001e-06 0 6.05479e-07 1.09768e-06 0 4.79529e-07 9.8054e-07 0 3.78809e-07 8.78728e-07 0 2.98339e-07 7.89085e-07 0 2.34131e-07 7.11997e-07 0 1.8289e-07 6.45695e-07 0 1.42057e-07 5.8845e-07 0 1.09508e-07 5.41062e-07 0 8.35095e-08 5.01085e-07 0 6.26717e-08 4.68316e-07 0 4.57977e-08 4.42664e-07 0 3.19038e-08 4.22777e-07 0 2.01406e-08 4.09093e-07 0 9.73441e-09 4.00987e-07 0 0 3.97943e-07 0 2.63713e-05 -3.57558e-06 0 2.2117e-05 -3.8239e-08 0 1.8161e-05 2.284e-06 0 1.46529e-05 3.64042e-06 0 1.16692e-05 4.29149e-06 0 9.21239e-06 4.4694e-06 0 7.23474e-06 4.35821e-06 0 5.66569e-06 4.08651e-06 0 4.43131e-06 3.73812e-06 0 3.46372e-06 3.36629e-06 0 2.70717e-06 2.99951e-06 0 2.11505e-06 2.65617e-06 0 1.65143e-06 2.34039e-06 0 1.2883e-06 2.05833e-06 0 1.00329e-06 1.80852e-06 0 7.79653e-07 1.58693e-06 0 6.04115e-07 1.39646e-06 0 4.66293e-07 1.22957e-06 0 3.58304e-07 1.08485e-06 0 2.73753e-07 9.61436e-07 0 2.07747e-07 8.543e-07 0 1.56434e-07 7.63435e-07 0 1.16685e-07 6.86175e-07 0 8.61051e-08 6.20082e-07 0 6.27393e-08 5.6589e-07 0 4.50161e-08 5.20479e-07 0 3.16962e-08 4.83479e-07 0 2.17278e-08 4.54672e-07 0 1.42605e-08 4.3242e-07 0 8.57046e-09 4.17155e-07 0 4.00708e-09 4.08132e-07 0 0 4.04746e-07 0 3.0506e-05 1.51251e-06 0 2.4818e-05 4.73988e-06 0 1.96801e-05 6.53978e-06 0 1.53016e-05 7.248e-06 0 1.17454e-05 7.23317e-06 0 8.9528e-06 6.80513e-06 0 6.80388e-06 6.18287e-06 0 5.16721e-06 5.4996e-06 0 3.92551e-06 4.82998e-06 0 2.98274e-06 4.20787e-06 0 2.26648e-06 3.64773e-06 0 1.72027e-06 3.15886e-06 0 1.30285e-06 2.72894e-06 0 9.83497e-07 2.35986e-06 0 7.38526e-07 2.04289e-06 0 5.50783e-07 1.76824e-06 0 4.0699e-07 1.53764e-06 0 2.97016e-07 1.33893e-06 0 2.13326e-07 1.16922e-06 0 1.49924e-07 1.02657e-06 0 1.02308e-07 9.04059e-07 0 6.69944e-08 8.01274e-07 0 4.12019e-08 7.14663e-07 0 2.28418e-08 6.41114e-07 0 1.02379e-08 5.81269e-07 0 2.06879e-09 5.31393e-07 0 -2.68744e-09 4.90956e-07 0 -4.87995e-09 4.59609e-07 0 -5.18086e-09 4.3547e-07 0 -4.15e-09 4.18953e-07 0 -2.28103e-09 4.09205e-07 0 0 4.05549e-07 0 3.4388e-05 8.25744e-06 0 2.6954e-05 1.09735e-05 0 2.0413e-05 1.18929e-05 0 1.51074e-05 1.15667e-05 0 1.10491e-05 1.05703e-05 0 8.04887e-06 9.32127e-06 0 5.86404e-06 8.05869e-06 0 4.27824e-06 6.89392e-06 0 3.12417e-06 5.86989e-06 0 2.27909e-06 4.98425e-06 0 1.65791e-06 4.2284e-06 0 1.19851e-06 3.59752e-06 0 8.57828e-07 3.0591e-06 0 6.05098e-07 2.60948e-06 0 4.17385e-07 2.23176e-06 0 2.78547e-07 1.91007e-06 0 1.76398e-07 1.6447e-06 0 1.01843e-07 1.41892e-06 0 4.82629e-08 1.22835e-06 0 1.04928e-08 1.06997e-06 0 -1.52638e-08 9.35127e-07 0 -3.18846e-08 8.22968e-07 0 -4.16176e-08 7.29149e-07 0 -4.61117e-08 6.49958e-07 0 -4.66575e-08 5.85928e-07 0 -4.42439e-08 5.32804e-07 0 -3.96126e-08 4.8991e-07 0 -3.33585e-08 4.56781e-07 0 -2.59349e-08 4.31334e-07 0 -1.77043e-08 4.13959e-07 0 -8.97382e-09 4.03719e-07 0 -8.79896e-21 3.99882e-07 0 3.79821e-05 1.71151e-05 0 2.81483e-05 1.90662e-05 0 1.98512e-05 1.84918e-05 0 1.3635e-05 1.65232e-05 0 9.28993e-06 1.41279e-05 0 6.33646e-06 1.18304e-05 0 4.33462e-06 9.82526e-06 0 2.96594e-06 8.14491e-06 0 2.01927e-06 6.76517e-06 0 1.35661e-06 5.62783e-06 0 8.90219e-07 4.69256e-06 0 5.60063e-07 3.93625e-06 0 3.26565e-07 3.30462e-06 0 1.62493e-07 2.78775e-06 0 4.81854e-08 2.36064e-06 0 -2.98267e-08 2.00161e-06 0 -8.14656e-08 1.70944e-06 0 -1.13957e-07 1.46331e-06 0 -1.32434e-07 1.25751e-06 0 -1.40797e-07 1.08802e-06 0 -1.41831e-07 9.4472e-07 0 -1.37584e-07 8.26371e-07 0 -1.296e-07 7.27972e-07 0 -1.18962e-07 6.45328e-07 0 -1.06481e-07 5.7886e-07 0 -9.27393e-08 5.2392e-07 0 -7.81439e-08 4.79714e-07 0 -6.29916e-08 4.45678e-07 0 -4.74826e-08 4.1959e-07 0 -3.17548e-08 4.01811e-07 0 -1.59051e-08 3.91344e-07 0 0 3.87424e-07 0 4.13946e-05 2.92049e-05 0 2.76303e-05 2.98083e-05 0 1.70666e-05 2.64354e-05 0 1.02508e-05 2.18206e-05 0 6.14932e-06 1.75333e-05 0 3.69287e-06 1.40222e-05 0 2.18878e-06 1.12579e-05 0 1.24318e-06 9.09829e-06 0 6.36687e-07 7.41101e-06 0 2.43024e-07 6.06738e-06 0 -1.12638e-08 4.9914e-06 0 -1.73298e-07 4.14072e-06 0 -2.72735e-07 3.44124e-06 0 -3.29272e-07 2.87723e-06 0 -3.56696e-07 2.41682e-06 0 -3.64176e-07 2.0336e-06 0 -3.58255e-07 1.72497e-06 0 -3.4353e-07 1.46701e-06 0 -3.23129e-07 1.25291e-06 0 -2.9931e-07 1.07787e-06 0 -2.73585e-07 9.30713e-07 0 -2.46979e-07 8.09891e-07 0 -2.20185e-07 7.09936e-07 0 -1.93624e-07 6.26336e-07 0 -1.67544e-07 5.59395e-07 0 -1.42067e-07 5.04242e-07 0 -1.17221e-07 4.59994e-07 0 -9.29716e-08 4.26016e-07 0 -6.92417e-08 4.00019e-07 0 -4.59242e-08 3.8233e-07 0 -2.28892e-08 3.71927e-07 0 2.15951e-20 3.68033e-07 0 4.48504e-05 4.76284e-05 0 2.32893e-05 4.46942e-05 0 1.02894e-05 3.53379e-05 0 4.18615e-06 2.6597e-05 0 1.43731e-06 2.00975e-05 0 1.47004e-07 1.54532e-05 0 -4.87538e-07 1.2088e-05 0 -8.03432e-07 9.59176e-06 0 -9.51215e-07 7.7068e-06 0 -1.00473e-06 6.23911e-06 0 -1.00253e-06 5.08342e-06 0 -9.67598e-07 4.18278e-06 0 -9.13695e-07 3.44969e-06 0 -8.49554e-07 2.86441e-06 0 -7.8098e-07 2.39071e-06 0 -7.11568e-07 1.99922e-06 0 -6.43635e-07 1.6864e-06 0 -5.78576e-07 1.42649e-06 0 -5.17131e-07 1.21202e-06 0 -4.59639e-07 1.0377e-06 0 -4.06147e-07 8.91822e-07 0 -3.5652e-07 7.7262e-07 0 -3.10503e-07 6.74413e-07 0 -2.67779e-07 5.92559e-07 0 -2.27988e-07 5.27259e-07 0 -1.90751e-07 4.73602e-07 0 -1.55692e-07 4.30661e-07 0 -1.22426e-07 3.97759e-07 0 -9.05853e-08 3.72626e-07 0 -5.98072e-08 3.55547e-07 0 -2.97275e-08 3.45511e-07 0 1.25332e-20 3.41755e-07 0 4.75088e-05 8.31732e-05 0 8.02581e-06 6.53127e-05 0 -3.3206e-06 4.25435e-05 0 -4.88367e-06 2.88977e-05 0 -4.56355e-06 2.08151e-05 0 -3.98662e-06 1.56352e-05 0 -3.45528e-06 1.20727e-05 0 -3.00656e-06 9.49779e-06 0 -2.62855e-06 7.5807e-06 0 -2.30534e-06 6.10045e-06 0 -2.02524e-06 4.94227e-06 0 -1.78007e-06 4.04515e-06 0 -1.56431e-06 3.3185e-06 0 -1.37399e-06 2.74155e-06 0 -1.20586e-06 2.27703e-06 0 -1.05733e-06 1.89496e-06 0 -9.26051e-07 1.59134e-06 0 -8.09935e-07 1.34018e-06 0 -7.0714e-07 1.13386e-06 0 -6.15943e-07 9.66921e-07 0 -5.3483e-07 8.27738e-07 0 -4.62442e-07 7.14441e-07 0 -3.97526e-07 6.21413e-07 0 -3.39002e-07 5.44098e-07 0 -2.85878e-07 4.82608e-07 0 -2.37262e-07 4.32194e-07 0 -1.92369e-07 3.91932e-07 0 -1.50459e-07 3.6114e-07 0 -1.10871e-07 3.37649e-07 0 -7.29894e-08 3.21705e-07 0 -3.62168e-08 3.12342e-07 0 0 3.08839e-07 0 -7.64736e-05 -0.000695935 0 -4.05893e-05 7.61598e-05 0 -2.34648e-05 3.95361e-05 0 -1.51154e-05 2.6052e-05 0 -1.06792e-05 1.88559e-05 0 -8.04669e-06 1.42925e-05 0 -6.33622e-06 1.11124e-05 0 -5.13953e-06 8.7767e-06 0 -4.25208e-06 7.01448e-06 0 -3.56378e-06 5.64205e-06 0 -3.01356e-06 4.56273e-06 0 -2.56346e-06 3.72473e-06 0 -2.18976e-06 3.04598e-06 0 -1.87634e-06 2.50785e-06 0 -1.61128e-06 2.0756e-06 0 -1.38592e-06 1.72103e-06 0 -1.19336e-06 1.44026e-06 0 -1.02805e-06 1.20873e-06 0 -8.8559e-07 1.01915e-06 0 -7.62207e-07 8.66293e-07 0 -6.54839e-07 7.39212e-07 0 -5.60913e-07 6.36081e-07 0 -4.78195e-07 5.5163e-07 0 -4.04852e-07 4.81605e-07 0 -3.39276e-07 4.26052e-07 0 -2.80077e-07 3.80589e-07 0 -2.26072e-07 3.44341e-07 0 -1.76182e-07 3.16663e-07 0 -1.29464e-07 2.95571e-07 0 -8.50619e-08 2.81267e-07 0 -4.21569e-08 2.72873e-07 0 0 2.69734e-07 0 </DataArray> 
</PointData> 
<Points> 
<DataArray type="Float32" NumberOfComponents="3"> 