<?xml version="1.0"?> 
<VTKFile type="StructuredGrid" version="0.1"> 
<StructuredGrid WholeExtent="0 31 0 31 0 0"> 
<Piece Extent="0 31 0 31 0 0"> 
<PointData>
<DataArray type="Float32" Name="B" format="ascii" NumberOfComponents="3"> 
0 -2.14292e-06 0 3.86061e-07 -2.15239e-06 0 7.75203e-07 -2.17749e-06 0 1.17046e-06 -2.21958e-06 0 1.57504e-06 -2.28003e-06 0 1.99213e-06 -2.35695e-06 0 2.42507e-06 -2.45336e-06 0 2.87742e-06 -2.5685e-06 0 3.35279e-06 -2.70194e-06 0 3.85513e-06 -2.85823e-06 0 4.38867e-06 -3.03415e-06 0 4.95787e-06 -3.23196e-06 0 5.56782e-06 -3.45335e-06 0 6.22397e-06 -3.6958e-06 0 6.93248e-06 -3.96228e-06 0 7.70063e-06 -4.24986e-06 0 8.53667e-06 -4.55562e-06 0 9.45094e-06 -4.87822e-06 0 1.04564e-05 -5.20827e-06 0 1.157e-05 -5.53553e-06 0 1.28158e-05 -5.84161e-06 0 1.42282e-05 -6.10507e-06 0 1.58597e-05 -6.27526e-06 0 1.77973e-05 -6.29954e-06 0 2.0183e-05 -6.09349e-06 0 2.32765e-05 -5.50656e-06 0 2.75754e-05 -4.32599e-06 0 3.41487e-05 -2.18879e-06 0 4.57123e-05 1.58195e-06 0 7.14326e-05 8.38144e-06 0 0.000166212 1.91376e-05 0 0.000662591 -0.00728177 0 0 -2.51942e-06 0 3.67696e-07 -2.53057e-06 0 7.38335e-07 -2.56014e-06 0 1.11482e-06 -2.6097e-06 0 1.50021e-06 -2.68093e-06 0 1.89759e-06 -2.77162e-06 0 2.31015e-06 -2.88535e-06 0 2.74135e-06 -3.02132e-06 0 3.19471e-06 -3.17907e-06 0 3.67413e-06 -3.36419e-06 0 4.18382e-06 -3.573e-06 0 4.72828e-06 -3.80848e-06 0 5.31274e-06 -4.07316e-06 0 5.94296e-06 -4.36447e-06 0 6.62557e-06 -4.68726e-06 0 7.36866e-06 -5.03925e-06 0 8.18166e-06 -5.41872e-06 0 9.07672e-06 -5.82906e-06 0 1.00695e-05 -6.26218e-06 0 1.11805e-05 -6.71499e-06 0 1.24393e-05 -7.17994e-06 0 1.38874e-05 -7.64559e-06 0 1.55869e-05 -8.09652e-06 0 1.76362e-05 -8.51864e-06 0 2.01888e-05 -8.90353e-06 0 2.35071e-05 -9.26819e-06 0 2.80497e-05 -9.72746e-06 0 3.46683e-05 -1.07054e-05 0 4.49905e-05 -1.37467e-05 0 6.14919e-05 -2.49753e-05 0 7.47139e-05 -6.9015e-05 0 -2.74451e-05 -0.000107103 0 0 -2.87612e-06 0 3.46416e-07 -2.88886e-06 0 6.95608e-07 -2.92267e-06 0 1.05031e-06 -2.97934e-06 0 1.41343e-06 -3.06082e-06 0 1.78787e-06 -3.1646e-06 0 2.17668e-06 -3.29485e-06 0 2.58315e-06 -3.45071e-06 0 3.01067e-06 -3.63175e-06 0 3.463e-06 -3.84457e-06 0 3.94426e-06 -4.08512e-06 0 4.45889e-06 -4.35716e-06 0 5.01211e-06 -4.66414e-06 0 5.60974e-06 -5.00357e-06 0 6.25862e-06 -5.38238e-06 0 6.96714e-06 -5.79919e-06 0 7.74525e-06 -6.25375e-06 0 8.60583e-06 -6.75488e-06 0 9.56545e-06 -7.29608e-06 0 1.06456e-05 -7.88218e-06 0 1.18769e-05 -8.51722e-06 0 1.33003e-05 -9.19943e-06 0 1.49749e-05 -9.94749e-06 0 1.69874e-05 -1.07795e-05 0 1.94604e-05 -1.17458e-05 0 2.25745e-05 -1.29758e-05 0 2.65732e-05 -1.47457e-05 0 3.17143e-05 -1.76936e-05 0 3.7903e-05 -2.32661e-05 0 4.2973e-05 -3.41034e-05 0 3.80258e-05 -5.00715e-05 0 1.73619e-05 -5.06793e-05 0 -2.74699e-20 -3.21019e-06 0 3.22388e-07 -3.22443e-06 0 6.47354e-07 -3.26219e-06 0 9.77444e-07 -3.32553e-06 0 1.31536e-06 -3.41661e-06 0 1.66381e-06 -3.53268e-06 0 2.02564e-06 -3.67845e-06 0 2.40394e-06 -3.85304e-06 0 2.8019e-06 -4.05604e-06 0 3.22308e-06 -4.29507e-06 0 3.6714e-06 -4.56573e-06 0 4.15111e-06 -4.87259e-06 0 4.66726e-06 -5.22005e-06 0 5.22549e-06 -5.60576e-06 0 5.83248e-06 -6.0388e-06 0 6.49644e-06 -6.51875e-06 0 7.22711e-06 -7.04687e-06 0 8.03698e-06 -7.63746e-06 0 8.94195e-06 -8.28537e-06 0 9.96217e-06 -9.00285e-06 0 1.11251e-05 -9.80406e-06 0 1.24663e-05 -1.06944e-05 0 1.40326e-05 -1.17181e-05 0 1.58867e-05 -1.29112e-05 0 1.81036e-05 -1.43504e-05 0 2.07663e-05 -1.61968e-05 0 2.39243e-05 -1.87064e-05 0 2.74744e-05 -2.23122e-05 0 3.08456e-05 -2.75936e-05 0 3.24617e-05 -3.46738e-05 0 3.01453e-05 -4.12752e-05 0 2.57085e-05 -4.20379e-05 0 0 -3.51898e-06 0 2.95804e-07 -3.53459e-06 0 5.93961e-07 -3.57601e-06 0 8.96794e-07 -3.64549e-06 0 1.20677e-06 -3.74542e-06 0 1.52637e-06 -3.87283e-06 0 1.8582e-06 -4.03293e-06 0 2.20509e-06 -4.22483e-06 0 2.56998e-06 -4.44815e-06 0 2.95614e-06 -4.71149e-06 0 3.3672e-06 -5.01012e-06 0 3.8071e-06 -5.3494e-06 0 4.2805e-06 -5.73466e-06 0 4.79267e-06 -6.16367e-06 0 5.34977e-06 -6.64758e-06 0 5.95938e-06 -7.18684e-06 0 6.63037e-06 -7.78408e-06 0 7.37395e-06 -8.4585e-06 0 8.20406e-06 -9.20587e-06 0 9.13773e-06 -1.00444e-05 0 1.01972e-05 -1.09957e-05 0 1.14091e-05 -1.20688e-05 0 1.28058e-05 -1.3323e-05 0 1.44242e-05 -1.47982e-05 0 1.62978e-05 -1.65715e-05 0 1.84422e-05 -1.87838e-05 0 2.08144e-05 -2.16033e-05 0 2.3239e-05 -2.52293e-05 0 2.53083e-05 -2.97585e-05 0 2.64142e-05 -3.4827e-05 0 2.63425e-05 -3.92271e-05 0 2.64305e-05 -4.15234e-05 0 0 -3.80005e-06 0 2.66881e-07 -3.8169e-06 0 5.35863e-07 -3.86162e-06 0 8.09021e-07 -3.93664e-06 0 1.08855e-06 -4.04458e-06 0 1.37668e-06 -4.18223e-06 0 1.67573e-06 -4.35529e-06 0 1.98822e-06 -4.56284e-06 0 2.31679e-06 -4.80455e-06 0 2.66435e-06 -5.08989e-06 0 3.03413e-06 -5.41386e-06 0 3.42966e-06 -5.78253e-06 0 3.85506e-06 -6.20204e-06 0 4.31496e-06 -6.67028e-06 0 4.81479e-06 -7.20021e-06 0 5.36107e-06 -7.793e-06 0 5.96134e-06 -8.45234e-06 0 6.62489e-06 -9.20139e-06 0 7.36287e-06 -1.00363e-05 0 8.18836e-06 -1.09794e-05 0 9.11731e-06 -1.20567e-05 0 1.01674e-05 -1.32781e-05 0 1.13571e-05 -1.47088e-05 0 1.27031e-05 -1.63839e-05 0 1.42122e-05 -1.83687e-05 0 1.58685e-05 -2.077e-05 0 1.76112e-05 -2.36814e-05 0 1.93107e-05 -2.7176e-05 0 2.07721e-05 -3.12171e-05 0 2.18449e-05 -3.55381e-05 0 2.27044e-05 -3.96508e-05 0 2.41118e-05 -4.32023e-05 0 1.53522e-19 -4.05118e-06 0 2.35878e-07 -4.06913e-06 0 4.73581e-07 -4.11675e-06 0 7.1491e-07 -4.19666e-06 0 9.61773e-07 -4.31165e-06 0 1.21609e-06 -4.45833e-06 0 1.47988e-06 -4.6428e-06 0 1.75532e-06 -4.86413e-06 0 2.04468e-06 -5.12202e-06 0 2.35045e-06 -5.4267e-06 0 2.6754e-06 -5.77293e-06 0 3.02251e-06 -6.16735e-06 0 3.39526e-06 -6.61682e-06 0 3.79751e-06 -7.11928e-06 0 4.23368e-06 -7.68915e-06 0 4.70902e-06 -8.32807e-06 0 5.22943e-06 -9.04047e-06 0 5.80193e-06 -9.85238e-06 0 6.43455e-06 -1.07598e-05 0 7.13617e-06 -1.17873e-05 0 7.91671e-06 -1.29629e-05 0 8.78571e-06 -1.42954e-05 0 9.75105e-06 -1.58497e-05 0 1.08157e-05 -1.76535e-05 0 1.19726e-05 -1.9758e-05 0 1.31966e-05 -2.22424e-05 0 1.44378e-05 -2.51588e-05 0 1.56215e-05 -2.85373e-05 0 1.66751e-05 -3.23461e-05 0 1.76021e-05 -3.64694e-05 0 1.85929e-05 -4.07693e-05 0 2.00789e-05 -4.52541e-05 0 0 -4.27045e-06 0 2.03068e-07 -4.28933e-06 0 4.07664e-07 -4.33944e-06 0 6.15296e-07 -4.42352e-06 0 8.27557e-07 -4.54452e-06 0 1.04605e-06 -4.69889e-06 0 1.27244e-06 -4.89308e-06 0 1.50854e-06 -5.12612e-06 0 1.7562e-06 -5.39775e-06 0 2.01746e-06 -5.7188e-06 0 2.29455e-06 -6.08381e-06 0 2.58985e-06 -6.4999e-06 0 2.90609e-06 -6.97444e-06 0 3.24624e-06 -7.50535e-06 0 3.61362e-06 -8.10813e-06 0 4.01206e-06 -8.78465e-06 0 4.44567e-06 -9.53973e-06 0 4.91911e-06 -1.04011e-05 0 5.43733e-06 -1.13643e-05 0 6.00523e-06 -1.24547e-05 0 6.62744e-06 -1.37004e-05 0 7.30701e-06 -1.51079e-05 0 8.0441e-06 -1.67391e-05 0 8.83338e-06 -1.86142e-05 0 9.66135e-06 -2.07734e-05 0 1.05028e-05 -2.3278e-05 0 1.13207e-05 -2.6163e-05 0 1.20736e-05 -2.94536e-05 0 1.2737e-05 -3.31525e-05 0 1.33414e-05 -3.72472e-05 0 1.4012e-05 -4.17629e-05 0 1.49738e-05 -4.68482e-05 0 0 -4.45619e-06 0 1.68719e-07 -4.47583e-06 0 3.38653e-07 -4.52797e-06 0 5.10999e-07 -4.61546e-06 0 6.87021e-07 -4.74138e-06 0 8.67979e-07 -4.90202e-06 0 1.05518e-06 -5.10411e-06 0 1.25002e-06 -5.34665e-06 0 1.45393e-06 -5.62938e-06 0 1.66845e-06 -5.96361e-06 0 1.89524e-06 -6.34365e-06 0 2.13601e-06 -6.77695e-06 0 2.39271e-06 -7.27123e-06 0 2.66737e-06 -7.82432e-06 0 2.96217e-06 -8.45239e-06 0 3.27946e-06 -9.15732e-06 0 3.6216e-06 -9.94397e-06 0 3.99097e-06 -1.08409e-05 0 4.38968e-06 -1.18426e-05 0 4.81917e-06 -1.29746e-05 0 5.2797e-06 -1.42634e-05 0 5.76942e-06 -1.57133e-05 0 6.28315e-06 -1.73816e-05 0 6.81049e-06 -1.92825e-05 0 7.33498e-06 -2.14483e-05 0 7.83229e-06 -2.39299e-05 0 8.27257e-06 -2.67567e-05 0 8.62627e-06 -2.99591e-05 0 8.87634e-06 -3.35676e-05 0 9.03398e-06 -3.76244e-05 0 9.14816e-06 -4.22227e-05 0 9.29525e-06 -4.75563e-05 0 0 -4.60702e-06 0 1.33199e-07 -4.62726e-06 0 2.67292e-07 -4.68096e-06 0 4.03153e-07 -4.77106e-06 0 5.41703e-07 -4.90074e-06 0 6.83852e-07 -5.06616e-06 0 8.3053e-07 -5.27425e-06 0 9.82718e-07 -5.52398e-06 0 1.14139e-06 -5.81505e-06 0 1.30758e-06 -6.1591e-06 0 1.48235e-06 -6.55023e-06 0 1.66676e-06 -6.99609e-06 0 1.86194e-06 -7.50454e-06 0 2.06899e-06 -8.07329e-06 0 2.28893e-06 -8.71875e-06 0 2.52274e-06 -9.44264e-06 0 2.77111e-06 -1.02496e-05 0 3.03433e-06 -1.11681e-05 0 3.31202e-06 -1.21918e-05 0 3.60273e-06 -1.33451e-05 0 3.90324e-06 -1.46526e-05 0 4.20798e-06 -1.61163e-05 0 4.50799e-06 -1.77882e-05 0 4.78954e-06 -1.96782e-05 0 5.03411e-06 -2.18127e-05 0 5.21721e-06 -2.42357e-05 0 5.31035e-06 -2.6974e-05 0 5.28391e-06 -3.00617e-05 0 5.11172e-06 -3.35417e-05 0 4.77395e-06 -3.74762e-05 0 4.25252e-06 -4.19719e-05 0 3.5119e-06 -4.72111e-05 0 0 -4.72194e-06 0 9.68041e-08 -4.74258e-06 0 1.94173e-07 -4.79736e-06 0 2.92658e-07 -4.88926e-06 0 3.9283e-07 -5.02151e-06 0 4.95241e-07 -5.1902e-06 0 6.00443e-07 -5.40235e-06 0 7.08992e-07 -5.65689e-06 0 8.21412e-07 -5.95348e-06 0 9.38219e-07 -6.30391e-06 0 1.05989e-06 -6.70213e-06 0 1.18684e-06 -7.15581e-06 0 1.3194e-06 -7.6728e-06 0 1.45775e-06 -8.25062e-06 0 1.60188e-06 -8.90561e-06 0 1.75145e-06 -9.63916e-06 0 1.90565e-06 -1.04555e-05 0 2.06298e-06 -1.13823e-05 0 2.22096e-06 -1.24124e-05 0 2.37578e-06 -1.35686e-05 0 2.52153e-06 -1.4873e-05 0 2.64988e-06 -1.63257e-05 0 2.74917e-06 -1.79732e-05 0 2.80328e-06 -1.98219e-05 0 2.79192e-06 -2.18934e-05 0 2.68928e-06 -2.42256e-05 0 2.46501e-06 -2.68423e-05 0 2.08441e-06 -2.97757e-05 0 1.50811e-06 -3.30684e-05 0 6.88264e-07 -3.67784e-05 0 -4.42421e-07 -4.09945e-05 0 -1.99409e-06 -4.58507e-05 0 0 -4.80019e-06 0 5.98063e-08 -4.82105e-06 0 1.1985e-07 -4.87642e-06 0 1.80357e-07 -4.96931e-06 0 2.4155e-07 -5.10295e-06 0 3.03629e-07 -5.27337e-06 0 3.66766e-07 -5.48763e-06 0 4.311e-07 -5.7446e-06 0 4.96715e-07 -6.04389e-06 0 5.63625e-07 -6.39727e-06 0 6.31746e-07 -6.79858e-06 0 7.00867e-07 -7.2554e-06 0 7.70583e-07 -7.77538e-06 0 8.40251e-07 -8.35588e-06 0 9.08894e-07 -9.0128e-06 0 9.75028e-07 -9.74713e-06 0 1.0366e-06 -1.05626e-05 0 1.09061e-06 -1.14854e-05 0 1.13291e-06 -1.25079e-05 0 1.15792e-06 -1.36506e-05 0 1.15774e-06 -1.49332e-05 0 1.12212e-06 -1.63541e-05 0 1.03757e-06 -1.7954e-05 0 8.8628e-07 -1.97364e-05 0 6.46534e-07 -2.17185e-05 0 2.90905e-07 -2.39317e-05 0 -2.13519e-07 -2.6395e-05 0 -9.06629e-07 -2.91344e-05 0 -1.83791e-06 -3.21831e-05 0 -3.07247e-06 -3.55822e-05 0 -4.70297e-06 -3.93869e-05 0 -6.87111e-06 -4.3668e-05 0 0 -4.84138e-06 0 2.25926e-08 -4.86229e-06 0 4.50997e-08 -4.91777e-06 0 6.7428e-08 -5.01082e-06 0 8.94593e-08 -5.14467e-06 0 1.11046e-07 -5.31531e-06 0 1.31993e-07 -5.52975e-06 0 1.52036e-07 -5.78681e-06 0 1.70834e-07 -6.08603e-06 0 1.87924e-07 -6.43902e-06 0 2.02693e-07 -6.83955e-06 0 2.14352e-07 -7.29497e-06 0 2.21818e-07 -7.81265e-06 0 2.23707e-07 -8.38972e-06 0 2.18196e-07 -9.04144e-06 0 2.02826e-07 -9.76834e-06 0 1.7448e-07 -1.05735e-05 0 1.28963e-07 -1.14815e-05 0 6.08147e-08 -1.24839e-05 0 -3.69056e-08 -1.35991e-05 0 -1.73507e-07 -1.48441e-05 0 -3.60572e-07 -1.62158e-05 0 -6.12826e-07 -1.77493e-05 0 -9.49158e-07 -1.94454e-05 0 -1.39219e-06 -2.13168e-05 0 -1.9704e-06 -2.33882e-05 0 -2.71833e-06 -2.56722e-05 0 -3.67878e-06 -2.81861e-05 0 -4.90607e-06 -3.09497e-05 0 -6.47189e-06 -3.39827e-05 0 -8.47506e-06 -3.73046e-05 0 -1.10566e-05 -4.09272e-05 0 0 -4.84544e-06 0 -1.45349e-08 -4.86621e-06 0 -2.94674e-08 -4.92133e-06 0 -4.51995e-08 -5.01376e-06 0 -6.21779e-08 -5.14668e-06 0 -8.08826e-08 -5.31606e-06 0 -1.01857e-07 -5.52882e-06 0 -1.2575e-07 -5.7837e-06 0 -1.53296e-07 -6.08018e-06 0 -1.854e-07 -6.42958e-06 0 -2.23155e-07 -6.82563e-06 0 -2.67869e-07 -7.27537e-06 0 -3.21214e-07 -7.78577e-06 0 -3.85213e-07 -8.35377e-06 0 -4.6239e-07 -8.99375e-06 0 -5.55996e-07 -9.70578e-06 0 -6.69972e-07 -1.04923e-05 0 -8.09418e-07 -1.13758e-05 0 -9.80723e-07 -1.23475e-05 0 -1.19174e-06 -1.34235e-05 0 -1.45266e-06 -1.4618e-05 0 -1.77581e-06 -1.59267e-05 0 -2.17651e-06 -1.73791e-05 0 -2.674e-06 -1.89735e-05 0 -3.29104e-06 -2.07185e-05 0 -4.05604e-06 -2.26316e-05 0 -5.00338e-06 -2.47191e-05 0 -6.17553e-06 -2.69886e-05 0 -7.62579e-06 -2.94462e-05 0 -9.42255e-06 -3.20919e-05 0 -1.16552e-05 -3.4916e-05 0 -1.44416e-05 -3.78883e-05 0 -1.8303e-20 -4.8126e-06 0 -5.12654e-08 -4.83307e-06 0 -1.03226e-07 -4.88737e-06 0 -1.56579e-07 -4.97842e-06 0 -2.12081e-07 -5.10931e-06 0 -2.70527e-07 -5.27604e-06 0 -3.32787e-07 -5.48533e-06 0 -3.99864e-07 -5.73588e-06 0 -4.72856e-07 -6.0271e-06 0 -5.53067e-07 -6.36991e-06 0 -6.42017e-07 -6.75804e-06 0 -7.41465e-07 -7.19814e-06 0 -8.53587e-07 -7.69671e-06 0 -9.80934e-07 -8.25051e-06 0 -1.1266e-06 -8.87294e-06 0 -1.29443e-06 -9.56358e-06 0 -1.48901e-06 -1.03242e-05 0 -1.71604e-06 -1.11751e-05 0 -1.98253e-06 -1.21074e-05 0 -2.29687e-06 -1.31347e-05 0 -2.66968e-06 -1.42687e-05 0 -3.11355e-06 -1.55039e-05 0 -3.64379e-06 -1.68646e-05 0 -4.27934e-06 -1.83468e-05 0 -5.04226e-06 -1.99551e-05 0 -5.95977e-06 -2.17009e-05 0 -7.06434e-06 -2.35838e-05 0 -8.39537e-06 -2.56033e-05 0 -1.0001e-05 -2.77538e-05 0 -1.19403e-05 -3.00204e-05 0 -1.42858e-05 -3.23743e-05 0 -1.71245e-05 -3.47625e-05 0 2.86704e-20 -4.7434e-06 0 -8.73674e-08 -4.7634e-06 0 -1.75712e-07 -4.81646e-06 0 -2.66007e-07 -4.90541e-06 0 -3.59305e-07 -5.03322e-06 0 -4.56691e-07 -5.19597e-06 0 -5.59341e-07 -5.40013e-06 0 -6.68581e-07 -5.64435e-06 0 -7.85841e-07 -5.92796e-06 0 -9.12778e-07 -6.2614e-06 0 -1.05129e-06 -6.63845e-06 0 -1.20352e-06 -7.06532e-06 0 -1.37206e-06 -7.54797e-06 0 -1.55991e-06 -8.08304e-06 0 -1.77058e-06 -8.68282e-06 0 -2.0084e-06 -9.34645e-06 0 -2.27835e-06 -1.00751e-05 0 -2.58658e-06 -1.08868e-05 0 -2.94042e-06 -1.17725e-05 0 -3.34849e-06 -1.27438e-05 0 -3.82149e-06 -1.38097e-05 0 -4.37186e-06 -1.4964e-05 0 -5.01446e-06 -1.62258e-05 0 -5.76737e-06 -1.75897e-05 0 -6.65128e-06 -1.90566e-05 0 -7.69129e-06 -2.0632e-05 0 -8.91671e-06 -2.23108e-05 0 -1.03622e-05 -2.40855e-05 0 -1.20685e-05 -2.59424e-05 0 -1.4083e-05 -2.78573e-05 0 -1.64597e-05 -2.97914e-05 0 -1.92565e-05 -3.16842e-05 0 0 -4.63866e-06 0 -1.22394e-07 -4.65805e-06 0 -2.46025e-07 -4.70947e-06 0 -3.7212e-07 -4.79564e-06 0 -5.01999e-07 -4.91942e-06 0 -6.37015e-07 -5.07695e-06 0 -7.78613e-07 -5.27443e-06 0 -9.28409e-07 -5.51047e-06 0 -1.08812e-06 -5.78434e-06 0 -1.2597e-06 -6.10588e-06 0 -1.44536e-06 -6.46902e-06 0 -1.64755e-06 -6.87946e-06 0 -1.8692e-06 -7.3426e-06 0 -2.11361e-06 -7.85499e-06 0 -2.38461e-06 -8.42779e-06 0 -2.6868e-06 -9.05973e-06 0 -3.02542e-06 -9.75145e-06 0 -3.40678e-06 -1.05187e-05 0 -3.83828e-06 -1.13525e-05 0 -4.32847e-06 -1.22623e-05 0 -4.88778e-06 -1.32549e-05 0 -5.5281e-06 -1.43236e-05 0 -6.26341e-06 -1.54829e-05 0 -7.11039e-06 -1.6726e-05 0 -8.08776e-06 -1.80511e-05 0 -9.21778e-06 -1.94589e-05 0 -1.05257e-05 -2.09406e-05 0 -1.20405e-05 -2.24841e-05 0 -1.37947e-05 -2.40706e-05 0 -1.58241e-05 -2.56713e-05 0 -1.81659e-05 -2.72446e-05 0 -2.08558e-05 -2.87318e-05 0 0 -4.49949e-06 0 -1.56266e-07 -4.51812e-06 0 -3.14007e-07 -4.56753e-06 0 -4.74686e-07 -4.65031e-06 0 -6.39865e-07 -4.76917e-06 0 -8.11138e-07 -4.92037e-06 0 -9.90197e-07 -5.10976e-06 0 -1.17891e-06 -5.33595e-06 0 -1.37924e-06 -5.59814e-06 0 -1.59341e-06 -5.90556e-06 0 -1.82387e-06 -6.25227e-06 0 -2.07335e-06 -6.6435e-06 0 -2.345e-06 -7.08404e-06 0 -2.64235e-06 -7.57043e-06 0 -2.96945e-06 -8.11265e-06 0 -3.33106e-06 -8.70911e-06 0 -3.7325e-06 -9.35996e-06 0 -4.1801e-06 -1.00788e-05 0 -4.68115e-06 -1.08568e-05 0 -5.24393e-06 -1.17015e-05 0 -5.87835e-06 -1.26178e-05 0 -6.59553e-06 -1.35986e-05 0 -7.40827e-06 -1.46545e-05 0 -8.33158e-06 -1.57776e-05 0 -9.38192e-06 -1.69642e-05 0 -1.05784e-05 -1.82113e-05 0 -1.19419e-05 -1.95076e-05 0 -1.34958e-05 -2.08384e-05 0 -1.52646e-05 -2.21826e-05 0 -1.72738e-05 -2.35102e-05 0 -1.95471e-05 -2.4781e-05 0 -2.21039e-05 -2.59424e-05 0 0 -4.3272e-06 0 -1.88706e-07 -4.34495e-06 0 -3.79103e-07 -4.39201e-06 0 -5.72865e-07 -4.47084e-06 0 -7.71775e-07 -4.58398e-06 0 -9.77639e-07 -4.72782e-06 0 -1.19237e-06 -4.90787e-06 0 -1.41804e-06 -5.12272e-06 0 -1.65685e-06 -5.37153e-06 0 -1.9112e-06 -5.66285e-06 0 -2.18379e-06 -5.99096e-06 0 -2.4775e-06 -6.36056e-06 0 -2.79568e-06 -6.77592e-06 0 -3.142e-06 -7.23353e-06 0 -3.5206e-06 -7.74227e-06 0 -3.93632e-06 -8.30029e-06 0 -4.39445e-06 -8.90728e-06 0 -4.90119e-06 -9.57483e-06 0 -5.46355e-06 -1.02945e-05 0 -6.08939e-06 -1.1072e-05 0 -6.78792e-06 -1.19106e-05 0 -7.5693e-06 -1.28032e-05 0 -8.44501e-06 -1.37568e-05 0 -9.42817e-06 -1.47633e-05 0 -1.05329e-05 -1.58173e-05 0 -1.1775e-05 -1.69132e-05 0 -1.31713e-05 -1.80388e-05 0 -1.47397e-05 -1.91779e-05 0 -1.64978e-05 -2.0309e-05 0 -1.84626e-05 -2.14034e-05 0 -2.06477e-05 -2.24246e-05 0 -2.3061e-05 -2.33274e-05 0 0 -4.12339e-06 0 -2.19359e-07 -4.14014e-06 0 -4.40599e-07 -4.18456e-06 0 -6.65582e-07 -4.25893e-06 0 -8.96283e-07 -4.36563e-06 0 -1.1347e-06 -4.50122e-06 0 -1.38291e-06 -4.67081e-06 0 -1.6432e-06 -4.87302e-06 0 -1.9179e-06 -5.10694e-06 0 -2.20963e-06 -5.38047e-06 0 -2.52121e-06 -5.68813e-06 0 -2.85565e-06 -6.03412e-06 0 -3.21642e-06 -6.42214e-06 0 -3.60727e-06 -6.84877e-06 0 -4.03235e-06 -7.32177e-06 0 -4.49645e-06 -7.83912e-06 0 -5.00473e-06 -8.40016e-06 0 -5.56316e-06 -9.01463e-06 0 -6.17836e-06 -9.67449e-06 0 -6.85762e-06 -1.03841e-05 0 -7.60935e-06 -1.11451e-05 0 -8.44263e-06 -1.19506e-05 0 -9.36751e-06 -1.28049e-05 0 -1.03952e-05 -1.36997e-05 0 -1.15375e-05 -1.46288e-05 0 -1.28072e-05 -1.5585e-05 0 -1.42172e-05 -1.65556e-05 0 -1.57807e-05 -1.75244e-05 0 -1.75099e-05 -1.84708e-05 0 -1.94151e-05 -1.93685e-05 0 -2.15027e-05 -2.01855e-05 0 -2.37736e-05 -2.0884e-05 0 0 -3.88981e-06 0 -2.48283e-07 -3.90547e-06 0 -4.98619e-07 -3.94697e-06 0 -7.53031e-07 -4.01644e-06 0 -1.01367e-06 -4.11607e-06 0 -1.28268e-06 -4.24262e-06 0 -1.56231e-06 -4.40079e-06 0 -1.855e-06 -4.5892e-06 0 -2.16324e-06 -4.80698e-06 0 -2.48974e-06 -5.06129e-06 0 -2.83746e-06 -5.34694e-06 0 -3.2095e-06 -5.66766e-06 0 -3.60939e-06 -6.02664e-06 0 -4.04088e-06 -6.42054e-06 0 -4.5081e-06 -6.85612e-06 0 -5.01572e-06 -7.33122e-06 0 -5.56872e-06 -7.84494e-06 0 -6.17272e-06 -8.40535e-06 0 -6.83392e-06 -9.0049e-06 0 -7.55897e-06 -9.64667e-06 0 -8.35543e-06 -1.03313e-05 0 -9.23126e-06 -1.10521e-05 0 -1.01951e-05 -1.18112e-05 0 -1.12563e-05 -1.26006e-05 0 -1.24245e-05 -1.34135e-05 0 -1.37095e-05 -1.42418e-05 0 -1.51211e-05 -1.50733e-05 0 -1.66684e-05 -1.58925e-05 0 -1.8359e-05 -1.66802e-05 0 -2.01982e-05 -1.74133e-05 0 -2.21874e-05 -1.80643e-05 0 -2.43227e-05 -1.8602e-05 0 0 -3.6284e-06 0 -2.75072e-07 -3.64286e-06 0 -5.52342e-07 -3.68122e-06 0 -8.33978e-07 -3.74541e-06 0 -1.12227e-06 -3.83742e-06 0 -1.41951e-06 -3.95424e-06 0 -1.72807e-06 -4.10014e-06 0 -2.05051e-06 -4.27381e-06 0 -2.38943e-06 -4.47436e-06 0 -2.74765e-06 -4.70824e-06 0 -3.12819e-06 -4.97062e-06 0 -3.53421e-06 -5.26475e-06 0 -3.96925e-06 -5.59334e-06 0 -4.43702e-06 -5.95321e-06 0 -4.94157e-06 -6.35016e-06 0 -5.48741e-06 -6.78199e-06 0 -6.07926e-06 -7.24762e-06 0 -6.72239e-06 -7.75364e-06 0 -7.42249e-06 -8.29308e-06 0 -8.18555e-06 -8.86801e-06 0 -9.01827e-06 -9.47822e-06 0 -9.92752e-06 -1.01174e-05 0 -1.09206e-05 -1.07862e-05 0 -1.20051e-05 -1.14768e-05 0 -1.31887e-05 -1.21825e-05 0 -1.44787e-05 -1.2895e-05 0 -1.58822e-05 -1.36026e-05 0 -1.7405e-05 -1.42911e-05 0 -1.90513e-05 -1.49435e-05 0 -2.08226e-05 -1.55395e-05 0 -2.27172e-05 -1.60561e-05 0 -2.47282e-05 -1.64678e-05 0 0 -3.34129e-06 0 -2.99681e-07 -3.35449e-06 0 -6.01686e-07 -3.3895e-06 0 -9.08303e-07 -3.44807e-06 0 -1.22194e-06 -3.532e-06 0 -1.54501e-06 -3.6385e-06 0 -1.88e-06 -3.77144e-06 0 -2.22955e-06 -3.92955e-06 0 -2.59636e-06 -4.11197e-06 0 -2.98331e-06 -4.32446e-06 0 -3.39346e-06 -4.56255e-06 0 -3.83e-06 -4.82905e-06 0 -4.29644e-06 -5.12625e-06 0 -4.79644e-06 -5.45116e-06 0 -5.33391e-06 -5.80869e-06 0 -5.91316e-06 -6.19669e-06 0 -6.53865e-06 -6.61394e-06 0 -7.21526e-06 -7.06579e-06 0 -7.94816e-06 -7.54587e-06 0 -8.7427e-06 -8.05547e-06 0 -9.60473e-06 -8.59377e-06 0 -1.05401e-05 -9.15498e-06 0 -1.15548e-05 -9.73853e-06 0 -1.2655e-05 -1.03372e-05 0 -1.38465e-05 -1.09446e-05 0 -1.51346e-05 -1.15526e-05 0 -1.65241e-05 -1.21504e-05 0 -1.80181e-05 -1.27255e-05 0 -1.96182e-05 -1.32627e-05 0 -2.13235e-05 -1.37448e-05 0 -2.31298e-05 -1.41527e-05 0 -2.50288e-05 -1.44656e-05 0 0 -3.03069e-06 0 -3.2216e-07 -3.04257e-06 0 -6.46752e-07 -3.07405e-06 0 -9.76166e-07 -3.12673e-06 0 -1.31292e-06 -3.20217e-06 0 -1.65951e-06 -3.29787e-06 0 -2.01851e-06 -3.41725e-06 0 -2.39266e-06 -3.55913e-06 0 -2.78469e-06 -3.7227e-06 0 -3.19756e-06 -3.913e-06 0 -3.63434e-06 -4.12601e-06 0 -4.09821e-06 -4.3641e-06 0 -4.59264e-06 -4.62917e-06 0 -5.1212e-06 -4.91847e-06 0 -5.68767e-06 -5.23613e-06 0 -6.29614e-06 -5.58007e-06 0 -6.95078e-06 -5.94904e-06 0 -7.65608e-06 -6.3473e-06 0 -8.41672e-06 -6.76914e-06 0 -9.23743e-06 -7.21524e-06 0 -1.01232e-05 -7.68441e-06 0 -1.1079e-05 -8.17143e-06 0 -1.21098e-05 -8.67494e-06 0 -1.32202e-05 -9.1885e-06 0 -1.44144e-05 -9.70605e-06 0 -1.56963e-05 -1.022e-05 0 -1.70684e-05 -1.07207e-05 0 -1.85321e-05 -1.11973e-05 0 -2.00869e-05 -1.16365e-05 0 -2.17298e-05 -1.20241e-05 0 -2.34553e-05 -1.23443e-05 0 -2.52542e-05 -1.25802e-05 0 0 -2.69896e-06 0 -3.41943e-07 -2.70946e-06 0 -6.86405e-07 -2.73729e-06 0 -1.03586e-06 -2.78383e-06 0 -1.39291e-06 -2.85046e-06 0 -1.76012e-06 -2.93495e-06 0 -2.14014e-06 -3.04029e-06 0 -2.53576e-06 -3.1654e-06 0 -2.94977e-06 -3.30953e-06 0 -3.38514e-06 -3.47704e-06 0 -3.84494e-06 -3.66434e-06 0 -4.33233e-06 -3.87344e-06 0 -4.85073e-06 -4.10588e-06 0 -5.40359e-06 -4.35918e-06 0 -5.99456e-06 -4.63676e-06 0 -6.6275e-06 -4.93669e-06 0 -7.30631e-06 -5.25773e-06 0 -8.03511e-06 -5.60322e-06 0 -8.81809e-06 -5.96815e-06 0 -9.65942e-06 -6.35276e-06 0 -1.05634e-05 -6.75566e-06 0 -1.15342e-05 -7.17225e-06 0 -1.25756e-05 -7.60073e-06 0 -1.36913e-05 -8.03543e-06 0 -1.48843e-05 -8.4709e-06 0 -1.61568e-05 -8.90018e-06 0 -1.751e-05 -9.31504e-06 0 -1.89438e-05 -9.70594e-06 0 -2.04561e-05 -1.00619e-05 0 -2.20431e-05 -1.03709e-05 0 -2.36979e-05 -1.06201e-05 0 -2.54111e-05 -1.07962e-05 0 0 -2.3486e-06 0 -3.59397e-07 -2.35767e-06 0 -7.21384e-07 -2.38171e-06 0 -1.08851e-06 -2.42192e-06 0 -1.46343e-06 -2.47948e-06 0 -1.84879e-06 -2.55243e-06 0 -2.24728e-06 -2.64333e-06 0 -2.66173e-06 -2.75124e-06 0 -3.09497e-06 -2.87547e-06 0 -3.54998e-06 -3.01972e-06 0 -4.02983e-06 -3.18086e-06 0 -4.53763e-06 -3.36056e-06 0 -5.07674e-06 -3.56004e-06 0 -5.65051e-06 -3.77714e-06 0 -6.26243e-06 -4.01462e-06 0 -6.91617e-06 -4.27075e-06 0 -7.61536e-06 -4.54437e-06 0 -8.36376e-06 -4.83806e-06 0 -9.16515e-06 -5.1475e-06 0 -1.00232e-05 -5.47265e-06 0 -1.09415e-05 -5.81208e-06 0 -1.19236e-05 -6.16181e-06 0 -1.29724e-05 -6.51989e-06 0 -1.40906e-05 -6.88145e-06 0 -1.52801e-05 -7.24172e-06 0 -1.65422e-05 -7.59461e-06 0 -1.78767e-05 -7.93313e-06 0 -1.92823e-05 -8.24927e-06 0 -2.07561e-05 -8.53392e-06 0 -2.22931e-05 -8.77736e-06 0 -2.38861e-05 -8.96922e-06 0 -2.55254e-05 -9.09889e-06 0 0 -1.98207e-06 0 -3.74311e-07 -1.98968e-06 0 -7.51271e-07 -2.00985e-06 0 -1.13348e-06 -2.04357e-06 0 -1.52365e-06 -2.09183e-06 0 -1.92448e-06 -2.15298e-06 0 -2.33869e-06 -2.22914e-06 0 -2.76915e-06 -2.31951e-06 0 -3.2187e-06 -2.42348e-06 0 -3.69033e-06 -2.54411e-06 0 -4.18709e-06 -2.67877e-06 0 -4.71206e-06 -2.82878e-06 0 -5.26852e-06 -2.99512e-06 0 -5.85973e-06 -3.17593e-06 0 -6.48905e-06 -3.37342e-06 0 -7.15994e-06 -3.58608e-06 0 -7.87579e-06 -3.81287e-06 0 -8.64007e-06 -4.05574e-06 0 -9.45618e-06 -4.3111e-06 0 -1.03273e-05 -4.57873e-06 0 -1.12567e-05 -4.85726e-06 0 -1.22469e-05 -5.14339e-06 0 -1.33005e-05 -5.43521e-06 0 -1.44192e-05 -5.72866e-06 0 -1.56042e-05 -6.01973e-06 0 -1.68557e-05 -6.30325e-06 0 -1.81727e-05 -6.57349e-06 0 -1.95532e-05 -6.82391e-06 0 -2.09933e-05 -7.04716e-06 0 -2.24874e-05 -7.23548e-06 0 -2.4028e-05 -7.38072e-06 0 -2.56055e-05 -7.47461e-06 0 0 -1.60202e-06 0 -3.86436e-07 -1.60815e-06 0 -7.75565e-07 -1.62436e-06 0 -1.17003e-06 -1.65148e-06 0 -1.57258e-06 -1.69027e-06 0 -1.98595e-06 -1.73942e-06 0 -2.4129e-06 -1.80061e-06 0 -2.8563e-06 -1.87317e-06 0 -3.31902e-06 -1.95662e-06 0 -3.80404e-06 -2.05338e-06 0 -4.31438e-06 -2.16132e-06 0 -4.85311e-06 -2.28147e-06 0 -5.42342e-06 -2.41456e-06 0 -6.0285e-06 -2.5591e-06 0 -6.67157e-06 -2.71676e-06 0 -7.35595e-06 -2.88631e-06 0 -8.08481e-06 -3.06688e-06 0 -8.86137e-06 -3.25988e-06 0 -9.68872e-06 -3.46244e-06 0 -1.05697e-05 -3.67428e-06 0 -1.1507e-05 -3.8942e-06 0 -1.2503e-05 -4.11956e-06 0 -1.35593e-05 -4.34864e-06 0 -1.46773e-05 -4.57823e-06 0 -1.58575e-05 -4.80509e-06 0 -1.70993e-05 -5.02504e-06 0 -1.84012e-05 -5.23357e-06 0 -1.97604e-05 -5.42553e-06 0 -2.11726e-05 -5.59521e-06 0 -2.26318e-05 -5.73664e-06 0 -2.41304e-05 -5.8436e-06 0 -2.56586e-05 -5.90982e-06 0 0 -1.2111e-06 0 -3.96086e-07 -1.21571e-06 0 -7.94899e-07 -1.22792e-06 0 -1.19911e-06 -1.24833e-06 0 -1.61151e-06 -1.27753e-06 0 -2.03485e-06 -1.31452e-06 0 -2.4719e-06 -1.36055e-06 0 -2.92558e-06 -1.41513e-06 0 -3.39873e-06 -1.47787e-06 0 -3.89433e-06 -1.55057e-06 0 -4.4154e-06 -1.63163e-06 0 -4.96496e-06 -1.72181e-06 0 -5.54616e-06 -1.82163e-06 0 -6.1621e-06 -1.92994e-06 0 -6.81591e-06 -2.04797e-06 0 -7.51077e-06 -2.17477e-06 0 -8.24968e-06 -2.30965e-06 0 -9.03567e-06 -2.45362e-06 0 -9.87156e-06 -2.60449e-06 0 -1.07599e-05 -2.76202e-06 0 -1.17031e-05 -2.92523e-06 0 -1.2703e-05 -3.09215e-06 0 -1.3761e-05 -3.26139e-06 0 -1.48779e-05 -3.43055e-06 0 -1.60535e-05 -3.5972e-06 0 -1.72871e-05 -3.75818e-06 0 -1.85765e-05 -3.91015e-06 0 -1.99184e-05 -4.04931e-06 0 -2.13082e-05 -4.17147e-06 0 -2.27396e-05 -4.27229e-06 0 -2.4205e-05 -4.34728e-06 0 -2.56946e-05 -4.39194e-06 0 0 -8.11953e-07 0 -4.02879e-07 -8.15034e-07 0 -8.08508e-07 -8.23197e-07 0 -1.21958e-06 -8.36841e-07 0 -1.6389e-06 -8.56357e-07 0 -2.06925e-06 -8.81072e-07 0 -2.5134e-06 -9.11827e-07 0 -2.97428e-06 -9.48279e-07 0 -3.45474e-06 -9.90175e-07 0 -3.95775e-06 -1.0387e-06 0 -4.48632e-06 -1.09279e-06 0 -5.04344e-06 -1.15293e-06 0 -5.63222e-06 -1.21947e-06 0 -6.2557e-06 -1.29163e-06 0 -6.91694e-06 -1.3702e-06 0 -7.61902e-06 -1.45455e-06 0 -8.36484e-06 -1.54421e-06 0 -9.15725e-06 -1.6398e-06 0 -9.99892e-06 -1.73988e-06 0 -1.08922e-05 -1.84424e-06 0 -1.18392e-05 -1.95221e-06 0 -1.28416e-05 -2.06248e-06 0 -1.39004e-05 -2.17408e-06 0 -1.50161e-05 -2.28542e-06 0 -1.61883e-05 -2.39486e-06 0 -1.74157e-05 -2.5003e-06 0 -1.8696e-05 -2.59953e-06 0 -2.00255e-05 -2.69005e-06 0 -2.13995e-05 -2.76911e-06 0 -2.28114e-05 -2.83388e-06 0 -2.42535e-05 -2.88145e-06 0 -2.57163e-05 -2.90892e-06 0 0 -4.07358e-07 0 -4.06961e-07 -4.08901e-07 0 -8.16684e-07 -4.12989e-07 0 -1.23188e-06 -4.19821e-07 0 -1.65536e-06 -4.29594e-07 0 -2.08991e-06 -4.41969e-07 0 -2.53832e-06 -4.57365e-07 0 -3.00352e-06 -4.75612e-07 0 -3.48836e-06 -4.9658e-07 0 -3.99581e-06 -5.20862e-07 0 -4.52887e-06 -5.47919e-07 0 -5.0905e-06 -5.77996e-07 0 -5.68379e-06 -6.11259e-07 0 -6.31177e-06 -6.47322e-07 0 -6.97743e-06 -6.86574e-07 0 -7.68379e-06 -7.2869e-07 0 -8.43368e-06 -7.73436e-07 0 -9.22988e-06 -8.2111e-07 0 -1.00749e-05 -8.70994e-07 0 -1.09711e-05 -9.22973e-07 0 -1.19203e-05 -9.76707e-07 0 -1.2924e-05 -1.03153e-06 0 -1.39832e-05 -1.08696e-06 0 -1.5098e-05 -1.14219e-06 0 -1.6268e-05 -1.19641e-06 0 -1.74916e-05 -1.24856e-06 0 -1.87663e-05 -1.29755e-06 0 -2.00884e-05 -1.34213e-06 0 -2.14527e-05 -1.38095e-06 0 -2.2853e-05 -1.41261e-06 0 -2.42812e-05 -1.43567e-06 0 -2.57281e-05 -1.44871e-06 0 0 -0 0 -4.08505e-07 -3.21818e-21 0 -8.19777e-07 -0 0 -1.23653e-06 1.36042e-20 0 -1.66158e-06 -0 0 -2.09772e-06 -0 0 -2.54774e-06 8.30523e-21 0 -3.01458e-06 -1.02365e-20 0 -3.50107e-06 -0 0 -4.01019e-06 -0 0 -4.54494e-06 4.383e-20 0 -5.10828e-06 -9.01992e-21 0 -5.70328e-06 -7.20431e-20 0 -6.33295e-06 -8.60183e-21 0 -7.00027e-06 -0 0 -7.70824e-06 -0 0 -8.45966e-06 1.04563e-19 0 -9.25727e-06 -0 0 -1.01036e-05 -0 0 -1.10008e-05 -0 0 -1.19508e-05 -7.95387e-20 0 -1.2955e-05 -1.58368e-20 0 -1.40143e-05 -0 0 -1.51288e-05 -0 0 -1.6298e-05 -0 0 -1.75201e-05 -0 0 -1.87927e-05 4.13513e-19 0 -2.01119e-05 -0 0 -2.14726e-05 -1.62744e-18 0 -2.28684e-05 -0 0 -2.42914e-05 -4.75116e-19 0 -2.57322e-05 -0 0 </DataArray> 
</PointData> 
<Points> 
<DataArray type="Float32" NumberOfComponents="3"> 