<?xml version="1.0"?> 
<VTKFile type="StructuredGrid" version="0.1"> 
<StructuredGrid WholeExtent="0 31 0 31 0 0"> 
<Piece Extent="0 31 0 31 0 0"> 
<PointData>
<DataArray type="Float32" Name="B" format="ascii" NumberOfComponents="3"> 
3.51694e-05 -0 0 3.32977e-05 -0 0 3.14407e-05 -0 0 2.96108e-05 -0 0 2.78184e-05 -0 0 2.60722e-05 -0 0 2.43795e-05 -0 0 2.27458e-05 -0 0 2.11752e-05 -0 0 1.96706e-05 -0 0 1.82336e-05 -0 0 1.68646e-05 -0 0 1.55633e-05 -0 0 1.43285e-05 -0 0 1.31585e-05 -0 0 1.20509e-05 -0 0 1.10029e-05 -0 0 1.00114e-05 -0 0 9.07316e-06 -0 0 8.18446e-06 -0 0 7.34165e-06 -0 0 6.54098e-06 -0 0 5.77851e-06 -0 0 5.05044e-06 -0 0 4.35287e-06 -0 0 3.68187e-06 -0 0 3.03365e-06 -0 0 2.40431e-06 -0 0 1.79005e-06 -0 0 1.18712e-06 -0 0 5.91671e-07 -0 0 0 -0 0 3.51686e-05 1.87781e-06 0 3.32891e-05 1.86922e-06 0 3.14254e-05 1.84766e-06 0 2.95895e-05 1.8148e-06 0 2.77922e-05 1.7723e-06 0 2.6042e-05 1.72182e-06 0 2.43461e-05 1.66502e-06 0 2.27101e-05 1.60341e-06 0 2.1138e-05 1.53835e-06 0 1.96326e-05 1.47121e-06 0 1.81952e-05 1.40306e-06 0 1.68264e-05 1.33487e-06 0 1.55258e-05 1.26745e-06 0 1.42921e-05 1.20161e-06 0 1.31234e-05 1.1379e-06 0 1.20173e-05 1.07657e-06 0 1.09711e-05 1.01855e-06 0 9.98153e-06 9.63588e-07 0 9.04527e-06 9.12055e-07 0 8.15865e-06 8.64416e-07 0 7.31798e-06 8.20261e-07 0 6.51948e-06 7.80131e-07 0 5.7592e-06 7.43872e-07 0 5.03331e-06 7.11211e-07 0 4.33792e-06 6.82897e-07 0 3.66909e-06 6.58188e-07 0 3.02303e-06 6.37284e-07 0 2.39583e-06 6.20444e-07 0 1.78371e-06 6.07123e-07 0 1.1829e-06 5.97797e-07 0 5.89562e-07 5.92213e-07 0 2.80531e-21 5.90104e-07 0 3.51658e-05 3.77026e-06 0 3.32657e-05 3.75151e-06 0 3.13839e-05 3.70674e-06 0 2.95324e-05 3.63929e-06 0 2.7722e-05 3.5526e-06 0 2.59613e-05 3.45001e-06 0 2.42572e-05 3.33486e-06 0 2.26151e-05 3.21022e-06 0 2.1039e-05 3.07882e-06 0 1.95313e-05 2.94341e-06 0 1.80932e-05 2.80612e-06 0 1.67251e-05 2.6689e-06 0 1.54263e-05 2.53333e-06 0 1.41954e-05 2.40107e-06 0 1.30302e-05 2.27317e-06 0 1.19284e-05 2.15013e-06 0 1.08868e-05 2.03379e-06 0 9.90232e-06 1.92365e-06 0 8.9714e-06 1.82042e-06 0 8.09033e-06 1.72504e-06 0 7.25533e-06 1.63666e-06 0 6.46257e-06 1.55636e-06 0 5.70807e-06 1.48382e-06 0 4.98798e-06 1.41851e-06 0 4.29836e-06 1.36189e-06 0 3.63528e-06 1.3125e-06 0 2.99494e-06 1.27071e-06 0 2.37341e-06 1.23706e-06 0 1.76693e-06 1.21044e-06 0 1.17173e-06 1.1918e-06 0 5.83982e-07 1.18064e-06 0 3.67518e-21 1.17643e-06 0 3.51585e-05 5.69183e-06 0 3.3224e-05 5.65976e-06 0 3.13118e-05 5.5884e-06 0 2.94344e-05 5.48294e-06 0 2.76023e-05 5.34864e-06 0 2.5824e-05 5.19068e-06 0 2.41064e-05 5.01412e-06 0 2.24545e-05 4.82364e-06 0 2.08719e-05 4.62336e-06 0 1.93606e-05 4.41744e-06 0 1.79217e-05 4.20904e-06 0 1.65549e-05 4.00115e-06 0 1.52593e-05 3.79603e-06 0 1.40332e-05 3.59619e-06 0 1.28741e-05 3.40317e-06 0 1.17794e-05 3.21767e-06 0 1.07458e-05 3.04245e-06 0 9.7699e-06 2.8767e-06 0 8.84798e-06 2.72146e-06 0 7.97622e-06 2.57812e-06 0 7.15074e-06 2.44538e-06 0 6.36761e-06 2.32485e-06 0 5.6228e-06 2.21602e-06 0 4.91239e-06 2.11805e-06 0 4.23242e-06 2.03318e-06 0 3.57894e-06 1.95914e-06 0 2.94812e-06 1.89653e-06 0 2.33606e-06 1.84611e-06 0 1.73897e-06 1.80623e-06 0 1.15312e-06 1.77832e-06 0 5.74688e-07 1.76161e-06 0 0 1.7553e-06 0 3.51425e-05 7.65785e-06 0 3.31584e-05 7.6075e-06 0 3.12027e-05 7.5043e-06 0 2.92882e-05 7.35548e-06 0 2.74252e-05 7.16833e-06 0 2.56223e-05 6.94996e-06 0 2.38859e-05 6.70729e-06 0 2.22205e-05 6.44667e-06 0 2.06291e-05 6.17368e-06 0 1.91134e-05 5.89385e-06 0 1.76737e-05 5.6114e-06 0 1.63094e-05 5.33035e-06 0 1.50189e-05 5.05358e-06 0 1.38001e-05 4.78446e-06 0 1.26501e-05 4.52494e-06 0 1.15659e-05 4.27587e-06 0 1.05439e-05 4.04096e-06 0 9.58043e-06 3.81898e-06 0 8.67156e-06 3.61129e-06 0 7.81324e-06 3.41971e-06 0 7.00145e-06 3.24243e-06 0 6.23217e-06 3.08157e-06 0 5.50123e-06 2.93643e-06 0 4.80468e-06 2.80585e-06 0 4.1385e-06 2.69277e-06 0 3.4987e-06 2.59418e-06 0 2.88147e-06 2.51083e-06 0 2.28289e-06 2.44373e-06 0 1.69919e-06 2.39067e-06 0 1.12665e-06 2.35354e-06 0 5.61466e-07 2.33131e-06 0 0 2.32292e-06 0 3.51137e-05 9.68378e-06 0 3.30662e-05 9.60822e-06 0 3.10553e-05 9.46589e-06 0 2.90939e-05 9.26633e-06 0 2.71925e-05 9.01911e-06 0 2.5359e-05 8.73348e-06 0 2.35994e-05 8.41835e-06 0 2.19178e-05 8.0818e-06 0 2.03162e-05 7.73097e-06 0 1.87958e-05 7.37272e-06 0 1.7356e-05 7.01233e-06 0 1.59954e-05 6.65487e-06 0 1.47121e-05 6.30372e-06 0 1.35031e-05 5.9631e-06 0 1.23652e-05 5.63533e-06 0 1.12948e-05 5.32129e-06 0 1.02879e-05 5.02564e-06 0 9.34045e-06 4.74667e-06 0 8.44832e-06 4.48598e-06 0 7.6072e-06 4.24583e-06 0 6.81289e-06 4.0238e-06 0 6.0612e-06 3.82256e-06 0 5.34788e-06 3.64112e-06 0 4.66888e-06 3.47798e-06 0 4.02014e-06 3.33681e-06 0 3.39764e-06 3.21379e-06 0 2.79755e-06 3.10983e-06 0 2.21597e-06 3.02616e-06 0 1.64913e-06 2.96003e-06 0 1.09334e-06 2.91376e-06 0 5.44828e-07 2.88606e-06 0 0 2.87561e-06 0 3.50618e-05 1.17858e-05 0 3.29346e-05 1.16758e-05 0 3.08548e-05 1.14847e-05 0 2.88356e-05 1.12247e-05 0 2.68871e-05 1.09081e-05 0 2.50168e-05 1.05464e-05 0 2.323e-05 1.01507e-05 0 2.15296e-05 9.73091e-06 0 1.99171e-05 9.29579e-06 0 1.83923e-05 8.85351e-06 0 1.69538e-05 8.41038e-06 0 1.55995e-05 7.97254e-06 0 1.43263e-05 7.54369e-06 0 1.31307e-05 7.12891e-06 0 1.20087e-05 6.73077e-06 0 1.09562e-05 6.35011e-06 0 9.96873e-06 5.99254e-06 0 9.04178e-06 5.6557e-06 0 8.17089e-06 5.34143e-06 0 7.35148e-06 5.05235e-06 0 6.57913e-06 4.78541e-06 0 5.84947e-06 4.54373e-06 0 5.15813e-06 4.32605e-06 0 4.50098e-06 4.13048e-06 0 3.8739e-06 3.9614e-06 0 3.27284e-06 3.81412e-06 0 2.69397e-06 3.68974e-06 0 2.13339e-06 3.58968e-06 0 1.58737e-06 3.51062e-06 0 1.05225e-06 3.45532e-06 0 5.24313e-07 3.42222e-06 0 0 3.40972e-06 0 3.49782e-05 1.39812e-05 0 3.27554e-05 1.38247e-05 0 3.05939e-05 1.35724e-05 0 2.85068e-05 1.32398e-05 0 2.65039e-05 1.2842e-05 0 2.45918e-05 1.23932e-05 0 2.27747e-05 1.19069e-05 0 2.10544e-05 1.1395e-05 0 1.94311e-05 1.08679e-05 0 1.79032e-05 1.03348e-05 0 1.64684e-05 9.80327e-06 0 1.51233e-05 9.2804e-06 0 1.38637e-05 8.76999e-06 0 1.26854e-05 8.278e-06 0 1.15836e-05 7.80714e-06 0 1.05533e-05 7.35804e-06 0 9.58974e-06 6.93726e-06 0 8.68776e-06 6.54163e-06 0 7.84259e-06 6.17319e-06 0 7.04931e-06 5.83487e-06 0 6.30324e-06 5.52289e-06 0 5.59987e-06 5.24081e-06 0 4.93466e-06 4.98703e-06 0 4.30342e-06 4.75925e-06 0 3.70195e-06 4.5625e-06 0 3.12619e-06 4.39124e-06 0 2.57232e-06 4.24669e-06 0 2.03645e-06 4.13048e-06 0 1.51489e-06 4.03868e-06 0 1.00405e-06 3.97449e-06 0 5.00244e-07 3.93608e-06 0 3.14266e-20 3.92158e-06 0 3.48532e-05 1.62878e-05 0 3.25193e-05 1.60695e-05 0 3.02638e-05 1.57405e-05 0 2.80998e-05 1.53199e-05 0 2.60362e-05 1.48265e-05 0 2.40785e-05 1.42774e-05 0 2.22294e-05 1.36886e-05 0 2.04892e-05 1.3074e-05 0 1.88563e-05 1.24458e-05 0 1.73278e-05 1.18143e-05 0 1.58997e-05 1.11879e-05 0 1.45674e-05 1.05747e-05 0 1.33256e-05 9.9785e-06 0 1.2169e-05 9.406e-06 0 1.10918e-05 8.85989e-06 0 1.00885e-05 8.34041e-06 0 9.15338e-06 7.85512e-06 0 8.28096e-06 7.39983e-06 0 7.46597e-06 6.9767e-06 0 6.70319e-06 6.58893e-06 0 5.98767e-06 6.23189e-06 0 5.3147e-06 5.90957e-06 0 4.67962e-06 5.61996e-06 0 4.07814e-06 5.36028e-06 0 3.50603e-06 5.13623e-06 0 2.95921e-06 4.94135e-06 0 2.43387e-06 4.77698e-06 0 1.92617e-06 4.64492e-06 0 1.43248e-06 4.54064e-06 0 9.49242e-07 4.46774e-06 0 4.72886e-07 4.42414e-06 0 0 4.40767e-06 0 3.46587e-05 1.87249e-05 0 3.21943e-05 1.84254e-05 0 2.98305e-05 1.8e-05 0 2.75796e-05 1.74727e-05 0 2.54494e-05 1.68662e-05 0 2.34433e-05 1.6201e-05 0 2.1562e-05 1.54957e-05 0 1.98036e-05 1.47664e-05 0 1.81645e-05 1.40268e-05 0 1.66398e-05 1.32882e-05 0 1.52238e-05 1.25597e-05 0 1.39102e-05 1.18507e-05 0 1.26924e-05 1.11641e-05 0 1.15638e-05 1.05076e-05 0 1.05176e-05 9.88366e-06 0 9.5474e-06 9.29193e-06 0 8.64693e-06 8.74092e-06 0 7.81002e-06 8.22521e-06 0 7.031e-06 7.74701e-06 0 6.30426e-06 7.30974e-06 0 5.62461e-06 6.9078e-06 0 4.98714e-06 6.54556e-06 0 4.38708e-06 6.22054e-06 0 3.82006e-06 5.92945e-06 0 3.28182e-06 5.6786e-06 0 2.76829e-06 5.46059e-06 0 2.2757e-06 5.27685e-06 0 1.80026e-06 5.12932e-06 0 1.33842e-06 5.01289e-06 0 8.86715e-07 4.93153e-06 0 4.41677e-07 4.88286e-06 0 0 4.8645e-06 0 3.4386e-05 2.13127e-05 0 3.17747e-05 2.09072e-05 0 2.92913e-05 2.03613e-05 0 2.69468e-05 1.97045e-05 0 2.47466e-05 1.8964e-05 0 2.26918e-05 1.81643e-05 0 2.07801e-05 1.73265e-05 0 1.9007e-05 1.64688e-05 0 1.73664e-05 1.56063e-05 0 1.58509e-05 1.47512e-05 0 1.44529e-05 1.39131e-05 0 1.31641e-05 1.31022e-05 0 1.19765e-05 1.23206e-05 0 1.08821e-05 1.15767e-05 0 9.87295e-06 1.08724e-05 0 8.94183e-06 1.02067e-05 0 8.08162e-06 9.58893e-06 0 7.28561e-06 9.01228e-06 0 6.54765e-06 8.47889e-06 0 5.8618e-06 7.9923e-06 0 5.2226e-06 7.54586e-06 0 4.62498e-06 7.14424e-06 0 4.06406e-06 6.78445e-06 0 3.5354e-06 6.46262e-06 0 3.03475e-06 6.18563e-06 0 2.55808e-06 5.94513e-06 0 2.10166e-06 5.7426e-06 0 1.66179e-06 5.5801e-06 0 1.23502e-06 5.45192e-06 0 8.18002e-07 5.36238e-06 0 4.07388e-07 5.30884e-06 0 0 5.28864e-06 0 3.40021e-05 2.40719e-05 0 3.12264e-05 2.35293e-05 0 2.86127e-05 2.2833e-05 0 2.61693e-05 2.20193e-05 0 2.38983e-05 2.11206e-05 0 2.1797e-05 2.01651e-05 0 1.98596e-05 1.91768e-05 0 1.80781e-05 1.81756e-05 0 1.64432e-05 1.71781e-05 0 1.49448e-05 1.61965e-05 0 1.35729e-05 1.52408e-05 0 1.23171e-05 1.43221e-05 0 1.11677e-05 1.34408e-05 0 1.01152e-05 1.26062e-05 0 9.15054e-06 1.18194e-05 0 8.26549e-06 1.10782e-05 0 7.4522e-06 1.03931e-05 0 6.70332e-06 9.75529e-06 0 6.01228e-06 9.1669e-06 0 5.37278e-06 8.63151e-06 0 4.77914e-06 8.14125e-06 0 4.22616e-06 7.70108e-06 0 3.70886e-06 7.3074e-06 0 3.22279e-06 6.95573e-06 0 2.76373e-06 6.65347e-06 0 2.32771e-06 6.3913e-06 0 1.91107e-06 6.1707e-06 0 1.51025e-06 5.99384e-06 0 1.12192e-06 5.85441e-06 0 7.42864e-07 5.75705e-06 0 3.69899e-07 5.69886e-06 0 0 5.6769e-06 0 3.34635e-05 2.70239e-05 0 3.05065e-05 2.63049e-05 0 2.7754e-05 2.54217e-05 0 2.52099e-05 2.44184e-05 0 2.28711e-05 2.33332e-05 0 2.07297e-05 2.2198e-05 0 1.87752e-05 2.10393e-05 0 1.69952e-05 1.98785e-05 0 1.53765e-05 1.8733e-05 0 1.3906e-05 1.76147e-05 0 1.25709e-05 1.65335e-05 0 1.13585e-05 1.55012e-05 0 1.02572e-05 1.4516e-05 0 9.25604e-06 1.35879e-05 0 8.3447e-06 1.27168e-05 0 7.51395e-06 1.18993e-05 0 6.75518e-06 1.11465e-05 0 6.06047e-06 1.04479e-05 0 5.42283e-06 9.80514e-06 0 4.83567e-06 9.22188e-06 0 4.29313e-06 8.68888e-06 0 3.78989e-06 8.21134e-06 0 3.32095e-06 7.78497e-06 0 2.88189e-06 7.40463e-06 0 2.46854e-06 7.07821e-06 0 2.07705e-06 6.79537e-06 0 1.70388e-06 6.5576e-06 0 1.34563e-06 6.36713e-06 0 9.9911e-07 6.21704e-06 0 6.6131e-07 6.1123e-06 0 3.29219e-07 6.04971e-06 0 0 6.02609e-06 0 3.27472e-05 3.0189e-05 0 2.95964e-05 2.92439e-05 0 2.67018e-05 2.81295e-05 0 2.40601e-05 2.68985e-05 0 2.16609e-05 2.55947e-05 0 1.94896e-05 2.42535e-05 0 1.75294e-05 2.29033e-05 0 1.57629e-05 2.1566e-05 0 1.41728e-05 2.02595e-05 0 1.27422e-05 1.89944e-05 0 1.14554e-05 1.77802e-05 0 1.02972e-05 1.66291e-05 0 9.2542e-06 1.55364e-05 0 8.31382e-06 1.45126e-05 0 7.46445e-06 1.35562e-05 0 6.69592e-06 1.2662e-05 0 5.9989e-06 1.18421e-05 0 5.36495e-06 1.10835e-05 0 4.7867e-06 1.03876e-05 0 4.25733e-06 9.7579e-06 0 3.77084e-06 9.18371e-06 0 3.32187e-06 8.67036e-06 0 2.90545e-06 8.21285e-06 0 2.51722e-06 7.80532e-06 0 2.15314e-06 7.45611e-06 0 1.80948e-06 7.15384e-06 0 1.48289e-06 6.89998e-06 0 1.17015e-06 6.69678e-06 0 8.68272e-07 6.53677e-06 0 5.74453e-07 6.42515e-06 0 2.85902e-07 6.35846e-06 0 0 6.33331e-06 0 3.17627e-05 3.35841e-05 0 2.84106e-05 3.23511e-05 0 2.53782e-05 3.09525e-05 0 2.26507e-05 2.945e-05 0 2.02072e-05 2.78924e-05 0 1.80239e-05 2.63173e-05 0 1.60769e-05 2.47537e-05 0 1.43426e-05 2.32231e-05 0 1.27991e-05 2.17428e-05 0 1.14253e-05 2.03217e-05 0 1.02026e-05 1.89679e-05 0 9.11338e-06 1.76936e-05 0 8.14204e-06 1.64908e-05 0 7.2746e-06 1.53701e-05 0 6.4982e-06 1.43282e-05 0 5.80181e-06 1.3358e-05 0 5.17544e-06 1.24722e-05 0 4.61022e-06 1.16552e-05 0 4.09852e-06 1.09081e-05 0 3.63334e-06 1.0234e-05 0 3.20867e-06 9.62063e-06 0 2.81918e-06 9.07351e-06 0 2.45998e-06 8.58681e-06 0 2.12687e-06 8.15394e-06 0 1.81597e-06 7.78359e-06 0 1.52378e-06 7.46336e-06 0 1.24715e-06 7.19469e-06 0 9.83092e-07 6.97982e-06 0 7.28886e-07 6.81072e-06 0 4.8196e-07 6.69281e-06 0 2.39786e-07 6.6224e-06 0 0 6.59584e-06 0 3.0457e-05 3.72191e-05 0 2.69079e-05 3.56216e-05 0 2.37534e-05 3.38771e-05 0 2.09615e-05 3.20546e-05 0 1.84972e-05 3.02057e-05 0 1.6326e-05 2.83683e-05 0 1.44153e-05 2.65697e-05 0 1.27352e-05 2.48299e-05 0 1.12585e-05 2.31646e-05 0 9.96031e-06 2.15794e-05 0 8.81884e-06 2.00807e-05 0 7.81398e-06 1.86805e-05 0 6.92819e-06 1.73663e-05 0 6.14608e-06 1.61487e-05 0 5.45366e-06 1.50224e-05 0 4.83916e-06 1.3978e-05 0 4.29207e-06 1.30286e-05 0 3.8032e-06 1.21558e-05 0 3.36475e-06 1.13601e-05 0 2.96972e-06 1.06443e-05 0 2.61214e-06 9.99447e-06 0 2.2868e-06 9.41614e-06 0 1.98902e-06 8.90266e-06 0 1.71479e-06 8.44667e-06 0 1.46049e-06 8.05714e-06 0 1.22288e-06 7.72072e-06 0 9.99087e-07 7.43873e-06 0 7.86406e-07 7.21342e-06 0 5.82401e-07 7.03619e-06 0 3.84793e-07 6.91269e-06 0 1.91351e-07 6.83895e-06 0 0 6.81114e-06 0 2.87618e-05 4.10893e-05 0 2.5037e-05 3.90361e-05 0 2.17905e-05 3.68768e-05 0 1.89669e-05 3.46836e-05 0 1.65141e-05 3.25063e-05 0 1.43852e-05 3.03793e-05 0 1.25387e-05 2.83263e-05 0 1.09381e-05 2.63634e-05 0 9.55115e-06 2.45037e-05 0 8.34918e-06 2.27484e-05 0 7.3074e-06 2.11016e-05 0 6.40329e-06 1.95743e-05 0 5.61759e-06 1.81492e-05 0 4.93356e-06 1.68365e-05 0 4.33632e-06 1.56283e-05 0 3.81347e-06 1.45127e-05 0 3.35416e-06 1.3503e-05 0 2.94903e-06 1.2578e-05 0 2.59029e-06 1.17373e-05 0 2.27102e-06 1.09832e-05 0 1.98543e-06 1.03003e-05 0 1.72856e-06 9.69392e-06 0 1.49599e-06 9.15653e-06 0 1.28402e-06 8.68004e-06 0 1.08934e-06 8.27365e-06 0 9.09043e-07 7.92304e-06 0 7.40576e-07 7.62947e-06 0 5.81574e-07 7.3951e-06 0 4.2993e-07 7.21085e-06 0 2.83691e-07 7.08253e-06 0 1.40966e-07 7.00593e-06 0 0 6.97705e-06 0 2.64733e-05 4.51633e-05 0 2.26335e-05 4.25516e-05 0 1.93579e-05 3.99067e-05 0 1.65612e-05 3.72941e-05 0 1.41721e-05 3.47548e-05 0 1.21314e-05 3.2315e-05 0 1.03895e-05 2.99916e-05 0 8.90412e-06 2.77952e-05 0 7.63862e-06 2.57347e-05 0 6.56081e-06 2.38061e-05 0 5.64329e-06 2.20105e-05 0 4.86146e-06 2.03576e-05 0 4.19455e-06 1.88242e-05 0 3.62482e-06 1.742e-05 0 3.1367e-06 1.61343e-05 0 2.71749e-06 1.49521e-05 0 2.35622e-06 1.3887e-05 0 2.04361e-06 1.29144e-05 0 1.77209e-06 1.20332e-05 0 1.53502e-06 1.12453e-05 0 1.32698e-06 1.05334e-05 0 1.14336e-06 9.90264e-06 0 9.80166e-07 9.34473e-06 0 8.34098e-07 8.85079e-06 0 7.02257e-07 8.43019e-06 0 5.82127e-07 8.06771e-06 0 4.71562e-07 7.7645e-06 0 3.68592e-07 7.52264e-06 0 2.71489e-07 7.33262e-06 0 1.78677e-07 7.20033e-06 0 8.86439e-08 7.1214e-06 0 -3.56396e-20 7.09164e-06 0 2.35693e-05 4.93661e-05 0 1.97071e-05 4.60932e-05 0 1.64825e-05 4.28999e-05 0 1.37789e-05 3.98287e-05 0 1.15082e-05 3.6902e-05 0 9.6016e-06 3.41332e-05 0 8.0035e-06 3.15289e-05 0 6.66721e-06 2.90929e-05 0 5.5527e-06 2.68293e-05 0 4.62485e-06 2.47278e-05 0 3.854e-06 2.27858e-05 0 3.21378e-06 2.10116e-05 0 2.68223e-06 1.93751e-05 0 2.24088e-06 1.78856e-05 0 1.87383e-06 1.65286e-05 0 1.5683e-06 1.52862e-05 0 1.31353e-06 1.41719e-05 0 1.10057e-06 1.31578e-05 0 9.22242e-07 1.22419e-05 0 7.72421e-07 1.14254e-05 0 6.46174e-07 1.06892e-05 0 5.39422e-07 1.00385e-05 0 4.48684e-07 9.46394e-06 0 3.71158e-07 8.95605e-06 0 3.04437e-07 8.52422e-06 0 2.4648e-07 8.15247e-06 0 1.9559e-07 7.84179e-06 0 1.50243e-07 7.59419e-06 0 1.09137e-07 7.39976e-06 0 7.11086e-08 7.26448e-06 0 3.50608e-08 7.18378e-06 0 -2.04039e-20 7.15336e-06 0 1.98791e-05 5.3563e-05 0 1.61472e-05 4.95503e-05 0 1.30887e-05 4.57688e-05 0 1.05653e-05 4.22178e-05 0 8.48076e-06 3.88917e-05 0 6.76337e-06 3.57865e-05 0 5.35553e-06 3.28976e-05 0 4.20846e-06 3.02214e-05 0 3.27978e-06 2.77568e-05 0 2.5321e-06 2.54869e-05 0 1.93391e-06 2.34048e-05 0 1.45742e-06 2.15168e-05 0 1.07989e-06 1.97855e-05 0 7.82534e-07 1.82191e-05 0 5.49504e-07 1.67995e-05 0 3.68402e-07 1.55053e-05 0 2.28982e-07 1.43496e-05 0 1.22957e-07 1.33014e-05 0 4.38408e-08 1.23576e-05 0 -1.37696e-08 1.15186e-05 0 -5.4108e-08 1.07639e-05 0 -8.05806e-08 1.00981e-05 0 -9.6012e-08 9.51136e-06 0 -1.02602e-07 8.99343e-06 0 -1.02178e-07 8.5537e-06 0 -9.62305e-08 8.17553e-06 0 -8.59503e-08 7.85978e-06 0 -7.2359e-08 7.60832e-06 0 -5.62901e-08 7.41099e-06 0 -3.84574e-08 7.27374e-06 0 -1.95052e-08 7.19189e-06 0 0 7.16104e-06 0 1.529e-05 5.75395e-05 0 1.1897e-05 5.27714e-05 0 9.14377e-06 4.84055e-05 0 6.8978e-06 4.43814e-05 0 5.07252e-06 4.06608e-05 0 3.60346e-06 3.72226e-05 0 2.43641e-06 3.40529e-05 0 1.52273e-06 3.11416e-05 0 8.18552e-07 2.84833e-05 0 2.84482e-07 2.6054e-05 0 -1.12614e-07 2.38424e-05 0 -4.01519e-07 2.18522e-05 0 -6.05321e-07 2.0038e-05 0 -7.4258e-07 1.84065e-05 0 -8.28497e-07 1.69354e-05 0 -8.74616e-07 1.55998e-05 0 -8.90182e-07 1.44125e-05 0 -8.82433e-07 1.3339e-05 0 -8.56847e-07 1.23752e-05 0 -8.17831e-07 1.15208e-05 0 -7.68705e-07 1.07539e-05 0 -7.12033e-07 1.00787e-05 0 -6.4984e-07 9.48465e-06 0 -5.83616e-07 8.96097e-06 0 -5.14516e-07 8.51698e-06 0 -4.4341e-07 8.13551e-06 0 -3.70922e-07 7.81727e-06 0 -2.97522e-07 7.56403e-06 0 -2.23535e-07 7.36538e-06 0 -1.49187e-07 7.22729e-06 0 -7.46389e-08 7.14495e-06 0 0 7.11393e-06 0 9.9215e-06 6.10339e-05 0 7.06412e-06 5.55937e-05 0 4.73433e-06 5.07041e-05 0 2.84331e-06 4.62441e-05 0 1.33569e-06 4.21498e-05 0 1.64707e-07 3.83906e-05 0 -7.16675e-07 3.49493e-05 0 -1.35623e-06 3.18132e-05 0 -1.79977e-06 2.89735e-05 0 -2.08906e-06 2.63992e-05 0 -2.25892e-06 2.40736e-05 0 -2.33882e-06 2.19972e-05 0 -2.35163e-06 2.01159e-05 0 -2.31508e-06 1.84341e-05 0 -2.24307e-06 1.69255e-05 0 -2.14575e-06 1.55613e-05 0 -2.03087e-06 1.43537e-05 0 -1.90421e-06 1.32651e-05 0 -1.76995e-06 1.22905e-05 0 -1.63122e-06 1.14287e-05 0 -1.49025e-06 1.06566e-05 0 -1.34861e-06 9.97817e-06 0 -1.20739e-06 9.38217e-06 0 -1.06729e-06 8.8574e-06 0 -9.2872e-07 8.41305e-06 0 -7.91867e-07 8.03161e-06 0 -6.56745e-07 7.71363e-06 0 -5.23233e-07 7.46078e-06 0 -3.91116e-07 7.26253e-06 0 -2.60106e-07 7.12476e-06 0 -1.29857e-07 7.04265e-06 0 0 7.01171e-06 0 3.83709e-06 6.37929e-05 0 1.68171e-06 5.78791e-05 0 -1.39703e-07 5.25823e-05 0 -1.62135e-06 4.77469e-05 0 -2.76275e-06 4.33069e-05 0 -3.58505e-06 3.92412e-05 0 -4.12879e-06 3.55402e-05 0 -4.44435e-06 3.21935e-05 0 -4.58248e-06 2.91902e-05 0 -4.58897e-06 2.6491e-05 0 -4.50059e-06 2.40729e-05 0 -4.34697e-06 2.19314e-05 0 -4.14983e-06 2.00031e-05 0 -3.92501e-06 1.82896e-05 0 -3.68418e-06 1.67602e-05 0 -3.43527e-06 1.53825e-05 0 -3.18389e-06 1.41677e-05 0 -2.93386e-06 1.30756e-05 0 -2.68765e-06 1.21003e-05 0 -2.44687e-06 1.12399e-05 0 -2.21239e-06 1.04703e-05 0 -1.98464e-06 9.79524e-06 0 -1.76367e-06 9.20298e-06 0 -1.54927e-06 8.68209e-06 0 -1.34104e-06 8.2415e-06 0 -1.13844e-06 7.86358e-06 0 -9.40814e-07 7.54877e-06 0 -7.47429e-07 7.29857e-06 0 -5.57498e-07 7.1025e-06 0 -3.70198e-07 6.96628e-06 0 -1.84653e-07 6.88511e-06 0 0 6.85453e-06 0 -2.57983e-06 6.56666e-05 0 -4.01728e-06 5.95706e-05 0 -5.34591e-06 5.40133e-05 0 -6.42254e-06 4.8861e-05 0 -7.17696e-06 4.4092e-05 0 -7.60915e-06 3.97255e-05 0 -7.76416e-06 3.57746e-05 0 -7.70473e-06 3.22351e-05 0 -7.49247e-06 2.90926e-05 0 -7.17948e-06 2.62964e-05 0 -6.8045e-06 2.38143e-05 0 -6.3962e-06 2.16351e-05 0 -5.97372e-06 1.9685e-05 0 -5.54968e-06 1.79623e-05 0 -5.13234e-06 1.64316e-05 0 -4.72653e-06 1.50577e-05 0 -4.33506e-06 1.38504e-05 0 -3.95931e-06 1.27676e-05 0 -3.5997e-06 1.18027e-05 0 -3.25604e-06 1.09531e-05 0 -2.9277e-06 1.01942e-05 0 -2.61383e-06 9.5295e-06 0 -2.31334e-06 8.94699e-06 0 -2.02506e-06 8.43513e-06 0 -1.74773e-06 8.00259e-06 0 -1.48004e-06 7.63182e-06 0 -1.22065e-06 7.32314e-06 0 -9.68182e-07 7.07796e-06 0 -7.21267e-07 6.88587e-06 0 -4.78534e-07 6.75247e-06 0 -2.38567e-07 6.67299e-06 0 0 6.64305e-06 0 -8.92515e-06 6.67119e-05 0 -9.82903e-06 6.07553e-05 0 -1.08087e-05 5.50567e-05 0 -1.15473e-05 4.9597e-05 0 -1.19105e-05 4.44746e-05 0 -1.19047e-05 3.97907e-05 0 -1.16074e-05 3.55946e-05 0 -1.11119e-05 3.18854e-05 0 -1.04988e-05 2.86379e-05 0 -9.82834e-06 2.57827e-05 0 -9.13977e-06 2.3274e-05 0 -8.45839e-06 2.10914e-05 0 -7.79847e-06 1.91501e-05 0 -7.16755e-06 1.74443e-05 0 -6.56904e-06 1.59348e-05 0 -6.00372e-06 1.45838e-05 0 -5.4709e-06 1.34e-05 0 -4.96905e-06 1.23402e-05 0 -4.49626e-06 1.13973e-05 0 -4.05031e-06 1.05684e-05 0 -3.62898e-06 9.82875e-06 0 -3.23003e-06 9.18157e-06 0 -2.85116e-06 8.61494e-06 0 -2.49023e-06 8.1174e-06 0 -2.14508e-06 7.69727e-06 0 -1.81359e-06 7.33733e-06 0 -1.49377e-06 7.03782e-06 0 -1.18355e-06 6.80001e-06 0 -8.80994e-07 6.61376e-06 0 -5.84173e-07 6.48444e-06 0 -2.91132e-07 6.40741e-06 0 0 6.37839e-06 0 -1.47357e-05 6.72798e-05 0 -1.55939e-05 6.17276e-05 0 -1.65506e-05 5.58796e-05 0 -1.70784e-05 4.99937e-05 0 -1.70308e-05 4.44098e-05 0 -1.6499e-05 3.93588e-05 0 -1.56503e-05 3.49214e-05 0 -1.46356e-05 3.10798e-05 0 -1.35615e-05 2.77784e-05 0 -1.24936e-05 2.49173e-05 0 -1.14669e-05 2.24312e-05 0 -1.04982e-05 2.02874e-05 0 -9.59348e-06 1.83908e-05 0 -8.75247e-06 1.67317e-05 0 -7.97207e-06 1.52679e-05 0 -7.24797e-06 1.39605e-05 0 -6.57535e-06 1.28169e-05 0 -5.94938e-06 1.17944e-05 0 -5.3656e-06 1.08855e-05 0 -4.81966e-06 1.00872e-05 0 -4.30762e-06 9.3755e-06 0 -3.82584e-06 8.75314e-06 0 -3.37083e-06 8.20856e-06 0 -2.93941e-06 7.73062e-06 0 -2.52855e-06 7.32726e-06 0 -2.13536e-06 6.98183e-06 0 -1.75712e-06 6.69448e-06 0 -1.39115e-06 6.46641e-06 0 -1.03492e-06 6.28783e-06 0 -6.85957e-07 6.16386e-06 0 -3.41773e-07 6.09002e-06 0 0 6.06221e-06 0 -1.95961e-05 6.81247e-05 0 -2.13245e-05 6.30631e-05 0 -2.27902e-05 5.67501e-05 0 -2.32238e-05 5.00641e-05 0 -2.26449e-05 4.37868e-05 0 -2.14056e-05 3.82959e-05 0 -1.98509e-05 3.36447e-05 0 -1.82116e-05 2.97413e-05 0 -1.66134e-05 2.64661e-05 0 -1.51145e-05 2.36727e-05 0 -1.37342e-05 2.12718e-05 0 -1.24734e-05 1.92168e-05 0 -1.13243e-05 1.74058e-05 0 -1.02766e-05 1.58256e-05 0 -9.31882e-06 1.44333e-05 0 -8.4408e-06 1.31907e-05 0 -7.63319e-06 1.21044e-05 0 -6.88767e-06 1.11333e-05 0 -6.19716e-06 1.02705e-05 0 -5.55517e-06 9.51278e-06 0 -4.9561e-06 8.83737e-06 0 -4.39492e-06 8.24696e-06 0 -3.86696e-06 7.73048e-06 0 -3.36808e-06 7.27732e-06 0 -2.89439e-06 6.895e-06 0 -2.44221e-06 6.56765e-06 0 -2.0082e-06 6.29542e-06 0 -1.58903e-06 6.07939e-06 0 -1.18161e-06 5.91027e-06 0 -7.82946e-07 5.79288e-06 0 -3.90025e-07 5.72297e-06 0 -1.25348e-19 5.69664e-06 0 -2.31636e-05 7.06701e-05 0 -2.74779e-05 6.57693e-05 0 -3.02029e-05 5.79592e-05 0 -3.04284e-05 4.9645e-05 0 -2.89102e-05 4.23251e-05 0 -2.66053e-05 3.637e-05 0 -2.41185e-05 3.16148e-05 0 -2.17354e-05 2.77872e-05 0 -1.95606e-05 2.46606e-05 0 -1.76139e-05 2.20337e-05 0 -1.5881e-05 1.97938e-05 0 -1.43364e-05 1.78838e-05 0 -1.29542e-05 1.62018e-05 0 -1.17109e-05 1.47334e-05 0 -1.05862e-05 1.34383e-05 0 -9.56354e-06 1.22813e-05 0 -8.62912e-06 1.12686e-05 0 -7.77124e-06 1.03627e-05 0 -6.98033e-06 9.55719e-06 0 -6.24792e-06 8.84953e-06 0 -5.56685e-06 8.21855e-06 0 -4.93084e-06 7.66688e-06 0 -4.33412e-06 7.18427e-06 0 -3.77165e-06 6.76084e-06 0 -3.23874e-06 6.40363e-06 0 -2.731e-06 6.09781e-06 0 -2.24445e-06 5.84351e-06 0 -1.7752e-06 5.64174e-06 0 -1.31961e-06 5.4838e-06 0 -8.74173e-07 5.37418e-06 0 -4.35407e-07 5.3089e-06 0 0 5.28431e-06 0 -2.51015e-05 7.78978e-05 0 -3.57418e-05 7.16061e-05 0 -4.04081e-05 5.94405e-05 0 -3.93766e-05 4.80253e-05 0 -3.58903e-05 3.94244e-05 0 -3.1933e-05 3.32316e-05 0 -2.82533e-05 2.86653e-05 0 -2.50376e-05 2.51535e-05 0 -2.22743e-05 2.23479e-05 0 -1.98976e-05 2.00082e-05 0 -1.78389e-05 1.80136e-05 0 -1.60373e-05 1.63059e-05 0 -1.44455e-05 1.47953e-05 0 -1.30267e-05 1.34697e-05 0 -1.17517e-05 1.22955e-05 0 -1.05983e-05 1.1243e-05 0 -9.54856e-06 1.03188e-05 0 -8.58801e-06 9.49036e-06 0 -7.70499e-06 8.75255e-06 0 -6.88934e-06 8.10354e-06 0 -6.13261e-06 7.52441e-06 0 -5.42742e-06 7.01776e-06 0 -4.76704e-06 6.57439e-06 0 -4.14567e-06 6.18529e-06 0 -3.55786e-06 5.857e-06 0 -2.99862e-06 5.57594e-06 0 -2.46338e-06 5.34223e-06 0 -1.9477e-06 5.1568e-06 0 -1.44746e-06 5.01165e-06 0 -9.58691e-07 4.91091e-06 0 -4.77451e-07 4.85092e-06 0 2.83312e-19 4.82833e-06 0 -2.47548e-05 9.82194e-05 0 -5.20936e-05 8.33657e-05 0 -5.65817e-05 5.91228e-05 0 -5.04527e-05 4.32423e-05 0 -4.3135e-05 3.41059e-05 0 -3.68997e-05 2.85082e-05 0 -3.18966e-05 2.46969e-05 0 -2.78805e-05 2.18464e-05 0 -2.46011e-05 1.95669e-05 0 -2.1866e-05 1.76409e-05 0 -1.95413e-05 1.59713e-05 0 -1.75301e-05 1.45167e-05 0 -1.57655e-05 1.32133e-05 0 -1.41997e-05 1.20563e-05 0 -1.27966e-05 1.10224e-05 0 -1.15299e-05 1.00899e-05 0 -1.03792e-05 9.26659e-06 0 -9.3277e-06 8.52614e-06 0 -8.36245e-06 7.86494e-06 0 -7.47205e-06 7.28213e-06 0 -6.64705e-06 6.76141e-06 0 -5.87923e-06 6.30541e-06 0 -5.16111e-06 5.90608e-06 0 -4.48619e-06 5.5555e-06 0 -3.84846e-06 5.25962e-06 0 -3.24233e-06 5.00625e-06 0 -2.66275e-06 4.79555e-06 0 -2.10479e-06 4.62837e-06 0 -1.56389e-06 4.49751e-06 0 -1.03566e-06 4.40668e-06 0 -5.15737e-07 4.3526e-06 0 1.58877e-19 4.33223e-06 0 -1.92383e-05 0.000173419 0 -0.000100165 9.68441e-05 0 -8.0909e-05 4.76983e-05 0 -6.16293e-05 3.19097e-05 0 -4.90486e-05 2.55379e-05 0 -4.05967e-05 2.21362e-05 0 -3.45592e-05 1.98317e-05 0 -2.99988e-05 1.80057e-05 0 -2.63923e-05 1.64342e-05 0 -2.34321e-05 1.50209e-05 0 -2.09347e-05 1.37332e-05 0 -1.87796e-05 1.25652e-05 0 -1.68894e-05 1.14925e-05 0 -1.52112e-05 1.05208e-05 0 -1.37061e-05 9.64036e-06 0 -1.23466e-05 8.83895e-06 0 -1.11109e-05 8.12583e-06 0 -9.98175e-06 7.48149e-06 0 -8.94532e-06 6.90406e-06 0 -7.98962e-06 6.39368e-06 0 -7.10459e-06 5.93691e-06 0 -6.28145e-06 5.53637e-06 0 -5.51213e-06 5.18531e-06 0 -4.78966e-06 4.87691e-06 0 -4.1075e-06 4.61651e-06 0 -3.45962e-06 4.39348e-06 0 -2.84052e-06 4.20797e-06 0 -2.24487e-06 4.06075e-06 0 -1.66771e-06 3.94551e-06 0 -1.10429e-06 3.86553e-06 0 -5.4988e-07 3.8179e-06 0 0 3.79996e-06 0 -0.000543375 0.00358887 0 -0.000188184 9.77912e-06 0 -9.59924e-05 1.09646e-05 0 -6.59719e-05 1.34115e-05 0 -5.10548e-05 1.45611e-05 0 -4.2007e-05 1.48242e-05 0 -3.58106e-05 1.45411e-05 0 -3.11985e-05 1.39334e-05 0 -2.7555e-05 1.31451e-05 0 -2.45483e-05 1.22762e-05 0 -2.19917e-05 1.13846e-05 0 -1.97682e-05 1.0511e-05 0 -1.78044e-05 9.67495e-06 0 -1.60509e-05 8.89426e-06 0 -1.44715e-05 8.17313e-06 0 -1.30403e-05 7.50866e-06 0 -1.17367e-05 6.91149e-06 0 -1.05437e-05 6.36881e-06 0 -9.44773e-06 5.88042e-06 0 -8.43679e-06 5.44732e-06 0 -7.50056e-06 5.05896e-06 0 -6.62993e-06 4.71786e-06 0 -5.81652e-06 4.41858e-06 0 -5.05295e-06 4.1555e-06 0 -4.33234e-06 3.93323e-06 0 -3.64826e-06 3.7428e-06 0 -2.99488e-06 3.58437e-06 0 -2.36652e-06 3.45863e-06 0 -1.75788e-06 3.36018e-06 0 -1.1639e-06 3.29185e-06 0 -5.79532e-07 3.25116e-06 0 0 3.23584e-06 0 </DataArray> 
</PointData> 
<Points> 
<DataArray type="Float32" NumberOfComponents="3"> 