<?xml version="1.0"?> 
<VTKFile type="StructuredGrid" version="0.1"> 
<StructuredGrid WholeExtent="0 31 0 31 0 0"> 
<Piece Extent="0 31 0 31 0 0"> 
<PointData>
<DataArray type="Float32" Name="B" format="ascii" NumberOfComponents="3"> 
0 -0 0 -1.55179e-08 -0 0 -3.14965e-08 -0 0 -4.8395e-08 -0 0 -6.67094e-08 -0 0 -8.6951e-08 -0 0 -1.0967e-07 -0 0 -1.35482e-07 -0 0 -1.65035e-07 -0 0 -1.99067e-07 -0 0 -2.3839e-07 -0 0 -2.83879e-07 -0 0 -3.36541e-07 -0 0 -3.97448e-07 -0 0 -4.67779e-07 -0 0 -5.48842e-07 -0 0 -6.41996e-07 -0 0 -7.48728e-07 -0 0 -8.70585e-07 -0 0 -1.00913e-06 -0 0 -1.16601e-06 -0 0 -1.34279e-06 -0 0 -1.54094e-06 -0 0 -1.76186e-06 -0 0 -2.00666e-06 -0 0 -2.27618e-06 -0 0 -2.57087e-06 -0 0 -2.89069e-06 -0 0 -3.23503e-06 -0 0 -3.60262e-06 -0 0 -3.99146e-06 -0 0 -4.3988e-06 -0 0 -3.6434e-23 1.53279e-08 0 -1.52619e-08 1.55831e-08 0 -3.09791e-08 1.6263e-08 0 -4.76054e-08 1.74129e-08 0 -6.56311e-08 1.90883e-08 0 -8.55622e-08 2.12553e-08 0 -1.07944e-07 2.40331e-08 0 -1.33384e-07 2.74331e-08 0 -1.62529e-07 3.14753e-08 0 -1.96108e-07 3.63732e-08 0 -2.3493e-07 4.20575e-08 0 -2.79866e-07 4.86766e-08 0 -3.31919e-07 5.63806e-08 0 -3.92161e-07 6.51332e-08 0 -4.61767e-07 7.52056e-08 0 -5.42051e-07 8.65932e-08 0 -6.34377e-07 9.93196e-08 0 -7.40238e-07 1.13731e-07 0 -8.61198e-07 1.29604e-07 0 -9.98839e-07 1.47097e-07 0 -1.15482e-06 1.66272e-07 0 -1.33075e-06 1.86893e-07 0 -1.52813e-06 2.09072e-07 0 -1.7484e-06 2.32497e-07 0 -1.99272e-06 2.56911e-07 0 -2.26198e-06 2.82021e-07 0 -2.55668e-06 3.07369e-07 0 -2.87683e-06 3.32425e-07 0 -3.22188e-06 3.56569e-07 0 -3.59058e-06 3.79104e-07 0 -3.98097e-06 3.99276e-07 0 -4.39031e-06 4.16296e-07 0 -4.7174e-23 3.02009e-08 0 -1.45891e-08 3.07058e-08 0 -2.9619e-08 3.20512e-08 0 -4.55294e-08 3.43268e-08 0 -6.27958e-08 3.7643e-08 0 -8.19098e-08 4.19331e-08 0 -1.03402e-07 4.74346e-08 0 -1.27865e-07 5.41706e-08 0 -1.55932e-07 6.21821e-08 0 -1.88318e-07 7.18951e-08 0 -2.25817e-07 8.31732e-08 0 -2.69293e-07 9.63143e-08 0 -3.19737e-07 1.1162e-07 0 -3.78215e-07 1.29021e-07 0 -4.45906e-07 1.49064e-07 0 -5.24124e-07 1.71742e-07 0 -6.14249e-07 1.9711e-07 0 -7.17797e-07 2.25869e-07 0 -8.36364e-07 2.57578e-07 0 -9.71582e-07 2.92563e-07 0 -1.12518e-06 3.30963e-07 0 -1.29882e-06 3.72309e-07 0 -1.49412e-06 4.16847e-07 0 -1.71264e-06 4.63953e-07 0 -1.95564e-06 5.13127e-07 0 -2.22416e-06 5.63786e-07 0 -2.51884e-06 6.15016e-07 0 -2.83984e-06 6.65755e-07 0 -3.18671e-06 7.14746e-07 0 -3.55834e-06 7.60582e-07 0 -3.95283e-06 8.01728e-07 0 -4.36746e-06 8.36574e-07 0 0 4.41841e-08 0 -1.34827e-08 4.4928e-08 0 -2.73821e-08 4.69103e-08 0 -4.21145e-08 5.0264e-08 0 -5.81306e-08 5.51526e-08 0 -7.5898e-08 6.14795e-08 0 -9.59223e-08 6.95973e-08 0 -1.18773e-07 7.95426e-08 0 -1.45056e-07 9.1379e-08 0 -1.75465e-07 1.05742e-07 0 -2.10773e-07 1.22434e-07 0 -2.51821e-07 1.41903e-07 0 -2.99587e-07 1.64606e-07 0 -3.55127e-07 1.90447e-07 0 -4.19614e-07 2.20252e-07 0 -4.94374e-07 2.54027e-07 0 -5.80803e-07 2.91861e-07 0 -6.80454e-07 3.34834e-07 0 -7.94979e-07 3.82294e-07 0 -9.26086e-07 4.34762e-07 0 -1.0756e-06 4.92473e-07 0 -1.24533e-06 5.54739e-07 0 -1.43706e-06 6.2198e-07 0 -1.6525e-06 6.93269e-07 0 -1.89315e-06 7.67876e-07 0 -2.16029e-06 8.44952e-07 0 -2.45479e-06 9.23125e-07 0 -2.77705e-06 1.00079e-06 0 -3.12685e-06 1.07604e-06 0 -3.50327e-06 1.14672e-06 0 -3.90455e-06 1.21045e-06 0 -4.32803e-06 1.26475e-06 0 0 5.68466e-08 0 -1.19411e-08 5.78132e-08 0 -2.4265e-08 6.03893e-08 0 -3.73541e-08 6.47491e-08 0 -5.16244e-08 7.11072e-08 0 -6.75087e-08 7.93403e-08 0 -8.54777e-08 8.99119e-08 0 -1.06064e-07 1.02874e-07 0 -1.29841e-07 1.18316e-07 0 -1.57466e-07 1.37078e-07 0 -1.89677e-07 1.58909e-07 0 -2.27289e-07 1.84408e-07 0 -2.71253e-07 2.14192e-07 0 -3.22607e-07 2.48146e-07 0 -3.82518e-07 2.8739e-07 0 -4.52316e-07 3.31949e-07 0 -5.33421e-07 3.81968e-07 0 -6.27435e-07 4.38932e-07 0 -7.36082e-07 5.01992e-07 0 -8.61173e-07 5.71898e-07 0 -1.00469e-06 6.49024e-07 0 -1.1686e-06 7.32475e-07 0 -1.35493e-06 8.22911e-07 0 -1.56567e-06 9.19119e-07 0 -1.80263e-06 1.02016e-06 0 -2.06743e-06 1.12496e-06 0 -2.3613e-06 1.23169e-06 0 -2.68502e-06 1.3382e-06 0 -3.03873e-06 1.44189e-06 0 -3.42178e-06 1.5398e-06 0 -3.83265e-06 1.62865e-06 0 -4.26878e-06 1.70496e-06 0 0 6.77974e-08 0 -1.00489e-08 6.89654e-08 0 -2.04378e-08 7.20786e-08 0 -3.15073e-08 7.73492e-08 0 -4.3629e-08 8.50402e-08 0 -5.71922e-08 9.50061e-08 0 -7.26232e-08 1.07815e-07 0 -9.04085e-08 1.23539e-07 0 -1.11076e-07 1.42292e-07 0 -1.35237e-07 1.65116e-07 0 -1.63588e-07 1.91713e-07 0 -1.96901e-07 2.22838e-07 0 -2.36093e-07 2.5927e-07 0 -2.82176e-07 3.0089e-07 0 -3.36301e-07 3.4912e-07 0 -3.998e-07 4.04024e-07 0 -4.74115e-07 4.6582e-07 0 -5.60899e-07 5.36437e-07 0 -6.61962e-07 6.14851e-07 0 -7.7924e-07 7.02087e-07 0 -9.14888e-07 7.9871e-07 0 -1.07112e-06 9.03643e-07 0 -1.25022e-06 1.01788e-06 0 -1.45456e-06 1.13994e-06 0 -1.68632e-06 1.26872e-06 0 -1.94761e-06 1.40297e-06 0 -2.24013e-06 1.54042e-06 0 -2.56517e-06 1.67835e-06 0 -2.92334e-06 1.81346e-06 0 -3.31444e-06 1.9419e-06 0 -3.73724e-06 2.05938e-06 0 -4.18938e-06 2.1613e-06 0 0 7.6683e-08 0 -7.80022e-09 7.80257e-08 0 -1.58881e-08 8.16057e-08 0 -2.45527e-08 8.76692e-08 0 -3.41114e-08 9.65236e-08 0 -4.48994e-08 1.08007e-07 0 -5.72874e-08 1.22784e-07 0 -7.1704e-08 1.40949e-07 0 -8.86193e-08 1.62644e-07 0 -1.08587e-07 1.89103e-07 0 -1.32243e-07 2.19995e-07 0 -1.60309e-07 2.56228e-07 0 -1.93648e-07 2.98752e-07 0 -2.33232e-07 3.47454e-07 0 -2.80183e-07 4.04071e-07 0 -3.35825e-07 4.6873e-07 0 -4.01614e-07 5.41743e-07 0 -4.79252e-07 6.25529e-07 0 -5.7064e-07 7.18917e-07 0 -6.77854e-07 8.23264e-07 0 -8.03259e-07 9.39397e-07 0 -9.49338e-07 1.06609e-06 0 -1.11874e-06 1.20478e-06 0 -1.31426e-06 1.35378e-06 0 -1.53863e-06 1.51186e-06 0 -1.79452e-06 1.6777e-06 0 -2.08432e-06 1.84857e-06 0 -2.40998e-06 2.02123e-06 0 -2.77281e-06 2.19161e-06 0 -3.17319e-06 2.35491e-06 0 -3.61042e-06 2.50567e-06 0 -4.08242e-06 2.63796e-06 0 -3.33327e-22 8.31886e-08 0 -5.27144e-09 8.46746e-08 0 -1.07698e-08 8.86376e-08 0 -1.67241e-08 9.53536e-08 0 -2.33883e-08 1.05169e-07 0 -3.10341e-08 1.17912e-07 0 -3.99667e-08 1.34334e-07 0 -5.05446e-08 1.54553e-07 0 -6.31687e-08 1.78745e-07 0 -7.83198e-08 2.08319e-07 0 -9.65621e-08 2.42927e-07 0 -1.18546e-07 2.83629e-07 0 -1.45066e-07 3.31547e-07 0 -1.77038e-07 3.86593e-07 0 -2.15536e-07 4.5083e-07 0 -2.61857e-07 5.24471e-07 0 -3.17458e-07 6.0795e-07 0 -3.84077e-07 7.04226e-07 0 -4.63704e-07 8.12018e-07 0 -5.58558e-07 9.33084e-07 0 -6.71231e-07 1.0686e-06 0 -8.04516e-07 1.21724e-06 0 -9.6147e-07 1.38104e-06 0 -1.14543e-06 1.55814e-06 0 -1.35973e-06 1.74731e-06 0 -1.60783e-06 1.94722e-06 0 -1.89293e-06 2.15479e-06 0 -2.21789e-06 2.36625e-06 0 -2.58492e-06 2.57674e-06 0 -2.99527e-06 2.78039e-06 0 -3.44892e-06 2.97043e-06 0 -3.94429e-06 3.13936e-06 0 0 8.70656e-08 0 -2.53175e-09 8.86588e-08 0 -5.22224e-09 9.29092e-08 0 -8.2332e-09 1.00117e-07 0 -1.1747e-08 1.10662e-07 0 -1.5963e-08 1.24368e-07 0 -2.11112e-08 1.42061e-07 0 -2.74697e-08 1.63886e-07 0 -3.53579e-08 1.90053e-07 0 -4.51701e-08 2.22132e-07 0 -5.73819e-08 2.59772e-07 0 -7.25564e-08 3.04178e-07 0 -9.14018e-08 3.5665e-07 0 -1.14752e-07 4.17138e-07 0 -1.43615e-07 4.88042e-07 0 -1.79235e-07 5.69685e-07 0 -2.23048e-07 6.62656e-07 0 -2.7681e-07 7.70505e-07 0 -3.4258e-07 8.91886e-07 0 -4.22715e-07 1.02904e-06 0 -5.20039e-07 1.18359e-06 0 -6.37675e-07 1.35417e-06 0 -7.79137e-07 1.54362e-06 0 -9.48369e-07 1.74998e-06 0 -1.14946e-06 1.97213e-06 0 -1.38674e-06 2.20892e-06 0 -1.6645e-06 2.45699e-06 0 -1.98671e-06 2.71207e-06 0 -2.35677e-06 2.96854e-06 0 -2.77707e-06 3.21937e-06 0 -3.24862e-06 3.45625e-06 0 -3.77054e-06 3.66981e-06 0 0 8.81229e-08 0 3.82547e-10 8.97833e-08 0 6.82309e-10 9.42142e-08 0 8.12861e-10 1.01734e-07 0 6.72379e-10 1.12748e-07 0 1.43172e-10 1.27083e-07 0 -9.18531e-10 1.45625e-07 0 -2.69692e-09 1.68547e-07 0 -5.4156e-09 1.96093e-07 0 -9.36452e-09 2.29975e-07 0 -1.49102e-08 2.6985e-07 0 -2.25051e-08 3.17066e-07 0 -3.27412e-08 3.73092e-07 0 -4.63419e-08 4.3794e-07 0 -6.42116e-08 5.14342e-07 0 -8.75043e-08 6.02766e-07 0 -1.17594e-07 7.03982e-07 0 -1.56213e-07 8.22184e-07 0 -2.05452e-07 9.56015e-07 0 -2.67777e-07 1.10829e-06 0 -3.46223e-07 1.28119e-06 0 -4.4425e-07 1.47341e-06 0 -5.65863e-07 1.68879e-06 0 -7.15697e-07 1.92543e-06 0 -8.98705e-07 2.18245e-06 0 -1.12035e-06 2.45913e-06 0 -1.38621e-06 2.75194e-06 0 -1.70178e-06 3.05627e-06 0 -2.07208e-06 3.36575e-06 0 -2.50113e-06 3.67211e-06 0 -2.99144e-06 3.96531e-06 0 -3.54332e-06 4.23369e-06 0 0 8.62424e-08 0 3.36967e-09 8.79261e-08 0 6.73781e-09 9.24212e-08 0 1.00988e-08 1.00056e-07 0 1.34376e-08 1.11254e-07 0 1.67254e-08 1.25852e-07 0 1.9913e-08 1.44777e-07 0 2.29203e-08 1.6823e-07 0 2.56318e-08 1.96491e-07 0 2.78769e-08 2.31383e-07 0 2.94168e-08 2.7259e-07 0 2.99311e-08 3.21586e-07 0 2.89711e-08 3.80003e-07 0 2.59551e-08 4.47932e-07 0 2.01182e-08 5.28431e-07 0 1.04391e-08 6.22136e-07 0 -4.34903e-09 7.30035e-07 0 -2.59026e-08 8.57e-07 0 -5.62964e-08 1.00174e-06 0 -9.80529e-08 1.16772e-06 0 -1.54383e-07 1.35783e-06 0 -2.29057e-07 1.57092e-06 0 -3.26573e-07 1.81211e-06 0 -4.52302e-07 2.07968e-06 0 -6.12166e-07 2.37328e-06 0 -8.12911e-07 2.69288e-06 0 -1.06169e-06 3.03504e-06 0 -1.36587e-06 3.39498e-06 0 -1.73253e-06 3.76574e-06 0 -2.1679e-06 4.13776e-06 0 -2.67657e-06 4.49903e-06 0 -3.26059e-06 4.8352e-06 0 0 8.13838e-08 0 6.35838e-09 8.30444e-08 0 1.28008e-08 8.74797e-08 0 1.94068e-08 9.50206e-08 0 2.62538e-08 1.06098e-07 0 3.3408e-08 1.20565e-07 0 4.09226e-08 1.3937e-07 0 4.8832e-08 1.62741e-07 0 5.71414e-08 1.90991e-07 0 6.58157e-08 2.26019e-07 0 7.4764e-08 2.67552e-07 0 8.38235e-08 3.17171e-07 0 9.27206e-08 3.76654e-07 0 1.01053e-07 4.46187e-07 0 1.08243e-07 5.29134e-07 0 1.13458e-07 6.26323e-07 0 1.156e-07 7.38985e-07 0 1.13161e-07 8.72701e-07 0 1.04163e-07 1.02631e-06 0 8.61049e-08 1.20404e-06 0 5.56806e-08 1.40962e-06 0 8.87141e-09 1.64218e-06 0 -5.9279e-08 1.90841e-06 0 -1.54883e-07 2.20704e-06 0 -2.84908e-07 2.53847e-06 0 -4.57557e-07 2.90381e-06 0 -6.81857e-07 3.30004e-06 0 -9.67468e-07 3.72258e-06 0 -1.32417e-06 4.16408e-06 0 -1.76115e-06 4.6138e-06 0 -2.28597e-06 5.05761e-06 0 -2.90337e-06 5.47791e-06 0 0 7.359e-08 0 9.2589e-09 7.5179e-08 0 1.86899e-08 7.94257e-08 0 2.84607e-08 8.66541e-08 0 3.87444e-08 9.72923e-08 0 4.97074e-08 1.11215e-07 0 6.15119e-08 1.29367e-07 0 7.43156e-08 1.52002e-07 0 8.82561e-08 1.79463e-07 0 1.0345e-07 2.13679e-07 0 1.19976e-07 2.54438e-07 0 1.37856e-07 3.03397e-07 0 1.57026e-07 3.62458e-07 0 1.77311e-07 4.31912e-07 0 1.98372e-07 5.15389e-07 0 2.19637e-07 6.13932e-07 0 2.40261e-07 7.29033e-07 0 2.58981e-07 8.6698e-07 0 2.74031e-07 1.02683e-06 0 2.8305e-07 1.21365e-06 0 2.82769e-07 1.43214e-06 0 2.69044e-07 1.68189e-06 0 2.36562e-07 1.97148e-06 0 1.78527e-07 2.30035e-06 0 8.69089e-08 2.67004e-06 0 -4.80906e-08 3.08335e-06 0 -2.37664e-07 3.53817e-06 0 -4.94289e-07 4.03063e-06 0 -8.31208e-07 4.55349e-06 0 -1.26159e-06 5.09511e-06 0 -1.7973e-06 5.6392e-06 0 -2.44722e-06 6.16446e-06 0 0 6.29879e-08 0 1.20017e-08 6.44562e-08 0 2.42636e-08 6.83832e-08 0 3.70422e-08 7.50768e-08 0 5.06077e-08 8.49496e-08 0 6.52284e-08 9.79032e-08 0 8.11793e-08 1.14853e-07 0 9.87473e-08 1.36074e-07 0 1.18211e-07 1.61928e-07 0 1.39851e-07 1.94331e-07 0 1.63933e-07 2.33139e-07 0 1.90686e-07 2.80051e-07 0 2.2029e-07 3.37053e-07 0 2.52836e-07 4.04553e-07 0 2.88282e-07 4.86387e-07 0 3.26383e-07 5.83817e-07 0 3.66634e-07 6.9861e-07 0 4.08126e-07 8.37719e-07 0 4.49428e-07 1.00052e-06 0 4.88469e-07 1.19295e-06 0 5.22181e-07 1.42084e-06 0 5.46465e-07 1.68439e-06 0 5.55815e-07 1.99442e-06 0 5.42889e-07 2.3514e-06 0 4.98663e-07 2.75851e-06 0 4.11706e-07 3.2209e-06 0 2.68446e-07 3.73807e-06 0 5.31394e-08 4.30764e-06 0 -2.5168e-07 4.9233e-06 0 -6.64328e-07 5.57311e-06 0 -1.2025e-06 6.2389e-06 0 -1.88109e-06 6.89532e-06 0 0 4.97897e-08 0 1.4469e-08 5.1089e-08 0 2.92839e-08 5.45668e-08 0 4.47876e-08 6.05051e-08 0 6.13457e-08 6.92881e-08 0 7.93285e-08 8.08485e-08 0 9.91241e-08 9.60437e-08 0 1.21153e-07 1.15161e-07 0 1.45839e-07 1.38574e-07 0 1.73641e-07 1.68127e-07 0 2.05025e-07 2.03752e-07 0 2.40454e-07 2.47147e-07 0 2.80386e-07 3.00333e-07 0 3.25227e-07 3.63832e-07 0 3.75293e-07 4.41604e-07 0 4.3076e-07 5.35125e-07 0 4.9157e-07 6.46428e-07 0 5.57313e-07 7.83044e-07 0 6.27079e-07 9.44746e-07 0 6.99295e-07 1.13839e-06 0 7.71362e-07 1.37099e-06 0 8.39505e-07 1.64358e-06 0 8.98336e-07 1.96951e-06 0 9.40261e-07 2.3507e-06 0 9.55502e-07 2.7925e-06 0 9.31114e-07 3.30324e-06 0 8.51056e-07 3.88497e-06 0 6.95891e-07 4.53794e-06 0 4.43025e-07 5.25798e-06 0 6.74609e-08 6.03403e-06 0 -4.56638e-07 6.84689e-06 0 -1.1533e-06 7.6673e-06 0 0 3.4301e-08 0 1.65984e-08 3.5385e-08 0 3.36233e-08 3.82896e-08 0 5.14991e-08 4.32612e-08 0 7.06824e-08 5.06417e-08 0 9.16413e-08 6.03974e-08 0 1.14875e-07 7.32976e-08 0 1.40936e-07 8.96328e-08 0 1.70398e-07 1.09775e-07 0 2.03899e-07 1.35434e-07 0 2.4212e-07 1.66623e-07 0 2.85771e-07 2.04983e-07 0 3.35621e-07 2.52508e-07 0 3.92426e-07 3.09824e-07 0 4.56924e-07 3.80903e-07 0 5.2979e-07 4.6741e-07 0 6.11526e-07 5.71614e-07 0 7.02369e-07 7.01468e-07 0 8.02124e-07 8.5723e-07 0 9.09961e-07 1.04661e-06 0 1.02406e-06 1.27786e-06 0 1.14132e-06 1.55303e-06 0 1.25689e-06 1.88824e-06 0 1.36338e-06 2.2873e-06 0 1.45066e-06 2.75833e-06 0 1.50463e-06 3.31384e-06 0 1.50694e-06 3.95959e-06 0 1.4343e-06 4.70001e-06 0 1.25828e-06 5.53492e-06 0 9.45713e-07 6.45611e-06 0 4.60058e-07 7.44523e-06 0 -2.35757e-07 8.47027e-06 0 0 1.68969e-08 0 1.83344e-08 1.77228e-08 0 3.71683e-08 1.99402e-08 0 5.70002e-08 2.37494e-08 0 7.83704e-08 2.94367e-08 0 1.01838e-07 3.70032e-08 0 1.28008e-07 4.7099e-08 0 1.57558e-07 6.00062e-08 0 1.9121e-07 7.60808e-08 0 2.29779e-07 9.68288e-08 0 2.74168e-07 1.22346e-07 0 3.25343e-07 1.54151e-07 0 3.84401e-07 1.94136e-07 0 4.52483e-07 2.43013e-07 0 5.30796e-07 3.0462e-07 0 6.20591e-07 3.8077e-07 0 7.23031e-07 4.73903e-07 0 8.39154e-07 5.92173e-07 0 9.69681e-07 7.36372e-07 0 1.11479e-06 9.14935e-07 0 1.2738e-06 1.13731e-06 0 1.44473e-06 1.40673e-06 0 1.62378e-06 1.74215e-06 0 1.80436e-06 2.14975e-06 0 1.97667e-06 2.64107e-06 0 2.12608e-06 3.23378e-06 0 2.23244e-06 3.93885e-06 0 2.26879e-06 4.76682e-06 0 2.20057e-06 5.72405e-06 0 1.98521e-06 6.80824e-06 0 1.57289e-06 8.00518e-06 0 9.08876e-07 9.28327e-06 0 -4.92938e-24 -1.96171e-09 0 1.95212e-08 -1.43078e-09 0 3.96023e-08 -3.42513e-13 0 6.08035e-08 2.47519e-09 0 8.37357e-08 6.21307e-09 0 1.09037e-07 1.12486e-08 0 1.37404e-07 1.8083e-08 0 1.6963e-07 2.69759e-08 0 2.06572e-07 3.82505e-08 0 2.49216e-07 5.31388e-08 0 2.98675e-07 7.18133e-08 0 3.56178e-07 9.56003e-08 0 4.23155e-07 1.26202e-07 0 5.01158e-07 1.64385e-07 0 5.919e-07 2.13683e-07 0 6.97284e-07 2.75982e-07 0 8.19245e-07 3.53804e-07 0 9.59796e-07 4.55182e-07 0 1.12082e-06 5.81473e-07 0 1.30386e-06 7.41593e-07 0 1.50984e-06 9.45988e-07 0 1.73855e-06 1.1992e-06 0 1.98803e-06 1.52288e-06 0 2.25356e-06 1.92599e-06 0 2.52677e-06 2.42403e-06 0 2.79382e-06 3.04086e-06 0 3.03398e-06 3.79428e-06 0 3.21769e-06 4.70328e-06 0 3.30471e-06 5.78408e-06 0 3.24255e-06 7.0445e-06 0 2.96563e-06 8.47992e-06 0 2.39595e-06 1.00654e-05 0 -3.10198e-23 -2.17503e-08 0 2.01938e-08 -2.15443e-08 0 4.09943e-08 -2.09812e-08 0 6.30102e-08 -1.99784e-08 0 8.69089e-08 -1.83998e-08 0 1.13393e-07 -1.61777e-08 0 1.43236e-07 -1.29881e-08 0 1.77331e-07 -8.60823e-09 0 2.16652e-07 -2.76645e-09 0 2.62342e-07 5.42619e-09 0 3.15712e-07 1.62084e-08 0 3.78235e-07 3.06387e-08 0 4.5167e-07 5.0133e-08 0 5.37978e-07 7.54697e-08 0 6.39395e-07 1.09682e-07 0 7.58513e-07 1.54628e-07 0 8.98106e-07 2.12785e-07 0 1.06128e-06 2.91655e-07 0 1.25128e-06 3.93132e-07 0 1.47129e-06 5.26241e-07 0 1.72429e-06 7.02068e-07 0 2.01244e-06 9.26462e-07 0 2.33646e-06 1.22331e-06 0 2.69455e-06 1.6046e-06 0 3.08115e-06 2.09021e-06 0 3.48477e-06 2.71101e-06 0 3.88592e-06 3.49322e-06 0 4.25418e-06 4.46692e-06 0 4.54518e-06 5.66198e-06 0 4.69742e-06 7.10184e-06 0 4.6292e-06 8.79896e-06 0 4.2362e-06 1.07454e-05 0 0 -4.19035e-08 0 2.02644e-08 -4.20435e-08 0 4.11648e-08 -4.24049e-08 0 6.33414e-08 -4.29748e-08 0 8.74989e-08 -4.37085e-08 0 1.14385e-07 -4.45091e-08 0 1.44829e-07 -4.52543e-08 0 1.798e-07 -4.57731e-08 0 2.20367e-07 -4.58639e-08 0 2.67801e-07 -4.5046e-08 0 3.23582e-07 -4.30289e-08 0 3.89399e-07 -3.90978e-08 0 4.67313e-07 -3.22235e-08 0 5.59668e-07 -2.16683e-08 0 6.69212e-07 -5.11348e-09 0 7.99223e-07 1.91479e-08 0 9.53354e-07 5.33842e-08 0 1.13589e-06 1.04071e-07 0 1.35159e-06 1.73551e-07 0 1.60556e-06 2.70434e-07 0 1.90331e-06 4.05881e-07 0 2.25003e-06 5.86899e-07 0 2.65012e-06 8.38686e-07 0 3.10617e-06 1.17631e-06 0 3.61724e-06 1.62404e-06 0 4.1766e-06 2.22011e-06 0 4.76875e-06 3.00069e-06 0 5.36555e-06 4.00941e-06 0 5.92172e-06 5.29393e-06 0 6.36981e-06 6.89932e-06 0 6.61465e-06 8.86414e-06 0 6.52686e-06 1.12111e-05 0 0 -6.17977e-08 0 1.9679e-08 -6.22944e-08 0 4.00028e-08 -6.36094e-08 0 6.1622e-08 -6.58041e-08 0 8.5256e-08 -6.8933e-08 0 1.11673e-07 -7.28744e-08 0 1.41733e-07 -7.77268e-08 0 1.7645e-07 -8.33848e-08 0 2.16953e-07 -8.97343e-08 0 2.64603e-07 -9.67584e-08 0 3.21004e-07 -1.04133e-07 0 3.88017e-07 -1.11558e-07 0 4.67947e-07 -1.18488e-07 0 5.63468e-07 -1.24287e-07 0 6.77781e-07 -1.27568e-07 0 8.14806e-07 -1.26919e-07 0 9.79041e-07 -1.20474e-07 0 1.17595e-06 -1.03351e-07 0 1.41191e-06 -7.29191e-08 0 1.69412e-06 -2.1667e-08 0 2.03101e-06 6.08316e-08 0 2.43146e-06 1.8238e-07 0 2.90465e-06 3.67988e-07 0 3.4592e-06 6.3539e-07 0 4.10113e-06 1.01275e-06 0 4.83167e-06 1.54527e-06 0 5.64333e-06 2.27997e-06 0 6.51498e-06 3.27617e-06 0 7.40571e-06 4.60313e-06 0 8.24786e-06 6.33353e-06 0 8.93934e-06 8.54069e-06 0 9.33433e-06 1.12915e-05 0 0 -8.08093e-08 0 1.85036e-08 -8.16618e-08 0 3.76409e-08 -8.3929e-08 0 5.80522e-08 -8.77486e-08 0 8.04496e-08 -9.32788e-08 0 1.05598e-07 -1.00379e-07 0 1.3436e-07 -1.09379e-07 0 1.67761e-07 -1.20252e-07 0 2.06957e-07 -1.32986e-07 0 2.53355e-07 -1.48069e-07 0 3.08633e-07 -1.65165e-07 0 3.74763e-07 -1.84446e-07 0 4.54225e-07 -2.0594e-07 0 5.49942e-07 -2.29173e-07 0 6.65481e-07 -2.53891e-07 0 8.05301e-07 -2.79136e-07 0 9.74649e-07 -3.03653e-07 0 1.18009e-06 -3.2475e-07 0 1.42954e-06 -3.39746e-07 0 1.73235e-06 -3.43041e-07 0 2.10004e-06 -3.25992e-07 0 2.54563e-06 -2.80626e-07 0 3.08393e-06 -1.8429e-07 0 3.7311e-06 -1.75621e-08 0 4.50243e-06 2.50259e-07 0 5.41057e-06 6.69806e-07 0 6.46065e-06 1.29893e-06 0 7.64425e-06 2.21395e-06 0 8.93128e-06 3.50899e-06 0 1.02609e-05 5.2896e-06 0 1.15322e-05 7.67071e-06 0 1.25955e-05 1.07717e-05 0 0 -9.83132e-08 0 1.66581e-08 -9.95084e-08 0 3.39141e-08 -1.02693e-07 0 5.23739e-08 -1.08082e-07 0 7.27138e-08 -1.15936e-07 0 9.56648e-08 -1.26101e-07 0 1.22059e-07 -1.39144e-07 0 1.52891e-07 -1.55123e-07 0 1.89296e-07 -1.7414e-07 0 2.32666e-07 -1.97212e-07 0 2.84682e-07 -2.24008e-07 0 3.47344e-07 -2.55217e-07 0 4.23196e-07 -2.91505e-07 0 5.15286e-07 -3.3262e-07 0 6.27388e-07 -3.79609e-07 0 7.64314e-07 -4.32115e-07 0 9.31845e-07 -4.89702e-07 0 1.1374e-06 -5.52444e-07 0 1.3902e-06 -6.17906e-07 0 1.70151e-06 -6.83298e-07 0 2.08583e-06 -7.43005e-07 0 2.56049e-06 -7.89801e-07 0 3.14649e-06 -8.06264e-07 0 3.86906e-06 -7.73061e-07 0 4.75543e-06 -6.59451e-07 0 5.83425e-06 -4.1265e-07 0 7.13e-06 3.44637e-08 0 8.65577e-06 7.75211e-07 0 1.04024e-05 1.93119e-06 0 1.23257e-05 3.64601e-06 0 1.43355e-05 6.08149e-06 0 1.62894e-05 9.41065e-06 0 0 -1.13695e-07 0 1.42355e-08 -1.15206e-07 0 2.90108e-08 -1.1924e-07 0 4.48741e-08 -1.26081e-07 0 6.24404e-08 -1.36093e-07 0 8.23783e-08 -1.49113e-07 0 1.05455e-07 -1.65936e-07 0 1.32596e-07 -1.86713e-07 0 1.64865e-07 -2.11663e-07 0 2.03583e-07 -2.42329e-07 0 2.50358e-07 -2.78407e-07 0 3.07126e-07 -3.21121e-07 0 3.76379e-07 -3.71808e-07 0 4.6114e-07 -4.30485e-07 0 5.65209e-07 -4.99611e-07 0 6.93509e-07 -5.79548e-07 0 8.52064e-07 -6.70855e-07 0 1.04878e-06 -7.76849e-07 0 1.29373e-06 -8.95671e-07 0 1.59962e-06 -1.02822e-06 0 1.9834e-06 -1.17324e-06 0 2.46627e-06 -1.32546e-06 0 3.07534e-06 -1.47618e-06 0 3.84551e-06 -1.60892e-06 0 4.81796e-06 -1.69697e-06 0 6.04164e-06 -1.6912e-06 0 7.5678e-06 -1.51947e-06 0 9.44194e-06 -1.07379e-06 0 1.16889e-05 -2.03102e-07 0 1.4293e-05 1.28152e-06 0 1.71807e-05 3.59738e-06 0 2.0216e-05 6.97095e-06 0 0 -1.26405e-07 0 1.12954e-08 -1.28195e-07 0 2.30511e-08 -1.32975e-07 0 3.57356e-08 -1.41096e-07 0 4.98775e-08 -1.53015e-07 0 6.60556e-08 -1.68565e-07 0 8.49395e-08 -1.88754e-07 0 1.07344e-07 -2.13823e-07 0 1.34215e-07 -2.44108e-07 0 1.66738e-07 -2.81651e-07 0 2.06373e-07 -3.26191e-07 0 2.54894e-07 -3.79473e-07 0 3.1461e-07 -4.43507e-07 0 3.88357e-07 -5.18605e-07 0 4.79743e-07 -6.08659e-07 0 5.93512e-07 -7.14832e-07 0 7.35566e-07 -8.3879e-07 0 9.13793e-07 -9.87382e-07 0 1.13849e-06 -1.15963e-06 0 1.42298e-06 -1.36085e-06 0 1.78563e-06 -1.59539e-06 0 2.25038e-06 -1.86123e-06 0 2.84935e-06 -2.16224e-06 0 3.62644e-06 -2.48855e-06 0 4.63743e-06 -2.82333e-06 0 5.955e-06 -3.13028e-06 0 7.66533e-06 -3.341e-06 0 9.8609e-06 -3.33981e-06 0 1.26205e-05 -2.94602e-06 0 1.59763e-05 -1.91288e-06 0 1.98767e-05 5.43157e-08 0 2.41734e-05 3.24972e-06 0 0 -1.35947e-07 0 7.89123e-09 -1.37966e-07 0 1.61425e-08 -1.43358e-07 0 2.51219e-08 -1.52532e-07 0 3.52471e-08 -1.66024e-07 0 4.698e-08 -1.83669e-07 0 6.08602e-08 -2.06659e-07 0 7.75513e-08 -2.3532e-07 0 9.78332e-08 -2.70096e-07 0 1.22693e-07 -3.13475e-07 0 1.5336e-07 -3.65244e-07 0 1.91344e-07 -4.2763e-07 0 2.38631e-07 -5.03268e-07 0 2.97691e-07 -5.92766e-07 0 3.71696e-07 -7.01375e-07 0 4.64875e-07 -8.31062e-07 0 5.82562e-07 -9.84623e-07 0 7.31999e-07 -1.17244e-06 0 9.22835e-07 -1.39465e-06 0 1.16783e-06 -1.66133e-06 0 1.48514e-06 -1.9833e-06 0 1.89931e-06 -2.36304e-06 0 2.44482e-06 -2.82042e-06 0 3.17165e-06 -3.35664e-06 0 4.14799e-06 -3.97239e-06 0 5.47085e-06 -4.6576e-06 0 7.26872e-06 -5.36395e-06 0 9.70054e-06 -5.98536e-06 0 1.2934e-05 -6.31928e-06 0 1.7091e-05 -6.04232e-06 0 2.21622e-05 -4.72919e-06 0 2.79449e-05 -1.95624e-06 0 -1.56142e-21 -1.41922e-07 0 4.13269e-09 -1.44108e-07 0 8.50821e-09 -1.49952e-07 0 1.33763e-08 -1.59902e-07 0 1.90238e-08 -1.7456e-07 0 2.57723e-08 -1.93767e-07 0 3.40038e-08 -2.18861e-07 0 4.4196e-08 -2.50241e-07 0 5.69194e-08 -2.88443e-07 0 7.29072e-08 -3.3632e-07 0 9.30857e-08 -3.93712e-07 0 1.18608e-07 -4.63249e-07 0 1.51009e-07 -5.48099e-07 0 1.92221e-07 -6.49142e-07 0 2.44754e-07 -7.728e-07 0 3.11991e-07 -9.21772e-07 0 3.98249e-07 -1.09988e-06 0 5.09469e-07 -1.32071e-06 0 6.53688e-07 -1.58555e-06 0 8.41745e-07 -1.90909e-06 0 1.08949e-06 -2.30875e-06 0 1.41907e-06 -2.79221e-06 0 1.86307e-06 -3.39736e-06 0 2.47154e-06 -4.14065e-06 0 3.31811e-06 -5.04848e-06 0 4.51768e-06 -6.1541e-06 0 6.24116e-06 -7.45624e-06 0 8.73266e-06 -8.89606e-06 0 1.23028e-05 -1.02833e-05 0 1.72565e-05 -1.12069e-05 0 2.37089e-05 -1.10036e-05 0 3.13547e-05 -8.9347e-06 0 0 -1.44035e-07 0 1.35238e-10 -1.46319e-07 0 3.83003e-10 -1.52429e-07 0 8.61202e-10 -1.62842e-07 0 1.70978e-09 -1.782e-07 0 3.09222e-09 -1.98355e-07 0 5.21093e-09 -2.24746e-07 0 8.32962e-09 -2.57826e-07 0 1.27749e-08 -2.98204e-07 0 1.89803e-08 -3.4899e-07 0 2.75099e-08 -4.10076e-07 0 3.90822e-08 -4.84391e-07 0 5.46756e-08 -5.75501e-07 0 7.55413e-08 -6.845e-07 0 1.03331e-07 -8.18697e-07 0 1.40296e-07 -9.8136e-07 0 1.89342e-07 -1.17712e-06 0 2.54504e-07 -1.42205e-06 0 3.41301e-07 -1.71842e-06 0 4.57281e-07 -2.08472e-06 0 6.13713e-07 -2.54399e-06 0 8.26842e-07 -3.10893e-06 0 1.1217e-06 -3.83457e-06 0 1.53927e-06 -4.75463e-06 0 2.14523e-06 -5.92696e-06 0 3.05373e-06 -7.4446e-06 0 4.45926e-06 -9.39e-06 0 6.69008e-06 -1.18213e-05 0 1.02617e-05 -1.46621e-05 0 1.58498e-05 -1.7477e-05 0 2.39789e-05 -1.92078e-05 0 3.42956e-05 -1.82985e-05 0 4.16931e-21 -1.4211e-07 0 -3.97285e-09 -1.44419e-07 0 -7.97178e-09 -1.50594e-07 0 -1.20194e-08 -1.61126e-07 0 -1.61329e-08 -1.76677e-07 0 -2.03188e-08 -1.97109e-07 0 -2.45691e-08 -2.23909e-07 0 -2.88533e-08 -2.57566e-07 0 -3.31123e-08 -2.98731e-07 0 -3.72438e-08 -3.50652e-07 0 -4.10881e-08 -4.13264e-07 0 -4.44144e-08 -4.89665e-07 0 -4.68775e-08 -5.83654e-07 0 -4.80046e-08 -6.96462e-07 0 -4.71412e-08 -8.35911e-07 0 -4.33659e-08 -1.00561e-06 0 -3.54679e-08 -1.21068e-06 0 -2.17525e-08 -1.46864e-06 0 9.8409e-11 -1.78234e-06 0 3.32529e-08 -2.17257e-06 0 8.24832e-08 -2.66587e-06 0 1.54873e-07 -3.27841e-06 0 2.62033e-07 -4.0774e-06 0 4.24998e-07 -5.11122e-06 0 6.82429e-07 -6.46739e-06 0 1.11367e-06 -8.30376e-06 0 1.88313e-06 -1.08183e-05 0 3.33796e-06 -1.42816e-05 0 6.19015e-06 -1.89538e-05 0 1.17495e-05 -2.47131e-05 0 2.17737e-05 -3.01448e-05 0 3.66617e-05 -3.16243e-05 0 2.49577e-21 -1.36109e-07 0 -8.05434e-09 -1.38363e-07 0 -1.62762e-08 -1.44396e-07 0 -2.4832e-08 -1.54689e-07 0 -3.38997e-08 -1.69901e-07 0 -4.3661e-08 -1.89907e-07 0 -5.43083e-08 -2.16184e-07 0 -6.60531e-08 -2.49233e-07 0 -7.9115e-08 -2.8972e-07 0 -9.37378e-08 -3.40893e-07 0 -1.10186e-07 -4.02721e-07 0 -1.28743e-07 -4.78329e-07 0 -1.4973e-07 -5.71561e-07 0 -1.73498e-07 -6.83699e-07 0 -2.00449e-07 -8.22657e-07 0 -2.31075e-07 -9.92127e-07 0 -2.65971e-07 -1.1973e-06 0 -3.05955e-07 -1.45593e-06 0 -3.5219e-07 -1.77092e-06 0 -4.06363e-07 -2.16331e-06 0 -4.71153e-07 -2.66011e-06 0 -5.5051e-07 -3.27811e-06 0 -6.50196e-07 -4.08741e-06 0 -7.77933e-07 -5.14224e-06 0 -9.40781e-07 -6.54519e-06 0 -1.13617e-06 -8.49691e-06 0 -1.31973e-06 -1.13005e-05 0 -1.3057e-06 -1.54906e-05 0 -4.69513e-07 -2.19587e-05 0 3.04944e-06 -3.18245e-05 0 1.37743e-05 -4.48598e-05 0 3.76766e-05 -5.36477e-05 0 0 -1.26126e-07 0 -1.197e-08 -1.28248e-07 0 -2.42462e-08 -1.33929e-07 0 -3.71359e-08 -1.43626e-07 0 -5.09754e-08 -1.57966e-07 0 -6.61185e-08 -1.7684e-07 0 -8.29559e-08 -2.01657e-07 0 -1.01938e-07 -2.32906e-07 0 -1.23562e-07 -2.71234e-07 0 -1.48414e-07 -3.19754e-07 0 -1.7718e-07 -3.78457e-07 0 -2.10651e-07 -4.5035e-07 0 -2.49811e-07 -5.39133e-07 0 -2.9582e-07 -6.46047e-07 0 -3.50111e-07 -7.78677e-07 0 -4.14545e-07 -9.40528e-07 0 -4.91445e-07 -1.13649e-06 0 -5.84012e-07 -1.38328e-06 0 -6.96667e-07 -1.6833e-06 0 -8.35626e-07 -2.05576e-06 0 -1.01054e-06 -2.52473e-06 0 -1.23587e-06 -3.10419e-06 0 -1.53456e-06 -3.85537e-06 0 -1.94462e-06 -4.82438e-06 0 -2.52606e-06 -6.10171e-06 0 -3.37884e-06 -7.87361e-06 0 -4.65982e-06 -1.04539e-05 0 -6.59193e-06 -1.44961e-05 0 -9.35361e-06 -2.14649e-05 0 -1.22187e-05 -3.4745e-05 0 -8.97621e-06 -6.08036e-05 0 2.679e-05 -0.000102963 0 0 -1.12395e-07 0 -1.55835e-08 -1.14311e-07 0 -3.16033e-08 -1.19439e-07 0 -4.8499e-08 -1.28196e-07 0 -6.67557e-08 -1.41152e-07 0 -8.68894e-08 -1.58216e-07 0 -1.09477e-07 -1.8067e-07 0 -1.35196e-07 -2.0897e-07 0 -1.64803e-07 -2.43711e-07 0 -1.99208e-07 -2.87741e-07 0 -2.39493e-07 -3.4106e-07 0 -2.86925e-07 -4.06421e-07 0 -3.43101e-07 -4.87202e-07 0 -4.09924e-07 -5.84524e-07 0 -4.89761e-07 -7.05261e-07 0 -5.85679e-07 -8.52506e-07 0 -7.01491e-07 -1.03053e-06 0 -8.42363e-07 -1.25396e-06 0 -1.0153e-06 -1.52429e-06 0 -1.22994e-06 -1.85719e-06 0 -1.50094e-06 -2.27107e-06 0 -1.85008e-06 -2.77419e-06 0 -2.31206e-06 -3.40861e-06 0 -2.94594e-06 -4.19854e-06 0 -3.85045e-06 -5.19269e-06 0 -5.20713e-06 -6.49051e-06 0 -7.35552e-06 -8.25785e-06 0 -1.09743e-05 -1.08709e-05 0 -1.75348e-05 -1.53264e-05 0 -3.06086e-05 -2.49335e-05 0 -5.85769e-05 -5.65144e-05 0 -0.000475135 0.00288631 0 </DataArray> 
</PointData> 
<Points> 
<DataArray type="Float32" NumberOfComponents="3"> 