<?xml version="1.0"?> 
<VTKFile type="StructuredGrid" version="0.1"> 
<StructuredGrid WholeExtent="0 31 0 31 0 0"> 
<Piece Extent="0 31 0 31 0 0"> 
<PointData>
<DataArray type="Float32" Name="B" format="ascii" NumberOfComponents="3"> 
2.57322e-05 -0 0 2.71803e-05 -0 0 2.86235e-05 -0 0 3.00487e-05 -0 0 3.14421e-05 -0 0 3.27888e-05 -0 0 3.40739e-05 -0 0 3.52824e-05 -0 0 3.63996e-05 -0 0 3.74116e-05 -0 0 3.83054e-05 -0 0 3.90694e-05 -0 0 3.96936e-05 -0 0 4.01695e-05 -0 0 4.04909e-05 -0 0 4.06534e-05 -0 0 4.06548e-05 -0 0 4.04951e-05 -0 0 4.01764e-05 -0 0 3.97029e-05 -0 0 3.9081e-05 -0 0 3.8319e-05 -0 0 3.74268e-05 -0 0 3.6416e-05 -0 0 3.52997e-05 -0 0 3.40917e-05 -0 0 3.28068e-05 -0 0 3.14599e-05 -0 0 3.00661e-05 -0 0 2.864e-05 -0 0 2.71958e-05 -0 0 2.57466e-05 -0 0 2.57281e-05 -1.44871e-06 0 2.71828e-05 -1.45033e-06 0 2.86334e-05 -1.43935e-06 0 3.00666e-05 -1.41471e-06 0 3.14682e-05 -1.37564e-06 0 3.28234e-05 -1.32157e-06 0 3.4117e-05 -1.25238e-06 0 3.53337e-05 -1.16826e-06 0 3.64588e-05 -1.06954e-06 0 3.74781e-05 -9.57441e-07 0 3.83785e-05 -8.32946e-07 0 3.91482e-05 -6.97513e-07 0 3.97771e-05 -5.52817e-07 0 4.02566e-05 -4.00717e-07 0 4.05805e-05 -2.43211e-07 0 4.07442e-05 -8.23957e-08 0 4.07457e-05 7.95684e-08 0 4.05847e-05 2.40459e-07 0 4.02636e-05 3.98111e-07 0 3.97866e-05 5.50422e-07 0 3.916e-05 6.95387e-07 0 3.83923e-05 8.31136e-07 0 3.74935e-05 9.55982e-07 0 3.64755e-05 1.06845e-06 0 3.53513e-05 1.16756e-06 0 3.41351e-05 1.25206e-06 0 3.28416e-05 1.3216e-06 0 3.14862e-05 1.376e-06 0 3.00841e-05 1.41537e-06 0 2.86501e-05 1.44025e-06 0 2.71985e-05 1.45144e-06 0 2.57425e-05 1.44996e-06 0 2.57163e-05 -2.90892e-06 0 2.71891e-05 -2.9134e-06 0 2.86593e-05 -2.89249e-06 0 3.01136e-05 -2.84403e-06 0 3.15373e-05 -2.76639e-06 0 3.2915e-05 -2.65843e-06 0 3.42312e-05 -2.51989e-06 0 3.547e-05 -2.3511e-06 0 3.66161e-05 -2.15279e-06 0 3.76549e-05 -1.9274e-06 0 3.85728e-05 -1.67695e-06 0 3.93577e-05 -1.40438e-06 0 3.9999e-05 -1.1131e-06 0 4.04882e-05 -8.06878e-07 0 4.08185e-05 -4.89743e-07 0 4.09856e-05 -1.6593e-07 0 4.0987e-05 1.602e-07 0 4.08229e-05 4.84165e-07 0 4.04954e-05 8.01598e-07 0 4.00089e-05 1.10826e-06 0 3.93699e-05 1.40008e-06 0 3.85871e-05 1.67329e-06 0 3.76709e-05 1.92446e-06 0 3.66334e-05 2.15061e-06 0 3.54882e-05 2.3497e-06 0 3.42498e-05 2.51925e-06 0 3.29338e-05 2.65853e-06 0 3.15557e-05 2.76716e-06 0 3.01315e-05 2.84539e-06 0 2.86763e-05 2.89435e-06 0 2.7205e-05 2.91567e-06 0 2.5731e-05 2.91147e-06 0 2.56946e-05 -4.39194e-06 0 2.71976e-05 -4.40183e-06 0 2.8701e-05 -4.37312e-06 0 3.01909e-05 -4.30249e-06 0 3.16518e-05 -4.18733e-06 0 3.30678e-05 -4.02586e-06 0 3.44223e-05 -3.81761e-06 0 3.56985e-05 -3.56311e-06 0 3.68802e-05 -3.26343e-06 0 3.7952e-05 -2.92238e-06 0 3.88995e-05 -2.54302e-06 0 3.971e-05 -2.12992e-06 0 4.03724e-05 -1.68829e-06 0 4.08777e-05 -1.22389e-06 0 4.1219e-05 -7.42889e-07 0 4.13917e-05 -2.51733e-07 0 4.13932e-05 2.42949e-07 0 4.12237e-05 7.34341e-07 0 4.08854e-05 1.2158e-06 0 4.03829e-05 1.68087e-06 0 3.9723e-05 2.12335e-06 0 3.89146e-05 2.53744e-06 0 3.79689e-05 2.91791e-06 0 3.68984e-05 3.26014e-06 0 3.57176e-05 3.56102e-06 0 3.44419e-05 3.81671e-06 0 3.30875e-05 4.02608e-06 0 3.16711e-05 4.18859e-06 0 3.02094e-05 4.30465e-06 0 2.87186e-05 4.37605e-06 0 2.72139e-05 4.40535e-06 0 2.57096e-05 4.39591e-06 0 2.56586e-05 -5.90982e-06 0 2.72052e-05 -5.92908e-06 0 2.87568e-05 -5.89599e-06 0 3.02984e-05 -5.8058e-06 0 3.18138e-05 -5.6548e-06 0 3.32857e-05 -5.44042e-06 0 3.4696e-05 -5.16197e-06 0 3.60269e-05 -4.8201e-06 0 3.72606e-05 -4.41633e-06 0 3.83806e-05 -3.95588e-06 0 3.93713e-05 -3.44306e-06 0 4.0219e-05 -2.88415e-06 0 4.09121e-05 -2.28635e-06 0 4.14409e-05 -1.65755e-06 0 4.17981e-05 -1.00618e-06 0 4.19788e-05 -3.41015e-07 0 4.19806e-05 3.2894e-07 0 4.18032e-05 9.94435e-07 0 4.14493e-05 1.64645e-06 0 4.09235e-05 2.27618e-06 0 4.02331e-05 2.87516e-06 0 3.93877e-05 3.43545e-06 0 3.83988e-05 3.94982e-06 0 3.72803e-05 4.4119e-06 0 3.60475e-05 4.81734e-06 0 3.4717e-05 5.16085e-06 0 3.33066e-05 5.44086e-06 0 3.18343e-05 5.65666e-06 0 3.0318e-05 5.80891e-06 0 2.87752e-05 5.90013e-06 0 2.72222e-05 5.93403e-06 0 2.5674e-05 5.91535e-06 0 2.56055e-05 -7.47461e-06 0 2.7208e-05 -7.50884e-06 0 2.88216e-05 -7.47617e-06 0 3.04301e-05 -7.37017e-06 0 3.20161e-05 -7.18575e-06 0 3.35604e-05 -6.91939e-06 0 3.50434e-05 -6.57006e-06 0 3.64452e-05 -6.13856e-06 0 3.77465e-05 -5.6269e-06 0 3.89289e-05 -5.04193e-06 0 3.99755e-05 -4.38934e-06 0 4.08714e-05 -3.67739e-06 0 4.16041e-05 -2.91546e-06 0 4.21631e-05 -2.11378e-06 0 4.25408e-05 -1.28321e-06 0 4.27319e-05 -4.35008e-07 0 4.27338e-05 4.19314e-07 0 4.25465e-05 1.26795e-06 0 4.21724e-05 2.09937e-06 0 4.16167e-05 2.90227e-06 0 4.0887e-05 3.66577e-06 0 3.99936e-05 4.37956e-06 0 3.8949e-05 5.03418e-06 0 3.77681e-05 5.6213e-06 0 3.64677e-05 6.13517e-06 0 3.50662e-05 6.56881e-06 0 3.3583e-05 6.92019e-06 0 3.2038e-05 7.1884e-06 0 3.0451e-05 7.37443e-06 0 2.8841e-05 7.48177e-06 0 2.72258e-05 7.51546e-06 0 2.56214e-05 7.48195e-06 0 2.55254e-05 -9.0989e-06 0 2.71988e-05 -9.15562e-06 0 2.88913e-05 -9.12987e-06 0 3.05856e-05 -9.01313e-06 0 3.22623e-05 -8.79864e-06 0 3.39001e-05 -8.48162e-06 0 3.5477e-05 -8.06058e-06 0 3.69705e-05 -7.53649e-06 0 3.83589e-05 -6.91193e-06 0 3.96217e-05 -6.19569e-06 0 4.07401e-05 -5.39508e-06 0 4.16977e-05 -4.52066e-06 0 4.24808e-05 -3.58429e-06 0 4.30784e-05 -2.59882e-06 0 4.3482e-05 -1.57776e-06 0 4.36863e-05 -5.35011e-07 0 4.36885e-05 5.15264e-07 0 4.34884e-05 1.55857e-06 0 4.30888e-05 2.58072e-06 0 4.2495e-05 3.56776e-06 0 4.17152e-05 4.50614e-06 0 4.07604e-05 5.38291e-06 0 3.96442e-05 6.18613e-06 0 3.8383e-05 6.90513e-06 0 3.69955e-05 7.5325e-06 0 3.55022e-05 8.05933e-06 0 3.3925e-05 8.48296e-06 0 3.22862e-05 8.80232e-06 0 3.06082e-05 9.01883e-06 0 2.8912e-05 9.13721e-06 0 2.72174e-05 9.16421e-06 0 2.55419e-05 9.10833e-06 0 2.54111e-05 -1.07962e-05 0 2.717e-05 -1.08853e-05 0 2.89588e-05 -1.08751e-05 0 3.07583e-05 -1.07545e-05 0 3.25467e-05 -1.05145e-05 0 3.43e-05 -1.01487e-05 0 3.5993e-05 -9.65495e-06 0 3.75999e-05 -9.03445e-06 0 3.90959e-05 -8.29051e-06 0 4.04576e-05 -7.43426e-06 0 4.1664e-05 -6.47504e-06 0 4.2697e-05 -5.42615e-06 0 4.35415e-05 -4.30237e-06 0 4.41857e-05 -3.11949e-06 0 4.46208e-05 -1.89393e-06 0 4.4841e-05 -6.4243e-07 0 4.48435e-05 6.18071e-07 0 4.46281e-05 1.87027e-06 0 4.41977e-05 3.0972e-06 0 4.35578e-05 4.28207e-06 0 4.2717e-05 5.40838e-06 0 4.16871e-05 6.46022e-06 0 4.04831e-05 7.42273e-06 0 3.91231e-05 8.28245e-06 0 3.7628e-05 9.02992e-06 0 3.60212e-05 9.65385e-06 0 3.43277e-05 1.01508e-05 0 3.25731e-05 1.05195e-05 0 3.07829e-05 1.0762e-05 0 2.89811e-05 1.08846e-05 0 2.71898e-05 1.08963e-05 0 2.54282e-05 1.08081e-05 0 2.52542e-05 -1.25802e-05 0 2.71135e-05 -1.27145e-05 0 2.90162e-05 -1.27312e-05 0 3.09412e-05 -1.26157e-05 0 3.28637e-05 -1.23562e-05 0 3.47561e-05 -1.19442e-05 0 3.6589e-05 -1.13766e-05 0 3.83325e-05 -1.06549e-05 0 3.99578e-05 -9.78329e-06 0 4.14379e-05 -8.77595e-06 0 4.27493e-05 -7.64483e-06 0 4.38716e-05 -6.4066e-06 0 4.47885e-05 -5.07949e-06 0 4.54875e-05 -3.68271e-06 0 4.59593e-05 -2.23585e-06 0 4.61982e-05 -7.58682e-07 0 4.6201e-05 7.29011e-07 0 4.59678e-05 2.20706e-06 0 4.55013e-05 3.65561e-06 0 4.48073e-05 5.05487e-06 0 4.38946e-05 6.38512e-06 0 4.27759e-05 7.62704e-06 0 4.14673e-05 8.76226e-06 0 3.99889e-05 9.77392e-06 0 3.83645e-05 1.06499e-05 0 3.66209e-05 1.13759e-05 0 3.47871e-05 1.19475e-05 0 3.28931e-05 1.2363e-05 0 3.09682e-05 1.26255e-05 0 2.90405e-05 1.27434e-05 0 2.71346e-05 1.27284e-05 0 2.5272e-05 1.25951e-05 0 2.50288e-05 -1.44656e-05 0 2.70075e-05 -1.46616e-05 0 2.90479e-05 -1.472e-05 0 3.11262e-05 -1.46217e-05 0 3.3214e-05 -1.4351e-05 0 3.52787e-05 -1.38963e-05 0 3.72852e-05 -1.32535e-05 0 3.9198e-05 -1.24242e-05 0 4.09827e-05 -1.14143e-05 0 4.2608e-05 -1.02418e-05 0 4.40468e-05 -8.92203e-06 0 4.52768e-05 -7.47605e-06 0 4.62802e-05 -5.92629e-06 0 4.70441e-05 -4.29586e-06 0 4.75592e-05 -2.6079e-06 0 4.78198e-05 -8.85259e-07 0 4.78232e-05 8.49403e-07 0 4.75691e-05 2.57312e-06 0 4.70603e-05 4.26319e-06 0 4.63021e-05 5.89667e-06 0 4.53037e-05 7.45033e-06 0 4.40779e-05 8.90088e-06 0 4.26421e-05 1.02257e-05 0 4.10188e-05 1.14036e-05 0 3.92349e-05 1.24189e-05 0 3.73218e-05 1.32534e-05 0 3.53139e-05 1.39011e-05 0 3.3247e-05 1.43601e-05 0 3.11562e-05 1.46345e-05 0 2.90743e-05 1.47355e-05 0 2.70301e-05 1.46791e-05 0 2.50473e-05 1.44842e-05 0 2.47282e-05 -1.64678e-05 0 2.68433e-05 -1.67468e-05 0 2.90432e-05 -1.68664e-05 0 3.13016e-05 -1.68014e-05 0 3.35851e-05 -1.65304e-05 0 3.58549e-05 -1.6038e-05 0 3.80685e-05 -1.53183e-05 0 4.01826e-05 -1.43733e-05 0 4.21561e-05 -1.32113e-05 0 4.39519e-05 -1.18554e-05 0 4.5539e-05 -1.03259e-05 0 4.68928e-05 -8.64943e-06 0 4.79948e-05 -6.8537e-06 0 4.88319e-05 -4.96637e-06 0 4.93956e-05 -3.01436e-06 0 4.96806e-05 -1.02363e-06 0 4.96846e-05 9.80508e-07 0 4.94073e-05 2.97256e-06 0 4.8851e-05 4.92716e-06 0 4.80206e-05 6.81825e-06 0 4.69244e-05 8.61877e-06 0 4.55754e-05 1.03009e-05 0 4.39918e-05 1.18366e-05 0 4.21982e-05 1.31991e-05 0 4.02255e-05 1.43678e-05 0 3.81107e-05 1.53193e-05 0 3.58953e-05 1.6045e-05 0 3.36225e-05 1.65426e-05 0 3.1335e-05 1.68179e-05 0 2.90722e-05 1.68862e-05 0 2.68674e-05 1.67687e-05 0 2.47473e-05 1.64908e-05 0 2.43227e-05 -1.8602e-05 0 2.65932e-05 -1.89916e-05 0 2.89791e-05 -1.9198e-05 0 3.14509e-05 -1.91877e-05 0 3.39694e-05 -1.89316e-05 0 3.64871e-05 -1.84084e-05 0 3.89514e-05 -1.76095e-05 0 4.13085e-05 -1.65379e-05 0 4.35077e-05 -1.52054e-05 0 4.55051e-05 -1.36426e-05 0 4.72651e-05 -1.18767e-05 0 4.8761e-05 -9.94185e-06 0 4.99744e-05 -7.87233e-06 0 5.08933e-05 -5.70111e-06 0 5.15105e-05 -3.4591e-06 0 5.18224e-05 -1.17511e-06 0 5.18271e-05 1.1234e-06 0 5.15244e-05 3.40901e-06 0 5.09159e-05 5.65419e-06 0 5.00049e-05 7.83001e-06 0 4.87984e-05 9.9054e-06 0 4.73081e-05 1.18472e-05 0 4.55522e-05 1.36208e-05 0 4.35573e-05 1.51917e-05 0 4.13587e-05 1.65325e-05 0 3.90006e-05 1.7612e-05 0 3.65337e-05 1.84182e-05 0 3.40121e-05 1.89478e-05 0 3.14885e-05 1.92091e-05 0 2.9011e-05 1.92232e-05 0 2.6619e-05 1.90191e-05 0 2.43423e-05 1.86305e-05 0 2.37736e-05 -2.0884e-05 0 2.622e-05 -2.142e-05 0 2.88229e-05 -2.17478e-05 0 3.15496e-05 -2.18218e-05 0 3.43535e-05 -2.16017e-05 0 3.71752e-05 -2.10573e-05 0 3.99475e-05 -2.01761e-05 0 4.26014e-05 -1.89627e-05 0 4.50732e-05 -1.74346e-05 0 4.73095e-05 -1.56334e-05 0 4.92701e-05 -1.35967e-05 0 5.09272e-05 -1.13687e-05 0 5.22642e-05 -8.99219e-06 0 5.3272e-05 -6.50611e-06 0 5.39467e-05 -3.94529e-06 0 5.4287e-05 -1.34077e-06 0 5.42926e-05 1.27885e-06 0 5.39632e-05 3.88534e-06 0 5.32989e-05 6.45002e-06 0 5.23006e-05 8.94171e-06 0 5.09719e-05 1.13254e-05 0 4.93213e-05 1.35619e-05 0 4.73656e-05 1.56081e-05 0 4.51319e-05 1.74193e-05 0 4.26607e-05 1.89576e-05 0 4.00053e-05 2.01808e-05 0 3.72295e-05 2.10709e-05 0 3.44025e-05 2.16231e-05 0 3.15921e-05 2.18494e-05 0 2.8858e-05 2.17797e-05 0 2.62474e-05 2.14544e-05 0 2.37933e-05 2.09192e-05 0 2.3061e-05 -2.33274e-05 0 2.57007e-05 -2.40567e-05 0 2.85504e-05 -2.45525e-05 0 3.15755e-05 -2.47521e-05 0 3.47201e-05 -2.4598e-05 0 3.79089e-05 -2.40462e-05 0 4.10537e-05 -2.30782e-05 0 4.4064e-05 -2.1701e-05 0 4.68578e-05 -1.99421e-05 0 4.93704e-05 -1.786e-05 0 5.15569e-05 -1.55076e-05 0 5.33905e-05 -1.29434e-05 0 5.4859e-05 -1.02207e-05 0 5.5959e-05 -7.38494e-06 0 5.66922e-05 -4.47444e-06 0 5.70612e-05 -1.5211e-06 0 5.70678e-05 1.44702e-06 0 5.67119e-05 4.40273e-06 0 5.59912e-05 7.3179e-06 0 5.49025e-05 1.01604e-05 0 5.34438e-05 1.2892e-05 0 5.16181e-05 1.54665e-05 0 4.94373e-05 1.78306e-05 0 4.69278e-05 1.99251e-05 0 4.41344e-05 2.16965e-05 0 4.1122e-05 2.30859e-05 0 3.79725e-05 2.4065e-05 0 3.47768e-05 2.46262e-05 0 3.16237e-05 2.47877e-05 0 2.85892e-05 2.45931e-05 0 2.57295e-05 2.40999e-05 0 2.30803e-05 2.33708e-05 0 2.21039e-05 -2.59424e-05 0 2.4953e-05 -2.69265e-05 0 2.80862e-05 -2.76542e-05 0 3.14695e-05 -2.80383e-05 0 3.50366e-05 -2.79944e-05 0 3.86891e-05 -2.74558e-05 0 4.23056e-05 -2.63935e-05 0 4.57613e-05 -2.48193e-05 0 4.89471e-05 -2.27784e-05 0 5.17835e-05 -2.03563e-05 0 5.42232e-05 -1.76292e-05 0 5.62454e-05 -1.46753e-05 0 5.78479e-05 -1.15606e-05 0 5.90379e-05 -8.33727e-06 0 5.98261e-05 -5.04546e-06 0 6.02216e-05 -1.71571e-06 0 6.02295e-05 1.62711e-06 0 5.98497e-05 4.95969e-06 0 5.90764e-05 8.25711e-06 0 5.79e-05 1.14886e-05 0 5.63094e-05 1.4614e-05 0 5.42968e-05 1.75806e-05 0 5.1864e-05 2.0322e-05 0 4.90312e-05 2.27595e-05 0 4.58458e-05 2.4816e-05 0 4.2387e-05 2.64053e-05 0 3.87642e-05 2.74813e-05 0 3.51027e-05 2.80315e-05 0 3.15245e-05 2.80843e-05 0 2.81289e-05 2.7706e-05 0 2.49831e-05 2.69808e-05 0 2.21218e-05 2.59962e-05 0 2.08558e-05 -2.87318e-05 0 2.39211e-05 -3.00516e-05 0 2.73701e-05 -3.11008e-05 0 3.11765e-05 -3.17567e-05 0 3.52649e-05 -3.18915e-05 0 3.95038e-05 -3.13984e-05 0 4.37186e-05 -3.02291e-05 0 4.77292e-05 -2.84049e-05 0 5.13856e-05 -2.60038e-05 0 5.45915e-05 -2.31564e-05 0 5.73031e-05 -1.99754e-05 0 5.95147e-05 -1.65654e-05 0 6.12427e-05 -1.30065e-05 0 6.25114e-05 -9.35614e-06 0 6.33451e-05 -5.65308e-06 0 6.37619e-05 -1.92282e-06 0 6.37714e-05 1.81685e-06 0 6.33733e-05 5.55047e-06 0 6.25576e-05 9.26021e-06 0 6.13053e-05 1.29204e-05 0 5.95917e-05 1.64921e-05 0 5.73918e-05 1.99177e-05 0 5.46886e-05 2.31162e-05 0 5.14872e-05 2.59826e-05 0 4.7831e-05 2.84032e-05 0 4.38163e-05 3.02464e-05 0 3.95933e-05 3.14329e-05 0 3.53425e-05 3.19404e-05 0 3.12396e-05 3.18163e-05 0 2.7417e-05 3.1167e-05 0 2.39518e-05 3.012e-05 0 2.08711e-05 2.87985e-05 0 1.92565e-05 -3.16842e-05 0 2.25291e-05 -3.34438e-05 0 2.63165e-05 -3.49397e-05 0 3.06157e-05 -3.59993e-05 0 3.53492e-05 -3.64232e-05 0 4.03386e-05 -3.60297e-05 0 4.53272e-05 -3.47296e-05 0 5.00342e-05 -3.25662e-05 0 5.42506e-05 -2.96822e-05 0 5.78653e-05 -2.62863e-05 0 6.08525e-05 -2.25466e-05 0 6.32374e-05 -1.86003e-05 0 6.50674e-05 -1.45407e-05 0 6.63922e-05 -1.04255e-05 0 6.72542e-05 -6.28649e-06 0 6.76833e-05 -2.1388e-06 0 6.76946e-05 2.01211e-06 0 6.72878e-05 6.16374e-06 0 6.64472e-05 1.03106e-05 0 6.51423e-05 1.44375e-05 0 6.33299e-05 1.85125e-05 0 6.09594e-05 2.24775e-05 0 5.79828e-05 2.62388e-05 0 5.43737e-05 2.96583e-05 0 5.01576e-05 3.25668e-05 0 4.54452e-05 3.47541e-05 0 4.04457e-05 3.60759e-05 0 3.54408e-05 3.64874e-05 0 3.06882e-05 3.60768e-05 0 2.63679e-05 3.50247e-05 0 2.25595e-05 3.35304e-05 0 1.92674e-05 3.17672e-05 0 1.71245e-05 -3.47625e-05 0 2.05552e-05 -3.70921e-05 0 2.46753e-05 -3.92101e-05 0 2.95462e-05 -4.0881e-05 0 3.51246e-05 -4.17867e-05 0 4.11751e-05 -4.159e-05 0 4.72666e-05 -4.01158e-05 0 5.29128e-05 -3.74482e-05 0 5.78076e-05 -3.38778e-05 0 6.18508e-05 -2.97517e-05 0 6.5078e-05 -2.53165e-05 0 6.75794e-05 -2.07422e-05 0 6.94535e-05 -1.61259e-05 0 7.07862e-05 -1.15155e-05 0 7.1643e-05 -6.92695e-06 0 7.20673e-05 -2.35742e-06 0 7.20807e-05 2.2061e-06 0 7.16829e-05 6.78014e-06 0 7.08519e-05 1.13777e-05 0 6.95433e-05 1.60018e-05 0 6.76908e-05 2.06363e-05 0 6.52076e-05 2.52333e-05 0 6.19939e-05 2.96949e-05 0 5.79583e-05 3.38504e-05 0 5.30641e-05 3.74516e-05 0 4.74111e-05 4.01496e-05 0 4.13054e-05 4.16516e-05 0 3.52341e-05 4.18714e-05 0 2.96303e-05 4.09821e-05 0 2.47314e-05 3.93197e-05 0 2.05834e-05 3.72023e-05 0 1.71275e-05 3.4866e-05 0 1.44416e-05 -3.78883e-05 0 1.79341e-05 -4.09371e-05 0 2.23193e-05 -4.39118e-05 0 2.77875e-05 -4.65238e-05 0 3.44255e-05 -4.82759e-05 0 4.1975e-05 -4.84872e-05 0 4.95917e-05 -4.67339e-05 0 5.64751e-05 -4.32296e-05 0 6.21275e-05 -3.86257e-05 0 6.65534e-05 -3.35088e-05 0 6.99291e-05 -2.82125e-05 0 7.24518e-05 -2.29169e-05 0 7.42889e-05 -1.76995e-05 0 7.55679e-05 -1.25802e-05 0 7.63788e-05 -7.54667e-06 0 7.67784e-05 -2.56961e-06 0 7.67942e-05 2.38919e-06 0 7.64259e-05 7.37126e-06 0 7.56456e-05 1.24149e-05 0 7.43958e-05 1.75499e-05 0 7.25854e-05 2.27885e-05 0 7.00857e-05 2.81111e-05 0 6.67276e-05 3.34396e-05 0 6.23122e-05 3.85931e-05 0 5.66614e-05 4.32361e-05 0 4.97697e-05 4.67796e-05 0 4.21346e-05 4.85692e-05 0 3.45577e-05 4.83877e-05 0 2.78854e-05 4.66564e-05 0 2.23797e-05 4.40543e-05 0 1.79576e-05 4.10782e-05 0 1.44322e-05 3.80181e-05 0 1.10566e-05 -4.09272e-05 0 1.44213e-05 -4.4836e-05 0 1.88657e-05 -4.89432e-05 0 2.48015e-05 -5.29907e-05 0 3.27004e-05 -5.63134e-05 0 4.26001e-05 -5.75916e-05 0 5.29834e-05 -5.51532e-05 0 6.15032e-05 -5.00755e-05 0 6.78563e-05 -4.3862e-05 0 7.24653e-05 -3.7419e-05 0 7.57858e-05 -3.10933e-05 0 7.81615e-05 -2.50057e-05 0 7.98344e-05 -1.91711e-05 0 8.09705e-05 -1.35571e-05 0 8.16791e-05 -8.10941e-06 0 8.20269e-05 -2.76361e-06 0 8.20452e-05 2.54913e-06 0 8.1734e-05 7.90028e-06 0 8.10616e-05 1.3359e-05 0 7.99608e-05 1.89902e-05 0 7.83211e-05 2.4849e-05 0 7.59749e-05 3.09683e-05 0 7.2678e-05 3.7333e-05 0 6.80839e-05 4.38216e-05 0 6.17345e-05 5.0085e-05 0 5.32053e-05 5.52139e-05 0 4.27984e-05 5.77002e-05 0 3.28621e-05 5.64617e-05 0 2.49168e-05 5.3166e-05 0 1.89298e-05 4.913e-05 0 1.44355e-05 4.50181e-05 0 1.10277e-05 4.10907e-05 0 6.87111e-06 -4.3668e-05 0 9.80371e-06 -4.85077e-05 0 1.38742e-05 -5.39698e-05 0 1.97183e-05 -6.00363e-05 0 2.85051e-05 -6.63595e-05 0 4.28013e-05 -7.06167e-05 0 5.98479e-05 -6.63837e-05 0 7.00075e-05 -5.787e-05 0 7.6489e-05 -4.92522e-05 0 8.07915e-05 -4.1172e-05 0 8.37017e-05 -3.37178e-05 0 8.56825e-05 -2.68324e-05 0 8.70219e-05 -2.04178e-05 0 8.79031e-05 -1.43661e-05 0 8.84416e-05 -8.56987e-06 0 8.87054e-05 -2.92488e-06 0 8.87263e-05 2.6711e-06 0 8.85046e-05 8.3214e-06 0 8.80086e-05 1.41288e-05 0 8.71698e-05 2.01988e-05 0 8.58718e-05 2.664e-05 0 8.39294e-05 3.35616e-05 0 8.10515e-05 4.10625e-05 0 7.67714e-05 4.91992e-05 0 7.0298e-05 5.78812e-05 0 6.01287e-05 6.64625e-05 0 4.30522e-05 7.07602e-05 0 2.8707e-05 6.65572e-05 0 1.98562e-05 6.02704e-05 0 1.39408e-05 5.42175e-05 0 9.80131e-06 4.87454e-05 0 6.81086e-06 4.38752e-05 0 1.99409e-06 -4.58507e-05 0 4.16174e-06 -5.1546e-05 0 7.29779e-06 -5.83519e-05 0 1.20489e-05 -6.66581e-05 0 1.9675e-05 -7.71298e-05 0 3.29149e-05 -9.19342e-05 0 4.87597e-05 -7.94855e-05 0 5.7786e-05 -6.54595e-05 0 6.31341e-05 -5.40387e-05 0 6.64413e-05 -4.42811e-05 0 6.85287e-05 -3.5768e-05 0 6.98559e-05 -2.81877e-05 0 7.06965e-05 -2.13027e-05 0 7.12184e-05 -1.4921e-05 0 7.15248e-05 -8.88067e-06 0 7.16758e-05 -3.03823e-06 0 7.16992e-05 2.73998e-06 0 7.15956e-05 8.58707e-06 0 7.13381e-05 1.46377e-05 0 7.08667e-05 2.1037e-05 0 7.00776e-05 2.79497e-05 0 6.88004e-05 3.55701e-05 0 6.67578e-05 4.41379e-05 0 6.34843e-05 5.39652e-05 0 5.81524e-05 6.54687e-05 0 4.91181e-05 7.95852e-05 0 3.32367e-05 9.21232e-05 0 1.99312e-05 7.7395e-05 0 1.22163e-05 6.69743e-05 0 7.3648e-06 5.86852e-05 0 4.13203e-06 5.18601e-05 0 1.88599e-06 4.61152e-05 0 -3.5119e-06 -4.72111e-05 0 -2.4612e-06 -5.34932e-05 0 -8.97737e-07 -6.12702e-05 0 1.56137e-06 -7.12419e-05 0 5.49984e-06 -8.45549e-05 0 1.11572e-05 -0.000103196 0 1.70245e-05 -8.81691e-05 0 2.14854e-05 -7.0704e-05 0 2.41723e-05 -5.71869e-05 0 2.56808e-05 -4.61703e-05 0 2.64843e-05 -3.68989e-05 0 2.68801e-05 -2.88569e-05 0 2.70499e-05 -2.16907e-05 0 2.71062e-05 -1.51394e-05 0 2.71185e-05 -8.99692e-06 0 2.71274e-05 -3.08915e-06 0 2.71526e-05 2.742e-06 0 2.71953e-05 8.65272e-06 0 2.7238e-05 1.48026e-05 0 2.72412e-05 2.13686e-05 0 2.71353e-05 2.85607e-05 0 2.68055e-05 3.66446e-05 0 2.60652e-05 4.5978e-05 0 2.46094e-05 5.70792e-05 0 2.1954e-05 7.07027e-05 0 1.74923e-05 8.82904e-05 0 1.15822e-05 0.000103444 0 5.83682e-06 8.49134e-05 0 1.77167e-06 7.16755e-05 0 -8.34496e-07 6.17267e-05 0 -2.53914e-06 5.39153e-05 0 -3.6995e-06 4.75514e-05 0 -9.29525e-06 -4.75562e-05 0 -9.54377e-06 -5.39809e-05 0 -9.9102e-06 -6.2054e-05 0 -1.03339e-05 -7.26091e-05 0 -1.06971e-05 -8.6825e-05 0 -1.09251e-05 -0.000106161 0 -1.11545e-05 -9.0689e-05 0 -1.1577e-05 -7.21966e-05 0 -1.22054e-05 -5.78689e-05 0 -1.29441e-05 -4.63587e-05 0 -1.36992e-05 -3.68239e-05 0 -1.44029e-05 -2.86645e-05 0 -1.50082e-05 -2.1473e-05 0 -1.54823e-05 -1.4955e-05 0 -1.58026e-05 -8.88253e-06 0 -1.59541e-05 -3.06558e-06 0 -1.59283e-05 2.66688e-06 0 -1.57231e-05 8.48357e-06 0 -1.53432e-05 1.45577e-05 0 -1.48006e-05 2.10833e-05 0 -1.41168e-05 2.82943e-05 0 -1.33264e-05 3.64927e-05 0 -1.24817e-05 4.60938e-05 0 -1.1661e-05 5.77041e-05 0 -1.09739e-05 7.21676e-05 0 -1.05349e-05 9.08274e-05 0 -1.03502e-05 0.000106481 0 -1.0239e-05 8.73131e-05 0 -1.0059e-05 7.32146e-05 0 -9.85659e-06 6.2694e-05 0 -9.70303e-06 5.45605e-05 0 -9.61179e-06 4.79984e-05 0 -1.49738e-05 -4.68482e-05 0 -1.65023e-05 -5.28649e-05 0 -1.88609e-05 -6.04153e-05 0 -2.22963e-05 -7.03701e-05 0 -2.70548e-05 -8.39597e-05 0 -3.31007e-05 -0.00010288 0 -3.94223e-05 -8.7589e-05 0 -4.47323e-05 -6.96006e-05 0 -4.87844e-05 -5.57534e-05 0 -5.18645e-05 -4.46263e-05 0 -5.42441e-05 -3.54054e-05 0 -5.60923e-05 -2.75237e-05 0 -5.75043e-05 -2.05942e-05 0 -5.85308e-05 -1.43331e-05 0 -5.91982e-05 -8.51765e-06 0 -5.95182e-05 -2.96004e-06 0 -5.94939e-05 2.51035e-06 0 -5.9122e-05 8.06244e-06 0 -5.83932e-05 1.38696e-05 0 -5.72904e-05 2.01251e-05 0 -5.5784e-05 2.70603e-05 0 -5.3823e-05 3.497e-05 0 -5.13175e-05 4.42544e-05 0 -4.8111e-05 5.54941e-05 0 -4.39537e-05 6.95112e-05 0 -3.85906e-05 8.77278e-05 0 -3.23034e-05 0.000103286 0 -2.64078e-05 8.46286e-05 0 -2.19171e-05 7.12334e-05 0 -1.88248e-05 6.13388e-05 0 -1.68001e-05 5.36833e-05 0 -1.55041e-05 4.74282e-05 0 -2.00789e-05 -4.52541e-05 0 -2.26227e-05 -5.02572e-05 0 -2.67386e-05 -5.64263e-05 0 -3.29138e-05 -6.45809e-05 0 -4.19239e-05 -7.58035e-05 0 -5.48851e-05 -9.26222e-05 0 -6.89698e-05 -7.85431e-05 0 -7.92011e-05 -6.30004e-05 0 -8.63124e-05 -5.09485e-05 0 -9.14597e-05 -4.1039e-05 0 -9.53022e-05 -3.26762e-05 0 -9.82061e-05 -2.54482e-05 0 -0.000100377 -1.90578e-05 0 -0.000101932 -1.32726e-05 0 -0.000102936 -7.89963e-06 0 -0.000103422 -2.76962e-06 0 -0.000103402 2.27493e-06 0 -0.000102873 7.39144e-06 0 -0.000101811 1.27407e-05 0 -0.000100176 1.84988e-05 0 -9.78949e-05 2.48696e-05 0 -9.48474e-05 3.2101e-05 0 -9.08302e-05 4.05109e-05 0 -8.54899e-05 5.05348e-05 0 -7.81949e-05 6.27898e-05 0 -6.78361e-05 7.8639e-05 0 -5.37439e-05 9.31135e-05 0 -4.0961e-05 7.67209e-05 0 -3.23458e-05 6.58424e-05 0 -2.67276e-05 5.78105e-05 0 -2.31696e-05 5.14579e-05 0 -2.09874e-05 4.60213e-05 0 -2.41118e-05 -4.32022e-05 0 -2.7158e-05 -4.65064e-05 0 -3.2604e-05 -5.04721e-05 0 -4.08196e-05 -5.58721e-05 0 -5.263e-05 -6.28796e-05 0 -7.16103e-05 -7.02326e-05 0 -9.48982e-05 -6.34748e-05 0 -0.000108176 -5.32414e-05 0 -0.000117217 -4.40418e-05 0 -0.000123811 -3.59402e-05 0 -0.000128772 -2.88297e-05 0 -0.000132537 -2.25461e-05 0 -0.000135357 -1.69238e-05 0 -0.000137378 -1.18051e-05 0 -0.000138686 -7.04231e-06 0 -0.000139327 -2.49573e-06 0 -0.000139317 1.96998e-06 0 -0.00013865 6.49198e-06 0 -0.000137297 1.12091e-05 0 -0.000135198 1.62683e-05 0 -0.000132257 2.18301e-05 0 -0.000128316 2.8072e-05 0 -0.00012312 3.51885e-05 0 -0.00011624 4.33822e-05 0 -0.00010689 5.2803e-05 0 -9.33437e-05 6.34314e-05 0 -6.99344e-05 7.07688e-05 0 -5.11196e-05 6.4121e-05 0 -3.98803e-05 5.77614e-05 0 -3.26083e-05 5.26506e-05 0 -2.81692e-05 4.83653e-05 0 -2.57239e-05 4.42202e-05 0 -2.64305e-05 -4.15233e-05 0 -2.92031e-05 -4.2058e-05 0 -3.57675e-05 -4.2969e-05 0 -4.54317e-05 -4.54396e-05 0 -5.76987e-05 -4.87305e-05 0 -7.25789e-05 -5.04809e-05 0 -8.78353e-05 -4.79258e-05 0 -0.000100242 -4.23337e-05 0 -0.000109721 -3.60004e-05 0 -0.00011702 -2.98465e-05 0 -0.000122687 -2.41565e-05 0 -0.000127075 -1.89847e-05 0 -0.000130404 -1.42884e-05 0 -0.00013281 -9.9841e-06 0 -0.000134379 -5.97103e-06 0 -0.000135158 -2.14245e-06 0 -0.000135164 1.61061e-06 0 -0.000134389 5.40039e-06 0 -0.000132801 9.33877e-06 0 -0.000130333 1.35389e-05 0 -0.000126883 1.81141e-05 0 -0.000122292 2.31702e-05 0 -0.000116322 2.87862e-05 0 -0.000108616 3.49637e-05 0 -9.86415e-05 4.14912e-05 0 -8.57206e-05 4.75466e-05 0 -7.00805e-05 5.0915e-05 0 -5.52123e-05 5.03279e-05 0 -4.36963e-05 4.83172e-05 0 -3.56853e-05 4.66156e-05 0 -3.11322e-05 4.51752e-05 0 -2.94638e-05 4.28485e-05 0 -2.57085e-05 -4.20375e-05 0 -2.70526e-05 -3.69706e-05 0 -3.59335e-05 -3.35468e-05 0 -4.76113e-05 -3.39688e-05 0 -5.98198e-05 -3.57577e-05 0 -7.23128e-05 -3.65467e-05 0 -8.44662e-05 -3.51749e-05 0 -9.52944e-05 -3.19152e-05 0 -0.000104395 -2.76981e-05 0 -0.000111857 -2.32545e-05 0 -0.000117893 -1.89506e-05 0 -0.000122691 -1.49415e-05 0 -0.000126395 -1.12592e-05 0 -0.000129104 -7.87178e-06 0 -0.000130889 -4.71612e-06 0 -0.000131787 -1.7147e-06 0 -0.000131817 1.21573e-06 0 -0.000130968 4.16172e-06 0 -0.000129208 7.2077e-06 0 -0.000126473 1.04343e-05 0 -0.000122668 1.39135e-05 0 -0.000117658 1.76971e-05 0 -0.000111262 2.17924e-05 0 -0.000103257 2.61135e-05 0 -9.34144e-05 3.04012e-05 0 -8.16808e-05 3.40982e-05 0 -6.86144e-05 3.64916e-05 0 -5.55985e-05 3.75207e-05 0 -4.40498e-05 3.8286e-05 0 -3.52205e-05 4.01033e-05 0 -3.09354e-05 4.29104e-05 0 -3.20119e-05 4.35734e-05 0 -1.73619e-05 -5.06761e-05 0 -1.6055e-05 -2.84044e-05 0 -3.41753e-05 -1.95746e-05 0 -4.95797e-05 -2.12935e-05 0 -6.15132e-05 -2.39604e-05 0 -7.22895e-05 -2.50731e-05 0 -8.2574e-05 -2.44143e-05 0 -9.21528e-05 -2.23862e-05 0 -0.000100716 -1.95728e-05 0 -0.000108114 -1.64858e-05 0 -0.000114327 -1.34301e-05 0 -0.000119395 -1.05615e-05 0 -0.000123374 -7.93029e-06 0 -0.000126319 -5.52606e-06 0 -0.000128279 -3.30697e-06 0 -0.000129282 -1.21676e-06 0 -0.000129343 8.05807e-07 0 -0.000128454 2.82349e-06 0 -0.000126583 4.89538e-06 0 -0.000123675 7.07422e-06 0 -0.000119649 9.40159e-06 0 -0.0001144 1.18977e-05 0 -0.000107807 1.45434e-05 0 -9.97526e-05 1.72522e-05 0 -9.01748e-05 1.98472e-05 0 -7.91643e-05 2.20585e-05 0 -6.70711e-05 2.3699e-05 0 -5.44492e-05 2.50041e-05 0 -4.18411e-05 2.70156e-05 0 -3.02281e-05 3.19648e-05 0 -2.42065e-05 4.25132e-05 0 -3.29944e-05 5.11187e-05 0 2.74451e-05 -0.000107068 0 1.19058e-05 9.78117e-06 0 -3.9278e-05 3.02702e-06 0 -5.48686e-05 -8.86373e-06 0 -6.40299e-05 -1.39658e-05 0 -7.26208e-05 -1.54609e-05 0 -8.13892e-05 -1.50541e-05 0 -9.00602e-05 -1.36168e-05 0 -9.82214e-05 -1.16961e-05 0 -0.000105563 -9.65792e-06 0 -0.000111909 -7.70491e-06 0 -0.000117186 -5.93423e-06 0 -0.000121383 -4.36953e-06 0 -0.000124518 -2.99338e-06 0 -0.00012662 -1.7688e-06 0 -0.000127715 -6.52029e-07 0 -0.000127816 4.00631e-07 0 -0.000126916 1.43076e-06 0 -0.000124991 2.47478e-06 0 -0.000121991 3.56245e-06 0 -0.00011785 4.71458e-06 0 -0.000112486 5.93752e-06 0 -0.00010582 7.21405e-06 0 -9.77947e-05 8.49173e-06 0 -8.84137e-05 9.68004e-06 0 -7.7773e-05 1.0661e-05 0 -6.60411e-05 1.13774e-05 0 -5.32924e-05 1.19734e-05 0 -3.90748e-05 1.30966e-05 0 -2.14882e-05 1.72387e-05 0 1.28526e-06 3.7927e-05 0 -3.01174e-05 9.05825e-05 0 -0.000662591 -0.0129722 0 -0.00010235 0.00012623 0 -6.86445e-05 1.39885e-05 0 -6.37063e-05 -3.13191e-06 0 -6.6581e-05 -7.25567e-06 0 -7.26566e-05 -7.63939e-06 0 -8.02924e-05 -6.68032e-06 0 -8.85007e-05 -5.29491e-06 0 -9.65999e-05 -3.8866e-06 0 -0.000104025 -2.72317e-06 0 -0.000110568 -1.78518e-06 0 -0.000116061 -1.09431e-06 0 -0.000120453 -6.17306e-07 0 -0.000123747 -3.08438e-07 0 -0.000125966 -1.23356e-07 0 -0.000127139 -2.44573e-08 0 -0.000127284 1.72728e-08 0 -0.0001264 2.35441e-08 0 -0.000124467 9.31204e-09 0 -0.000121444 -1.60283e-08 0 -0.000117271 -4.71506e-08 0 -0.000111877 -8.2386e-08 0 -0.0001052 -1.24336e-07 0 -9.72081e-05 -1.82002e-07 0 -8.79276e-05 -2.73869e-07 0 -7.74631e-05 -4.39744e-07 0 -6.5951e-05 -7.54846e-07 0 -5.33869e-05 -1.38786e-06 0 -3.91622e-05 -2.81983e-06 0 -2.04584e-05 -7.02741e-06 0 2.20611e-05 -3.03705e-05 0 -0.000348955 0.00359213 0 </DataArray> 
</PointData> 
<Points> 
<DataArray type="Float32" NumberOfComponents="3"> 