<?xml version="1.0"?> 
<VTKFile type="StructuredGrid" version="0.1"> 
<StructuredGrid WholeExtent="0 31 0 31 0 0"> 
<Piece Extent="0 31 0 31 0 0"> 
<PointData>
<DataArray type="Float32" Name="B" format="ascii" NumberOfComponents="3"> 
0 -5.50251e-06 0 -9.80396e-07 -5.53014e-06 0 -1.96935e-06 -5.60353e-06 0 -2.9753e-06 -5.7269e-06 0 -4.00721e-06 -5.905e-06 0 -5.07414e-06 -6.133e-06 0 -6.18554e-06 -6.42122e-06 0 -7.3517e-06 -6.76894e-06 0 -8.58325e-06 -7.17645e-06 0 -9.89197e-06 -7.66154e-06 0 -1.12907e-05 -8.21637e-06 0 -1.27934e-05 -8.85286e-06 0 -1.44161e-05 -9.58309e-06 0 -1.61767e-05 -1.04035e-05 0 -1.80958e-05 -1.13373e-05 0 -2.01982e-05 -1.23848e-05 0 -2.25132e-05 -1.35487e-05 0 -2.50781e-05 -1.48599e-05 0 -2.7941e-05 -1.62991e-05 0 -3.11655e-05 -1.78777e-05 0 -3.48452e-05 -1.95938e-05 0 -3.91147e-05 -2.14144e-05 0 -4.4184e-05 -2.3314e-05 0 -5.04033e-05 -2.52205e-05 0 -5.83503e-05 -2.70412e-05 0 -6.90846e-05 -2.86407e-05 0 -8.46151e-05 -2.98866e-05 0 -0.000109139 -3.07709e-05 0 -0.000152726 -3.1969e-05 0 -0.000246066 -3.78073e-05 0 -0.000542051 -8.53515e-05 0 -0.0305425 -0.0110559 0 0 -5.17363e-06 0 -9.9632e-07 -5.19965e-06 0 -2.00138e-06 -5.26877e-06 0 -3.02383e-06 -5.38497e-06 0 -4.07283e-06 -5.55271e-06 0 -5.15763e-06 -5.76745e-06 0 -6.28791e-06 -6.0389e-06 0 -7.47419e-06 -6.36638e-06 0 -8.72734e-06 -6.75013e-06 0 -1.00594e-05 -7.20687e-06 0 -1.14835e-05 -7.72916e-06 0 -1.30137e-05 -8.3281e-06 0 -1.46665e-05 -9.01485e-06 0 -1.64599e-05 -9.7858e-06 0 -1.84146e-05 -1.06622e-05 0 -2.05555e-05 -1.16435e-05 0 -2.29113e-05 -1.27311e-05 0 -2.55188e-05 -1.39507e-05 0 -2.84247e-05 -1.52814e-05 0 -3.16899e-05 -1.67266e-05 0 -3.54038e-05 -1.82718e-05 0 -3.96943e-05 -1.98717e-05 0 -4.47608e-05 -2.14574e-05 0 -5.09372e-05 -2.29065e-05 0 -5.87784e-05 -2.40252e-05 0 -6.93088e-05 -2.44513e-05 0 -8.44859e-05 -2.3599e-05 0 -0.000108419 -2.03519e-05 0 -0.000150964 -1.20954e-05 0 -0.000241796 1.01585e-05 0 -0.000517271 0.000112898 0 -0.000622527 0.00248727 0 0 -4.83961e-06 0 -1.01128e-06 -4.86399e-06 0 -2.03149e-06 -4.92875e-06 0 -3.06943e-06 -5.03762e-06 0 -4.13448e-06 -5.19478e-06 0 -5.23607e-06 -5.39598e-06 0 -6.38408e-06 -5.6503e-06 0 -7.58926e-06 -5.95709e-06 0 -8.86268e-06 -6.31658e-06 0 -1.02166e-05 -6.74436e-06 0 -1.16644e-05 -7.23343e-06 0 -1.32205e-05 -7.79406e-06 0 -1.49013e-05 -8.43651e-06 0 -1.67252e-05 -9.15715e-06 0 -1.87128e-05 -9.97529e-06 0 -2.08888e-05 -1.08896e-05 0 -2.32816e-05 -1.19002e-05 0 -2.59267e-05 -1.30281e-05 0 -2.88686e-05 -1.42509e-05 0 -3.21651e-05 -1.55646e-05 0 -3.58991e-05 -1.69431e-05 0 -4.01888e-05 -1.83297e-05 0 -4.52171e-05 -1.96151e-05 0 -5.12902e-05 -2.06292e-05 0 -5.8917e-05 -2.1083e-05 0 -6.90369e-05 -2.03993e-05 0 -8.34344e-05 -1.7566e-05 0 -0.000105786 -1.04443e-05 0 -0.000144501 6.48066e-06 0 -0.00022187 5.2625e-05 0 -0.000398488 0.000242324 0 -2.10301e-05 0.00122145 0 -1.15541e-19 -4.50079e-06 0 -1.02526e-06 -4.52349e-06 0 -2.05961e-06 -4.5838e-06 0 -3.11204e-06 -4.6852e-06 0 -4.19208e-06 -4.83157e-06 0 -5.30936e-06 -5.01895e-06 0 -6.47393e-06 -5.2558e-06 0 -7.69675e-06 -5.5415e-06 0 -8.98909e-06 -5.87624e-06 0 -1.03634e-05 -6.27452e-06 0 -1.18334e-05 -6.72974e-06 0 -1.34134e-05 -7.25137e-06 0 -1.51203e-05 -7.84876e-06 0 -1.69723e-05 -8.51835e-06 0 -1.89902e-05 -9.27746e-06 0 -2.11982e-05 -1.01241e-05 0 -2.3624e-05 -1.10576e-05 0 -2.63017e-05 -1.2094e-05 0 -2.92734e-05 -1.32102e-05 0 -3.25922e-05 -1.43954e-05 0 -3.63334e-05 -1.56133e-05 0 -4.06022e-05 -1.67971e-05 0 -4.55599e-05 -1.78016e-05 0 -5.14742e-05 -1.84144e-05 0 -5.8787e-05 -1.82614e-05 0 -6.83076e-05 -1.65764e-05 0 -8.15418e-05 -1.19833e-05 0 -0.000101454 -1.52343e-06 0 -0.000134131 2.23405e-05 0 -0.000191422 8.38734e-05 0 -0.000267226 0.000285138 0 0.000104659 0.000751947 0 0 -4.15747e-06 0 -1.03823e-06 -4.17847e-06 0 -2.08572e-06 -4.23426e-06 0 -3.15159e-06 -4.32805e-06 0 -4.24555e-06 -4.46344e-06 0 -5.37739e-06 -4.63675e-06 0 -6.55733e-06 -4.85581e-06 0 -7.79652e-06 -5.12005e-06 0 -9.10641e-06 -5.42961e-06 0 -1.04997e-05 -5.79785e-06 0 -1.19901e-05 -6.21866e-06 0 -1.35923e-05 -6.70067e-06 0 -1.53232e-05 -7.25235e-06 0 -1.72011e-05 -7.87021e-06 0 -1.92465e-05 -8.56971e-06 0 -2.14834e-05 -9.34841e-06 0 -2.39386e-05 -1.02045e-05 0 -2.66443e-05 -1.11502e-05 0 -2.96397e-05 -1.21616e-05 0 -3.29728e-05 -1.32224e-05 0 -3.67096e-05 -1.42873e-05 0 -4.094e-05 -1.52817e-05 0 -4.57987e-05 -1.603e-05 0 -5.15057e-05 -1.62849e-05 0 -5.84187e-05 -1.56019e-05 0 -6.71796e-05 -1.30628e-05 0 -7.89371e-05 -7.01606e-06 0 -9.57665e-05 6.04076e-06 0 -0.000121079 3.45855e-05 0 -0.000156843 0.000102353 0 -0.000163947 0.000276578 0 0.000131583 0.000514091 0 0 -3.81002e-06 0 -1.05019e-06 -3.82929e-06 0 -2.10977e-06 -3.88048e-06 0 -3.18803e-06 -3.96653e-06 0 -4.29481e-06 -4.09075e-06 0 -5.44005e-06 -4.24977e-06 0 -6.63416e-06 -4.45076e-06 0 -7.88842e-06 -4.69317e-06 0 -9.21446e-06 -4.97715e-06 0 -1.06251e-05 -5.3149e-06 0 -1.21343e-05 -5.70077e-06 0 -1.37569e-05 -6.14259e-06 0 -1.55097e-05 -6.64799e-06 0 -1.74112e-05 -7.21356e-06 0 -1.94815e-05 -7.85299e-06 0 -2.17443e-05 -8.56345e-06 0 -2.42252e-05 -9.34241e-06 0 -2.69547e-05 -1.01984e-05 0 -2.99685e-05 -1.11074e-05 0 -3.33088e-05 -1.20485e-05 0 -3.70312e-05 -1.29696e-05 0 -4.12084e-05 -1.37902e-05 0 -4.59448e-05 -1.43114e-05 0 -5.14053e-05 -1.42598e-05 0 -5.78499e-05 -1.31389e-05 0 -6.57271e-05 -9.92256e-06 0 -7.57828e-05 -2.78693e-06 0 -8.91427e-05 1.20175e-05 0 -0.000106674 4.29086e-05 0 -0.00012318 0.000109676 0 -9.2196e-05 0.00024734 0 0.000133917 0.000374447 0 3.93215e-19 -3.45876e-06 0 -1.06111e-06 -3.47627e-06 0 -2.13174e-06 -3.52279e-06 0 -3.22131e-06 -3.601e-06 0 -4.3398e-06 -3.71389e-06 0 -5.4973e-06 -3.8584e-06 0 -6.70433e-06 -4.04105e-06 0 -7.97235e-06 -4.26133e-06 0 -9.31312e-06 -4.51936e-06 0 -1.07397e-05 -4.82619e-06 0 -1.2266e-05 -5.17665e-06 0 -1.3907e-05 -5.5778e-06 0 -1.56798e-05 -6.03639e-06 0 -1.76025e-05 -6.54921e-06 0 -1.96953e-05 -7.12822e-06 0 -2.1981e-05 -7.77035e-06 0 -2.44844e-05 -8.4725e-06 0 -2.72337e-05 -9.24012e-06 0 -3.02611e-05 -1.00494e-05 0 -3.36026e-05 -1.08761e-05 0 -3.73027e-05 -1.16636e-05 0 -4.14152e-05 -1.2328e-05 0 -4.60118e-05 -1.26545e-05 0 -5.11972e-05 -1.23538e-05 0 -5.71252e-05 -1.08978e-05 0 -6.40374e-05 -7.20046e-06 0 -7.22636e-05 6.2992e-07 0 -8.20219e-05 1.63191e-05 0 -9.2095e-05 4.74901e-05 0 -9.32644e-05 0.000108725 0 -4.42411e-05 0.000212989 0 0.000129669 0.000283805 0 0 -3.10404e-06 0 -1.07098e-06 -3.11978e-06 0 -2.1516e-06 -3.16157e-06 0 -3.25139e-06 -3.23182e-06 0 -4.38047e-06 -3.33324e-06 0 -5.54903e-06 -3.46305e-06 0 -6.76775e-06 -3.62712e-06 0 -8.0482e-06 -3.82498e-06 0 -9.40228e-06 -4.05672e-06 0 -1.08431e-05 -4.33225e-06 0 -1.23849e-05 -4.6469e-06 0 -1.40426e-05 -5.00692e-06 0 -1.58333e-05 -5.41828e-06 0 -1.7775e-05 -5.87794e-06 0 -1.98877e-05 -6.39628e-06 0 -2.21936e-05 -6.9701e-06 0 -2.47163e-05 -7.59593e-06 0 -2.74819e-05 -8.27666e-06 0 -3.05188e-05 -8.98931e-06 0 -3.38567e-05 -9.70742e-06 0 -3.75285e-05 -1.03721e-05 0 -4.15686e-05 -1.08987e-05 0 -4.60141e-05 -1.10653e-05 0 -5.09074e-05 -1.05767e-05 0 -5.62924e-05 -8.89453e-06 0 -6.22016e-05 -4.92072e-06 0 -6.85648e-05 3.20829e-06 0 -7.48068e-05 1.89808e-05 0 -7.82213e-05 4.88118e-05 0 -6.81323e-05 0.000102309 0 -1.23902e-05 0.000179777 0 0.000123989 0.000220444 0 0 -2.74622e-06 0 -1.07977e-06 -2.76015e-06 0 -2.16929e-06 -2.79716e-06 0 -3.27819e-06 -2.85937e-06 0 -4.4167e-06 -2.94917e-06 0 -5.59513e-06 -3.06412e-06 0 -6.82425e-06 -3.20939e-06 0 -8.11577e-06 -3.38457e-06 0 -9.4817e-06 -3.58973e-06 0 -1.09353e-05 -3.83363e-06 0 -1.24908e-05 -4.11209e-06 0 -1.41632e-05 -4.43061e-06 0 -1.59697e-05 -4.79436e-06 0 -1.79283e-05 -5.20056e-06 0 -2.00584e-05 -5.65805e-06 0 -2.23818e-05 -6.16365e-06 0 -2.49209e-05 -6.71374e-06 0 -2.76997e-05 -7.30921e-06 0 -3.07427e-05 -7.92833e-06 0 -3.40734e-05 -8.54386e-06 0 -3.77131e-05 -9.09693e-06 0 -4.16764e-05 -9.50479e-06 0 -4.59663e-05 -9.54674e-06 0 -5.05625e-05 -8.93273e-06 0 -5.54004e-05 -7.13475e-06 0 -6.03118e-05 -3.08738e-06 0 -6.48639e-05 4.9648e-06 0 -6.7844e-05 2.01282e-05 0 -6.5642e-05 4.74792e-05 0 -4.78172e-05 9.26086e-05 0 8.81765e-06 0.000149689 0 0.000118492 0.000173526 0 3.93703e-20 -2.38566e-06 0 -1.0875e-06 -2.39777e-06 0 -2.18485e-06 -2.42994e-06 0 -3.30176e-06 -2.48402e-06 0 -4.44856e-06 -2.56209e-06 0 -5.63566e-06 -2.66201e-06 0 -6.87393e-06 -2.7883e-06 0 -8.17518e-06 -2.94058e-06 0 -9.55152e-06 -3.11891e-06 0 -1.10163e-05 -3.33087e-06 0 -1.25838e-05 -3.57283e-06 0 -1.42692e-05 -3.84952e-06 0 -1.60896e-05 -4.16535e-06 0 -1.80627e-05 -4.51781e-06 0 -2.0208e-05 -4.91435e-06 0 -2.25464e-05 -5.35191e-06 0 -2.50992e-05 -5.82689e-06 0 -2.78885e-05 -6.33875e-06 0 -3.09351e-05 -6.8675e-06 0 -3.42562e-05 -7.38641e-06 0 -3.7862e-05 -7.83889e-06 0 -4.17483e-05 -8.14681e-06 0 -4.58847e-05 -8.09907e-06 0 -5.01905e-05 -7.42101e-06 0 -5.44985e-05 -5.61442e-06 0 -5.84556e-05 -1.68598e-06 0 -6.13164e-05 5.95067e-06 0 -6.13899e-05 1.99424e-05 0 -5.46284e-05 4.40949e-05 0 -3.16986e-05 8.11182e-05 0 2.32321e-05 0.000122985 0 0.000113651 0.000137113 0 0 -2.0227e-06 0 -1.09415e-06 -2.03297e-06 0 -2.19822e-06 -2.06026e-06 0 -3.32202e-06 -2.10615e-06 0 -4.47595e-06 -2.17238e-06 0 -5.6705e-06 -2.25716e-06 0 -6.91663e-06 -2.36429e-06 0 -8.22624e-06 -2.49347e-06 0 -9.61152e-06 -2.64474e-06 0 -1.10859e-05 -2.82452e-06 0 -1.26637e-05 -3.02971e-06 0 -1.43602e-05 -3.26428e-06 0 -1.61924e-05 -3.53193e-06 0 -1.8178e-05 -3.83045e-06 0 -2.03361e-05 -4.16599e-06 0 -2.26871e-05 -4.53572e-06 0 -2.52512e-05 -4.93624e-06 0 -2.80486e-05 -5.36611e-06 0 -3.10968e-05 -5.80753e-06 0 -3.44072e-05 -6.23551e-06 0 -3.79796e-05 -6.59794e-06 0 -4.1792e-05 -6.82383e-06 0 -4.57831e-05 -6.71957e-06 0 -4.98167e-05 -6.03544e-06 0 -5.36317e-05 -4.32041e-06 0 -5.67123e-05 -6.86103e-07 0 -5.80565e-05 6.24278e-06 0 -5.56418e-05 1.86297e-05 0 -4.53203e-05 3.91892e-05 0 -1.91973e-05 6.87771e-05 0 3.30496e-05 9.93053e-05 0 0.000109589 0.000107696 0 0 -1.65771e-06 0 -1.0997e-06 -1.66613e-06 0 -2.2094e-06 -1.68851e-06 0 -3.33895e-06 -1.72614e-06 0 -4.49884e-06 -1.78045e-06 0 -5.69961e-06 -1.84996e-06 0 -6.95231e-06 -1.93781e-06 0 -8.2689e-06 -2.04373e-06 0 -9.66165e-06 -2.16775e-06 0 -1.1144e-05 -2.31512e-06 0 -1.27305e-05 -2.48331e-06 0 -1.44362e-05 -2.67554e-06 0 -1.62782e-05 -2.89479e-06 0 -1.82742e-05 -3.13923e-06 0 -2.04428e-05 -3.41374e-06 0 -2.28041e-05 -3.71585e-06 0 -2.53773e-05 -4.04256e-06 0 -2.81809e-05 -4.39194e-06 0 -3.12293e-05 -4.74884e-06 0 -3.45288e-05 -5.09111e-06 0 -3.807e-05 -5.37314e-06 0 -4.18151e-05 -5.53337e-06 0 -4.56752e-05 -5.40284e-06 0 -4.94649e-05 -4.76521e-06 0 -5.28414e-05 -3.23148e-06 0 -5.51518e-05 -4.42842e-08 0 -5.51928e-05 5.93507e-06 0 -5.07309e-05 1.63999e-05 0 -3.77219e-05 3.31943e-05 0 -9.69552e-06 5.61311e-05 0 3.97606e-05 7.81158e-05 0 0.000106298 8.30625e-05 0 0 -1.29106e-06 0 -1.10416e-06 -1.29762e-06 0 -2.21836e-06 -1.31506e-06 0 -3.35252e-06 -1.34437e-06 0 -4.51719e-06 -1.38669e-06 0 -5.72295e-06 -1.44085e-06 0 -6.98092e-06 -1.50929e-06 0 -8.30311e-06 -1.59181e-06 0 -9.70184e-06 -1.68843e-06 0 -1.11906e-05 -1.80324e-06 0 -1.2784e-05 -1.93424e-06 0 -1.44971e-05 -2.08394e-06 0 -1.6347e-05 -2.25463e-06 0 -1.83512e-05 -2.44486e-06 0 -2.05282e-05 -2.65834e-06 0 -2.28976e-05 -2.89306e-06 0 -2.54779e-05 -3.14651e-06 0 -2.82859e-05 -3.41675e-06 0 -3.13337e-05 -3.69159e-06 0 -3.46233e-05 -3.95272e-06 0 -3.81374e-05 -4.16275e-06 0 -4.18247e-05 -4.27157e-06 0 -4.55732e-05 -4.14104e-06 0 -4.91563e-05 -3.59531e-06 0 -5.21638e-05 -2.31953e-06 0 -5.38328e-05 2.93083e-07 0 -5.28102e-05 5.13158e-06 0 -4.67402e-05 1.3453e-05 0 -3.17775e-05 2.64455e-05 0 -2.67752e-06 4.3467e-05 0 4.43117e-05 5.88715e-05 0 0.000103737 6.17329e-05 0 4.23167e-21 -9.23111e-07 0 -1.1075e-06 -9.27806e-07 0 -2.22509e-06 -9.40278e-07 0 -3.36273e-06 -9.61245e-07 0 -4.53098e-06 -9.9151e-07 0 -5.7405e-06 -1.03025e-06 0 -7.00243e-06 -1.0792e-06 0 -8.32882e-06 -1.13822e-06 0 -9.73204e-06 -1.20731e-06 0 -1.12257e-05 -1.28941e-06 0 -1.28242e-05 -1.38309e-06 0 -1.45429e-05 -1.49011e-06 0 -1.63986e-05 -1.61213e-06 0 -1.8409e-05 -1.74806e-06 0 -2.05923e-05 -1.90052e-06 0 -2.29677e-05 -2.06803e-06 0 -2.5553e-05 -2.2487e-06 0 -2.83642e-05 -2.44091e-06 0 -3.14112e-05 -2.63571e-06 0 -3.46926e-05 -2.81944e-06 0 -3.81848e-05 -2.96433e-06 0 -4.18265e-05 -3.03339e-06 0 -4.54872e-05 -2.92424e-06 0 -4.89085e-05 -2.5072e-06 0 -5.16285e-05 -1.55087e-06 0 -5.28022e-05 3.87071e-07 0 -5.09717e-05 3.94132e-06 0 -4.37187e-05 9.97261e-06 0 -2.74092e-05 1.9195e-05 0 2.25699e-06 3.09083e-05 0 4.73067e-05 4.10698e-05 0 0.00010186 4.26578e-05 0 0 -5.54237e-07 0 -1.10974e-06 -5.57057e-07 0 -2.22959e-06 -5.64547e-07 0 -3.36955e-06 -5.77138e-07 0 -4.5402e-06 -5.95313e-07 0 -5.75222e-06 -6.18576e-07 0 -7.01679e-06 -6.47971e-07 0 -8.346e-06 -6.83412e-07 0 -9.75222e-06 -7.24905e-07 0 -1.12491e-05 -7.74203e-07 0 -1.28511e-05 -8.30446e-07 0 -1.45734e-05 -8.94703e-07 0 -1.64331e-05 -9.67944e-07 0 -1.84476e-05 -1.04952e-06 0 -2.0635e-05 -1.141e-06 0 -2.30144e-05 -1.24144e-06 0 -2.56031e-05 -1.34969e-06 0 -2.84163e-05 -1.46468e-06 0 -3.14624e-05 -1.58094e-06 0 -3.47379e-05 -1.69004e-06 0 -3.8215e-05 -1.77489e-06 0 -4.1825e-05 -1.81279e-06 0 -4.54252e-05 -1.74084e-06 0 -4.87352e-05 -1.47956e-06 0 -5.12582e-05 -8.87557e-07 0 -5.20949e-05 3.03949e-07 0 -4.97214e-05 2.47499e-06 0 -4.1692e-05 6.12582e-06 0 -2.45417e-05 1.16304e-05 0 5.39633e-06 1.84795e-05 0 4.91236e-05 2.42578e-05 0 0.000100629 2.50463e-05 0 0 -1.84808e-07 0 -1.11086e-06 -1.85748e-07 0 -2.23185e-06 -1.88246e-07 0 -3.37297e-06 -1.92445e-07 0 -4.54483e-06 -1.98506e-07 0 -5.75811e-06 -2.06263e-07 0 -7.02401e-06 -2.16066e-07 0 -8.35462e-06 -2.27884e-07 0 -9.76236e-06 -2.41721e-07 0 -1.12608e-05 -2.5816e-07 0 -1.28645e-05 -2.76915e-07 0 -1.45888e-05 -2.9834e-07 0 -1.64504e-05 -3.22759e-07 0 -1.84669e-05 -3.49956e-07 0 -2.06564e-05 -3.80445e-07 0 -2.30378e-05 -4.13916e-07 0 -2.56282e-05 -4.49975e-07 0 -2.84423e-05 -4.88246e-07 0 -3.1488e-05 -5.26896e-07 0 -3.47604e-05 -5.63071e-07 0 -3.82297e-05 -5.91002e-07 0 -4.18235e-05 -6.03041e-07 0 -4.53927e-05 -5.77968e-07 0 -4.86458e-05 -4.8902e-07 0 -5.10685e-05 -2.88631e-07 0 -5.1734e-05 1.13328e-07 0 -4.90872e-05 8.43345e-07 0 -4.06725e-05 2.06533e-06 0 -2.3118e-05 3.89486e-06 0 6.92607e-06 6.14802e-06 0 4.99838e-05 8.02277e-06 0 0.000100018 8.25985e-06 0 0 1.84808e-07 0 -1.11086e-06 1.85748e-07 0 -2.23185e-06 1.88246e-07 0 -3.37297e-06 1.92445e-07 0 -4.54483e-06 1.98506e-07 0 -5.75811e-06 2.06263e-07 0 -7.02401e-06 2.16066e-07 0 -8.35462e-06 2.27884e-07 0 -9.76236e-06 2.41721e-07 0 -1.12608e-05 2.5816e-07 0 -1.28645e-05 2.76915e-07 0 -1.45888e-05 2.9834e-07 0 -1.64504e-05 3.22759e-07 0 -1.84669e-05 3.49956e-07 0 -2.06564e-05 3.80445e-07 0 -2.30378e-05 4.13916e-07 0 -2.56282e-05 4.49975e-07 0 -2.84423e-05 4.88246e-07 0 -3.1488e-05 5.26896e-07 0 -3.47604e-05 5.63071e-07 0 -3.82297e-05 5.91002e-07 0 -4.18235e-05 6.03041e-07 0 -4.53927e-05 5.77968e-07 0 -4.86458e-05 4.8902e-07 0 -5.10685e-05 2.88631e-07 0 -5.1734e-05 -1.13328e-07 0 -4.90872e-05 -8.43345e-07 0 -4.06725e-05 -2.06533e-06 0 -2.3118e-05 -3.89486e-06 0 6.92607e-06 -6.14802e-06 0 4.99838e-05 -8.02277e-06 0 0.000100018 -8.25985e-06 0 0 5.54237e-07 0 -1.10974e-06 5.57057e-07 0 -2.22959e-06 5.64547e-07 0 -3.36955e-06 5.77138e-07 0 -4.5402e-06 5.95313e-07 0 -5.75222e-06 6.18576e-07 0 -7.01679e-06 6.47971e-07 0 -8.346e-06 6.83412e-07 0 -9.75222e-06 7.24905e-07 0 -1.12491e-05 7.74203e-07 0 -1.28511e-05 8.30446e-07 0 -1.45734e-05 8.94703e-07 0 -1.64331e-05 9.67944e-07 0 -1.84476e-05 1.04952e-06 0 -2.0635e-05 1.141e-06 0 -2.30144e-05 1.24144e-06 0 -2.56031e-05 1.34969e-06 0 -2.84163e-05 1.46468e-06 0 -3.14624e-05 1.58094e-06 0 -3.47379e-05 1.69004e-06 0 -3.8215e-05 1.77489e-06 0 -4.1825e-05 1.81279e-06 0 -4.54252e-05 1.74084e-06 0 -4.87352e-05 1.47956e-06 0 -5.12582e-05 8.87557e-07 0 -5.20949e-05 -3.03949e-07 0 -4.97214e-05 -2.47499e-06 0 -4.1692e-05 -6.12582e-06 0 -2.45417e-05 -1.16304e-05 0 5.39633e-06 -1.84795e-05 0 4.91236e-05 -2.42578e-05 0 0.000100629 -2.50463e-05 0 0 9.23111e-07 0 -1.1075e-06 9.27806e-07 0 -2.22509e-06 9.40278e-07 0 -3.36273e-06 9.61245e-07 0 -4.53098e-06 9.9151e-07 0 -5.7405e-06 1.03025e-06 0 -7.00243e-06 1.0792e-06 0 -8.32882e-06 1.13822e-06 0 -9.73204e-06 1.20731e-06 0 -1.12257e-05 1.28941e-06 0 -1.28242e-05 1.38309e-06 0 -1.45429e-05 1.49011e-06 0 -1.63986e-05 1.61213e-06 0 -1.8409e-05 1.74806e-06 0 -2.05923e-05 1.90052e-06 0 -2.29677e-05 2.06803e-06 0 -2.5553e-05 2.2487e-06 0 -2.83642e-05 2.44091e-06 0 -3.14112e-05 2.63571e-06 0 -3.46926e-05 2.81944e-06 0 -3.81848e-05 2.96433e-06 0 -4.18265e-05 3.03339e-06 0 -4.54872e-05 2.92424e-06 0 -4.89085e-05 2.5072e-06 0 -5.16285e-05 1.55087e-06 0 -5.28022e-05 -3.87071e-07 0 -5.09717e-05 -3.94132e-06 0 -4.37187e-05 -9.97261e-06 0 -2.74092e-05 -1.9195e-05 0 2.25699e-06 -3.09083e-05 0 4.73067e-05 -4.10698e-05 0 0.00010186 -4.26578e-05 0 -2.01225e-20 1.29106e-06 0 -1.10416e-06 1.29762e-06 0 -2.21836e-06 1.31506e-06 0 -3.35252e-06 1.34437e-06 0 -4.51719e-06 1.38669e-06 0 -5.72295e-06 1.44085e-06 0 -6.98092e-06 1.50929e-06 0 -8.30311e-06 1.59181e-06 0 -9.70184e-06 1.68843e-06 0 -1.11906e-05 1.80324e-06 0 -1.2784e-05 1.93424e-06 0 -1.44971e-05 2.08394e-06 0 -1.6347e-05 2.25463e-06 0 -1.83512e-05 2.44486e-06 0 -2.05282e-05 2.65834e-06 0 -2.28976e-05 2.89306e-06 0 -2.54779e-05 3.14651e-06 0 -2.82859e-05 3.41675e-06 0 -3.13337e-05 3.69159e-06 0 -3.46233e-05 3.95272e-06 0 -3.81374e-05 4.16275e-06 0 -4.18247e-05 4.27157e-06 0 -4.55732e-05 4.14104e-06 0 -4.91563e-05 3.59531e-06 0 -5.21638e-05 2.31953e-06 0 -5.38328e-05 -2.93083e-07 0 -5.28102e-05 -5.13158e-06 0 -4.67402e-05 -1.3453e-05 0 -3.17775e-05 -2.64455e-05 0 -2.67752e-06 -4.3467e-05 0 4.43117e-05 -5.88715e-05 0 0.000103737 -6.17329e-05 0 0 1.65771e-06 0 -1.0997e-06 1.66613e-06 0 -2.2094e-06 1.68851e-06 0 -3.33895e-06 1.72614e-06 0 -4.49884e-06 1.78045e-06 0 -5.69961e-06 1.84996e-06 0 -6.95231e-06 1.93781e-06 0 -8.2689e-06 2.04373e-06 0 -9.66165e-06 2.16775e-06 0 -1.1144e-05 2.31512e-06 0 -1.27305e-05 2.48331e-06 0 -1.44362e-05 2.67554e-06 0 -1.62782e-05 2.89479e-06 0 -1.82742e-05 3.13923e-06 0 -2.04428e-05 3.41374e-06 0 -2.28041e-05 3.71585e-06 0 -2.53773e-05 4.04256e-06 0 -2.81809e-05 4.39194e-06 0 -3.12293e-05 4.74884e-06 0 -3.45288e-05 5.09111e-06 0 -3.807e-05 5.37314e-06 0 -4.18151e-05 5.53337e-06 0 -4.56752e-05 5.40284e-06 0 -4.94649e-05 4.76521e-06 0 -5.28414e-05 3.23148e-06 0 -5.51518e-05 4.42842e-08 0 -5.51928e-05 -5.93507e-06 0 -5.07309e-05 -1.63999e-05 0 -3.77219e-05 -3.31943e-05 0 -9.69552e-06 -5.61311e-05 0 3.97606e-05 -7.81158e-05 0 0.000106298 -8.30625e-05 0 0 2.0227e-06 0 -1.09415e-06 2.03297e-06 0 -2.19822e-06 2.06026e-06 0 -3.32202e-06 2.10615e-06 0 -4.47595e-06 2.17238e-06 0 -5.6705e-06 2.25716e-06 0 -6.91663e-06 2.36429e-06 0 -8.22624e-06 2.49347e-06 0 -9.61152e-06 2.64474e-06 0 -1.10859e-05 2.82452e-06 0 -1.26637e-05 3.02971e-06 0 -1.43602e-05 3.26428e-06 0 -1.61924e-05 3.53193e-06 0 -1.8178e-05 3.83045e-06 0 -2.03361e-05 4.16599e-06 0 -2.26871e-05 4.53572e-06 0 -2.52512e-05 4.93624e-06 0 -2.80486e-05 5.36611e-06 0 -3.10968e-05 5.80753e-06 0 -3.44072e-05 6.23551e-06 0 -3.79796e-05 6.59794e-06 0 -4.1792e-05 6.82383e-06 0 -4.57831e-05 6.71957e-06 0 -4.98167e-05 6.03544e-06 0 -5.36317e-05 4.32041e-06 0 -5.67123e-05 6.86103e-07 0 -5.80565e-05 -6.24278e-06 0 -5.56418e-05 -1.86297e-05 0 -4.53203e-05 -3.91892e-05 0 -1.91973e-05 -6.87771e-05 0 3.30496e-05 -9.93053e-05 0 0.000109589 -0.000107696 0 0 2.38566e-06 0 -1.0875e-06 2.39777e-06 0 -2.18485e-06 2.42994e-06 0 -3.30176e-06 2.48402e-06 0 -4.44856e-06 2.56209e-06 0 -5.63566e-06 2.66201e-06 0 -6.87393e-06 2.7883e-06 0 -8.17518e-06 2.94058e-06 0 -9.55152e-06 3.11891e-06 0 -1.10163e-05 3.33087e-06 0 -1.25838e-05 3.57283e-06 0 -1.42692e-05 3.84952e-06 0 -1.60896e-05 4.16535e-06 0 -1.80627e-05 4.51781e-06 0 -2.0208e-05 4.91435e-06 0 -2.25464e-05 5.35191e-06 0 -2.50992e-05 5.82689e-06 0 -2.78885e-05 6.33875e-06 0 -3.09351e-05 6.8675e-06 0 -3.42562e-05 7.38641e-06 0 -3.7862e-05 7.83889e-06 0 -4.17483e-05 8.14681e-06 0 -4.58847e-05 8.09907e-06 0 -5.01905e-05 7.42101e-06 0 -5.44985e-05 5.61442e-06 0 -5.84556e-05 1.68598e-06 0 -6.13164e-05 -5.95067e-06 0 -6.13899e-05 -1.99424e-05 0 -5.46284e-05 -4.40949e-05 0 -3.16986e-05 -8.11182e-05 0 2.32321e-05 -0.000122985 0 0.000113651 -0.000137113 0 6.04277e-20 2.74622e-06 0 -1.07977e-06 2.76015e-06 0 -2.16929e-06 2.79716e-06 0 -3.27819e-06 2.85937e-06 0 -4.4167e-06 2.94917e-06 0 -5.59513e-06 3.06412e-06 0 -6.82425e-06 3.20939e-06 0 -8.11577e-06 3.38457e-06 0 -9.4817e-06 3.58973e-06 0 -1.09353e-05 3.83363e-06 0 -1.24908e-05 4.11209e-06 0 -1.41632e-05 4.43061e-06 0 -1.59697e-05 4.79436e-06 0 -1.79283e-05 5.20056e-06 0 -2.00584e-05 5.65805e-06 0 -2.23818e-05 6.16365e-06 0 -2.49209e-05 6.71374e-06 0 -2.76997e-05 7.30921e-06 0 -3.07427e-05 7.92833e-06 0 -3.40734e-05 8.54386e-06 0 -3.77131e-05 9.09693e-06 0 -4.16764e-05 9.50479e-06 0 -4.59663e-05 9.54674e-06 0 -5.05625e-05 8.93273e-06 0 -5.54004e-05 7.13475e-06 0 -6.03118e-05 3.08738e-06 0 -6.48639e-05 -4.9648e-06 0 -6.7844e-05 -2.01282e-05 0 -6.5642e-05 -4.74792e-05 0 -4.78172e-05 -9.26086e-05 0 8.81765e-06 -0.000149689 0 0.000118492 -0.000173526 0 0 3.10404e-06 0 -1.07098e-06 3.11978e-06 0 -2.1516e-06 3.16157e-06 0 -3.25139e-06 3.23182e-06 0 -4.38047e-06 3.33324e-06 0 -5.54903e-06 3.46305e-06 0 -6.76775e-06 3.62712e-06 0 -8.0482e-06 3.82498e-06 0 -9.40228e-06 4.05672e-06 0 -1.08431e-05 4.33225e-06 0 -1.23849e-05 4.6469e-06 0 -1.40426e-05 5.00692e-06 0 -1.58333e-05 5.41828e-06 0 -1.7775e-05 5.87794e-06 0 -1.98877e-05 6.39628e-06 0 -2.21936e-05 6.9701e-06 0 -2.47163e-05 7.59593e-06 0 -2.74819e-05 8.27666e-06 0 -3.05188e-05 8.98931e-06 0 -3.38567e-05 9.70742e-06 0 -3.75285e-05 1.03721e-05 0 -4.15686e-05 1.08987e-05 0 -4.60141e-05 1.10653e-05 0 -5.09074e-05 1.05767e-05 0 -5.62924e-05 8.89453e-06 0 -6.22016e-05 4.92072e-06 0 -6.85648e-05 -3.20829e-06 0 -7.48068e-05 -1.89808e-05 0 -7.82213e-05 -4.88118e-05 0 -6.81323e-05 -0.000102309 0 -1.23902e-05 -0.000179777 0 0.000123989 -0.000220444 0 0 3.45876e-06 0 -1.06111e-06 3.47627e-06 0 -2.13174e-06 3.52279e-06 0 -3.22131e-06 3.601e-06 0 -4.3398e-06 3.71389e-06 0 -5.4973e-06 3.8584e-06 0 -6.70433e-06 4.04105e-06 0 -7.97235e-06 4.26133e-06 0 -9.31312e-06 4.51936e-06 0 -1.07397e-05 4.82619e-06 0 -1.2266e-05 5.17665e-06 0 -1.3907e-05 5.5778e-06 0 -1.56798e-05 6.03639e-06 0 -1.76025e-05 6.54921e-06 0 -1.96953e-05 7.12822e-06 0 -2.1981e-05 7.77035e-06 0 -2.44844e-05 8.4725e-06 0 -2.72337e-05 9.24012e-06 0 -3.02611e-05 1.00494e-05 0 -3.36026e-05 1.08761e-05 0 -3.73027e-05 1.16636e-05 0 -4.14152e-05 1.2328e-05 0 -4.60118e-05 1.26545e-05 0 -5.11972e-05 1.23538e-05 0 -5.71252e-05 1.08978e-05 0 -6.40374e-05 7.20046e-06 0 -7.22636e-05 -6.2992e-07 0 -8.20219e-05 -1.63191e-05 0 -9.2095e-05 -4.74901e-05 0 -9.32644e-05 -0.000108725 0 -4.42411e-05 -0.000212989 0 0.000129669 -0.000283805 0 1.25753e-19 3.81002e-06 0 -1.05019e-06 3.82929e-06 0 -2.10977e-06 3.88048e-06 0 -3.18803e-06 3.96653e-06 0 -4.29481e-06 4.09075e-06 0 -5.44005e-06 4.24977e-06 0 -6.63416e-06 4.45076e-06 0 -7.88842e-06 4.69317e-06 0 -9.21446e-06 4.97715e-06 0 -1.06251e-05 5.3149e-06 0 -1.21343e-05 5.70077e-06 0 -1.37569e-05 6.14259e-06 0 -1.55097e-05 6.64799e-06 0 -1.74112e-05 7.21356e-06 0 -1.94815e-05 7.85299e-06 0 -2.17443e-05 8.56345e-06 0 -2.42252e-05 9.34241e-06 0 -2.69547e-05 1.01984e-05 0 -2.99685e-05 1.11074e-05 0 -3.33088e-05 1.20485e-05 0 -3.70312e-05 1.29696e-05 0 -4.12084e-05 1.37902e-05 0 -4.59448e-05 1.43114e-05 0 -5.14053e-05 1.42598e-05 0 -5.78499e-05 1.31389e-05 0 -6.57271e-05 9.92256e-06 0 -7.57828e-05 2.78693e-06 0 -8.91427e-05 -1.20175e-05 0 -0.000106674 -4.29086e-05 0 -0.00012318 -0.000109676 0 -9.2196e-05 -0.00024734 0 0.000133917 -0.000374447 0 0 4.15747e-06 0 -1.03823e-06 4.17847e-06 0 -2.08572e-06 4.23426e-06 0 -3.15159e-06 4.32805e-06 0 -4.24555e-06 4.46344e-06 0 -5.37739e-06 4.63675e-06 0 -6.55733e-06 4.85581e-06 0 -7.79652e-06 5.12005e-06 0 -9.10641e-06 5.42961e-06 0 -1.04997e-05 5.79785e-06 0 -1.19901e-05 6.21866e-06 0 -1.35923e-05 6.70067e-06 0 -1.53232e-05 7.25235e-06 0 -1.72011e-05 7.87021e-06 0 -1.92465e-05 8.56971e-06 0 -2.14834e-05 9.34841e-06 0 -2.39386e-05 1.02045e-05 0 -2.66443e-05 1.11502e-05 0 -2.96397e-05 1.21616e-05 0 -3.29728e-05 1.32224e-05 0 -3.67096e-05 1.42873e-05 0 -4.094e-05 1.52817e-05 0 -4.57987e-05 1.603e-05 0 -5.15057e-05 1.62849e-05 0 -5.84187e-05 1.56019e-05 0 -6.71796e-05 1.30628e-05 0 -7.89371e-05 7.01606e-06 0 -9.57665e-05 -6.04076e-06 0 -0.000121079 -3.45855e-05 0 -0.000156843 -0.000102353 0 -0.000163947 -0.000276578 0 0.000131583 -0.000514091 0 -3.96139e-19 4.50079e-06 0 -1.02526e-06 4.52349e-06 0 -2.05961e-06 4.5838e-06 0 -3.11204e-06 4.6852e-06 0 -4.19208e-06 4.83157e-06 0 -5.30936e-06 5.01895e-06 0 -6.47393e-06 5.2558e-06 0 -7.69675e-06 5.5415e-06 0 -8.98909e-06 5.87624e-06 0 -1.03634e-05 6.27452e-06 0 -1.18334e-05 6.72974e-06 0 -1.34134e-05 7.25137e-06 0 -1.51203e-05 7.84876e-06 0 -1.69723e-05 8.51835e-06 0 -1.89902e-05 9.27746e-06 0 -2.11982e-05 1.01241e-05 0 -2.3624e-05 1.10576e-05 0 -2.63017e-05 1.2094e-05 0 -2.92734e-05 1.32102e-05 0 -3.25922e-05 1.43954e-05 0 -3.63334e-05 1.56133e-05 0 -4.06022e-05 1.67971e-05 0 -4.55599e-05 1.78016e-05 0 -5.14742e-05 1.84144e-05 0 -5.8787e-05 1.82614e-05 0 -6.83076e-05 1.65764e-05 0 -8.15418e-05 1.19833e-05 0 -0.000101454 1.52343e-06 0 -0.000134131 -2.23405e-05 0 -0.000191422 -8.38734e-05 0 -0.000267226 -0.000285138 0 0.000104659 -0.000751947 0 -2.66226e-19 4.83961e-06 0 -1.01128e-06 4.86399e-06 0 -2.03149e-06 4.92875e-06 0 -3.06943e-06 5.03762e-06 0 -4.13448e-06 5.19478e-06 0 -5.23607e-06 5.39598e-06 0 -6.38408e-06 5.6503e-06 0 -7.58926e-06 5.95709e-06 0 -8.86268e-06 6.31658e-06 0 -1.02166e-05 6.74436e-06 0 -1.16644e-05 7.23343e-06 0 -1.32205e-05 7.79406e-06 0 -1.49013e-05 8.43651e-06 0 -1.67252e-05 9.15715e-06 0 -1.87128e-05 9.97529e-06 0 -2.08888e-05 1.08896e-05 0 -2.32816e-05 1.19002e-05 0 -2.59267e-05 1.30281e-05 0 -2.88686e-05 1.42509e-05 0 -3.21651e-05 1.55646e-05 0 -3.58991e-05 1.69431e-05 0 -4.01888e-05 1.83297e-05 0 -4.52171e-05 1.96151e-05 0 -5.12902e-05 2.06292e-05 0 -5.8917e-05 2.1083e-05 0 -6.90369e-05 2.03993e-05 0 -8.34344e-05 1.7566e-05 0 -0.000105786 1.04443e-05 0 -0.000144501 -6.48066e-06 0 -0.00022187 -5.2625e-05 0 -0.000398488 -0.000242324 0 -2.10301e-05 -0.00122145 0 0 5.17363e-06 0 -9.9632e-07 5.19965e-06 0 -2.00138e-06 5.26877e-06 0 -3.02383e-06 5.38497e-06 0 -4.07283e-06 5.55271e-06 0 -5.15763e-06 5.76745e-06 0 -6.28791e-06 6.0389e-06 0 -7.47419e-06 6.36638e-06 0 -8.72734e-06 6.75013e-06 0 -1.00594e-05 7.20687e-06 0 -1.14835e-05 7.72916e-06 0 -1.30137e-05 8.3281e-06 0 -1.46665e-05 9.01485e-06 0 -1.64599e-05 9.7858e-06 0 -1.84146e-05 1.06622e-05 0 -2.05555e-05 1.16435e-05 0 -2.29113e-05 1.27311e-05 0 -2.55188e-05 1.39507e-05 0 -2.84247e-05 1.52814e-05 0 -3.16899e-05 1.67266e-05 0 -3.54038e-05 1.82718e-05 0 -3.96943e-05 1.98717e-05 0 -4.47608e-05 2.14574e-05 0 -5.09372e-05 2.29065e-05 0 -5.87784e-05 2.40252e-05 0 -6.93088e-05 2.44513e-05 0 -8.44859e-05 2.3599e-05 0 -0.000108419 2.03519e-05 0 -0.000150964 1.20954e-05 0 -0.000241796 -1.01585e-05 0 -0.000517271 -0.000112898 0 -0.000622527 -0.00248727 0 0 5.50251e-06 0 -9.80396e-07 5.53014e-06 0 -1.96935e-06 5.60353e-06 0 -2.9753e-06 5.7269e-06 0 -4.00721e-06 5.905e-06 0 -5.07414e-06 6.133e-06 0 -6.18554e-06 6.42122e-06 0 -7.3517e-06 6.76894e-06 0 -8.58325e-06 7.17645e-06 0 -9.89197e-06 7.66154e-06 0 -1.12907e-05 8.21637e-06 0 -1.27934e-05 8.85286e-06 0 -1.44161e-05 9.58309e-06 0 -1.61767e-05 1.04035e-05 0 -1.80958e-05 1.13373e-05 0 -2.01982e-05 1.23848e-05 0 -2.25132e-05 1.35487e-05 0 -2.50781e-05 1.48599e-05 0 -2.7941e-05 1.62991e-05 0 -3.11655e-05 1.78777e-05 0 -3.48452e-05 1.95938e-05 0 -3.91147e-05 2.14144e-05 0 -4.4184e-05 2.3314e-05 0 -5.04033e-05 2.52205e-05 0 -5.83503e-05 2.70412e-05 0 -6.90846e-05 2.86407e-05 0 -8.46151e-05 2.98866e-05 0 -0.000109139 3.07709e-05 0 -0.000152726 3.1969e-05 0 -0.000246066 3.78073e-05 0 -0.000542051 8.53515e-05 0 -0.0305425 0.0110559 0 </DataArray> 
</PointData> 
<Points> 
<DataArray type="Float32" NumberOfComponents="3"> 