<?xml version="1.0"?> 
<VTKFile type="StructuredGrid" version="0.1"> 
<StructuredGrid WholeExtent="0 31 0 31 0 0"> 
<Piece Extent="0 31 0 31 0 0"> 
<PointData>
<DataArray type="Float32" Name="B" format="ascii" NumberOfComponents="3"> 
-0.00992856 0.00358887 0 -0.000187764 9.77912e-06 0 -9.59415e-05 1.09646e-05 0 -6.59574e-05 1.34115e-05 0 -5.10488e-05 1.45611e-05 0 -4.2004e-05 1.48242e-05 0 -3.58089e-05 1.45411e-05 0 -3.11974e-05 1.39334e-05 0 -2.75544e-05 1.31451e-05 0 -2.45478e-05 1.22762e-05 0 -2.19914e-05 1.13846e-05 0 -1.97679e-05 1.0511e-05 0 -1.78042e-05 9.67495e-06 0 -1.60507e-05 8.89426e-06 0 -1.44714e-05 8.17313e-06 0 -1.30402e-05 7.50866e-06 0 -1.17365e-05 6.91149e-06 0 -1.05435e-05 6.36881e-06 0 -9.44764e-06 5.88042e-06 0 -8.43671e-06 5.44732e-06 0 -7.50048e-06 5.05896e-06 0 -6.62987e-06 4.71786e-06 0 -5.81647e-06 4.41858e-06 0 -5.05291e-06 4.1555e-06 0 -4.3323e-06 3.93323e-06 0 -3.64822e-06 3.7428e-06 0 -2.99486e-06 3.58437e-06 0 -2.3665e-06 3.45863e-06 0 -1.75786e-06 3.36018e-06 0 -1.16389e-06 3.29185e-06 0 -5.79527e-07 3.25116e-06 0 0 3.23584e-06 0 -5.88753e-05 -0.000770063 0 -0.000169958 -4.80785e-05 0 -9.23848e-05 -3.66038e-06 0 -6.46476e-05 6.94528e-06 0 -5.05355e-05 1.08977e-05 0 -4.18727e-05 1.24238e-05 0 -3.58831e-05 1.28088e-05 0 -3.13845e-05 1.25939e-05 0 -2.78003e-05 1.20548e-05 0 -2.48198e-05 1.13585e-05 0 -2.22692e-05 1.05931e-05 0 -2.00395e-05 9.81416e-06 0 -1.80624e-05 9.05508e-06 0 -1.62919e-05 8.33732e-06 0 -1.46937e-05 7.66926e-06 0 -1.32433e-05 7.05084e-06 0 -1.19206e-05 6.49299e-06 0 -1.07095e-05 5.98501e-06 0 -9.59637e-06 5.52714e-06 0 -8.56932e-06 5.12065e-06 0 -7.61806e-06 4.75588e-06 0 -6.73344e-06 4.43534e-06 0 -5.90698e-06 4.15399e-06 0 -5.13124e-06 3.9066e-06 0 -4.3992e-06 3.69756e-06 0 -3.70437e-06 3.51843e-06 0 -3.04081e-06 3.3694e-06 0 -2.40271e-06 3.25111e-06 0 -1.78471e-06 3.1585e-06 0 -1.18164e-06 3.09421e-06 0 -5.88356e-07 3.05593e-06 0 0 3.04151e-06 0 5.19959e-05 -0.000342146 0 -0.000128079 -8.0164e-05 0 -8.45344e-05 -1.58208e-05 0 -6.20024e-05 1.10593e-06 0 -4.94595e-05 7.48209e-06 0 -4.14584e-05 1.01444e-05 0 -3.57973e-05 1.11407e-05 0 -3.14727e-05 1.12888e-05 0 -2.79803e-05 1.0982e-05 0 -2.50449e-05 1.04481e-05 0 -2.25117e-05 9.80261e-06 0 -2.02832e-05 9.11488e-06 0 -1.8298e-05 8.4307e-06 0 -1.65139e-05 7.77482e-06 0 -1.48997e-05 7.15939e-06 0 -1.34322e-05 6.58693e-06 0 -1.20924e-05 6.06857e-06 0 -1.08646e-05 5.59554e-06 0 -9.73556e-06 5.16852e-06 0 -8.69354e-06 4.78896e-06 0 -7.72826e-06 4.44814e-06 0 -6.83055e-06 4.14846e-06 0 -5.99188e-06 3.88532e-06 0 -5.20472e-06 3.6539e-06 0 -4.46198e-06 3.45831e-06 0 -3.75706e-06 3.29069e-06 0 -3.08393e-06 3.15122e-06 0 -2.4367e-06 3.04051e-06 0 -1.8099e-06 2.95383e-06 0 -1.1983e-06 2.89367e-06 0 -5.96642e-07 2.85784e-06 0 0 2.84434e-06 0 4.76469e-05 -0.000191268 0 -8.77223e-05 -8.5913e-05 0 -7.42124e-05 -2.41421e-05 0 -5.83301e-05 -3.73734e-06 0 -4.79078e-05 4.44282e-06 0 -4.07952e-05 8.04047e-06 0 -3.55678e-05 9.56317e-06 0 -3.14708e-05 1.00319e-05 0 -2.80994e-05 9.93453e-06 0 -2.52261e-05 9.54956e-06 0 -2.27208e-05 9.01611e-06 0 -2.05002e-05 8.41511e-06 0 -1.85113e-05 7.80319e-06 0 -1.67172e-05 7.20779e-06 0 -1.50895e-05 6.64433e-06 0 -1.36069e-05 6.11758e-06 0 -1.22517e-05 5.63875e-06 0 -1.10087e-05 5.20087e-06 0 -9.8651e-06 4.80494e-06 0 -8.80925e-06 4.45263e-06 0 -7.83097e-06 4.13603e-06 0 -6.92111e-06 3.85751e-06 0 -6.07107e-06 3.61286e-06 0 -5.27328e-06 3.39765e-06 0 -4.52056e-06 3.21572e-06 0 -3.80623e-06 3.05979e-06 0 -3.12417e-06 2.93003e-06 0 -2.46842e-06 2.82703e-06 0 -1.83342e-06 2.74638e-06 0 -1.21384e-06 2.6904e-06 0 -6.04375e-07 2.65706e-06 0 -1.35775e-19 2.6445e-06 0 3.48213e-05 -0.000124111 0 -5.87938e-05 -7.84778e-05 0 -6.33675e-05 -2.85482e-05 0 -5.4033e-05 -7.39028e-06 0 -4.59997e-05 1.87088e-06 0 -3.99291e-05 6.15513e-06 0 -3.52162e-05 8.09807e-06 0 -3.139e-05 8.83519e-06 0 -2.8164e-05 8.91913e-06 0 -2.53671e-05 8.66698e-06 0 -2.28983e-05 8.23611e-06 0 -2.06915e-05 7.71658e-06 0 -1.87032e-05 7.17376e-06 0 -1.69019e-05 6.63716e-06 0 -1.52632e-05 6.12482e-06 0 -1.37676e-05 5.6434e-06 0 -1.23986e-05 5.20407e-06 0 -1.11418e-05 4.80144e-06 0 -9.98489e-06 4.43682e-06 0 -8.91635e-06 4.112e-06 0 -7.9261e-06 3.8199e-06 0 -7.00501e-06 3.5628e-06 0 -6.14447e-06 3.33688e-06 0 -5.33684e-06 3.13809e-06 0 -4.57487e-06 2.97002e-06 0 -3.85182e-06 2.82595e-06 0 -3.16149e-06 2.70605e-06 0 -2.49784e-06 2.61087e-06 0 -1.85523e-06 2.53634e-06 0 -1.22826e-06 2.4846e-06 0 -6.11548e-07 2.45379e-06 0 0 2.44219e-06 0 2.50354e-05 -8.825e-05 0 -4.02228e-05 -6.72093e-05 0 -5.33622e-05 -2.98048e-05 0 -4.95112e-05 -9.83554e-06 0 -4.38683e-05 -1.86902e-07 0 -3.89142e-05 4.51748e-06 0 -3.47677e-05 6.76177e-06 0 -3.12436e-05 7.70776e-06 0 -2.81813e-05 7.94123e-06 0 -2.5472e-05 7.80365e-06 0 -2.30469e-05 7.46472e-06 0 -2.08587e-05 7.02075e-06 0 -1.88743e-05 6.54349e-06 0 -1.70686e-05 6.06376e-06 0 -1.5421e-05 5.60154e-06 0 -1.39142e-05 5.16497e-06 0 -1.2533e-05 4.76502e-06 0 -1.12639e-05 4.3977e-06 0 -1.00948e-05 4.06456e-06 0 -9.01474e-06 3.76743e-06 0 -8.01355e-06 3.50007e-06 0 -7.08218e-06 3.26461e-06 0 -6.21199e-06 3.05764e-06 0 -5.39532e-06 2.87549e-06 0 -4.62485e-06 2.72144e-06 0 -3.89378e-06 2.58939e-06 0 -3.19584e-06 2.47948e-06 0 -2.52491e-06 2.39222e-06 0 -1.8753e-06 2.3239e-06 0 -1.24153e-06 2.27647e-06 0 -6.1815e-07 2.24822e-06 0 0 2.23758e-06 0 1.84012e-05 -6.63735e-05 0 -2.86044e-05 -5.60799e-05 0 -4.48295e-05 -2.8907e-05 0 -4.50918e-05 -1.11865e-05 0 -4.1645e-05 -1.72548e-06 0 -3.78081e-05 3.14174e-06 0 -3.42506e-05 5.56451e-06 0 -3.10466e-05 6.65602e-06 0 -2.81598e-05 7.00476e-06 0 -2.55456e-05 6.96204e-06 0 -2.31693e-05 6.7036e-06 0 -2.10033e-05 6.32883e-06 0 -1.90256e-05 5.91331e-06 0 -1.72178e-05 5.48834e-06 0 -1.55632e-05 5.07512e-06 0 -1.40468e-05 4.68284e-06 0 -1.26549e-05 4.32208e-06 0 -1.13748e-05 3.99008e-06 0 -1.01949e-05 3.68853e-06 0 -9.10437e-06 3.41929e-06 0 -8.09326e-06 3.17687e-06 0 -7.15254e-06 2.96326e-06 0 -6.27359e-06 2.77543e-06 0 -5.44867e-06 2.61009e-06 0 -4.67046e-06 2.47024e-06 0 -3.93207e-06 2.35034e-06 0 -3.22719e-06 2.25054e-06 0 -2.54962e-06 2.17131e-06 0 -1.89362e-06 2.10926e-06 0 -1.25364e-06 2.06619e-06 0 -6.24176e-07 2.04054e-06 0 4.61767e-19 2.03087e-06 0 1.39519e-05 -5.16109e-05 0 -2.12758e-05 -4.62792e-05 0 -3.78917e-05 -2.67102e-05 0 -4.09991e-05 -1.16254e-05 0 -3.94441e-05 -2.77319e-06 0 -3.66665e-05 2.0282e-06 0 -3.36936e-05 4.5103e-06 0 -3.08144e-05 5.68332e-06 0 -2.81081e-05 6.11204e-06 0 -2.5593e-05 6.14374e-06 0 -2.32685e-05 5.95388e-06 0 -2.1127e-05 5.64171e-06 0 -1.91581e-05 5.28394e-06 0 -1.735e-05 4.91153e-06 0 -1.569e-05 4.54613e-06 0 -1.41656e-05 4.19752e-06 0 -1.27645e-05 3.87573e-06 0 -1.14747e-05 3.57901e-06 0 -1.02851e-05 3.30914e-06 0 -9.18519e-06 3.06793e-06 0 -8.16518e-06 2.85061e-06 0 -7.21605e-06 2.65904e-06 0 -6.32919e-06 2.49053e-06 0 -5.49685e-06 2.34217e-06 0 -4.71165e-06 2.21666e-06 0 -3.96665e-06 2.10904e-06 0 -3.2555e-06 2.01946e-06 0 -2.57194e-06 1.94833e-06 0 -1.91017e-06 1.89263e-06 0 -1.26458e-06 1.85396e-06 0 -6.29619e-07 1.83093e-06 0 0 1.82226e-06 0 1.09395e-05 -4.08464e-05 0 -1.65685e-05 -3.793e-05 0 -3.24268e-05 -2.38205e-05 0 -3.73689e-05 -1.13513e-05 0 -3.73597e-05 -3.38059e-06 0 -3.55411e-05 1.16544e-06 0 -3.31244e-05 3.59733e-06 0 -3.05624e-05 4.78995e-06 0 -2.80349e-05 5.26373e-06 0 -2.56189e-05 5.34943e-06 0 -2.3347e-05 5.21619e-06 0 -2.12312e-05 4.95997e-06 0 -1.92725e-05 4.65593e-06 0 -1.74656e-05 4.33386e-06 0 -1.58017e-05 4.01506e-06 0 -1.42706e-05 3.70946e-06 0 -1.28615e-05 3.42639e-06 0 -1.15632e-05 3.1649e-06 0 -1.03652e-05 2.92675e-06 0 -9.25704e-06 2.71369e-06 0 -8.22914e-06 2.52163e-06 0 -7.27256e-06 2.35225e-06 0 -6.37867e-06 2.20322e-06 0 -5.53973e-06 2.07198e-06 0 -4.74831e-06 1.96093e-06 0 -3.99744e-06 1.86571e-06 0 -3.28071e-06 1.78644e-06 0 -2.59182e-06 1.7235e-06 0 -1.9249e-06 1.6742e-06 0 -1.27433e-06 1.63999e-06 0 -6.34466e-07 1.61961e-06 0 0 1.61193e-06 0 8.84399e-06 -3.25072e-05 0 -1.34318e-05 -3.08291e-05 0 -2.81728e-05 -2.06176e-05 0 -3.42446e-05 -1.05468e-05 0 -3.54562e-05 -3.60986e-06 0 -3.44751e-05 5.33087e-07 0 -3.25691e-05 2.81859e-06 0 -3.03058e-05 3.97336e-06 0 -2.79491e-05 4.45888e-06 0 -2.56289e-05 4.57883e-06 0 -2.34083e-05 4.49062e-06 0 -2.13183e-05 4.28387e-06 0 -1.93703e-05 4.02967e-06 0 -1.75654e-05 3.75575e-06 0 -1.58987e-05 3.48235e-06 0 -1.43623e-05 3.21911e-06 0 -1.29464e-05 2.97449e-06 0 -1.16408e-05 2.74814e-06 0 -1.04354e-05 2.54174e-06 0 -9.32009e-06 2.35693e-06 0 -8.2853e-06 2.19025e-06 0 -7.32218e-06 2.04319e-06 0 -6.42214e-06 1.91377e-06 0 -5.57741e-06 1.79978e-06 0 -4.78053e-06 1.70331e-06 0 -4.0245e-06 1.62059e-06 0 -3.30286e-06 1.55171e-06 0 -2.60928e-06 1.49703e-06 0 -1.93785e-06 1.4542e-06 0 -1.28289e-06 1.42447e-06 0 -6.38726e-07 1.40676e-06 0 4.6211e-20 1.40009e-06 0 7.37479e-06 -2.57243e-05 0 -1.13099e-05 -2.47155e-05 0 -2.49197e-05 -1.73181e-05 0 -3.16406e-05 -9.36338e-06 0 -3.37816e-05 -3.52635e-06 0 -3.3505e-05 1.04675e-07 0 -3.20506e-05 2.16283e-06 0 -3.00583e-05 3.22839e-06 0 -2.78587e-05 3.69499e-06 0 -2.56273e-05 3.83082e-06 0 -2.34549e-05 3.77675e-06 0 -2.13894e-05 3.61339e-06 0 -1.94521e-05 3.40533e-06 0 -1.76498e-05 3.17749e-06 0 -1.59813e-05 2.94836e-06 0 -1.44405e-05 2.72685e-06 0 -1.3019e-05 2.52041e-06 0 -1.17073e-05 2.3291e-06 0 -1.04957e-05 2.15447e-06 0 -9.37418e-06 1.99799e-06 0 -8.3335e-06 1.8568e-06 0 -7.3648e-06 1.73218e-06 0 -6.45947e-06 1.62248e-06 0 -5.60977e-06 1.52584e-06 0 -4.8082e-06 1.44405e-06 0 -4.04774e-06 1.37391e-06 0 -3.3219e-06 1.31551e-06 0 -2.62429e-06 1.26913e-06 0 -1.94898e-06 1.23281e-06 0 -1.29025e-06 1.2076e-06 0 -6.42386e-07 1.19258e-06 0 0 1.18693e-06 0 6.33826e-06 -1.99784e-05 0 -9.85363e-06 -1.9352e-05 0 -2.24706e-05 -1.4033e-05 0 -2.95378e-05 -7.91818e-06 0 -3.23649e-05 -3.19297e-06 0 -3.26597e-05 -1.49884e-07 0 -3.15888e-05 1.61544e-06 0 -2.98322e-05 2.54764e-06 0 -2.77711e-05 2.9682e-06 0 -2.56187e-05 3.10342e-06 0 -2.34895e-05 3.07368e-06 0 -2.14462e-05 2.94819e-06 0 -1.95188e-05 2.78293e-06 0 -1.77194e-05 2.59932e-06 0 -1.60497e-05 2.4134e-06 0 -1.45055e-05 2.23304e-06 0 -1.30795e-05 2.06454e-06 0 -1.17627e-05 1.90817e-06 0 -1.05459e-05 1.76531e-06 0 -9.41931e-06 1.63721e-06 0 -8.37373e-06 1.52159e-06 0 -7.40037e-06 1.4195e-06 0 -6.49065e-06 1.32962e-06 0 -5.63679e-06 1.25043e-06 0 -4.83132e-06 1.1834e-06 0 -4.06715e-06 1.12591e-06 0 -3.33779e-06 1.07804e-06 0 -2.63682e-06 1.04003e-06 0 -1.95827e-06 1.01026e-06 0 -1.29639e-06 9.89595e-07 0 -6.45443e-07 9.77285e-07 0 0 9.72648e-07 0 5.61293e-06 -1.49361e-05 0 -8.85525e-06 -1.45425e-05 0 -2.06725e-05 -1.08095e-05 0 -2.7906e-05 -6.29794e-06 0 -3.12225e-05 -2.66723e-06 0 -3.19609e-05 -2.62399e-07 0 -3.12e-05 1.15929e-06 0 -2.96381e-05 1.92184e-06 0 -2.76928e-05 2.27346e-06 0 -2.56069e-05 2.39395e-06 0 -2.35142e-05 2.38007e-06 0 -2.14899e-05 2.28771e-06 0 -1.95712e-05 2.16235e-06 0 -1.77745e-05 2.02133e-06 0 -1.61041e-05 1.87774e-06 0 -1.45573e-05 1.73802e-06 0 -1.31278e-05 1.60722e-06 0 -1.1807e-05 1.48571e-06 0 -1.05861e-05 1.37461e-06 0 -9.45546e-06 1.27494e-06 0 -8.40596e-06 1.18494e-06 0 -7.42887e-06 1.10546e-06 0 -6.51562e-06 1.03548e-06 0 -5.65845e-06 9.73809e-07 0 -4.84984e-06 9.21606e-07 0 -4.08271e-06 8.7683e-07 0 -3.35053e-06 8.39549e-07 0 -2.64687e-06 8.09941e-07 0 -1.96572e-06 7.86753e-07 0 -1.30132e-06 7.70656e-07 0 -6.47893e-07 7.61067e-07 0 0 7.57456e-07 0 5.12189e-06 -1.03686e-05 0 -8.18905e-06 -1.01277e-05 0 -1.94126e-05 -7.65784e-06 0 -2.6714e-05 -4.56488e-06 0 -3.03625e-05 -2.00026e-06 0 -3.14242e-05 -2.65113e-07 0 -3.08971e-05 7.75551e-07 0 -2.94848e-05 1.34026e-06 0 -2.76291e-05 1.60467e-06 0 -2.5595e-05 1.69909e-06 0 -2.3531e-05 1.69424e-06 0 -2.15217e-05 1.63112e-06 0 -1.961e-05 1.54333e-06 0 -1.78155e-05 1.44358e-06 0 -1.61447e-05 1.34157e-06 0 -1.45961e-05 1.24208e-06 0 -1.3164e-05 1.14879e-06 0 -1.18403e-05 1.06206e-06 0 -1.06163e-05 9.82715e-07 0 -9.48259e-06 9.11499e-07 0 -8.43017e-06 8.47181e-07 0 -7.45028e-06 7.90371e-07 0 -6.53439e-06 7.40338e-07 0 -5.67472e-06 6.9625e-07 0 -4.86376e-06 6.58925e-07 0 -4.0944e-06 6.26909e-07 0 -3.36011e-06 6.00252e-07 0 -2.65442e-06 5.79081e-07 0 -1.97132e-06 5.625e-07 0 -1.30502e-06 5.50989e-07 0 -6.49735e-07 5.44132e-07 0 4.96509e-21 5.4155e-07 0 4.81719e-06 -6.107e-06 0 -7.77953e-06 -5.9763e-06 0 -1.86123e-05 -4.56769e-06 0 -2.59346e-05 -2.76317e-06 0 -2.97881e-05 -1.2372e-06 0 -3.10605e-05 -1.89991e-07 0 -3.06898e-05 4.442e-07 0 -2.93787e-05 7.91006e-07 0 -2.75842e-05 9.55001e-07 0 -2.55857e-05 1.01503e-06 0 -2.35413e-05 1.01417e-06 0 -2.15424e-05 9.77467e-07 0 -1.96355e-05 9.25499e-07 0 -1.78427e-05 8.66051e-07 0 -1.61717e-05 8.05064e-07 0 -1.46219e-05 7.45499e-07 0 -1.31881e-05 6.89584e-07 0 -1.18624e-05 6.37571e-07 0 -1.06364e-05 5.89968e-07 0 -9.50072e-06 5.47231e-07 0 -8.44633e-06 5.08627e-07 0 -7.46458e-06 4.74524e-07 0 -6.54693e-06 4.44488e-07 0 -5.68559e-06 4.18018e-07 0 -4.87306e-06 3.95609e-07 0 -4.10222e-06 3.76387e-07 0 -3.36651e-06 3.60381e-07 0 -2.65946e-06 3.47669e-07 0 -1.97506e-06 3.37713e-07 0 -1.30749e-06 3.30802e-07 0 -6.50965e-07 3.26685e-07 0 0 3.25134e-07 0 4.67081e-06 -2.01719e-06 0 -7.58384e-06 -1.97572e-06 0 -1.82227e-05 -1.51791e-06 0 -2.55485e-05 -9.24873e-07 0 -2.94998e-05 -4.18472e-07 0 -3.08764e-05 -6.84679e-08 0 -3.05841e-05 1.44533e-07 0 -2.93243e-05 2.61462e-07 0 -2.7561e-05 3.17022e-07 0 -2.55805e-05 3.37599e-07 0 -2.35463e-05 3.37657e-07 0 -2.15526e-05 3.25618e-07 0 -1.96483e-05 3.08415e-07 0 -1.78563e-05 2.88666e-07 0 -1.61853e-05 2.68375e-07 0 -1.46349e-05 2.48541e-07 0 -1.32002e-05 2.29913e-07 0 -1.18736e-05 2.12579e-07 0 -1.06465e-05 1.96713e-07 0 -9.50981e-06 1.82466e-07 0 -8.45445e-06 1.69595e-07 0 -7.47176e-06 1.58225e-07 0 -6.55322e-06 1.4821e-07 0 -5.69105e-06 1.39384e-07 0 -4.87773e-06 1.31912e-07 0 -4.10614e-06 1.25502e-07 0 -3.36972e-06 1.20165e-07 0 -2.66199e-06 1.15926e-07 0 -1.97694e-06 1.12607e-07 0 -1.30873e-06 1.10302e-07 0 -6.51583e-07 1.08929e-07 0 0 1.08412e-07 0 4.67081e-06 2.01719e-06 0 -7.58384e-06 1.97572e-06 0 -1.82227e-05 1.51791e-06 0 -2.55485e-05 9.24873e-07 0 -2.94998e-05 4.18472e-07 0 -3.08764e-05 6.84679e-08 0 -3.05841e-05 -1.44533e-07 0 -2.93243e-05 -2.61462e-07 0 -2.7561e-05 -3.17022e-07 0 -2.55805e-05 -3.37599e-07 0 -2.35463e-05 -3.37657e-07 0 -2.15526e-05 -3.25618e-07 0 -1.96483e-05 -3.08415e-07 0 -1.78563e-05 -2.88666e-07 0 -1.61853e-05 -2.68375e-07 0 -1.46349e-05 -2.48541e-07 0 -1.32002e-05 -2.29913e-07 0 -1.18736e-05 -2.12579e-07 0 -1.06465e-05 -1.96713e-07 0 -9.50981e-06 -1.82466e-07 0 -8.45445e-06 -1.69595e-07 0 -7.47176e-06 -1.58225e-07 0 -6.55322e-06 -1.4821e-07 0 -5.69105e-06 -1.39384e-07 0 -4.87773e-06 -1.31912e-07 0 -4.10614e-06 -1.25502e-07 0 -3.36972e-06 -1.20165e-07 0 -2.66199e-06 -1.15926e-07 0 -1.97694e-06 -1.12607e-07 0 -1.30873e-06 -1.10302e-07 0 -6.51583e-07 -1.08929e-07 0 0 -1.08412e-07 0 4.81719e-06 6.107e-06 0 -7.77953e-06 5.9763e-06 0 -1.86123e-05 4.56769e-06 0 -2.59346e-05 2.76317e-06 0 -2.97881e-05 1.2372e-06 0 -3.10605e-05 1.89991e-07 0 -3.06898e-05 -4.442e-07 0 -2.93787e-05 -7.91006e-07 0 -2.75842e-05 -9.55001e-07 0 -2.55857e-05 -1.01503e-06 0 -2.35413e-05 -1.01417e-06 0 -2.15424e-05 -9.77467e-07 0 -1.96355e-05 -9.25499e-07 0 -1.78427e-05 -8.66051e-07 0 -1.61717e-05 -8.05064e-07 0 -1.46219e-05 -7.45499e-07 0 -1.31881e-05 -6.89584e-07 0 -1.18624e-05 -6.37571e-07 0 -1.06364e-05 -5.89968e-07 0 -9.50072e-06 -5.47231e-07 0 -8.44633e-06 -5.08627e-07 0 -7.46458e-06 -4.74524e-07 0 -6.54693e-06 -4.44488e-07 0 -5.68559e-06 -4.18018e-07 0 -4.87306e-06 -3.95609e-07 0 -4.10222e-06 -3.76387e-07 0 -3.36651e-06 -3.60381e-07 0 -2.65946e-06 -3.47669e-07 0 -1.97506e-06 -3.37713e-07 0 -1.30749e-06 -3.30802e-07 0 -6.50965e-07 -3.26685e-07 0 0 -3.25134e-07 0 5.12189e-06 1.03686e-05 0 -8.18905e-06 1.01277e-05 0 -1.94126e-05 7.65784e-06 0 -2.6714e-05 4.56488e-06 0 -3.03625e-05 2.00026e-06 0 -3.14242e-05 2.65113e-07 0 -3.08971e-05 -7.75551e-07 0 -2.94848e-05 -1.34026e-06 0 -2.76291e-05 -1.60467e-06 0 -2.5595e-05 -1.69909e-06 0 -2.3531e-05 -1.69424e-06 0 -2.15217e-05 -1.63112e-06 0 -1.961e-05 -1.54333e-06 0 -1.78155e-05 -1.44358e-06 0 -1.61447e-05 -1.34157e-06 0 -1.45961e-05 -1.24208e-06 0 -1.3164e-05 -1.14879e-06 0 -1.18403e-05 -1.06206e-06 0 -1.06163e-05 -9.82715e-07 0 -9.48259e-06 -9.11499e-07 0 -8.43017e-06 -8.47181e-07 0 -7.45028e-06 -7.90371e-07 0 -6.53439e-06 -7.40338e-07 0 -5.67472e-06 -6.9625e-07 0 -4.86376e-06 -6.58925e-07 0 -4.0944e-06 -6.26909e-07 0 -3.36011e-06 -6.00252e-07 0 -2.65442e-06 -5.79081e-07 0 -1.97132e-06 -5.625e-07 0 -1.30502e-06 -5.50989e-07 0 -6.49735e-07 -5.44132e-07 0 0 -5.4155e-07 0 5.61293e-06 1.49361e-05 0 -8.85525e-06 1.45425e-05 0 -2.06725e-05 1.08095e-05 0 -2.7906e-05 6.29794e-06 0 -3.12225e-05 2.66723e-06 0 -3.19609e-05 2.62399e-07 0 -3.12e-05 -1.15929e-06 0 -2.96381e-05 -1.92184e-06 0 -2.76928e-05 -2.27346e-06 0 -2.56069e-05 -2.39395e-06 0 -2.35142e-05 -2.38007e-06 0 -2.14899e-05 -2.28771e-06 0 -1.95712e-05 -2.16235e-06 0 -1.77745e-05 -2.02133e-06 0 -1.61041e-05 -1.87774e-06 0 -1.45573e-05 -1.73802e-06 0 -1.31278e-05 -1.60722e-06 0 -1.1807e-05 -1.48571e-06 0 -1.05861e-05 -1.37461e-06 0 -9.45546e-06 -1.27494e-06 0 -8.40596e-06 -1.18494e-06 0 -7.42887e-06 -1.10546e-06 0 -6.51562e-06 -1.03548e-06 0 -5.65845e-06 -9.73809e-07 0 -4.84984e-06 -9.21606e-07 0 -4.08271e-06 -8.7683e-07 0 -3.35053e-06 -8.39549e-07 0 -2.64687e-06 -8.09941e-07 0 -1.96572e-06 -7.86753e-07 0 -1.30132e-06 -7.70656e-07 0 -6.47893e-07 -7.61067e-07 0 -2.36116e-20 -7.57456e-07 0 6.33826e-06 1.99784e-05 0 -9.85363e-06 1.9352e-05 0 -2.24706e-05 1.4033e-05 0 -2.95378e-05 7.91818e-06 0 -3.23649e-05 3.19297e-06 0 -3.26597e-05 1.49884e-07 0 -3.15888e-05 -1.61544e-06 0 -2.98322e-05 -2.54764e-06 0 -2.77711e-05 -2.9682e-06 0 -2.56187e-05 -3.10342e-06 0 -2.34895e-05 -3.07368e-06 0 -2.14462e-05 -2.94819e-06 0 -1.95188e-05 -2.78293e-06 0 -1.77194e-05 -2.59932e-06 0 -1.60497e-05 -2.4134e-06 0 -1.45055e-05 -2.23304e-06 0 -1.30795e-05 -2.06454e-06 0 -1.17627e-05 -1.90817e-06 0 -1.05459e-05 -1.76531e-06 0 -9.41931e-06 -1.63721e-06 0 -8.37373e-06 -1.52159e-06 0 -7.40037e-06 -1.4195e-06 0 -6.49065e-06 -1.32962e-06 0 -5.63679e-06 -1.25043e-06 0 -4.83132e-06 -1.1834e-06 0 -4.06715e-06 -1.12591e-06 0 -3.33779e-06 -1.07804e-06 0 -2.63682e-06 -1.04003e-06 0 -1.95827e-06 -1.01026e-06 0 -1.29639e-06 -9.89595e-07 0 -6.45443e-07 -9.77285e-07 0 0 -9.72648e-07 0 7.37479e-06 2.57243e-05 0 -1.13099e-05 2.47155e-05 0 -2.49197e-05 1.73181e-05 0 -3.16406e-05 9.36338e-06 0 -3.37816e-05 3.52635e-06 0 -3.3505e-05 -1.04675e-07 0 -3.20506e-05 -2.16283e-06 0 -3.00583e-05 -3.22839e-06 0 -2.78587e-05 -3.69499e-06 0 -2.56273e-05 -3.83082e-06 0 -2.34549e-05 -3.77675e-06 0 -2.13894e-05 -3.61339e-06 0 -1.94521e-05 -3.40533e-06 0 -1.76498e-05 -3.17749e-06 0 -1.59813e-05 -2.94836e-06 0 -1.44405e-05 -2.72685e-06 0 -1.3019e-05 -2.52041e-06 0 -1.17073e-05 -2.3291e-06 0 -1.04957e-05 -2.15447e-06 0 -9.37418e-06 -1.99799e-06 0 -8.3335e-06 -1.8568e-06 0 -7.3648e-06 -1.73218e-06 0 -6.45947e-06 -1.62248e-06 0 -5.60977e-06 -1.52584e-06 0 -4.8082e-06 -1.44405e-06 0 -4.04774e-06 -1.37391e-06 0 -3.3219e-06 -1.31551e-06 0 -2.62429e-06 -1.26913e-06 0 -1.94898e-06 -1.23281e-06 0 -1.29025e-06 -1.2076e-06 0 -6.42386e-07 -1.19258e-06 0 0 -1.18693e-06 0 8.84399e-06 3.25072e-05 0 -1.34318e-05 3.08291e-05 0 -2.81728e-05 2.06176e-05 0 -3.42446e-05 1.05468e-05 0 -3.54562e-05 3.60986e-06 0 -3.44751e-05 -5.33087e-07 0 -3.25691e-05 -2.81859e-06 0 -3.03058e-05 -3.97336e-06 0 -2.79491e-05 -4.45888e-06 0 -2.56289e-05 -4.57883e-06 0 -2.34083e-05 -4.49062e-06 0 -2.13183e-05 -4.28387e-06 0 -1.93703e-05 -4.02967e-06 0 -1.75654e-05 -3.75575e-06 0 -1.58987e-05 -3.48235e-06 0 -1.43623e-05 -3.21911e-06 0 -1.29464e-05 -2.97449e-06 0 -1.16408e-05 -2.74814e-06 0 -1.04354e-05 -2.54174e-06 0 -9.32009e-06 -2.35693e-06 0 -8.2853e-06 -2.19025e-06 0 -7.32218e-06 -2.04319e-06 0 -6.42214e-06 -1.91377e-06 0 -5.57741e-06 -1.79978e-06 0 -4.78053e-06 -1.70331e-06 0 -4.0245e-06 -1.62059e-06 0 -3.30286e-06 -1.55171e-06 0 -2.60928e-06 -1.49703e-06 0 -1.93785e-06 -1.4542e-06 0 -1.28289e-06 -1.42447e-06 0 -6.38726e-07 -1.40676e-06 0 0 -1.40009e-06 0 1.09395e-05 4.08464e-05 0 -1.65685e-05 3.793e-05 0 -3.24268e-05 2.38205e-05 0 -3.73689e-05 1.13513e-05 0 -3.73597e-05 3.38059e-06 0 -3.55411e-05 -1.16544e-06 0 -3.31244e-05 -3.59733e-06 0 -3.05624e-05 -4.78995e-06 0 -2.80349e-05 -5.26373e-06 0 -2.56189e-05 -5.34943e-06 0 -2.3347e-05 -5.21619e-06 0 -2.12312e-05 -4.95997e-06 0 -1.92725e-05 -4.65593e-06 0 -1.74656e-05 -4.33386e-06 0 -1.58017e-05 -4.01506e-06 0 -1.42706e-05 -3.70946e-06 0 -1.28615e-05 -3.42639e-06 0 -1.15632e-05 -3.1649e-06 0 -1.03652e-05 -2.92675e-06 0 -9.25704e-06 -2.71369e-06 0 -8.22914e-06 -2.52163e-06 0 -7.27256e-06 -2.35225e-06 0 -6.37867e-06 -2.20322e-06 0 -5.53973e-06 -2.07198e-06 0 -4.74831e-06 -1.96093e-06 0 -3.99744e-06 -1.86571e-06 0 -3.28071e-06 -1.78644e-06 0 -2.59182e-06 -1.7235e-06 0 -1.9249e-06 -1.6742e-06 0 -1.27433e-06 -1.63999e-06 0 -6.34466e-07 -1.61961e-06 0 7.09375e-20 -1.61193e-06 0 1.39519e-05 5.16109e-05 0 -2.12758e-05 4.62792e-05 0 -3.78917e-05 2.67102e-05 0 -4.09991e-05 1.16254e-05 0 -3.94441e-05 2.77319e-06 0 -3.66665e-05 -2.0282e-06 0 -3.36936e-05 -4.5103e-06 0 -3.08144e-05 -5.68332e-06 0 -2.81081e-05 -6.11204e-06 0 -2.5593e-05 -6.14374e-06 0 -2.32685e-05 -5.95388e-06 0 -2.1127e-05 -5.64171e-06 0 -1.91581e-05 -5.28394e-06 0 -1.735e-05 -4.91153e-06 0 -1.569e-05 -4.54613e-06 0 -1.41656e-05 -4.19752e-06 0 -1.27645e-05 -3.87573e-06 0 -1.14747e-05 -3.57901e-06 0 -1.02851e-05 -3.30914e-06 0 -9.18519e-06 -3.06793e-06 0 -8.16518e-06 -2.85061e-06 0 -7.21605e-06 -2.65904e-06 0 -6.32919e-06 -2.49053e-06 0 -5.49685e-06 -2.34217e-06 0 -4.71165e-06 -2.21666e-06 0 -3.96665e-06 -2.10904e-06 0 -3.2555e-06 -2.01946e-06 0 -2.57194e-06 -1.94833e-06 0 -1.91017e-06 -1.89263e-06 0 -1.26458e-06 -1.85396e-06 0 -6.29619e-07 -1.83093e-06 0 0 -1.82226e-06 0 1.84012e-05 6.63735e-05 0 -2.86044e-05 5.60799e-05 0 -4.48295e-05 2.8907e-05 0 -4.50918e-05 1.11865e-05 0 -4.1645e-05 1.72548e-06 0 -3.78081e-05 -3.14174e-06 0 -3.42506e-05 -5.56451e-06 0 -3.10466e-05 -6.65602e-06 0 -2.81598e-05 -7.00476e-06 0 -2.55456e-05 -6.96204e-06 0 -2.31693e-05 -6.7036e-06 0 -2.10033e-05 -6.32883e-06 0 -1.90256e-05 -5.91331e-06 0 -1.72178e-05 -5.48834e-06 0 -1.55632e-05 -5.07512e-06 0 -1.40468e-05 -4.68284e-06 0 -1.26549e-05 -4.32208e-06 0 -1.13748e-05 -3.99008e-06 0 -1.01949e-05 -3.68853e-06 0 -9.10437e-06 -3.41929e-06 0 -8.09326e-06 -3.17687e-06 0 -7.15254e-06 -2.96326e-06 0 -6.27359e-06 -2.77543e-06 0 -5.44867e-06 -2.61009e-06 0 -4.67046e-06 -2.47024e-06 0 -3.93207e-06 -2.35034e-06 0 -3.22719e-06 -2.25054e-06 0 -2.54962e-06 -2.17131e-06 0 -1.89362e-06 -2.10926e-06 0 -1.25364e-06 -2.06619e-06 0 -6.24176e-07 -2.04054e-06 0 0 -2.03087e-06 0 2.50354e-05 8.825e-05 0 -4.02228e-05 6.72093e-05 0 -5.33622e-05 2.98048e-05 0 -4.95112e-05 9.83554e-06 0 -4.38683e-05 1.86902e-07 0 -3.89142e-05 -4.51748e-06 0 -3.47677e-05 -6.76177e-06 0 -3.12436e-05 -7.70776e-06 0 -2.81813e-05 -7.94123e-06 0 -2.5472e-05 -7.80365e-06 0 -2.30469e-05 -7.46472e-06 0 -2.08587e-05 -7.02075e-06 0 -1.88743e-05 -6.54349e-06 0 -1.70686e-05 -6.06376e-06 0 -1.5421e-05 -5.60154e-06 0 -1.39142e-05 -5.16497e-06 0 -1.2533e-05 -4.76502e-06 0 -1.12639e-05 -4.3977e-06 0 -1.00948e-05 -4.06456e-06 0 -9.01474e-06 -3.76743e-06 0 -8.01355e-06 -3.50007e-06 0 -7.08218e-06 -3.26461e-06 0 -6.21199e-06 -3.05764e-06 0 -5.39532e-06 -2.87549e-06 0 -4.62485e-06 -2.72144e-06 0 -3.89378e-06 -2.58939e-06 0 -3.19584e-06 -2.47948e-06 0 -2.52491e-06 -2.39222e-06 0 -1.8753e-06 -2.3239e-06 0 -1.24153e-06 -2.27647e-06 0 -6.1815e-07 -2.24822e-06 0 1.47707e-19 -2.23758e-06 0 3.48213e-05 0.000124111 0 -5.87938e-05 7.84778e-05 0 -6.33675e-05 2.85482e-05 0 -5.4033e-05 7.39028e-06 0 -4.59997e-05 -1.87088e-06 0 -3.99291e-05 -6.15513e-06 0 -3.52162e-05 -8.09807e-06 0 -3.139e-05 -8.83519e-06 0 -2.8164e-05 -8.91913e-06 0 -2.53671e-05 -8.66698e-06 0 -2.28983e-05 -8.23611e-06 0 -2.06915e-05 -7.71658e-06 0 -1.87032e-05 -7.17376e-06 0 -1.69019e-05 -6.63716e-06 0 -1.52632e-05 -6.12482e-06 0 -1.37676e-05 -5.6434e-06 0 -1.23986e-05 -5.20407e-06 0 -1.11418e-05 -4.80144e-06 0 -9.98489e-06 -4.43682e-06 0 -8.91635e-06 -4.112e-06 0 -7.9261e-06 -3.8199e-06 0 -7.00501e-06 -3.5628e-06 0 -6.14447e-06 -3.33688e-06 0 -5.33684e-06 -3.13809e-06 0 -4.57487e-06 -2.97002e-06 0 -3.85182e-06 -2.82595e-06 0 -3.16149e-06 -2.70605e-06 0 -2.49784e-06 -2.61087e-06 0 -1.85523e-06 -2.53634e-06 0 -1.22826e-06 -2.4846e-06 0 -6.11548e-07 -2.45379e-06 0 0 -2.44219e-06 0 4.76469e-05 0.000191268 0 -8.77223e-05 8.5913e-05 0 -7.42124e-05 2.41421e-05 0 -5.83301e-05 3.73734e-06 0 -4.79078e-05 -4.44282e-06 0 -4.07952e-05 -8.04047e-06 0 -3.55678e-05 -9.56317e-06 0 -3.14708e-05 -1.00319e-05 0 -2.80994e-05 -9.93453e-06 0 -2.52261e-05 -9.54956e-06 0 -2.27208e-05 -9.01611e-06 0 -2.05002e-05 -8.41511e-06 0 -1.85113e-05 -7.80319e-06 0 -1.67172e-05 -7.20779e-06 0 -1.50895e-05 -6.64433e-06 0 -1.36069e-05 -6.11758e-06 0 -1.22517e-05 -5.63875e-06 0 -1.10087e-05 -5.20087e-06 0 -9.8651e-06 -4.80494e-06 0 -8.80925e-06 -4.45263e-06 0 -7.83097e-06 -4.13603e-06 0 -6.92111e-06 -3.85751e-06 0 -6.07107e-06 -3.61286e-06 0 -5.27328e-06 -3.39765e-06 0 -4.52056e-06 -3.21572e-06 0 -3.80623e-06 -3.05979e-06 0 -3.12417e-06 -2.93003e-06 0 -2.46842e-06 -2.82703e-06 0 -1.83342e-06 -2.74638e-06 0 -1.21384e-06 -2.6904e-06 0 -6.04375e-07 -2.65706e-06 0 -4.65515e-19 -2.6445e-06 0 5.19959e-05 0.000342146 0 -0.000128079 8.0164e-05 0 -8.45344e-05 1.58208e-05 0 -6.20024e-05 -1.10593e-06 0 -4.94595e-05 -7.48209e-06 0 -4.14584e-05 -1.01444e-05 0 -3.57973e-05 -1.11407e-05 0 -3.14727e-05 -1.12888e-05 0 -2.79803e-05 -1.0982e-05 0 -2.50449e-05 -1.04481e-05 0 -2.25117e-05 -9.80261e-06 0 -2.02832e-05 -9.11488e-06 0 -1.8298e-05 -8.4307e-06 0 -1.65139e-05 -7.77482e-06 0 -1.48997e-05 -7.15939e-06 0 -1.34322e-05 -6.58693e-06 0 -1.20924e-05 -6.06857e-06 0 -1.08646e-05 -5.59554e-06 0 -9.73556e-06 -5.16852e-06 0 -8.69354e-06 -4.78896e-06 0 -7.72826e-06 -4.44814e-06 0 -6.83055e-06 -4.14846e-06 0 -5.99188e-06 -3.88532e-06 0 -5.20472e-06 -3.6539e-06 0 -4.46198e-06 -3.45831e-06 0 -3.75706e-06 -3.29069e-06 0 -3.08393e-06 -3.15122e-06 0 -2.4367e-06 -3.04051e-06 0 -1.8099e-06 -2.95383e-06 0 -1.1983e-06 -2.89367e-06 0 -5.96642e-07 -2.85784e-06 0 -3.12933e-19 -2.84434e-06 0 -5.88753e-05 0.000770063 0 -0.000169958 4.80785e-05 0 -9.23848e-05 3.66038e-06 0 -6.46476e-05 -6.94528e-06 0 -5.05355e-05 -1.08977e-05 0 -4.18727e-05 -1.24238e-05 0 -3.58831e-05 -1.28088e-05 0 -3.13845e-05 -1.25939e-05 0 -2.78003e-05 -1.20548e-05 0 -2.48198e-05 -1.13585e-05 0 -2.22692e-05 -1.05931e-05 0 -2.00395e-05 -9.81416e-06 0 -1.80624e-05 -9.05508e-06 0 -1.62919e-05 -8.33732e-06 0 -1.46937e-05 -7.66926e-06 0 -1.32433e-05 -7.05084e-06 0 -1.19206e-05 -6.49299e-06 0 -1.07095e-05 -5.98501e-06 0 -9.59637e-06 -5.52714e-06 0 -8.56932e-06 -5.12065e-06 0 -7.61806e-06 -4.75588e-06 0 -6.73344e-06 -4.43534e-06 0 -5.90698e-06 -4.15399e-06 0 -5.13124e-06 -3.9066e-06 0 -4.3992e-06 -3.69756e-06 0 -3.70437e-06 -3.51843e-06 0 -3.04081e-06 -3.3694e-06 0 -2.40271e-06 -3.25111e-06 0 -1.78471e-06 -3.1585e-06 0 -1.18164e-06 -3.09421e-06 0 -5.88356e-07 -3.05593e-06 0 0 -3.04151e-06 0 -0.00992856 -0.00358887 0 -0.000187764 -9.77912e-06 0 -9.59415e-05 -1.09646e-05 0 -6.59574e-05 -1.34115e-05 0 -5.10488e-05 -1.45611e-05 0 -4.2004e-05 -1.48242e-05 0 -3.58089e-05 -1.45411e-05 0 -3.11974e-05 -1.39334e-05 0 -2.75544e-05 -1.31451e-05 0 -2.45478e-05 -1.22762e-05 0 -2.19914e-05 -1.13846e-05 0 -1.97679e-05 -1.0511e-05 0 -1.78042e-05 -9.67495e-06 0 -1.60507e-05 -8.89426e-06 0 -1.44714e-05 -8.17313e-06 0 -1.30402e-05 -7.50866e-06 0 -1.17365e-05 -6.91149e-06 0 -1.05435e-05 -6.36881e-06 0 -9.44764e-06 -5.88042e-06 0 -8.43671e-06 -5.44732e-06 0 -7.50048e-06 -5.05896e-06 0 -6.62987e-06 -4.71786e-06 0 -5.81647e-06 -4.41858e-06 0 -5.05291e-06 -4.1555e-06 0 -4.3323e-06 -3.93323e-06 0 -3.64822e-06 -3.7428e-06 0 -2.99486e-06 -3.58437e-06 0 -2.3665e-06 -3.45863e-06 0 -1.75786e-06 -3.36018e-06 0 -1.16389e-06 -3.29185e-06 0 -5.79527e-07 -3.25116e-06 0 0 -3.23584e-06 0 </DataArray> 
</PointData> 
<Points> 
<DataArray type="Float32" NumberOfComponents="3"> 