<?xml version="1.0"?> 
<VTKFile type="StructuredGrid" version="0.1"> 
<StructuredGrid WholeExtent="0 31 0 31 0 0"> 
<Piece Extent="0 31 0 31 0 0"> 
<PointData>
<DataArray type="Float32" Name="B" format="ascii" NumberOfComponents="3"> 
0 5.50251e-06 0 -9.80405e-07 5.53014e-06 0 -1.96936e-06 5.60353e-06 0 -2.97532e-06 5.7269e-06 0 -4.00725e-06 5.905e-06 0 -5.07419e-06 6.133e-06 0 -6.18559e-06 6.42122e-06 0 -7.35177e-06 6.76894e-06 0 -8.58333e-06 7.17645e-06 0 -9.89207e-06 7.66154e-06 0 -1.12908e-05 8.21637e-06 0 -1.27935e-05 8.85286e-06 0 -1.44163e-05 9.58309e-06 0 -1.61769e-05 1.04035e-05 0 -1.8096e-05 1.13373e-05 0 -2.01985e-05 1.23848e-05 0 -2.25135e-05 1.35487e-05 0 -2.50784e-05 1.48599e-05 0 -2.79414e-05 1.62991e-05 0 -3.1166e-05 1.78777e-05 0 -3.48458e-05 1.95938e-05 0 -3.91156e-05 2.14144e-05 0 -4.41853e-05 2.3314e-05 0 -5.04051e-05 2.52205e-05 0 -5.83533e-05 2.70412e-05 0 -6.90896e-05 2.86407e-05 0 -8.46244e-05 2.98866e-05 0 -0.000109159 3.07709e-05 0 -0.000152773 3.1969e-05 0 -0.000246233 3.78073e-05 0 -0.000543377 8.53515e-05 0 -0.00273111 0.0110559 0 0 6.45522e-06 0 -9.27052e-07 6.48743e-06 0 -1.86201e-06 6.57301e-06 0 -2.8127e-06 6.71688e-06 0 -3.78739e-06 6.92457e-06 0 -4.79444e-06 7.19045e-06 0 -5.84257e-06 7.52656e-06 0 -6.94129e-06 7.93209e-06 0 -8.10039e-06 8.40744e-06 0 -9.33075e-06 8.97352e-06 0 -1.06442e-05 9.62135e-06 0 -1.20538e-05 1.03652e-05 0 -1.35744e-05 1.122e-05 0 -1.5223e-05 1.21823e-05 0 -1.7019e-05 1.32817e-05 0 -1.89866e-05 1.45208e-05 0 -2.11543e-05 1.59069e-05 0 -2.35593e-05 1.74873e-05 0 -2.62501e-05 1.92478e-05 0 -2.92916e-05 2.12259e-05 0 -3.27785e-05 2.34593e-05 0 -3.68462e-05 2.59528e-05 0 -4.17e-05 2.88119e-05 0 -4.76698e-05 3.21098e-05 0 -5.52706e-05 3.60376e-05 0 -6.53783e-05 4.10724e-05 0 -7.94809e-05 4.82288e-05 0 -0.000100182 6.00718e-05 0 -0.000131879 8.38029e-05 0 -0.000178926 0.00014231 0 -0.000203674 0.000310925 0 0.000129749 0.000502634 0 0 7.35074e-06 0 -8.65865e-07 7.38716e-06 0 -1.73891e-06 7.48392e-06 0 -2.62621e-06 7.64657e-06 0 -3.53528e-06 7.88135e-06 0 -4.47366e-06 8.18189e-06 0 -5.44924e-06 8.5618e-06 0 -6.47057e-06 9.02019e-06 0 -7.54645e-06 9.55752e-06 0 -8.68666e-06 1.01976e-05 0 -9.90185e-06 1.09303e-05 0 -1.12036e-05 1.17723e-05 0 -1.26053e-05 1.27409e-05 0 -1.41222e-05 1.3833e-05 0 -1.57718e-05 1.50842e-05 0 -1.75758e-05 1.64996e-05 0 -1.956e-05 1.80908e-05 0 -2.17577e-05 1.99209e-05 0 -2.42122e-05 2.19807e-05 0 -2.69801e-05 2.43313e-05 0 -3.01421e-05 2.70457e-05 0 -3.38082e-05 3.01588e-05 0 -3.81357e-05 3.38803e-05 0 -4.33553e-05 3.83812e-05 0 -4.97829e-05 4.40243e-05 0 -5.78542e-05 5.15955e-05 0 -6.80607e-05 6.24785e-05 0 -8.05984e-05 7.94842e-05 0 -9.37753e-05 0.000108234 0 -9.7944e-05 0.000157801 0 -6.07699e-05 0.000227325 0 4.56456e-05 0.000249359 0 7.00107e-20 8.18162e-06 0 -7.97568e-07 8.22182e-06 0 -1.6015e-06 8.3286e-06 0 -2.41808e-06 8.5081e-06 0 -3.25393e-06 8.76716e-06 0 -4.11572e-06 9.09874e-06 0 -5.01038e-06 9.51783e-06 0 -5.94539e-06 1.00234e-05 0 -6.92842e-06 1.0616e-05 0 -7.96793e-06 1.13219e-05 0 -9.0731e-06 1.21301e-05 0 -1.02538e-05 1.30591e-05 0 -1.15216e-05 1.41284e-05 0 -1.28892e-05 1.53353e-05 0 -1.43714e-05 1.67202e-05 0 -1.5986e-05 1.82906e-05 0 -1.77541e-05 2.00614e-05 0 -1.97023e-05 2.21086e-05 0 -2.1864e-05 2.44263e-05 0 -2.4281e-05 2.70931e-05 0 -2.70095e-05 3.02057e-05 0 -3.01194e-05 3.38149e-05 0 -3.36986e-05 3.81862e-05 0 -3.78511e-05 4.35208e-05 0 -4.26699e-05 5.02111e-05 0 -4.81721e-05 5.90196e-05 0 -5.40947e-05 7.10355e-05 0 -5.93734e-05 8.79503e-05 0 -6.09473e-05 0.000111789 0 -5.18995e-05 0.000142567 0 -2.27963e-05 0.000171409 0 2.28641e-05 0.000176734 0 0 8.94114e-06 0 -7.22961e-07 8.98465e-06 0 -1.45141e-06 9.10021e-06 0 -2.19076e-06 9.29444e-06 0 -2.9467e-06 9.57471e-06 0 -3.72493e-06 9.93336e-06 0 -4.53134e-06 1.03865e-05 0 -5.37224e-06 1.09331e-05 0 -6.25404e-06 1.15736e-05 0 -7.18376e-06 1.23362e-05 0 -8.16889e-06 1.32092e-05 0 -9.21744e-06 1.42126e-05 0 -1.03385e-05 1.53676e-05 0 -1.1542e-05 1.66715e-05 0 -1.28392e-05 1.81685e-05 0 -1.42434e-05 1.98674e-05 0 -1.57693e-05 2.17855e-05 0 -1.74351e-05 2.40072e-05 0 -1.92619e-05 2.65276e-05 0 -2.12737e-05 2.94345e-05 0 -2.34984e-05 3.28343e-05 0 -2.59634e-05 3.67791e-05 0 -2.8689e-05 4.15426e-05 0 -3.16698e-05 4.73009e-05 0 -3.48342e-05 5.43782e-05 0 -3.7953e-05 6.33362e-05 0 -4.04669e-05 7.47789e-05 0 -4.11791e-05 8.93299e-05 0 -3.78874e-05 0.000107047 0 -2.75251e-05 0.000126022 0 -8.34184e-06 0.000140828 0 1.55663e-05 0.000144317 0 0 9.62344e-06 0 -6.42895e-07 9.66975e-06 0 -1.29036e-06 9.79276e-06 0 -1.94688e-06 9.99946e-06 0 -2.61717e-06 1.02977e-05 0 -3.3059e-06 1.06792e-05 0 -4.01785e-06 1.1161e-05 0 -4.75811e-06 1.17418e-05 0 -5.53174e-06 1.24222e-05 0 -6.3442e-06 1.32318e-05 0 -7.20118e-06 1.41582e-05 0 -8.1086e-06 1.52222e-05 0 -9.07299e-06 1.64464e-05 0 -1.01012e-05 1.78275e-05 0 -1.12005e-05 1.94124e-05 0 -1.2379e-05 2.12102e-05 0 -1.3645e-05 2.32388e-05 0 -1.50074e-05 2.55867e-05 0 -1.64747e-05 2.82474e-05 0 -1.80533e-05 3.131e-05 0 -1.97455e-05 3.48786e-05 0 -2.15423e-05 3.89955e-05 0 -2.34132e-05 4.39087e-05 0 -2.52816e-05 4.97426e-05 0 -2.69921e-05 5.67184e-05 0 -2.82369e-05 6.51751e-05 0 -2.84681e-05 7.53387e-05 0 -2.67978e-05 8.725e-05 0 -2.20231e-05 0.000100375 0 -1.30633e-05 0.0001131 0 -7.73786e-08 0.00012268 0 1.43591e-05 0.000126527 0 -3.87427e-19 1.02235e-05 0 -5.583e-07 1.02721e-05 0 -1.12022e-06 1.04012e-05 0 -1.6893e-06 1.0618e-05 0 -2.26924e-06 1.09307e-05 0 -2.86365e-06 1.13306e-05 0 -3.47619e-06 1.18355e-05 0 -4.11065e-06 1.24436e-05 0 -4.77073e-06 1.31555e-05 0 -5.46026e-06 1.4002e-05 0 -6.18309e-06 1.49696e-05 0 -6.943e-06 1.60799e-05 0 -7.74386e-06 1.73557e-05 0 -8.5893e-06 1.87936e-05 0 -9.48274e-06 2.04409e-05 0 -1.04271e-05 2.23064e-05 0 -1.14244e-05 2.44074e-05 0 -1.24748e-05 2.68318e-05 0 -1.35755e-05 2.957e-05 0 -1.47181e-05 3.27061e-05 0 -1.58847e-05 3.63335e-05 0 -1.70411e-05 4.04794e-05 0 -1.81259e-05 4.53493e-05 0 -1.90296e-05 5.10136e-05 0 -1.95753e-05 5.75994e-05 0 -1.9475e-05 6.52762e-05 0 -1.83061e-05 7.40588e-05 0 -1.55142e-05 8.37726e-05 0 -1.05296e-05 9.38665e-05 0 -3.07612e-06 0.000103301 0 6.35898e-06 0.000110744 0 1.62472e-05 0.000115226 0 0 1.07373e-05 0 -4.70115e-07 1.07877e-05 0 -9.42891e-07 1.09214e-05 0 -1.42092e-06 1.1146e-05 0 -1.90685e-06 1.14697e-05 0 -2.40326e-06 1.18835e-05 0 -2.91267e-06 1.24055e-05 0 -3.43757e-06 1.3034e-05 0 -3.98029e-06 1.3769e-05 0 -4.54307e-06 1.46418e-05 0 -5.12792e-06 1.56384e-05 0 -5.7365e-06 1.67804e-05 0 -6.37012e-06 1.80904e-05 0 -7.02938e-06 1.95641e-05 0 -7.71399e-06 2.12486e-05 0 -8.4222e-06 2.3151e-05 0 -9.15028e-06 2.52871e-05 0 -9.89116e-06 2.77408e-05 0 -1.06329e-05 3.04986e-05 0 -1.13563e-05 3.36354e-05 0 -1.20296e-05 3.72296e-05 0 -1.26046e-05 4.12927e-05 0 -1.30063e-05 4.5985e-05 0 -1.31191e-05 5.13329e-05 0 -1.27797e-05 5.73952e-05 0 -1.17562e-05 6.42369e-05 0 -9.75692e-06 7.17839e-05 0 -6.46407e-06 7.9827e-05 0 -1.63337e-06 8.79505e-05 0 4.73534e-06 9.55469e-05 0 1.22158e-05 0.000101989 0 1.99109e-05 0.000106951 0 0 1.11618e-05 0 -3.79252e-07 1.12133e-05 0 -7.60213e-07 1.13503e-05 0 -1.14453e-06 1.15802e-05 0 -1.53385e-06 1.19115e-05 0 -1.9297e-06 1.23347e-05 0 -2.33346e-06 1.28682e-05 0 -2.74642e-06 1.35098e-05 0 -3.16955e-06 1.42595e-05 0 -3.60355e-06 1.51484e-05 0 -4.04868e-06 1.6162e-05 0 -4.50467e-06 1.73214e-05 0 -4.97041e-06 1.86484e-05 0 -5.44379e-06 2.0138e-05 0 -5.92126e-06 2.18354e-05 0 -6.39708e-06 2.37459e-05 0 -6.86291e-06 2.58829e-05 0 -7.30611e-06 2.83237e-05 0 -7.70822e-06 3.1051e-05 0 -8.04313e-06 3.41288e-05 0 -8.27182e-06 3.76191e-05 0 -8.34019e-06 4.15203e-05 0 -8.17213e-06 4.59518e-05 0 -7.66069e-06 5.09102e-05 0 -6.66928e-06 5.64118e-05 0 -5.02399e-06 6.24661e-05 0 -2.53199e-06 6.89764e-05 0 9.85414e-07 7.57647e-05 0 5.62789e-06 8.25518e-05 0 1.13317e-05 8.89999e-05 0 1.78046e-05 9.48282e-05 0 2.45422e-05 9.99811e-05 0 0 1.14946e-05 0 -2.86738e-07 1.15469e-05 0 -5.74261e-07 1.16857e-05 0 -8.63296e-07 1.19186e-05 0 -1.15451e-06 1.2254e-05 0 -1.44841e-06 1.26823e-05 0 -1.74534e-06 1.32216e-05 0 -2.04537e-06 1.38696e-05 0 -2.34822e-06 1.46257e-05 0 -2.65316e-06 1.55209e-05 0 -2.95886e-06 1.65399e-05 0 -3.26326e-06 1.77031e-05 0 -3.56314e-06 1.90312e-05 0 -3.85406e-06 2.0518e-05 0 -4.12973e-06 2.22061e-05 0 -4.38125e-06 2.40988e-05 0 -4.5968e-06 2.62067e-05 0 -4.75978e-06 2.85991e-05 0 -4.84766e-06 3.12554e-05 0 -4.83057e-06 3.42282e-05 0 -4.6667e-06 3.75647e-05 0 -4.30195e-06 4.12531e-05 0 -3.66527e-06 4.53796e-05 0 -2.66414e-06 4.99233e-05 0 -1.1896e-06 5.48767e-05 0 8.85273e-07 6.02241e-05 0 3.68734e-06 6.58742e-05 0 7.31963e-06 7.16919e-05 0 1.18247e-05 7.74981e-05 0 1.71478e-05 8.31086e-05 0 2.31222e-05 8.84063e-05 0 2.95017e-05 9.34325e-05 0 0 1.17347e-05 0 -1.93432e-07 1.17871e-05 0 -3.86763e-07 1.19264e-05 0 -5.79844e-07 1.216e-05 0 -7.72406e-07 1.24963e-05 0 -9.64012e-07 1.29254e-05 0 -1.15399e-06 1.34652e-05 0 -1.3413e-06 1.4113e-05 0 -1.52453e-06 1.4868e-05 0 -1.70165e-06 1.57601e-05 0 -1.8699e-06 1.67737e-05 0 -2.02568e-06 1.79281e-05 0 -2.164e-06 1.92425e-05 0 -2.27848e-06 2.07097e-05 0 -2.36074e-06 2.2369e-05 0 -2.3995e-06 2.42216e-05 0 -2.38056e-06 2.62751e-05 0 -2.28489e-06 2.85905e-05 0 -2.08788e-06 3.11444e-05 0 -1.75839e-06 3.3979e-05 0 -1.25501e-06 3.71285e-05 0 -5.26922e-07 4.05745e-05 0 4.88959e-07 4.43777e-05 0 1.86993e-06 4.85081e-05 0 3.70127e-06 5.2947e-05 0 6.07571e-06 5.76685e-05 0 9.07945e-06 6.25955e-05 0 1.27776e-05 6.76285e-05 0 1.71962e-05 7.26515e-05 0 2.23097e-05 7.75594e-05 0 2.80472e-05 8.23005e-05 0 3.43273e-05 8.69238e-05 0 0 1.18816e-05 0 -1.00219e-07 1.19337e-05 0 -1.99511e-07 1.20722e-05 0 -2.96906e-07 1.23044e-05 0 -3.91269e-07 1.26385e-05 0 -4.8129e-07 1.30644e-05 0 -5.65378e-07 1.35997e-05 0 -6.41508e-07 1.42412e-05 0 -7.07238e-07 1.49879e-05 0 -7.59424e-07 1.58684e-05 0 -7.94108e-07 1.68669e-05 0 -8.06421e-07 1.80012e-05 0 -7.89988e-07 1.92888e-05 0 -7.36983e-07 2.07218e-05 0 -6.3753e-07 2.23357e-05 0 -4.78837e-07 2.41297e-05 0 -2.45357e-07 2.61086e-05 0 8.30026e-08 2.8325e-05 0 5.31303e-07 3.07539e-05 0 1.13005e-06 3.34282e-05 0 1.91822e-06 3.63714e-05 0 2.94166e-06 3.95613e-05 0 4.25483e-06 4.30393e-05 0 5.92145e-06 4.67723e-05 0 8.00866e-06 5.07363e-05 0 1.05864e-05 5.49029e-05 0 1.37177e-05 5.92078e-05 0 1.74505e-05 6.35766e-05 0 2.18104e-05 6.79283e-05 0 2.67982e-05 7.21934e-05 0 3.24019e-05 7.63356e-05 0 3.86268e-05 8.03712e-05 0 0 1.19358e-05 0 -7.85831e-09 1.19872e-05 0 -1.40202e-08 1.21237e-05 0 -1.6761e-08 1.23526e-05 0 -1.41438e-08 1.26816e-05 0 -4.05993e-09 1.31007e-05 0 1.5909e-08 1.36268e-05 0 4.86728e-08 1.42565e-05 0 9.75651e-08 1.49883e-05 0 1.66691e-07 1.58495e-05 0 2.61008e-07 1.68242e-05 0 3.86401e-07 1.79285e-05 0 5.50328e-07 1.91782e-05 0 7.61659e-07 2.05646e-05 0 1.03127e-06 2.21194e-05 0 1.37286e-06 2.384e-05 0 1.80257e-06 2.57288e-05 0 2.34067e-06 2.78303e-05 0 3.01168e-06 3.01188e-05 0 3.84447e-06 3.26192e-05 0 4.87469e-06 3.53467e-05 0 6.14279e-06 3.82774e-05 0 7.69511e-06 4.14383e-05 0 9.58384e-06 4.47959e-05 0 1.18621e-05 4.83247e-05 0 1.45839e-05 5.19958e-05 0 1.77972e-05 5.57553e-05 0 2.15411e-05 5.95435e-05 0 2.58425e-05 6.32973e-05 0 3.07189e-05 6.69595e-05 0 3.61893e-05 7.04877e-05 0 4.22962e-05 7.38575e-05 0 0 1.18986e-05 0 8.2758e-08 1.19489e-05 0 1.67907e-07 1.20823e-05 0 2.57853e-07 1.2306e-05 0 3.55248e-07 1.26273e-05 0 4.6291e-07 1.30363e-05 0 5.83977e-07 1.3549e-05 0 7.22119e-07 1.4162e-05 0 8.81415e-07 1.48733e-05 0 1.06675e-06 1.57084e-05 0 1.28386e-06 1.66516e-05 0 1.53938e-06 1.77176e-05 0 1.84153e-06 1.892e-05 0 2.19983e-06 2.02495e-05 0 2.62567e-06 2.17344e-05 0 3.13308e-06 2.33703e-05 0 3.73817e-06 2.51575e-05 0 4.46068e-06 2.71332e-05 0 5.32382e-06 2.92719e-05 0 6.35421e-06 3.15917e-05 0 7.58378e-06 3.41013e-05 0 9.0477e-06 3.67765e-05 0 1.07851e-05 3.96338e-05 0 1.28388e-05 4.26407e-05 0 1.52515e-05 4.57717e-05 0 1.80658e-05 4.89982e-05 0 2.13202e-05 5.22732e-05 0 2.50473e-05 5.55457e-05 0 2.92738e-05 5.87605e-05 0 3.40231e-05 6.18628e-05 0 3.93228e-05 6.47998e-05 0 4.52167e-05 6.7516e-05 0 4.47706e-20 1.1772e-05 0 1.70996e-07 1.18208e-05 0 3.45002e-07 1.19502e-05 0 5.25029e-07 1.21671e-05 0 7.1436e-07 1.24784e-05 0 9.16428e-07 1.28743e-05 0 1.13499e-06 1.337e-05 0 1.37436e-06 1.39619e-05 0 1.63921e-06 1.46476e-05 0 1.93505e-06 1.5451e-05 0 2.26819e-06 1.63563e-05 0 2.64581e-06 1.73768e-05 0 3.07657e-06 1.85243e-05 0 3.57034e-06 1.97892e-05 0 4.13868e-06 2.11958e-05 0 4.79549e-06 2.27388e-05 0 5.55641e-06 2.44168e-05 0 6.44018e-06 2.62603e-05 0 7.46831e-06 2.82444e-05 0 8.66489e-06 3.0382e-05 0 1.00581e-05 3.26767e-05 0 1.16782e-05 3.51049e-05 0 1.3558e-05 3.7675e-05 0 1.57329e-05 4.03566e-05 0 1.82372e-05 4.31248e-05 0 2.11051e-05 4.5951e-05 0 2.43674e-05 4.87933e-05 0 2.80515e-05 5.16057e-05 0 3.2181e-05 5.43368e-05 0 3.67775e-05 5.69318e-05 0 4.1865e-05 5.93309e-05 0 4.7474e-05 6.1463e-05 0 -6.9864e-20 1.15587e-05 0 2.56495e-07 1.16057e-05 0 5.16547e-07 1.17302e-05 0 7.83702e-07 1.19388e-05 0 1.0618e-06 1.2238e-05 0 1.35479e-06 1.26183e-05 0 1.66697e-06 1.30939e-05 0 2.00318e-06 1.36608e-05 0 2.36858e-06 1.43167e-05 0 2.76914e-06 1.50835e-05 0 3.21161e-06 1.59458e-05 0 3.70349e-06 1.69152e-05 0 4.2537e-06 1.80018e-05 0 4.87219e-06 1.91958e-05 0 5.57043e-06 2.05183e-05 0 6.36189e-06 2.19629e-05 0 7.26149e-06 2.35269e-05 0 8.28668e-06 2.5235e-05 0 9.45707e-06 2.70635e-05 0 1.07941e-05 2.90208e-05 0 1.23225e-05 3.1107e-05 0 1.40679e-05 3.32995e-05 0 1.60578e-05 3.56006e-05 0 1.8321e-05 3.79822e-05 0 2.08852e-05 4.04202e-05 0 2.37775e-05 4.28864e-05 0 2.70225e-05 4.53426e-05 0 3.06419e-05 4.7746e-05 0 3.46545e-05 5.00482e-05 0 3.90767e-05 5.21952e-05 0 4.39238e-05 5.41254e-05 0 4.92098e-05 5.5765e-05 0 0 1.12619e-05 0 3.38081e-07 1.13068e-05 0 6.80182e-07 1.14257e-05 0 1.0303e-06 1.16248e-05 0 1.39273e-06 1.19102e-05 0 1.77186e-06 1.22726e-05 0 2.17241e-06 1.27252e-05 0 2.59962e-06 1.32642e-05 0 3.05902e-06 1.38867e-05 0 3.55688e-06 1.4613e-05 0 4.10021e-06 1.54279e-05 0 4.69667e-06 1.63418e-05 0 5.3552e-06 1.73631e-05 0 6.08563e-06 1.8482e-05 0 6.89907e-06 1.97163e-05 0 7.80836e-06 2.10592e-05 0 8.82744e-06 2.25069e-05 0 9.97232e-06 2.40793e-05 0 1.12606e-05 2.57538e-05 0 1.27114e-05 2.75356e-05 0 1.43457e-05 2.94219e-05 0 1.61856e-05 3.13916e-05 0 1.82538e-05 3.34425e-05 0 2.05737e-05 3.55489e-05 0 2.31676e-05 3.76875e-05 0 2.60568e-05 3.98308e-05 0 2.92603e-05 4.19437e-05 0 3.27944e-05 4.39865e-05 0 3.6672e-05 4.59135e-05 0 4.09031e-05 4.76735e-05 0 4.54935e-05 4.92077e-05 0 5.04437e-05 5.04471e-05 0 0 1.08854e-05 0 4.15922e-07 1.09279e-05 0 8.3626e-07 1.10406e-05 0 1.26539e-06 1.12291e-05 0 1.70799e-06 1.14992e-05 0 2.16883e-06 1.18419e-05 0 2.65293e-06 1.22694e-05 0 3.16587e-06 1.27778e-05 0 3.71343e-06 1.33641e-05 0 4.3021e-06 1.40467e-05 0 4.939e-06 1.48112e-05 0 5.63183e-06 1.56663e-05 0 6.38943e-06 1.66191e-05 0 7.22135e-06 1.76599e-05 0 8.1382e-06 1.88039e-05 0 9.15208e-06 2.00436e-05 0 1.02758e-05 2.13748e-05 0 1.1524e-05 2.28129e-05 0 1.29123e-05 2.43371e-05 0 1.44572e-05 2.59498e-05 0 1.61769e-05 2.76463e-05 0 1.80899e-05 2.94071e-05 0 2.02147e-05 3.12268e-05 0 2.25703e-05 3.30817e-05 0 2.51742e-05 3.495e-05 0 2.80426e-05 3.68049e-05 0 3.11895e-05 3.86144e-05 0 3.46261e-05 4.03417e-05 0 3.83598e-05 4.19446e-05 0 4.23942e-05 4.33761e-05 0 4.67274e-05 4.45829e-05 0 5.135e-05 4.55042e-05 0 0 1.04333e-05 0 4.89473e-07 1.04732e-05 0 9.83689e-07 1.05791e-05 0 1.48734e-06 1.07562e-05 0 2.00542e-06 1.10098e-05 0 2.54297e-06 1.13312e-05 0 3.1053e-06 1.17318e-05 0 3.69819e-06 1.22075e-05 0 4.3276e-06 1.27554e-05 0 5.00014e-06 1.3392e-05 0 5.72296e-06 1.41035e-05 0 6.50366e-06 1.48975e-05 0 7.35087e-06 1.57798e-05 0 8.27377e-06 1.67409e-05 0 9.28239e-06 1.77935e-05 0 1.0388e-05 1.89301e-05 0 1.16023e-05 2.01459e-05 0 1.29383e-05 2.14529e-05 0 1.44099e-05 2.28318e-05 0 1.60315e-05 2.42831e-05 0 1.78183e-05 2.58007e-05 0 1.97857e-05 2.73668e-05 0 2.19487e-05 2.89736e-05 0 2.43225e-05 3.05999e-05 0 2.69202e-05 3.22251e-05 0 2.9754e-05 3.38237e-05 0 3.28332e-05 3.53665e-05 0 3.61646e-05 3.682e-05 0 3.97508e-05 3.8146e-05 0 4.359e-05 3.93026e-05 0 4.76745e-05 4.02429e-05 0 5.19887e-05 4.09152e-05 0 0 9.91013e-06 0 5.58009e-07 9.94737e-06 0 1.12102e-06 1.0046e-05 0 1.69398e-06 1.0211e-05 0 2.28212e-06 1.0447e-05 0 2.8907e-06 1.0746e-05 0 3.52521e-06 1.11182e-05 0 4.19159e-06 1.15597e-05 0 4.89588e-06 1.20675e-05 0 5.64472e-06 1.26563e-05 0 6.4452e-06 1.33132e-05 0 7.30476e-06 1.40447e-05 0 8.23173e-06 1.48554e-05 0 9.23482e-06 1.57362e-05 0 1.03234e-05 1.66975e-05 0 1.15079e-05 1.77321e-05 0 1.2799e-05 1.88348e-05 0 1.42082e-05 2.00147e-05 0 1.57476e-05 2.12543e-05 0 1.74296e-05 2.25525e-05 0 1.9267e-05 2.39024e-05 0 2.12724e-05 2.52879e-05 0 2.34579e-05 2.66998e-05 0 2.58351e-05 2.81188e-05 0 2.84139e-05 2.95261e-05 0 3.12026e-05 3.08977e-05 0 3.42071e-05 3.22073e-05 0 3.74301e-05 3.34247e-05 0 4.08704e-05 3.45161e-05 0 4.45224e-05 3.54446e-05 0 4.83743e-05 3.61702e-05 0 5.24073e-05 3.66498e-05 0 0 9.32078e-06 0 6.21951e-07 9.35517e-06 0 1.24912e-06 9.44628e-06 0 1.88663e-06 9.59852e-06 0 2.53993e-06 9.81622e-06 0 3.21442e-06 1.00918e-05 0 3.91574e-06 1.04346e-05 0 4.6499e-06 1.08406e-05 0 5.423e-06 1.13071e-05 0 6.24163e-06 1.1847e-05 0 7.11276e-06 1.24483e-05 0 8.04363e-06 1.31165e-05 0 9.04222e-06 1.38552e-05 0 1.01167e-05 1.46557e-05 0 1.1276e-05 1.55268e-05 0 1.25294e-05 1.64613e-05 0 1.38865e-05 1.74539e-05 0 1.53577e-05 1.85115e-05 0 1.69534e-05 1.96183e-05 0 1.8684e-05 2.0772e-05 0 2.05603e-05 2.19652e-05 0 2.25923e-05 2.31839e-05 0 2.47897e-05 2.44176e-05 0 2.7161e-05 2.56494e-05 0 2.97132e-05 2.6862e-05 0 3.24515e-05 2.80332e-05 0 3.53786e-05 2.91397e-05 0 3.84941e-05 3.01547e-05 0 4.17938e-05 3.10485e-05 0 4.5269e-05 3.17894e-05 0 4.89058e-05 3.23435e-05 0 5.26833e-05 3.26755e-05 0 0 8.67022e-06 0 6.80464e-07 8.70166e-06 0 1.3663e-06 8.78493e-06 0 2.06279e-06 8.92403e-06 0 2.77551e-06 9.12283e-06 0 3.50998e-06 9.37433e-06 0 4.2719e-06 9.68683e-06 0 5.06734e-06 1.00566e-05 0 5.90238e-06 1.04809e-05 0 6.78353e-06 1.09712e-05 0 7.7176e-06 1.15164e-05 0 8.71157e-06 1.2121e-05 0 9.77305e-06 1.27879e-05 0 1.09098e-05 1.3509e-05 0 1.21298e-05 1.42913e-05 0 1.34418e-05 1.51281e-05 0 1.48544e-05 1.60143e-05 0 1.63765e-05 1.69547e-05 0 1.80173e-05 1.79353e-05 0 1.97854e-05 1.8953e-05 0 2.16898e-05 2.00005e-05 0 2.37384e-05 2.10651e-05 0 2.59386e-05 2.21364e-05 0 2.82964e-05 2.31993e-05 0 3.08165e-05 2.42383e-05 0 3.35015e-05 2.52331e-05 0 3.63515e-05 2.61632e-05 0 3.93637e-05 2.70053e-05 0 4.25317e-05 2.77335e-05 0 4.58448e-05 2.83209e-05 0 4.92878e-05 2.87393e-05 0 5.28394e-05 2.89598e-05 0 0 7.96381e-06 0 7.33652e-07 7.99222e-06 0 1.47279e-06 8.06745e-06 0 2.22281e-06 8.19308e-06 0 2.98938e-06 8.37254e-06 0 3.77808e-06 8.59944e-06 0 4.59468e-06 8.88113e-06 0 5.44523e-06 9.21413e-06 0 6.33575e-06 9.59577e-06 0 7.27266e-06 1.00361e-05 0 8.26258e-06 1.0525e-05 0 9.31221e-06 1.10663e-05 0 1.04288e-05 1.16619e-05 0 1.16195e-05 1.23047e-05 0 1.28919e-05 1.30003e-05 0 1.42538e-05 1.37423e-05 0 1.57128e-05 1.45258e-05 0 1.72769e-05 1.53543e-05 0 1.89538e-05 1.62152e-05 0 2.07509e-05 1.71052e-05 0 2.26752e-05 1.80171e-05 0 2.47331e-05 1.89399e-05 0 2.69298e-05 1.98631e-05 0 2.92696e-05 2.07737e-05 0 3.1755e-05 2.16579e-05 0 3.43864e-05 2.24975e-05 0 3.71621e-05 2.32746e-05 0 4.00772e-05 2.39691e-05 0 4.31239e-05 2.45589e-05 0 4.62904e-05 2.50214e-05 0 4.95604e-05 2.53331e-05 0 5.29133e-05 2.54707e-05 0 0 7.20682e-06 0 7.81802e-07 7.23215e-06 0 1.56918e-06 7.29919e-06 0 2.3676e-06 7.41113e-06 0 3.18278e-06 7.57096e-06 0 4.02038e-06 7.77291e-06 0 4.88614e-06 8.02343e-06 0 5.78611e-06 8.31931e-06 0 6.72625e-06 8.65808e-06 0 7.71282e-06 9.04838e-06 0 8.75225e-06 9.48119e-06 0 9.85099e-06 9.95952e-06 0 1.10159e-05 1.0485e-05 0 1.22537e-05 1.10509e-05 0 1.35712e-05 1.16618e-05 0 1.49757e-05 1.23119e-05 0 1.6474e-05 1.29967e-05 0 1.80728e-05 1.37183e-05 0 1.97789e-05 1.44659e-05 0 2.15982e-05 1.5236e-05 0 2.35366e-05 1.60218e-05 0 2.55986e-05 1.68137e-05 0 2.77881e-05 1.76019e-05 0 3.01074e-05 1.83751e-05 0 3.25574e-05 1.91211e-05 0 3.51369e-05 1.9824e-05 0 3.78424e-05 2.04685e-05 0 4.06679e-05 2.10372e-05 0 4.36041e-05 2.15116e-05 0 4.66386e-05 2.18728e-05 0 4.97551e-05 2.21016e-05 0 5.29332e-05 2.21791e-05 0 0 6.40479e-06 0 8.23768e-07 6.42699e-06 0 1.65316e-06 6.48575e-06 0 2.4937e-06 6.58384e-06 0 3.35114e-06 6.72382e-06 0 4.23115e-06 6.90062e-06 0 5.13946e-06 7.11977e-06 0 6.08207e-06 7.37841e-06 0 7.06486e-06 7.67426e-06 0 8.09395e-06 8.01469e-06 0 9.17557e-06 8.39174e-06 0 1.03159e-05 8.80784e-06 0 1.15214e-05 9.26414e-06 0 1.27985e-05 9.75479e-06 0 1.41535e-05 1.02833e-05 0 1.55928e-05 1.08445e-05 0 1.71225e-05 1.14343e-05 0 1.87488e-05 1.20539e-05 0 2.04771e-05 1.26942e-05 0 2.23124e-05 1.33515e-05 0 2.42594e-05 1.40198e-05 0 2.63213e-05 1.46908e-05 0 2.85007e-05 1.53555e-05 0 3.07986e-05 1.60043e-05 0 3.32144e-05 1.66267e-05 0 3.57458e-05 1.72089e-05 0 3.83879e-05 1.7738e-05 0 4.11338e-05 1.81993e-05 0 4.39736e-05 1.85775e-05 0 4.68943e-05 1.88569e-05 0 4.98798e-05 1.90219e-05 0 5.29105e-05 1.90574e-05 0 0 5.5633e-06 0 8.60531e-07 5.58235e-06 0 1.72672e-06 5.63277e-06 0 2.60412e-06 5.71691e-06 0 3.4985e-06 5.83694e-06 0 4.41553e-06 5.98847e-06 0 5.36092e-06 6.17618e-06 0 6.34061e-06 6.39755e-06 0 7.36038e-06 6.65058e-06 0 8.42624e-06 6.94142e-06 0 9.54421e-06 7.2632e-06 0 1.07202e-05 7.61785e-06 0 1.19605e-05 8.00619e-06 0 1.32708e-05 8.42315e-06 0 1.46573e-05 8.87143e-06 0 1.61257e-05 9.34651e-06 0 1.76814e-05 9.84482e-06 0 1.93298e-05 1.0367e-05 0 2.10756e-05 1.09053e-05 0 2.29229e-05 1.14563e-05 0 2.48752e-05 1.20147e-05 0 2.69349e-05 1.25736e-05 0 2.91032e-05 1.31249e-05 0 3.13802e-05 1.36605e-05 0 3.37642e-05 1.41718e-05 0 3.62516e-05 1.46469e-05 0 3.8837e-05 1.5075e-05 0 4.15126e-05 1.54443e-05 0 4.42678e-05 1.57419e-05 0 4.70897e-05 1.59554e-05 0 4.99624e-05 1.6072e-05 0 5.2867e-05 1.60797e-05 0 0 4.68787e-06 0 8.91741e-07 4.70375e-06 0 1.78916e-06 4.74579e-06 0 2.69783e-06 4.81592e-06 0 3.62351e-06 4.91594e-06 0 4.57186e-06 5.04216e-06 0 5.54858e-06 5.19844e-06 0 6.55953e-06 5.38262e-06 0 7.61041e-06 5.59301e-06 0 8.70709e-06 5.83459e-06 0 9.85544e-06 6.10165e-06 0 1.10612e-05 6.39567e-06 0 1.23301e-05 6.7172e-06 0 1.3668e-05 7.062e-06 0 1.50802e-05 7.4321e-06 0 1.65721e-05 7.82369e-06 0 1.81487e-05 8.23373e-06 0 1.98145e-05 8.66247e-06 0 2.15737e-05 9.10349e-06 0 2.34296e-05 9.5539e-06 0 2.53847e-05 1.0009e-05 0 2.74407e-05 1.04633e-05 0 2.9598e-05 1.09097e-05 0 3.18557e-05 1.13418e-05 0 3.42112e-05 1.17524e-05 0 3.66602e-05 1.21317e-05 0 3.91966e-05 1.24711e-05 0 4.1812e-05 1.27609e-05 0 4.44956e-05 1.29908e-05 0 4.72344e-05 1.3151e-05 0 5.00129e-05 1.32314e-05 0 5.28128e-05 1.32227e-05 0 0 3.78423e-06 0 9.16962e-07 3.79693e-06 0 1.83961e-06 3.83057e-06 0 2.77352e-06 3.88667e-06 0 3.72445e-06 3.96666e-06 0 4.69805e-06 4.06758e-06 0 5.69996e-06 4.19247e-06 0 6.73601e-06 4.33959e-06 0 7.81182e-06 4.50754e-06 0 8.93315e-06 4.70025e-06 0 1.01057e-05 4.91312e-06 0 1.1335e-05 5.14727e-06 0 1.26267e-05 5.40307e-06 0 1.39861e-05 5.67709e-06 0 1.54184e-05 5.97083e-06 0 1.69286e-05 6.2812e-06 0 1.85211e-05 6.60576e-06 0 2.02e-05 6.94448e-06 0 2.1969e-05 7.29231e-06 0 2.38306e-05 7.64683e-06 0 2.57869e-05 8.00423e-06 0 2.78388e-05 8.36012e-06 0 2.9986e-05 8.7088e-06 0 3.22269e-05 9.04522e-06 0 3.45584e-05 9.36364e-06 0 3.69756e-05 9.6564e-06 0 3.94718e-05 9.9167e-06 0 4.20383e-05 1.0137e-05 0 4.46643e-05 1.03095e-05 0 4.73366e-05 1.04264e-05 0 5.004e-05 1.04801e-05 0 5.27571e-05 1.04636e-05 0 0 2.85797e-06 0 9.36955e-07 2.8675e-06 0 1.8796e-06 2.89273e-06 0 2.8335e-06 2.93479e-06 0 3.80442e-06 2.99476e-06 0 4.79799e-06 3.0704e-06 0 5.81982e-06 3.16398e-06 0 6.87568e-06 3.27417e-06 0 7.97113e-06 3.3999e-06 0 9.11183e-06 3.54409e-06 0 1.03034e-05 3.70326e-06 0 1.15511e-05 3.87823e-06 0 1.28605e-05 4.06921e-06 0 1.42367e-05 4.27363e-06 0 1.56846e-05 4.49254e-06 0 1.72088e-05 4.7236e-06 0 1.88134e-05 4.96495e-06 0 2.05023e-05 5.21647e-06 0 2.22783e-05 5.47441e-06 0 2.41439e-05 5.7369e-06 0 2.61006e-05 6.00103e-06 0 2.81486e-05 6.26356e-06 0 3.02872e-05 6.52015e-06 0 3.25142e-05 6.76709e-06 0 3.48262e-05 7.00011e-06 0 3.72177e-05 7.2135e-06 0 3.96818e-05 7.40229e-06 0 4.22095e-05 7.56095e-06 0 4.47898e-05 7.6837e-06 0 4.74097e-05 7.76497e-06 0 5.00543e-05 7.79929e-06 0 5.27065e-05 7.78153e-06 0 0 1.91471e-06 0 9.50977e-07 1.92106e-06 0 1.90765e-06 1.93788e-06 0 2.87557e-06 1.96592e-06 0 3.86049e-06 2.00588e-06 0 4.86804e-06 2.05628e-06 0 5.9038e-06 2.11862e-06 0 6.9735e-06 2.192e-06 0 8.08266e-06 2.2757e-06 0 9.23686e-06 2.37165e-06 0 1.04416e-05 2.47753e-06 0 1.17022e-05 2.59386e-06 0 1.30238e-05 2.72076e-06 0 1.44116e-05 2.85651e-06 0 1.58701e-05 3.00177e-06 0 1.74039e-05 3.15498e-06 0 1.90168e-05 3.31489e-06 0 2.07122e-05 3.48136e-06 0 2.2493e-05 3.65193e-06 0 2.4361e-05 3.8253e-06 0 2.63175e-05 3.99952e-06 0 2.83623e-05 4.17247e-06 0 3.04946e-05 4.3412e-06 0 3.27116e-05 4.50329e-06 0 3.50096e-05 4.6559e-06 0 3.73829e-05 4.79526e-06 0 3.98243e-05 4.9181e-06 0 4.23246e-05 5.02079e-06 0 4.4873e-05 5.09956e-06 0 4.74564e-05 5.15076e-06 0 5.00601e-05 5.17087e-06 0 5.26674e-05 5.15653e-06 0 0 9.602e-07 0 9.59384e-07 9.63376e-07 0 1.92446e-06 9.71782e-07 0 2.90078e-06 9.858e-07 0 3.8941e-06 1.00578e-06 0 4.91001e-06 1.03097e-06 0 5.95411e-06 1.06212e-06 0 7.0321e-06 1.09878e-06 0 8.14944e-06 1.1406e-06 0 9.3117e-06 1.18852e-06 0 1.05243e-05 1.24139e-06 0 1.17925e-05 1.29945e-06 0 1.31215e-05 1.36277e-06 0 1.45161e-05 1.43048e-06 0 1.5981e-05 1.50291e-06 0 1.75204e-05 1.57926e-06 0 1.91381e-05 1.65891e-06 0 2.08373e-05 1.74178e-06 0 2.26208e-05 1.82664e-06 0 2.44901e-05 1.91283e-06 0 2.64463e-05 1.99938e-06 0 2.84892e-05 2.08523e-06 0 3.06175e-05 2.16889e-06 0 3.28284e-05 2.24916e-06 0 3.51178e-05 2.32465e-06 0 3.74801e-05 2.39346e-06 0 3.99079e-05 2.45397e-06 0 4.23918e-05 2.50439e-06 0 4.49211e-05 2.54285e-06 0 4.74827e-05 2.56757e-06 0 5.0062e-05 2.57679e-06 0 5.26426e-05 2.56888e-06 0 0 -0 0 9.6256e-07 7.58299e-21 0 1.93081e-06 -0 0 2.9103e-06 -3.2019e-20 0 3.90679e-06 -0 0 4.92587e-06 -0 0 5.97311e-06 -1.94714e-20 0 7.05422e-06 2.39538e-20 0 8.17466e-06 -0 0 9.33995e-06 -0 0 1.05555e-05 -1.01794e-19 0 1.18266e-05 2.08827e-20 0 1.31583e-05 1.66214e-19 0 1.45555e-05 1.97702e-20 0 1.60227e-05 -0 0 1.75643e-05 -0 0 1.91838e-05 -2.37116e-19 0 2.08845e-05 -0 0 2.26689e-05 -0 0 2.45387e-05 -0 0 2.64948e-05 1.76336e-19 0 2.85369e-05 3.48847e-20 0 3.06636e-05 -0 0 3.28722e-05 -0 0 3.51584e-05 -0 0 3.75166e-05 -0 0 3.99391e-05 -8.78817e-19 0 4.24169e-05 -0 0 4.49389e-05 3.40598e-18 0 4.74923e-05 -0 0 5.00624e-05 9.79172e-19 0 5.2633e-05 -0 0 </DataArray> 
</PointData> 
<Points> 
<DataArray type="Float32" NumberOfComponents="3"> 