<?xml version="1.0"?> 
<VTKFile type="StructuredGrid" version="0.1"> 
<StructuredGrid WholeExtent="0 31 0 31 0 0"> 
<Piece Extent="0 31 0 31 0 0"> 
<PointData>
<DataArray type="Float32" Name="B" format="ascii" NumberOfComponents="3"> 
-4.3988e-06 -0 0 -4.82108e-06 -0 0 -5.25398e-06 -0 0 -5.69245e-06 -0 0 -6.13081e-06 -0 0 -6.56288e-06 -0 0 -6.98213e-06 -0 0 -7.38184e-06 -0 0 -7.75531e-06 -0 0 -8.09606e-06 -0 0 -8.398e-06 -0 0 -8.6556e-06 -0 0 -8.86403e-06 -0 0 -9.01935e-06 -0 0 -9.1185e-06 -0 0 -9.15948e-06 -0 0 -9.14134e-06 -0 0 -9.0642e-06 -0 0 -8.92928e-06 -0 0 -8.73886e-06 -0 0 -8.49624e-06 -0 0 -8.20562e-06 -0 0 -7.87207e-06 -0 0 -7.50135e-06 -0 0 -7.09977e-06 -0 0 -6.67402e-06 -0 0 -6.23098e-06 -0 0 -5.77752e-06 -0 0 -5.3203e-06 -0 0 -4.86563e-06 -0 0 -4.41925e-06 -0 0 -3.98624e-06 -0 0 -4.39031e-06 4.16296e-07 0 -4.81502e-06 4.29354e-07 0 -5.25077e-06 4.37704e-07 0 -5.69244e-06 4.40657e-07 0 -6.1343e-06 4.3763e-07 0 -6.57007e-06 4.28164e-07 0 -6.99311e-06 4.1201e-07 0 -7.39661e-06 3.89087e-07 0 -7.77375e-06 3.59424e-07 0 -8.11795e-06 3.2349e-07 0 -8.42301e-06 2.81683e-07 0 -8.68332e-06 2.34655e-07 0 -8.89401e-06 1.83192e-07 0 -9.05103e-06 1.28193e-07 0 -9.15132e-06 7.06401e-08 0 -9.19284e-06 1.15785e-08 0 -9.17462e-06 -4.79073e-08 0 -9.09679e-06 -1.06702e-07 0 -8.96059e-06 -1.63725e-07 0 -8.76832e-06 -2.17934e-07 0 -8.52331e-06 -2.68352e-07 0 -8.22983e-06 -3.14087e-07 0 -7.89303e-06 -3.54363e-07 0 -7.51874e-06 -3.88538e-07 0 -7.11338e-06 -4.16234e-07 0 -6.68374e-06 -4.36993e-07 0 -6.23681e-06 -4.50811e-07 0 -5.77958e-06 -4.57794e-07 0 -5.31881e-06 -4.58218e-07 0 -4.86089e-06 -4.52571e-07 0 -4.41164e-06 -4.41468e-07 0 -3.97619e-06 -4.25631e-07 0 -4.36746e-06 8.36575e-07 0 -4.79865e-06 8.63465e-07 0 -5.24197e-06 8.80866e-07 0 -5.69219e-06 8.87364e-07 0 -6.14337e-06 8.81756e-07 0 -6.589e-06 8.63099e-07 0 -7.02218e-06 8.30876e-07 0 -7.43579e-06 7.84916e-07 0 -7.82273e-06 7.25279e-07 0 -8.17613e-06 6.52919e-07 0 -8.48954e-06 5.68647e-07 0 -8.75711e-06 4.73793e-07 0 -8.97378e-06 3.69956e-07 0 -9.13536e-06 2.58959e-07 0 -9.23869e-06 1.42794e-07 0 -9.28165e-06 2.35764e-08 0 -9.26323e-06 -9.65011e-08 0 -9.18357e-06 -2.15184e-07 0 -9.04394e-06 -3.30285e-07 0 -8.84672e-06 -4.39698e-07 0 -8.59535e-06 -5.41438e-07 0 -8.29425e-06 -6.33695e-07 0 -7.94876e-06 -7.14893e-07 0 -7.56494e-06 -7.83721e-07 0 -7.14947e-06 -8.39405e-07 0 -6.70944e-06 -8.81017e-07 0 -6.25214e-06 -9.08543e-07 0 -5.78484e-06 -9.22207e-07 0 -5.3146e-06 -9.22577e-07 0 -4.84802e-06 -9.10659e-07 0 -4.39112e-06 -8.87718e-07 0 -3.94919e-06 -8.55237e-07 0 -4.32803e-06 1.26475e-06 0 -4.7701e-06 1.30704e-06 0 -5.22621e-06 1.33492e-06 0 -5.69089e-06 1.34616e-06 0 -6.15789e-06 1.33889e-06 0 -6.62028e-06 1.3116e-06 0 -7.07068e-06 1.26348e-06 0 -7.50149e-06 1.19426e-06 0 -7.90509e-06 1.10402e-06 0 -8.27413e-06 9.94242e-07 0 -8.6017e-06 8.66182e-07 0 -8.88159e-06 7.21901e-07 0 -9.1084e-06 5.63862e-07 0 -9.27773e-06 3.94867e-07 0 -9.38619e-06 2.17974e-07 0 -9.43158e-06 3.64136e-08 0 -9.41283e-06 -1.46464e-07 0 -9.33008e-06 -3.27217e-07 0 -9.18466e-06 -5.02508e-07 0 -8.97906e-06 -6.69113e-07 0 -8.71691e-06 -8.2399e-07 0 -8.40289e-06 -9.64355e-07 0 -8.04264e-06 -1.08777e-06 0 -7.64264e-06 -1.19222e-06 0 -7.21e-06 -1.27648e-06 0 -6.75231e-06 -1.33913e-06 0 -6.27737e-06 -1.38014e-06 0 -5.79298e-06 -1.39987e-06 0 -5.30665e-06 -1.39921e-06 0 -4.82542e-06 -1.37976e-06 0 -4.35563e-06 -1.34349e-06 0 -3.9028e-06 -1.29273e-06 0 -4.26878e-06 1.70496e-06 0 -4.72656e-06 1.76512e-06 0 -5.20124e-06 1.80573e-06 0 -5.68703e-06 1.82363e-06 0 -6.17718e-06 1.81614e-06 0 -6.66416e-06 1.78112e-06 0 -7.13988e-06 1.71739e-06 0 -7.59597e-06 1.62455e-06 0 -8.02405e-06 1.50273e-06 0 -8.41604e-06 1.35398e-06 0 -8.76438e-06 1.18006e-06 0 -9.0623e-06 9.83862e-07 0 -9.30395e-06 7.68785e-07 0 -9.48456e-06 5.38703e-07 0 -9.60053e-06 2.97816e-07 0 -9.64947e-06 5.05477e-08 0 -9.63025e-06 -1.98527e-07 0 -9.543e-06 -4.44713e-07 0 -9.38914e-06 -6.8345e-07 0 -9.17132e-06 -9.10324e-07 0 -8.89343e-06 -1.12115e-06 0 -8.5605e-06 -1.31209e-06 0 -8.17863e-06 -1.47976e-06 0 -7.75488e-06 -1.62133e-06 0 -7.29702e-06 -1.7351e-06 0 -6.81338e-06 -1.81907e-06 0 -6.31254e-06 -1.87321e-06 0 -5.80306e-06 -1.89802e-06 0 -5.29318e-06 -1.8948e-06 0 -4.79056e-06 -1.86579e-06 0 -4.30205e-06 -1.81384e-06 0 -3.83348e-06 -1.74222e-06 0 -4.18938e-06 2.1613e-06 0 -4.66724e-06 2.24281e-06 0 -5.16587e-06 2.29934e-06 0 -5.67904e-06 2.32662e-06 0 -6.19934e-06 2.32098e-06 0 -6.71842e-06 2.27951e-06 0 -7.22724e-06 2.20058e-06 0 -7.71639e-06 2.08365e-06 0 -8.17646e-06 1.92887e-06 0 -8.59842e-06 1.73898e-06 0 -8.97383e-06 1.51634e-06 0 -9.2952e-06 1.26477e-06 0 -9.55611e-06 9.8875e-07 0 -9.75135e-06 6.93348e-07 0 -9.87703e-06 3.84012e-07 0 -9.93056e-06 6.64548e-08 0 -9.91074e-06 -2.53439e-07 0 -9.81769e-06 -5.69634e-07 0 -9.65293e-06 -8.76261e-07 0 -9.4193e-06 -1.16762e-06 0 -9.121e-06 -1.43828e-06 0 -8.76349e-06 -1.6832e-06 0 -8.35347e-06 -1.89795e-06 0 -7.89873e-06 -2.07875e-06 0 -7.40792e-06 -2.22333e-06 0 -6.89036e-06 -2.32903e-06 0 -6.35566e-06 -2.39578e-06 0 -5.81343e-06 -2.42427e-06 0 -5.27289e-06 -2.41629e-06 0 -4.74255e-06 -2.37488e-06 0 -4.22988e-06 -2.3039e-06 0 -3.74119e-06 -2.2078e-06 0 -4.08242e-06 2.63796e-06 0 -4.58562e-06 2.74551e-06 0 -5.11483e-06 2.82229e-06 0 -5.66326e-06 2.86264e-06 0 -6.22265e-06 2.86167e-06 0 -6.78351e-06 2.8155e-06 0 -7.33548e-06 2.72196e-06 0 -7.86774e-06 2.58028e-06 0 -8.36949e-06 2.3907e-06 0 -8.83038e-06 2.15678e-06 0 -9.24087e-06 1.88163e-06 0 -9.59253e-06 1.57015e-06 0 -9.87823e-06 1.22811e-06 0 -1.00923e-05 8.61902e-07 0 -1.02304e-05 4.78377e-07 0 -1.02898e-05 8.46489e-08 0 -1.02692e-05 -3.11989e-07 0 -1.01688e-05 -7.0407e-07 0 -9.9901e-06 -1.08432e-06 0 -9.73621e-06 -1.44562e-06 0 -9.41166e-06 -1.78117e-06 0 -9.02244e-06 -2.08458e-06 0 -8.57598e-06 -2.35014e-06 0 -8.081e-06 -2.573e-06 0 -7.5473e-06 -2.75014e-06 0 -6.98551e-06 -2.87809e-06 0 -6.40669e-06 -2.95675e-06 0 -5.82186e-06 -2.98704e-06 0 -5.24158e-06 -2.9713e-06 0 -4.6755e-06 -2.91363e-06 0 -4.13199e-06 -2.81912e-06 0 -3.61791e-06 -2.69367e-06 0 -3.94429e-06 3.13936e-06 0 -4.47796e-06 3.27914e-06 0 -5.04449e-06 3.38192e-06 0 -5.63641e-06 3.44029e-06 0 -6.24433e-06 3.44779e-06 0 -6.85729e-06 3.3993e-06 0 -7.46318e-06 3.29192e-06 0 -8.04931e-06 3.12463e-06 0 -8.60304e-06 2.89783e-06 0 -9.11236e-06 2.61609e-06 0 -9.5663e-06 2.28347e-06 0 -9.95532e-06 1.90626e-06 0 -1.02715e-05 1.49172e-06 0 -1.05085e-05 1.0478e-06 0 -1.06618e-05 5.82916e-07 0 -1.07284e-05 1.05701e-07 0 -1.07069e-05 -3.75039e-07 0 -1.05975e-05 -8.50315e-07 0 -1.04019e-05 -1.31134e-06 0 -1.01232e-05 -1.74949e-06 0 -9.76649e-06 -2.15637e-06 0 -9.33822e-06 -2.52405e-06 0 -8.84666e-06 -2.84531e-06 0 -8.30167e-06 -3.11393e-06 0 -7.71451e-06 -3.32595e-06 0 -7.0975e-06 -3.4769e-06 0 -6.46356e-06 -3.56654e-06 0 -5.82561e-06 -3.59606e-06 0 -5.19599e-06 -3.56858e-06 0 -4.58584e-06 -3.48946e-06 0 -4.00469e-06 -3.36544e-06 0 -3.46008e-06 -3.2042e-06 0 -3.77054e-06 3.66981e-06 0 -4.33972e-06 3.84981e-06 0 -4.95051e-06 3.98611e-06 0 -5.59464e-06 4.06901e-06 0 -6.26132e-06 4.09e-06 0 -6.93766e-06 4.04231e-06 0 -7.60927e-06 3.92209e-06 0 -8.26103e-06 3.72806e-06 0 -8.87795e-06 3.46087e-06 0 -9.44588e-06 3.12641e-06 0 -9.95214e-06 2.73003e-06 0 -1.03859e-05 2.27976e-06 0 -1.07383e-05 1.7847e-06 0 -1.10026e-05 1.25462e-06 0 -1.11738e-05 6.99693e-07 0 -1.12489e-05 1.30202e-07 0 -1.12264e-05 -4.43461e-07 0 -1.11064e-05 -1.01072e-06 0 -1.08908e-05 -1.5612e-06 0 -1.05829e-05 -2.08462e-06 0 -1.01879e-05 -2.57082e-06 0 -9.71288e-06 -3.01005e-06 0 -9.16706e-06 -3.39325e-06 0 -8.5616e-06 -3.71244e-06 0 -7.9095e-06 -3.96241e-06 0 -7.22525e-06 -4.13733e-06 0 -6.52415e-06 -4.23676e-06 0 -5.8216e-06 -4.26217e-06 0 -5.13225e-06 -4.21769e-06 0 -4.4692e-06 -4.11036e-06 0 -3.84339e-06 -3.94902e-06 0 -3.26318e-06 -3.74371e-06 0 -3.54332e-06 4.23369e-06 0 -4.15429e-06 4.46429e-06 0 -4.81863e-06 4.64398e-06 0 -5.52712e-06 4.76002e-06 0 -6.26714e-06 4.80115e-06 0 -7.02315e-06 4.7584e-06 0 -7.77758e-06 4.62665e-06 0 -8.51195e-06 4.40431e-06 0 -9.208e-06 4.09247e-06 0 -9.84882e-06 3.69889e-06 0 -1.04196e-05 3.23069e-06 0 -1.09079e-05 2.69816e-06 0 -1.13042e-05 2.11269e-06 0 -1.16011e-05 1.48625e-06 0 -1.17937e-05 8.30928e-07 0 -1.18788e-05 1.58783e-07 0 -1.18552e-05 -5.18182e-07 0 -1.17228e-05 -1.1878e-06 0 -1.14834e-05 -1.83808e-06 0 -1.11404e-05 -2.45697e-06 0 -1.06992e-05 -3.03236e-06 0 -1.01672e-05 -3.5523e-06 0 -9.55461e-06 -4.00544e-06 0 -8.87403e-06 -4.38152e-06 0 -8.14068e-06 -4.67354e-06 0 -7.37186e-06 -4.87385e-06 0 -6.58618e-06 -4.98154e-06 0 -5.80245e-06 -4.99847e-06 0 -5.03856e-06 -4.93004e-06 0 -4.31027e-06 -4.78556e-06 0 -3.63042e-06 -4.57668e-06 0 -3.00832e-06 -4.31656e-06 0 -3.26059e-06 4.8352e-06 0 -3.91862e-06 5.12983e-06 0 -4.64509e-06 5.36589e-06 0 -5.42975e-06 5.52652e-06 0 -6.25767e-06 5.59668e-06 0 -7.10987e-06 5.56433e-06 0 -7.96451e-06 5.42266e-06 0 -8.7986e-06 5.16974e-06 0 -9.58964e-06 4.80752e-06 0 -1.03172e-05 4.34636e-06 0 -1.09639e-05 3.79593e-06 0 -1.15159e-05 3.1696e-06 0 -1.19626e-05 2.48168e-06 0 -1.22968e-05 1.74667e-06 0 -1.25136e-05 9.78854e-07 0 -1.26101e-05 1.92074e-07 0 -1.25851e-05 -6.00122e-07 0 -1.24387e-05 -1.38409e-06 0 -1.21725e-05 -2.14628e-06 0 -1.17896e-05 -2.87284e-06 0 -1.12951e-05 -3.54947e-06 0 -1.06969e-05 -4.16164e-06 0 -1.00057e-05 -4.69505e-06 0 -9.23576e-06 -5.13638e-06 0 -8.40496e-06 -5.47607e-06 0 -7.53412e-06 -5.70383e-06 0 -6.64615e-06 -5.81795e-06 0 -5.76445e-06 -5.82063e-06 0 -4.91121e-06 -5.71901e-06 0 -4.10571e-06 -5.52554e-06 0 -3.36312e-06 -5.25573e-06 0 -2.69383e-06 -4.92693e-06 0 -2.90337e-06 5.47791e-06 0 -3.61393e-06 5.85395e-06 0 -4.41276e-06 6.16345e-06 0 -5.28859e-06 6.38394e-06 0 -6.22356e-06 6.49501e-06 0 -7.19398e-06 6.48031e-06 0 -8.17208e-06 6.33063e-06 0 -9.12855e-06 6.0438e-06 0 -1.00351e-05 5.62324e-06 0 -1.08669e-05 5.08321e-06 0 -1.16034e-05 4.43713e-06 0 -1.22293e-05 3.70256e-06 0 -1.27338e-05 2.89755e-06 0 -1.311e-05 2.03967e-06 0 -1.33537e-05 1.14552e-06 0 -1.34628e-05 2.30635e-07 0 -1.34363e-05 -6.90124e-07 0 -1.32745e-05 -1.60192e-06 0 -1.29783e-05 -2.48989e-06 0 -1.25504e-05 -3.33845e-06 0 -1.19951e-05 -4.13095e-06 0 -1.13199e-05 -4.84979e-06 0 -1.05358e-05 -5.47687e-06 0 -9.65878e-06 -5.99466e-06 0 -8.70954e-06 -6.38983e-06 0 -7.7136e-06 -6.64818e-06 0 -6.69969e-06 -6.76654e-06 0 -5.69761e-06 -6.74738e-06 0 -4.73557e-06 -6.60029e-06 0 -3.83763e-06 -6.3421e-06 0 -3.02194e-06 -5.99378e-06 0 -2.29995e-06 -5.57839e-06 0 -2.44722e-06 6.16446e-06 0 -3.21526e-06 6.64467e-06 0 -4.09823e-06 7.05058e-06 0 -5.08413e-06 7.35182e-06 0 -6.15139e-06 7.52017e-06 0 -7.26969e-06 7.5329e-06 0 -8.40259e-06 7.37741e-06 0 -9.51157e-06 7.0514e-06 0 -1.05602e-05 6.56103e-06 0 -1.15175e-05 5.92653e-06 0 -1.23599e-05 5.16701e-06 0 -1.30709e-05 4.3059e-06 0 -1.36403e-05 3.36607e-06 0 -1.40627e-05 2.36867e-06 0 -1.43356e-05 1.33263e-06 0 -1.44581e-05 2.74895e-07 0 -1.443e-05 -7.88894e-07 0 -1.42515e-05 -1.84329e-06 0 -1.3923e-05 -2.87263e-06 0 -1.34455e-05 -3.85989e-06 0 -1.28219e-05 -4.78606e-06 0 -1.20581e-05 -5.62989e-06 0 -1.11647e-05 -6.36843e-06 0 -1.01585e-05 -6.97822e-06 0 -9.06385e-06 -7.4402e-06 0 -7.91216e-06 -7.7342e-06 0 -6.74047e-06 -7.8543e-06 0 -5.58789e-06 -7.80313e-06 0 -4.49141e-06 -7.59372e-06 0 -3.48181e-06 -7.24937e-06 0 -2.58104e-06 -6.79895e-06 0 -1.80134e-06 -6.27356e-06 0 -1.88109e-06 6.89532e-06 0 -2.70933e-06 7.5095e-06 0 -3.68744e-06 8.04283e-06 0 -4.80345e-06 8.45367e-06 0 -6.03134e-06 8.70214e-06 0 -7.33164e-06 8.75571e-06 0 -8.65551e-06 8.59663e-06 0 -9.95104e-06 8.22295e-06 0 -1.11705e-05 7.64587e-06 0 -1.22754e-05 6.89504e-06 0 -1.32386e-05 5.99838e-06 0 -1.40439e-05 4.98757e-06 0 -1.46832e-05 3.89167e-06 0 -1.51539e-05 2.73582e-06 0 -1.54566e-05 1.54104e-06 0 -1.55925e-05 3.24988e-07 0 -1.55628e-05 -8.96812e-07 0 -1.53674e-05 -2.10931e-06 0 -1.50055e-05 -3.29694e-06 0 -1.4476e-05 -4.44194e-06 0 -1.37789e-05 -5.52312e-06 0 -1.2917e-05 -6.51519e-06 0 -1.18987e-05 -7.38891e-06 0 -1.0741e-05 -8.11253e-06 0 -9.47153e-06 -8.65814e-06 0 -8.12948e-06 -8.99606e-06 0 -6.76331e-06 -9.11536e-06 0 -5.42561e-06 -9.01833e-06 0 -4.16591e-06 -8.7232e-06 0 -3.02427e-06 -8.26318e-06 0 -2.0272e-06 -7.6789e-06 0 -1.18697e-06 -7.01291e-06 0 -1.1533e-06 7.6673e-06 0 -2.04079e-06 8.4546e-06 0 -3.12635e-06 9.15784e-06 0 -4.40036e-06 9.71911e-06 0 -5.83183e-06 1.00805e-05 0 -7.36786e-06 1.01938e-05 0 -8.93961e-06 1.00329e-05 0 -1.04738e-05 9.59735e-06 0 -1.19056e-05 8.90771e-06 0 -1.31867e-05 8.00916e-06 0 -1.42878e-05 6.94335e-06 0 -1.51952e-05 5.75352e-06 0 -1.59064e-05 4.47639e-06 0 -1.64247e-05 3.14117e-06 0 -1.67555e-05 1.7702e-06 0 -1.69037e-05 3.8058e-07 0 -1.68721e-05 -1.01375e-06 0 -1.66608e-05 -2.39967e-06 0 -1.6267e-05 -3.76318e-06 0 -1.56862e-05 -5.08698e-06 0 -1.4913e-05 -6.3485e-06 0 -1.39445e-05 -7.51827e-06 0 -1.27839e-05 -8.55931e-06 0 -1.14453e-05 -9.42817e-06 0 -9.95881e-06 -1.00832e-05 0 -8.3735e-06 -1.0479e-05 0 -6.75516e-06 -1.05954e-05 0 -5.17789e-06 -1.04331e-05 0 -3.71139e-06 -1.00188e-05 0 -2.4093e-06 -9.40151e-06 0 -1.30326e-06 -8.63999e-06 0 -4.03313e-07 -7.79328e-06 0 -2.35757e-07 8.47028e-06 0 -1.17431e-06 9.48243e-06 0 -2.3759e-06 1.04151e-05 0 -3.8383e-06 1.11868e-05 0 -5.52644e-06 1.17108e-05 0 -7.36821e-06 1.19117e-05 0 -9.26202e-06 1.17492e-05 0 -1.11004e-05 1.12265e-05 0 -1.27922e-05 1.03829e-05 0 -1.4278e-05 9.29006e-06 0 -1.55292e-05 8.0112e-06 0 -1.65405e-05 6.60531e-06 0 -1.73197e-05 5.11783e-06 0 -1.78796e-05 3.58118e-06 0 -1.82334e-05 2.01727e-06 0 -1.83909e-05 4.40567e-07 0 -1.83575e-05 -1.13873e-06 0 -1.81331e-05 -2.71169e-06 0 -1.77125e-05 -4.268e-06 0 -1.70857e-05 -5.79292e-06 0 -1.62401e-05 -7.26418e-06 0 -1.51628e-05 -8.64896e-06 0 -1.38469e-05 -9.90142e-06 0 -1.22983e-05 -1.09622e-05 0 -1.05463e-05 -1.1768e-05 0 -8.65143e-06 -1.22469e-05 0 -6.70588e-06 -1.23597e-05 0 -4.81819e-06 -1.21038e-05 0 -3.09101e-06 -1.15199e-05 0 -1.59746e-06 -1.06843e-05 0 -3.73432e-07 -9.68499e-06 0 5.78246e-07 -8.6046e-06 0 9.08876e-07 9.28327e-06 0 -6.08988e-08 1.05872e-05 0 -1.37955e-06 1.18322e-05 0 -3.06237e-06 1.29039e-05 0 -5.07525e-06 1.36683e-05 0 -7.3182e-06 1.40005e-05 0 -9.63912e-06 1.38319e-05 0 -1.18676e-05 1.31765e-05 0 -1.38748e-05 1.21114e-05 0 -1.55907e-05 1.07549e-05 0 -1.69962e-05 9.20369e-06 0 -1.81036e-05 7.53644e-06 0 -1.89382e-05 5.80662e-06 0 -1.95276e-05 4.04717e-06 0 -1.9895e-05 2.27634e-06 0 -2.00569e-05 5.02872e-07 0 -2.00217e-05 -1.26973e-06 0 -1.97892e-05 -3.03956e-06 0 -1.93509e-05 -4.80292e-06 0 -1.86903e-05 -6.55069e-06 0 -1.77843e-05 -8.2641e-06 0 -1.66057e-05 -9.9096e-06 0 -1.51297e-05 -1.14332e-05 0 -1.33448e-05 -1.27554e-05 0 -1.1271e-05 -1.37796e-05 0 -8.97964e-06 -1.4387e-05 0 -6.60079e-06 -1.45005e-05 0 -4.30622e-06 -1.41065e-05 0 -2.2494e-06 -1.32744e-05 0 -5.31571e-07 -1.213e-05 0 8.12036e-07 -1.08085e-05 0 1.79589e-06 -9.42598e-06 0 2.39595e-06 1.00654e-05 0 1.44694e-06 1.17453e-05 0 3.38536e-08 1.3419e-05 0 -1.90256e-06 1.49301e-05 0 -4.35225e-06 1.60669e-05 0 -7.18126e-06 1.6604e-05 0 -1.01292e-05 1.64155e-05 0 -1.28975e-05 1.55369e-05 0 -1.52953e-05 1.41343e-05 0 -1.72568e-05 1.24098e-05 0 -1.87987e-05 1.05076e-05 0 -1.99712e-05 8.52647e-06 0 -2.08295e-05 6.5224e-06 0 -2.14217e-05 4.52283e-06 0 -2.17843e-05 2.53712e-06 0 -2.19413e-05 5.64029e-07 0 -2.19043e-05 -1.40316e-06 0 -2.16732e-05 -3.37293e-06 0 -2.12358e-05 -5.3517e-06 0 -2.05679e-05 -7.34017e-06 0 -1.96331e-05 -9.32824e-06 0 -1.83834e-05 -1.12877e-05 0 -1.67643e-05 -1.31614e-05 0 -1.47265e-05 -1.485e-05 0 -1.22544e-05 -1.62088e-05 0 -9.41536e-06 -1.70349e-05 0 -6.40175e-06 -1.71626e-05 0 -3.51391e-06 -1.65565e-05 0 -1.01393e-06 -1.53431e-05 0 9.62605e-07 -1.3749e-05 0 2.40412e-06 -1.19874e-05 0 3.3687e-06 -1.02167e-05 0 4.2362e-06 1.07454e-05 0 3.39049e-06 1.2899e-05 0 1.94497e-06 1.51579e-05 0 -2.45251e-07 1.73276e-05 0 -3.25398e-06 1.90798e-05 0 -6.93389e-06 1.99701e-05 0 -1.07685e-05 1.9713e-05 0 -1.42625e-05 1.84202e-05 0 -1.71036e-05 1.6477e-05 0 -1.92874e-05 1.42322e-05 0 -2.09146e-05 1.18829e-05 0 -2.20986e-05 9.53414e-06 0 -2.29351e-05 7.23037e-06 0 -2.34959e-05 4.98273e-06 0 -2.38313e-05 2.78436e-06 0 -2.39723e-05 6.19083e-07 0 -2.39339e-05 -1.53374e-06 0 -2.37155e-05 -3.69631e-06 0 -2.33017e-05 -5.88883e-06 0 -2.26607e-05 -8.12674e-06 0 -2.17422e-05 -1.04158e-05 0 -2.04745e-05 -1.27437e-05 0 -1.87626e-05 -1.50646e-05 0 -1.6494e-05 -1.72724e-05 0 -1.35696e-05 -1.91692e-05 0 -9.9955e-06 -2.04055e-05 0 -6.08598e-06 -2.05956e-05 0 -2.33841e-06 -1.96282e-05 0 7.28541e-07 -1.77895e-05 0 2.9654e-06 -1.5525e-05 0 4.44395e-06 -1.31649e-05 0 5.30739e-06 -1.0906e-05 0 6.52686e-06 1.12111e-05 0 5.93441e-06 1.39337e-05 0 4.61121e-06 1.69646e-05 0 2.26766e-06 2.01204e-05 0 -1.41203e-06 2.29595e-05 0 -6.464e-06 2.46336e-05 0 -1.19533e-05 2.40782e-05 0 -1.64247e-05 2.19328e-05 0 -1.96813e-05 1.91062e-05 0 -2.19726e-05 1.61434e-05 0 -2.35677e-05 1.32491e-05 0 -2.46672e-05 1.04923e-05 0 -2.54102e-05 7.87997e-06 0 -2.589e-05 5.39237e-06 0 -2.61673e-05 2.99827e-06 0 -2.62779e-05 6.61794e-07 0 -2.62383e-05 -1.65462e-06 0 -2.6048e-05 -3.98941e-06 0 -2.56892e-05 -6.37957e-06 0 -2.5125e-05 -8.85987e-06 0 -2.42944e-05 -1.146e-05 0 -2.3104e-05 -1.41981e-05 0 -2.14155e-05 -1.70653e-05 0 -1.90296e-05 -1.9991e-05 0 -1.56788e-05 -2.27693e-05 0 -1.1116e-05 -2.4854e-05 0 -5.54038e-06 -2.53362e-05 0 -4.09751e-07 -2.35764e-05 0 3.33826e-06 -2.06396e-05 0 5.73701e-06 -1.73755e-05 0 7.09959e-06 -1.42276e-05 0 7.71309e-06 -1.1382e-05 0 9.33433e-06 1.12915e-05 0 9.22894e-06 1.46399e-05 0 8.33311e-06 1.86049e-05 0 6.20738e-06 2.31391e-05 0 2.10028e-06 2.79825e-05 0 -5.58597e-06 3.16536e-05 0 -1.51438e-05 3.01405e-05 0 -2.06049e-05 2.6012e-05 0 -2.3936e-05 2.18256e-05 0 -2.60453e-05 1.79622e-05 0 -2.74014e-05 1.44672e-05 0 -2.82744e-05 1.1301e-05 0 -2.88287e-05 8.40262e-06 0 -2.91659e-05 5.70772e-06 0 -2.93484e-05 3.1545e-06 0 -2.94118e-05 6.84735e-07 0 -2.93718e-05 -1.75729e-06 0 -2.92276e-05 -4.227e-06 0 -2.89614e-05 -6.77927e-06 0 -2.85361e-05 -9.47084e-06 0 -2.78885e-05 -1.23614e-05 0 -2.69168e-05 -1.55128e-05 0 -2.54574e-05 -1.89837e-05 0 -2.32417e-05 -2.28112e-05 0 -1.98034e-05 -2.69482e-05 0 -1.42369e-05 -3.10124e-05 0 -4.57867e-06 -3.24459e-05 0 3.20005e-06 -2.86798e-05 0 7.38846e-06 -2.37265e-05 0 9.5809e-06 -1.90684e-05 0 1.05251e-05 -1.49677e-05 0 1.06568e-05 -1.1475e-05 0 1.25955e-05 1.07717e-05 0 1.32386e-05 1.47196e-05 0 1.31599e-05 1.96495e-05 0 1.18977e-05 2.57453e-05 0 8.63957e-06 3.33499e-05 0 1.68606e-06 4.3737e-05 0 -7.09071e-06 3.73305e-05 0 -1.18436e-05 2.99595e-05 0 -1.44863e-05 2.41823e-05 0 -1.60043e-05 1.94024e-05 0 -1.68811e-05 1.53537e-05 0 -1.73805e-05 1.1842e-05 0 -1.76545e-05 8.72274e-06 0 -1.77928e-05 5.88253e-06 0 -1.78483e-05 3.22839e-06 0 -1.78503e-05 6.80682e-07 0 -1.78109e-05 -1.83289e-06 0 -1.77288e-05 -4.38297e-06 0 -1.75887e-05 -7.04072e-06 0 -1.73595e-05 -9.8837e-06 0 -1.69867e-05 -1.30019e-05 0 -1.638e-05 -1.65055e-05 0 -1.53884e-05 -2.05353e-05 0 -1.37501e-05 -2.52823e-05 0 -1.09846e-05 -3.10103e-05 0 -6.10973e-06 -3.8314e-05 0 2.78438e-06 -4.46344e-05 0 9.8471e-06 -3.41426e-05 0 1.32027e-05 -2.64148e-05 0 1.45466e-05 -2.01779e-05 0 1.46862e-05 -1.50904e-05 0 1.40775e-05 -1.09717e-05 0 1.62894e-05 9.41064e-06 0 1.79921e-05 1.3825e-05 0 1.91931e-05 1.95491e-05 0 1.95707e-05 2.69222e-05 0 1.87289e-05 3.65474e-05 0 1.65263e-05 4.95581e-05 0 1.39277e-05 4.17819e-05 0 1.19743e-05 3.24751e-05 0 1.09353e-05 2.55585e-05 0 1.04795e-05 2.01275e-05 0 1.03449e-05 1.57121e-05 0 1.03726e-05 1.19965e-05 0 1.04704e-05 8.76814e-06 0 1.05849e-05 5.87432e-06 0 1.06862e-05 3.19802e-06 0 1.07582e-05 6.43652e-07 0 1.07954e-05 -1.87298e-06 0 1.07999e-05 -4.43327e-06 0 1.07813e-05 -7.11987e-06 0 1.0759e-05 -1.00255e-05 0 1.07652e-05 -1.32631e-05 0 1.08541e-05 -1.69808e-05 0 1.11171e-05 -2.13858e-05 0 1.17104e-05 -2.67895e-05 0 1.28918e-05 -3.36588e-05 0 1.49877e-05 -4.28957e-05 0 1.77244e-05 -5.05794e-05 0 2.00566e-05 -3.7454e-05 0 2.10164e-05 -2.7692e-05 0 2.07408e-05 -2.01592e-05 0 1.96196e-05 -1.42523e-05 0 1.79653e-05 -9.63455e-06 0 2.0216e-05 6.97094e-06 0 2.32196e-05 1.16339e-05 0 2.60067e-05 1.7834e-05 0 2.84223e-05 2.59265e-05 0 3.03663e-05 3.64711e-05 0 3.18308e-05 5.0234e-05 0 3.29683e-05 4.24518e-05 0 3.39687e-05 3.27239e-05 0 3.49012e-05 2.54725e-05 0 3.57547e-05 1.98654e-05 0 3.65078e-05 1.53861e-05 0 3.71468e-05 1.1673e-05 0 3.76649e-05 8.48512e-06 0 3.806e-05 5.65265e-06 0 3.83323e-05 3.04843e-06 0 3.84836e-05 5.70318e-07 0 3.85165e-05 -1.87058e-06 0 3.8434e-05 -4.35967e-06 0 3.82392e-05 -6.98378e-06 0 3.79352e-05 -9.84121e-06 0 3.75253e-05 -1.30536e-05 0 3.70132e-05 -1.67841e-05 0 3.64048e-05 -2.12663e-05 0 3.57101e-05 -2.68552e-05 0 3.49445e-05 -3.40629e-05 0 3.41119e-05 -4.37187e-05 0 3.3137e-05 -5.14014e-05 0 3.18257e-05 -3.75136e-05 0 3.00237e-05 -2.68193e-05 0 2.77369e-05 -1.85494e-05 0 2.50579e-05 -1.21393e-05 0 2.21265e-05 -7.23261e-06 0 2.41734e-05 3.2497e-06 0 2.86637e-05 7.9224e-06 0 3.31904e-05 1.42625e-05 0 3.77463e-05 2.25188e-05 0 4.24915e-05 3.31753e-05 0 4.7511e-05 4.70905e-05 0 5.23108e-05 3.97311e-05 0 5.6208e-05 3.05441e-05 0 5.91327e-05 2.37568e-05 0 6.13186e-05 1.85093e-05 0 6.2973e-05 1.43139e-05 0 6.42298e-05 1.08366e-05 0 6.51706e-05 7.85433e-06 0 6.58459e-05 5.20766e-06 0 6.62875e-05 2.7759e-06 0 6.65155e-05 4.61346e-07 0 6.65411e-05 -1.82132e-06 0 6.63686e-05 -4.1539e-06 0 6.59945e-05 -6.61902e-06 0 6.54057e-05 -9.30935e-06 0 6.45758e-05 -1.23382e-05 0 6.34571e-05 -1.58555e-05 0 6.19673e-05 -2.00741e-05 0 5.99674e-05 -2.53176e-05 0 5.72412e-05 -3.20671e-05 0 5.35438e-05 -4.11788e-05 0 4.89349e-05 -4.8429e-05 0 4.40932e-05 -3.43776e-05 0 3.95156e-05 -2.35618e-05 0 3.5122e-05 -1.51165e-05 0 3.07466e-05 -8.54145e-06 0 2.63713e-05 -3.57557e-06 0 2.79449e-05 -1.95625e-06 0 3.41027e-05 2.54816e-06 0 4.03859e-05 8.81172e-06 0 4.68928e-05 1.67805e-05 0 5.42289e-05 2.66622e-05 0 6.33421e-05 3.97761e-05 0 7.27214e-05 3.35016e-05 0 7.94535e-05 2.60495e-05 0 8.4089e-05 2.05225e-05 0 8.73986e-05 1.61329e-05 0 8.98255e-05 1.2541e-05 0 9.16219e-05 9.51614e-06 0 9.29368e-05 6.89482e-06 0 9.38615e-05 4.55234e-06 0 9.44529e-05 2.38919e-06 0 9.47463e-05 3.22016e-07 0 9.47605e-05 -1.72335e-06 0 9.45011e-05 -3.81812e-06 0 9.39599e-05 -6.03313e-06 0 9.31115e-05 -8.44545e-06 0 9.19072e-05 -1.11449e-05 0 9.02607e-05 -1.42433e-05 0 8.80233e-05 -1.7889e-05 0 8.49364e-05 -2.22967e-05 0 8.05432e-05 -2.77946e-05 0 7.40536e-05 -3.51646e-05 0 6.48984e-05 -4.13124e-05 0 5.59838e-05 -2.80457e-05 0 4.88337e-05 -1.80011e-05 0 4.25266e-05 -9.85063e-06 0 3.6465e-05 -3.34345e-06 0 3.0506e-05 1.51251e-06 0 3.13547e-05 -8.9347e-06 0 3.94783e-05 -4.60698e-06 0 4.7445e-05 1.69109e-06 0 5.53055e-05 9.2632e-06 0 6.40506e-05 1.74584e-05 0 7.64603e-05 2.52699e-05 0 9.11496e-05 2.38266e-05 0 9.94655e-05 1.98315e-05 0 0.000105061 1.61769e-05 0 0.000109077 1.29793e-05 0 0.000112038 1.02112e-05 0 0.000114232 7.79884e-06 0 0.000115834 5.66112e-06 0 0.000116952 3.72103e-06 0 0.00011766 1.9089e-06 0 0.000118 1.62149e-07 0 0.000117997 -1.5769e-06 0 0.000117659 -3.36387e-06 0 0.000116974 -5.25263e-06 0 0.000115913 -7.29839e-06 0 0.000114416 -9.55886e-06 0 0.000112383 -1.2094e-05 0 0.000109643 -1.49627e-05 0 0.0001059 -1.82139e-05 0 0.000100611 -2.18533e-05 0 9.26011e-05 -2.57516e-05 0 7.81785e-05 -2.70301e-05 0 6.59744e-05 -1.90288e-05 0 5.74011e-05 -1.06732e-05 0 4.97629e-05 -2.97531e-06 0 4.21346e-05 3.51727e-06 0 3.4388e-05 8.25744e-06 0 3.42956e-05 -1.82985e-05 0 4.51403e-05 -1.38132e-05 0 5.47646e-05 -6.68026e-06 0 6.30201e-05 1.15034e-06 0 7.11155e-05 8.13795e-06 0 8.01901e-05 1.29361e-05 0 8.93574e-05 1.42529e-05 0 9.67613e-05 1.31923e-05 0 0.000102363 1.13509e-05 0 0.000106609 9.39108e-06 0 0.000109832 7.52496e-06 0 0.000112258 5.80798e-06 0 0.00011404 4.23154e-06 0 0.000115284 2.76351e-06 0 0.000116064 1.36475e-06 0 0.000116426 -4.52718e-09 0 0.0001164 -1.38311e-06 0 0.000115992 -2.80861e-06 0 0.000115194 -4.31599e-06 0 0.000113977 -5.93734e-06 0 0.000112285 -7.69827e-06 0 0.000110027 -9.60954e-06 0 0.000107061 -1.16491e-05 0 0.00010316 -1.3722e-05 0 9.79621e-05 -1.55758e-05 0 9.09697e-05 -1.65137e-05 0 8.21398e-05 -1.49486e-05 0 7.32541e-05 -9.85826e-06 0 6.52199e-05 -2.69318e-06 0 5.71151e-05 5.09524e-06 0 4.80237e-05 1.21834e-05 0 3.79821e-05 1.7115e-05 0 3.66617e-05 -3.16244e-05 0 5.23843e-05 -2.58689e-05 0 6.37074e-05 -1.56109e-05 0 7.089e-05 -6.05324e-06 0 7.6879e-05 8.0921e-07 0 8.32406e-05 4.99538e-06 0 8.98322e-05 6.88439e-06 0 9.58945e-05 7.16005e-06 0 0.000101018 6.58943e-06 0 0.000105164 5.6851e-06 0 0.000108431 4.68022e-06 0 0.00011094 3.67326e-06 0 0.000112798 2.69284e-06 0 0.000114095 1.73708e-06 0 0.0001149 7.91811e-07 0 0.000115258 -1.61448e-07 0 0.000115199 -1.14264e-06 0 0.000114731 -2.17137e-06 0 0.000113849 -3.2646e-06 0 0.000112528 -4.43453e-06 0 0.000110728 -5.68228e-06 0 0.000108385 -6.98578e-06 0 0.000105414 -8.27698e-06 0 0.000101704 -9.39877e-06 0 9.7138e-05 -1.00451e-05 0 9.16788e-05 -9.61967e-06 0 8.5585e-05 -7.32008e-06 0 7.93986e-05 -2.56282e-06 0 7.31339e-05 4.65725e-06 0 6.56302e-05 1.38051e-05 0 5.51002e-05 2.31227e-05 0 4.13946e-05 2.92049e-05 0 3.76766e-05 -5.36488e-05 0 6.55247e-05 -4.28827e-05 0 7.71487e-05 -2.29935e-05 0 7.95993e-05 -1.02718e-05 0 8.19611e-05 -3.8597e-06 0 8.59552e-05 -5.60515e-07 0 9.0935e-05 1.14261e-06 0 9.60277e-05 1.90917e-06 0 0.000100665 2.1277e-06 0 0.000104601 2.05628e-06 0 0.000107787 1.82683e-06 0 0.000110267 1.50741e-06 0 0.000112112 1.12778e-06 0 0.000113396 6.99713e-07 0 0.000114178 2.26969e-07 0 0.000114505 -2.90423e-07 0 0.000114403 -8.54784e-07 0 0.000113882 -1.46902e-06 0 0.000112938 -2.13482e-06 0 0.000111556 -2.85023e-06 0 0.000109709 -3.60313e-06 0 0.000107366 -4.36013e-06 0 0.000104502 -5.04733e-06 0 0.000101112 -5.51857e-06 0 9.72542e-05 -5.52461e-06 0 9.31071e-05 -4.63455e-06 0 8.90225e-05 -2.28487e-06 0 8.53952e-05 2.22856e-06 0 8.21273e-05 9.88716e-06 0 7.74171e-05 2.19333e-05 0 6.61378e-05 3.74802e-05 0 4.48504e-05 4.76284e-05 0 2.679e-05 -0.000102991 0 0.000105011 -6.73671e-05 0 9.79815e-05 -1.96993e-05 0 8.71214e-05 -8.3702e-06 0 8.51406e-05 -5.76513e-06 0 8.76793e-05 -4.63404e-06 0 9.19881e-05 -3.69403e-06 0 9.66731e-05 -2.82118e-06 0 0.000101043 -2.05644e-06 0 0.000104799 -1.42651e-06 0 0.000107854 -9.42583e-07 0 0.000110228 -6.00961e-07 0 0.000111986 -3.90028e-07 0 0.000113193 -2.93501e-07 0 0.00011391 -2.93483e-07 0 0.000114178 -3.72884e-07 0 0.000114022 -5.17311e-07 0 0.000113452 -7.14465e-07 0 0.000112465 -9.53789e-07 0 0.000111048 -1.22493e-06 0 0.000109186 -1.51318e-06 0 0.000106872 -1.79243e-06 0 0.000104124 -2.01369e-06 0 0.000101009 -2.08716e-06 0 9.7692e-05 -1.86598e-06 0 9.44919e-05 -1.09279e-06 0 9.19369e-05 6.20804e-07 0 9.07847e-05 3.97532e-06 0 9.19233e-05 1.05892e-05 0 9.53253e-05 2.48868e-05 0 9.10793e-05 5.65088e-05 0 4.75088e-05 8.31783e-05 0 -0.000475135 0.00486669 0 0.000240973 2.33041e-05 0 0.000105534 1.3463e-05 0 8.54933e-05 -9.95515e-07 0 8.4214e-05 -6.86545e-06 0 8.78437e-05 -8.63752e-06 0 9.2773e-05 -8.47537e-06 0 9.76944e-05 -7.44283e-06 0 0.00010208 -6.11401e-06 0 0.000105713 -4.762e-06 0 0.000108605 -3.56819e-06 0 0.000110808 -2.57784e-06 0 0.000112406 -1.79321e-06 0 0.000113478 -1.19046e-06 0 0.000114087 -7.35051e-07 0 0.000114272 -3.9133e-07 0 0.000114054 -1.27756e-07 0 0.000113439 8.24006e-08 0 0.00011242 2.59848e-07 0 0.000110984 4.19401e-07 0 0.000109118 5.71598e-07 0 0.000106821 7.24042e-07 0 0.000104127 8.83394e-07 0 0.000101134 1.05894e-06 0 9.80497e-05 1.26669e-06 0 9.52733e-05 1.54982e-06 0 9.34833e-05 2.00233e-06 0 9.38468e-05 2.8558e-06 0 9.86625e-05 4.77939e-06 0 0.000114092 1.04746e-05 0 0.000166665 4.30402e-05 0 -7.64736e-05 -0.000608373 0 </DataArray> 
</PointData> 
<Points> 
<DataArray type="Float32" NumberOfComponents="3"> 