<?xml version="1.0"?> 
<VTKFile type="StructuredGrid" version="0.1"> 
<StructuredGrid WholeExtent="0 31 0 31 0 0"> 
<Piece Extent="0 31 0 31 0 0"> 
<PointData>
<DataArray type="Float32" Name="B" format="ascii" NumberOfComponents="3"> 
-0.00271108 0.0184326 0 0.000349889 -0.000352139 0 9.75339e-05 -6.56274e-05 0 6.008e-05 9.75738e-06 0 5.023e-05 3.37525e-05 0 4.48988e-05 3.89827e-05 0 3.90972e-05 3.63437e-05 0 3.19375e-05 3.05795e-05 0 2.37224e-05 2.40374e-05 0 1.5244e-05 1.80112e-05 0 7.01617e-06 1.28989e-05 0 -4.4292e-07 8.86193e-06 0 -6.80515e-06 5.82806e-06 0 -1.18829e-05 3.63203e-06 0 -1.55847e-05 2.08573e-06 0 -1.78761e-05 1.01404e-06 0 -1.87463e-05 2.71992e-07 0 -1.81834e-05 -2.56532e-07 0 -1.61559e-05 -6.57135e-07 0 -1.25986e-05 -9.8801e-07 0 -7.40289e-06 -1.28738e-06 0 -4.06356e-07 -1.57773e-06 0 8.6186e-06 -1.86928e-06 0 1.99865e-05 -2.16368e-06 0 3.4146e-05 -2.45685e-06 0 5.18262e-05 -2.76127e-06 0 7.43678e-05 -3.13093e-06 0 0.000104635 -3.7376e-06 0 0.000149671 -5.09271e-06 0 0.000231131 -9.1798e-06 0 0.000459102 -3.42243e-05 0 -0.00100294 -0.00691179 0 0.000129679 0.000502177 0 0.000284603 0.00014185 0 0.000147735 4.10892e-05 0 8.47255e-05 4.11919e-05 0 5.84607e-05 4.67523e-05 0 4.45805e-05 4.74824e-05 0 3.46133e-05 4.42327e-05 0 2.57935e-05 3.87378e-05 0 1.73966e-05 3.23767e-05 0 9.41298e-06 2.60707e-05 0 2.04372e-06 2.03208e-05 0 -4.48887e-06 1.53452e-05 0 -1.00055e-05 1.11708e-05 0 -1.43833e-05 7.71695e-06 0 -1.7547e-05 4.85353e-06 0 -1.94523e-05 2.43636e-06 0 -2.00676e-05 3.28109e-07 0 -1.93577e-05 -1.59854e-06 0 -1.72697e-05 -3.45454e-06 0 -1.37211e-05 -5.33482e-06 0 -8.59004e-06 -7.32401e-06 0 -1.70569e-06 -9.50076e-06 0 7.16097e-06 -1.19446e-05 0 1.83097e-05 -1.47525e-05 0 3.21349e-05 -1.80719e-05 0 4.9191e-05 -2.22562e-05 0 7.03757e-05 -2.81213e-05 0 9.73682e-05 -3.7717e-05 0 0.000133397 -5.65151e-05 0 0.000182837 -0.00010116 0 0.000225705 -0.000226854 0 4.57426e-05 -0.000415187 0 5.15273e-05 0.000249672 0 0.000122675 0.00017127 0 0.000108727 0.000101993 0 7.87e-05 7.49055e-05 0 5.65713e-05 6.5463e-05 0 4.11397e-05 5.99979e-05 0 2.92678e-05 5.42931e-05 0 1.93224e-05 4.76766e-05 0 1.06381e-05 4.05639e-05 0 2.96296e-06 3.35203e-05 0 -3.77373e-06 2.69363e-05 0 -9.55971e-06 2.10098e-05 0 -1.43515e-05 1.57855e-05 0 -1.81015e-05 1.12105e-05 0 -2.07683e-05 7.17758e-06 0 -2.23163e-05 3.55521e-06 0 -2.27097e-05 2.05867e-07 0 -2.19038e-05 -3.01013e-06 0 -1.98359e-05 -6.22677e-06 0 -1.64163e-05 -9.57221e-06 0 -1.15189e-05 -1.31733e-05 0 -4.97363e-06 -1.71589e-05 0 3.43914e-06 -2.1665e-05 0 1.39847e-05 -2.68466e-05 0 2.69466e-05 -3.28995e-05 0 4.25515e-05 -4.02464e-05 0 6.08413e-05 -4.98277e-05 0 8.14855e-05 -6.39152e-05 0 0.000102976 -8.73449e-05 0 0.000118613 -0.000128372 0 0.000105114 -0.000191051 0 3.25155e-05 -0.000235986 0 2.95292e-05 0.00017562 0 6.483e-05 0.0001497 0 7.17506e-05 0.000116612 0 6.20072e-05 9.42289e-05 0 4.81045e-05 8.16322e-05 0 3.44474e-05 7.32413e-05 0 2.21469e-05 6.54148e-05 0 1.16507e-05 5.71188e-05 0 2.89863e-06 4.86534e-05 0 -4.41167e-06 4.04743e-05 0 -1.05364e-05 3.28677e-05 0 -1.56236e-05 2.59556e-05 0 -1.97395e-05 1.97426e-05 0 -2.29029e-05 1.41589e-05 0 -2.51073e-05 9.09144e-06 0 -2.63325e-05 4.40418e-06 0 -2.65469e-05 -4.87938e-08 0 -2.5706e-05 -4.42192e-06 0 -2.37465e-05 -8.87112e-06 0 -2.05803e-05 -1.3555e-05 0 -1.60856e-05 -1.86394e-05 0 -1.0099e-05 -2.42994e-05 0 -2.40903e-06 -3.07181e-05 0 7.23816e-06 -3.8079e-05 0 1.90872e-05 -4.65246e-05 0 3.31752e-05 -5.62091e-05 0 4.88278e-05 -6.74283e-05 0 6.41356e-05 -8.14667e-05 0 7.58215e-05 -0.00010091 0 7.81193e-05 -0.000127527 0 6.23918e-05 -0.000156874 0 2.63629e-05 -0.000173296 0 2.20557e-05 0.000141834 0 4.20892e-05 0.000132118 0 5.02725e-05 0.000116807 0 4.78608e-05 0.000103437 0 3.89717e-05 9.40462e-05 0 2.63663e-05 8.64072e-05 0 1.31081e-05 7.72129e-05 0 2.20241e-06 6.67303e-05 0 -6.26615e-06 5.6424e-05 0 -1.29512e-05 4.68265e-05 0 -1.83225e-05 3.80848e-05 0 -2.26508e-05 3.01899e-05 0 -2.60761e-05 2.30635e-05 0 -2.86609e-05 1.65883e-05 0 -3.04236e-05 1.06248e-05 0 -3.13569e-05 5.02068e-06 0 -3.14363e-05 -3.84167e-07 0 -3.06222e-05 -5.76011e-06 0 -2.88581e-05 -1.12833e-05 0 -2.60654e-05 -1.714e-05 0 -2.21355e-05 -2.35322e-05 0 -1.69192e-05 -3.06814e-05 0 -1.02118e-05 -3.88263e-05 0 -1.73431e-06 -4.82022e-05 0 8.87999e-06 -5.89324e-05 0 2.1995e-05 -7.07983e-05 0 3.69754e-05 -8.25015e-05 0 5.00147e-05 -9.35752e-05 0 5.72974e-05 -0.000106393 0 5.62121e-05 -0.000121458 0 4.46289e-05 -0.000135421 0 2.39769e-05 -0.000142039 0 2.02865e-05 0.000122864 0 3.30269e-05 0.000120009 0 3.97724e-05 0.000113882 0 3.97819e-05 0.000107994 0 3.35491e-05 0.000104341 0 1.95114e-05 0.000102434 0 9.75426e-07 9.01617e-05 0 -9.73853e-06 7.60018e-05 0 -1.71987e-05 6.34265e-05 0 -2.2797e-05 5.23017e-05 0 -2.71563e-05 4.24438e-05 0 -3.05942e-05 3.36496e-05 0 -3.32716e-05 2.573e-05 0 -3.52624e-05 1.8505e-05 0 -3.65922e-05 1.17993e-05 0 -3.72585e-05 5.43918e-06 0 -3.7242e-05 -7.50602e-07 0 -3.65106e-05 -6.95487e-06 0 -3.50193e-05 -1.33664e-05 0 -3.27071e-05 -2.0194e-05 0 -2.94891e-05 -2.76718e-05 0 -2.52452e-05 -3.60683e-05 0 -1.97965e-05 -4.56941e-05 0 -1.28597e-05 -5.69038e-05 0 -3.92899e-06 -7.0033e-05 0 8.15935e-06 -8.53532e-05 0 2.76314e-05 -9.93839e-05 0 4.17847e-05 -0.000103404 0 4.71024e-05 -0.000108964 0 4.54296e-05 -0.000115836 0 3.71575e-05 -0.000121691 0 2.39339e-05 -0.000123589 0 2.13791e-05 0.000110599 0 3.04875e-05 0.000111284 0 3.62266e-05 0.000110394 0 3.76978e-05 0.000109977 0 3.45673e-05 0.000112056 0 2.65436e-05 0.000119317 0 1.65436e-05 0.000101739 0 9.08102e-06 8.36172e-05 0 3.78708e-06 6.89509e-05 0 -1.56091e-07 5.65129e-05 0 -3.20694e-06 4.57412e-05 0 -5.60455e-06 3.62364e-05 0 -7.46607e-06 2.77035e-05 0 -8.84097e-06 1.99038e-05 0 -9.74174e-06 1.26295e-05 0 -1.0161e-05 5.68871e-06 0 -1.00806e-05 -1.10556e-06 0 -9.47622e-06 -7.94734e-06 0 -8.31788e-06 -1.50394e-05 0 -6.56852e-06 -2.2605e-05 0 -4.17921e-06 -3.09008e-05 0 -1.07929e-06 -4.02339e-05 0 2.84325e-06 -5.09841e-05 0 7.78233e-06 -6.36453e-05 0 1.40979e-05 -7.88576e-05 0 2.24517e-05 -9.78967e-05 0 3.30175e-05 -0.00011671 0 4.111e-05 -0.000110818 0 4.37716e-05 -0.000109942 0 4.14868e-05 -0.00011109 0 3.49848e-05 -0.000112147 0 2.55169e-05 -0.000111308 0 2.40943e-05 0.000101597 0 3.14995e-05 0.000104241 0 3.70528e-05 0.000106393 0 4.01597e-05 0.000109482 0 4.06358e-05 0.000115202 0 3.87723e-05 0.000125419 0 3.57269e-05 0.000107659 0 3.28397e-05 8.80602e-05 0 3.05162e-05 7.22777e-05 0 2.86589e-05 5.90902e-05 0 2.71401e-05 4.77878e-05 0 2.58913e-05 3.78607e-05 0 2.48903e-05 2.89497e-05 0 2.41411e-05 2.07811e-05 0 2.36605e-05 1.31291e-05 0 2.34696e-05 5.79329e-06 0 2.35892e-05 -1.4165e-06 0 2.4037e-05 -8.69527e-06 0 2.48262e-05 -1.62464e-05 0 2.59652e-05 -2.42953e-05 0 2.74583e-05 -3.31056e-05 0 2.93084e-05 -4.30002e-05 0 3.15239e-05 -5.43948e-05 0 3.41318e-05 -6.78548e-05 0 3.71868e-05 -8.41272e-05 0 4.06865e-05 -0.000104443 0 4.41181e-05 -0.000123095 0 4.6065e-05 -0.000113826 0 4.53727e-05 -0.000108951 0 4.18604e-05 -0.000106464 0 3.58964e-05 -0.000104641 0 2.82285e-05 -0.000102157 0 2.76959e-05 9.41541e-05 0 3.44591e-05 9.77749e-05 0 4.04169e-05 0.000101492 0 4.53328e-05 0.000106386 0 4.9237e-05 0.000113843 0 5.22845e-05 0.000125403 0 5.45294e-05 0.000108255 0 5.59877e-05 8.88005e-05 0 5.67984e-05 7.30292e-05 0 5.7158e-05 5.98255e-05 0 5.72337e-05 4.84828e-05 0 5.71507e-05 3.8483e-05 0 5.70025e-05 2.94623e-05 0 5.68598e-05 2.11473e-05 0 5.67767e-05 1.33159e-05 0 5.67925e-05 5.77364e-06 0 5.69333e-05 -1.66206e-06 0 5.72112e-05 -9.17688e-06 0 5.76233e-05 -1.69635e-05 0 5.81488e-05 -2.52353e-05 0 5.87452e-05 -3.42418e-05 0 5.93414e-05 -4.42904e-05 0 5.98289e-05 -5.57808e-05 0 6.0049e-05 -6.92628e-05 0 5.97839e-05 -8.54587e-05 0 5.87747e-05 -0.000105481 0 5.68227e-05 -0.000123297 0 5.38764e-05 -0.000112436 0 4.98913e-05 -0.000105618 0 4.47729e-05 -0.000101239 0 3.85814e-05 -9.78945e-05 0 3.16272e-05 -9.45482e-05 0 3.16178e-05 8.73816e-05 0 3.82379e-05 9.12772e-05 0 4.48303e-05 9.54658e-05 0 5.15036e-05 0.000100754 0 5.86545e-05 0.000108349 0 6.64972e-05 0.000120124 0 7.38626e-05 0.000104 0 7.95171e-05 8.59187e-05 0 8.32594e-05 7.12244e-05 0 8.56721e-05 5.87441e-05 0 8.72217e-05 4.78611e-05 0 8.82148e-05 3.8142e-05 0 8.88511e-05 2.92793e-05 0 8.9263e-05 2.10364e-05 0 8.9539e-05 1.32176e-05 0 8.97362e-05 5.64944e-06 0 8.98862e-05 -1.83185e-06 0 8.99968e-05 -9.39242e-06 0 9.00514e-05 -1.72034e-05 0 9.00041e-05 -2.54517e-05 0 8.97715e-05 -3.43525e-05 0 8.92179e-05 -4.41646e-05 0 8.81301e-05 -5.52176e-05 0 8.61765e-05 -6.79626e-05 0 8.28563e-05 -8.30215e-05 0 7.75484e-05 -0.000101561 0 7.04205e-05 -0.000118205 0 6.2689e-05 -0.00010697 0 5.55303e-05 -9.98858e-05 0 4.87627e-05 -9.50414e-05 0 4.20352e-05 -9.12193e-05 0 3.5277e-05 -8.763e-05 0 3.54602e-05 8.08729e-05 0 4.21013e-05 8.45368e-05 0 4.92418e-05 8.83965e-05 0 5.72647e-05 9.29135e-05 0 6.713e-05 9.8805e-05 0 8.10863e-05 0.000108024 0 9.66753e-05 9.45801e-05 0 0.00010616 7.98068e-05 0 0.000112203 6.72278e-05 0 0.000116225 5.60994e-05 0 0.000118961 4.60931e-05 0 0.000120844 3.69551e-05 0 0.00012214 2.8483e-05 0 0.000123022 2.05058e-05 0 0.000123602 1.28715e-05 0 0.00012395 5.43982e-06 0 0.000124101 -1.92516e-06 0 0.00012406 -9.36189e-06 0 0.0001238 -1.70112e-05 0 0.000123259 -2.50232e-05 0 0.000122325 -3.35623e-05 0 0.000120822 -4.28143e-05 0 0.000118471 -5.29945e-05 0 0.000114822 -6.43664e-05 0 0.000109117 -7.72587e-05 0 9.9912e-05 -9.24085e-05 0 8.45243e-05 -0.000106271 0 7.06818e-05 -9.74868e-05 0 6.08471e-05 -9.2016e-05 0 5.27891e-05 -8.78839e-05 0 4.55714e-05 -8.43648e-05 0 3.88312e-05 -8.10023e-05 0 3.889e-05 7.4498e-05 0 4.54896e-05 7.76273e-05 0 5.28169e-05 8.07042e-05 0 6.12843e-05 8.38025e-05 0 7.17879e-05 8.6745e-05 0 8.64222e-05 8.77232e-05 0 0.000102912 8.15252e-05 0 0.000113314 7.17125e-05 0 0.000120325 6.17981e-05 0 0.000125228 5.2351e-05 0 0.000128717 4.34669e-05 0 0.000131213 3.51088e-05 0 0.00013299 2.71967e-05 0 0.000134226 1.96356e-05 0 0.000135039 1.23254e-05 0 0.000135501 5.16486e-06 0 0.000135647 -1.94893e-06 0 0.000135482 -9.12208e-06 0 0.000134973 -1.64607e-05 0 0.000134051 -2.40726e-05 0 0.0001326 -3.2066e-05 0 0.000130434 -4.0545e-05 0 0.000127273 -4.95974e-05 0 0.000122683 -5.92645e-05 0 0.000115953 -6.94495e-05 0 0.000105786 -7.95775e-05 0 8.94719e-05 -8.61215e-05 0 7.4949e-05 -8.55022e-05 0 6.44947e-05 -8.29137e-05 0 5.60237e-05 -8.01501e-05 0 4.86532e-05 -7.73814e-05 0 4.19828e-05 -7.4534e-05 0 4.18121e-05 6.82859e-05 0 4.82311e-05 7.07685e-05 0 5.53878e-05 7.29615e-05 0 6.3537e-05 7.47092e-05 0 7.30094e-05 7.55366e-05 0 8.38049e-05 7.4432e-05 0 9.46617e-05 7.00885e-05 0 0.00010365 6.34612e-05 0 0.000110543 5.58438e-05 0 0.000115717 4.80228e-05 0 0.000119581 4.03086e-05 0 0.000122447 3.28148e-05 0 0.000124543 2.55595e-05 0 0.000126026 1.85151e-05 0 0.000127005 1.16308e-05 0 0.000127548 4.84387e-06 0 0.000127687 -1.91478e-06 0 0.000127425 -8.71831e-06 0 0.00012673 -1.5638e-05 0 0.000125536 -2.27407e-05 0 0.000123732 -3.00823e-05 0 0.000121157 -3.76959e-05 0 0.000117577 -4.55676e-05 0 0.000112668 -5.35859e-05 0 0.000106015 -6.14382e-05 0 9.72277e-05 -6.83334e-05 0 8.65269e-05 -7.29679e-05 0 7.58382e-05 -7.4375e-05 0 6.64244e-05 -7.38496e-05 0 5.82907e-05 -7.23936e-05 0 5.11134e-05 -7.0476e-05 0 4.46451e-05 -6.82503e-05 0 4.41262e-05 6.23188e-05 0 5.02249e-05 6.4182e-05 0 5.6944e-05 6.56145e-05 0 6.43747e-05 6.64166e-05 0 7.25395e-05 6.62293e-05 0 8.11943e-05 6.45465e-05 0 8.9628e-05 6.10751e-05 0 9.718e-05 5.60425e-05 0 0.00010345 5.00288e-05 0 0.000108459 4.35528e-05 0 0.000112374 3.6913e-05 0 0.000115377 3.02736e-05 0 0.000117628 2.3707e-05 0 0.000119247 1.72323e-05 0 0.000120323 1.0838e-05 0 0.000120913 4.49468e-06 0 0.000121044 -1.83634e-06 0 0.000120716 -8.19801e-06 0 0.000119904 -1.46304e-05 0 0.000118548 -2.11653e-05 0 0.000116561 -2.78176e-05 0 0.000113816 -3.45711e-05 0 0.00011015 -4.13556e-05 0 0.000105372 -4.80076e-05 0 9.93098e-05 -5.42262e-05 0 9.19343e-05 -5.94889e-05 0 8.36408e-05 -6.32086e-05 0 7.50872e-05 -6.51497e-05 0 6.69848e-05 -6.55972e-05 0 5.95803e-05 -6.50499e-05 0 5.28555e-05 -6.38619e-05 0 4.67235e-05 -6.22298e-05 0 4.59e-05 5.66726e-05 0 5.16014e-05 5.80124e-05 0 5.77801e-05 5.88723e-05 0 6.44348e-05 5.90845e-05 0 7.14886e-05 5.84226e-05 0 7.87192e-05 5.66493e-05 0 8.57544e-05 5.36634e-05 0 9.21879e-05 4.95739e-05 0 9.77703e-05 4.46551e-05 0 0.000102428 3.92237e-05 0 0.000106204 3.35042e-05 0 0.000109186 2.76524e-05 0 0.00011147 2.17586e-05 0 0.000113138 1.58673e-05 0 0.000114255 9.99342e-06 0 0.000114863 4.13315e-06 0 0.000114985 -1.72754e-06 0 0.00011462 -7.6065e-06 0 0.000113746 -1.35185e-05 0 0.000112319 -1.94688e-05 0 0.000110274 -2.54443e-05 0 0.000107523 -3.14022e-05 0 0.000103967 -3.72531e-05 0 9.95135e-05 -4.28409e-05 0 9.41143e-05 -4.7939e-05 0 8.78378e-05 -5.22278e-05 0 8.09298e-05 -5.54276e-05 0 7.37947e-05 -5.74236e-05 0 6.68041e-05 -5.8311e-05 0 6.01821e-05 -5.83218e-05 0 5.40077e-05 -5.76781e-05 0 4.82854e-05 -5.65447e-05 0 4.72491e-05 5.13871e-05 0 5.25301e-05 5.23134e-05 0 5.81616e-05 5.2767e-05 0 6.40996e-05 5.26241e-05 0 7.0246e-05 5.17463e-05 0 7.64282e-05 5.00139e-05 0 8.2418e-05 4.73861e-05 0 8.79753e-05 4.393e-05 0 9.29264e-05 3.97909e-05 0 9.71831e-05 3.51671e-05 0 0.000100731 3.02157e-05 0 0.0001036 2.50649e-05 0 0.000105838 1.98021e-05 0 0.000107495 1.44816e-05 0 0.000108612 9.13352e-06 0 0.000109219 3.77148e-06 0 0.000109332 -1.60018e-06 0 0.000108949 -6.98034e-06 0 0.000108056 -1.2365e-05 0 0.000106619 -1.77413e-05 0 0.000104597 -2.30803e-05 0 0.000101936 -2.83282e-05 0 9.85848e-05 -3.33978e-05 0 9.45102e-05 -3.81603e-05 0 8.97226e-05 -4.24567e-05 0 8.43064e-05 -4.60862e-05 0 7.84329e-05 -4.88994e-05 0 7.23405e-05 -5.0825e-05 0 6.62569e-05 -5.18993e-05 0 6.03553e-05 -5.22376e-05 0 5.47356e-05 -5.19749e-05 0 4.94434e-05 -5.12323e-05 0 4.81898e-05 4.64715e-05 0 5.30625e-05 4.70827e-05 0 5.8189e-05 4.72557e-05 0 6.35138e-05 4.69023e-05 0 6.89457e-05 4.59364e-05 0 7.4354e-05 4.42923e-05 0 7.95787e-05 4.19553e-05 0 8.44614e-05 3.89677e-05 0 8.88743e-05 3.5416e-05 0 9.27378e-05 3.14303e-05 0 9.60187e-05 2.71194e-05 0 9.87174e-05 2.25834e-05 0 0.000100853 1.78988e-05 0 0.00010245 1.31207e-05 0 0.000103534 8.2859e-06 0 0.000104124 3.41882e-06 0 0.000104228 -1.46393e-06 0 0.000103846 -6.34804e-06 0 0.000102967 -1.1217e-05 0 0.000101571 -1.60469e-05 0 9.96321e-05 -2.08011e-05 0 9.7122e-05 -2.5425e-05 0 9.40189e-05 -2.98416e-05 0 9.03197e-05 -3.39501e-05 0 8.60545e-05 -3.76399e-05 0 8.13002e-05 -4.07788e-05 0 7.61827e-05 -4.32773e-05 0 7.08589e-05 -4.50897e-05 0 6.54884e-05 -4.62272e-05 0 6.02022e-05 -4.6752e-05 0 5.50925e-05 -4.67475e-05 0 5.02161e-05 -4.62992e-05 0 4.88646e-05 4.19126e-05 0 5.33567e-05 4.22887e-05 0 5.80287e-05 4.22707e-05 0 6.28245e-05 4.17963e-05 0 6.76653e-05 4.081e-05 0 7.24498e-05 3.92737e-05 0 7.70632e-05 3.71831e-05 0 8.1392e-05 3.45674e-05 0 8.53403e-05 3.14815e-05 0 8.88402e-05 2.80149e-05 0 9.18526e-05 2.42443e-05 0 9.43623e-05 2.02466e-05 0 9.63703e-05 1.60862e-05 0 9.78856e-05 1.18142e-05 0 9.89198e-05 7.46924e-06 0 9.94823e-05 3.08122e-06 0 9.95781e-05 -1.32587e-06 0 9.92065e-05 -5.72957e-06 0 9.83611e-05 -1.01058e-05 0 9.70308e-05 -1.44251e-05 0 9.52022e-05 -1.86485e-05 0 9.28641e-05 -2.27249e-05 0 9.00133e-05 -2.65896e-05 0 8.66627e-05 -3.01646e-05 0 8.28488e-05 -3.33718e-05 0 7.86377e-05 -3.61199e-05 0 7.41236e-05 -3.83515e-05 0 6.94188e-05 -4.00347e-05 0 6.46378e-05 -4.1171e-05 0 5.98818e-05 -4.17959e-05 0 5.52303e-05 -4.19623e-05 0 5.07405e-05 -4.17304e-05 0 4.93233e-05 3.76855e-05 0 5.34703e-05 3.78892e-05 0 5.77421e-05 3.77445e-05 0 6.20868e-05 3.72066e-05 0 6.64374e-05 3.62388e-05 0 7.07142e-05 3.48176e-05 0 7.48306e-05 3.29431e-05 0 7.87015e-05 3.06364e-05 0 8.22526e-05 2.79347e-05 0 8.54262e-05 2.49021e-05 0 8.81833e-05 2.1594e-05 0 9.05019e-05 1.80699e-05 0 9.23724e-05 1.4383e-05 0 9.37936e-05 1.05785e-05 0 9.47678e-05 6.69436e-06 0 9.52982e-05 2.76208e-06 0 9.53866e-05 -1.19069e-06 0 9.50322e-05 -5.1372e-06 0 9.42317e-05 -9.04972e-06 0 9.29806e-05 -1.28966e-05 0 9.12744e-05 -1.66401e-05 0 8.91129e-05 -2.02344e-05 0 8.65036e-05 -2.36257e-05 0 8.34665e-05 -2.67538e-05 0 8.00388e-05 -2.9562e-05 0 7.62764e-05 -3.19844e-05 0 7.22524e-05 -3.39821e-05 0 6.8051e-05 -3.55317e-05 0 6.37584e-05 -3.66308e-05 0 5.94542e-05 -3.73006e-05 0 5.52057e-05 -3.7576e-05 0 5.10656e-05 -3.74997e-05 0 4.96052e-05 3.37593e-05 0 5.34476e-05 3.38385e-05 0 5.73747e-05 3.36125e-05 0 6.13399e-05 3.3049e-05 0 6.52865e-05 3.21227e-05 0 6.91501e-05 3.08185e-05 0 7.28623e-05 2.91384e-05 0 7.63562e-05 2.70982e-05 0 7.95719e-05 2.47241e-05 0 8.24602e-05 2.2064e-05 0 8.49848e-05 1.91586e-05 0 8.71213e-05 1.60546e-05 0 8.8855e-05 1.27956e-05 0 9.01787e-05 9.42129e-06 0 9.10891e-05 5.96666e-06 0 9.15854e-05 2.46291e-06 0 9.16671e-05 -1.06135e-06 0 9.13335e-05 -4.57787e-06 0 9.05835e-05 -8.05789e-06 0 8.94166e-05 -1.14701e-05 0 8.78344e-05 -1.47793e-05 0 8.58425e-05 -1.79455e-05 0 8.34539e-05 -2.09243e-05 0 8.06914e-05 -2.36683e-05 0 7.75897e-05 -2.61356e-05 0 7.41966e-05 -2.8277e-05 0 7.0571e-05 -3.00646e-05 0 6.6779e-05 -3.14809e-05 0 6.28886e-05 -3.2522e-05 0 5.8964e-05 -3.32011e-05 0 5.50623e-05 -3.35418e-05 0 5.12305e-05 -3.35748e-05 0 4.97738e-05 3.01022e-05 0 5.33454e-05 3.00936e-05 0 5.6971e-05 2.98196e-05 0 6.06092e-05 2.92563e-05 0 6.4212e-05 2.83859e-05 0 6.77262e-05 2.71984e-05 0 7.10968e-05 2.56964e-05 0 7.42696e-05 2.38921e-05 0 7.71953e-05 2.18047e-05 0 7.9832e-05 1.94708e-05 0 8.21464e-05 1.69215e-05 0 8.41139e-05 1.41934e-05 0 8.57174e-05 1.13227e-05 0 8.69461e-05 8.34343e-06 0 8.77935e-05 5.28734e-06 0 8.8256e-05 2.18378e-06 0 8.83317e-05 -9.39369e-07 0 8.80199e-05 -4.05426e-06 0 8.7321e-05 -7.13288e-06 0 8.62373e-05 -1.01457e-05 0 8.47739e-05 -1.30607e-05 0 8.29402e-05 -1.58435e-05 0 8.07516e-05 -1.84573e-05 0 7.82313e-05 -2.08646e-05 0 7.54115e-05 -2.30333e-05 0 7.23328e-05 -2.49258e-05 0 6.90438e-05 -2.65216e-05 0 6.55977e-05 -2.78067e-05 0 6.20494e-05 -2.87773e-05 0 5.84518e-05 -2.94416e-05 0 5.48531e-05 -2.9816e-05 0 5.12951e-05 -2.99231e-05 0 4.98484e-05 2.66833e-05 0 5.3185e-05 2.66153e-05 0 5.65527e-05 2.63178e-05 0 5.99148e-05 2.57729e-05 0 6.32299e-05 2.49678e-05 0 6.64536e-05 2.38956e-05 0 6.95398e-05 2.25591e-05 0 7.24438e-05 2.09679e-05 0 7.51241e-05 1.91365e-05 0 7.75442e-05 1.70936e-05 0 7.9674e-05 1.48631e-05 0 8.14899e-05 1.24745e-05 0 8.29742e-05 9.95772e-06 0 8.41145e-05 7.34184e-06 0 8.49025e-05 4.65493e-06 0 8.53331e-05 1.92387e-06 0 8.54035e-05 -8.2531e-07 0 8.5113e-05 -3.56635e-06 0 8.44632e-05 -6.27306e-06 0 8.34577e-05 -8.9184e-06 0 8.21036e-05 -1.1474e-05 0 8.0412e-05 -1.39104e-05 0 7.83992e-05 -1.61971e-05 0 7.60877e-05 -1.83039e-05 0 7.35065e-05 -2.02061e-05 0 7.0691e-05 -2.18739e-05 0 6.76818e-05 -2.32917e-05 0 6.45233e-05 -2.44487e-05 0 6.1261e-05 -2.53409e-05 0 5.79393e-05 -2.59737e-05 0 5.45997e-05 -2.63587e-05 0 5.1279e-05 -2.65128e-05 0 4.986e-05 2.34724e-05 0 5.29929e-05 2.33668e-05 0 5.61394e-05 2.30641e-05 0 5.92667e-05 2.25506e-05 0 6.23391e-05 2.18169e-05 0 6.53183e-05 2.08583e-05 0 6.81654e-05 1.96774e-05 0 7.08423e-05 1.8282e-05 0 7.33135e-05 1.66831e-05 0 7.55471e-05 1.49037e-05 0 7.75159e-05 1.29626e-05 0 7.91977e-05 1.08836e-05 0 8.05751e-05 8.6914e-06 0 8.16352e-05 6.41078e-06 0 8.23688e-05 4.06622e-06 0 8.277e-05 1.68172e-06 0 8.28358e-05 -7.19106e-07 0 8.25654e-05 -3.11231e-06 0 8.19609e-05 -5.47411e-06 0 8.10267e-05 -7.78036e-06 0 7.9771e-05 -1.00063e-05 0 7.82054e-05 -1.21268e-05 0 7.63462e-05 -1.41166e-05 0 7.42145e-05 -1.59513e-05 0 7.18364e-05 -1.76112e-05 0 6.9243e-05 -1.90728e-05 0 6.64692e-05 -2.03239e-05 0 6.35525e-05 -2.13558e-05 0 6.05315e-05 -2.21647e-05 0 5.74442e-05 -2.27543e-05 0 5.43266e-05 -2.31329e-05 0 5.12114e-05 -2.33132e-05 0 4.98315e-05 2.04426e-05 0 5.27874e-05 2.03164e-05 0 5.57429e-05 2.00223e-05 0 5.86691e-05 1.95496e-05 0 6.15343e-05 1.88915e-05 0 6.43055e-05 1.80447e-05 0 6.6949e-05 1.70115e-05 0 6.94322e-05 1.57983e-05 0 7.1724e-05 1.44136e-05 0 7.37964e-05 1.2876e-05 0 7.56247e-05 1.12003e-05 0 7.71884e-05 9.406e-06 0 7.84708e-05 7.51338e-06 0 7.9459e-05 5.54342e-06 0 8.01436e-05 3.51718e-06 0 8.05185e-05 1.45564e-06 0 8.05802e-05 -6.203e-07 0 8.03282e-05 -2.68934e-06 0 7.97646e-05 -4.73044e-06 0 7.88947e-05 -6.72247e-06 0 7.77265e-05 -8.6441e-06 0 7.6272e-05 -1.04741e-05 0 7.45467e-05 -1.21915e-05 0 7.25703e-05 -1.37766e-05 0 7.03666e-05 -1.52136e-05 0 6.79627e-05 -1.64835e-05 0 6.53891e-05 -1.75769e-05 0 6.2678e-05 -1.84865e-05 0 5.98629e-05 -1.9209e-05 0 5.69764e-05 -1.9747e-05 0 5.40503e-05 -2.01064e-05 0 5.11138e-05 -2.02968e-05 0 4.97735e-05 1.75681e-05 0 5.25814e-05 1.74348e-05 0 5.53788e-05 1.71597e-05 0 5.81392e-05 1.67349e-05 0 6.08345e-05 1.61553e-05 0 6.34355e-05 1.54185e-05 0 6.59125e-05 1.45266e-05 0 6.82368e-05 1.34848e-05 0 7.03808e-05 1.22998e-05 0 7.23195e-05 1.09866e-05 0 7.40305e-05 9.55696e-06 0 7.54947e-05 8.02671e-06 0 7.66964e-05 6.41262e-06 0 7.76231e-05 4.73217e-06 0 7.82656e-05 3.0032e-06 0 7.86177e-05 1.24372e-06 0 7.8676e-05 -5.28194e-07 0 7.84399e-05 -2.29406e-06 0 7.79118e-05 -4.03566e-06 0 7.70968e-05 -5.73487e-06 0 7.60032e-05 -7.37361e-06 0 7.46423e-05 -8.93408e-06 0 7.30289e-05 -1.03991e-05 0 7.11814e-05 -1.17526e-05 0 6.91212e-05 -1.29819e-05 0 6.68727e-05 -1.40718e-05 0 6.44628e-05 -1.50146e-05 0 6.192e-05 -1.58046e-05 0 5.92735e-05 -1.64388e-05 0 5.65525e-05 -1.6919e-05 0 5.3785e-05 -1.72494e-05 0 5.09975e-05 -1.74375e-05 0 4.9703e-05 1.48254e-05 0 5.23854e-05 1.46951e-05 0 5.5049e-05 1.44472e-05 0 5.76699e-05 1.40756e-05 0 6.02225e-05 1.35764e-05 0 6.26808e-05 1.2948e-05 0 6.50183e-05 1.21922e-05 0 6.72091e-05 1.13132e-05 0 6.92287e-05 1.03163e-05 0 7.10544e-05 9.21354e-06 0 7.26658e-05 8.0143e-06 0 7.40452e-05 6.73127e-06 0 7.51778e-05 5.37813e-06 0 7.60516e-05 3.96926e-06 0 7.66578e-05 2.51952e-06 0 7.69902e-05 1.04402e-06 0 7.70455e-05 -4.41969e-07 0 7.68233e-05 -1.9228e-06 0 7.63259e-05 -3.3831e-06 0 7.55583e-05 -4.80763e-06 0 7.45285e-05 -6.18135e-06 0 7.32474e-05 -7.4896e-06 0 7.17291e-05 -8.7184e-06 0 6.99904e-05 -9.8547e-06 0 6.8051e-05 -1.08885e-05 0 6.59329e-05 -1.18075e-05 0 6.36603e-05 -1.26057e-05 0 6.12585e-05 -1.32784e-05 0 5.87536e-05 -1.38232e-05 0 5.61717e-05 -1.4241e-05 0 5.35383e-05 -1.45352e-05 0 5.08773e-05 -1.47113e-05 0 4.96288e-05 1.2193e-05 0 5.22075e-05 1.20737e-05 0 5.47612e-05 1.18591e-05 0 5.72677e-05 1.15445e-05 0 5.97038e-05 1.11271e-05 0 6.20455e-05 1.06057e-05 0 6.42691e-05 9.9818e-06 0 6.63509e-05 9.25879e-06 0 6.82687e-05 8.44083e-06 0 7.00016e-05 7.53735e-06 0 7.1531e-05 6.55579e-06 0 7.28402e-05 5.5062e-06 0 7.39153e-05 4.39948e-06 0 7.47451e-05 3.24724e-06 0 7.53209e-05 2.06152e-06 0 7.56369e-05 8.54672e-07 0 7.56898e-05 -3.60776e-07 0 7.54793e-05 -1.57197e-06 0 7.50074e-05 -2.7663e-06 0 7.42793e-05 -3.9313e-06 0 7.33025e-05 -5.05477e-06 0 7.20876e-05 -6.1249e-06 0 7.06476e-05 -7.13052e-06 0 6.89982e-05 -8.06127e-06 0 6.71577e-05 -8.90929e-06 0 6.51461e-05 -9.66484e-06 0 6.29855e-05 -1.03232e-05 0 6.06987e-05 -1.08807e-05 0 5.83095e-05 -1.13352e-05 0 5.58417e-05 -1.16874e-05 0 5.33184e-05 -1.19398e-05 0 5.07618e-05 -1.20964e-05 0 4.95589e-05 9.64986e-06 0 5.20559e-05 9.54779e-06 0 5.45232e-05 9.37112e-06 0 5.69401e-05 9.11647e-06 0 5.92851e-05 8.78172e-06 0 6.15359e-05 8.36608e-06 0 6.36705e-05 7.87079e-06 0 6.56672e-05 7.29842e-06 0 6.75053e-05 6.65216e-06 0 6.91655e-05 5.93925e-06 0 7.06303e-05 5.16536e-06 0 7.18841e-05 4.33824e-06 0 7.29139e-05 3.46631e-06 0 7.37087e-05 2.55859e-06 0 7.42604e-05 1.62452e-06 0 7.45633e-05 6.73786e-07 0 7.46144e-05 -2.83724e-07 0 7.44131e-05 -1.23787e-06 0 7.39616e-05 -2.1787e-06 0 7.32648e-05 -3.09644e-06 0 7.233e-05 -3.98152e-06 0 7.11671e-05 -4.82476e-06 0 6.97887e-05 -5.61752e-06 0 6.82094e-05 -6.35183e-06 0 6.64462e-05 -7.02167e-06 0 6.45179e-05 -7.61956e-06 0 6.24446e-05 -8.14193e-06 0 6.02476e-05 -8.58586e-06 0 5.79489e-05 -8.94972e-06 0 5.55703e-05 -9.23394e-06 0 5.31335e-05 -9.44026e-06 0 5.06591e-05 -9.57169e-06 0 4.94982e-05 7.17703e-06 0 5.19315e-05 7.09674e-06 0 5.43317e-05 6.96146e-06 0 5.66792e-05 6.76881e-06 0 5.89535e-05 6.51733e-06 0 6.11339e-05 6.20648e-06 0 6.31996e-05 5.8372e-06 0 6.51303e-05 5.41136e-06 0 6.69066e-05 4.93129e-06 0 6.85104e-05 4.40223e-06 0 6.9925e-05 3.82832e-06 0 7.11357e-05 3.21517e-06 0 7.21301e-05 2.56895e-06 0 7.28976e-05 1.89627e-06 0 7.34305e-05 1.2041e-06 0 7.37231e-05 4.99581e-07 0 7.37727e-05 -2.09956e-07 0 7.35786e-05 -9.16995e-07 0 7.31431e-05 -1.61417e-06 0 7.24708e-05 -2.29424e-06 0 7.15687e-05 -2.95018e-06 0 7.04465e-05 -3.57524e-06 0 6.91159e-05 -4.1631e-06 0 6.7591e-05 -4.70795e-06 0 6.58878e-05 -5.20544e-06 0 6.40238e-05 -5.65012e-06 0 6.20182e-05 -6.03941e-06 0 5.98908e-05 -6.37116e-06 0 5.76621e-05 -6.64415e-06 0 5.53528e-05 -6.85866e-06 0 5.29831e-05 -7.01587e-06 0 5.05728e-05 -7.11789e-06 0 4.94526e-05 4.75627e-06 0 5.18418e-05 4.70102e-06 0 5.41957e-05 4.60956e-06 0 5.64953e-05 4.48037e-06 0 5.8721e-05 4.31254e-06 0 6.0853e-05 4.10572e-06 0 6.28713e-05 3.86056e-06 0 6.47567e-05 3.57827e-06 0 6.64905e-05 3.26038e-06 0 6.80554e-05 2.9103e-06 0 6.94354e-05 2.53073e-06 0 7.06163e-05 2.12533e-06 0 7.15861e-05 1.69814e-06 0 7.23348e-05 1.25351e-06 0 7.28546e-05 7.95997e-07 0 7.31402e-05 3.3034e-07 0 7.31887e-05 -1.38632e-07 0 7.29997e-05 -6.05953e-07 0 7.25752e-05 -1.06676e-06 0 7.19198e-05 -1.51628e-06 0 7.10404e-05 -1.94987e-06 0 6.99462e-05 -2.36313e-06 0 6.86486e-05 -2.7519e-06 0 6.71612e-05 -3.11239e-06 0 6.54992e-05 -3.44177e-06 0 6.36796e-05 -3.73648e-06 0 6.17205e-05 -3.99483e-06 0 5.96409e-05 -4.21543e-06 0 5.74604e-05 -4.39746e-06 0 5.51988e-05 -4.54107e-06 0 5.28755e-05 -4.64701e-06 0 5.05095e-05 -4.71661e-06 0 4.94241e-05 2.36958e-06 0 5.17872e-05 2.34143e-06 0 5.41136e-05 2.29533e-06 0 5.63848e-05 2.23051e-06 0 5.85818e-05 2.14654e-06 0 6.0685e-05 2.04326e-06 0 6.26753e-05 1.92098e-06 0 6.45339e-05 1.78033e-06 0 6.62425e-05 1.62202e-06 0 6.77843e-05 1.44777e-06 0 6.91437e-05 1.2589e-06 0 7.0307e-05 1.05721e-06 0 7.12622e-05 8.44703e-07 0 7.19997e-05 6.23534e-07 0 7.25117e-05 3.95968e-07 0 7.2793e-05 1.64352e-07 0 7.28409e-05 -6.89123e-08 0 7.26549e-05 -3.01355e-07 0 7.22371e-05 -5.30559e-07 0 7.15918e-05 -7.54154e-07 0 7.07258e-05 -9.69842e-07 0 6.96482e-05 -1.17543e-06 0 6.83702e-05 -1.36888e-06 0 6.6905e-05 -1.5483e-06 0 6.52675e-05 -1.71231e-06 0 6.34741e-05 -1.85914e-06 0 6.15425e-05 -1.98796e-06 0 5.94912e-05 -2.09809e-06 0 5.73393e-05 -2.18911e-06 0 5.51059e-05 -2.2611e-06 0 5.28101e-05 -2.3144e-06 0 5.04704e-05 -2.34967e-06 0 4.94131e-05 -0 0 5.17664e-05 -1.0125e-18 0 5.40825e-05 -0 0 5.6343e-05 -0 0 5.85291e-05 -0 0 6.06216e-05 1.33391e-18 0 6.26014e-05 2.14274e-18 0 6.44498e-05 -0 0 6.6149e-05 6.46905e-19 0 6.76821e-05 -0 0 6.90338e-05 -3.79754e-19 0 7.01905e-05 -0 0 7.11403e-05 -1.04358e-18 0 7.18734e-05 -0 0 7.23825e-05 -1.32725e-19 0 7.26623e-05 -0 0 7.27099e-05 1.28881e-18 0 7.25251e-05 -0 0 7.21097e-05 -2.20374e-19 0 7.14682e-05 1.04839e-18 0 7.06073e-05 -0 0 6.9536e-05 -0 0 6.82653e-05 -0 0 6.68085e-05 -0 0 6.51801e-05 -0 0 6.33966e-05 -2.63495e-18 0 6.14753e-05 -1.3527e-18 0 5.94347e-05 -0 0 5.72935e-05 4.34234e-18 0 5.50707e-05 -0 0 5.27853e-05 1.03243e-18 0 5.04555e-05 -0 0 </DataArray> 
</PointData> 
<Points> 
<DataArray type="Float32" NumberOfComponents="3"> 