<?xml version="1.0"?> 
<VTKFile type="StructuredGrid" version="0.1"> 
<StructuredGrid WholeExtent="0 31 0 31 0 0"> 
<Piece Extent="0 31 0 31 0 0"> 
<PointData>
<DataArray type="Float32" Name="B" format="ascii" NumberOfComponents="3"> 
-0.00842369 0.0027296 0 -0.000115564 -2.01723e-05 0 -5.80927e-05 -6.39744e-06 0 -4.0296e-05 6.53802e-08 0 -3.1548e-05 3.40633e-06 0 -2.62201e-05 5.20257e-06 0 -2.2538e-05 6.1315e-06 0 -1.97702e-05 6.53719e-06 0 -1.75631e-05 6.61503e-06 0 -1.57261e-05 6.49916e-06 0 -1.41517e-05 6.26399e-06 0 -1.27723e-05 5.95591e-06 0 -1.15456e-05 5.61746e-06 0 -1.04431e-05 5.26759e-06 0 -9.444e-06 4.92148e-06 0 -8.53337e-06 4.5871e-06 0 -7.69936e-06 4.27317e-06 0 -6.93231e-06 3.97955e-06 0 -6.22435e-06 3.70864e-06 0 -5.56845e-06 3.46302e-06 0 -4.95857e-06 3.23923e-06 0 -4.38935e-06 3.03968e-06 0 -3.85574e-06 2.86245e-06 0 -3.35332e-06 2.70517e-06 0 -2.87786e-06 2.57102e-06 0 -2.42544e-06 2.45532e-06 0 -1.99242e-06 2.35852e-06 0 -1.57525e-06 2.2813e-06 0 -1.17062e-06 2.22063e-06 0 -7.75304e-07 2.17841e-06 0 -3.86111e-07 2.15323e-06 0 0 2.14373e-06 0 0.000116002 -0.000553612 0 -9.58707e-05 -5.52334e-05 0 -5.35465e-05 -1.48127e-05 0 -3.83733e-05 -3.61477e-06 0 -3.05733e-05 1.30857e-06 0 -2.57062e-05 3.81141e-06 0 -2.2282e-05 5.11429e-06 0 -1.96681e-05 5.74086e-06 0 -1.75549e-05 5.95968e-06 0 -1.57751e-05 5.94197e-06 0 -1.42342e-05 5.7789e-06 0 -1.28731e-05 5.52527e-06 0 -1.16547e-05 5.23134e-06 0 -1.05541e-05 4.91814e-06 0 -9.55281e-06 4.60319e-06 0 -8.63745e-06 4.29606e-06 0 -7.79718e-06 4.00562e-06 0 -7.02304e-06 3.73286e-06 0 -6.3076e-06 3.48045e-06 0 -5.64412e-06 3.25107e-06 0 -5.02676e-06 3.04177e-06 0 -4.45022e-06 2.85492e-06 0 -3.90955e-06 2.68883e-06 0 -3.40033e-06 2.54135e-06 0 -2.91834e-06 2.41548e-06 0 -2.45962e-06 2.3069e-06 0 -2.02055e-06 2.21602e-06 0 -1.59752e-06 2.14352e-06 0 -1.18717e-06 2.08655e-06 0 -7.86273e-07 2.0469e-06 0 -3.91575e-07 2.02324e-06 0 0 2.01432e-06 0 0.000115117 -0.000213369 0 -6.33965e-05 -6.93801e-05 0 -4.66552e-05 -2.10246e-05 0 -3.57301e-05 -6.69528e-06 0 -2.9296e-05 -5.40251e-07 0 -2.50396e-05 2.54808e-06 0 -2.1939e-05 4.17e-06 0 -1.95117e-05 4.9882e-06 0 -1.75104e-05 5.33095e-06 0 -1.57979e-05 5.40071e-06 0 -1.42968e-05 5.30288e-06 0 -1.29581e-05 5.09942e-06 0 -1.17508e-05 4.84717e-06 0 -1.06541e-05 4.56883e-06 0 -9.65212e-06 4.28392e-06 0 -8.7332e-06 4.00331e-06 0 -7.88766e-06 3.73596e-06 0 -7.10728e-06 3.48385e-06 0 -6.38509e-06 3.24985e-06 0 -5.71469e-06 3.03669e-06 0 -5.09042e-06 2.84193e-06 0 -4.50712e-06 2.66784e-06 0 -3.95988e-06 2.51297e-06 0 -3.44432e-06 2.37537e-06 0 -2.95622e-06 2.25788e-06 0 -2.49164e-06 2.15649e-06 0 -2.04689e-06 2.07161e-06 0 -1.61837e-06 2.00387e-06 0 -1.20268e-06 1.95065e-06 0 -7.96551e-07 1.91359e-06 0 -3.96695e-07 1.89148e-06 0 0 1.88315e-06 0 7.71101e-05 -0.000105621 0 -3.62169e-05 -6.59022e-05 0 -3.88077e-05 -2.44085e-05 0 -3.26142e-05 -8.99344e-06 0 -2.77892e-05 -2.07543e-06 0 -2.42497e-05 1.44028e-06 0 -2.15234e-05 3.31211e-06 0 -1.93092e-05 4.28635e-06 0 -1.74342e-05 4.73292e-06 0 -1.57977e-05 4.87779e-06 0 -1.43416e-05 4.83744e-06 0 -1.30286e-05 4.67938e-06 0 -1.18348e-05 4.46564e-06 0 -1.07436e-05 4.2202e-06 0 -9.74224e-06 3.96408e-06 0 -8.82084e-06 3.7092e-06 0 -7.97092e-06 3.4645e-06 0 -7.18506e-06 3.23279e-06 0 -6.45683e-06 3.01706e-06 0 -5.78014e-06 2.82011e-06 0 -5.14954e-06 2.6399e-06 0 -4.56e-06 2.47863e-06 0 -4.00669e-06 2.33505e-06 0 -3.48526e-06 2.2074e-06 0 -2.9915e-06 2.09835e-06 0 -2.52145e-06 2.00422e-06 0 -2.07144e-06 1.9254e-06 0 -1.6378e-06 1.86248e-06 0 -1.21714e-06 1.81304e-06 0 -8.06129e-07 1.77862e-06 0 -4.01466e-07 1.75808e-06 0 -8.98663e-20 1.75033e-06 0 5.11116e-05 -6.30982e-05 0 -1.91446e-05 -5.56374e-05 0 -3.12876e-05 -2.52286e-05 0 -2.93074e-05 -1.04527e-05 0 -2.61399e-05 -3.26044e-06 0 -2.33714e-05 5.06953e-07 0 -2.10522e-05 2.55066e-06 0 -1.90697e-05 3.64086e-06 0 -1.73318e-05 4.16879e-06 0 -1.57778e-05 4.37516e-06 0 -1.43706e-05 4.38378e-06 0 -1.30859e-05 4.26597e-06 0 -1.19074e-05 4.08734e-06 0 -1.08231e-05 3.87268e-06 0 -9.8235e-06 3.64402e-06 0 -8.90054e-06 3.41402e-06 0 -8.04706e-06 3.19149e-06 0 -7.25647e-06 2.97989e-06 0 -6.52285e-06 2.78231e-06 0 -5.84048e-06 2.60151e-06 0 -5.20412e-06 2.43585e-06 0 -4.60887e-06 2.28744e-06 0 -4.04998e-06 2.15521e-06 0 -3.52313e-06 2.03758e-06 0 -3.02415e-06 1.93705e-06 0 -2.54905e-06 1.85024e-06 0 -2.09416e-06 1.77752e-06 0 -1.65579e-06 1.71948e-06 0 -1.23052e-06 1.67385e-06 0 -8.14999e-07 1.64209e-06 0 -4.05885e-07 1.62313e-06 0 0 1.61599e-06 0 3.51762e-05 -4.26963e-05 0 -9.72118e-06 -4.49059e-05 0 -2.48512e-05 -2.42183e-05 0 -2.6062e-05 -1.11289e-05 0 -2.4437e-05 -4.08817e-06 0 -2.24424e-05 -2.42634e-07 0 -2.05438e-05 1.8918e-06 0 -1.88034e-05 3.05543e-06 0 -1.72092e-05 3.64081e-06 0 -1.57416e-05 3.89417e-06 0 -1.43861e-05 3.94279e-06 0 -1.31314e-05 3.8598e-06 0 -1.19695e-05 3.71273e-06 0 -1.08932e-05 3.52664e-06 0 -9.89624e-06 3.32406e-06 0 -8.97252e-06 3.11806e-06 0 -8.11619e-06 2.91718e-06 0 -7.32154e-06 2.7254e-06 0 -6.58316e-06 2.5458e-06 0 -5.89569e-06 2.3811e-06 0 -5.25412e-06 2.22998e-06 0 -4.65368e-06 2.09446e-06 0 -4.08969e-06 1.97361e-06 0 -3.5579e-06 1.86606e-06 0 -3.05413e-06 1.7741e-06 0 -2.57441e-06 1.69467e-06 0 -2.11504e-06 1.62812e-06 0 -1.67233e-06 1.57498e-06 0 -1.24282e-06 1.53321e-06 0 -8.23153e-07 1.50413e-06 0 -4.09947e-07 1.48677e-06 0 0 1.48023e-06 0 2.52877e-05 -3.12755e-05 0 -4.79243e-06 -3.5773e-05 0 -1.97227e-05 -2.21391e-05 0 -2.30599e-05 -1.11488e-05 0 -2.27606e-05 -4.57669e-06 0 -2.14998e-05 -8.08623e-07 0 -2.00174e-05 1.33765e-06 0 -1.85209e-05 2.53182e-06 0 -1.70725e-05 3.15015e-06 0 -1.56931e-05 3.4356e-06 0 -1.43903e-05 3.51499e-06 0 -1.31667e-05 3.46127e-06 0 -1.20221e-05 3.34213e-06 0 -1.09545e-05 3.18235e-06 0 -9.96085e-06 3.00444e-06 0 -9.03701e-06 2.82153e-06 0 -8.17848e-06 2.6418e-06 0 -7.38037e-06 2.46952e-06 0 -6.63782e-06 2.30772e-06 0 -5.94581e-06 2.15904e-06 0 -5.29956e-06 2.02246e-06 0 -4.69443e-06 1.89984e-06 0 -4.12584e-06 1.79042e-06 0 -3.58956e-06 1.693e-06 0 -3.08144e-06 1.60965e-06 0 -2.59751e-06 1.53765e-06 0 -2.13406e-06 1.47731e-06 0 -1.6874e-06 1.42912e-06 0 -1.25404e-06 1.39124e-06 0 -8.30586e-07 1.36486e-06 0 -4.13651e-07 1.34911e-06 0 3.05403e-19 1.34318e-06 0 1.89537e-05 -2.40259e-05 0 -2.28383e-06 -2.84684e-05 0 -1.58132e-05 -1.95653e-05 0 -2.0406e-05 -1.06649e-05 0 -2.11748e-05 -4.76171e-06 0 -2.05774e-05 -1.1992e-06 0 -1.94913e-05 8.86571e-07 0 -1.82326e-05 2.06988e-06 0 -1.69281e-05 2.69693e-06 0 -1.56361e-05 2.9996e-06 0 -1.43858e-05 3.10052e-06 0 -1.31932e-05 3.07052e-06 0 -1.20661e-05 2.97569e-06 0 -1.10077e-05 2.84e-06 0 -1.00177e-05 2.68537e-06 0 -9.09426e-06 2.52464e-06 0 -8.23406e-06 2.36552e-06 0 -7.43304e-06 2.21243e-06 0 -6.68686e-06 2.06827e-06 0 -5.99086e-06 1.93554e-06 0 -5.34045e-06 1.81346e-06 0 -4.73113e-06 1.70375e-06 0 -4.15841e-06 1.60579e-06 0 -3.6181e-06 1.51853e-06 0 -3.10606e-06 1.44385e-06 0 -2.61835e-06 1.37931e-06 0 -2.15123e-06 1.32522e-06 0 -1.701e-06 1.28202e-06 0 -1.26415e-06 1.24805e-06 0 -8.37292e-07 1.2244e-06 0 -4.16992e-07 1.21028e-06 0 0 1.20495e-06 0 1.47783e-05 -1.89374e-05 0 -1.04031e-06 -2.26835e-05 0 -1.29187e-05 -1.68536e-05 0 -1.81464e-05 -9.8226e-06 0 -1.97281e-05 -4.68841e-06 0 -1.97053e-05 -1.42865e-06 0 -1.89831e-05 5.33587e-07 0 -1.7949e-05 1.66761e-06 0 -1.67821e-05 2.28022e-06 0 -1.55742e-05 2.58571e-06 0 -1.43747e-05 2.69918e-06 0 -1.32123e-05 2.6875e-06 0 -1.21024e-05 2.61347e-06 0 -1.1053e-05 2.49968e-06 0 -1.00671e-05 2.36696e-06 0 -9.14439e-06 2.22754e-06 0 -8.28298e-06 2.08854e-06 0 -7.47954e-06 1.95432e-06 0 -6.73026e-06 1.82762e-06 0 -6.03078e-06 1.71075e-06 0 -5.37672e-06 1.60314e-06 0 -4.76372e-06 1.50635e-06 0 -4.18735e-06 1.41988e-06 0 -3.64346e-06 1.34281e-06 0 -3.12795e-06 1.27684e-06 0 -2.63687e-06 1.21981e-06 0 -2.16649e-06 1.172e-06 0 -1.71309e-06 1.13381e-06 0 -1.27315e-06 1.10378e-06 0 -8.43257e-07 1.08287e-06 0 -4.19964e-07 1.07039e-06 0 0 1.06568e-06 0 1.19192e-05 -1.50732e-05 0 -4.27665e-07 -1.8042e-05 0 -1.07899e-05 -1.41938e-05 0 -1.62688e-05 -8.74197e-06 0 -1.84461e-05 -4.40434e-06 0 -1.89053e-05 -1.5153e-06 0 -1.85074e-05 2.71021e-07 0 -1.76793e-05 1.32138e-06 0 -1.66403e-05 1.8981e-06 0 -1.55112e-05 2.19287e-06 0 -1.43594e-05 2.31039e-06 0 -1.32255e-05 2.3119e-06 0 -1.21321e-05 2.25533e-06 0 -1.10914e-05 2.1614e-06 0 -1.01095e-05 2.04929e-06 0 -9.1878e-06 1.93035e-06 0 -8.32553e-06 1.81098e-06 0 -7.52012e-06 1.69535e-06 0 -6.76819e-06 1.58594e-06 0 -6.06571e-06 1.48484e-06 0 -5.40849e-06 1.39167e-06 0 -4.79228e-06 1.30781e-06 0 -4.21272e-06 1.23283e-06 0 -3.66571e-06 1.166e-06 0 -3.14716e-06 1.10875e-06 0 -2.65313e-06 1.05927e-06 0 -2.17989e-06 1.01777e-06 0 -1.7237e-06 9.84623e-07 0 -1.28105e-06 9.58556e-07 0 -8.48495e-07 9.40399e-07 0 -4.22574e-07 9.29561e-07 0 3.05461e-20 9.25475e-07 0 9.93523e-06 -1.19531e-05 0 -1.42845e-07 -1.42287e-05 0 -9.24595e-06 -1.16679e-05 0 -1.47522e-05 -7.5135e-06 0 -1.7347e-05 -3.95459e-06 0 -1.81964e-05 -1.47956e-06 0 -1.80775e-05 8.91509e-08 0 -1.74319e-05 1.02616e-06 0 -1.65081e-05 1.54777e-06 0 -1.54503e-05 1.81948e-06 0 -1.4342e-05 1.93323e-06 0 -1.32341e-05 1.94323e-06 0 -1.21558e-05 1.90104e-06 0 -1.11233e-05 1.82506e-06 0 -1.01451e-05 1.7324e-06 0 -9.22459e-06 1.63316e-06 0 -8.36174e-06 1.53299e-06 0 -7.55474e-06 1.43565e-06 0 -6.80062e-06 1.34337e-06 0 -6.09562e-06 1.25799e-06 0 -5.43571e-06 1.17922e-06 0 -4.81676e-06 1.10827e-06 0 -4.23448e-06 1.04481e-06 0 -3.68479e-06 9.88224e-07 0 -3.16364e-06 9.39743e-07 0 -2.66708e-06 8.97823e-07 0 -2.19139e-06 8.62671e-07 0 -1.73282e-06 8.34584e-07 0 -1.28783e-06 8.12497e-07 0 -8.52992e-07 7.9711e-07 0 -4.24815e-07 7.87927e-07 0 0 7.84464e-07 0 8.54461e-06 -9.30909e-06 0 -2.10694e-08 -1.10057e-05 0 -8.13682e-06 -9.29727e-06 0 -1.35598e-05 -6.20011e-06 0 -1.64367e-05 -3.37896e-06 0 -1.75914e-05 -1.34245e-06 0 -1.77041e-05 -2.31715e-08 0 -1.72144e-05 7.75771e-07 0 -1.63902e-05 1.22563e-06 0 -1.53947e-05 1.46342e-06 0 -1.43244e-05 1.5665e-06 0 -1.32394e-05 1.58077e-06 0 -1.21743e-05 1.55023e-06 0 -1.11491e-05 1.49052e-06 0 -1.01744e-05 1.41624e-06 0 -9.25495e-06 1.33604e-06 0 -8.39175e-06 1.25465e-06 0 -7.5835e-06 1.17538e-06 0 -6.82759e-06 1.10009e-06 0 -6.12052e-06 1.03033e-06 0 -5.45839e-06 9.65938e-07 0 -4.83717e-06 9.079e-07 0 -4.25263e-06 8.55969e-07 0 -3.70071e-06 8.09645e-07 0 -3.1774e-06 7.69949e-07 0 -2.67873e-06 7.35621e-07 0 -2.20099e-06 7.06831e-07 0 -1.74042e-06 6.83825e-07 0 -1.2935e-06 6.65733e-07 0 -8.56745e-07 6.53129e-07 0 -4.26685e-07 6.45605e-07 0 0 6.42769e-07 0 7.57552e-06 -6.97871e-06 0 2.23684e-08 -8.19744e-06 0 -7.35426e-06 -7.07121e-06 0 -1.2655e-05 -4.84247e-06 0 -1.57152e-05 -2.71099e-06 0 -1.70995e-05 -1.12461e-06 0 -1.73958e-05 -7.79963e-08 0 -1.70329e-05 5.63124e-07 0 -1.62907e-05 9.27448e-07 0 -1.53468e-05 1.12217e-06 0 -1.43082e-05 1.20868e-06 0 -1.32422e-05 1.22366e-06 0 -1.21883e-05 1.20243e-06 0 -1.11692e-05 1.15755e-06 0 -1.01975e-05 1.10075e-06 0 -9.27905e-06 1.039e-06 0 -8.41564e-06 9.76072e-07 0 -7.60644e-06 9.14641e-07 0 -6.84914e-06 8.56216e-07 0 -6.14042e-06 8.02031e-07 0 -5.47654e-06 7.5198e-07 0 -4.85351e-06 7.06847e-07 0 -4.26715e-06 6.6645e-07 0 -3.71346e-06 6.30406e-07 0 -3.18841e-06 5.99514e-07 0 -2.68805e-06 5.72796e-07 0 -2.20867e-06 5.50386e-07 0 -1.74652e-06 5.32476e-07 0 -1.29803e-06 5.18391e-07 0 -8.59752e-07 5.08579e-07 0 -4.28184e-07 5.02722e-07 0 0 5.00513e-07 0 6.92117e-06 -4.8557e-06 0 3.1306e-08 -5.67391e-06 0 -6.82304e-06 -4.96397e-06 0 -1.20056e-05 -3.4648e-06 0 -1.51792e-05 -1.97816e-06 0 -1.67264e-05 -8.45658e-07 0 -1.71591e-05 -8.78758e-08 0 -1.68923e-05 3.8045e-07 0 -1.62131e-05 6.4843e-07 0 -1.53089e-05 7.92808e-07 0 -1.42948e-05 8.58046e-07 0 -1.32436e-05 8.70854e-07 0 -1.21983e-05 8.57072e-07 0 -1.11839e-05 8.25865e-07 0 -1.02146e-05 7.85824e-07 0 -9.29701e-06 7.42062e-07 0 -8.43349e-06 6.9731e-07 0 -7.62361e-06 6.53557e-07 0 -6.86528e-06 6.11898e-07 0 -6.15535e-06 5.73232e-07 0 -5.49015e-06 5.375e-07 0 -4.86576e-06 5.05267e-07 0 -4.27806e-06 4.76409e-07 0 -3.72304e-06 4.50656e-07 0 -3.19668e-06 4.28581e-07 0 -2.69506e-06 4.09486e-07 0 -2.21445e-06 3.93469e-07 0 -1.75109e-06 3.80669e-07 0 -1.30144e-06 3.70601e-07 0 -8.62011e-07 3.63587e-07 0 -4.29309e-07 3.594e-07 0 3.28061e-21 3.57821e-07 0 6.51577e-06 -2.86461e-06 0 2.82846e-08 -3.33522e-06 0 -6.49339e-06 -2.94346e-06 0 -1.15864e-05 -2.07991e-06 0 -1.48246e-05 -1.20282e-06 0 -1.64758e-05 -5.24113e-07 0 -1.69986e-05 -6.55937e-08 0 -1.67964e-05 2.19498e-07 0 -1.61599e-05 3.83388e-07 0 -1.52827e-05 4.72146e-07 0 -1.42852e-05 5.12682e-07 0 -1.32441e-05 5.2122e-07 0 -1.22047e-05 5.13509e-07 0 -1.11936e-05 4.95129e-07 0 -1.02259e-05 4.71319e-07 0 -9.30894e-06 4.45201e-07 0 -8.44537e-06 4.18431e-07 0 -7.63505e-06 3.9223e-07 0 -6.87605e-06 3.67264e-07 0 -6.1653e-06 3.4408e-07 0 -5.49923e-06 3.22648e-07 0 -4.87395e-06 3.0331e-07 0 -4.28534e-06 2.85994e-07 0 -3.72943e-06 2.7054e-07 0 -3.2022e-06 2.57291e-07 0 -2.69974e-06 2.4583e-07 0 -2.2183e-06 2.36216e-07 0 -1.75415e-06 2.28532e-07 0 -1.30371e-06 2.22489e-07 0 -8.6352e-07 2.18279e-07 0 -4.30061e-07 2.15765e-07 0 0 2.14818e-07 0 6.32117e-06 -9.46998e-07 0 2.44515e-08 -1.10055e-06 0 -6.33512e-06 -9.75323e-07 0 -1.13803e-05 -6.93349e-07 0 -1.46476e-05 -4.03515e-07 0 -1.63495e-05 -1.77467e-07 0 -1.69173e-05 -2.40093e-08 0 -1.67477e-05 7.16979e-08 0 -1.61327e-05 1.26845e-07 0 -1.52693e-05 1.56788e-07 0 -1.42802e-05 1.70533e-07 0 -1.32443e-05 1.73523e-07 0 -1.22079e-05 1.71046e-07 0 -1.11985e-05 1.64977e-07 0 -1.02316e-05 1.57077e-07 0 -9.31491e-06 1.48394e-07 0 -8.45132e-06 1.39484e-07 0 -7.64078e-06 1.30759e-07 0 -6.88145e-06 1.22442e-07 0 -6.1703e-06 1.14717e-07 0 -5.50379e-06 1.07574e-07 0 -4.87805e-06 1.01128e-07 0 -4.28899e-06 9.53563e-08 0 -3.73263e-06 9.02043e-08 0 -3.20497e-06 8.57874e-08 0 -2.70208e-06 8.19664e-08 0 -2.22024e-06 7.87612e-08 0 -1.75568e-06 7.61994e-08 0 -1.30486e-06 7.41844e-08 0 -8.64277e-07 7.27806e-08 0 -4.30439e-07 7.19426e-08 0 0 7.16267e-08 0 6.32117e-06 9.46998e-07 0 2.44515e-08 1.10055e-06 0 -6.33512e-06 9.75323e-07 0 -1.13803e-05 6.93349e-07 0 -1.46476e-05 4.03515e-07 0 -1.63495e-05 1.77467e-07 0 -1.69173e-05 2.40093e-08 0 -1.67477e-05 -7.16979e-08 0 -1.61327e-05 -1.26845e-07 0 -1.52693e-05 -1.56788e-07 0 -1.42802e-05 -1.70533e-07 0 -1.32443e-05 -1.73523e-07 0 -1.22079e-05 -1.71046e-07 0 -1.11985e-05 -1.64977e-07 0 -1.02316e-05 -1.57077e-07 0 -9.31491e-06 -1.48394e-07 0 -8.45132e-06 -1.39484e-07 0 -7.64078e-06 -1.30759e-07 0 -6.88145e-06 -1.22442e-07 0 -6.1703e-06 -1.14717e-07 0 -5.50379e-06 -1.07574e-07 0 -4.87805e-06 -1.01128e-07 0 -4.28899e-06 -9.53563e-08 0 -3.73263e-06 -9.02043e-08 0 -3.20497e-06 -8.57874e-08 0 -2.70208e-06 -8.19664e-08 0 -2.22024e-06 -7.87612e-08 0 -1.75568e-06 -7.61994e-08 0 -1.30486e-06 -7.41844e-08 0 -8.64277e-07 -7.27806e-08 0 -4.30439e-07 -7.19426e-08 0 0 -7.16267e-08 0 6.51577e-06 2.86461e-06 0 2.82846e-08 3.33522e-06 0 -6.49339e-06 2.94346e-06 0 -1.15864e-05 2.07991e-06 0 -1.48246e-05 1.20282e-06 0 -1.64758e-05 5.24113e-07 0 -1.69986e-05 6.55937e-08 0 -1.67964e-05 -2.19498e-07 0 -1.61599e-05 -3.83388e-07 0 -1.52827e-05 -4.72146e-07 0 -1.42852e-05 -5.12682e-07 0 -1.32441e-05 -5.2122e-07 0 -1.22047e-05 -5.13509e-07 0 -1.11936e-05 -4.95129e-07 0 -1.02259e-05 -4.71319e-07 0 -9.30894e-06 -4.45201e-07 0 -8.44537e-06 -4.18431e-07 0 -7.63505e-06 -3.9223e-07 0 -6.87605e-06 -3.67264e-07 0 -6.1653e-06 -3.4408e-07 0 -5.49923e-06 -3.22648e-07 0 -4.87395e-06 -3.0331e-07 0 -4.28534e-06 -2.85994e-07 0 -3.72943e-06 -2.7054e-07 0 -3.2022e-06 -2.57291e-07 0 -2.69974e-06 -2.4583e-07 0 -2.2183e-06 -2.36216e-07 0 -1.75415e-06 -2.28532e-07 0 -1.30371e-06 -2.22489e-07 0 -8.6352e-07 -2.18279e-07 0 -4.30061e-07 -2.15765e-07 0 0 -2.14818e-07 0 6.92117e-06 4.8557e-06 0 3.1306e-08 5.67391e-06 0 -6.82304e-06 4.96397e-06 0 -1.20056e-05 3.4648e-06 0 -1.51792e-05 1.97816e-06 0 -1.67264e-05 8.45658e-07 0 -1.71591e-05 8.78758e-08 0 -1.68923e-05 -3.8045e-07 0 -1.62131e-05 -6.4843e-07 0 -1.53089e-05 -7.92808e-07 0 -1.42948e-05 -8.58046e-07 0 -1.32436e-05 -8.70854e-07 0 -1.21983e-05 -8.57072e-07 0 -1.11839e-05 -8.25865e-07 0 -1.02146e-05 -7.85824e-07 0 -9.29701e-06 -7.42062e-07 0 -8.43349e-06 -6.9731e-07 0 -7.62361e-06 -6.53557e-07 0 -6.86528e-06 -6.11898e-07 0 -6.15535e-06 -5.73232e-07 0 -5.49015e-06 -5.375e-07 0 -4.86576e-06 -5.05267e-07 0 -4.27806e-06 -4.76409e-07 0 -3.72304e-06 -4.50656e-07 0 -3.19668e-06 -4.28581e-07 0 -2.69506e-06 -4.09486e-07 0 -2.21445e-06 -3.93469e-07 0 -1.75109e-06 -3.80669e-07 0 -1.30144e-06 -3.70601e-07 0 -8.62011e-07 -3.63587e-07 0 -4.29309e-07 -3.594e-07 0 0 -3.57821e-07 0 7.57552e-06 6.97871e-06 0 2.23684e-08 8.19744e-06 0 -7.35426e-06 7.07121e-06 0 -1.2655e-05 4.84247e-06 0 -1.57152e-05 2.71099e-06 0 -1.70995e-05 1.12461e-06 0 -1.73958e-05 7.79963e-08 0 -1.70329e-05 -5.63124e-07 0 -1.62907e-05 -9.27448e-07 0 -1.53468e-05 -1.12217e-06 0 -1.43082e-05 -1.20868e-06 0 -1.32422e-05 -1.22366e-06 0 -1.21883e-05 -1.20243e-06 0 -1.11692e-05 -1.15755e-06 0 -1.01975e-05 -1.10075e-06 0 -9.27905e-06 -1.039e-06 0 -8.41564e-06 -9.76072e-07 0 -7.60644e-06 -9.14641e-07 0 -6.84914e-06 -8.56216e-07 0 -6.14042e-06 -8.02031e-07 0 -5.47654e-06 -7.5198e-07 0 -4.85351e-06 -7.06847e-07 0 -4.26715e-06 -6.6645e-07 0 -3.71346e-06 -6.30406e-07 0 -3.18841e-06 -5.99514e-07 0 -2.68805e-06 -5.72796e-07 0 -2.20867e-06 -5.50386e-07 0 -1.74652e-06 -5.32476e-07 0 -1.29803e-06 -5.18391e-07 0 -8.59752e-07 -5.08579e-07 0 -4.28184e-07 -5.02722e-07 0 -1.56021e-20 -5.00513e-07 0 8.54461e-06 9.30909e-06 0 -2.10694e-08 1.10057e-05 0 -8.13682e-06 9.29727e-06 0 -1.35598e-05 6.20011e-06 0 -1.64367e-05 3.37896e-06 0 -1.75914e-05 1.34245e-06 0 -1.77041e-05 2.31715e-08 0 -1.72144e-05 -7.75771e-07 0 -1.63902e-05 -1.22563e-06 0 -1.53947e-05 -1.46342e-06 0 -1.43244e-05 -1.5665e-06 0 -1.32394e-05 -1.58077e-06 0 -1.21743e-05 -1.55023e-06 0 -1.11491e-05 -1.49052e-06 0 -1.01744e-05 -1.41624e-06 0 -9.25495e-06 -1.33604e-06 0 -8.39175e-06 -1.25465e-06 0 -7.5835e-06 -1.17538e-06 0 -6.82759e-06 -1.10009e-06 0 -6.12052e-06 -1.03033e-06 0 -5.45839e-06 -9.65938e-07 0 -4.83717e-06 -9.079e-07 0 -4.25263e-06 -8.55969e-07 0 -3.70071e-06 -8.09645e-07 0 -3.1774e-06 -7.69949e-07 0 -2.67873e-06 -7.35621e-07 0 -2.20099e-06 -7.06831e-07 0 -1.74042e-06 -6.83825e-07 0 -1.2935e-06 -6.65733e-07 0 -8.56745e-07 -6.53129e-07 0 -4.26685e-07 -6.45605e-07 0 0 -6.42769e-07 0 9.93523e-06 1.19531e-05 0 -1.42845e-07 1.42287e-05 0 -9.24595e-06 1.16679e-05 0 -1.47522e-05 7.5135e-06 0 -1.7347e-05 3.95459e-06 0 -1.81964e-05 1.47956e-06 0 -1.80775e-05 -8.91509e-08 0 -1.74319e-05 -1.02616e-06 0 -1.65081e-05 -1.54777e-06 0 -1.54503e-05 -1.81948e-06 0 -1.4342e-05 -1.93323e-06 0 -1.32341e-05 -1.94323e-06 0 -1.21558e-05 -1.90104e-06 0 -1.11233e-05 -1.82506e-06 0 -1.01451e-05 -1.7324e-06 0 -9.22459e-06 -1.63316e-06 0 -8.36174e-06 -1.53299e-06 0 -7.55474e-06 -1.43565e-06 0 -6.80062e-06 -1.34337e-06 0 -6.09562e-06 -1.25799e-06 0 -5.43571e-06 -1.17922e-06 0 -4.81676e-06 -1.10827e-06 0 -4.23448e-06 -1.04481e-06 0 -3.68479e-06 -9.88224e-07 0 -3.16364e-06 -9.39743e-07 0 -2.66708e-06 -8.97823e-07 0 -2.19139e-06 -8.62671e-07 0 -1.73282e-06 -8.34584e-07 0 -1.28783e-06 -8.12497e-07 0 -8.52992e-07 -7.9711e-07 0 -4.24815e-07 -7.87927e-07 0 0 -7.84464e-07 0 1.19192e-05 1.50732e-05 0 -4.27665e-07 1.8042e-05 0 -1.07899e-05 1.41938e-05 0 -1.62688e-05 8.74197e-06 0 -1.84461e-05 4.40434e-06 0 -1.89053e-05 1.5153e-06 0 -1.85074e-05 -2.71021e-07 0 -1.76793e-05 -1.32138e-06 0 -1.66403e-05 -1.8981e-06 0 -1.55112e-05 -2.19287e-06 0 -1.43594e-05 -2.31039e-06 0 -1.32255e-05 -2.3119e-06 0 -1.21321e-05 -2.25533e-06 0 -1.10914e-05 -2.1614e-06 0 -1.01095e-05 -2.04929e-06 0 -9.1878e-06 -1.93035e-06 0 -8.32553e-06 -1.81098e-06 0 -7.52012e-06 -1.69535e-06 0 -6.76819e-06 -1.58594e-06 0 -6.06571e-06 -1.48484e-06 0 -5.40849e-06 -1.39167e-06 0 -4.79228e-06 -1.30781e-06 0 -4.21272e-06 -1.23283e-06 0 -3.66571e-06 -1.166e-06 0 -3.14716e-06 -1.10875e-06 0 -2.65313e-06 -1.05927e-06 0 -2.17989e-06 -1.01777e-06 0 -1.7237e-06 -9.84623e-07 0 -1.28105e-06 -9.58556e-07 0 -8.48495e-07 -9.40399e-07 0 -4.22574e-07 -9.29561e-07 0 0 -9.25475e-07 0 1.47783e-05 1.89374e-05 0 -1.04031e-06 2.26835e-05 0 -1.29187e-05 1.68536e-05 0 -1.81464e-05 9.8226e-06 0 -1.97281e-05 4.68841e-06 0 -1.97053e-05 1.42865e-06 0 -1.89831e-05 -5.33587e-07 0 -1.7949e-05 -1.66761e-06 0 -1.67821e-05 -2.28022e-06 0 -1.55742e-05 -2.58571e-06 0 -1.43747e-05 -2.69918e-06 0 -1.32123e-05 -2.6875e-06 0 -1.21024e-05 -2.61347e-06 0 -1.1053e-05 -2.49968e-06 0 -1.00671e-05 -2.36696e-06 0 -9.14439e-06 -2.22754e-06 0 -8.28298e-06 -2.08854e-06 0 -7.47954e-06 -1.95432e-06 0 -6.73026e-06 -1.82762e-06 0 -6.03078e-06 -1.71075e-06 0 -5.37672e-06 -1.60314e-06 0 -4.76372e-06 -1.50635e-06 0 -4.18735e-06 -1.41988e-06 0 -3.64346e-06 -1.34281e-06 0 -3.12795e-06 -1.27684e-06 0 -2.63687e-06 -1.21981e-06 0 -2.16649e-06 -1.172e-06 0 -1.71309e-06 -1.13381e-06 0 -1.27315e-06 -1.10378e-06 0 -8.43257e-07 -1.08287e-06 0 -4.19964e-07 -1.07039e-06 0 4.68982e-20 -1.06568e-06 0 1.89537e-05 2.40259e-05 0 -2.28383e-06 2.84684e-05 0 -1.58132e-05 1.95653e-05 0 -2.0406e-05 1.06649e-05 0 -2.11748e-05 4.76171e-06 0 -2.05774e-05 1.1992e-06 0 -1.94913e-05 -8.86571e-07 0 -1.82326e-05 -2.06988e-06 0 -1.69281e-05 -2.69693e-06 0 -1.56361e-05 -2.9996e-06 0 -1.43858e-05 -3.10052e-06 0 -1.31932e-05 -3.07052e-06 0 -1.20661e-05 -2.97569e-06 0 -1.10077e-05 -2.84e-06 0 -1.00177e-05 -2.68537e-06 0 -9.09426e-06 -2.52464e-06 0 -8.23406e-06 -2.36552e-06 0 -7.43304e-06 -2.21243e-06 0 -6.68686e-06 -2.06827e-06 0 -5.99086e-06 -1.93554e-06 0 -5.34045e-06 -1.81346e-06 0 -4.73113e-06 -1.70375e-06 0 -4.15841e-06 -1.60579e-06 0 -3.6181e-06 -1.51853e-06 0 -3.10606e-06 -1.44385e-06 0 -2.61835e-06 -1.37931e-06 0 -2.15123e-06 -1.32522e-06 0 -1.701e-06 -1.28202e-06 0 -1.26415e-06 -1.24805e-06 0 -8.37292e-07 -1.2244e-06 0 -4.16992e-07 -1.21028e-06 0 0 -1.20495e-06 0 2.52877e-05 3.12755e-05 0 -4.79243e-06 3.5773e-05 0 -1.97227e-05 2.21391e-05 0 -2.30599e-05 1.11488e-05 0 -2.27606e-05 4.57669e-06 0 -2.14998e-05 8.08623e-07 0 -2.00174e-05 -1.33765e-06 0 -1.85209e-05 -2.53182e-06 0 -1.70725e-05 -3.15015e-06 0 -1.56931e-05 -3.4356e-06 0 -1.43903e-05 -3.51499e-06 0 -1.31667e-05 -3.46127e-06 0 -1.20221e-05 -3.34213e-06 0 -1.09545e-05 -3.18235e-06 0 -9.96085e-06 -3.00444e-06 0 -9.03701e-06 -2.82153e-06 0 -8.17848e-06 -2.6418e-06 0 -7.38037e-06 -2.46952e-06 0 -6.63782e-06 -2.30772e-06 0 -5.94581e-06 -2.15904e-06 0 -5.29956e-06 -2.02246e-06 0 -4.69443e-06 -1.89984e-06 0 -4.12584e-06 -1.79042e-06 0 -3.58956e-06 -1.693e-06 0 -3.08144e-06 -1.60965e-06 0 -2.59751e-06 -1.53765e-06 0 -2.13406e-06 -1.47731e-06 0 -1.6874e-06 -1.42912e-06 0 -1.25404e-06 -1.39124e-06 0 -8.30586e-07 -1.36486e-06 0 -4.13651e-07 -1.34911e-06 0 0 -1.34318e-06 0 3.51762e-05 4.26963e-05 0 -9.72118e-06 4.49059e-05 0 -2.48512e-05 2.42183e-05 0 -2.6062e-05 1.11289e-05 0 -2.4437e-05 4.08817e-06 0 -2.24424e-05 2.42634e-07 0 -2.05438e-05 -1.8918e-06 0 -1.88034e-05 -3.05543e-06 0 -1.72092e-05 -3.64081e-06 0 -1.57416e-05 -3.89417e-06 0 -1.43861e-05 -3.94279e-06 0 -1.31314e-05 -3.8598e-06 0 -1.19695e-05 -3.71273e-06 0 -1.08932e-05 -3.52664e-06 0 -9.89624e-06 -3.32406e-06 0 -8.97252e-06 -3.11806e-06 0 -8.11619e-06 -2.91718e-06 0 -7.32154e-06 -2.7254e-06 0 -6.58316e-06 -2.5458e-06 0 -5.89569e-06 -2.3811e-06 0 -5.25412e-06 -2.22998e-06 0 -4.65368e-06 -2.09446e-06 0 -4.08969e-06 -1.97361e-06 0 -3.5579e-06 -1.86606e-06 0 -3.05413e-06 -1.7741e-06 0 -2.57441e-06 -1.69467e-06 0 -2.11504e-06 -1.62812e-06 0 -1.67233e-06 -1.57498e-06 0 -1.24282e-06 -1.53321e-06 0 -8.23153e-07 -1.50413e-06 0 -4.09947e-07 -1.48677e-06 0 9.77124e-20 -1.48023e-06 0 5.11116e-05 6.30982e-05 0 -1.91446e-05 5.56374e-05 0 -3.12876e-05 2.52286e-05 0 -2.93074e-05 1.04527e-05 0 -2.61399e-05 3.26044e-06 0 -2.33714e-05 -5.06953e-07 0 -2.10522e-05 -2.55066e-06 0 -1.90697e-05 -3.64086e-06 0 -1.73318e-05 -4.16879e-06 0 -1.57778e-05 -4.37516e-06 0 -1.43706e-05 -4.38378e-06 0 -1.30859e-05 -4.26597e-06 0 -1.19074e-05 -4.08734e-06 0 -1.08231e-05 -3.87268e-06 0 -9.8235e-06 -3.64402e-06 0 -8.90054e-06 -3.41402e-06 0 -8.04706e-06 -3.19149e-06 0 -7.25647e-06 -2.97989e-06 0 -6.52285e-06 -2.78231e-06 0 -5.84048e-06 -2.60151e-06 0 -5.20412e-06 -2.43585e-06 0 -4.60887e-06 -2.28744e-06 0 -4.04998e-06 -2.15521e-06 0 -3.52313e-06 -2.03758e-06 0 -3.02415e-06 -1.93705e-06 0 -2.54905e-06 -1.85024e-06 0 -2.09416e-06 -1.77752e-06 0 -1.65579e-06 -1.71948e-06 0 -1.23052e-06 -1.67385e-06 0 -8.14999e-07 -1.64209e-06 0 -4.05885e-07 -1.62313e-06 0 0 -1.61599e-06 0 7.71101e-05 0.000105621 0 -3.62169e-05 6.59022e-05 0 -3.88077e-05 2.44085e-05 0 -3.26142e-05 8.99344e-06 0 -2.77892e-05 2.07543e-06 0 -2.42497e-05 -1.44028e-06 0 -2.15234e-05 -3.31211e-06 0 -1.93092e-05 -4.28635e-06 0 -1.74342e-05 -4.73292e-06 0 -1.57977e-05 -4.87779e-06 0 -1.43416e-05 -4.83744e-06 0 -1.30286e-05 -4.67938e-06 0 -1.18348e-05 -4.46564e-06 0 -1.07436e-05 -4.2202e-06 0 -9.74224e-06 -3.96408e-06 0 -8.82084e-06 -3.7092e-06 0 -7.97092e-06 -3.4645e-06 0 -7.18506e-06 -3.23279e-06 0 -6.45683e-06 -3.01706e-06 0 -5.78014e-06 -2.82011e-06 0 -5.14954e-06 -2.6399e-06 0 -4.56e-06 -2.47863e-06 0 -4.00669e-06 -2.33505e-06 0 -3.48526e-06 -2.2074e-06 0 -2.9915e-06 -2.09835e-06 0 -2.52145e-06 -2.00422e-06 0 -2.07144e-06 -1.9254e-06 0 -1.6378e-06 -1.86248e-06 0 -1.21714e-06 -1.81304e-06 0 -8.06129e-07 -1.77862e-06 0 -4.01466e-07 -1.75808e-06 0 -3.08113e-19 -1.75033e-06 0 0.000115117 0.000213369 0 -6.33965e-05 6.93801e-05 0 -4.66552e-05 2.10246e-05 0 -3.57301e-05 6.69528e-06 0 -2.9296e-05 5.40251e-07 0 -2.50396e-05 -2.54808e-06 0 -2.1939e-05 -4.17e-06 0 -1.95117e-05 -4.9882e-06 0 -1.75104e-05 -5.33095e-06 0 -1.57979e-05 -5.40071e-06 0 -1.42968e-05 -5.30288e-06 0 -1.29581e-05 -5.09942e-06 0 -1.17508e-05 -4.84717e-06 0 -1.06541e-05 -4.56883e-06 0 -9.65212e-06 -4.28392e-06 0 -8.7332e-06 -4.00331e-06 0 -7.88766e-06 -3.73596e-06 0 -7.10728e-06 -3.48385e-06 0 -6.38509e-06 -3.24985e-06 0 -5.71469e-06 -3.03669e-06 0 -5.09042e-06 -2.84193e-06 0 -4.50712e-06 -2.66784e-06 0 -3.95988e-06 -2.51297e-06 0 -3.44432e-06 -2.37537e-06 0 -2.95622e-06 -2.25788e-06 0 -2.49164e-06 -2.15649e-06 0 -2.04689e-06 -2.07161e-06 0 -1.61837e-06 -2.00387e-06 0 -1.20268e-06 -1.95065e-06 0 -7.96551e-07 -1.91359e-06 0 -3.96695e-07 -1.89148e-06 0 -2.07183e-19 -1.88315e-06 0 0.000116002 0.000553612 0 -9.58707e-05 5.52334e-05 0 -5.35465e-05 1.48127e-05 0 -3.83733e-05 3.61477e-06 0 -3.05733e-05 -1.30857e-06 0 -2.57062e-05 -3.81141e-06 0 -2.2282e-05 -5.11429e-06 0 -1.96681e-05 -5.74086e-06 0 -1.75549e-05 -5.95968e-06 0 -1.57751e-05 -5.94197e-06 0 -1.42342e-05 -5.7789e-06 0 -1.28731e-05 -5.52527e-06 0 -1.16547e-05 -5.23134e-06 0 -1.05541e-05 -4.91814e-06 0 -9.55281e-06 -4.60319e-06 0 -8.63745e-06 -4.29606e-06 0 -7.79718e-06 -4.00562e-06 0 -7.02304e-06 -3.73286e-06 0 -6.3076e-06 -3.48045e-06 0 -5.64412e-06 -3.25107e-06 0 -5.02676e-06 -3.04177e-06 0 -4.45022e-06 -2.85492e-06 0 -3.90955e-06 -2.68883e-06 0 -3.40033e-06 -2.54135e-06 0 -2.91834e-06 -2.41548e-06 0 -2.45962e-06 -2.3069e-06 0 -2.02055e-06 -2.21602e-06 0 -1.59752e-06 -2.14352e-06 0 -1.18717e-06 -2.08655e-06 0 -7.86273e-07 -2.0469e-06 0 -3.91575e-07 -2.02324e-06 0 0 -2.01432e-06 0 -0.00842369 -0.0027296 0 -0.000115564 2.01723e-05 0 -5.80927e-05 6.39744e-06 0 -4.0296e-05 -6.53802e-08 0 -3.1548e-05 -3.40633e-06 0 -2.62201e-05 -5.20257e-06 0 -2.2538e-05 -6.1315e-06 0 -1.97702e-05 -6.53719e-06 0 -1.75631e-05 -6.61503e-06 0 -1.57261e-05 -6.49916e-06 0 -1.41517e-05 -6.26399e-06 0 -1.27723e-05 -5.95591e-06 0 -1.15456e-05 -5.61746e-06 0 -1.04431e-05 -5.26759e-06 0 -9.444e-06 -4.92148e-06 0 -8.53337e-06 -4.5871e-06 0 -7.69936e-06 -4.27317e-06 0 -6.93231e-06 -3.97955e-06 0 -6.22435e-06 -3.70864e-06 0 -5.56845e-06 -3.46302e-06 0 -4.95857e-06 -3.23923e-06 0 -4.38935e-06 -3.03968e-06 0 -3.85574e-06 -2.86245e-06 0 -3.35332e-06 -2.70517e-06 0 -2.87786e-06 -2.57102e-06 0 -2.42544e-06 -2.45532e-06 0 -1.99242e-06 -2.35852e-06 0 -1.57525e-06 -2.2813e-06 0 -1.17062e-06 -2.22063e-06 0 -7.75304e-07 -2.17841e-06 0 -3.86111e-07 -2.15323e-06 0 0 -2.14373e-06 0 </DataArray> 
</PointData> 
<Points> 
<DataArray type="Float32" NumberOfComponents="3"> 