<?xml version="1.0"?> 
<VTKFile type="StructuredGrid" version="0.1"> 
<StructuredGrid WholeExtent="0 31 0 31 0 0"> 
<Piece Extent="0 31 0 31 0 0"> 
<PointData>
<DataArray type="Float32" Name="B" format="ascii" NumberOfComponents="3"> 
0.00204009 0.000389577 0 -0.000117761 9.97489e-05 0 -6.35931e-05 5.38645e-05 0 -4.24362e-05 3.76817e-05 0 -3.15566e-05 2.89903e-05 0 -2.503e-05 2.33138e-05 0 -2.06766e-05 1.91931e-05 0 -1.75327e-05 1.6025e-05 0 -1.51222e-05 1.35182e-05 0 -1.31886e-05 1.14756e-05 0 -1.15887e-05 9.79568e-06 0 -1.02332e-05 8.42719e-06 0 -9.06616e-06 7.27331e-06 0 -8.04968e-06 6.31679e-06 0 -7.15593e-06 5.51521e-06 0 -6.36478e-06 4.83188e-06 0 -5.66019e-06 4.26567e-06 0 -5.02922e-06 3.781e-06 0 -4.46146e-06 3.36855e-06 0 -3.94788e-06 3.0221e-06 0 -3.48098e-06 2.72405e-06 0 -3.05428e-06 2.47301e-06 0 -2.66198e-06 2.26038e-06 0 -2.29917e-06 2.07878e-06 0 -1.96136e-06 1.92993e-06 0 -1.64455e-06 1.80509e-06 0 -1.34516e-06 1.70322e-06 0 -1.05982e-06 1.62375e-06 0 -7.85473e-07 1.56226e-06 0 -5.19235e-07 1.52001e-06 0 -2.58289e-07 1.495e-06 0 0 1.48561e-06 0 -0.000581075 -0.000198244 0 -0.000137814 6.15001e-05 0 -6.97875e-05 4.25973e-05 0 -4.56056e-05 3.25553e-05 0 -3.35893e-05 2.61316e-05 0 -2.64954e-05 2.15001e-05 0 -2.18016e-05 1.79314e-05 0 -1.84268e-05 1.50842e-05 0 -1.58468e-05 1.27782e-05 0 -1.37826e-05 1.08729e-05 0 -1.20795e-05 9.29183e-06 0 -1.06409e-05 7.9964e-06 0 -9.40638e-06 6.90098e-06 0 -8.33471e-06 5.9913e-06 0 -7.39553e-06 5.22836e-06 0 -6.56683e-06 4.57783e-06 0 -5.83105e-06 4.03888e-06 0 -5.17401e-06 3.57771e-06 0 -4.58437e-06 3.18546e-06 0 -4.0523e-06 2.85617e-06 0 -3.56966e-06 2.57304e-06 0 -3.12948e-06 2.3347e-06 0 -2.72554e-06 2.13294e-06 0 -2.35259e-06 1.96071e-06 0 -2.00585e-06 1.8196e-06 0 -1.68109e-06 1.7013e-06 0 -1.37453e-06 1.60481e-06 0 -1.08263e-06 1.52955e-06 0 -8.02193e-07 1.47134e-06 0 -5.30201e-07 1.43134e-06 0 -2.63718e-07 1.40767e-06 0 0 1.39879e-06 0 -0.00026447 -0.000204624 0 -0.000135492 2.13566e-05 0 -7.22253e-05 3.04221e-05 0 -4.75755e-05 2.70577e-05 0 -3.51128e-05 2.30836e-05 0 -2.77068e-05 1.95716e-05 0 -2.27852e-05 1.65908e-05 0 -1.92349e-05 1.40849e-05 0 -1.6515e-05 1.19926e-05 0 -1.43372e-05 1.02337e-05 0 -1.25412e-05 8.75861e-06 0 -1.10262e-05 7.54159e-06 0 -9.72866e-06 6.509e-06 0 -8.60507e-06 5.64961e-06 0 -7.62293e-06 4.92811e-06 0 -6.75861e-06 4.31268e-06 0 -5.99318e-06 3.80283e-06 0 -5.31135e-06 3.36667e-06 0 -4.7009e-06 2.99585e-06 0 -4.15124e-06 2.6847e-06 0 -3.65365e-06 2.4173e-06 0 -3.20067e-06 2.19233e-06 0 -2.78568e-06 2.00197e-06 0 -2.4031e-06 1.83955e-06 0 -2.04791e-06 1.70655e-06 0 -1.71561e-06 1.59508e-06 0 -1.40227e-06 1.50418e-06 0 -1.10418e-06 1.43331e-06 0 -8.17979e-07 1.3785e-06 0 -5.40553e-07 1.34085e-06 0 -2.68843e-07 1.31858e-06 0 0 1.31021e-06 0 -0.000140915 -0.000163208 0 -0.000118548 -7.32773e-06 0 -7.10937e-05 1.89923e-05 0 -4.83306e-05 2.15797e-05 0 -3.6112e-05 1.99785e-05 0 -2.86552e-05 1.75831e-05 0 -2.36219e-05 1.51974e-05 0 -1.99533e-05 1.30404e-05 0 -1.71241e-05 1.11688e-05 0 -1.48503e-05 9.56263e-06 0 -1.29719e-05 8.19877e-06 0 -1.13875e-05 7.06464e-06 0 -1.00318e-05 6.09867e-06 0 -8.85977e-06 5.29271e-06 0 -7.83731e-06 4.61522e-06 0 -6.93945e-06 4.03705e-06 0 -6.14605e-06 3.55801e-06 0 -5.4408e-06 3.14828e-06 0 -4.81068e-06 2.80004e-06 0 -4.24441e-06 2.50798e-06 0 -3.7327e-06 2.25709e-06 0 -3.26764e-06 2.04611e-06 0 -2.84223e-06 1.86767e-06 0 -2.45058e-06 1.71549e-06 0 -2.08742e-06 1.59091e-06 0 -1.74804e-06 1.48655e-06 0 -1.42832e-06 1.40146e-06 0 -1.1244e-06 1.33515e-06 0 -8.32796e-07 1.28387e-06 0 -5.50269e-07 1.24865e-06 0 -2.73652e-07 1.22781e-06 0 -6.26372e-20 1.21999e-06 0 -8.42466e-05 -0.000125341 0 -9.77864e-05 -2.29976e-05 0 -6.73136e-05 9.46721e-06 0 -4.80019e-05 1.64683e-05 0 -3.66125e-05 1.6943e-05 0 -2.93461e-05 1.55891e-05 0 -2.43119e-05 1.37771e-05 0 -2.05809e-05 1.19643e-05 0 -1.76726e-05 1.03146e-05 0 -1.53202e-05 8.86409e-06 0 -1.33703e-05 7.61515e-06 0 -1.17235e-05 6.56748e-06 0 -1.03147e-05 5.67137e-06 0 -9.0979e-06 4.92163e-06 0 -8.03794e-06 4.2905e-06 0 -7.10873e-06 3.75156e-06 0 -6.28914e-06 3.30494e-06 0 -5.56195e-06 2.92297e-06 0 -4.91339e-06 2.59842e-06 0 -4.33153e-06 2.32632e-06 0 -3.80659e-06 2.09267e-06 0 -3.33021e-06 1.89628e-06 0 -2.89504e-06 1.73025e-06 0 -2.49491e-06 1.58869e-06 0 -2.12429e-06 1.47286e-06 0 -1.77829e-06 1.37585e-06 0 -1.45261e-06 1.29679e-06 0 -1.14325e-06 1.23518e-06 0 -8.46609e-07 1.18755e-06 0 -5.59325e-07 1.15484e-06 0 -2.78135e-07 1.13549e-06 0 0 1.12822e-06 0 -5.49539e-05 -9.68801e-05 0 -7.89667e-05 -2.94984e-05 0 -6.20336e-05 2.30302e-06 0 -4.68186e-05 1.19723e-05 0 -3.66735e-05 1.40841e-05 0 -2.97975e-05 1.36386e-05 0 -2.48611e-05 1.23542e-05 0 -2.1119e-05 1.08694e-05 0 -1.816e-05 9.43713e-06 0 -1.57459e-05 8.14258e-06 0 -1.37352e-05 7.01061e-06 0 -1.20333e-05 6.0521e-06 0 -1.05764e-05 5.22852e-06 0 -9.31861e-06 4.53744e-06 0 -8.22406e-06 3.95478e-06 0 -7.26585e-06 3.45689e-06 0 -6.42195e-06 3.04417e-06 0 -5.67438e-06 2.6912e-06 0 -5.00868e-06 2.39135e-06 0 -4.41233e-06 2.14005e-06 0 -3.87508e-06 1.92433e-06 0 -3.38819e-06 1.74307e-06 0 -2.94396e-06 1.5899e-06 0 -2.53595e-06 1.45934e-06 0 -2.15843e-06 1.35256e-06 0 -1.80628e-06 1.26314e-06 0 -1.47509e-06 1.19029e-06 0 -1.1607e-06 1.13353e-06 0 -8.59385e-07 1.08966e-06 0 -5.677e-07 1.05953e-06 0 -2.8228e-07 1.04171e-06 0 0 1.03502e-06 0 -3.83647e-05 -7.58549e-05 0 -6.37376e-05 -3.06785e-05 0 -5.62415e-05 -2.59018e-06 0 -4.5055e-05 8.22414e-06 0 -3.63801e-05 1.14805e-05 0 -3.00397e-05 1.17723e-05 0 -2.5281e-05 1.09502e-05 0 -2.1572e-05 9.76761e-06 0 -1.85876e-05 8.54343e-06 0 -1.61275e-05 7.40236e-06 0 -1.40661e-05 6.38796e-06 0 -1.2316e-05 5.52048e-06 0 -1.08162e-05 4.7716e-06 0 -9.52123e-06 4.14126e-06 0 -8.39513e-06 3.60896e-06 0 -7.41033e-06 3.15375e-06 0 -6.5441e-06 2.77628e-06 0 -5.77776e-06 2.45346e-06 0 -5.09627e-06 2.17925e-06 0 -4.48659e-06 1.94951e-06 0 -3.93801e-06 1.75235e-06 0 -3.44144e-06 1.58675e-06 0 -2.98887e-06 1.44685e-06 0 -2.57362e-06 1.32765e-06 0 -2.18974e-06 1.23017e-06 0 -1.83196e-06 1.14858e-06 0 -1.49571e-06 1.08211e-06 0 -1.17669e-06 1.03034e-06 0 -8.71098e-07 9.90326e-07 0 -5.75378e-07 9.62855e-07 0 -2.86079e-07 9.46606e-07 0 2.13846e-19 9.40506e-07 0 -2.83034e-05 -6.00321e-05 0 -5.19854e-05 -2.90799e-05 0 -5.06018e-05 -5.57959e-06 0 -4.29704e-05 5.25396e-06 0 -3.58262e-05 9.17988e-06 0 -3.01092e-05 1.00202e-05 0 -2.55865e-05 9.58214e-06 0 -2.19457e-05 8.66882e-06 0 -1.89577e-05 7.6396e-06 0 -1.64653e-05 6.64737e-06 0 -1.43626e-05 5.74989e-06 0 -1.25711e-05 4.97457e-06 0 -1.10333e-05 4.30206e-06 0 -9.70515e-06 3.73424e-06 0 -8.55058e-06 3.25394e-06 0 -7.54168e-06 2.84288e-06 0 -6.65517e-06 2.50188e-06 0 -5.87177e-06 2.21024e-06 0 -5.17591e-06 1.96254e-06 0 -4.55408e-06 1.75506e-06 0 -3.99519e-06 1.57705e-06 0 -3.48981e-06 1.42757e-06 0 -3.02965e-06 1.30133e-06 0 -2.60782e-06 1.1938e-06 0 -2.21816e-06 1.10589e-06 0 -1.85526e-06 1.03232e-06 0 -1.5144e-06 9.72403e-07 0 -1.1912e-06 9.25739e-07 0 -8.8172e-07 8.89678e-07 0 -5.82339e-07 8.64923e-07 0 -2.89524e-07 8.50283e-07 0 0 8.44786e-07 0 -2.18954e-05 -4.77881e-05 0 -4.31222e-05 -2.61532e-05 0 -4.54977e-05 -7.10214e-06 0 -4.0784e-05 3.01803e-06 0 -3.51048e-05 7.20067e-06 0 -3.00449e-05 8.40128e-06 0 -2.5794e-05 8.26275e-06 0 -2.2247e-05 7.58104e-06 0 -1.92725e-05 6.73082e-06 0 -1.67597e-05 5.88115e-06 0 -1.46243e-05 5.09891e-06 0 -1.27977e-05 4.41627e-06 0 -1.1227e-05 3.82136e-06 0 -9.86958e-06 3.31752e-06 0 -8.68973e-06 2.89066e-06 0 -7.65933e-06 2.52504e-06 0 -6.75466e-06 2.2216e-06 0 -5.95597e-06 1.96207e-06 0 -5.24723e-06 1.74166e-06 0 -4.61451e-06 1.55707e-06 0 -4.04637e-06 1.39873e-06 0 -3.53309e-06 1.26581e-06 0 -3.06614e-06 1.15358e-06 0 -2.63841e-06 1.058e-06 0 -2.24358e-06 9.79893e-07 0 -1.87609e-06 9.14531e-07 0 -1.53112e-06 8.61308e-07 0 -1.20416e-06 8.19866e-07 0 -8.91212e-07 7.87842e-07 0 -5.8856e-07 7.65862e-07 0 -2.92603e-07 7.52863e-07 0 0 7.47983e-07 0 -1.76004e-05 -3.80243e-05 0 -3.64443e-05 -2.26689e-05 0 -4.10804e-05 -7.55455e-06 0 -3.86625e-05 1.42981e-06 0 -3.43053e-05 5.53715e-06 0 -2.98903e-05 6.92326e-06 0 -2.59244e-05 6.99969e-06 0 -2.24859e-05 6.51e-06 0 -1.95369e-05 5.82123e-06 0 -1.70131e-05 5.10674e-06 0 -1.48522e-05 4.43732e-06 0 -1.29964e-05 3.84739e-06 0 -1.13975e-05 3.33095e-06 0 -1.00145e-05 2.89229e-06 0 -8.81254e-06 2.52007e-06 0 -7.76323e-06 2.20101e-06 0 -6.84255e-06 1.9361e-06 0 -6.03035e-06 1.7095e-06 0 -5.31022e-06 1.51707e-06 0 -4.66788e-06 1.35594e-06 0 -4.09156e-06 1.21774e-06 0 -3.5713e-06 1.10176e-06 0 -3.09833e-06 1.00385e-06 0 -2.66539e-06 9.20484e-07 0 -2.266e-06 8.52369e-07 0 -1.89446e-06 7.95381e-07 0 -1.54586e-06 7.48984e-07 0 -1.21559e-06 7.12862e-07 0 -8.99581e-07 6.84953e-07 0 -5.94044e-07 6.65798e-07 0 -2.95316e-07 6.5447e-07 0 2.1461e-20 6.50218e-07 0 -1.46626e-05 -3.00006e-05 0 -3.14634e-05 -1.90148e-05 0 -3.74022e-05 -7.25489e-06 0 -3.67219e-05 3.84608e-07 0 -3.34997e-05 4.16569e-06 0 -2.9682e-05 5.58435e-06 0 -2.59952e-05 5.79587e-06 0 -2.26702e-05 5.45911e-06 0 -1.97539e-05 4.91384e-06 0 -1.72262e-05 4.32666e-06 0 -1.50462e-05 3.7672e-06 0 -1.31667e-05 3.26963e-06 0 -1.1544e-05 2.83222e-06 0 -1.01394e-05 2.45969e-06 0 -8.91846e-06 2.14312e-06 0 -7.85287e-06 1.87158e-06 0 -6.9184e-06 1.64604e-06 0 -6.09455e-06 1.45309e-06 0 -5.36459e-06 1.28924e-06 0 -4.71392e-06 1.15205e-06 0 -4.13054e-06 1.03441e-06 0 -3.60425e-06 9.35695e-07 0 -3.1261e-06 8.52382e-07 0 -2.68866e-06 7.81454e-07 0 -2.28532e-06 7.23513e-07 0 -1.9103e-06 6.75044e-07 0 -1.55856e-06 6.35588e-07 0 -1.22544e-06 6.04874e-07 0 -9.06791e-07 5.81144e-07 0 -5.98769e-07 5.64859e-07 0 -2.97654e-07 5.55229e-07 0 0 5.51615e-07 0 -1.26224e-05 -2.3207e-05 0 -2.77818e-05 -1.53721e-05 0 -3.44428e-05 -6.44117e-06 0 -3.50387e-05 -2.24188e-07 0 -3.27483e-05 3.05071e-06 0 -2.94546e-05 4.37464e-06 0 -2.60241e-05 4.64981e-06 0 -2.28085e-05 4.42954e-06 0 -1.99276e-05 4.01057e-06 0 -1.74008e-05 3.54289e-06 0 -1.52068e-05 3.09038e-06 0 -1.33085e-05 2.6846e-06 0 -1.16665e-05 2.32655e-06 0 -1.0244e-05 2.02088e-06 0 -9.00719e-06 1.7608e-06 0 -7.92801e-06 1.53757e-06 0 -6.98198e-06 1.35209e-06 0 -6.14836e-06 1.19339e-06 0 -5.41016e-06 1.05863e-06 0 -4.75252e-06 9.45812e-07 0 -4.16321e-06 8.49079e-07 0 -3.63186e-06 7.67922e-07 0 -3.14936e-06 6.99435e-07 0 -2.70815e-06 6.41138e-07 0 -2.30151e-06 5.93523e-07 0 -1.92356e-06 5.53697e-07 0 -1.5692e-06 5.2128e-07 0 -1.23369e-06 4.96047e-07 0 -9.12827e-07 4.76554e-07 0 -6.02724e-07 4.63178e-07 0 -2.99611e-07 4.55268e-07 0 0 4.52299e-07 0 -1.12091e-05 -1.72816e-05 0 -2.51146e-05 -1.18127e-05 0 -3.21566e-05 -5.28471e-06 0 -3.36596e-05 -4.96261e-07 0 -3.20976e-05 2.14948e-06 0 -2.92372e-05 3.27789e-06 0 -2.60269e-05 3.55621e-06 0 -2.29086e-05 3.42044e-06 0 -2.00615e-05 3.11226e-06 0 -1.75383e-05 2.7569e-06 0 -1.53346e-05 2.40846e-06 0 -1.34218e-05 2.0938e-06 0 -1.17646e-05 1.81527e-06 0 -1.03279e-05 1.57701e-06 0 -9.07849e-06 1.37408e-06 0 -7.98842e-06 1.1998e-06 0 -7.03311e-06 1.05495e-06 0 -6.19164e-06 9.31005e-07 0 -5.4468e-06 8.25756e-07 0 -4.78355e-06 7.37646e-07 0 -4.18947e-06 6.62109e-07 0 -3.65406e-06 5.98741e-07 0 -3.16805e-06 5.45273e-07 0 -2.72381e-06 4.99766e-07 0 -2.31451e-06 4.62601e-07 0 -1.93421e-06 4.31519e-07 0 -1.57774e-06 4.06221e-07 0 -1.24031e-06 3.86532e-07 0 -9.17675e-07 3.71322e-07 0 -6.05901e-07 3.60885e-07 0 -3.01183e-07 3.54714e-07 0 0 3.52397e-07 0 -1.02585e-05 -1.1957e-05 0 -2.32631e-05 -8.35164e-06 0 -3.04932e-05 -3.90654e-06 0 -3.26108e-05 -5.20979e-07 0 -3.15821e-05 1.41568e-06 0 -2.90535e-05 2.27316e-06 0 -2.60168e-05 2.50665e-06 0 -2.29774e-05 2.42917e-06 0 -2.0159e-05 2.21885e-06 0 -1.76402e-05 1.96972e-06 0 -1.543e-05 1.72282e-06 0 -1.35068e-05 1.49862e-06 0 -1.18384e-05 1.29967e-06 0 -1.0391e-05 1.12923e-06 0 -9.13216e-06 9.83933e-07 0 -8.03391e-06 8.59101e-07 0 -7.07162e-06 7.5532e-07 0 -6.22423e-06 6.66513e-07 0 -5.4744e-06 5.911e-07 0 -4.80692e-06 5.27972e-07 0 -4.20925e-06 4.73855e-07 0 -3.67077e-06 4.28461e-07 0 -3.18213e-06 3.90162e-07 0 -2.73559e-06 3.57568e-07 0 -2.3243e-06 3.30951e-07 0 -1.94223e-06 3.08693e-07 0 -1.58417e-06 2.90577e-07 0 -1.2453e-06 2.76479e-07 0 -9.21324e-07 2.65589e-07 0 -6.08291e-07 2.58116e-07 0 -3.02366e-07 2.53698e-07 0 2.31077e-21 2.5204e-07 0 -9.67085e-06 -7.02598e-06 0 -2.20945e-05 -4.97439e-06 0 -2.94092e-05 -2.3924e-06 0 -3.19059e-05 -3.77433e-07 0 -3.12256e-05 8.01596e-07 0 -2.89211e-05 1.33623e-06 0 -2.60042e-05 1.49025e-06 0 -2.30202e-05 1.45169e-06 0 -2.02225e-05 1.32952e-06 0 -1.77075e-05 1.18198e-06 0 -1.54935e-05 1.03466e-06 0 -1.35635e-05 9.00377e-07 0 -1.18876e-05 7.8102e-07 0 -1.04332e-05 6.78652e-07 0 -9.16807e-06 5.91338e-07 0 -8.06434e-06 5.16301e-07 0 -7.09739e-06 4.53907e-07 0 -6.24605e-06 4.00513e-07 0 -5.49287e-06 3.55171e-07 0 -4.82256e-06 3.17217e-07 0 -4.22249e-06 2.84682e-07 0 -3.68195e-06 2.57392e-07 0 -3.19154e-06 2.3437e-07 0 -2.74348e-06 2.14778e-07 0 -2.33085e-06 1.9878e-07 0 -1.94759e-06 1.85402e-07 0 -1.58847e-06 1.74514e-07 0 -1.24863e-06 1.66042e-07 0 -9.23764e-07 1.59497e-07 0 -6.0989e-07 1.55007e-07 0 -3.03157e-07 1.52351e-07 0 0 1.51355e-07 0 -9.38913e-06 -2.31791e-06 0 -2.15276e-05 -1.65184e-06 0 -2.88733e-05 -8.05137e-07 0 -3.15509e-05 -1.36441e-07 0 -3.10431e-05 2.59238e-07 0 -2.88517e-05 4.40761e-07 0 -2.59961e-05 4.94425e-07 0 -2.30407e-05 4.82906e-07 0 -2.02539e-05 4.42863e-07 0 -1.77411e-05 3.9401e-07 0 -1.55252e-05 3.45045e-07 0 -1.35919e-05 3.00325e-07 0 -1.19124e-05 2.60542e-07 0 -1.04544e-05 2.26403e-07 0 -9.18612e-06 1.97276e-07 0 -8.07964e-06 1.7224e-07 0 -7.11034e-06 1.51421e-07 0 -6.25701e-06 1.33605e-07 0 -5.50215e-06 1.18476e-07 0 -4.83042e-06 1.05811e-07 0 -4.22914e-06 9.49555e-08 0 -3.68757e-06 8.58502e-08 0 -3.19628e-06 7.81689e-08 0 -2.74745e-06 7.16322e-08 0 -2.33414e-06 6.62948e-08 0 -1.95029e-06 6.18316e-08 0 -1.59063e-06 5.81995e-08 0 -1.25031e-06 5.5373e-08 0 -9.2499e-07 5.31897e-08 0 -6.10693e-07 5.16917e-08 0 -3.03554e-07 5.08059e-08 0 0 5.04734e-08 0 -9.38913e-06 2.31791e-06 0 -2.15276e-05 1.65184e-06 0 -2.88733e-05 8.05137e-07 0 -3.15509e-05 1.36441e-07 0 -3.10431e-05 -2.59238e-07 0 -2.88517e-05 -4.40761e-07 0 -2.59961e-05 -4.94425e-07 0 -2.30407e-05 -4.82906e-07 0 -2.02539e-05 -4.42863e-07 0 -1.77411e-05 -3.9401e-07 0 -1.55252e-05 -3.45045e-07 0 -1.35919e-05 -3.00325e-07 0 -1.19124e-05 -2.60542e-07 0 -1.04544e-05 -2.26403e-07 0 -9.18612e-06 -1.97276e-07 0 -8.07964e-06 -1.7224e-07 0 -7.11034e-06 -1.51421e-07 0 -6.25701e-06 -1.33605e-07 0 -5.50215e-06 -1.18476e-07 0 -4.83042e-06 -1.05811e-07 0 -4.22914e-06 -9.49555e-08 0 -3.68757e-06 -8.58502e-08 0 -3.19628e-06 -7.81689e-08 0 -2.74745e-06 -7.16322e-08 0 -2.33414e-06 -6.62948e-08 0 -1.95029e-06 -6.18316e-08 0 -1.59063e-06 -5.81995e-08 0 -1.25031e-06 -5.5373e-08 0 -9.2499e-07 -5.31897e-08 0 -6.10693e-07 -5.16917e-08 0 -3.03554e-07 -5.08059e-08 0 0 -5.04734e-08 0 -9.67085e-06 7.02598e-06 0 -2.20945e-05 4.97439e-06 0 -2.94092e-05 2.3924e-06 0 -3.19059e-05 3.77433e-07 0 -3.12256e-05 -8.01596e-07 0 -2.89211e-05 -1.33623e-06 0 -2.60042e-05 -1.49025e-06 0 -2.30202e-05 -1.45169e-06 0 -2.02225e-05 -1.32952e-06 0 -1.77075e-05 -1.18198e-06 0 -1.54935e-05 -1.03466e-06 0 -1.35635e-05 -9.00377e-07 0 -1.18876e-05 -7.8102e-07 0 -1.04332e-05 -6.78652e-07 0 -9.16807e-06 -5.91338e-07 0 -8.06434e-06 -5.16301e-07 0 -7.09739e-06 -4.53907e-07 0 -6.24605e-06 -4.00513e-07 0 -5.49287e-06 -3.55171e-07 0 -4.82256e-06 -3.17217e-07 0 -4.22249e-06 -2.84682e-07 0 -3.68195e-06 -2.57392e-07 0 -3.19154e-06 -2.3437e-07 0 -2.74348e-06 -2.14778e-07 0 -2.33085e-06 -1.9878e-07 0 -1.94759e-06 -1.85402e-07 0 -1.58847e-06 -1.74514e-07 0 -1.24863e-06 -1.66042e-07 0 -9.23764e-07 -1.59497e-07 0 -6.0989e-07 -1.55007e-07 0 -3.03157e-07 -1.52351e-07 0 0 -1.51355e-07 0 -1.02585e-05 1.1957e-05 0 -2.32631e-05 8.35164e-06 0 -3.04932e-05 3.90654e-06 0 -3.26108e-05 5.20979e-07 0 -3.15821e-05 -1.41568e-06 0 -2.90535e-05 -2.27316e-06 0 -2.60168e-05 -2.50665e-06 0 -2.29774e-05 -2.42917e-06 0 -2.0159e-05 -2.21885e-06 0 -1.76402e-05 -1.96972e-06 0 -1.543e-05 -1.72282e-06 0 -1.35068e-05 -1.49862e-06 0 -1.18384e-05 -1.29967e-06 0 -1.0391e-05 -1.12923e-06 0 -9.13216e-06 -9.83933e-07 0 -8.03391e-06 -8.59101e-07 0 -7.07162e-06 -7.5532e-07 0 -6.22423e-06 -6.66513e-07 0 -5.4744e-06 -5.911e-07 0 -4.80692e-06 -5.27972e-07 0 -4.20925e-06 -4.73855e-07 0 -3.67077e-06 -4.28461e-07 0 -3.18213e-06 -3.90162e-07 0 -2.73559e-06 -3.57568e-07 0 -2.3243e-06 -3.30951e-07 0 -1.94223e-06 -3.08693e-07 0 -1.58417e-06 -2.90577e-07 0 -1.2453e-06 -2.76479e-07 0 -9.21324e-07 -2.65589e-07 0 -6.08291e-07 -2.58116e-07 0 -3.02366e-07 -2.53698e-07 0 0 -2.5204e-07 0 -1.12091e-05 1.72816e-05 0 -2.51146e-05 1.18127e-05 0 -3.21566e-05 5.28471e-06 0 -3.36596e-05 4.96261e-07 0 -3.20976e-05 -2.14948e-06 0 -2.92372e-05 -3.27789e-06 0 -2.60269e-05 -3.55621e-06 0 -2.29086e-05 -3.42044e-06 0 -2.00615e-05 -3.11226e-06 0 -1.75383e-05 -2.7569e-06 0 -1.53346e-05 -2.40846e-06 0 -1.34218e-05 -2.0938e-06 0 -1.17646e-05 -1.81527e-06 0 -1.03279e-05 -1.57701e-06 0 -9.07849e-06 -1.37408e-06 0 -7.98842e-06 -1.1998e-06 0 -7.03311e-06 -1.05495e-06 0 -6.19164e-06 -9.31005e-07 0 -5.4468e-06 -8.25756e-07 0 -4.78355e-06 -7.37646e-07 0 -4.18947e-06 -6.62109e-07 0 -3.65406e-06 -5.98741e-07 0 -3.16805e-06 -5.45273e-07 0 -2.72381e-06 -4.99766e-07 0 -2.31451e-06 -4.62601e-07 0 -1.93421e-06 -4.31519e-07 0 -1.57774e-06 -4.06221e-07 0 -1.24031e-06 -3.86532e-07 0 -9.17675e-07 -3.71322e-07 0 -6.05901e-07 -3.60885e-07 0 -3.01183e-07 -3.54714e-07 0 -1.0985e-20 -3.52397e-07 0 -1.26224e-05 2.3207e-05 0 -2.77818e-05 1.53721e-05 0 -3.44428e-05 6.44117e-06 0 -3.50387e-05 2.24188e-07 0 -3.27483e-05 -3.05071e-06 0 -2.94546e-05 -4.37464e-06 0 -2.60241e-05 -4.64981e-06 0 -2.28085e-05 -4.42954e-06 0 -1.99276e-05 -4.01057e-06 0 -1.74008e-05 -3.54289e-06 0 -1.52068e-05 -3.09038e-06 0 -1.33085e-05 -2.6846e-06 0 -1.16665e-05 -2.32655e-06 0 -1.0244e-05 -2.02088e-06 0 -9.00719e-06 -1.7608e-06 0 -7.92801e-06 -1.53757e-06 0 -6.98198e-06 -1.35209e-06 0 -6.14836e-06 -1.19339e-06 0 -5.41016e-06 -1.05863e-06 0 -4.75252e-06 -9.45812e-07 0 -4.16321e-06 -8.49079e-07 0 -3.63186e-06 -7.67922e-07 0 -3.14936e-06 -6.99435e-07 0 -2.70815e-06 -6.41138e-07 0 -2.30151e-06 -5.93523e-07 0 -1.92356e-06 -5.53697e-07 0 -1.5692e-06 -5.2128e-07 0 -1.23369e-06 -4.96047e-07 0 -9.12827e-07 -4.76554e-07 0 -6.02724e-07 -4.63178e-07 0 -2.99611e-07 -4.55268e-07 0 0 -4.52299e-07 0 -1.46626e-05 3.00006e-05 0 -3.14634e-05 1.90148e-05 0 -3.74022e-05 7.25489e-06 0 -3.67219e-05 -3.84608e-07 0 -3.34997e-05 -4.16569e-06 0 -2.9682e-05 -5.58435e-06 0 -2.59952e-05 -5.79587e-06 0 -2.26702e-05 -5.45911e-06 0 -1.97539e-05 -4.91384e-06 0 -1.72262e-05 -4.32666e-06 0 -1.50462e-05 -3.7672e-06 0 -1.31667e-05 -3.26963e-06 0 -1.1544e-05 -2.83222e-06 0 -1.01394e-05 -2.45969e-06 0 -8.91846e-06 -2.14312e-06 0 -7.85287e-06 -1.87158e-06 0 -6.9184e-06 -1.64604e-06 0 -6.09455e-06 -1.45309e-06 0 -5.36459e-06 -1.28924e-06 0 -4.71392e-06 -1.15205e-06 0 -4.13054e-06 -1.03441e-06 0 -3.60425e-06 -9.35695e-07 0 -3.1261e-06 -8.52382e-07 0 -2.68866e-06 -7.81454e-07 0 -2.28532e-06 -7.23513e-07 0 -1.9103e-06 -6.75044e-07 0 -1.55856e-06 -6.35588e-07 0 -1.22544e-06 -6.04874e-07 0 -9.06791e-07 -5.81144e-07 0 -5.98769e-07 -5.64859e-07 0 -2.97654e-07 -5.55229e-07 0 0 -5.51615e-07 0 -1.76004e-05 3.80243e-05 0 -3.64443e-05 2.26689e-05 0 -4.10804e-05 7.55455e-06 0 -3.86625e-05 -1.42981e-06 0 -3.43053e-05 -5.53715e-06 0 -2.98903e-05 -6.92326e-06 0 -2.59244e-05 -6.99969e-06 0 -2.24859e-05 -6.51e-06 0 -1.95369e-05 -5.82123e-06 0 -1.70131e-05 -5.10674e-06 0 -1.48522e-05 -4.43732e-06 0 -1.29964e-05 -3.84739e-06 0 -1.13975e-05 -3.33095e-06 0 -1.00145e-05 -2.89229e-06 0 -8.81254e-06 -2.52007e-06 0 -7.76323e-06 -2.20101e-06 0 -6.84255e-06 -1.9361e-06 0 -6.03035e-06 -1.7095e-06 0 -5.31022e-06 -1.51707e-06 0 -4.66788e-06 -1.35594e-06 0 -4.09156e-06 -1.21774e-06 0 -3.5713e-06 -1.10176e-06 0 -3.09833e-06 -1.00385e-06 0 -2.66539e-06 -9.20484e-07 0 -2.266e-06 -8.52369e-07 0 -1.89446e-06 -7.95381e-07 0 -1.54586e-06 -7.48984e-07 0 -1.21559e-06 -7.12862e-07 0 -8.99581e-07 -6.84953e-07 0 -5.94044e-07 -6.65798e-07 0 -2.95316e-07 -6.5447e-07 0 0 -6.50218e-07 0 -2.18954e-05 4.77881e-05 0 -4.31222e-05 2.61532e-05 0 -4.54977e-05 7.10214e-06 0 -4.0784e-05 -3.01803e-06 0 -3.51048e-05 -7.20067e-06 0 -3.00449e-05 -8.40128e-06 0 -2.5794e-05 -8.26275e-06 0 -2.2247e-05 -7.58104e-06 0 -1.92725e-05 -6.73082e-06 0 -1.67597e-05 -5.88115e-06 0 -1.46243e-05 -5.09891e-06 0 -1.27977e-05 -4.41627e-06 0 -1.1227e-05 -3.82136e-06 0 -9.86958e-06 -3.31752e-06 0 -8.68973e-06 -2.89066e-06 0 -7.65933e-06 -2.52504e-06 0 -6.75466e-06 -2.2216e-06 0 -5.95597e-06 -1.96207e-06 0 -5.24723e-06 -1.74166e-06 0 -4.61451e-06 -1.55707e-06 0 -4.04637e-06 -1.39873e-06 0 -3.53309e-06 -1.26581e-06 0 -3.06614e-06 -1.15358e-06 0 -2.63841e-06 -1.058e-06 0 -2.24358e-06 -9.79893e-07 0 -1.87609e-06 -9.14531e-07 0 -1.53112e-06 -8.61308e-07 0 -1.20416e-06 -8.19866e-07 0 -8.91212e-07 -7.87842e-07 0 -5.8856e-07 -7.65862e-07 0 -2.92603e-07 -7.52863e-07 0 3.29171e-20 -7.47983e-07 0 -2.83034e-05 6.00321e-05 0 -5.19854e-05 2.90799e-05 0 -5.06018e-05 5.57959e-06 0 -4.29704e-05 -5.25396e-06 0 -3.58262e-05 -9.17988e-06 0 -3.01092e-05 -1.00202e-05 0 -2.55865e-05 -9.58214e-06 0 -2.19457e-05 -8.66882e-06 0 -1.89577e-05 -7.6396e-06 0 -1.64653e-05 -6.64737e-06 0 -1.43626e-05 -5.74989e-06 0 -1.25711e-05 -4.97457e-06 0 -1.10333e-05 -4.30206e-06 0 -9.70515e-06 -3.73424e-06 0 -8.55058e-06 -3.25394e-06 0 -7.54168e-06 -2.84288e-06 0 -6.65517e-06 -2.50188e-06 0 -5.87177e-06 -2.21024e-06 0 -5.17591e-06 -1.96254e-06 0 -4.55408e-06 -1.75506e-06 0 -3.99519e-06 -1.57705e-06 0 -3.48981e-06 -1.42757e-06 0 -3.02965e-06 -1.30133e-06 0 -2.60782e-06 -1.1938e-06 0 -2.21816e-06 -1.10589e-06 0 -1.85526e-06 -1.03232e-06 0 -1.5144e-06 -9.72403e-07 0 -1.1912e-06 -9.25739e-07 0 -8.8172e-07 -8.89678e-07 0 -5.82339e-07 -8.64923e-07 0 -2.89524e-07 -8.50283e-07 0 0 -8.44786e-07 0 -3.83647e-05 7.58549e-05 0 -6.37376e-05 3.06785e-05 0 -5.62415e-05 2.59018e-06 0 -4.5055e-05 -8.22414e-06 0 -3.63801e-05 -1.14805e-05 0 -3.00397e-05 -1.17723e-05 0 -2.5281e-05 -1.09502e-05 0 -2.1572e-05 -9.76761e-06 0 -1.85876e-05 -8.54343e-06 0 -1.61275e-05 -7.40236e-06 0 -1.40661e-05 -6.38796e-06 0 -1.2316e-05 -5.52048e-06 0 -1.08162e-05 -4.7716e-06 0 -9.52123e-06 -4.14126e-06 0 -8.39513e-06 -3.60896e-06 0 -7.41033e-06 -3.15375e-06 0 -6.5441e-06 -2.77628e-06 0 -5.77776e-06 -2.45346e-06 0 -5.09627e-06 -2.17925e-06 0 -4.48659e-06 -1.94951e-06 0 -3.93801e-06 -1.75235e-06 0 -3.44144e-06 -1.58675e-06 0 -2.98887e-06 -1.44685e-06 0 -2.57362e-06 -1.32765e-06 0 -2.18974e-06 -1.23017e-06 0 -1.83196e-06 -1.14858e-06 0 -1.49571e-06 -1.08211e-06 0 -1.17669e-06 -1.03034e-06 0 -8.71098e-07 -9.90326e-07 0 -5.75378e-07 -9.62855e-07 0 -2.86079e-07 -9.46606e-07 0 0 -9.40506e-07 0 -5.49539e-05 9.68801e-05 0 -7.89667e-05 2.94984e-05 0 -6.20336e-05 -2.30302e-06 0 -4.68186e-05 -1.19723e-05 0 -3.66735e-05 -1.40841e-05 0 -2.97975e-05 -1.36386e-05 0 -2.48611e-05 -1.23542e-05 0 -2.1119e-05 -1.08694e-05 0 -1.816e-05 -9.43713e-06 0 -1.57459e-05 -8.14258e-06 0 -1.37352e-05 -7.01061e-06 0 -1.20333e-05 -6.0521e-06 0 -1.05764e-05 -5.22852e-06 0 -9.31861e-06 -4.53744e-06 0 -8.22406e-06 -3.95478e-06 0 -7.26585e-06 -3.45689e-06 0 -6.42195e-06 -3.04417e-06 0 -5.67438e-06 -2.6912e-06 0 -5.00868e-06 -2.39135e-06 0 -4.41233e-06 -2.14005e-06 0 -3.87508e-06 -1.92433e-06 0 -3.38819e-06 -1.74307e-06 0 -2.94396e-06 -1.5899e-06 0 -2.53595e-06 -1.45934e-06 0 -2.15843e-06 -1.35256e-06 0 -1.80628e-06 -1.26314e-06 0 -1.47509e-06 -1.19029e-06 0 -1.1607e-06 -1.13353e-06 0 -8.59385e-07 -1.08966e-06 0 -5.677e-07 -1.05953e-06 0 -2.8228e-07 -1.04171e-06 0 6.83237e-20 -1.03502e-06 0 -8.42466e-05 0.000125341 0 -9.77864e-05 2.29976e-05 0 -6.73136e-05 -9.46721e-06 0 -4.80019e-05 -1.64683e-05 0 -3.66125e-05 -1.6943e-05 0 -2.93461e-05 -1.55891e-05 0 -2.43119e-05 -1.37771e-05 0 -2.05809e-05 -1.19643e-05 0 -1.76726e-05 -1.03146e-05 0 -1.53202e-05 -8.86409e-06 0 -1.33703e-05 -7.61515e-06 0 -1.17235e-05 -6.56748e-06 0 -1.03147e-05 -5.67137e-06 0 -9.0979e-06 -4.92163e-06 0 -8.03794e-06 -4.2905e-06 0 -7.10873e-06 -3.75156e-06 0 -6.28914e-06 -3.30494e-06 0 -5.56195e-06 -2.92297e-06 0 -4.91339e-06 -2.59842e-06 0 -4.33153e-06 -2.32632e-06 0 -3.80659e-06 -2.09267e-06 0 -3.33021e-06 -1.89628e-06 0 -2.89504e-06 -1.73025e-06 0 -2.49491e-06 -1.58869e-06 0 -2.12429e-06 -1.47286e-06 0 -1.77829e-06 -1.37585e-06 0 -1.45261e-06 -1.29679e-06 0 -1.14325e-06 -1.23518e-06 0 -8.46609e-07 -1.18755e-06 0 -5.59325e-07 -1.15484e-06 0 -2.78135e-07 -1.13549e-06 0 0 -1.12822e-06 0 -0.000140915 0.000163208 0 -0.000118548 7.32773e-06 0 -7.10937e-05 -1.89923e-05 0 -4.83306e-05 -2.15797e-05 0 -3.6112e-05 -1.99785e-05 0 -2.86552e-05 -1.75831e-05 0 -2.36219e-05 -1.51974e-05 0 -1.99533e-05 -1.30404e-05 0 -1.71241e-05 -1.11688e-05 0 -1.48503e-05 -9.56263e-06 0 -1.29719e-05 -8.19877e-06 0 -1.13875e-05 -7.06464e-06 0 -1.00318e-05 -6.09867e-06 0 -8.85977e-06 -5.29271e-06 0 -7.83731e-06 -4.61522e-06 0 -6.93945e-06 -4.03705e-06 0 -6.14605e-06 -3.55801e-06 0 -5.4408e-06 -3.14828e-06 0 -4.81068e-06 -2.80004e-06 0 -4.24441e-06 -2.50798e-06 0 -3.7327e-06 -2.25709e-06 0 -3.26764e-06 -2.04611e-06 0 -2.84223e-06 -1.86767e-06 0 -2.45058e-06 -1.71549e-06 0 -2.08742e-06 -1.59091e-06 0 -1.74804e-06 -1.48655e-06 0 -1.42832e-06 -1.40146e-06 0 -1.1244e-06 -1.33515e-06 0 -8.32796e-07 -1.28387e-06 0 -5.50269e-07 -1.24865e-06 0 -2.73652e-07 -1.22781e-06 0 -2.14756e-19 -1.21999e-06 0 -0.00026447 0.000204624 0 -0.000135492 -2.13566e-05 0 -7.22253e-05 -3.04221e-05 0 -4.75755e-05 -2.70577e-05 0 -3.51128e-05 -2.30836e-05 0 -2.77068e-05 -1.95716e-05 0 -2.27852e-05 -1.65908e-05 0 -1.92349e-05 -1.40849e-05 0 -1.6515e-05 -1.19926e-05 0 -1.43372e-05 -1.02337e-05 0 -1.25412e-05 -8.75861e-06 0 -1.10262e-05 -7.54159e-06 0 -9.72866e-06 -6.509e-06 0 -8.60507e-06 -5.64961e-06 0 -7.62293e-06 -4.92811e-06 0 -6.75861e-06 -4.31268e-06 0 -5.99318e-06 -3.80283e-06 0 -5.31135e-06 -3.36667e-06 0 -4.7009e-06 -2.99585e-06 0 -4.15124e-06 -2.6847e-06 0 -3.65365e-06 -2.4173e-06 0 -3.20067e-06 -2.19233e-06 0 -2.78568e-06 -2.00197e-06 0 -2.4031e-06 -1.83955e-06 0 -2.04791e-06 -1.70655e-06 0 -1.71561e-06 -1.59508e-06 0 -1.40227e-06 -1.50418e-06 0 -1.10418e-06 -1.43331e-06 0 -8.17979e-07 -1.3785e-06 0 -5.40553e-07 -1.34085e-06 0 -2.68843e-07 -1.31858e-06 0 -1.44149e-19 -1.31021e-06 0 -0.000581075 0.000198244 0 -0.000137814 -6.15001e-05 0 -6.97875e-05 -4.25973e-05 0 -4.56056e-05 -3.25553e-05 0 -3.35893e-05 -2.61316e-05 0 -2.64954e-05 -2.15001e-05 0 -2.18016e-05 -1.79314e-05 0 -1.84268e-05 -1.50842e-05 0 -1.58468e-05 -1.27782e-05 0 -1.37826e-05 -1.08729e-05 0 -1.20795e-05 -9.29183e-06 0 -1.06409e-05 -7.9964e-06 0 -9.40638e-06 -6.90098e-06 0 -8.33471e-06 -5.9913e-06 0 -7.39553e-06 -5.22836e-06 0 -6.56683e-06 -4.57783e-06 0 -5.83105e-06 -4.03888e-06 0 -5.17401e-06 -3.57771e-06 0 -4.58437e-06 -3.18546e-06 0 -4.0523e-06 -2.85617e-06 0 -3.56966e-06 -2.57304e-06 0 -3.12948e-06 -2.3347e-06 0 -2.72554e-06 -2.13294e-06 0 -2.35259e-06 -1.96071e-06 0 -2.00585e-06 -1.8196e-06 0 -1.68109e-06 -1.7013e-06 0 -1.37453e-06 -1.60481e-06 0 -1.08263e-06 -1.52955e-06 0 -8.02193e-07 -1.47134e-06 0 -5.30201e-07 -1.43134e-06 0 -2.63718e-07 -1.40767e-06 0 0 -1.39879e-06 0 0.00204009 -0.000389577 0 -0.000117761 -9.97489e-05 0 -6.35931e-05 -5.38645e-05 0 -4.24362e-05 -3.76817e-05 0 -3.15566e-05 -2.89903e-05 0 -2.503e-05 -2.33138e-05 0 -2.06766e-05 -1.91931e-05 0 -1.75327e-05 -1.6025e-05 0 -1.51222e-05 -1.35182e-05 0 -1.31886e-05 -1.14756e-05 0 -1.15887e-05 -9.79568e-06 0 -1.02332e-05 -8.42719e-06 0 -9.06616e-06 -7.27331e-06 0 -8.04968e-06 -6.31679e-06 0 -7.15593e-06 -5.51521e-06 0 -6.36478e-06 -4.83188e-06 0 -5.66019e-06 -4.26567e-06 0 -5.02922e-06 -3.781e-06 0 -4.46146e-06 -3.36855e-06 0 -3.94788e-06 -3.0221e-06 0 -3.48098e-06 -2.72405e-06 0 -3.05428e-06 -2.47301e-06 0 -2.66198e-06 -2.26038e-06 0 -2.29917e-06 -2.07878e-06 0 -1.96136e-06 -1.92993e-06 0 -1.64455e-06 -1.80509e-06 0 -1.34516e-06 -1.70322e-06 0 -1.05982e-06 -1.62375e-06 0 -7.85473e-07 -1.56226e-06 0 -5.19235e-07 -1.52001e-06 0 -2.58289e-07 -1.495e-06 0 0 -1.48561e-06 0 </DataArray> 
</PointData> 
<Points> 
<DataArray type="Float32" NumberOfComponents="3"> 