<?xml version="1.0"?> 
<VTKFile type="StructuredGrid" version="0.1"> 
<StructuredGrid WholeExtent="0 31 0 31 0 0"> 
<Piece Extent="0 31 0 31 0 0"> 
<PointData>
<DataArray type="Float32" Name="B" format="ascii" NumberOfComponents="3"> 
0 -2.34828e-06 0 -4.14529e-07 -2.36124e-06 0 -8.32936e-07 -2.39572e-06 0 -1.25906e-06 -2.4538e-06 0 -1.69699e-06 -2.53792e-06 0 -2.15087e-06 -2.64603e-06 0 -2.62507e-06 -2.78346e-06 0 -3.1244e-06 -2.95031e-06 0 -3.65386e-06 -3.14722e-06 0 -4.21905e-06 -3.38396e-06 0 -4.82619e-06 -3.6573e-06 0 -5.48205e-06 -3.97453e-06 0 -6.19462e-06 -4.34352e-06 0 -6.97285e-06 -4.76378e-06 0 -7.82722e-06 -5.25085e-06 0 -8.77061e-06 -5.80747e-06 0 -9.81823e-06 -6.43848e-06 0 -1.09899e-05 -7.16932e-06 0 -1.23113e-05 -7.99329e-06 0 -1.38169e-05 -8.92879e-06 0 -1.55578e-05 -9.99106e-06 0 -1.7608e-05 -1.11738e-05 0 -2.00834e-05 -1.25031e-05 0 -2.31788e-05 -1.39707e-05 0 -2.72165e-05 -1.5581e-05 0 -3.27876e-05 -1.73653e-05 0 -4.10095e-05 -1.94138e-05 0 -5.41892e-05 -2.20509e-05 0 -7.7725e-05 -2.64207e-05 0 -0.000127277 -3.71743e-05 0 -0.000272745 -8.41193e-05 0 -0.000809581 -0.00200822 0 0 -2.20911e-06 0 -4.22012e-07 -2.22135e-06 0 -8.48016e-07 -2.25388e-06 0 -1.28196e-06 -2.3087e-06 0 -1.72807e-06 -2.38809e-06 0 -2.1906e-06 -2.49012e-06 0 -2.67407e-06 -2.61984e-06 0 -3.18345e-06 -2.77735e-06 0 -3.72389e-06 -2.96325e-06 0 -4.30121e-06 -3.18675e-06 0 -4.92182e-06 -3.44481e-06 0 -5.59274e-06 -3.74427e-06 0 -6.32221e-06 -4.09251e-06 0 -7.11947e-06 -4.48899e-06 0 -7.99529e-06 -4.94812e-06 0 -8.96284e-06 -5.47218e-06 0 -1.00376e-05 -6.06526e-06 0 -1.12394e-05 -6.74989e-06 0 -1.25942e-05 -7.51844e-06 0 -1.41359e-05 -8.38479e-06 0 -1.59148e-05 -9.35704e-06 0 -1.80032e-05 -1.04219e-05 0 -2.05147e-05 -1.1581e-05 0 -2.36401e-05 -1.27973e-05 0 -2.76972e-05 -1.4018e-05 0 -3.32746e-05 -1.51459e-05 0 -4.1495e-05 -1.60171e-05 0 -5.47033e-05 -1.63454e-05 0 -7.84507e-05 -1.5518e-05 0 -0.000129049 -1.14251e-05 0 -0.000279361 1.38025e-05 0 -0.000833802 0.00108211 0 0 -2.06753e-06 0 -4.29055e-07 -2.07902e-06 0 -8.6221e-07 -2.10956e-06 0 -1.30352e-06 -2.16101e-06 0 -1.75732e-06 -2.23553e-06 0 -2.228e-06 -2.33132e-06 0 -2.72021e-06 -2.45311e-06 0 -3.23905e-06 -2.60099e-06 0 -3.78984e-06 -2.77554e-06 0 -4.37858e-06 -2.9854e-06 0 -5.01187e-06 -3.22771e-06 0 -5.69694e-06 -3.50886e-06 0 -6.44229e-06 -3.83571e-06 0 -7.25738e-06 -4.20768e-06 0 -8.15322e-06 -4.63806e-06 0 -9.14319e-06 -5.12869e-06 0 -1.02429e-05 -5.68289e-06 0 -1.14721e-05 -6.32039e-06 0 -1.28564e-05 -7.03274e-06 0 -1.44289e-05 -7.82945e-06 0 -1.62377e-05 -8.71186e-06 0 -1.83521e-05 -9.65999e-06 0 -2.08794e-05 -1.0652e-05 0 -2.4e-05 -1.16231e-05 0 -2.80145e-05 -1.24646e-05 0 -3.34793e-05 -1.29539e-05 0 -4.14547e-05 -1.26782e-05 0 -5.41318e-05 -1.07584e-05 0 -7.65461e-05 -4.91325e-06 0 -0.000122311 1.2968e-05 0 -0.000235344 9.22218e-05 0 -0.000236801 0.000660777 0 -4.93835e-20 -1.92369e-06 0 -4.35647e-07 -1.9344e-06 0 -8.75495e-07 -1.96289e-06 0 -1.3237e-06 -2.0109e-06 0 -1.78471e-06 -2.08043e-06 0 -2.26302e-06 -2.1698e-06 0 -2.76341e-06 -2.28344e-06 0 -3.2911e-06 -2.42144e-06 0 -3.85159e-06 -2.58433e-06 0 -4.45101e-06 -2.78018e-06 0 -5.09617e-06 -3.0063e-06 0 -5.79448e-06 -3.26862e-06 0 -6.55464e-06 -3.5735e-06 0 -7.38633e-06 -3.9203e-06 0 -8.30074e-06 -4.32121e-06 0 -9.31139e-06 -4.77762e-06 0 -1.04338e-05 -5.29219e-06 0 -1.16878e-05 -5.88192e-06 0 -1.30978e-05 -6.53766e-06 0 -1.46958e-05 -7.26489e-06 0 -1.65271e-05 -8.0587e-06 0 -1.86557e-05 -8.89312e-06 0 -2.11797e-05 -9.72465e-06 0 -2.42628e-05 -1.04631e-05 0 -2.81756e-05 -1.09482e-05 0 -3.34157e-05 -1.08428e-05 0 -4.09175e-05 -9.51118e-06 0 -5.25505e-05 -5.56481e-06 0 -7.22981e-05 4.57839e-06 0 -0.000108967 3.26534e-05 0 -0.000172982 0.000131534 0 -5.76419e-05 0.000453835 0 0 -1.77773e-06 0 -4.41777e-07 -1.78766e-06 0 -8.87848e-07 -1.81405e-06 0 -1.34247e-06 -1.85852e-06 0 -1.81017e-06 -1.92294e-06 0 -2.29558e-06 -2.00575e-06 0 -2.80358e-06 -2.11105e-06 0 -3.33952e-06 -2.23892e-06 0 -3.90902e-06 -2.38986e-06 0 -4.51838e-06 -2.57134e-06 0 -5.17457e-06 -2.78086e-06 0 -5.88517e-06 -3.02388e-06 0 -6.65907e-06 -3.30625e-06 0 -7.50611e-06 -3.62729e-06 0 -8.43763e-06 -3.99808e-06 0 -9.46719e-06 -4.41963e-06 0 -1.06103e-05 -4.89396e-06 0 -1.18861e-05 -5.4355e-06 0 -1.33185e-05 -6.03459e-06 0 -1.49372e-05 -6.69308e-06 0 -1.67839e-05 -7.40056e-06 0 -1.89158e-05 -8.12594e-06 0 -2.14193e-05 -8.80676e-06 0 -2.44353e-05 -9.33083e-06 0 -2.81936e-05 -9.49386e-06 0 -3.31097e-05 -8.86142e-06 0 -3.99411e-05 -6.61724e-06 0 -5.01141e-05 -9.95872e-07 0 -6.62625e-05 1.23609e-05 0 -9.20119e-05 4.60836e-05 0 -0.000116256 0.00014088 0 1.12748e-05 0.000327023 0 0 -1.62982e-06 0 -4.47432e-07 -1.63894e-06 0 -8.99245e-07 -1.66319e-06 0 -1.35978e-06 -1.70405e-06 0 -1.83367e-06 -1.76325e-06 0 -2.32563e-06 -1.83935e-06 0 -2.84064e-06 -1.93611e-06 0 -3.38419e-06 -2.05364e-06 0 -3.96202e-06 -2.19236e-06 0 -4.58055e-06 -2.35915e-06 0 -5.2469e-06 -2.55169e-06 0 -5.96883e-06 -2.77499e-06 0 -6.75536e-06 -3.03436e-06 0 -7.61649e-06 -3.32911e-06 0 -8.56363e-06 -3.66921e-06 0 -9.61036e-06 -4.05536e-06 0 -1.0772e-05 -4.48898e-06 0 -1.20671e-05 -4.98214e-06 0 -1.35184e-05 -5.52487e-06 0 -1.51533e-05 -6.11587e-06 0 -1.70091e-05 -6.74015e-06 0 -1.91351e-05 -7.36261e-06 0 -2.1603e-05 -7.90524e-06 0 -2.45265e-05 -8.23846e-06 0 -2.80861e-05 -8.12317e-06 0 -3.25969e-05 -7.05066e-06 0 -3.86048e-05 -4.07736e-06 0 -4.70303e-05 2.78414e-06 0 -5.91148e-05 1.81289e-05 0 -7.42193e-05 5.34129e-05 0 -7.24155e-05 0.000134155 0 4.0932e-05 0.000244644 0 1.68268e-19 -1.4801e-06 0 -4.52604e-07 -1.4884e-06 0 -9.0967e-07 -1.51047e-06 0 -1.37562e-06 -1.54766e-06 0 -1.85517e-06 -1.60153e-06 0 -2.35312e-06 -1.67078e-06 0 -2.87456e-06 -1.75885e-06 0 -3.42507e-06 -1.86582e-06 0 -4.0105e-06 -1.99208e-06 0 -4.63742e-06 -2.14388e-06 0 -5.31307e-06 -2.31911e-06 0 -6.04534e-06 -2.52229e-06 0 -6.84339e-06 -2.75822e-06 0 -7.71732e-06 -3.0262e-06 0 -8.67862e-06 -3.33514e-06 0 -9.7408e-06 -3.68544e-06 0 -1.09189e-05 -4.07802e-06 0 -1.22309e-05 -4.52279e-06 0 -1.3698e-05 -5.0097e-06 0 -1.53452e-05 -5.53489e-06 0 -1.72046e-05 -6.07981e-06 0 -1.93167e-05 -6.60665e-06 0 -2.17369e-05 -7.02584e-06 0 -2.45484e-05 -7.19573e-06 0 -2.78753e-05 -6.85334e-06 0 -3.19219e-05 -5.44169e-06 0 -3.70053e-05 -1.94746e-06 0 -4.3534e-05 5.68624e-06 0 -5.15138e-05 2.1848e-05 0 -5.74721e-05 5.57417e-05 0 -4.06081e-05 0.000120556 0 5.45063e-05 0.00018801 0 0 -1.32875e-06 0 -4.57285e-07 -1.33621e-06 0 -9.19105e-07 -1.35606e-06 0 -1.38995e-06 -1.38951e-06 0 -1.87462e-06 -1.43796e-06 0 -2.378e-06 -1.50026e-06 0 -2.90525e-06 -1.57948e-06 0 -3.46207e-06 -1.67569e-06 0 -4.05439e-06 -1.78926e-06 0 -4.6889e-06 -1.92581e-06 0 -5.37296e-06 -2.08341e-06 0 -6.11456e-06 -2.26613e-06 0 -6.92301e-06 -2.47823e-06 0 -7.80847e-06 -2.71903e-06 0 -8.78245e-06 -2.99639e-06 0 -9.85838e-06 -3.31047e-06 0 -1.1051e-05 -3.6618e-06 0 -1.23775e-05 -4.05834e-06 0 -1.38576e-05 -4.49019e-06 0 -1.55136e-05 -4.95156e-06 0 -1.73721e-05 -5.4215e-06 0 -1.94642e-05 -5.86086e-06 0 -2.1828e-05 -6.17291e-06 0 -2.45136e-05 -6.20979e-06 0 -2.7586e-05 -5.69638e-06 0 -3.11332e-05 -4.05455e-06 0 -3.52435e-05 -2.57018e-07 0 -3.9853e-05 7.69185e-06 0 -4.39978e-05 2.36794e-05 0 -4.27347e-05 5.44122e-05 0 -1.80604e-05 0.000104843 0 6.08061e-05 0.00014708 0 0 -1.17593e-06 0 -4.61461e-07 -1.18254e-06 0 -9.27521e-07 -1.20014e-06 0 -1.40274e-06 -1.22979e-06 0 -1.89198e-06 -1.27274e-06 0 -2.40019e-06 -1.32796e-06 0 -2.93263e-06 -1.39819e-06 0 -3.49507e-06 -1.48349e-06 0 -4.09354e-06 -1.58417e-06 0 -4.73482e-06 -1.70522e-06 0 -5.42637e-06 -1.84492e-06 0 -6.1763e-06 -2.00687e-06 0 -6.99398e-06 -2.19479e-06 0 -7.88966e-06 -2.40805e-06 0 -8.87486e-06 -2.65349e-06 0 -9.96286e-06 -2.93108e-06 0 -1.1168e-05 -3.24102e-06 0 -1.25069e-05 -3.58959e-06 0 -1.39975e-05 -3.9673e-06 0 -1.56593e-05 -4.36706e-06 0 -1.75135e-05 -4.76671e-06 0 -1.95814e-05 -5.12722e-06 0 -2.18832e-05 -5.34932e-06 0 -2.44357e-05 -5.28492e-06 0 -2.72437e-05 -4.65875e-06 0 -3.02807e-05 -2.89787e-06 0 -3.34196e-05 9.8948e-07 0 -3.61937e-05 8.83928e-06 0 -3.69668e-05 2.38916e-05 0 -3.03567e-05 5.06157e-05 0 -2.2294e-06 8.91756e-05 0 6.3591e-05 0.000116184 0 1.68626e-20 -1.0218e-06 0 -4.65136e-07 -1.02755e-06 0 -9.34928e-07 -1.04286e-06 0 -1.41399e-06 -1.06866e-06 0 -1.90725e-06 -1.10604e-06 0 -2.41973e-06 -1.15409e-06 0 -2.95674e-06 -1.21521e-06 0 -3.52413e-06 -1.28944e-06 0 -4.12801e-06 -1.37706e-06 0 -4.77524e-06 -1.4824e-06 0 -5.47338e-06 -1.60396e-06 0 -6.23062e-06 -1.74486e-06 0 -7.05641e-06 -1.90831e-06 0 -7.96104e-06 -2.09372e-06 0 -8.95602e-06 -2.30694e-06 0 -1.00545e-05 -2.54782e-06 0 -1.12705e-05 -2.81632e-06 0 -1.26196e-05 -3.11728e-06 0 -1.41186e-05 -3.44185e-06 0 -1.57839e-05 -3.7823e-06 0 -1.76315e-05 -4.11647e-06 0 -1.96729e-05 -4.40689e-06 0 -2.19109e-05 -4.55634e-06 0 -2.43296e-05 -4.42248e-06 0 -2.68758e-05 -3.74137e-06 0 -2.94148e-05 -1.96938e-06 0 -3.16271e-05 1.80913e-06 0 -3.27228e-05 9.20667e-06 0 -3.06551e-05 2.27881e-05 0 -2.0231e-05 4.5262e-05 0 8.9964e-06 7.44004e-05 0 6.46785e-05 9.19457e-05 0 0 -8.6653e-07 0 -4.68298e-07 -8.71418e-07 0 -9.41302e-07 -8.84418e-07 0 -1.42367e-06 -9.06324e-07 0 -1.9204e-06 -9.38063e-07 0 -2.43654e-06 -9.78866e-07 0 -2.97748e-06 -1.03076e-06 0 -3.54913e-06 -1.09379e-06 0 -4.15766e-06 -1.1682e-06 0 -4.81002e-06 -1.25764e-06 0 -5.51383e-06 -1.36085e-06 0 -6.27735e-06 -1.48046e-06 0 -7.1101e-06 -1.61919e-06 0 -8.02239e-06 -1.77649e-06 0 -9.02571e-06 -1.95727e-06 0 -1.01331e-05 -2.16128e-06 0 -1.13581e-05 -2.38834e-06 0 -1.27158e-05 -2.64207e-06 0 -1.42212e-05 -2.91454e-06 0 -1.58883e-05 -3.19796e-06 0 -1.77278e-05 -3.47133e-06 0 -1.97423e-05 -3.70017e-06 0 -2.19182e-05 -3.7937e-06 0 -2.42085e-05 -3.62093e-06 0 -2.65068e-05 -2.93979e-06 0 -2.85807e-05 -1.25701e-06 0 -2.99469e-05 2.23624e-06 0 -2.95728e-05 8.89566e-06 0 -2.52081e-05 2.06605e-05 0 -1.21761e-05 3.89848e-05 0 1.69227e-05 6.07471e-05 0 6.49079e-05 7.22548e-05 0 0 -7.103e-07 0 -4.70942e-07 -7.14311e-07 0 -9.46631e-07 -7.24978e-07 0 -1.43177e-06 -7.42953e-07 0 -1.93139e-06 -7.68996e-07 0 -2.4506e-06 -8.02478e-07 0 -2.99482e-06 -8.45062e-07 0 -3.57003e-06 -8.96785e-07 0 -4.18246e-06 -9.57839e-07 0 -4.8391e-06 -1.03123e-06 0 -5.54764e-06 -1.11592e-06 0 -6.31641e-06 -1.21405e-06 0 -7.15496e-06 -1.32783e-06 0 -8.07364e-06 -1.45682e-06 0 -9.08388e-06 -1.60496e-06 0 -1.01986e-05 -1.77199e-06 0 -1.1431e-05 -1.95765e-06 0 -1.27955e-05 -2.16457e-06 0 -1.43058e-05 -2.38592e-06 0 -1.59734e-05 -2.61446e-06 0 -1.78046e-05 -2.8314e-06 0 -1.97936e-05 -3.00656e-06 0 -2.1912e-05 -3.05961e-06 0 -2.40855e-05 -2.876e-06 0 -2.61601e-05 -2.24476e-06 0 -2.78199e-05 -7.40351e-07 0 -2.84481e-05 2.31777e-06 0 -2.68406e-05 8.01837e-06 0 -2.06857e-05 1.77638e-05 0 -5.92834e-06 3.21974e-05 0 2.25055e-05 4.81701e-05 0 6.47409e-05 5.57257e-05 0 0 -5.53279e-07 0 -4.73064e-07 -5.56406e-07 0 -9.50907e-07 -5.64721e-07 0 -1.43827e-06 -5.78734e-07 0 -1.94021e-06 -5.99037e-07 0 -2.46188e-06 -6.25139e-07 0 -3.00874e-06 -6.58338e-07 0 -3.58681e-06 -6.98661e-07 0 -4.20236e-06 -7.46259e-07 0 -4.86243e-06 -8.03473e-07 0 -5.57477e-06 -8.69491e-07 0 -6.34774e-06 -9.45978e-07 0 -7.19094e-06 -1.03465e-06 0 -8.11472e-06 -1.13515e-06 0 -9.13049e-06 -1.25051e-06 0 -1.0251e-05 -1.38048e-06 0 -1.14893e-05 -1.5248e-06 0 -1.2859e-05 -1.68528e-06 0 -1.43729e-05 -1.85641e-06 0 -1.60403e-05 -2.03199e-06 0 -1.78635e-05 -2.19636e-06 0 -1.983e-05 -2.3248e-06 0 -2.18987e-05 -2.35093e-06 0 -2.39721e-05 -2.18096e-06 0 -2.58565e-05 -1.64276e-06 0 -2.71677e-05 -3.92154e-07 0 -2.71863e-05 2.10931e-06 0 -2.45939e-05 6.68829e-06 0 -1.71e-05 1.43097e-05 0 -1.23993e-06 2.51533e-05 0 2.63857e-05 3.65108e-05 0 6.44279e-05 4.14046e-05 0 1.81367e-21 -3.95641e-07 0 -4.74659e-07 -3.97878e-07 0 -9.54123e-07 -4.03828e-07 0 -1.44315e-06 -4.13855e-07 0 -1.94684e-06 -4.28382e-07 0 -2.47036e-06 -4.47059e-07 0 -3.01921e-06 -4.70814e-07 0 -3.59942e-06 -4.99666e-07 0 -4.21732e-06 -5.33724e-07 0 -4.87998e-06 -5.74663e-07 0 -5.59518e-06 -6.21898e-07 0 -6.3713e-06 -6.7662e-07 0 -7.21799e-06 -7.40051e-07 0 -8.14559e-06 -8.11924e-07 0 -9.16549e-06 -8.94397e-07 0 -1.02903e-05 -9.87269e-07 0 -1.15329e-05 -1.09029e-06 0 -1.29065e-05 -1.20467e-06 0 -1.44228e-05 -1.32633e-06 0 -1.60897e-05 -1.45054e-06 0 -1.79063e-05 -1.56555e-06 0 -1.98546e-05 -1.65298e-06 0 -2.18837e-05 -1.66332e-06 0 -2.38779e-05 -1.527e-06 0 -2.56129e-05 -1.11676e-06 0 -2.66528e-05 -1.79944e-07 0 -2.6204e-05 1.67184e-06 0 -2.28774e-05 5.01518e-06 0 -1.4438e-05 1.0468e-05 0 2.0962e-06 1.79972e-05 0 2.89895e-05 2.55702e-05 0 6.41085e-05 2.86016e-05 0 0 -2.37561e-07 0 -4.75726e-07 -2.38905e-07 0 -9.56273e-07 -2.42479e-07 0 -1.44642e-06 -2.48502e-07 0 -1.95127e-06 -2.57228e-07 0 -2.47603e-06 -2.68448e-07 0 -3.0262e-06 -2.82717e-07 0 -3.60785e-06 -3.00049e-07 0 -4.22732e-06 -3.20508e-07 0 -4.89171e-06 -3.45099e-07 0 -5.60881e-06 -3.73472e-07 0 -6.38704e-06 -4.0634e-07 0 -7.23606e-06 -4.44437e-07 0 -8.16621e-06 -4.87596e-07 0 -9.18887e-06 -5.37108e-07 0 -1.03166e-05 -5.92842e-07 0 -1.1562e-05 -6.54634e-07 0 -1.29381e-05 -7.23152e-07 0 -1.4456e-05 -7.95912e-07 0 -1.61223e-05 -8.69948e-07 0 -1.79342e-05 -9.37969e-07 0 -1.98697e-05 -9.88674e-07 0 -2.18712e-05 -9.91477e-07 0 -2.38106e-05 -9.03622e-07 0 -2.54428e-05 -6.47013e-07 0 -2.62969e-05 -6.74084e-08 0 -2.55318e-05 1.06939e-06 0 -2.17188e-05 3.10292e-06 0 -1.26781e-05 6.37457e-06 0 4.2364e-06 1.08029e-05 0 3.05917e-05 1.51398e-05 0 6.3861e-05 1.67888e-05 0 0 -7.92165e-08 0 -4.76261e-07 -7.96648e-08 0 -9.57352e-07 -8.08569e-08 0 -1.44806e-06 -8.28656e-08 0 -1.9535e-06 -8.57761e-08 0 -2.47888e-06 -8.9518e-08 0 -3.02972e-06 -9.42773e-08 0 -3.61209e-06 -1.00058e-07 0 -4.23235e-06 -1.06882e-07 0 -4.8976e-06 -1.15083e-07 0 -5.61566e-06 -1.24546e-07 0 -6.39495e-06 -1.35508e-07 0 -7.24514e-06 -1.48213e-07 0 -8.17657e-06 -1.62606e-07 0 -9.20061e-06 -1.79114e-07 0 -1.03298e-05 -1.97694e-07 0 -1.15767e-05 -2.18287e-07 0 -1.2954e-05 -2.41109e-07 0 -1.44726e-05 -2.65322e-07 0 -1.61386e-05 -2.89917e-07 0 -1.79479e-05 -3.12425e-07 0 -1.98769e-05 -3.2903e-07 0 -2.18642e-05 -3.29392e-07 0 -2.37755e-05 -2.99085e-07 0 -2.53551e-05 -2.1179e-07 0 -2.61146e-05 -1.56607e-08 0 -2.51896e-05 3.67531e-07 0 -2.11338e-05 1.04981e-06 0 -1.18006e-05 2.13999e-06 0 5.28444e-06 3.60099e-06 0 3.13569e-05 5.01301e-06 0 6.37274e-05 5.53586e-06 0 0 7.92165e-08 0 -4.76261e-07 7.96648e-08 0 -9.57352e-07 8.08569e-08 0 -1.44806e-06 8.28656e-08 0 -1.9535e-06 8.57761e-08 0 -2.47888e-06 8.9518e-08 0 -3.02972e-06 9.42773e-08 0 -3.61209e-06 1.00058e-07 0 -4.23235e-06 1.06882e-07 0 -4.8976e-06 1.15083e-07 0 -5.61566e-06 1.24546e-07 0 -6.39495e-06 1.35508e-07 0 -7.24514e-06 1.48213e-07 0 -8.17657e-06 1.62606e-07 0 -9.20061e-06 1.79114e-07 0 -1.03298e-05 1.97694e-07 0 -1.15767e-05 2.18287e-07 0 -1.2954e-05 2.41109e-07 0 -1.44726e-05 2.65322e-07 0 -1.61386e-05 2.89917e-07 0 -1.79479e-05 3.12425e-07 0 -1.98769e-05 3.2903e-07 0 -2.18642e-05 3.29392e-07 0 -2.37755e-05 2.99085e-07 0 -2.53551e-05 2.1179e-07 0 -2.61146e-05 1.56607e-08 0 -2.51896e-05 -3.67531e-07 0 -2.11338e-05 -1.04981e-06 0 -1.18006e-05 -2.13999e-06 0 5.28444e-06 -3.60099e-06 0 3.13569e-05 -5.01301e-06 0 6.37274e-05 -5.53586e-06 0 0 2.37561e-07 0 -4.75726e-07 2.38905e-07 0 -9.56273e-07 2.42479e-07 0 -1.44642e-06 2.48502e-07 0 -1.95127e-06 2.57228e-07 0 -2.47603e-06 2.68448e-07 0 -3.0262e-06 2.82717e-07 0 -3.60785e-06 3.00049e-07 0 -4.22732e-06 3.20508e-07 0 -4.89171e-06 3.45099e-07 0 -5.60881e-06 3.73472e-07 0 -6.38704e-06 4.0634e-07 0 -7.23606e-06 4.44437e-07 0 -8.16621e-06 4.87596e-07 0 -9.18887e-06 5.37108e-07 0 -1.03166e-05 5.92842e-07 0 -1.1562e-05 6.54634e-07 0 -1.29381e-05 7.23152e-07 0 -1.4456e-05 7.95912e-07 0 -1.61223e-05 8.69948e-07 0 -1.79342e-05 9.37969e-07 0 -1.98697e-05 9.88674e-07 0 -2.18712e-05 9.91477e-07 0 -2.38106e-05 9.03622e-07 0 -2.54428e-05 6.47013e-07 0 -2.62969e-05 6.74084e-08 0 -2.55318e-05 -1.06939e-06 0 -2.17188e-05 -3.10292e-06 0 -1.26781e-05 -6.37457e-06 0 4.2364e-06 -1.08029e-05 0 3.05917e-05 -1.51398e-05 0 6.3861e-05 -1.67888e-05 0 0 3.95641e-07 0 -4.74659e-07 3.97878e-07 0 -9.54123e-07 4.03828e-07 0 -1.44315e-06 4.13855e-07 0 -1.94684e-06 4.28382e-07 0 -2.47036e-06 4.47059e-07 0 -3.01921e-06 4.70814e-07 0 -3.59942e-06 4.99666e-07 0 -4.21732e-06 5.33724e-07 0 -4.87998e-06 5.74663e-07 0 -5.59518e-06 6.21898e-07 0 -6.3713e-06 6.7662e-07 0 -7.21799e-06 7.40051e-07 0 -8.14559e-06 8.11924e-07 0 -9.16549e-06 8.94397e-07 0 -1.02903e-05 9.87269e-07 0 -1.15329e-05 1.09029e-06 0 -1.29065e-05 1.20467e-06 0 -1.44228e-05 1.32633e-06 0 -1.60897e-05 1.45054e-06 0 -1.79063e-05 1.56555e-06 0 -1.98546e-05 1.65298e-06 0 -2.18837e-05 1.66332e-06 0 -2.38779e-05 1.527e-06 0 -2.56129e-05 1.11676e-06 0 -2.66528e-05 1.79944e-07 0 -2.6204e-05 -1.67184e-06 0 -2.28774e-05 -5.01518e-06 0 -1.4438e-05 -1.0468e-05 0 2.0962e-06 -1.79972e-05 0 2.89895e-05 -2.55702e-05 0 6.41085e-05 -2.86016e-05 0 -8.62346e-21 5.53279e-07 0 -4.73064e-07 5.56406e-07 0 -9.50907e-07 5.64721e-07 0 -1.43827e-06 5.78734e-07 0 -1.94021e-06 5.99037e-07 0 -2.46188e-06 6.25139e-07 0 -3.00874e-06 6.58338e-07 0 -3.58681e-06 6.98661e-07 0 -4.20236e-06 7.46259e-07 0 -4.86243e-06 8.03473e-07 0 -5.57477e-06 8.69491e-07 0 -6.34774e-06 9.45978e-07 0 -7.19094e-06 1.03465e-06 0 -8.11472e-06 1.13515e-06 0 -9.13049e-06 1.25051e-06 0 -1.0251e-05 1.38048e-06 0 -1.14893e-05 1.5248e-06 0 -1.2859e-05 1.68528e-06 0 -1.43729e-05 1.85641e-06 0 -1.60403e-05 2.03199e-06 0 -1.78635e-05 2.19636e-06 0 -1.983e-05 2.3248e-06 0 -2.18987e-05 2.35093e-06 0 -2.39721e-05 2.18096e-06 0 -2.58565e-05 1.64276e-06 0 -2.71677e-05 3.92154e-07 0 -2.71863e-05 -2.10931e-06 0 -2.45939e-05 -6.68829e-06 0 -1.71e-05 -1.43097e-05 0 -1.23993e-06 -2.51533e-05 0 2.63857e-05 -3.65108e-05 0 6.44279e-05 -4.14046e-05 0 0 7.103e-07 0 -4.70942e-07 7.14311e-07 0 -9.46631e-07 7.24978e-07 0 -1.43177e-06 7.42953e-07 0 -1.93139e-06 7.68996e-07 0 -2.4506e-06 8.02478e-07 0 -2.99482e-06 8.45062e-07 0 -3.57003e-06 8.96785e-07 0 -4.18246e-06 9.57839e-07 0 -4.8391e-06 1.03123e-06 0 -5.54764e-06 1.11592e-06 0 -6.31641e-06 1.21405e-06 0 -7.15496e-06 1.32783e-06 0 -8.07364e-06 1.45682e-06 0 -9.08388e-06 1.60496e-06 0 -1.01986e-05 1.77199e-06 0 -1.1431e-05 1.95765e-06 0 -1.27955e-05 2.16457e-06 0 -1.43058e-05 2.38592e-06 0 -1.59734e-05 2.61446e-06 0 -1.78046e-05 2.8314e-06 0 -1.97936e-05 3.00656e-06 0 -2.1912e-05 3.05961e-06 0 -2.40855e-05 2.876e-06 0 -2.61601e-05 2.24476e-06 0 -2.78199e-05 7.40351e-07 0 -2.84481e-05 -2.31777e-06 0 -2.68406e-05 -8.01837e-06 0 -2.06857e-05 -1.77638e-05 0 -5.92834e-06 -3.21974e-05 0 2.25055e-05 -4.81701e-05 0 6.47409e-05 -5.57257e-05 0 0 8.6653e-07 0 -4.68298e-07 8.71418e-07 0 -9.41302e-07 8.84418e-07 0 -1.42367e-06 9.06324e-07 0 -1.9204e-06 9.38063e-07 0 -2.43654e-06 9.78866e-07 0 -2.97748e-06 1.03076e-06 0 -3.54913e-06 1.09379e-06 0 -4.15766e-06 1.1682e-06 0 -4.81002e-06 1.25764e-06 0 -5.51383e-06 1.36085e-06 0 -6.27735e-06 1.48046e-06 0 -7.1101e-06 1.61919e-06 0 -8.02239e-06 1.77649e-06 0 -9.02571e-06 1.95727e-06 0 -1.01331e-05 2.16128e-06 0 -1.13581e-05 2.38834e-06 0 -1.27158e-05 2.64207e-06 0 -1.42212e-05 2.91454e-06 0 -1.58883e-05 3.19796e-06 0 -1.77278e-05 3.47133e-06 0 -1.97423e-05 3.70017e-06 0 -2.19182e-05 3.7937e-06 0 -2.42085e-05 3.62093e-06 0 -2.65068e-05 2.93979e-06 0 -2.85807e-05 1.25701e-06 0 -2.99469e-05 -2.23624e-06 0 -2.95728e-05 -8.89566e-06 0 -2.52081e-05 -2.06605e-05 0 -1.21761e-05 -3.89848e-05 0 1.69227e-05 -6.07471e-05 0 6.49079e-05 -7.22548e-05 0 0 1.0218e-06 0 -4.65136e-07 1.02755e-06 0 -9.34928e-07 1.04286e-06 0 -1.41399e-06 1.06866e-06 0 -1.90725e-06 1.10604e-06 0 -2.41973e-06 1.15409e-06 0 -2.95674e-06 1.21521e-06 0 -3.52413e-06 1.28944e-06 0 -4.12801e-06 1.37706e-06 0 -4.77524e-06 1.4824e-06 0 -5.47338e-06 1.60396e-06 0 -6.23062e-06 1.74486e-06 0 -7.05641e-06 1.90831e-06 0 -7.96104e-06 2.09372e-06 0 -8.95602e-06 2.30694e-06 0 -1.00545e-05 2.54782e-06 0 -1.12705e-05 2.81632e-06 0 -1.26196e-05 3.11728e-06 0 -1.41186e-05 3.44185e-06 0 -1.57839e-05 3.7823e-06 0 -1.76315e-05 4.11647e-06 0 -1.96729e-05 4.40689e-06 0 -2.19109e-05 4.55634e-06 0 -2.43296e-05 4.42248e-06 0 -2.68758e-05 3.74137e-06 0 -2.94148e-05 1.96938e-06 0 -3.16271e-05 -1.80913e-06 0 -3.27228e-05 -9.20667e-06 0 -3.06551e-05 -2.27881e-05 0 -2.0231e-05 -4.5262e-05 0 8.9964e-06 -7.44004e-05 0 6.46785e-05 -9.19457e-05 0 2.58749e-20 1.17593e-06 0 -4.61461e-07 1.18254e-06 0 -9.27521e-07 1.20014e-06 0 -1.40274e-06 1.22979e-06 0 -1.89198e-06 1.27274e-06 0 -2.40019e-06 1.32796e-06 0 -2.93263e-06 1.39819e-06 0 -3.49507e-06 1.48349e-06 0 -4.09354e-06 1.58417e-06 0 -4.73482e-06 1.70522e-06 0 -5.42637e-06 1.84492e-06 0 -6.1763e-06 2.00687e-06 0 -6.99398e-06 2.19479e-06 0 -7.88966e-06 2.40805e-06 0 -8.87486e-06 2.65349e-06 0 -9.96286e-06 2.93108e-06 0 -1.1168e-05 3.24102e-06 0 -1.25069e-05 3.58959e-06 0 -1.39975e-05 3.9673e-06 0 -1.56593e-05 4.36706e-06 0 -1.75135e-05 4.76671e-06 0 -1.95814e-05 5.12722e-06 0 -2.18832e-05 5.34932e-06 0 -2.44357e-05 5.28492e-06 0 -2.72437e-05 4.65875e-06 0 -3.02807e-05 2.89787e-06 0 -3.34196e-05 -9.8948e-07 0 -3.61937e-05 -8.83928e-06 0 -3.69668e-05 -2.38916e-05 0 -3.03567e-05 -5.06157e-05 0 -2.2294e-06 -8.91756e-05 0 6.3591e-05 -0.000116184 0 0 1.32875e-06 0 -4.57285e-07 1.33621e-06 0 -9.19105e-07 1.35606e-06 0 -1.38995e-06 1.38951e-06 0 -1.87462e-06 1.43796e-06 0 -2.378e-06 1.50026e-06 0 -2.90525e-06 1.57948e-06 0 -3.46207e-06 1.67569e-06 0 -4.05439e-06 1.78926e-06 0 -4.6889e-06 1.92581e-06 0 -5.37296e-06 2.08341e-06 0 -6.11456e-06 2.26613e-06 0 -6.92301e-06 2.47823e-06 0 -7.80847e-06 2.71903e-06 0 -8.78245e-06 2.99639e-06 0 -9.85838e-06 3.31047e-06 0 -1.1051e-05 3.6618e-06 0 -1.23775e-05 4.05834e-06 0 -1.38576e-05 4.49019e-06 0 -1.55136e-05 4.95156e-06 0 -1.73721e-05 5.4215e-06 0 -1.94642e-05 5.86086e-06 0 -2.1828e-05 6.17291e-06 0 -2.45136e-05 6.20979e-06 0 -2.7586e-05 5.69638e-06 0 -3.11332e-05 4.05455e-06 0 -3.52435e-05 2.57018e-07 0 -3.9853e-05 -7.69185e-06 0 -4.39978e-05 -2.36794e-05 0 -4.27347e-05 -5.44122e-05 0 -1.80604e-05 -0.000104843 0 6.08061e-05 -0.00014708 0 0 1.4801e-06 0 -4.52604e-07 1.4884e-06 0 -9.0967e-07 1.51047e-06 0 -1.37562e-06 1.54766e-06 0 -1.85517e-06 1.60153e-06 0 -2.35312e-06 1.67078e-06 0 -2.87456e-06 1.75885e-06 0 -3.42507e-06 1.86582e-06 0 -4.0105e-06 1.99208e-06 0 -4.63742e-06 2.14388e-06 0 -5.31307e-06 2.31911e-06 0 -6.04534e-06 2.52229e-06 0 -6.84339e-06 2.75822e-06 0 -7.71732e-06 3.0262e-06 0 -8.67862e-06 3.33514e-06 0 -9.7408e-06 3.68544e-06 0 -1.09189e-05 4.07802e-06 0 -1.22309e-05 4.52279e-06 0 -1.3698e-05 5.0097e-06 0 -1.53452e-05 5.53489e-06 0 -1.72046e-05 6.07981e-06 0 -1.93167e-05 6.60665e-06 0 -2.17369e-05 7.02584e-06 0 -2.45484e-05 7.19573e-06 0 -2.78753e-05 6.85334e-06 0 -3.19219e-05 5.44169e-06 0 -3.70053e-05 1.94746e-06 0 -4.3534e-05 -5.68624e-06 0 -5.15138e-05 -2.1848e-05 0 -5.74721e-05 -5.57417e-05 0 -4.06081e-05 -0.000120556 0 5.45063e-05 -0.00018801 0 5.37935e-20 1.62982e-06 0 -4.47432e-07 1.63894e-06 0 -8.99245e-07 1.66319e-06 0 -1.35978e-06 1.70405e-06 0 -1.83367e-06 1.76325e-06 0 -2.32563e-06 1.83935e-06 0 -2.84064e-06 1.93611e-06 0 -3.38419e-06 2.05364e-06 0 -3.96202e-06 2.19236e-06 0 -4.58055e-06 2.35915e-06 0 -5.2469e-06 2.55169e-06 0 -5.96883e-06 2.77499e-06 0 -6.75536e-06 3.03436e-06 0 -7.61649e-06 3.32911e-06 0 -8.56363e-06 3.66921e-06 0 -9.61036e-06 4.05536e-06 0 -1.0772e-05 4.48898e-06 0 -1.20671e-05 4.98214e-06 0 -1.35184e-05 5.52487e-06 0 -1.51533e-05 6.11587e-06 0 -1.70091e-05 6.74015e-06 0 -1.91351e-05 7.36261e-06 0 -2.1603e-05 7.90524e-06 0 -2.45265e-05 8.23846e-06 0 -2.80861e-05 8.12317e-06 0 -3.25969e-05 7.05066e-06 0 -3.86048e-05 4.07736e-06 0 -4.70303e-05 -2.78414e-06 0 -5.91148e-05 -1.81289e-05 0 -7.42193e-05 -5.34129e-05 0 -7.24155e-05 -0.000134155 0 4.0932e-05 -0.000244644 0 0 1.77773e-06 0 -4.41777e-07 1.78766e-06 0 -8.87848e-07 1.81405e-06 0 -1.34247e-06 1.85852e-06 0 -1.81017e-06 1.92294e-06 0 -2.29558e-06 2.00575e-06 0 -2.80358e-06 2.11105e-06 0 -3.33952e-06 2.23892e-06 0 -3.90902e-06 2.38986e-06 0 -4.51838e-06 2.57134e-06 0 -5.17457e-06 2.78086e-06 0 -5.88517e-06 3.02388e-06 0 -6.65907e-06 3.30625e-06 0 -7.50611e-06 3.62729e-06 0 -8.43763e-06 3.99808e-06 0 -9.46719e-06 4.41963e-06 0 -1.06103e-05 4.89396e-06 0 -1.18861e-05 5.4355e-06 0 -1.33185e-05 6.03459e-06 0 -1.49372e-05 6.69308e-06 0 -1.67839e-05 7.40056e-06 0 -1.89158e-05 8.12594e-06 0 -2.14193e-05 8.80676e-06 0 -2.44353e-05 9.33083e-06 0 -2.81936e-05 9.49386e-06 0 -3.31097e-05 8.86142e-06 0 -3.99411e-05 6.61724e-06 0 -5.01141e-05 9.95872e-07 0 -6.62625e-05 -1.23609e-05 0 -9.20119e-05 -4.60836e-05 0 -0.000116256 -0.00014088 0 1.12748e-05 -0.000327023 0 -1.69315e-19 1.92369e-06 0 -4.35647e-07 1.9344e-06 0 -8.75495e-07 1.96289e-06 0 -1.3237e-06 2.0109e-06 0 -1.78471e-06 2.08043e-06 0 -2.26302e-06 2.1698e-06 0 -2.76341e-06 2.28344e-06 0 -3.2911e-06 2.42144e-06 0 -3.85159e-06 2.58433e-06 0 -4.45101e-06 2.78018e-06 0 -5.09617e-06 3.0063e-06 0 -5.79448e-06 3.26862e-06 0 -6.55464e-06 3.5735e-06 0 -7.38633e-06 3.9203e-06 0 -8.30074e-06 4.32121e-06 0 -9.31139e-06 4.77762e-06 0 -1.04338e-05 5.29219e-06 0 -1.16878e-05 5.88192e-06 0 -1.30978e-05 6.53766e-06 0 -1.46958e-05 7.26489e-06 0 -1.65271e-05 8.0587e-06 0 -1.86557e-05 8.89312e-06 0 -2.11797e-05 9.72465e-06 0 -2.42628e-05 1.04631e-05 0 -2.81756e-05 1.09482e-05 0 -3.34157e-05 1.08428e-05 0 -4.09175e-05 9.51118e-06 0 -5.25505e-05 5.56481e-06 0 -7.22981e-05 -4.57839e-06 0 -0.000108967 -3.26534e-05 0 -0.000172982 -0.000131534 0 -5.76419e-05 -0.000453835 0 -1.13735e-19 2.06753e-06 0 -4.29055e-07 2.07902e-06 0 -8.6221e-07 2.10956e-06 0 -1.30352e-06 2.16101e-06 0 -1.75732e-06 2.23553e-06 0 -2.228e-06 2.33132e-06 0 -2.72021e-06 2.45311e-06 0 -3.23905e-06 2.60099e-06 0 -3.78984e-06 2.77554e-06 0 -4.37858e-06 2.9854e-06 0 -5.01187e-06 3.22771e-06 0 -5.69694e-06 3.50886e-06 0 -6.44229e-06 3.83571e-06 0 -7.25738e-06 4.20768e-06 0 -8.15322e-06 4.63806e-06 0 -9.14319e-06 5.12869e-06 0 -1.02429e-05 5.68289e-06 0 -1.14721e-05 6.32039e-06 0 -1.28564e-05 7.03274e-06 0 -1.44289e-05 7.82945e-06 0 -1.62377e-05 8.71186e-06 0 -1.83521e-05 9.65999e-06 0 -2.08794e-05 1.0652e-05 0 -2.4e-05 1.16231e-05 0 -2.80145e-05 1.24646e-05 0 -3.34793e-05 1.29539e-05 0 -4.14547e-05 1.26782e-05 0 -5.41318e-05 1.07584e-05 0 -7.65461e-05 4.91325e-06 0 -0.000122311 -1.2968e-05 0 -0.000235344 -9.22218e-05 0 -0.000236801 -0.000660777 0 0 2.20911e-06 0 -4.22012e-07 2.22135e-06 0 -8.48016e-07 2.25388e-06 0 -1.28196e-06 2.3087e-06 0 -1.72807e-06 2.38809e-06 0 -2.1906e-06 2.49012e-06 0 -2.67407e-06 2.61984e-06 0 -3.18345e-06 2.77735e-06 0 -3.72389e-06 2.96325e-06 0 -4.30121e-06 3.18675e-06 0 -4.92182e-06 3.44481e-06 0 -5.59274e-06 3.74427e-06 0 -6.32221e-06 4.09251e-06 0 -7.11947e-06 4.48899e-06 0 -7.99529e-06 4.94812e-06 0 -8.96284e-06 5.47218e-06 0 -1.00376e-05 6.06526e-06 0 -1.12394e-05 6.74989e-06 0 -1.25942e-05 7.51844e-06 0 -1.41359e-05 8.38479e-06 0 -1.59148e-05 9.35704e-06 0 -1.80032e-05 1.04219e-05 0 -2.05147e-05 1.1581e-05 0 -2.36401e-05 1.27973e-05 0 -2.76972e-05 1.4018e-05 0 -3.32746e-05 1.51459e-05 0 -4.1495e-05 1.60171e-05 0 -5.47033e-05 1.63454e-05 0 -7.84507e-05 1.5518e-05 0 -0.000129049 1.14251e-05 0 -0.000279361 -1.38025e-05 0 -0.000833802 -0.00108211 0 0 2.34828e-06 0 -4.14529e-07 2.36124e-06 0 -8.32936e-07 2.39572e-06 0 -1.25906e-06 2.4538e-06 0 -1.69699e-06 2.53792e-06 0 -2.15087e-06 2.64603e-06 0 -2.62507e-06 2.78346e-06 0 -3.1244e-06 2.95031e-06 0 -3.65386e-06 3.14722e-06 0 -4.21905e-06 3.38396e-06 0 -4.82619e-06 3.6573e-06 0 -5.48205e-06 3.97453e-06 0 -6.19462e-06 4.34352e-06 0 -6.97285e-06 4.76378e-06 0 -7.82722e-06 5.25085e-06 0 -8.77061e-06 5.80747e-06 0 -9.81823e-06 6.43848e-06 0 -1.09899e-05 7.16932e-06 0 -1.23113e-05 7.99329e-06 0 -1.38169e-05 8.92879e-06 0 -1.55578e-05 9.99106e-06 0 -1.7608e-05 1.11738e-05 0 -2.00834e-05 1.25031e-05 0 -2.31788e-05 1.39707e-05 0 -2.72165e-05 1.5581e-05 0 -3.27876e-05 1.73653e-05 0 -4.10095e-05 1.94138e-05 0 -5.41892e-05 2.20509e-05 0 -7.7725e-05 2.64207e-05 0 -0.000127277 3.71743e-05 0 -0.000272745 8.41193e-05 0 -0.000809581 0.00200822 0 </DataArray> 
</PointData> 
<Points> 
<DataArray type="Float32" NumberOfComponents="3"> 