<?xml version="1.0"?> 
<VTKFile type="StructuredGrid" version="0.1"> 
<StructuredGrid WholeExtent="0 31 0 31 0 0"> 
<Piece Extent="0 31 0 31 0 0"> 
<PointData>
<DataArray type="Float32" Name="B" format="ascii" NumberOfComponents="3"> 
0.000400313 -0.00145806 0 0.000189765 -0.000118978 0 0.00010095 -6.58387e-05 0 6.79062e-05 -4.76647e-05 0 5.10566e-05 -3.78577e-05 0 4.09204e-05 -3.13162e-05 0 3.41139e-05 -2.64349e-05 0 2.916e-05 -2.2573e-05 0 2.53317e-05 -1.94311e-05 0 2.22372e-05 -1.68077e-05 0 1.96575e-05 -1.46005e-05 0 1.74558e-05 -1.27613e-05 0 1.55464e-05 -1.11827e-05 0 1.38713e-05 -9.84965e-06 0 1.23879e-05 -8.71379e-06 0 1.10655e-05 -7.73157e-06 0 9.87968e-06 -6.90466e-06 0 8.81061e-06 -6.18801e-06 0 7.84236e-06 -5.57073e-06 0 6.96104e-06 -5.04582e-06 0 6.155e-06 -4.58984e-06 0 5.41416e-06 -4.20186e-06 0 4.72943e-06 -3.87033e-06 0 4.093e-06 -3.58511e-06 0 3.49774e-06 -3.34945e-06 0 2.93715e-06 -3.15069e-06 0 2.40547e-06 -2.98766e-06 0 1.89715e-06 -2.85987e-06 0 1.40716e-06 -2.76067e-06 0 9.30717e-07 -2.69231e-06 0 4.63134e-07 -2.65179e-06 0 0 -2.63656e-06 0 0.000693628 0.000446466 0 0.000208152 -5.82182e-05 0 0.000107174 -4.86167e-05 0 7.12332e-05 -3.98815e-05 0 5.32818e-05 -3.35014e-05 0 4.25913e-05 -2.85311e-05 0 3.54456e-05 -2.44799e-05 0 3.02542e-05 -2.11019e-05 0 2.62448e-05 -1.82637e-05 0 2.30055e-05 -1.58485e-05 0 2.03072e-05 -1.37919e-05 0 1.80069e-05 -1.20644e-05 0 1.60151e-05 -1.05754e-05 0 1.42709e-05 -9.31452e-06 0 1.27293e-05 -8.23853e-06 0 1.13578e-05 -7.30741e-06 0 1.01303e-05 -6.52328e-06 0 9.02576e-06 -5.84374e-06 0 8.02721e-06 -5.25853e-06 0 7.11982e-06 -4.76106e-06 0 6.29124e-06 -4.32906e-06 0 5.53078e-06 -3.96163e-06 0 4.82883e-06 -3.64779e-06 0 4.17717e-06 -3.37788e-06 0 3.5683e-06 -3.15495e-06 0 2.99544e-06 -2.96698e-06 0 2.45255e-06 -2.81283e-06 0 1.93386e-06 -2.69204e-06 0 1.43415e-06 -2.59829e-06 0 9.48462e-07 -2.53369e-06 0 4.71931e-07 -2.4954e-06 0 0 -2.48101e-06 0 0.000293654 0.000334182 0 0.000193729 -2.46029e-06 0 0.000107818 -3.10262e-05 0 7.27888e-05 -3.18411e-05 0 5.47562e-05 -2.89938e-05 0 4.38871e-05 -2.56459e-05 0 3.65679e-05 -2.2451e-05 0 3.12207e-05 -1.95721e-05 0 2.7074e-05 -1.7048e-05 0 2.37148e-05 -1.4849e-05 0 2.09131e-05 -1.29494e-05 0 1.85241e-05 -1.13387e-05 0 1.64566e-05 -9.94396e-06 0 1.46481e-05 -8.75897e-06 0 1.30519e-05 -7.74599e-06 0 1.16341e-05 -6.86864e-06 0 1.03673e-05 -6.12946e-06 0 9.2292e-06 -5.48884e-06 0 8.20194e-06 -4.93723e-06 0 7.26987e-06 -4.46844e-06 0 6.41994e-06 -4.06147e-06 0 5.64091e-06 -3.71546e-06 0 4.92266e-06 -3.42001e-06 0 4.2566e-06 -3.16599e-06 0 3.63487e-06 -2.95627e-06 0 3.05041e-06 -2.77947e-06 0 2.49694e-06 -2.63453e-06 0 1.96848e-06 -2.52097e-06 0 1.4596e-06 -2.43284e-06 0 9.65185e-07 -2.37214e-06 0 4.80221e-07 -2.33615e-06 0 0 -2.32263e-06 0 0.000150885 0.000243707 0 0.000162692 3.25755e-05 0 0.000103612 -1.53784e-05 0 7.26414e-05 -2.41023e-05 0 5.54865e-05 -2.4525e-05 0 4.48068e-05 -2.274e-05 0 3.74787e-05 -2.03858e-05 0 3.20573e-05 -1.80033e-05 0 2.78171e-05 -1.5795e-05 0 2.43634e-05 -1.38155e-05 0 2.14735e-05 -1.20769e-05 0 1.90058e-05 -1.05871e-05 0 1.68695e-05 -9.29021e-06 0 1.50018e-05 -8.18442e-06 0 1.33549e-05 -7.23726e-06 0 1.18937e-05 -6.41611e-06 0 1.059e-05 -5.72391e-06 0 9.42039e-06 -5.12392e-06 0 8.36613e-06 -4.60733e-06 0 7.41082e-06 -4.1684e-06 0 6.5408e-06 -3.78745e-06 0 5.74429e-06 -3.46366e-06 0 5.01072e-06 -3.18728e-06 0 4.33111e-06 -2.94972e-06 0 3.69731e-06 -2.75364e-06 0 3.10196e-06 -2.58839e-06 0 2.53855e-06 -2.45294e-06 0 2.00092e-06 -2.34684e-06 0 1.48344e-06 -2.26452e-06 0 9.80856e-07 -2.20782e-06 0 4.87989e-07 -2.17421e-06 0 1.10981e-19 -2.16158e-06 0 8.84349e-05 0.000180789 0 0.000130404 4.87563e-05 0 9.61725e-05 -3.04564e-06 0 7.1056e-05 -1.71238e-05 0 5.55359e-05 -2.0268e-05 0 4.53696e-05 -1.98888e-05 0 3.81845e-05 -1.83208e-05 0 3.27661e-05 -1.64144e-05 0 2.84743e-05 -1.45154e-05 0 2.49504e-05 -1.27546e-05 0 2.19875e-05 -1.11786e-05 0 1.9451e-05 -9.81232e-06 0 1.72529e-05 -8.61616e-06 0 1.5331e-05 -7.59233e-06 0 1.36372e-05 -6.7135e-06 0 1.2136e-05 -5.95076e-06 0 1.07979e-05 -5.30737e-06 0 9.59881e-06 -4.7496e-06 0 8.51933e-06 -4.26937e-06 0 7.54231e-06 -3.86141e-06 0 6.65352e-06 -3.5074e-06 0 5.84068e-06 -3.2066e-06 0 5.0928e-06 -2.94991e-06 0 4.40055e-06 -2.72934e-06 0 3.75547e-06 -2.54733e-06 0 3.14996e-06 -2.39397e-06 0 2.57731e-06 -2.26829e-06 0 2.03112e-06 -2.16987e-06 0 1.50564e-06 -2.09351e-06 0 9.95444e-07 -2.04092e-06 0 4.95219e-07 -2.00975e-06 0 0 -1.99803e-06 0 5.70365e-05 0.000137589 0 0.000103277 5.31793e-05 0 8.72203e-05 5.65476e-06 0 6.8412e-05 -1.12002e-05 0 5.50107e-05 -1.63606e-05 0 4.56117e-05 -1.71576e-05 0 3.8699e-05 -1.62888e-05 0 3.33522e-05 -1.48231e-05 0 2.90471e-05 -1.32193e-05 0 2.54759e-05 -1.16722e-05 0 2.24543e-05 -1.02583e-05 0 1.98587e-05 -9.01704e-06 0 1.76057e-05 -7.92376e-06 0 1.56348e-05 -6.98419e-06 0 1.38983e-05 -6.17588e-06 0 1.23601e-05 -5.47352e-06 0 1.09902e-05 -4.88065e-06 0 9.76397e-06 -4.36656e-06 0 8.66113e-06 -3.92392e-06 0 7.664e-06 -3.54793e-06 0 6.75781e-06 -3.22174e-06 0 5.92984e-06 -2.94464e-06 0 5.1687e-06 -2.70823e-06 0 4.46474e-06 -2.50513e-06 0 3.80923e-06 -2.33759e-06 0 3.19433e-06 -2.19645e-06 0 2.61311e-06 -2.0808e-06 0 2.05902e-06 -1.99024e-06 0 1.52614e-06 -1.92e-06 0 1.00892e-06 -1.87162e-06 0 5.01897e-07 -1.84295e-06 0 0 -1.83218e-06 0 3.95602e-05 0.000106967 0 8.22795e-05 5.14409e-05 0 7.80832e-05 1.11059e-05 0 6.51204e-05 -6.45435e-06 0 5.40467e-05 -1.28961e-05 0 4.55845e-05 -1.45978e-05 0 3.90436e-05 -1.43176e-05 0 3.38249e-05 -1.32449e-05 0 2.95395e-05 -1.19159e-05 0 2.59412e-05 -1.05741e-05 0 2.28741e-05 -9.31971e-06 0 2.02286e-05 -8.20394e-06 0 1.79275e-05 -7.21498e-06 0 1.59127e-05 -6.36151e-06 0 1.41374e-05 -5.62559e-06 0 1.25656e-05 -4.98537e-06 0 1.11667e-05 -4.44454e-06 0 9.91549e-06 -3.97546e-06 0 8.79122e-06 -3.57155e-06 0 7.77561e-06 -3.22849e-06 0 6.85345e-06 -2.93091e-06 0 6.01158e-06 -2.67816e-06 0 5.23826e-06 -2.46258e-06 0 4.52357e-06 -2.27741e-06 0 3.85849e-06 -2.12469e-06 0 3.23497e-06 -1.99606e-06 0 2.6459e-06 -1.89068e-06 0 2.08457e-06 -1.80818e-06 0 1.54492e-06 -1.74419e-06 0 1.02125e-06 -1.70013e-06 0 5.08011e-07 -1.67402e-06 0 -3.78396e-19 -1.6642e-06 0 2.908e-05 8.43979e-05 0 6.65337e-05 4.6836e-05 0 6.957e-05 1.3975e-05 0 6.15461e-05 -2.87024e-06 0 5.27855e-05 -9.92193e-06 0 4.53462e-05 -1.22445e-05 0 3.92438e-05 -1.24284e-05 0 3.41955e-05 -1.16923e-05 0 2.99563e-05 -1.06128e-05 0 2.63481e-05 -9.46538e-06 0 2.32474e-05 -8.36638e-06 0 2.05605e-05 -7.37553e-06 0 1.82176e-05 -6.49172e-06 0 1.6164e-05 -5.72581e-06 0 1.43541e-05 -5.06387e-06 0 1.27519e-05 -4.48731e-06 0 1.13268e-05 -3.9999e-06 0 1.0053e-05 -3.57702e-06 0 8.90925e-06 -3.21286e-06 0 7.87688e-06 -2.90358e-06 0 6.9402e-06 -2.63534e-06 0 6.08571e-06 -2.40755e-06 0 5.30135e-06 -2.21329e-06 0 4.5769e-06 -2.04647e-06 0 3.90313e-06 -1.90891e-06 0 3.27179e-06 -1.79307e-06 0 2.67562e-06 -1.69818e-06 0 2.10772e-06 -1.6239e-06 0 1.56193e-06 -1.56629e-06 0 1.03243e-06 -1.52663e-06 0 5.13548e-07 -1.50312e-06 0 0 -1.49429e-06 0 2.24552e-05 6.71176e-05 0 5.48879e-05 4.10895e-05 0 6.2093e-05 1.49408e-05 0 5.79826e-05 -3.41276e-07 0 5.13617e-05 -7.44551e-06 0 4.49564e-05 -1.01165e-05 0 3.93264e-05 -1.06355e-05 0 3.44761e-05 -1.01747e-05 0 3.03026e-05 -9.31642e-06 0 2.66985e-05 -8.35023e-06 0 2.35743e-05 -7.40137e-06 0 2.08538e-05 -6.53418e-06 0 1.84754e-05 -5.75584e-06 0 1.63879e-05 -5.07858e-06 0 1.45475e-05 -4.49194e-06 0 1.29184e-05 -3.98037e-06 0 1.14699e-05 -3.54756e-06 0 1.01759e-05 -3.17196e-06 0 9.01477e-06 -2.84848e-06 0 7.9674e-06 -2.57375e-06 0 7.01774e-06 -2.3355e-06 0 6.15196e-06 -2.13321e-06 0 5.35771e-06 -1.96073e-06 0 4.62454e-06 -1.81263e-06 0 3.94301e-06 -1.69054e-06 0 3.30468e-06 -1.58773e-06 0 2.70215e-06 -1.50352e-06 0 2.12839e-06 -1.43762e-06 0 1.57711e-06 -1.38651e-06 0 1.0424e-06 -1.35132e-06 0 5.18492e-07 -1.33047e-06 0 0 -1.32264e-06 0 1.80364e-05 5.34063e-05 0 4.62283e-05 3.50424e-05 0 5.57552e-05 1.45719e-05 0 5.46362e-05 1.28448e-06 0 4.98975e-05 -5.44278e-06 0 4.44779e-05 -8.21718e-06 0 3.9323e-05 -8.94567e-06 0 3.46827e-05 -8.69808e-06 0 3.05867e-05 -8.03125e-06 0 2.69965e-05 -7.23218e-06 0 2.3857e-05 -6.42739e-06 0 2.11097e-05 -5.68208e-06 0 1.87014e-05 -5.00912e-06 0 1.65848e-05 -4.42129e-06 0 1.47177e-05 -3.91103e-06 0 1.30651e-05 -3.46557e-06 0 1.1596e-05 -3.08842e-06 0 1.02843e-05 -2.76103e-06 0 9.10784e-06 -2.47903e-06 0 8.04723e-06 -2.23955e-06 0 7.08611e-06 -2.03187e-06 0 6.21037e-06 -1.85557e-06 0 5.40739e-06 -1.70526e-06 0 4.66653e-06 -1.57622e-06 0 3.97815e-06 -1.46985e-06 0 3.33366e-06 -1.3803e-06 0 2.72552e-06 -1.30696e-06 0 2.1466e-06 -1.24956e-06 0 1.59049e-06 -1.20506e-06 0 1.05119e-06 -1.17442e-06 0 5.22846e-07 -1.15626e-06 0 -3.79382e-20 -1.14944e-06 0 1.50238e-05 4.21582e-05 0 3.98302e-05 2.90736e-05 0 5.05586e-05 1.32996e-05 0 5.16461e-05 2.17141e-06 0 4.84901e-05 -3.86792e-06 0 4.39638e-05 -6.53702e-06 0 3.92604e-05 -7.35933e-06 0 3.48282e-05 -7.265e-06 0 3.08144e-05 -6.76011e-06 0 2.72445e-05 -6.11384e-06 0 2.40962e-05 -5.44675e-06 0 2.1328e-05 -4.8212e-06 0 1.8895e-05 -4.25325e-06 0 1.6754e-05 -3.75538e-06 0 1.48643e-05 -3.32237e-06 0 1.31914e-05 -2.94395e-06 0 1.17047e-05 -2.62335e-06 0 1.03777e-05 -2.34498e-06 0 9.18804e-06 -2.10518e-06 0 8.11602e-06 -1.90152e-06 0 7.14502e-06 -1.72493e-06 0 6.26069e-06 -1.57503e-06 0 5.45019e-06 -1.44725e-06 0 4.70269e-06 -1.33756e-06 0 4.00841e-06 -1.24715e-06 0 3.35862e-06 -1.17105e-06 0 2.74565e-06 -1.10873e-06 0 2.16227e-06 -1.05996e-06 0 1.602e-06 -1.02215e-06 0 1.05875e-06 -9.96114e-07 0 5.26594e-07 -9.8069e-07 0 0 -9.74895e-07 0 1.29363e-05 3.26338e-05 0 3.51323e-05 2.3328e-05 0 4.64246e-05 1.14323e-05 0 4.90963e-05 2.47655e-06 0 4.72181e-05 -2.66184e-06 0 4.34622e-05 -5.05606e-06 0 3.91649e-05 -5.87062e-06 0 3.49261e-05 -5.87473e-06 0 3.09922e-05 -5.50415e-06 0 2.74455e-05 -4.99696e-06 0 2.4293e-05 -4.46132e-06 0 2.15091e-05 -3.95333e-06 0 1.90564e-05 -3.48984e-06 0 1.68952e-05 -3.08225e-06 0 1.49868e-05 -2.72716e-06 0 1.32972e-05 -2.41656e-06 0 1.17957e-05 -2.15326e-06 0 1.04559e-05 -1.92458e-06 0 9.2552e-06 -1.72757e-06 0 8.17363e-06 -1.56025e-06 0 7.19435e-06 -1.41517e-06 0 6.30282e-06 -1.29204e-06 0 5.48602e-06 -1.18708e-06 0 4.73296e-06 -1.09699e-06 0 4.03374e-06 -1.02275e-06 0 3.3795e-06 -9.6025e-07 0 2.76249e-06 -9.09081e-07 0 2.17539e-06 -8.69042e-07 0 1.61164e-06 -8.37997e-07 0 1.06508e-06 -8.16627e-07 0 5.2973e-07 -8.03965e-07 0 0 -7.99208e-07 0 1.14923e-05 2.43179e-05 0 3.17448e-05 1.78346e-05 0 4.32573e-05 9.18276e-06 0 4.70327e-05 2.34031e-06 0 4.61402e-05 -1.75868e-06 0 4.30134e-05 -3.74649e-06 0 3.90594e-05 -4.46858e-06 0 3.49885e-05 -4.52369e-06 0 3.11264e-05 -4.26293e-06 0 2.76025e-05 -3.88253e-06 0 2.44489e-05 -3.47259e-06 0 2.16534e-05 -3.08005e-06 0 1.91854e-05 -2.7204e-06 0 1.70084e-05 -2.40329e-06 0 1.50851e-05 -2.12663e-06 0 1.33821e-05 -1.88444e-06 0 1.18688e-05 -1.67904e-06 0 1.05187e-05 -1.50061e-06 0 9.30915e-06 -1.34688e-06 0 8.2199e-06 -1.21631e-06 0 7.23397e-06 -1.1031e-06 0 6.33666e-06 -1.00702e-06 0 5.51479e-06 -9.25134e-07 0 4.75727e-06 -8.54848e-07 0 4.05408e-06 -7.96934e-07 0 3.39627e-06 -7.48185e-07 0 2.77601e-06 -7.08274e-07 0 2.18592e-06 -6.77045e-07 0 1.61937e-06 -6.52833e-07 0 1.07016e-06 -6.36167e-07 0 5.32247e-07 -6.26293e-07 0 0 -6.22583e-07 0 1.05218e-05 1.6835e-05 0 2.94007e-05 1.25661e-05 0 4.09665e-05 6.69495e-06 0 4.5477e-05 1.88425e-06 0 4.52989e-05 -1.09015e-06 0 4.26492e-05 -2.57486e-06 0 3.8963e-05 -3.13811e-06 0 3.50258e-05 -3.2058e-06 0 3.12222e-05 -3.03469e-06 0 2.77178e-05 -2.77078e-06 0 2.45647e-05 -2.48169e-06 0 2.17613e-05 -2.20276e-06 0 1.92822e-05 -1.94636e-06 0 1.70935e-05 -1.71983e-06 0 1.5159e-05 -1.52196e-06 0 1.34459e-05 -1.34866e-06 0 1.19238e-05 -1.20161e-06 0 1.0566e-05 -1.07386e-06 0 9.34975e-06 -9.63777e-07 0 8.25472e-06 -8.70286e-07 0 7.26379e-06 -7.89226e-07 0 6.36212e-06 -7.20432e-07 0 5.53644e-06 -6.61803e-07 0 4.77556e-06 -6.11484e-07 0 4.06938e-06 -5.70024e-07 0 3.40888e-06 -5.35128e-07 0 2.78618e-06 -5.06559e-07 0 2.19384e-06 -4.84207e-07 0 1.62519e-06 -4.66877e-07 0 1.07398e-06 -4.54948e-07 0 5.3414e-07 -4.47881e-07 0 -4.08196e-21 -4.45226e-07 0 9.92223e-06 9.89631e-06 0 2.79244e-05 7.46892e-06 0 3.94793e-05 4.0659e-06 0 4.44374e-05 1.2129e-06 0 4.47227e-05 -5.88008e-07 0 4.23932e-05 -1.50403e-06 0 3.88902e-05 -1.86094e-06 0 3.5046e-05 -1.91303e-06 0 3.12836e-05 -1.81654e-06 0 2.77937e-05 -1.6614e-06 0 2.46416e-05 -1.48948e-06 0 2.18332e-05 -1.32272e-06 0 1.93467e-05 -1.16909e-06 0 1.71503e-05 -1.03317e-06 0 1.52084e-05 -9.14352e-07 0 1.34886e-05 -8.10243e-07 0 1.19606e-05 -7.21888e-07 0 1.05976e-05 -6.45113e-07 0 9.37691e-06 -5.78957e-07 0 8.27802e-06 -5.2277e-07 0 7.28374e-06 -4.74054e-07 0 6.37915e-06 -4.32712e-07 0 5.55092e-06 -3.97479e-07 0 4.7878e-06 -3.67242e-07 0 4.07961e-06 -3.42329e-07 0 3.41732e-06 -3.21361e-07 0 2.79298e-06 -3.04196e-07 0 2.19914e-06 -2.90765e-07 0 1.62908e-06 -2.80353e-07 0 1.07654e-06 -2.73186e-07 0 5.35406e-07 -2.6894e-07 0 0 -2.67345e-07 0 9.63487e-06 3.26554e-06 0 2.7209e-05 2.47772e-06 0 3.87458e-05 1.36294e-06 0 4.39157e-05 4.17756e-07 0 4.44294e-05 -1.85027e-07 0 4.22608e-05 -4.94487e-07 0 3.88512e-05 -6.16616e-07 0 3.50547e-05 -6.35906e-07 0 3.13137e-05 -6.04785e-07 0 2.78314e-05 -5.53611e-07 0 2.46799e-05 -4.96567e-07 0 2.18692e-05 -4.41084e-07 0 1.93791e-05 -3.8991e-07 0 1.71788e-05 -3.446e-07 0 1.52333e-05 -3.0498e-07 0 1.35101e-05 -2.70256e-07 0 1.19791e-05 -2.40783e-07 0 1.06135e-05 -2.15171e-07 0 9.39056e-06 -1.93101e-07 0 8.28972e-06 -1.74356e-07 0 7.29376e-06 -1.58105e-07 0 6.38771e-06 -1.44313e-07 0 5.5582e-06 -1.32559e-07 0 4.79394e-06 -1.22473e-07 0 4.08475e-06 -1.14162e-07 0 3.42155e-06 -1.07168e-07 0 2.7964e-06 -1.01442e-07 0 2.2018e-06 -9.69621e-08 0 1.63103e-06 -9.3489e-08 0 1.07782e-06 -9.10985e-08 0 5.36042e-07 -8.96822e-08 0 0 -8.91501e-08 0 9.63487e-06 -3.26554e-06 0 2.7209e-05 -2.47772e-06 0 3.87458e-05 -1.36294e-06 0 4.39157e-05 -4.17756e-07 0 4.44294e-05 1.85027e-07 0 4.22608e-05 4.94487e-07 0 3.88512e-05 6.16616e-07 0 3.50547e-05 6.35906e-07 0 3.13137e-05 6.04785e-07 0 2.78314e-05 5.53611e-07 0 2.46799e-05 4.96567e-07 0 2.18692e-05 4.41084e-07 0 1.93791e-05 3.8991e-07 0 1.71788e-05 3.446e-07 0 1.52333e-05 3.0498e-07 0 1.35101e-05 2.70256e-07 0 1.19791e-05 2.40783e-07 0 1.06135e-05 2.15171e-07 0 9.39056e-06 1.93101e-07 0 8.28972e-06 1.74356e-07 0 7.29376e-06 1.58105e-07 0 6.38771e-06 1.44313e-07 0 5.5582e-06 1.32559e-07 0 4.79394e-06 1.22473e-07 0 4.08475e-06 1.14162e-07 0 3.42155e-06 1.07168e-07 0 2.7964e-06 1.01442e-07 0 2.2018e-06 9.69621e-08 0 1.63103e-06 9.3489e-08 0 1.07782e-06 9.10985e-08 0 5.36042e-07 8.96822e-08 0 0 8.91501e-08 0 9.92223e-06 -9.89631e-06 0 2.79244e-05 -7.46892e-06 0 3.94793e-05 -4.0659e-06 0 4.44374e-05 -1.2129e-06 0 4.47227e-05 5.88008e-07 0 4.23932e-05 1.50403e-06 0 3.88902e-05 1.86094e-06 0 3.5046e-05 1.91303e-06 0 3.12836e-05 1.81654e-06 0 2.77937e-05 1.6614e-06 0 2.46416e-05 1.48948e-06 0 2.18332e-05 1.32272e-06 0 1.93467e-05 1.16909e-06 0 1.71503e-05 1.03317e-06 0 1.52084e-05 9.14352e-07 0 1.34886e-05 8.10243e-07 0 1.19606e-05 7.21888e-07 0 1.05976e-05 6.45113e-07 0 9.37691e-06 5.78957e-07 0 8.27802e-06 5.2277e-07 0 7.28374e-06 4.74054e-07 0 6.37915e-06 4.32712e-07 0 5.55092e-06 3.97479e-07 0 4.7878e-06 3.67242e-07 0 4.07961e-06 3.42329e-07 0 3.41732e-06 3.21361e-07 0 2.79298e-06 3.04196e-07 0 2.19914e-06 2.90765e-07 0 1.62908e-06 2.80353e-07 0 1.07654e-06 2.73186e-07 0 5.35406e-07 2.6894e-07 0 0 2.67345e-07 0 1.05218e-05 -1.6835e-05 0 2.94007e-05 -1.25661e-05 0 4.09665e-05 -6.69495e-06 0 4.5477e-05 -1.88425e-06 0 4.52989e-05 1.09015e-06 0 4.26492e-05 2.57486e-06 0 3.8963e-05 3.13811e-06 0 3.50258e-05 3.2058e-06 0 3.12222e-05 3.03469e-06 0 2.77178e-05 2.77078e-06 0 2.45647e-05 2.48169e-06 0 2.17613e-05 2.20276e-06 0 1.92822e-05 1.94636e-06 0 1.70935e-05 1.71983e-06 0 1.5159e-05 1.52196e-06 0 1.34459e-05 1.34866e-06 0 1.19238e-05 1.20161e-06 0 1.0566e-05 1.07386e-06 0 9.34975e-06 9.63777e-07 0 8.25472e-06 8.70286e-07 0 7.26379e-06 7.89226e-07 0 6.36212e-06 7.20432e-07 0 5.53644e-06 6.61803e-07 0 4.77556e-06 6.11484e-07 0 4.06938e-06 5.70024e-07 0 3.40888e-06 5.35128e-07 0 2.78618e-06 5.06559e-07 0 2.19384e-06 4.84207e-07 0 1.62519e-06 4.66877e-07 0 1.07398e-06 4.54948e-07 0 5.3414e-07 4.47881e-07 0 0 4.45226e-07 0 1.14923e-05 -2.43179e-05 0 3.17448e-05 -1.78346e-05 0 4.32573e-05 -9.18276e-06 0 4.70327e-05 -2.34031e-06 0 4.61402e-05 1.75868e-06 0 4.30134e-05 3.74649e-06 0 3.90594e-05 4.46858e-06 0 3.49885e-05 4.52369e-06 0 3.11264e-05 4.26293e-06 0 2.76025e-05 3.88253e-06 0 2.44489e-05 3.47259e-06 0 2.16534e-05 3.08005e-06 0 1.91854e-05 2.7204e-06 0 1.70084e-05 2.40329e-06 0 1.50851e-05 2.12663e-06 0 1.33821e-05 1.88444e-06 0 1.18688e-05 1.67904e-06 0 1.05187e-05 1.50061e-06 0 9.30915e-06 1.34688e-06 0 8.2199e-06 1.21631e-06 0 7.23397e-06 1.1031e-06 0 6.33666e-06 1.00702e-06 0 5.51479e-06 9.25134e-07 0 4.75727e-06 8.54848e-07 0 4.05408e-06 7.96934e-07 0 3.39627e-06 7.48185e-07 0 2.77601e-06 7.08274e-07 0 2.18592e-06 6.77045e-07 0 1.61937e-06 6.52833e-07 0 1.07016e-06 6.36167e-07 0 5.32247e-07 6.26293e-07 0 1.94073e-20 6.22583e-07 0 1.29363e-05 -3.26338e-05 0 3.51323e-05 -2.3328e-05 0 4.64246e-05 -1.14323e-05 0 4.90963e-05 -2.47655e-06 0 4.72181e-05 2.66184e-06 0 4.34622e-05 5.05606e-06 0 3.91649e-05 5.87062e-06 0 3.49261e-05 5.87473e-06 0 3.09922e-05 5.50415e-06 0 2.74455e-05 4.99696e-06 0 2.4293e-05 4.46132e-06 0 2.15091e-05 3.95333e-06 0 1.90564e-05 3.48984e-06 0 1.68952e-05 3.08225e-06 0 1.49868e-05 2.72716e-06 0 1.32972e-05 2.41656e-06 0 1.17957e-05 2.15326e-06 0 1.04559e-05 1.92458e-06 0 9.2552e-06 1.72757e-06 0 8.17363e-06 1.56025e-06 0 7.19435e-06 1.41517e-06 0 6.30282e-06 1.29204e-06 0 5.48602e-06 1.18708e-06 0 4.73296e-06 1.09699e-06 0 4.03374e-06 1.02275e-06 0 3.3795e-06 9.6025e-07 0 2.76249e-06 9.09081e-07 0 2.17539e-06 8.69042e-07 0 1.61164e-06 8.37997e-07 0 1.06508e-06 8.16627e-07 0 5.2973e-07 8.03965e-07 0 0 7.99208e-07 0 1.50238e-05 -4.21582e-05 0 3.98302e-05 -2.90736e-05 0 5.05586e-05 -1.32996e-05 0 5.16461e-05 -2.17141e-06 0 4.84901e-05 3.86792e-06 0 4.39638e-05 6.53702e-06 0 3.92604e-05 7.35933e-06 0 3.48282e-05 7.265e-06 0 3.08144e-05 6.76011e-06 0 2.72445e-05 6.11384e-06 0 2.40962e-05 5.44675e-06 0 2.1328e-05 4.8212e-06 0 1.8895e-05 4.25325e-06 0 1.6754e-05 3.75538e-06 0 1.48643e-05 3.32237e-06 0 1.31914e-05 2.94395e-06 0 1.17047e-05 2.62335e-06 0 1.03777e-05 2.34498e-06 0 9.18804e-06 2.10518e-06 0 8.11602e-06 1.90152e-06 0 7.14502e-06 1.72493e-06 0 6.26069e-06 1.57503e-06 0 5.45019e-06 1.44725e-06 0 4.70269e-06 1.33756e-06 0 4.00841e-06 1.24715e-06 0 3.35862e-06 1.17105e-06 0 2.74565e-06 1.10873e-06 0 2.16227e-06 1.05996e-06 0 1.602e-06 1.02215e-06 0 1.05875e-06 9.96114e-07 0 5.26594e-07 9.8069e-07 0 0 9.74895e-07 0 1.80364e-05 -5.34063e-05 0 4.62283e-05 -3.50424e-05 0 5.57552e-05 -1.45719e-05 0 5.46362e-05 -1.28448e-06 0 4.98975e-05 5.44278e-06 0 4.44779e-05 8.21718e-06 0 3.9323e-05 8.94567e-06 0 3.46827e-05 8.69808e-06 0 3.05867e-05 8.03125e-06 0 2.69965e-05 7.23218e-06 0 2.3857e-05 6.42739e-06 0 2.11097e-05 5.68208e-06 0 1.87014e-05 5.00912e-06 0 1.65848e-05 4.42129e-06 0 1.47177e-05 3.91103e-06 0 1.30651e-05 3.46557e-06 0 1.1596e-05 3.08842e-06 0 1.02843e-05 2.76103e-06 0 9.10784e-06 2.47903e-06 0 8.04723e-06 2.23955e-06 0 7.08611e-06 2.03187e-06 0 6.21037e-06 1.85557e-06 0 5.40739e-06 1.70526e-06 0 4.66653e-06 1.57622e-06 0 3.97815e-06 1.46985e-06 0 3.33366e-06 1.3803e-06 0 2.72552e-06 1.30696e-06 0 2.1466e-06 1.24956e-06 0 1.59049e-06 1.20506e-06 0 1.05119e-06 1.17442e-06 0 5.22846e-07 1.15626e-06 0 0 1.14944e-06 0 2.24552e-05 -6.71176e-05 0 5.48879e-05 -4.10895e-05 0 6.2093e-05 -1.49408e-05 0 5.79826e-05 3.41276e-07 0 5.13617e-05 7.44551e-06 0 4.49564e-05 1.01165e-05 0 3.93264e-05 1.06355e-05 0 3.44761e-05 1.01747e-05 0 3.03026e-05 9.31642e-06 0 2.66985e-05 8.35023e-06 0 2.35743e-05 7.40137e-06 0 2.08538e-05 6.53418e-06 0 1.84754e-05 5.75584e-06 0 1.63879e-05 5.07858e-06 0 1.45475e-05 4.49194e-06 0 1.29184e-05 3.98037e-06 0 1.14699e-05 3.54756e-06 0 1.01759e-05 3.17196e-06 0 9.01477e-06 2.84848e-06 0 7.9674e-06 2.57375e-06 0 7.01774e-06 2.3355e-06 0 6.15196e-06 2.13321e-06 0 5.35771e-06 1.96073e-06 0 4.62454e-06 1.81263e-06 0 3.94301e-06 1.69054e-06 0 3.30468e-06 1.58773e-06 0 2.70215e-06 1.50352e-06 0 2.12839e-06 1.43762e-06 0 1.57711e-06 1.38651e-06 0 1.0424e-06 1.35132e-06 0 5.18492e-07 1.33047e-06 0 -5.82064e-20 1.32264e-06 0 2.908e-05 -8.43979e-05 0 6.65337e-05 -4.6836e-05 0 6.957e-05 -1.3975e-05 0 6.15461e-05 2.87024e-06 0 5.27855e-05 9.92193e-06 0 4.53462e-05 1.22445e-05 0 3.92438e-05 1.24284e-05 0 3.41955e-05 1.16923e-05 0 2.99563e-05 1.06128e-05 0 2.63481e-05 9.46538e-06 0 2.32474e-05 8.36638e-06 0 2.05605e-05 7.37553e-06 0 1.82176e-05 6.49172e-06 0 1.6164e-05 5.72581e-06 0 1.43541e-05 5.06387e-06 0 1.27519e-05 4.48731e-06 0 1.13268e-05 3.9999e-06 0 1.0053e-05 3.57702e-06 0 8.90925e-06 3.21286e-06 0 7.87688e-06 2.90358e-06 0 6.9402e-06 2.63534e-06 0 6.08571e-06 2.40755e-06 0 5.30135e-06 2.21329e-06 0 4.5769e-06 2.04647e-06 0 3.90313e-06 1.90891e-06 0 3.27179e-06 1.79307e-06 0 2.67562e-06 1.69818e-06 0 2.10772e-06 1.6239e-06 0 1.56193e-06 1.56629e-06 0 1.03243e-06 1.52663e-06 0 5.13548e-07 1.50312e-06 0 0 1.49429e-06 0 3.95602e-05 -0.000106967 0 8.22795e-05 -5.14409e-05 0 7.80832e-05 -1.11059e-05 0 6.51204e-05 6.45435e-06 0 5.40467e-05 1.28961e-05 0 4.55845e-05 1.45978e-05 0 3.90436e-05 1.43176e-05 0 3.38249e-05 1.32449e-05 0 2.95395e-05 1.19159e-05 0 2.59412e-05 1.05741e-05 0 2.28741e-05 9.31971e-06 0 2.02286e-05 8.20394e-06 0 1.79275e-05 7.21498e-06 0 1.59127e-05 6.36151e-06 0 1.41374e-05 5.62559e-06 0 1.25656e-05 4.98537e-06 0 1.11667e-05 4.44454e-06 0 9.91549e-06 3.97546e-06 0 8.79122e-06 3.57155e-06 0 7.77561e-06 3.22849e-06 0 6.85345e-06 2.93091e-06 0 6.01158e-06 2.67816e-06 0 5.23826e-06 2.46258e-06 0 4.52357e-06 2.27741e-06 0 3.85849e-06 2.12469e-06 0 3.23497e-06 1.99606e-06 0 2.6459e-06 1.89068e-06 0 2.08457e-06 1.80818e-06 0 1.54492e-06 1.74419e-06 0 1.02125e-06 1.70013e-06 0 5.08011e-07 1.67402e-06 0 0 1.6642e-06 0 5.70365e-05 -0.000137589 0 0.000103277 -5.31793e-05 0 8.72203e-05 -5.65476e-06 0 6.8412e-05 1.12002e-05 0 5.50107e-05 1.63606e-05 0 4.56117e-05 1.71576e-05 0 3.8699e-05 1.62888e-05 0 3.33522e-05 1.48231e-05 0 2.90471e-05 1.32193e-05 0 2.54759e-05 1.16722e-05 0 2.24543e-05 1.02583e-05 0 1.98587e-05 9.01704e-06 0 1.76057e-05 7.92376e-06 0 1.56348e-05 6.98419e-06 0 1.38983e-05 6.17588e-06 0 1.23601e-05 5.47352e-06 0 1.09902e-05 4.88065e-06 0 9.76397e-06 4.36656e-06 0 8.66113e-06 3.92392e-06 0 7.664e-06 3.54793e-06 0 6.75781e-06 3.22174e-06 0 5.92984e-06 2.94464e-06 0 5.1687e-06 2.70823e-06 0 4.46474e-06 2.50513e-06 0 3.80923e-06 2.33759e-06 0 3.19433e-06 2.19645e-06 0 2.61311e-06 2.0808e-06 0 2.05902e-06 1.99024e-06 0 1.52614e-06 1.92e-06 0 1.00892e-06 1.87162e-06 0 5.01897e-07 1.84295e-06 0 -1.20945e-19 1.83218e-06 0 8.84349e-05 -0.000180789 0 0.000130404 -4.87563e-05 0 9.61725e-05 3.04564e-06 0 7.1056e-05 1.71238e-05 0 5.55359e-05 2.0268e-05 0 4.53696e-05 1.98888e-05 0 3.81845e-05 1.83208e-05 0 3.27661e-05 1.64144e-05 0 2.84743e-05 1.45154e-05 0 2.49504e-05 1.27546e-05 0 2.19875e-05 1.11786e-05 0 1.9451e-05 9.81232e-06 0 1.72529e-05 8.61616e-06 0 1.5331e-05 7.59233e-06 0 1.36372e-05 6.7135e-06 0 1.2136e-05 5.95076e-06 0 1.07979e-05 5.30737e-06 0 9.59881e-06 4.7496e-06 0 8.51933e-06 4.26937e-06 0 7.54231e-06 3.86141e-06 0 6.65352e-06 3.5074e-06 0 5.84068e-06 3.2066e-06 0 5.0928e-06 2.94991e-06 0 4.40055e-06 2.72934e-06 0 3.75547e-06 2.54733e-06 0 3.14996e-06 2.39397e-06 0 2.57731e-06 2.26829e-06 0 2.03112e-06 2.16987e-06 0 1.50564e-06 2.09351e-06 0 9.95444e-07 2.04092e-06 0 4.95219e-07 2.00975e-06 0 0 1.99803e-06 0 0.000150885 -0.000243707 0 0.000162692 -3.25755e-05 0 0.000103612 1.53784e-05 0 7.26414e-05 2.41023e-05 0 5.54865e-05 2.4525e-05 0 4.48068e-05 2.274e-05 0 3.74787e-05 2.03858e-05 0 3.20573e-05 1.80033e-05 0 2.78171e-05 1.5795e-05 0 2.43634e-05 1.38155e-05 0 2.14735e-05 1.20769e-05 0 1.90058e-05 1.05871e-05 0 1.68695e-05 9.29021e-06 0 1.50018e-05 8.18442e-06 0 1.33549e-05 7.23726e-06 0 1.18937e-05 6.41611e-06 0 1.059e-05 5.72391e-06 0 9.42039e-06 5.12392e-06 0 8.36613e-06 4.60733e-06 0 7.41082e-06 4.1684e-06 0 6.5408e-06 3.78745e-06 0 5.74429e-06 3.46366e-06 0 5.01072e-06 3.18728e-06 0 4.33111e-06 2.94972e-06 0 3.69731e-06 2.75364e-06 0 3.10196e-06 2.58839e-06 0 2.53855e-06 2.45294e-06 0 2.00092e-06 2.34684e-06 0 1.48344e-06 2.26452e-06 0 9.80856e-07 2.20782e-06 0 4.87989e-07 2.17421e-06 0 3.80505e-19 2.16158e-06 0 0.000293654 -0.000334182 0 0.000193729 2.46029e-06 0 0.000107818 3.10262e-05 0 7.27888e-05 3.18411e-05 0 5.47562e-05 2.89938e-05 0 4.38871e-05 2.56459e-05 0 3.65679e-05 2.2451e-05 0 3.12207e-05 1.95721e-05 0 2.7074e-05 1.7048e-05 0 2.37148e-05 1.4849e-05 0 2.09131e-05 1.29494e-05 0 1.85241e-05 1.13387e-05 0 1.64566e-05 9.94396e-06 0 1.46481e-05 8.75897e-06 0 1.30519e-05 7.74599e-06 0 1.16341e-05 6.86864e-06 0 1.03673e-05 6.12946e-06 0 9.2292e-06 5.48884e-06 0 8.20194e-06 4.93723e-06 0 7.26987e-06 4.46844e-06 0 6.41994e-06 4.06147e-06 0 5.64091e-06 3.71546e-06 0 4.92266e-06 3.42001e-06 0 4.2566e-06 3.16599e-06 0 3.63487e-06 2.95627e-06 0 3.05041e-06 2.77947e-06 0 2.49694e-06 2.63453e-06 0 1.96848e-06 2.52097e-06 0 1.4596e-06 2.43284e-06 0 9.65185e-07 2.37214e-06 0 4.80221e-07 2.33615e-06 0 2.55534e-19 2.32263e-06 0 0.000693628 -0.000446466 0 0.000208152 5.82182e-05 0 0.000107174 4.86167e-05 0 7.12332e-05 3.98815e-05 0 5.32818e-05 3.35014e-05 0 4.25913e-05 2.85311e-05 0 3.54456e-05 2.44799e-05 0 3.02542e-05 2.11019e-05 0 2.62448e-05 1.82637e-05 0 2.30055e-05 1.58485e-05 0 2.03072e-05 1.37919e-05 0 1.80069e-05 1.20644e-05 0 1.60151e-05 1.05754e-05 0 1.42709e-05 9.31452e-06 0 1.27293e-05 8.23853e-06 0 1.13578e-05 7.30741e-06 0 1.01303e-05 6.52328e-06 0 9.02576e-06 5.84374e-06 0 8.02721e-06 5.25853e-06 0 7.11982e-06 4.76106e-06 0 6.29124e-06 4.32906e-06 0 5.53078e-06 3.96163e-06 0 4.82883e-06 3.64779e-06 0 4.17717e-06 3.37788e-06 0 3.5683e-06 3.15495e-06 0 2.99544e-06 2.96698e-06 0 2.45255e-06 2.81283e-06 0 1.93386e-06 2.69204e-06 0 1.43415e-06 2.59829e-06 0 9.48462e-07 2.53369e-06 0 4.71931e-07 2.4954e-06 0 0 2.48101e-06 0 0.000400313 0.00145806 0 0.000189765 0.000118978 0 0.00010095 6.58387e-05 0 6.79062e-05 4.76647e-05 0 5.10566e-05 3.78577e-05 0 4.09204e-05 3.13162e-05 0 3.41139e-05 2.64349e-05 0 2.916e-05 2.2573e-05 0 2.53317e-05 1.94311e-05 0 2.22372e-05 1.68077e-05 0 1.96575e-05 1.46005e-05 0 1.74558e-05 1.27613e-05 0 1.55464e-05 1.11827e-05 0 1.38713e-05 9.84965e-06 0 1.23879e-05 8.71379e-06 0 1.10655e-05 7.73157e-06 0 9.87968e-06 6.90466e-06 0 8.81061e-06 6.18801e-06 0 7.84236e-06 5.57073e-06 0 6.96104e-06 5.04582e-06 0 6.155e-06 4.58984e-06 0 5.41416e-06 4.20186e-06 0 4.72943e-06 3.87033e-06 0 4.093e-06 3.58511e-06 0 3.49774e-06 3.34945e-06 0 2.93715e-06 3.15069e-06 0 2.40547e-06 2.98766e-06 0 1.89715e-06 2.85987e-06 0 1.40716e-06 2.76067e-06 0 9.30717e-07 2.69231e-06 0 4.63134e-07 2.65179e-06 0 0 2.63656e-06 0 </DataArray> 
</PointData> 
<Points> 
<DataArray type="Float32" NumberOfComponents="3"> 