<?xml version="1.0"?> 
<VTKFile type="StructuredGrid" version="0.1"> 
<StructuredGrid WholeExtent="0 31 0 31 0 0"> 
<Piece Extent="0 31 0 31 0 0"> 
<PointData>
<DataArray type="Float32" Name="B" format="ascii" NumberOfComponents="3"> 
0 -1.03794e-06 0 1.89377e-07 -1.0418e-06 0 3.80106e-07 -1.05202e-06 0 5.73513e-07 -1.06905e-06 0 7.70988e-07 -1.09333e-06 0 9.73904e-07 -1.12393e-06 0 1.18366e-06 -1.16173e-06 0 1.40174e-06 -1.20612e-06 0 1.6296e-06 -1.25657e-06 0 1.8688e-06 -1.31396e-06 0 2.12094e-06 -1.37663e-06 0 2.38765e-06 -1.44433e-06 0 2.67072e-06 -1.51621e-06 0 2.97197e-06 -1.59039e-06 0 3.29333e-06 -1.66489e-06 0 3.63695e-06 -1.73663e-06 0 4.00511e-06 -1.80192e-06 0 4.40045e-06 -1.85262e-06 0 4.82603e-06 -1.88314e-06 0 5.28553e-06 -1.88026e-06 0 5.78381e-06 -1.82515e-06 0 6.3273e-06 -1.70265e-06 0 6.92517e-06 -1.46534e-06 0 7.5916e-06 -1.07397e-06 0 8.34871e-06 -4.60462e-07 0 9.23653e-06 5.02965e-07 0 1.03358e-05 2.00985e-06 0 1.18461e-05 4.43804e-06 0 1.44035e-05 8.64303e-06 0 2.0868e-05 1.70296e-05 0 5.50199e-05 3.8671e-05 0 9.58218e-05 -0.00519762 0 0 -1.22338e-06 0 1.81837e-07 -1.22799e-06 0 3.65021e-07 -1.2402e-06 0 5.50878e-07 -1.26059e-06 0 7.40805e-07 -1.28966e-06 0 9.36192e-07 -1.32637e-06 0 1.13847e-06 -1.37182e-06 0 1.34919e-06 -1.42535e-06 0 1.56988e-06 -1.4864e-06 0 1.80224e-06 -1.55622e-06 0 2.04807e-06 -1.63295e-06 0 2.30928e-06 -1.71657e-06 0 2.58802e-06 -1.80649e-06 0 2.88665e-06 -1.90075e-06 0 3.20783e-06 -1.99795e-06 0 3.55474e-06 -2.09514e-06 0 3.93101e-06 -2.18895e-06 0 4.34122e-06 -2.27255e-06 0 4.79111e-06 -2.34059e-06 0 5.28798e-06 -2.38166e-06 0 5.84203e-06 -2.37961e-06 0 6.46708e-06 -2.32143e-06 0 7.18312e-06 -2.16795e-06 0 8.02109e-06 -1.88839e-06 0 9.02865e-06 -1.43221e-06 0 1.0289e-05 -7.12866e-07 0 1.19562e-05 3.71326e-07 0 1.43518e-05 1.93768e-06 0 1.82165e-05 3.94529e-06 0 2.5187e-05 4.99397e-06 0 3.36032e-05 -4.19739e-06 0 -3.3491e-07 -2.11593e-06 0 0 -1.40061e-06 0 1.72961e-07 -1.40597e-06 0 3.47254e-07 -1.42017e-06 0 5.24195e-07 -1.44388e-06 0 7.05174e-07 -1.47775e-06 0 8.91588e-07 -1.52057e-06 0 1.08489e-06 -1.57372e-06 0 1.28666e-06 -1.6365e-06 0 1.49852e-06 -1.70835e-06 0 1.72227e-06 -1.79098e-06 0 1.95986e-06 -1.88233e-06 0 2.21344e-06 -1.98274e-06 0 2.4855e-06 -2.09201e-06 0 2.77884e-06 -2.20819e-06 0 3.09676e-06 -2.33079e-06 0 3.44328e-06 -2.45723e-06 0 3.82319e-06 -2.5847e-06 0 4.24265e-06 -2.70867e-06 0 4.70954e-06 -2.8243e-06 0 5.23401e-06 -2.92331e-06 0 5.83025e-06 -2.99398e-06 0 6.51733e-06 -3.0268e-06 0 7.32234e-06 -2.9955e-06 0 8.2858e-06 -2.88161e-06 0 9.46668e-06 -2.6584e-06 0 1.09586e-05 -2.28949e-06 0 1.29088e-05 -1.76108e-06 0 1.5544e-05 -1.12615e-06 0 1.91349e-05 -6.68309e-07 0 2.35253e-05 -1.16495e-06 0 2.64787e-05 -2.66406e-06 0 2.8134e-05 1.51737e-06 0 -1.34202e-20 -1.56831e-06 0 1.62764e-07 -1.57441e-06 0 3.26833e-07 -1.59056e-06 0 4.93496e-07 -1.61755e-06 0 6.64124e-07 -1.65616e-06 0 8.40102e-07 -1.70505e-06 0 1.02289e-06 -1.76586e-06 0 1.21407e-06 -1.8379e-06 0 1.41532e-06 -1.92062e-06 0 1.62851e-06 -2.01627e-06 0 1.85571e-06 -2.12262e-06 0 2.09922e-06 -2.24042e-06 0 2.3618e-06 -2.36999e-06 0 2.64658e-06 -2.50949e-06 0 2.95729e-06 -2.65956e-06 0 3.29862e-06 -2.81815e-06 0 3.67615e-06 -2.98329e-06 0 4.09715e-06 -3.15332e-06 0 4.57091e-06 -3.32416e-06 0 5.10936e-06 -3.49144e-06 0 5.729e-06 -3.64883e-06 0 6.45155e-06 -3.79082e-06 0 7.30697e-06 -3.9057e-06 0 8.33804e-06 -3.9871e-06 0 9.60287e-06 -4.02959e-06 0 1.11844e-05 -4.03469e-06 0 1.3192e-05 -4.03217e-06 0 1.57504e-05 -4.10504e-06 0 1.89316e-05 -4.41638e-06 0 2.25994e-05 -5.09163e-06 0 2.65394e-05 -5.68954e-06 0 3.18818e-05 -5.32316e-06 0 0 -1.72517e-06 0 1.51275e-07 -1.73198e-06 0 3.03811e-07 -1.75003e-06 0 4.58855e-07 -1.78022e-06 0 6.17739e-07 -1.82346e-06 0 7.81816e-07 -1.87828e-06 0 9.52519e-07 -1.94663e-06 0 1.13143e-06 -2.02781e-06 0 1.32023e-06 -2.12133e-06 0 1.52079e-06 -2.22998e-06 0 1.73527e-06 -2.35141e-06 0 1.96605e-06 -2.48685e-06 0 2.21602e-06 -2.63721e-06 0 2.48849e-06 -2.80079e-06 0 2.78746e-06 -2.97955e-06 0 3.11797e-06 -3.17206e-06 0 3.48603e-06 -3.37728e-06 0 3.89944e-06 -3.59682e-06 0 4.36813e-06 -3.82736e-06 0 4.90469e-06 -4.06876e-06 0 5.52621e-06 -4.32024e-06 0 6.25466e-06 -4.58001e-06 0 7.11933e-06 -4.8502e-06 0 8.16006e-06 -5.13395e-06 0 9.42756e-06 -5.44118e-06 0 1.09881e-05 -5.79628e-06 0 1.29191e-05 -6.24306e-06 0 1.52989e-05 -6.85377e-06 0 1.81824e-05 -7.71681e-06 0 2.16041e-05 -8.86881e-06 0 2.57228e-05 -1.02333e-05 0 3.10414e-05 -1.18719e-05 0 0 -1.86992e-06 0 1.38534e-07 -1.87742e-06 0 2.78267e-07 -1.89729e-06 0 4.20385e-07 -1.93055e-06 0 5.66161e-07 -1.97824e-06 0 7.16893e-07 -2.03878e-06 0 8.73964e-07 -2.11442e-06 0 1.03891e-06 -2.20447e-06 0 1.21337e-06 -2.3085e-06 0 1.39921e-06 -2.42988e-06 0 1.59854e-06 -2.56615e-06 0 1.81377e-06 -2.71906e-06 0 2.04778e-06 -2.89013e-06 0 2.30394e-06 -3.07783e-06 0 2.58629e-06 -3.2855e-06 0 2.8999e-06 -3.51237e-06 0 3.25083e-06 -3.75836e-06 0 3.64687e-06 -4.02837e-06 0 4.09783e-06 -4.31977e-06 0 4.61592e-06 -4.63648e-06 0 5.21742e-06 -4.98286e-06 0 5.92264e-06 -5.36007e-06 0 6.75776e-06 -5.78205e-06 0 7.75684e-06 -6.25838e-06 0 8.961e-06 -6.80889e-06 0 1.04208e-05 -7.47121e-06 0 1.21926e-05 -8.29383e-06 0 1.43349e-05 -9.34416e-06 0 1.69069e-05 -1.07007e-05 0 1.99874e-05 -1.24374e-05 0 2.37251e-05 -1.46436e-05 0 2.83528e-05 -1.75166e-05 0 7.58425e-20 -2.00135e-06 0 1.24608e-07 -2.00949e-06 0 2.50332e-07 -2.03108e-06 0 3.78282e-07 -2.06724e-06 0 5.09647e-07 -2.11912e-06 0 6.45646e-07 -2.18508e-06 0 7.87581e-07 -2.26762e-06 0 9.36911e-07 -2.36611e-06 0 1.09519e-06 -2.48016e-06 0 1.2642e-06 -2.61373e-06 0 1.44598e-06 -2.76425e-06 0 1.64283e-06 -2.93397e-06 0 1.85754e-06 -3.12507e-06 0 2.09334e-06 -3.33616e-06 0 2.35413e-06 -3.57194e-06 0 2.64474e-06 -3.83225e-06 0 2.97092e-06 -4.11791e-06 0 3.33995e-06 -4.43693e-06 0 3.76088e-06 -4.78717e-06 0 4.24476e-06 -5.17611e-06 0 4.80594e-06 -5.61246e-06 0 5.46186e-06 -6.09945e-06 0 6.23417e-06 -6.66017e-06 0 7.14993e-06 -7.30811e-06 0 8.24035e-06 -8.06916e-06 0 9.54224e-06 -8.98883e-06 0 1.10957e-05 -1.01186e-05 0 1.29439e-05 -1.15279e-05 0 1.51353e-05 -1.33042e-05 0 1.77341e-05 -1.55534e-05 0 2.08328e-05 -1.84227e-05 0 2.45483e-05 -2.21326e-05 0 0 -2.11831e-06 0 1.09576e-07 -2.12705e-06 0 2.20169e-07 -2.15022e-06 0 3.32788e-07 -2.18905e-06 0 4.48518e-07 -2.24481e-06 0 5.68475e-07 -2.31577e-06 0 6.93853e-07 -2.40471e-06 0 8.25992e-07 -2.51102e-06 0 9.66323e-07 -2.63439e-06 0 1.1165e-06 -2.77931e-06 0 1.2784e-06 -2.94312e-06 0 1.45415e-06 -3.12858e-06 0 1.64633e-06 -3.33842e-06 0 1.8579e-06 -3.57141e-06 0 2.09241e-06 -3.83351e-06 0 2.35423e-06 -4.12505e-06 0 2.6485e-06 -4.44766e-06 0 2.98161e-06 -4.81203e-06 0 3.36137e-06 -5.21631e-06 0 3.79708e-06 -5.67087e-06 0 4.30051e-06 -6.18772e-06 0 4.88545e-06 -6.77131e-06 0 5.56841e-06 -7.45126e-06 0 6.36909e-06 -8.24296e-06 0 7.30911e-06 -9.17553e-06 0 8.41271e-06 -1.02989e-05 0 9.70509e-06 -1.16659e-05 0 1.12123e-05 -1.33486e-05 0 1.2962e-05 -1.54406e-05 0 1.49864e-05 -1.80619e-05 0 1.73229e-05 -2.13757e-05 0 2.00109e-05 -2.56086e-05 0 0 -2.21975e-06 0 9.35207e-08 -2.22902e-06 0 1.87939e-07 -2.25361e-06 0 2.84146e-07 -2.29484e-06 0 3.83102e-07 -2.35408e-06 0 4.85794e-07 -2.42954e-06 0 5.93282e-07 -2.52425e-06 0 7.06754e-07 -2.63761e-06 0 8.27481e-07 -2.76937e-06 0 9.56929e-07 -2.92455e-06 0 1.09676e-06 -3.10037e-06 0 1.24886e-06 -3.30003e-06 0 1.41548e-06 -3.52678e-06 0 1.5992e-06 -3.77951e-06 0 1.80309e-06 -4.06523e-06 0 2.03086e-06 -4.3847e-06 0 2.2868e-06 -4.74014e-06 0 2.57617e-06 -5.14442e-06 0 2.90519e-06 -5.59576e-06 0 3.28109e-06 -6.10664e-06 0 3.71268e-06 -6.6913e-06 0 4.20984e-06 -7.35466e-06 0 4.78378e-06 -8.13037e-06 0 5.44704e-06 -9.03421e-06 0 6.21222e-06 -1.00963e-05 0 7.09194e-06 -1.13678e-05 0 8.09713e-06 -1.29005e-05 0 9.23593e-06 -1.47653e-05 0 1.05123e-05 -1.70549e-05 0 1.19241e-05 -1.98876e-05 0 1.34585e-05 -2.34219e-05 0 1.50853e-05 -2.78727e-05 0 0 -2.30472e-06 0 7.66027e-08 -2.31445e-06 0 1.53967e-07 -2.34027e-06 0 2.32852e-07 -2.38358e-06 0 3.14072e-07 -2.44585e-06 0 3.98466e-07 -2.52521e-06 0 4.86935e-07 -2.62492e-06 0 5.80489e-07 -2.7444e-06 0 6.80207e-07 -2.88347e-06 0 7.87327e-07 -3.04754e-06 0 9.03253e-07 -3.23378e-06 0 1.02955e-06 -3.44574e-06 0 1.1681e-06 -3.68709e-06 0 1.321e-06 -3.9568e-06 0 1.49074e-06 -4.26272e-06 0 1.68025e-06 -4.60591e-06 0 1.89284e-06 -4.98899e-06 0 2.13246e-06 -5.4264e-06 0 2.40364e-06 -5.91625e-06 0 2.71137e-06 -6.47234e-06 0 3.06143e-06 -7.11016e-06 0 3.45984e-06 -7.83444e-06 0 3.91274e-06 -8.68066e-06 0 4.42602e-06 -9.66374e-06 0 5.00413e-06 -1.08129e-05 0 5.64918e-06 -1.21776e-05 0 6.35914e-06 -1.38059e-05 0 7.12555e-06 -1.57629e-05 0 7.93034e-06 -1.81327e-05 0 8.74084e-06 -2.10204e-05 0 9.50164e-06 -2.45634e-05 0 1.01218e-05 -2.89434e-05 0 0 -2.37241e-06 0 5.89419e-08 -2.38252e-06 0 1.18496e-07 -2.40936e-06 0 1.79273e-07 -2.45439e-06 0 2.41926e-07 -2.51917e-06 0 3.07131e-07 -2.60177e-06 0 3.75609e-07 -2.70561e-06 0 4.4817e-07 -2.83017e-06 0 5.25672e-07 -2.97527e-06 0 6.09097e-07 -3.14668e-06 0 6.99549e-07 -3.3415e-06 0 7.98245e-07 -3.56355e-06 0 9.06624e-07 -3.81684e-06 0 1.02627e-06 -4.10033e-06 0 1.15901e-06 -4.4225e-06 0 1.30693e-06 -4.78457e-06 0 1.47232e-06 -5.18934e-06 0 1.65776e-06 -5.65229e-06 0 1.86603e-06 -6.1712e-06 0 2.09996e-06 -6.76051e-06 0 2.3624e-06 -7.43599e-06 0 2.65579e-06 -8.20176e-06 0 2.98171e-06 -9.09317e-06 0 3.34018e-06 -1.01234e-05 0 3.72866e-06 -1.13192e-05 0 4.1404e-06 -1.27258e-05 0 4.56253e-06 -1.43849e-05 0 4.97301e-06 -1.63522e-05 0 5.33631e-06 -1.86973e-05 0 5.59688e-06 -2.15039e-05 0 5.66879e-06 -2.48762e-05 0 5.41911e-06 -2.89437e-05 0 0 -2.42212e-06 0 4.06305e-08 -2.43254e-06 0 8.17119e-08 -2.46017e-06 0 1.23692e-07 -2.50653e-06 0 1.67054e-07 -2.57324e-06 0 2.1229e-07 -2.65834e-06 0 2.5993e-07 -2.76538e-06 0 3.10561e-07 -2.89384e-06 0 3.64806e-07 -3.04359e-06 0 4.23365e-07 -3.22063e-06 0 4.87017e-07 -3.422e-06 0 5.56605e-07 -3.65172e-06 0 6.331e-07 -3.91398e-06 0 7.1754e-07 -4.20774e-06 0 8.11061e-07 -4.54187e-06 0 9.1491e-07 -4.91757e-06 0 1.03033e-06 -5.33772e-06 0 1.1586e-06 -5.81818e-06 0 1.30084e-06 -6.3564e-06 0 1.45788e-06 -6.96673e-06 0 1.62999e-06 -7.66452e-06 0 1.81648e-06 -8.45294e-06 0 2.01515e-06 -9.36566e-06 0 2.22128e-06 -1.04135e-05 0 2.42686e-06 -1.16195e-05 0 2.61851e-06 -1.30231e-05 0 2.77556e-06 -1.46578e-05 0 2.86682e-06 -1.65673e-05 0 2.84609e-06 -1.8804e-05 0 2.64551e-06 -2.14261e-05 0 2.1655e-06 -2.44992e-05 0 1.25912e-06 -2.80937e-05 0 0 -2.45335e-06 0 2.19072e-08 -2.46397e-06 0 4.40959e-08 -2.49214e-06 0 6.68454e-08 -2.53942e-06 0 9.04558e-08 -2.60746e-06 0 1.15233e-07 -2.69428e-06 0 1.41503e-07 -2.80351e-06 0 1.69625e-07 -2.93465e-06 0 1.99971e-07 -3.08755e-06 0 2.32954e-07 -3.26841e-06 0 2.69016e-07 -3.47418e-06 0 3.0862e-07 -3.70899e-06 0 3.52263e-07 -3.97712e-06 0 4.00438e-07 -4.2775e-06 0 4.53617e-07 -4.6191e-06 0 5.12218e-07 -5.00307e-06 0 5.76515e-07 -5.43217e-06 0 6.46554e-07 -5.92218e-06 0 7.2198e-07 -6.47009e-06 0 8.01851e-07 -7.08971e-06 0 8.84225e-07 -7.79536e-06 0 9.65833e-07 -8.58905e-06 0 1.0414e-06 -9.50165e-06 0 1.1026e-06 -1.05412e-05 0 1.13738e-06 -1.17267e-05 0 1.12774e-06 -1.30902e-05 0 1.04811e-06 -1.46567e-05 0 8.62227e-07 -1.64574e-05 0 5.19172e-07 -1.85267e-05 0 -5.21811e-08 -2.08977e-05 0 -9.50988e-07 -2.36001e-05 0 -2.31546e-06 -2.66515e-05 0 0 -2.46573e-06 0 2.89269e-09 -2.47645e-06 0 5.8922e-09 -2.50491e-06 0 9.10432e-09 -2.55267e-06 0 1.26418e-08 -2.62142e-06 0 1.66182e-08 -2.70914e-06 0 2.11515e-08 -2.81953e-06 0 2.63667e-08 -2.95205e-06 0 3.23856e-08 -3.10659e-06 0 3.93306e-08 -3.28938e-06 0 4.73122e-08 -3.49735e-06 0 5.64158e-08 -3.73462e-06 0 6.6685e-08 -4.00548e-06 0 7.80887e-08 -4.30877e-06 0 9.04799e-08 -4.65341e-06 0 1.0352e-07 -5.04035e-06 0 1.16615e-07 -5.47214e-06 0 1.28745e-07 -5.96404e-06 0 1.38303e-07 -6.51262e-06 0 1.429e-07 -7.1307e-06 0 1.38853e-07 -7.83119e-06 0 1.20957e-07 -8.61485e-06 0 8.17586e-08 -9.50902e-06 0 1.05014e-08 -1.05189e-05 0 -1.0729e-07 -1.16591e-05 0 -2.92016e-07 -1.29544e-05 0 -5.71213e-07 -1.44213e-05 0 -9.82135e-07 -1.60791e-05 0 -1.57471e-06 -1.79463e-05 0 -2.41535e-06 -2.00347e-05 0 -3.5915e-06 -2.23458e-05 0 -5.21668e-06 -2.48601e-05 0 -9.35214e-21 -2.45906e-06 0 -1.62267e-08 -2.46979e-06 0 -3.25227e-08 -2.49828e-06 0 -4.89574e-08 -2.54609e-06 0 -6.56063e-08 -2.6149e-06 0 -8.25488e-08 -2.7027e-06 0 -9.98739e-08 -2.81318e-06 0 -1.17688e-07 -2.9458e-06 0 -1.36117e-07 -3.10043e-06 0 -1.5532e-07 -3.28327e-06 0 -1.75506e-07 -3.49122e-06 0 -1.96947e-07 -3.72835e-06 0 -2.20024e-07 -3.99884e-06 0 -2.45247e-07 -4.30145e-06 0 -2.73321e-07 -4.64481e-06 0 -3.05246e-07 -5.02969e-06 0 -3.42361e-07 -5.4583e-06 0 -3.86569e-07 -5.94507e-06 0 -4.40481e-07 -6.48616e-06 0 -5.07596e-07 -7.09315e-06 0 -5.92876e-07 -7.77728e-06 0 -7.02858e-07 -8.53812e-06 0 -8.46372e-07 -9.39911e-06 0 -1.03552e-06 -1.03628e-05 0 -1.28584e-06 -1.14396e-05 0 -1.61834e-06 -1.26472e-05 0 -2.0602e-06 -1.39949e-05 0 -2.64668e-06 -1.54918e-05 0 -3.42294e-06 -1.71436e-05 0 -4.44605e-06 -1.89465e-05 0 -5.78655e-06 -2.08835e-05 0 -7.5288e-06 -2.29147e-05 0 1.47077e-20 -2.43332e-06 0 -3.52876e-08 -2.44397e-06 0 -7.08194e-08 -2.47223e-06 0 -1.06838e-07 -2.51964e-06 0 -1.43605e-07 -2.58788e-06 0 -1.8139e-07 -2.67494e-06 0 -2.20485e-07 -2.78446e-06 0 -2.6122e-07 -2.9159e-06 0 -3.03958e-07 -3.06909e-06 0 -3.49129e-07 -3.25014e-06 0 -3.97241e-07 -3.45592e-06 0 -4.48897e-07 -3.69038e-06 0 -5.04865e-07 -3.95754e-06 0 -5.66082e-07 -4.25603e-06 0 -6.3374e-07 -4.59411e-06 0 -7.09407e-07 -4.97226e-06 0 -7.95035e-07 -5.39235e-06 0 -8.93233e-07 -5.86772e-06 0 -1.00738e-06 -6.39418e-06 0 -1.1418e-06 -6.98194e-06 0 -1.3023e-06 -7.64044e-06 0 -1.49626e-06 -8.36821e-06 0 -1.73322e-06 -9.18471e-06 0 -2.02577e-06 -1.00902e-05 0 -2.38952e-06 -1.10912e-05 0 -2.84477e-06 -1.21995e-05 0 -3.4168e-06 -1.3418e-05 0 -4.13711e-06 -1.47485e-05 0 -5.04419e-06 -1.6187e-05 0 -6.18404e-06 -1.772e-05 0 -7.60969e-06 -1.93205e-05 0 -9.37877e-06 -2.09413e-05 0 0 -2.38868e-06 0 -5.40797e-08 -2.39914e-06 0 -1.08573e-07 -2.42691e-06 0 -1.63892e-07 -2.4735e-06 0 -2.20476e-07 -2.54055e-06 0 -2.78779e-07 -2.62606e-06 0 -3.39283e-07 -2.7336e-06 0 -4.02532e-07 -2.86261e-06 0 -4.6911e-07 -3.01289e-06 0 -5.39692e-07 -3.19038e-06 0 -6.15058e-07 -3.39194e-06 0 -6.961e-07 -3.62136e-06 0 -7.83921e-07 -3.88239e-06 0 -8.79818e-07 -4.17361e-06 0 -9.85374e-07 -4.50274e-06 0 -1.1026e-06 -4.86999e-06 0 -1.23391e-06 -5.27684e-06 0 -1.38241e-06 -5.73541e-06 0 -1.55199e-06 -6.24125e-06 0 -1.74744e-06 -6.80311e-06 0 -1.97502e-06 -7.4287e-06 0 -2.24239e-06 -8.11566e-06 0 -2.55918e-06 -8.87963e-06 0 -2.9377e-06 -9.71903e-06 0 -3.39269e-06 -1.06372e-05 0 -3.94273e-06 -1.16407e-05 0 -4.61014e-06 -1.27282e-05 0 -5.42159e-06 -1.38957e-05 0 -6.40827e-06 -1.51334e-05 0 -7.60536e-06 -1.64226e-05 0 -9.05068e-06 -1.77324e-05 0 -1.07814e-05 -1.90166e-05 0 0 -2.32546e-06 0 -7.24825e-08 -2.33564e-06 0 -1.45542e-07 -2.36268e-06 0 -2.19751e-07 -2.40803e-06 0 -2.95722e-07 -2.47328e-06 0 -3.74079e-07 -2.55647e-06 0 -4.5549e-07 -2.66105e-06 0 -5.40694e-07 -2.78645e-06 0 -6.30478e-07 -2.93244e-06 0 -7.25742e-07 -3.10469e-06 0 -8.27508e-07 -3.30013e-06 0 -9.3692e-07 -3.52229e-06 0 -1.05537e-06 -3.77467e-06 0 -1.18445e-06 -4.05576e-06 0 -1.32605e-06 -4.37268e-06 0 -1.48254e-06 -4.72538e-06 0 -1.65667e-06 -5.11497e-06 0 -1.85186e-06 -5.55224e-06 0 -2.07232e-06 -6.03259e-06 0 -2.32308e-06 -6.56338e-06 0 -2.61054e-06 -7.15064e-06 0 -2.94231e-06 -7.79134e-06 0 -3.32769e-06 -8.49768e-06 0 -3.77822e-06 -9.26665e-06 0 -4.30733e-06 -1.0099e-05 0 -4.93139e-06 -1.09976e-05 0 -5.66933e-06 -1.19576e-05 0 -6.54293e-06 -1.29717e-05 0 -7.57636e-06 -1.40268e-05 0 -8.79535e-06 -1.51021e-05 0 -1.02253e-05 -1.61673e-05 0 -1.18884e-05 -1.71803e-05 0 0 -2.24413e-06 0 -9.0326e-08 -2.25396e-06 0 -1.81383e-07 -2.28002e-06 0 -2.73897e-07 -2.32374e-06 0 -3.68639e-07 -2.38662e-06 0 -4.66397e-07 -2.46677e-06 0 -5.68006e-07 -2.56747e-06 0 -6.74385e-07 -2.68814e-06 0 -7.86504e-07 -2.82854e-06 0 -9.05463e-07 -2.99401e-06 0 -1.03249e-06 -3.18157e-06 0 -1.16895e-06 -3.39448e-06 0 -1.31646e-06 -3.63594e-06 0 -1.47685e-06 -3.90436e-06 0 -1.65227e-06 -4.20624e-06 0 -1.84529e-06 -4.54129e-06 0 -2.0589e-06 -4.91025e-06 0 -2.29672e-06 -5.32259e-06 0 -2.56307e-06 -5.77367e-06 0 -2.86302e-06 -6.2695e-06 0 -3.20286e-06 -6.81465e-06 0 -3.58987e-06 -7.40561e-06 0 -4.03272e-06 -8.05156e-06 0 -4.54189e-06 -8.74852e-06 0 -5.12919e-06 -9.49538e-06 0 -5.80857e-06 -1.0292e-05 0 -6.59557e-06 -1.11317e-05 0 -7.50731e-06 -1.20051e-05 0 -8.56185e-06 -1.2898e-05 0 -9.77712e-06 -1.37896e-05 0 -1.11692e-05 -1.46519e-05 0 -1.27497e-05 -1.54489e-05 0 0 -2.14537e-06 0 -1.07397e-07 -2.15475e-06 0 -2.15668e-07 -2.17962e-06 0 -3.25678e-07 -2.22133e-06 0 -4.38348e-07 -2.28131e-06 0 -5.54613e-07 -2.35774e-06 0 -6.75458e-07 -2.45371e-06 0 -8.01965e-07 -2.56864e-06 0 -9.35262e-07 -2.70225e-06 0 -1.07662e-06 -2.85956e-06 0 -1.22744e-06 -3.03766e-06 0 -1.38925e-06 -3.23955e-06 0 -1.56387e-06 -3.46808e-06 0 -1.75329e-06 -3.72167e-06 0 -1.95982e-06 -4.00612e-06 0 -2.18618e-06 -4.32095e-06 0 -2.43546e-06 -4.66657e-06 0 -2.71134e-06 -5.05119e-06 0 -3.01812e-06 -5.4702e-06 0 -3.36072e-06 -5.92841e-06 0 -3.74513e-06 -6.4291e-06 0 -4.17809e-06 -6.9685e-06 0 -4.66747e-06 -7.55325e-06 0 -5.22247e-06 -8.17877e-06 0 -5.85321e-06 -8.84267e-06 0 -6.57122e-06 -9.54273e-06 0 -7.3889e-06 -1.02713e-05 0 -8.31931e-06 -1.10183e-05 0 -9.37545e-06 -1.17693e-05 0 -1.05693e-05 -1.25051e-05 0 -1.19103e-05 -1.32008e-05 0 -1.34033e-05 -1.38264e-05 0 0 -2.02996e-06 0 -1.23665e-07 -2.03881e-06 0 -2.48336e-07 -2.06229e-06 0 -3.75007e-07 -2.10166e-06 0 -5.04735e-07 -2.15825e-06 0 -6.38589e-07 -2.23033e-06 0 -7.7769e-07 -2.32079e-06 0 -9.23262e-07 -2.42905e-06 0 -1.07657e-06 -2.55482e-06 0 -1.23904e-06 -2.70271e-06 0 -1.41221e-06 -2.86996e-06 0 -1.59775e-06 -3.05927e-06 0 -1.79762e-06 -3.27317e-06 0 -2.01392e-06 -3.51007e-06 0 -2.24908e-06 -3.77512e-06 0 -2.50589e-06 -4.06766e-06 0 -2.78747e-06 -4.38785e-06 0 -3.09747e-06 -4.74266e-06 0 -3.44005e-06 -5.12765e-06 0 -3.81991e-06 -5.54656e-06 0 -4.24258e-06 -6.00161e-06 0 -4.71421e-06 -6.48892e-06 0 -5.24173e-06 -7.01307e-06 0 -5.83307e-06 -7.56922e-06 0 -6.49665e-06 -8.15415e-06 0 -7.24177e-06 -8.76435e-06 0 -8.078e-06 -9.39189e-06 0 -9.01492e-06 -1.00266e-05 0 -1.00615e-05 -1.0655e-05 0 -1.1225e-05 -1.12596e-05 0 -1.25101e-05 -1.18192e-05 0 -1.39172e-05 -1.2309e-05 0 0 -1.89881e-06 0 -1.38886e-07 -1.90707e-06 0 -2.78897e-07 -1.92897e-06 0 -4.21143e-07 -1.96569e-06 0 -5.66801e-07 -2.01845e-06 0 -7.1706e-07 -2.08562e-06 0 -8.73158e-07 -2.16988e-06 0 -1.03644e-06 -2.27064e-06 0 -1.2083e-06 -2.3876e-06 0 -1.39027e-06 -2.52499e-06 0 -1.584e-06 -2.68017e-06 0 -1.79128e-06 -2.85557e-06 0 -2.01415e-06 -3.05339e-06 0 -2.25481e-06 -3.27207e-06 0 -2.5157e-06 -3.51613e-06 0 -2.79967e-06 -3.78477e-06 0 -3.10976e-06 -4.07794e-06 0 -3.44953e-06 -4.4015e-06 0 -3.82293e-06 -4.75123e-06 0 -4.23433e-06 -5.12997e-06 0 -4.68879e-06 -5.53907e-06 0 -5.19174e-06 -5.97473e-06 0 -5.74921e-06 -6.43987e-06 0 -6.36787e-06 -6.92966e-06 0 -7.05458e-06 -7.44047e-06 0 -7.81664e-06 -7.96804e-06 0 -8.66123e-06 -8.50464e-06 0 -9.59512e-06 -9.04063e-06 0 -1.06241e-05 -9.56361e-06 0 -1.17521e-05 -1.00584e-05 0 -1.29805e-05 -1.05072e-05 0 -1.4307e-05 -1.08894e-05 0 0 -1.75301e-06 0 -1.52992e-07 -1.76061e-06 0 -3.07215e-07 -1.78077e-06 0 -4.63882e-07 -1.81455e-06 0 -6.24277e-07 -1.86309e-06 0 -7.89692e-07 -1.92486e-06 0 -9.61469e-07 -2.00229e-06 0 -1.14106e-06 -2.09482e-06 0 -1.32995e-06 -2.20216e-06 0 -1.52977e-06 -2.32809e-06 0 -1.74226e-06 -2.47018e-06 0 -1.96929e-06 -2.63054e-06 0 -2.21295e-06 -2.8111e-06 0 -2.47548e-06 -3.01033e-06 0 -2.75936e-06 -3.23214e-06 0 -3.06736e-06 -3.47568e-06 0 -3.40247e-06 -3.74071e-06 0 -3.76808e-06 -4.0321e-06 0 -4.16788e-06 -4.34591e-06 0 -4.60589e-06 -4.68424e-06 0 -5.08663e-06 -5.04779e-06 0 -5.61487e-06 -5.43292e-06 0 -6.19572e-06 -5.84131e-06 0 -6.83471e-06 -6.26831e-06 0 -7.5373e-06 -6.71018e-06 0 -8.30907e-06 -7.16238e-06 0 -9.1552e-06 -7.61765e-06 0 -1.00802e-05 -8.06717e-06 0 -1.10874e-05 -8.49996e-06 0 -1.21785e-05 -8.90301e-06 0 -1.33524e-05 -9.26137e-06 0 -1.46052e-05 -9.55851e-06 0 0 -1.5937e-06 0 -1.65973e-07 -1.60059e-06 0 -3.3327e-07 -1.61886e-06 0 -5.03195e-07 -1.64947e-06 0 -6.77129e-07 -1.69342e-06 0 -8.56451e-07 -1.74935e-06 0 -1.04259e-06 -1.81941e-06 0 -1.2371e-06 -1.9031e-06 0 -1.44153e-06 -2.00008e-06 0 -1.65759e-06 -2.11376e-06 0 -1.8871e-06 -2.24188e-06 0 -2.13197e-06 -2.38628e-06 0 -2.39434e-06 -2.5486e-06 0 -2.67646e-06 -2.72741e-06 0 -2.98078e-06 -2.92603e-06 0 -3.31002e-06 -3.14357e-06 0 -3.66705e-06 -3.3797e-06 0 -4.05506e-06 -3.63841e-06 0 -4.4775e-06 -3.91609e-06 0 -4.93798e-06 -4.21423e-06 0 -5.44052e-06 -4.53306e-06 0 -5.98924e-06 -4.8692e-06 0 -6.58842e-06 -5.22342e-06 0 -7.24253e-06 -5.59142e-06 0 -7.9558e-06 -5.96954e-06 0 -8.73235e-06 -6.35328e-06 0 -9.57572e-06 -6.73606e-06 0 -1.04886e-05 -7.11004e-06 0 -1.14725e-05 -7.46569e-06 0 -1.25272e-05 -7.79203e-06 0 -1.36503e-05 -8.07675e-06 0 -1.48366e-05 -8.3065e-06 0 0 -1.42215e-06 0 -1.77486e-07 -1.42828e-06 0 -3.56375e-07 -1.44453e-06 0 -5.3805e-07 -1.47175e-06 0 -7.23968e-07 -1.51083e-06 0 -9.15585e-07 -1.56053e-06 0 -1.11441e-06 -1.62277e-06 0 -1.32204e-06 -1.69706e-06 0 -1.54013e-06 -1.7831e-06 0 -1.77042e-06 -1.88385e-06 0 -2.01478e-06 -1.99728e-06 0 -2.27516e-06 -2.12497e-06 0 -2.5537e-06 -2.26828e-06 0 -2.85265e-06 -2.4259e-06 0 -3.17442e-06 -2.60063e-06 0 -3.52164e-06 -2.79158e-06 0 -3.89705e-06 -2.99836e-06 0 -4.30364e-06 -3.22418e-06 0 -4.74458e-06 -3.46582e-06 0 -5.22313e-06 -3.72431e-06 0 -5.74282e-06 -3.99953e-06 0 -6.30717e-06 -4.28846e-06 0 -6.91974e-06 -4.59121e-06 0 -7.58409e-06 -4.90395e-06 0 -8.30345e-06 -5.22324e-06 0 -9.08073e-06 -5.54487e-06 0 -9.91819e-06 -5.86304e-06 0 -1.08172e-05 -6.17094e-06 0 -1.17779e-05 -6.46048e-06 0 -1.27988e-05 -6.72255e-06 0 -1.38766e-05 -6.94709e-06 0 -1.50056e-05 -7.12344e-06 0 0 -1.23973e-06 0 -1.877e-07 -1.24505e-06 0 -3.76872e-07 -1.25918e-06 0 -5.68963e-07 -1.28283e-06 0 -7.65498e-07 -1.31678e-06 0 -9.67996e-07 -1.35994e-06 0 -1.17803e-06 -1.41396e-06 0 -1.39725e-06 -1.4784e-06 0 -1.62736e-06 -1.553e-06 0 -1.87015e-06 -1.64025e-06 0 -2.12753e-06 -1.73842e-06 0 -2.40145e-06 -1.84879e-06 0 -2.69406e-06 -1.9725e-06 0 -3.00759e-06 -2.10837e-06 0 -3.34439e-06 -2.25871e-06 0 -3.70701e-06 -2.42268e-06 0 -4.09804e-06 -2.59987e-06 0 -4.52028e-06 -2.79282e-06 0 -4.97665e-06 -2.99874e-06 0 -5.47005e-06 -3.21829e-06 0 -6.0036e-06 -3.45116e-06 0 -6.58026e-06 -3.69469e-06 0 -7.20297e-06 -3.94862e-06 0 -7.87451e-06 -4.20961e-06 0 -8.59726e-06 -4.47457e-06 0 -9.37317e-06 -4.73973e-06 0 -1.02035e-05 -5.00011e-06 0 -1.10885e-05 -5.24997e-06 0 -1.20273e-05 -5.48258e-06 0 -1.30176e-05 -5.69048e-06 0 -1.40554e-05 -5.86562e-06 0 -1.51346e-05 -5.99953e-06 0 0 -1.04783e-06 0 -1.96474e-07 -1.05232e-06 0 -3.94475e-07 -1.06422e-06 0 -5.95506e-07 -1.08415e-06 0 -8.01148e-07 -1.11275e-06 0 -1.01297e-06 -1.1491e-06 0 -1.23259e-06 -1.19458e-06 0 -1.46172e-06 -1.24881e-06 0 -1.70208e-06 -1.31155e-06 0 -1.95552e-06 -1.38488e-06 0 -2.22394e-06 -1.4673e-06 0 -2.50931e-06 -1.5599e-06 0 -2.81379e-06 -1.66355e-06 0 -3.13956e-06 -1.77725e-06 0 -3.48891e-06 -1.90285e-06 0 -3.86431e-06 -2.03962e-06 0 -4.26822e-06 -2.18714e-06 0 -4.70326e-06 -2.34739e-06 0 -5.1721e-06 -2.518e-06 0 -5.67735e-06 -2.6994e-06 0 -6.22174e-06 -2.89117e-06 0 -6.80779e-06 -3.09107e-06 0 -7.4379e-06 -3.29862e-06 0 -8.1142e-06 -3.51102e-06 0 -8.8384e-06 -3.72564e-06 0 -9.61168e-06 -3.93919e-06 0 -1.04345e-05 -4.14759e-06 0 -1.13063e-05 -4.3461e-06 0 -1.22255e-05 -4.52928e-06 0 -1.31891e-05 -4.69121e-06 0 -1.41928e-05 -4.8255e-06 0 -1.52303e-05 -4.92559e-06 0 0 -8.47965e-07 0 -2.03638e-07 -8.51589e-07 0 -4.08849e-07 -8.61196e-07 0 -6.17177e-07 -8.77284e-07 0 -8.30246e-07 -9.00365e-07 0 -1.04967e-06 -9.29696e-07 0 -1.27709e-06 -9.66376e-07 0 -1.51427e-06 -1.0101e-06 0 -1.76296e-06 -1.06065e-06 0 -2.025e-06 -1.1197e-06 0 -2.30234e-06 -1.18603e-06 0 -2.59695e-06 -1.26048e-06 0 -2.91095e-06 -1.34374e-06 0 -3.2465e-06 -1.43498e-06 0 -3.60584e-06 -1.53563e-06 0 -3.99135e-06 -1.64508e-06 0 -4.40538e-06 -1.76295e-06 0 -4.85039e-06 -1.89072e-06 0 -5.32885e-06 -2.0265e-06 0 -5.84313e-06 -2.17052e-06 0 -6.39562e-06 -2.32236e-06 0 -6.9885e-06 -2.48022e-06 0 -7.62372e-06 -2.64354e-06 0 -8.30294e-06 -2.81008e-06 0 -9.02731e-06 -2.9777e-06 0 -9.79744e-06 -3.1437e-06 0 -1.06132e-05 -3.30485e-06 0 -1.14734e-05 -3.45742e-06 0 -1.23761e-05 -3.59715e-06 0 -1.33178e-05 -3.7195e-06 0 -1.42939e-05 -3.81959e-06 0 -1.5298e-05 -3.89245e-06 0 0 -6.41663e-07 0 -2.0936e-07 -6.44399e-07 0 -4.20326e-07 -6.51654e-07 0 -6.34478e-07 -6.63803e-07 0 -8.53472e-07 -6.81229e-07 0 -1.07895e-06 -7.03369e-07 0 -1.3126e-06 -7.31049e-07 0 -1.55618e-06 -7.6403e-07 0 -1.81148e-06 -8.02152e-07 0 -2.08036e-06 -8.46659e-07 0 -2.36476e-06 -8.96627e-07 0 -2.66666e-06 -9.52674e-07 0 -2.98817e-06 -1.0153e-06 0 -3.33142e-06 -1.08388e-06 0 -3.69859e-06 -1.15945e-06 0 -4.09199e-06 -1.24153e-06 0 -4.51388e-06 -1.32982e-06 0 -4.96659e-06 -1.42537e-06 0 -5.45242e-06 -1.52676e-06 0 -5.97355e-06 -1.6341e-06 0 -6.53211e-06 -1.74703e-06 0 -7.12998e-06 -1.86418e-06 0 -7.7688e-06 -1.98506e-06 0 -8.44982e-06 -2.10798e-06 0 -9.17381e-06 -2.2313e-06 0 -9.94091e-06 -2.35299e-06 0 -1.07505e-05 -2.47063e-06 0 -1.16012e-05 -2.58146e-06 0 -1.24905e-05 -2.68237e-06 0 -1.34146e-05 -2.77004e-06 0 -1.43687e-05 -2.84095e-06 0 -1.53467e-05 -2.89154e-06 0 0 -4.30484e-07 0 -2.13397e-07 -4.32317e-07 0 -4.28426e-07 -4.37177e-07 0 -6.46686e-07 -4.45315e-07 0 -8.69859e-07 -4.56986e-07 0 -1.09961e-06 -4.71813e-07 0 -1.33763e-06 -4.90346e-07 0 -1.58572e-06 -5.12422e-07 0 -1.84567e-06 -5.37934e-07 0 -2.11935e-06 -5.67706e-07 0 -2.40871e-06 -6.01119e-07 0 -2.71571e-06 -6.38579e-07 0 -3.04246e-06 -6.80413e-07 0 -3.39106e-06 -7.26194e-07 0 -3.76367e-06 -7.76604e-07 0 -4.16253e-06 -8.31313e-07 0 -4.58984e-06 -8.90111e-07 0 -5.04783e-06 -9.53672e-07 0 -5.53868e-06 -1.02104e-06 0 -6.06442e-06 -1.09227e-06 0 -6.62702e-06 -1.16709e-06 0 -7.22816e-06 -1.24459e-06 0 -7.86922e-06 -1.32441e-06 0 -8.55122e-06 -1.4054e-06 0 -9.27463e-06 -1.48647e-06 0 -1.00393e-05 -1.56627e-06 0 -1.08444e-05 -1.64318e-06 0 -1.16881e-05 -1.71539e-06 0 -1.25677e-05 -1.78084e-06 0 -1.34794e-05 -1.83738e-06 0 -1.44182e-05 -1.88273e-06 0 -1.53779e-05 -1.91458e-06 0 0 -2.16064e-07 0 -2.15828e-07 -2.16984e-07 0 -4.333e-07 -2.19421e-07 0 -6.54033e-07 -2.23501e-07 0 -8.79719e-07 -2.29353e-07 0 -1.11203e-06 -2.36786e-07 0 -1.35269e-06 -2.46077e-07 0 -1.60349e-06 -2.57142e-07 0 -1.86623e-06 -2.69926e-07 0 -2.14278e-06 -2.84842e-07 0 -2.43511e-06 -3.01579e-07 0 -2.74517e-06 -3.20336e-07 0 -3.07505e-06 -3.41278e-07 0 -3.42685e-06 -3.64186e-07 0 -3.8027e-06 -3.89399e-07 0 -4.20481e-06 -4.16749e-07 0 -4.63532e-06 -4.46127e-07 0 -5.09643e-06 -4.77863e-07 0 -5.59023e-06 -5.11476e-07 0 -6.11867e-06 -5.46988e-07 0 -6.68361e-06 -5.84257e-07 0 -7.28661e-06 -6.22824e-07 0 -7.92892e-06 -6.62494e-07 0 -8.6114e-06 -7.027e-07 0 -9.33434e-06 -7.42895e-07 0 -1.00975e-05 -7.8239e-07 0 -1.08997e-05 -8.20388e-07 0 -1.17391e-05 -8.55986e-07 0 -1.26129e-05 -8.88169e-07 0 -1.35172e-05 -9.15871e-07 0 -1.44468e-05 -9.3797e-07 0 -1.53956e-05 -9.53337e-07 0 0 -0 0 -2.16748e-07 -1.70753e-21 0 -4.35146e-07 -0 0 -6.56814e-07 7.22624e-21 0 -8.83452e-07 -0 0 -1.11674e-06 -0 0 -1.35839e-06 4.42813e-21 0 -1.61022e-06 -5.46775e-21 0 -1.874e-06 -0 0 -2.15165e-06 -0 0 -2.4451e-06 2.35798e-20 0 -2.75631e-06 -4.86694e-21 0 -3.08738e-06 -3.89993e-20 0 -3.44038e-06 -4.67295e-21 0 -3.81744e-06 -0 0 -4.22077e-06 -0 0 -4.6525e-06 5.75059e-20 0 -5.11477e-06 -0 0 -5.60967e-06 -0 0 -6.13913e-06 -0 0 -6.70494e-06 -4.46247e-20 0 -7.30863e-06 -8.93435e-21 0 -7.95139e-06 -0 0 -8.63402e-06 -0 0 -9.35677e-06 -0 0 -1.01193e-05 -0 0 -1.09204e-05 2.40292e-19 0 -1.17582e-05 -0 0 -1.26298e-05 -9.5723e-19 0 -1.35312e-05 -0 0 -1.44574e-05 -2.82772e-19 0 -1.54021e-05 -0 0 </DataArray> 
</PointData> 
<Points> 
<DataArray type="Float32" NumberOfComponents="3"> 