<?xml version="1.0"?> 
<VTKFile type="StructuredGrid" version="0.1"> 
<StructuredGrid WholeExtent="0 31 0 31 0 0"> 
<Piece Extent="0 31 0 31 0 0"> 
<PointData>
<DataArray type="Float32" Name="B" format="ascii" NumberOfComponents="3"> 
0 2.14292e-06 0 3.86058e-07 2.15239e-06 0 7.75196e-07 2.17749e-06 0 1.17045e-06 2.21958e-06 0 1.57502e-06 2.28003e-06 0 1.99212e-06 2.35695e-06 0 2.42505e-06 2.45336e-06 0 2.87739e-06 2.5685e-06 0 3.35276e-06 2.70194e-06 0 3.85509e-06 2.85823e-06 0 4.38863e-06 3.03415e-06 0 4.95783e-06 3.23196e-06 0 5.56777e-06 3.45335e-06 0 6.22391e-06 3.6958e-06 0 6.93242e-06 3.96228e-06 0 7.70056e-06 4.24986e-06 0 8.53659e-06 4.55562e-06 0 9.45084e-06 4.87822e-06 0 1.04563e-05 5.20827e-06 0 1.15698e-05 5.53553e-06 0 1.28156e-05 5.84161e-06 0 1.42279e-05 6.10507e-06 0 1.58594e-05 6.27526e-06 0 1.77969e-05 6.29954e-06 0 2.01822e-05 6.09349e-06 0 2.32752e-05 5.50656e-06 0 2.7573e-05 4.32599e-06 0 3.41437e-05 2.18879e-06 0 4.56989e-05 -1.58195e-06 0 7.13778e-05 -8.38144e-06 0 0.000165614 -1.91376e-05 0 0.0253198 0.00728177 0 0 2.01353e-06 0 3.91504e-07 2.02242e-06 0 7.86129e-07 2.046e-06 0 1.18695e-06 2.08552e-06 0 1.5972e-06 2.14227e-06 0 2.02013e-06 2.21449e-06 0 2.45908e-06 2.30497e-06 0 2.91766e-06 2.41301e-06 0 3.39949e-06 2.53816e-06 0 3.90853e-06 2.68465e-06 0 4.449e-06 2.84943e-06 0 5.02533e-06 3.03453e-06 0 5.64252e-06 3.2414e-06 0 6.3059e-06 3.46755e-06 0 7.02142e-06 3.71542e-06 0 7.79598e-06 3.98194e-06 0 8.63733e-06 4.26388e-06 0 9.55499e-06 4.55861e-06 0 1.05607e-05 4.85644e-06 0 1.16696e-05 5.14519e-06 0 1.2903e-05 5.40345e-06 0 1.42912e-05 5.60695e-06 0 1.58807e-05 5.69474e-06 0 1.77486e-05 5.60244e-06 0 2.00216e-05 5.2219e-06 0 2.29329e-05 4.3489e-06 0 2.6929e-05 2.66079e-06 0 3.29608e-05 -4.86182e-07 0 4.33906e-05 -6.66242e-06 0 6.5768e-05 -2.1264e-05 0 0.000137085 -8.17208e-05 0 -0.000381472 -0.000945994 0 0 1.88239e-06 0 3.96607e-07 1.89069e-06 0 7.96372e-07 1.91272e-06 0 1.2024e-06 1.94964e-06 0 1.61798e-06 2.00266e-06 0 2.04636e-06 2.07012e-06 0 2.49094e-06 2.15461e-06 0 2.95534e-06 2.25547e-06 0 3.4432e-06 2.37226e-06 0 3.95848e-06 2.50888e-06 0 4.50539e-06 2.66245e-06 0 5.08831e-06 2.83479e-06 0 5.71216e-06 3.02712e-06 0 6.38211e-06 3.23703e-06 0 7.10388e-06 3.46644e-06 0 7.884e-06 3.71219e-06 0 8.72963e-06 3.97081e-06 0 9.6494e-06 4.23856e-06 0 1.06537e-05 4.50555e-06 0 1.17556e-05 4.75795e-06 0 1.29734e-05 4.97182e-06 0 1.43324e-05 5.12044e-06 0 1.58718e-05 5.13399e-06 0 1.76562e-05 4.9378e-06 0 1.97921e-05 4.40303e-06 0 2.24748e-05 3.27905e-06 0 2.60709e-05 1.15049e-06 0 3.13291e-05 -2.85238e-06 0 3.99358e-05 -1.09568e-05 0 5.6069e-05 -3.09167e-05 0 8.3495e-05 -0.000106664 0 -0.000242006 -0.000322481 0 4.49144e-20 1.7496e-06 0 4.01362e-07 1.75732e-06 0 8.05916e-07 1.77778e-06 0 1.2168e-06 1.81208e-06 0 1.63733e-06 1.86132e-06 0 2.0708e-06 1.92397e-06 0 2.52061e-06 2.00241e-06 0 2.99041e-06 2.09602e-06 0 3.48387e-06 2.20438e-06 0 4.00493e-06 2.33107e-06 0 4.55778e-06 2.47338e-06 0 5.14676e-06 2.63292e-06 0 5.77668e-06 2.81074e-06 0 6.45257e-06 3.00446e-06 0 7.17989e-06 3.21559e-06 0 7.96475e-06 3.44091e-06 0 8.81372e-06 3.67678e-06 0 9.73445e-06 3.91853e-06 0 1.07359e-05 4.15621e-06 0 1.18289e-05 4.37467e-06 0 1.30282e-05 4.54796e-06 0 1.43538e-05 4.64748e-06 0 1.58362e-05 4.59622e-06 0 1.75254e-05 4.31122e-06 0 1.95037e-05 3.64706e-06 0 2.19188e-05 2.31691e-06 0 2.50368e-05 -1.62074e-07 0 2.93483e-05 -4.80392e-06 0 3.57027e-05 -1.41427e-05 0 4.45951e-05 -3.61131e-05 0 3.93422e-05 -0.00010023 0 -0.00015311 -0.000146858 0 0 1.61529e-06 0 4.05766e-07 1.62241e-06 0 8.14753e-07 1.6413e-06 0 1.23013e-06 1.67294e-06 0 1.65524e-06 1.71837e-06 0 2.09341e-06 1.77616e-06 0 2.54807e-06 1.8485e-06 0 3.02286e-06 1.93481e-06 0 3.52147e-06 2.03469e-06 0 4.04785e-06 2.15139e-06 0 4.60615e-06 2.28239e-06 0 5.20067e-06 2.42912e-06 0 5.8361e-06 2.59244e-06 0 6.51732e-06 2.77007e-06 0 7.24952e-06 2.96312e-06 0 8.03839e-06 3.16838e-06 0 8.88985e-06 3.38211e-06 0 9.81057e-06 3.59892e-06 0 1.0808e-05 3.80891e-06 0 1.18905e-05 3.99602e-06 0 1.3069e-05 4.13289e-06 0 1.43579e-05 4.18963e-06 0 1.5778e-05 4.08404e-06 0 1.73631e-05 3.72723e-06 0 1.91679e-05 2.96211e-06 0 2.12869e-05 1.47783e-06 0 2.3874e-05 -1.24641e-06 0 2.71436e-05 -6.27729e-06 0 3.11306e-05 -1.61036e-05 0 3.35424e-05 -3.72215e-05 0 1.30134e-05 -8.26216e-05 0 -0.000100531 -8.20151e-05 0 0 1.47957e-06 0 4.09813e-07 1.48609e-06 0 8.22875e-07 1.50338e-06 0 1.24238e-06 1.53235e-06 0 1.67171e-06 1.57394e-06 0 2.11419e-06 1.62683e-06 0 2.57328e-06 1.69303e-06 0 3.05266e-06 1.77198e-06 0 3.55599e-06 1.86332e-06 0 4.08723e-06 1.96998e-06 0 4.65049e-06 2.08965e-06 0 5.25002e-06 2.22356e-06 0 5.89042e-06 2.37241e-06 0 6.57639e-06 2.53405e-06 0 7.31284e-06 2.70926e-06 0 8.10505e-06 2.89485e-06 0 8.95829e-06 3.08708e-06 0 9.87817e-06 3.28005e-06 0 1.08705e-05 3.46406e-06 0 1.19414e-05 3.62253e-06 0 1.30977e-05 3.72737e-06 0 1.43475e-05 3.74804e-06 0 1.57016e-05 3.59936e-06 0 1.71767e-05 3.1891e-06 0 1.87978e-05 2.35384e-06 0 2.06036e-05 7.7171e-07 0 2.26347e-05 -2.08621e-06 0 2.48462e-05 -7.25487e-06 0 2.66189e-05 -1.69114e-05 0 2.41954e-05 -3.54566e-05 0 -4.11398e-07 -6.49176e-05 0 -6.99648e-05 -5.26521e-05 0 -1.52632e-19 1.34257e-06 0 4.13502e-07 1.34848e-06 0 8.30279e-07 1.36416e-06 0 1.25355e-06 1.39044e-06 0 1.68671e-06 1.42815e-06 0 2.13312e-06 1.4761e-06 0 2.59625e-06 1.53612e-06 0 3.07979e-06 1.60768e-06 0 3.58741e-06 1.69043e-06 0 4.12305e-06 1.78702e-06 0 4.69081e-06 1.89533e-06 0 5.29485e-06 2.01642e-06 0 5.93969e-06 2.15085e-06 0 6.62985e-06 2.29661e-06 0 7.36999e-06 2.45419e-06 0 8.16494e-06 2.62052e-06 0 9.01932e-06 2.79191e-06 0 9.93773e-06 2.96217e-06 0 1.09244e-05 3.12194e-06 0 1.19828e-05 3.25457e-06 0 1.3116e-05 3.33187e-06 0 1.43255e-05 3.32341e-06 0 1.5612e-05 3.14332e-06 0 1.69742e-05 2.69869e-06 0 1.84074e-05 1.82529e-06 0 1.98949e-05 2.02794e-07 0 2.13715e-05 -2.67921e-06 0 2.25754e-05 -7.75907e-06 0 2.2456e-05 -1.67585e-05 0 1.69161e-05 -3.20835e-05 0 -6.63146e-06 -5.03746e-05 0 -5.14122e-05 -3.70662e-05 0 0 1.2044e-06 0 4.1683e-07 1.2097e-06 0 8.36958e-07 1.22376e-06 0 1.26362e-06 1.24732e-06 0 1.70024e-06 1.28113e-06 0 2.15019e-06 1.32412e-06 0 2.61697e-06 1.37791e-06 0 3.10425e-06 1.44203e-06 0 3.61572e-06 1.51616e-06 0 4.15531e-06 1.60265e-06 0 4.72708e-06 1.69957e-06 0 5.33516e-06 1.80785e-06 0 5.98393e-06 1.92793e-06 0 6.67777e-06 2.05792e-06 0 7.42106e-06 2.19812e-06 0 8.21822e-06 2.3456e-06 0 9.07325e-06 2.4968e-06 0 9.98972e-06 2.64548e-06 0 1.09702e-05 2.78275e-06 0 1.2016e-05 2.8923e-06 0 1.31258e-05 2.94659e-06 0 1.42951e-05 2.91599e-06 0 1.5514e-05 2.71622e-06 0 1.67637e-05 2.25646e-06 0 1.80105e-05 1.37681e-06 0 1.91858e-05 -2.30134e-07 0 2.01323e-05 -3.03532e-06 0 2.04264e-05 -7.84053e-06 0 1.88047e-05 -1.58815e-05 0 1.15344e-05 -2.80378e-05 0 -9.20148e-06 -3.91313e-05 0 -3.96201e-05 -2.76438e-05 0 0 1.06518e-06 0 4.19791e-07 1.06987e-06 0 8.42898e-07 1.0823e-06 0 1.27258e-06 1.10312e-06 0 1.71228e-06 1.13301e-06 0 2.16538e-06 1.171e-06 0 2.63538e-06 1.21854e-06 0 3.12599e-06 1.27519e-06 0 3.64087e-06 1.34067e-06 0 4.18396e-06 1.41703e-06 0 4.75928e-06 1.50256e-06 0 5.37089e-06 1.59804e-06 0 6.0231e-06 1.70381e-06 0 6.72011e-06 1.81816e-06 0 7.46608e-06 1.94121e-06 0 8.265e-06 2.07023e-06 0 9.12027e-06 2.20189e-06 0 1.00345e-05 2.33007e-06 0 1.10088e-05 2.44654e-06 0 1.20419e-05 2.53573e-06 0 1.31289e-05 2.57143e-06 0 1.42589e-05 2.52551e-06 0 1.54123e-05 2.3176e-06 0 1.65533e-05 1.86144e-06 0 1.76209e-05 1.00622e-06 0 1.85003e-05 -5.33088e-07 0 1.89594e-05 -3.17371e-06 0 1.84702e-05 -7.56503e-06 0 1.57316e-05 -1.4505e-05 0 7.69509e-06 -2.38829e-05 0 -1.00148e-05 -3.05182e-05 0 -3.18447e-05 -2.13125e-05 0 -1.52658e-20 9.25033e-07 0 4.2239e-07 9.29103e-07 0 8.48114e-07 9.39894e-07 0 1.28045e-06 9.57971e-07 0 1.72284e-06 9.83914e-07 0 2.1787e-06 1.01689e-06 0 2.65154e-06 1.05814e-06 0 3.14506e-06 1.10729e-06 0 3.66294e-06 1.16409e-06 0 4.20908e-06 1.2303e-06 0 4.78749e-06 1.30443e-06 0 5.40218e-06 1.38713e-06 0 6.05736e-06 1.47865e-06 0 6.75709e-06 1.57748e-06 0 7.50529e-06 1.6836e-06 0 8.30558e-06 1.79455e-06 0 9.16081e-06 1.90727e-06 0 1.00727e-05 2.01599e-06 0 1.10408e-05 2.11327e-06 0 1.20619e-05 2.18468e-06 0 1.31271e-05 2.20598e-06 0 1.42202e-05 2.15128e-06 0 1.53118e-05 1.94618e-06 0 1.63506e-05 1.51133e-06 0 1.72511e-05 7.09079e-07 0 1.78585e-05 -7.15986e-07 0 1.78839e-05 -3.11956e-06 0 1.67436e-05 -7.00212e-06 0 1.32122e-05 -1.28127e-05 0 4.98349e-06 -1.99023e-05 0 -1.00559e-05 -2.3829e-05 0 -2.64961e-05 -1.66843e-05 0 0 7.84084e-07 0 4.24621e-07 7.87532e-07 0 8.52591e-07 7.96677e-07 0 1.2872e-06 8.11994e-07 0 1.73191e-06 8.33974e-07 0 2.19014e-06 8.61912e-07 0 2.66541e-06 8.96854e-07 0 3.16142e-06 9.38486e-07 0 3.68186e-06 9.86582e-07 0 4.23062e-06 1.04263e-06 0 4.81167e-06 1.10535e-06 0 5.42897e-06 1.17529e-06 0 6.08667e-06 1.25261e-06 0 6.78867e-06 1.33603e-06 0 7.5387e-06 1.42543e-06 0 8.34005e-06 1.51866e-06 0 9.19503e-06 1.613e-06 0 1.01045e-05 1.70322e-06 0 1.10669e-05 1.78279e-06 0 1.20768e-05 1.83879e-06 0 1.31222e-05 1.8496e-06 0 1.41814e-05 1.79212e-06 0 1.52167e-05 1.59995e-06 0 1.61627e-05 1.20261e-06 0 1.69125e-05 4.78946e-07 0 1.72785e-05 -7.91683e-07 0 1.69316e-05 -2.90118e-06 0 1.52704e-05 -6.21723e-06 0 1.12066e-05 -1.09396e-05 0 3.10182e-06 -1.62058e-05 0 -9.77592e-06 -1.85033e-05 0 -2.27585e-05 -1.30654e-05 0 0 6.42454e-07 0 4.26484e-07 6.45279e-07 0 8.56328e-07 6.52769e-07 0 1.29284e-06 6.65316e-07 0 1.73947e-06 6.83319e-07 0 2.19968e-06 7.06201e-07 0 2.67698e-06 7.34815e-07 0 3.17507e-06 7.68904e-07 0 3.69764e-06 8.08279e-07 0 4.24857e-06 8.54148e-07 0 4.83181e-06 9.05466e-07 0 5.45129e-06 9.62657e-07 0 6.11105e-06 1.02585e-06 0 6.81492e-06 1.09395e-06 0 7.56641e-06 1.16682e-06 0 8.36854e-06 1.24263e-06 0 9.22318e-06 1.31909e-06 0 1.01305e-05 1.39167e-06 0 1.10877e-05 1.45485e-06 0 1.20877e-05 1.49757e-06 0 1.31156e-05 1.50134e-06 0 1.4145e-05 1.44648e-06 0 1.51309e-05 1.27621e-06 0 1.59959e-05 9.30688e-07 0 1.6615e-05 3.07798e-07 0 1.67749e-05 -7.75042e-07 0 1.61202e-05 -2.5476e-06 0 1.40567e-05 -5.26727e-06 0 9.65281e-06 -8.97639e-06 0 1.8094e-06 -1.2808e-05 0 -9.40376e-06 -1.41322e-05 0 -2.01183e-05 -1.00795e-05 0 0 5.00266e-07 0 4.27976e-07 5.02465e-07 0 8.59322e-07 5.08296e-07 0 1.29735e-06 5.18064e-07 0 1.74554e-06 5.32078e-07 0 2.20732e-06 5.4989e-07 0 2.68624e-06 5.72162e-07 0 3.186e-06 5.98691e-07 0 3.71028e-06 6.2933e-07 0 4.26294e-06 6.65014e-07 0 4.84793e-06 7.04927e-07 0 5.46913e-06 7.49388e-07 0 6.13054e-06 7.98484e-07 0 6.83586e-06 8.51356e-07 0 7.5885e-06 9.0786e-07 0 8.39119e-06 9.66534e-07 0 9.24545e-06 1.02554e-06 0 1.01508e-05 1.0812e-06 0 1.11037e-05 1.12911e-06 0 1.20954e-05 1.16037e-06 0 1.31086e-05 1.16008e-06 0 1.41131e-05 1.11242e-06 0 1.5058e-05 9.71713e-07 0 1.58557e-05 6.90065e-07 0 1.6367e-05 1.86355e-07 0 1.63593e-05 -6.82156e-07 0 1.54614e-05 -2.08705e-06 0 1.30996e-05 -4.19912e-06 0 8.48965e-06 -6.9785e-06 0 9.35939e-07 -9.6765e-06 0 -9.04787e-06 -1.04225e-05 0 -1.82643e-05 -7.50365e-06 0 -1.63949e-21 3.57643e-07 0 4.29096e-07 3.59215e-07 0 8.6157e-07 3.63383e-07 0 1.30074e-06 3.70365e-07 0 1.75009e-06 3.80382e-07 0 2.21307e-06 3.93112e-07 0 2.6932e-06 4.09029e-07 0 3.19421e-06 4.27987e-07 0 3.71976e-06 4.4988e-07 0 4.27373e-06 4.75372e-07 0 4.86002e-06 5.0388e-07 0 5.48251e-06 5.35627e-07 0 6.14514e-06 5.70667e-07 0 6.85155e-06 6.08381e-07 0 7.60501e-06 6.48645e-07 0 8.40809e-06 6.90396e-07 0 9.26201e-06 7.3229e-07 0 1.01659e-05 7.71618e-07 0 1.11153e-05 8.05171e-07 0 1.21005e-05 8.26423e-07 0 1.31023e-05 8.24458e-07 0 1.40876e-05 7.87695e-07 0 1.50006e-05 6.82691e-07 0 1.57465e-05 4.74523e-07 0 1.61752e-05 1.04405e-07 0 1.60404e-05 -5.29762e-07 0 1.49625e-05 -1.5461e-06 0 1.23918e-05 -3.05e-06 0 7.66445e-06 -4.97556e-06 0 3.65269e-07 -6.75848e-06 0 -8.75852e-06 -7.16165e-06 0 -1.70042e-05 -5.19523e-06 0 0 2.1471e-07 0 4.29845e-07 2.15654e-07 0 8.63072e-07 2.18156e-07 0 1.303e-06 2.22347e-07 0 1.75313e-06 2.28359e-07 0 2.2169e-06 2.36001e-07 0 2.69785e-06 2.45554e-07 0 3.19969e-06 2.56933e-07 0 3.7261e-06 2.70071e-07 0 4.28093e-06 2.85368e-07 0 4.8681e-06 3.02472e-07 0 5.49144e-06 3.21516e-07 0 6.15488e-06 3.42529e-07 0 6.86201e-06 3.65136e-07 0 7.61601e-06 3.89255e-07 0 8.41933e-06 4.14241e-07 0 9.273e-06 4.39276e-07 0 1.01758e-05 4.62698e-07 0 1.11229e-05 4.82559e-07 0 1.21036e-05 4.94875e-07 0 1.30976e-05 4.92984e-07 0 1.40698e-05 4.69825e-07 0 1.49611e-05 4.05003e-07 0 1.56717e-05 2.77284e-07 0 1.60443e-05 5.10813e-08 0 1.58242e-05 -3.34849e-07 0 1.46278e-05 -9.49426e-07 0 1.1925e-05 -1.84904e-06 0 7.13653e-06 -2.97973e-06 0 2.17048e-08 -3.99389e-06 0 -8.5581e-06 -4.18962e-06 0 -1.62195e-05 -3.05524e-06 0 0 7.15908e-08 0 4.30221e-07 7.19054e-08 0 8.63826e-07 7.27396e-08 0 1.30414e-06 7.41369e-08 0 1.75466e-06 7.61416e-08 0 2.21882e-06 7.86891e-08 0 2.70018e-06 8.18742e-08 0 3.20244e-06 8.56676e-08 0 3.72927e-06 9.00476e-08 0 4.28454e-06 9.51469e-08 0 4.87215e-06 1.00848e-07 0 5.49592e-06 1.07195e-07 0 6.15977e-06 1.14197e-07 0 6.86725e-06 1.2173e-07 0 7.62152e-06 1.29763e-07 0 8.42495e-06 1.38081e-07 0 9.27848e-06 1.46408e-07 0 1.01807e-05 1.54187e-07 0 1.11266e-05 1.60761e-07 0 1.21051e-05 1.64794e-07 0 1.30951e-05 1.64044e-07 0 1.40606e-05 1.56139e-07 0 1.49409e-05 1.34227e-07 0 1.56335e-05 9.11821e-08 0 1.59778e-05 1.50922e-08 0 1.57148e-05 -1.14447e-07 0 1.44594e-05 -3.20065e-07 0 1.16927e-05 -6.194e-07 0 6.87852e-06 -9.92117e-07 0 -1.40032e-07 -1.32112e-06 0 -8.45587e-06 -1.3792e-06 0 -1.58416e-05 -1.00846e-06 0 0 -7.15908e-08 0 4.30221e-07 -7.19054e-08 0 8.63826e-07 -7.27396e-08 0 1.30414e-06 -7.41369e-08 0 1.75466e-06 -7.61416e-08 0 2.21882e-06 -7.86891e-08 0 2.70018e-06 -8.18742e-08 0 3.20244e-06 -8.56676e-08 0 3.72927e-06 -9.00476e-08 0 4.28454e-06 -9.51469e-08 0 4.87215e-06 -1.00848e-07 0 5.49592e-06 -1.07195e-07 0 6.15977e-06 -1.14197e-07 0 6.86725e-06 -1.2173e-07 0 7.62152e-06 -1.29763e-07 0 8.42495e-06 -1.38081e-07 0 9.27848e-06 -1.46408e-07 0 1.01807e-05 -1.54187e-07 0 1.11266e-05 -1.60761e-07 0 1.21051e-05 -1.64794e-07 0 1.30951e-05 -1.64044e-07 0 1.40606e-05 -1.56139e-07 0 1.49409e-05 -1.34227e-07 0 1.56335e-05 -9.11821e-08 0 1.59778e-05 -1.50922e-08 0 1.57148e-05 1.14447e-07 0 1.44594e-05 3.20065e-07 0 1.16927e-05 6.194e-07 0 6.87852e-06 9.92117e-07 0 -1.40032e-07 1.32112e-06 0 -8.45587e-06 1.3792e-06 0 -1.58416e-05 1.00846e-06 0 0 -2.1471e-07 0 4.29845e-07 -2.15654e-07 0 8.63072e-07 -2.18156e-07 0 1.303e-06 -2.22347e-07 0 1.75313e-06 -2.28359e-07 0 2.2169e-06 -2.36001e-07 0 2.69785e-06 -2.45554e-07 0 3.19969e-06 -2.56933e-07 0 3.7261e-06 -2.70071e-07 0 4.28093e-06 -2.85368e-07 0 4.8681e-06 -3.02472e-07 0 5.49144e-06 -3.21516e-07 0 6.15488e-06 -3.42529e-07 0 6.86201e-06 -3.65136e-07 0 7.61601e-06 -3.89255e-07 0 8.41933e-06 -4.14241e-07 0 9.273e-06 -4.39276e-07 0 1.01758e-05 -4.62698e-07 0 1.11229e-05 -4.82559e-07 0 1.21036e-05 -4.94875e-07 0 1.30976e-05 -4.92984e-07 0 1.40698e-05 -4.69825e-07 0 1.49611e-05 -4.05003e-07 0 1.56717e-05 -2.77284e-07 0 1.60443e-05 -5.10813e-08 0 1.58242e-05 3.34849e-07 0 1.46278e-05 9.49426e-07 0 1.1925e-05 1.84904e-06 0 7.13653e-06 2.97973e-06 0 2.17048e-08 3.99389e-06 0 -8.5581e-06 4.18962e-06 0 -1.62195e-05 3.05524e-06 0 0 -3.57643e-07 0 4.29096e-07 -3.59215e-07 0 8.6157e-07 -3.63383e-07 0 1.30074e-06 -3.70365e-07 0 1.75009e-06 -3.80382e-07 0 2.21307e-06 -3.93112e-07 0 2.6932e-06 -4.09029e-07 0 3.19421e-06 -4.27987e-07 0 3.71976e-06 -4.4988e-07 0 4.27373e-06 -4.75372e-07 0 4.86002e-06 -5.0388e-07 0 5.48251e-06 -5.35627e-07 0 6.14514e-06 -5.70667e-07 0 6.85155e-06 -6.08381e-07 0 7.60501e-06 -6.48645e-07 0 8.40809e-06 -6.90396e-07 0 9.26201e-06 -7.3229e-07 0 1.01659e-05 -7.71618e-07 0 1.11153e-05 -8.05171e-07 0 1.21005e-05 -8.26423e-07 0 1.31023e-05 -8.24458e-07 0 1.40876e-05 -7.87695e-07 0 1.50006e-05 -6.82691e-07 0 1.57465e-05 -4.74523e-07 0 1.61752e-05 -1.04405e-07 0 1.60404e-05 5.29762e-07 0 1.49625e-05 1.5461e-06 0 1.23918e-05 3.05e-06 0 7.66445e-06 4.97556e-06 0 3.65269e-07 6.75848e-06 0 -8.75852e-06 7.16165e-06 0 -1.70042e-05 5.19523e-06 0 7.79719e-21 -5.00266e-07 0 4.27976e-07 -5.02465e-07 0 8.59322e-07 -5.08296e-07 0 1.29735e-06 -5.18064e-07 0 1.74554e-06 -5.32078e-07 0 2.20732e-06 -5.4989e-07 0 2.68624e-06 -5.72162e-07 0 3.186e-06 -5.98691e-07 0 3.71028e-06 -6.2933e-07 0 4.26294e-06 -6.65014e-07 0 4.84793e-06 -7.04927e-07 0 5.46913e-06 -7.49388e-07 0 6.13054e-06 -7.98484e-07 0 6.83586e-06 -8.51356e-07 0 7.5885e-06 -9.0786e-07 0 8.39119e-06 -9.66534e-07 0 9.24545e-06 -1.02554e-06 0 1.01508e-05 -1.0812e-06 0 1.11037e-05 -1.12911e-06 0 1.20954e-05 -1.16037e-06 0 1.31086e-05 -1.16008e-06 0 1.41131e-05 -1.11242e-06 0 1.5058e-05 -9.71713e-07 0 1.58557e-05 -6.90065e-07 0 1.6367e-05 -1.86355e-07 0 1.63593e-05 6.82156e-07 0 1.54614e-05 2.08705e-06 0 1.30996e-05 4.19912e-06 0 8.48965e-06 6.9785e-06 0 9.35939e-07 9.6765e-06 0 -9.04787e-06 1.04225e-05 0 -1.82643e-05 7.50365e-06 0 0 -6.42454e-07 0 4.26484e-07 -6.45279e-07 0 8.56328e-07 -6.52769e-07 0 1.29284e-06 -6.65316e-07 0 1.73947e-06 -6.83319e-07 0 2.19968e-06 -7.06201e-07 0 2.67698e-06 -7.34815e-07 0 3.17507e-06 -7.68904e-07 0 3.69764e-06 -8.08279e-07 0 4.24857e-06 -8.54148e-07 0 4.83181e-06 -9.05466e-07 0 5.45129e-06 -9.62657e-07 0 6.11105e-06 -1.02585e-06 0 6.81492e-06 -1.09395e-06 0 7.56641e-06 -1.16682e-06 0 8.36854e-06 -1.24263e-06 0 9.22318e-06 -1.31909e-06 0 1.01305e-05 -1.39167e-06 0 1.10877e-05 -1.45485e-06 0 1.20877e-05 -1.49757e-06 0 1.31156e-05 -1.50134e-06 0 1.4145e-05 -1.44648e-06 0 1.51309e-05 -1.27621e-06 0 1.59959e-05 -9.30688e-07 0 1.6615e-05 -3.07798e-07 0 1.67749e-05 7.75042e-07 0 1.61202e-05 2.5476e-06 0 1.40567e-05 5.26727e-06 0 9.65281e-06 8.97639e-06 0 1.8094e-06 1.2808e-05 0 -9.40376e-06 1.41322e-05 0 -2.01183e-05 1.00795e-05 0 0 -7.84084e-07 0 4.24621e-07 -7.87532e-07 0 8.52591e-07 -7.96677e-07 0 1.2872e-06 -8.11994e-07 0 1.73191e-06 -8.33974e-07 0 2.19014e-06 -8.61912e-07 0 2.66541e-06 -8.96854e-07 0 3.16142e-06 -9.38486e-07 0 3.68186e-06 -9.86582e-07 0 4.23062e-06 -1.04263e-06 0 4.81167e-06 -1.10535e-06 0 5.42897e-06 -1.17529e-06 0 6.08667e-06 -1.25261e-06 0 6.78867e-06 -1.33603e-06 0 7.5387e-06 -1.42543e-06 0 8.34005e-06 -1.51866e-06 0 9.19503e-06 -1.613e-06 0 1.01045e-05 -1.70322e-06 0 1.10669e-05 -1.78279e-06 0 1.20768e-05 -1.83879e-06 0 1.31222e-05 -1.8496e-06 0 1.41814e-05 -1.79212e-06 0 1.52167e-05 -1.59995e-06 0 1.61627e-05 -1.20261e-06 0 1.69125e-05 -4.78946e-07 0 1.72785e-05 7.91683e-07 0 1.69316e-05 2.90118e-06 0 1.52704e-05 6.21723e-06 0 1.12066e-05 1.09396e-05 0 3.10182e-06 1.62058e-05 0 -9.77592e-06 1.85033e-05 0 -2.27585e-05 1.30654e-05 0 0 -9.25033e-07 0 4.2239e-07 -9.29103e-07 0 8.48114e-07 -9.39894e-07 0 1.28045e-06 -9.57971e-07 0 1.72284e-06 -9.83914e-07 0 2.1787e-06 -1.01689e-06 0 2.65154e-06 -1.05814e-06 0 3.14506e-06 -1.10729e-06 0 3.66294e-06 -1.16409e-06 0 4.20908e-06 -1.2303e-06 0 4.78749e-06 -1.30443e-06 0 5.40218e-06 -1.38713e-06 0 6.05736e-06 -1.47865e-06 0 6.75709e-06 -1.57748e-06 0 7.50529e-06 -1.6836e-06 0 8.30558e-06 -1.79455e-06 0 9.16081e-06 -1.90727e-06 0 1.00727e-05 -2.01599e-06 0 1.10408e-05 -2.11327e-06 0 1.20619e-05 -2.18468e-06 0 1.31271e-05 -2.20598e-06 0 1.42202e-05 -2.15128e-06 0 1.53118e-05 -1.94618e-06 0 1.63506e-05 -1.51133e-06 0 1.72511e-05 -7.09079e-07 0 1.78585e-05 7.15986e-07 0 1.78839e-05 3.11956e-06 0 1.67436e-05 7.00212e-06 0 1.32122e-05 1.28127e-05 0 4.98349e-06 1.99023e-05 0 -1.00559e-05 2.3829e-05 0 -2.64961e-05 1.66843e-05 0 -2.34381e-20 -1.06518e-06 0 4.19791e-07 -1.06987e-06 0 8.42898e-07 -1.0823e-06 0 1.27258e-06 -1.10312e-06 0 1.71228e-06 -1.13301e-06 0 2.16538e-06 -1.171e-06 0 2.63538e-06 -1.21854e-06 0 3.12599e-06 -1.27519e-06 0 3.64087e-06 -1.34067e-06 0 4.18396e-06 -1.41703e-06 0 4.75928e-06 -1.50256e-06 0 5.37089e-06 -1.59804e-06 0 6.0231e-06 -1.70381e-06 0 6.72011e-06 -1.81816e-06 0 7.46608e-06 -1.94121e-06 0 8.265e-06 -2.07023e-06 0 9.12027e-06 -2.20189e-06 0 1.00345e-05 -2.33007e-06 0 1.10088e-05 -2.44654e-06 0 1.20419e-05 -2.53573e-06 0 1.31289e-05 -2.57143e-06 0 1.42589e-05 -2.52551e-06 0 1.54123e-05 -2.3176e-06 0 1.65533e-05 -1.86144e-06 0 1.76209e-05 -1.00622e-06 0 1.85003e-05 5.33088e-07 0 1.89594e-05 3.17371e-06 0 1.84702e-05 7.56503e-06 0 1.57316e-05 1.4505e-05 0 7.69509e-06 2.38829e-05 0 -1.00148e-05 3.05182e-05 0 -3.18447e-05 2.13125e-05 0 0 -1.2044e-06 0 4.1683e-07 -1.2097e-06 0 8.36958e-07 -1.22376e-06 0 1.26362e-06 -1.24732e-06 0 1.70024e-06 -1.28113e-06 0 2.15019e-06 -1.32412e-06 0 2.61697e-06 -1.37791e-06 0 3.10425e-06 -1.44203e-06 0 3.61572e-06 -1.51616e-06 0 4.15531e-06 -1.60265e-06 0 4.72708e-06 -1.69957e-06 0 5.33516e-06 -1.80785e-06 0 5.98393e-06 -1.92793e-06 0 6.67777e-06 -2.05792e-06 0 7.42106e-06 -2.19812e-06 0 8.21822e-06 -2.3456e-06 0 9.07325e-06 -2.4968e-06 0 9.98972e-06 -2.64548e-06 0 1.09702e-05 -2.78275e-06 0 1.2016e-05 -2.8923e-06 0 1.31258e-05 -2.94659e-06 0 1.42951e-05 -2.91599e-06 0 1.5514e-05 -2.71622e-06 0 1.67637e-05 -2.25646e-06 0 1.80105e-05 -1.37681e-06 0 1.91858e-05 2.30134e-07 0 2.01323e-05 3.03532e-06 0 2.04264e-05 7.84053e-06 0 1.88047e-05 1.58815e-05 0 1.15344e-05 2.80378e-05 0 -9.20148e-06 3.91313e-05 0 -3.96201e-05 2.76438e-05 0 0 -1.34257e-06 0 4.13502e-07 -1.34848e-06 0 8.30279e-07 -1.36416e-06 0 1.25355e-06 -1.39044e-06 0 1.68671e-06 -1.42815e-06 0 2.13312e-06 -1.4761e-06 0 2.59625e-06 -1.53612e-06 0 3.07979e-06 -1.60768e-06 0 3.58741e-06 -1.69043e-06 0 4.12305e-06 -1.78702e-06 0 4.69081e-06 -1.89533e-06 0 5.29485e-06 -2.01642e-06 0 5.93969e-06 -2.15085e-06 0 6.62985e-06 -2.29661e-06 0 7.36999e-06 -2.45419e-06 0 8.16494e-06 -2.62052e-06 0 9.01932e-06 -2.79191e-06 0 9.93773e-06 -2.96217e-06 0 1.09244e-05 -3.12194e-06 0 1.19828e-05 -3.25457e-06 0 1.3116e-05 -3.33187e-06 0 1.43255e-05 -3.32341e-06 0 1.5612e-05 -3.14332e-06 0 1.69742e-05 -2.69869e-06 0 1.84074e-05 -1.82529e-06 0 1.98949e-05 -2.02794e-07 0 2.13715e-05 2.67921e-06 0 2.25754e-05 7.75907e-06 0 2.2456e-05 1.67585e-05 0 1.69161e-05 3.20835e-05 0 -6.63146e-06 5.03746e-05 0 -5.14122e-05 3.70662e-05 0 -4.88346e-20 -1.47957e-06 0 4.09813e-07 -1.48609e-06 0 8.22875e-07 -1.50338e-06 0 1.24238e-06 -1.53235e-06 0 1.67171e-06 -1.57394e-06 0 2.11419e-06 -1.62683e-06 0 2.57328e-06 -1.69303e-06 0 3.05266e-06 -1.77198e-06 0 3.55599e-06 -1.86332e-06 0 4.08723e-06 -1.96998e-06 0 4.65049e-06 -2.08965e-06 0 5.25002e-06 -2.22356e-06 0 5.89042e-06 -2.37241e-06 0 6.57639e-06 -2.53405e-06 0 7.31284e-06 -2.70926e-06 0 8.10505e-06 -2.89485e-06 0 8.95829e-06 -3.08708e-06 0 9.87817e-06 -3.28005e-06 0 1.08705e-05 -3.46406e-06 0 1.19414e-05 -3.62253e-06 0 1.30977e-05 -3.72737e-06 0 1.43475e-05 -3.74804e-06 0 1.57016e-05 -3.59936e-06 0 1.71767e-05 -3.1891e-06 0 1.87978e-05 -2.35384e-06 0 2.06036e-05 -7.7171e-07 0 2.26347e-05 2.08621e-06 0 2.48462e-05 7.25487e-06 0 2.66189e-05 1.69114e-05 0 2.41954e-05 3.54566e-05 0 -4.11398e-07 6.49176e-05 0 -6.99648e-05 5.26521e-05 0 0 -1.61529e-06 0 4.05766e-07 -1.62241e-06 0 8.14753e-07 -1.6413e-06 0 1.23013e-06 -1.67294e-06 0 1.65524e-06 -1.71837e-06 0 2.09341e-06 -1.77616e-06 0 2.54807e-06 -1.8485e-06 0 3.02286e-06 -1.93481e-06 0 3.52147e-06 -2.03469e-06 0 4.04785e-06 -2.15139e-06 0 4.60615e-06 -2.28239e-06 0 5.20067e-06 -2.42912e-06 0 5.8361e-06 -2.59244e-06 0 6.51732e-06 -2.77007e-06 0 7.24952e-06 -2.96312e-06 0 8.03839e-06 -3.16838e-06 0 8.88985e-06 -3.38211e-06 0 9.81057e-06 -3.59892e-06 0 1.0808e-05 -3.80891e-06 0 1.18905e-05 -3.99602e-06 0 1.3069e-05 -4.13289e-06 0 1.43579e-05 -4.18963e-06 0 1.5778e-05 -4.08404e-06 0 1.73631e-05 -3.72723e-06 0 1.91679e-05 -2.96211e-06 0 2.12869e-05 -1.47783e-06 0 2.3874e-05 1.24641e-06 0 2.71436e-05 6.27729e-06 0 3.11306e-05 1.61036e-05 0 3.35424e-05 3.72215e-05 0 1.30134e-05 8.26216e-05 0 -0.000100531 8.20151e-05 0 1.53992e-19 -1.7496e-06 0 4.01362e-07 -1.75732e-06 0 8.05916e-07 -1.77778e-06 0 1.2168e-06 -1.81208e-06 0 1.63733e-06 -1.86132e-06 0 2.0708e-06 -1.92397e-06 0 2.52061e-06 -2.00241e-06 0 2.99041e-06 -2.09602e-06 0 3.48387e-06 -2.20438e-06 0 4.00493e-06 -2.33107e-06 0 4.55778e-06 -2.47338e-06 0 5.14676e-06 -2.63292e-06 0 5.77668e-06 -2.81074e-06 0 6.45257e-06 -3.00446e-06 0 7.17989e-06 -3.21559e-06 0 7.96475e-06 -3.44091e-06 0 8.81372e-06 -3.67678e-06 0 9.73445e-06 -3.91853e-06 0 1.07359e-05 -4.15621e-06 0 1.18289e-05 -4.37467e-06 0 1.30282e-05 -4.54796e-06 0 1.43538e-05 -4.64748e-06 0 1.58362e-05 -4.59622e-06 0 1.75254e-05 -4.31122e-06 0 1.95037e-05 -3.64706e-06 0 2.19188e-05 -2.31691e-06 0 2.50368e-05 1.62074e-07 0 2.93483e-05 4.80392e-06 0 3.57027e-05 1.41427e-05 0 4.45951e-05 3.61131e-05 0 3.93422e-05 0.00010023 0 -0.00015311 0.000146858 0 1.0355e-19 -1.88239e-06 0 3.96607e-07 -1.89069e-06 0 7.96372e-07 -1.91272e-06 0 1.2024e-06 -1.94964e-06 0 1.61798e-06 -2.00266e-06 0 2.04636e-06 -2.07012e-06 0 2.49094e-06 -2.15461e-06 0 2.95534e-06 -2.25547e-06 0 3.4432e-06 -2.37226e-06 0 3.95848e-06 -2.50888e-06 0 4.50539e-06 -2.66245e-06 0 5.08831e-06 -2.83479e-06 0 5.71216e-06 -3.02712e-06 0 6.38211e-06 -3.23703e-06 0 7.10388e-06 -3.46644e-06 0 7.884e-06 -3.71219e-06 0 8.72963e-06 -3.97081e-06 0 9.6494e-06 -4.23856e-06 0 1.06537e-05 -4.50555e-06 0 1.17556e-05 -4.75795e-06 0 1.29734e-05 -4.97182e-06 0 1.43324e-05 -5.12044e-06 0 1.58718e-05 -5.13399e-06 0 1.76562e-05 -4.9378e-06 0 1.97921e-05 -4.40303e-06 0 2.24748e-05 -3.27905e-06 0 2.60709e-05 -1.15049e-06 0 3.13291e-05 2.85238e-06 0 3.99358e-05 1.09568e-05 0 5.6069e-05 3.09167e-05 0 8.3495e-05 0.000106664 0 -0.000242006 0.000322481 0 0 -2.01353e-06 0 3.91504e-07 -2.02242e-06 0 7.86129e-07 -2.046e-06 0 1.18695e-06 -2.08552e-06 0 1.5972e-06 -2.14227e-06 0 2.02013e-06 -2.21449e-06 0 2.45908e-06 -2.30497e-06 0 2.91766e-06 -2.41301e-06 0 3.39949e-06 -2.53816e-06 0 3.90853e-06 -2.68465e-06 0 4.449e-06 -2.84943e-06 0 5.02533e-06 -3.03453e-06 0 5.64252e-06 -3.2414e-06 0 6.3059e-06 -3.46755e-06 0 7.02142e-06 -3.71542e-06 0 7.79598e-06 -3.98194e-06 0 8.63733e-06 -4.26388e-06 0 9.55499e-06 -4.55861e-06 0 1.05607e-05 -4.85644e-06 0 1.16696e-05 -5.14519e-06 0 1.2903e-05 -5.40345e-06 0 1.42912e-05 -5.60695e-06 0 1.58807e-05 -5.69474e-06 0 1.77486e-05 -5.60244e-06 0 2.00216e-05 -5.2219e-06 0 2.29329e-05 -4.3489e-06 0 2.6929e-05 -2.66079e-06 0 3.29608e-05 4.86182e-07 0 4.33906e-05 6.66242e-06 0 6.5768e-05 2.1264e-05 0 0.000137085 8.17208e-05 0 -0.000381472 0.000945994 0 0 -2.14292e-06 0 3.86058e-07 -2.15239e-06 0 7.75196e-07 -2.17749e-06 0 1.17045e-06 -2.21958e-06 0 1.57502e-06 -2.28003e-06 0 1.99212e-06 -2.35695e-06 0 2.42505e-06 -2.45336e-06 0 2.87739e-06 -2.5685e-06 0 3.35276e-06 -2.70194e-06 0 3.85509e-06 -2.85823e-06 0 4.38863e-06 -3.03415e-06 0 4.95783e-06 -3.23196e-06 0 5.56777e-06 -3.45335e-06 0 6.22391e-06 -3.6958e-06 0 6.93242e-06 -3.96228e-06 0 7.70056e-06 -4.24986e-06 0 8.53659e-06 -4.55562e-06 0 9.45084e-06 -4.87822e-06 0 1.04563e-05 -5.20827e-06 0 1.15698e-05 -5.53553e-06 0 1.28156e-05 -5.84161e-06 0 1.42279e-05 -6.10507e-06 0 1.58594e-05 -6.27526e-06 0 1.77969e-05 -6.29954e-06 0 2.01822e-05 -6.09349e-06 0 2.32752e-05 -5.50656e-06 0 2.7573e-05 -4.32599e-06 0 3.41437e-05 -2.18879e-06 0 4.56989e-05 1.58195e-06 0 7.13778e-05 8.38144e-06 0 0.000165614 1.91376e-05 0 0.0253198 -0.00728177 0 </DataArray> 
</PointData> 
<Points> 
<DataArray type="Float32" NumberOfComponents="3"> 