<?xml version="1.0"?> 
<VTKFile type="StructuredGrid" version="0.1"> 
<StructuredGrid WholeExtent="0 31 0 31 0 0"> 
<Piece Extent="0 31 0 31 0 0"> 
<PointData>
<DataArray type="Float32" Name="B" format="ascii" NumberOfComponents="3"> 
-0.00719838 0.00411023 0 -0.00034536 0.000143269 0 -0.000181046 8.30493e-05 0 -0.000122748 6.38395e-05 0 -9.32798e-05 5.33577e-05 0 -7.55008e-05 4.60242e-05 0 -6.34796e-05 4.02265e-05 0 -5.46608e-05 3.53791e-05 0 -4.77919e-05 3.1236e-05 0 -4.21976e-05 2.76336e-05 0 -3.75001e-05 2.44938e-05 0 -3.34626e-05 2.17888e-05 0 -2.99371e-05 1.94085e-05 0 -2.68233e-05 1.73478e-05 0 -2.40479e-05 1.55539e-05 0 -2.15579e-05 1.3975e-05 0 -1.93113e-05 1.26201e-05 0 -1.7274e-05 1.14288e-05 0 -1.54182e-05 1.03884e-05 0 -1.372e-05 9.49168e-06 0 -1.21589e-05 8.70445e-06 0 -1.07173e-05 8.02739e-06 0 -9.37889e-06 7.44355e-06 0 -8.12979e-06 6.93745e-06 0 -6.95711e-06 6.51597e-06 0 -5.84906e-06 6.15847e-06 0 -4.79504e-06 5.86372e-06 0 -3.78482e-06 5.63163e-06 0 -2.80903e-06 5.45089e-06 0 -1.85876e-06 5.32602e-06 0 -9.25186e-07 5.25186e-06 0 0 5.22397e-06 0 -0.000836505 -0.00103536 0 -0.00035439 3.42247e-05 0 -0.000185779 5.33459e-05 0 -0.00012568 5.05128e-05 0 -9.54868e-05 4.58686e-05 0 -7.73304e-05 4.11966e-05 0 -6.50593e-05 3.68056e-05 0 -5.60443e-05 3.27805e-05 0 -4.90074e-05 2.91554e-05 0 -4.32645e-05 2.59092e-05 0 -3.84347e-05 2.3028e-05 0 -3.42798e-05 2.05154e-05 0 -3.06506e-05 1.82904e-05 0 -2.74459e-05 1.63552e-05 0 -2.45909e-05 1.46662e-05 0 -2.20314e-05 1.31772e-05 0 -1.97241e-05 1.18981e-05 0 -1.76337e-05 1.07729e-05 0 -1.57315e-05 9.79012e-06 0 -1.39924e-05 8.94295e-06 0 -1.23952e-05 8.19928e-06 0 -1.09215e-05 7.55978e-06 0 -9.55447e-06 7.00841e-06 0 -8.27961e-06 6.53054e-06 0 -7.08356e-06 6.13266e-06 0 -5.9541e-06 5.79522e-06 0 -4.88029e-06 5.51706e-06 0 -3.85156e-06 5.29805e-06 0 -2.85825e-06 5.12753e-06 0 -1.89119e-06 5.00972e-06 0 -9.4128e-07 4.93977e-06 0 0 4.91345e-06 0 -0.000301934 -0.000615986 0 -0.000309404 -5.15832e-05 0 -0.000181191 2.48919e-05 0 -0.000125671 3.73162e-05 0 -9.64496e-05 3.83739e-05 0 -7.85373e-05 3.63363e-05 0 -6.62899e-05 3.33435e-05 0 -5.7214e-05 3.0138e-05 0 -5.00817e-05 2.70312e-05 0 -4.42319e-05 2.41435e-05 0 -3.92951e-05 2.15239e-05 0 -3.50391e-05 1.92075e-05 0 -3.13175e-05 1.71414e-05 0 -2.80297e-05 1.53355e-05 0 -2.51012e-05 1.37545e-05 0 -2.2477e-05 1.23584e-05 0 -2.01128e-05 1.11578e-05 0 -1.79725e-05 1.0101e-05 0 -1.60266e-05 9.17774e-06 0 -1.4249e-05 8.38179e-06 0 -1.26178e-05 7.68311e-06 0 -1.11139e-05 7.08236e-06 0 -9.71985e-06 6.56449e-06 0 -8.4207e-06 6.11571e-06 0 -7.20262e-06 5.74211e-06 0 -6.05299e-06 5.42532e-06 0 -4.96053e-06 5.16421e-06 0 -3.91437e-06 4.95866e-06 0 -2.90457e-06 4.79863e-06 0 -1.9217e-06 4.68808e-06 0 -9.56424e-07 4.62244e-06 0 0 4.59775e-06 0 -0.000140934 -0.000409683 0 -0.00024637 -9.57195e-05 0 -0.000169354 1.27459e-06 0 -0.000123009 2.51419e-05 0 -9.62351e-05 3.11793e-05 0 -7.91434e-05 3.15713e-05 0 -6.71801e-05 2.99013e-05 0 -5.81736e-05 2.74834e-05 0 -5.1016e-05 2.48813e-05 0 -4.50997e-05 2.23469e-05 0 -4.00806e-05 1.99882e-05 0 -3.57396e-05 1.78695e-05 0 -3.19365e-05 1.59648e-05 0 -2.85738e-05 1.42908e-05 0 -2.55778e-05 1.28207e-05 0 -2.28937e-05 1.15202e-05 0 -2.04767e-05 1.04003e-05 0 -1.82899e-05 9.41409e-06 0 -1.6303e-05 8.55213e-06 0 -1.44894e-05 7.80896e-06 0 -1.28263e-05 7.15661e-06 0 -1.12941e-05 6.59574e-06 0 -9.87472e-06 6.1123e-06 0 -8.5528e-06 5.69342e-06 0 -7.31407e-06 5.34477e-06 0 -6.14555e-06 5.04918e-06 0 -5.03564e-06 4.80556e-06 0 -3.97316e-06 4.61381e-06 0 -2.94792e-06 4.46453e-06 0 -1.95024e-06 4.36142e-06 0 -9.70593e-07 4.30019e-06 0 -2.196e-19 4.27717e-06 0 -7.79226e-05 -0.00029185 0 -0.000189658 -0.000109255 0 -0.000153451 -1.58786e-05 0 -0.000118272 1.46487e-05 0 -9.49967e-05 2.45451e-05 0 -7.92019e-05 2.70174e-05 0 -6.77519e-05 2.65354e-05 0 -5.89327e-05 2.48465e-05 0 -5.18145e-05 2.27227e-05 0 -4.58695e-05 2.05295e-05 0 -4.07913e-05 1.84272e-05 0 -3.63807e-05 1.65056e-05 0 -3.25069e-05 1.47635e-05 0 -2.90773e-05 1.32236e-05 0 -2.602e-05 1.18666e-05 0 -2.32809e-05 1.0664e-05 0 -2.08151e-05 9.62694e-06 0 -1.85852e-05 8.71314e-06 0 -1.65603e-05 7.91418e-06 0 -1.47131e-05 7.22522e-06 0 -1.30203e-05 6.62045e-06 0 -1.14617e-05 6.10051e-06 0 -1.00188e-05 5.6524e-06 0 -8.67568e-06 5.26417e-06 0 -7.41773e-06 4.94109e-06 0 -6.23163e-06 4.66719e-06 0 -5.10547e-06 4.44149e-06 0 -4.02781e-06 4.26386e-06 0 -2.98821e-06 4.12558e-06 0 -1.97678e-06 4.03008e-06 0 -9.83765e-07 3.97337e-06 0 0 3.95204e-06 0 -4.85073e-05 -0.000217901 0 -0.000145901 -0.000106686 0 -0.000136379 -2.67228e-05 0 -0.000112167 6.18648e-06 0 -9.2947e-05 1.86613e-05 0 -7.87911e-05 2.27695e-05 0 -6.80383e-05 2.3295e-05 0 -5.95064e-05 2.22539e-05 0 -5.24841e-05 2.05706e-05 0 -4.65441e-05 1.87005e-05 0 -4.14283e-05 1.68468e-05 0 -3.69623e-05 1.512e-05 0 -3.30283e-05 1.35406e-05 0 -2.95394e-05 1.2136e-05 0 -2.64269e-05 1.08941e-05 0 -2.36378e-05 9.7912e-06 0 -2.11272e-05 8.83891e-06 0 -1.88577e-05 7.99923e-06 0 -1.67978e-05 7.26481e-06 0 -1.49196e-05 6.63138e-06 0 -1.31994e-05 6.07533e-06 0 -1.16165e-05 5.5973e-06 0 -1.01518e-05 5.18534e-06 0 -8.78909e-06 4.82847e-06 0 -7.51339e-06 4.53152e-06 0 -6.31106e-06 4.2798e-06 0 -5.1699e-06 4.0724e-06 0 -4.07823e-06 3.90919e-06 0 -3.02538e-06 3.78214e-06 0 -2.00126e-06 3.6944e-06 0 -9.95914e-07 3.64231e-06 0 0 3.62271e-06 0 -3.29407e-05 -0.000167887 0 -0.000113902 -9.71358e-05 0 -0.000120095 -3.23733e-05 0 -0.000105387 -1.80425e-07 0 -9.0331e-05 1.36384e-05 0 -7.80091e-05 1.88961e-05 0 -6.80832e-05 2.02187e-05 0 -5.99155e-05 1.97276e-05 0 -5.3035e-05 1.84381e-05 0 -4.71284e-05 1.68683e-05 0 -4.19935e-05 1.52524e-05 0 -3.74853e-05 1.37167e-05 0 -3.35004e-05 1.2299e-05 0 -2.99597e-05 1.10304e-05 0 -2.6798e-05 9.90486e-06 0 -2.39638e-05 8.90339e-06 0 -2.14127e-05 8.03747e-06 0 -1.9107e-05 7.27345e-06 0 -1.70151e-05 6.60494e-06 0 -1.51086e-05 6.02824e-06 0 -1.33634e-05 5.52197e-06 0 -1.17581e-05 5.08675e-06 0 -1.02735e-05 4.7117e-06 0 -8.89285e-06 4.38683e-06 0 -7.60091e-06 4.11654e-06 0 -6.38371e-06 3.88744e-06 0 -5.22883e-06 3.69869e-06 0 -4.12434e-06 3.55017e-06 0 -3.05938e-06 3.43457e-06 0 -2.02365e-06 3.35474e-06 0 -1.00702e-06 3.30734e-06 0 7.47949e-19 3.28952e-06 0 -2.39254e-05 -0.00013195 0 -9.08458e-05 -8.51957e-05 0 -0.00010561 -3.41772e-05 0 -9.85048e-05 -4.59423e-06 0 -8.73889e-05 9.51189e-06 0 -7.69606e-05 1.54379e-05 0 -6.79349e-05 1.73337e-05 0 -6.01835e-05 1.72845e-05 0 -5.34785e-05 1.63358e-05 0 -4.76279e-05 1.50397e-05 0 -4.24894e-05 1.36487e-05 0 -3.79503e-05 1.2299e-05 0 -3.39235e-05 1.10412e-05 0 -3.03381e-05 9.90891e-06 0 -2.71329e-05 8.90076e-06 0 -2.42584e-05 8.00204e-06 0 -2.16709e-05 7.2239e-06 0 -1.93326e-05 6.53689e-06 0 -1.72118e-05 5.93553e-06 0 -1.52797e-05 5.41665e-06 0 -1.35118e-05 4.96111e-06 0 -1.18863e-05 4.5695e-06 0 -1.03837e-05 4.23206e-06 0 -8.98679e-06 3.93978e-06 0 -7.68013e-06 3.69663e-06 0 -6.44948e-06 3.49055e-06 0 -5.28217e-06 3.32078e-06 0 -4.16608e-06 3.18721e-06 0 -3.09014e-06 3.08325e-06 0 -2.04391e-06 3.01145e-06 0 -1.01708e-06 2.96883e-06 0 0 2.9528e-06 0 -1.83622e-05 -0.000104799 0 -7.42772e-05 -7.29298e-05 0 -9.33146e-05 -3.3325e-05 0 -9.19486e-05 -7.3124e-06 0 -8.43392e-05 6.25578e-06 0 -7.57491e-05 1.24086e-05 0 -6.76435e-05 1.4655e-05 0 -6.03347e-05 1.49354e-05 0 -5.38265e-05 1.42713e-05 0 -4.80478e-05 1.32199e-05 0 -4.29181e-05 1.20399e-05 0 -3.8358e-05 1.08701e-05 0 -3.42972e-05 9.76992e-06 0 -3.06736e-05 8.77357e-06 0 -2.74308e-05 7.88352e-06 0 -2.45208e-05 7.08862e-06 0 -2.1901e-05 6.39948e-06 0 -1.95339e-05 5.79067e-06 0 -1.73874e-05 5.25755e-06 0 -1.54325e-05 4.79746e-06 0 -1.36442e-05 4.3935e-06 0 -1.20008e-05 4.04624e-06 0 -1.0482e-05 3.74702e-06 0 -9.07061e-06 3.48786e-06 0 -7.75081e-06 3.27228e-06 0 -6.50814e-06 3.08959e-06 0 -5.32975e-06 2.93909e-06 0 -4.2033e-06 2.82069e-06 0 -3.11758e-06 2.72854e-06 0 -2.06197e-06 2.66491e-06 0 -1.02605e-06 2.62713e-06 0 0 2.61293e-06 0 -1.471e-05 -8.33937e-05 0 -6.22037e-05 -6.11661e-05 0 -8.31492e-05 -3.07275e-05 0 -8.59852e-05 -8.63337e-06 0 -8.13657e-05 3.80028e-06 0 -7.44761e-05 9.79822e-06 0 -6.72627e-05 1.2186e-05 0 -6.03978e-05 1.26854e-05 0 -5.40945e-05 1.22492e-05 0 -4.83968e-05 1.1413e-05 0 -4.32844e-05 1.04289e-05 0 -3.87109e-05 9.43269e-06 0 -3.46231e-05 8.48734e-06 0 -3.09675e-05 7.62638e-06 0 -2.76922e-05 6.85486e-06 0 -2.47515e-05 6.16463e-06 0 -2.21035e-05 5.5655e-06 0 -1.9711e-05 5.0359e-06 0 -1.75419e-05 4.57198e-06 0 -1.55669e-05 4.17153e-06 0 -1.37609e-05 3.81991e-06 0 -1.21015e-05 3.51763e-06 0 -1.05685e-05 3.25719e-06 0 -9.1444e-06 3.03163e-06 0 -7.81303e-06 2.844e-06 0 -6.55978e-06 2.68501e-06 0 -5.37163e-06 2.55405e-06 0 -4.23606e-06 2.45102e-06 0 -3.14173e-06 2.37084e-06 0 -2.07788e-06 2.31548e-06 0 -1.03394e-06 2.28261e-06 0 7.49315e-20 2.27025e-06 0 -1.22476e-05 -6.5873e-05 0 -5.34161e-05 -5.01622e-05 0 -7.49736e-05 -2.7027e-05 0 -8.07841e-05 -8.84867e-06 0 -7.8613e-05 2.04843e-06 0 -7.32273e-05 7.57799e-06 0 -6.6839e-05 9.91922e-06 0 -6.03969e-05 1.05341e-05 0 -5.42946e-05 1.0271e-05 0 -4.86805e-05 9.62101e-06 0 -4.35907e-05 8.81825e-06 0 -3.90099e-05 7.98901e-06 0 -3.4901e-05 7.19557e-06 0 -3.12191e-05 6.4692e-06 0 -2.79165e-05 5.81642e-06 0 -2.49497e-05 5.23151e-06 0 -2.22777e-05 4.72324e-06 0 -1.98634e-05 4.27371e-06 0 -1.76749e-05 3.87981e-06 0 -1.56826e-05 3.53973e-06 0 -1.38612e-05 3.2411e-06 0 -1.21882e-05 2.98438e-06 0 -1.0643e-05 2.76319e-06 0 -9.20789e-06 2.57163e-06 0 -7.86656e-06 2.4123e-06 0 -6.60422e-06 2.27729e-06 0 -5.40766e-06 2.16609e-06 0 -4.26425e-06 2.07861e-06 0 -3.1625e-06 2.01054e-06 0 -2.09156e-06 1.96353e-06 0 -1.04072e-06 1.93562e-06 0 0 1.92513e-06 0 -1.05538e-05 -5.10355e-05 0 -4.70329e-05 -3.99239e-05 0 -6.8564e-05 -2.2653e-05 0 -7.64287e-05 -8.2182e-06 0 -7.61906e-05 8.89674e-07 0 -7.20776e-05 5.70453e-06 0 -6.64158e-05 7.83809e-06 0 -6.03559e-05 8.47552e-06 0 -5.44394e-05 8.33539e-06 0 -4.89055e-05 7.84473e-06 0 -4.38402e-05 7.20942e-06 0 -3.92564e-05 6.54089e-06 0 -3.51316e-05 5.89646e-06 0 -3.14285e-05 5.30378e-06 0 -2.81036e-05 4.76982e-06 0 -2.51152e-05 4.29072e-06 0 -2.24232e-05 3.87398e-06 0 -1.99908e-05 3.50525e-06 0 -1.77861e-05 3.18204e-06 0 -1.57794e-05 2.90296e-06 0 -1.39452e-05 2.65788e-06 0 -1.22607e-05 2.44718e-06 0 -1.07053e-05 2.26564e-06 0 -9.261e-06 2.10844e-06 0 -7.91134e-06 1.97769e-06 0 -6.64137e-06 1.8669e-06 0 -5.43779e-06 1.77565e-06 0 -4.28782e-06 1.70387e-06 0 -3.17987e-06 1.64802e-06 0 -2.10299e-06 1.60945e-06 0 -1.0464e-06 1.58655e-06 0 0 1.57794e-06 0 -9.38784e-06 -3.80635e-05 0 -4.24651e-05 -3.0351e-05 0 -6.37064e-05 -1.78819e-05 0 -7.29514e-05 -6.96207e-06 0 -7.41775e-05 2.09331e-07 0 -7.10879e-05 4.12428e-06 0 -6.60308e-05 5.91844e-06 0 -6.02958e-05 6.49928e-06 0 -5.45403e-05 6.43847e-06 0 -4.90777e-05 6.08341e-06 0 -4.40359e-05 5.60322e-06 0 -3.94518e-05 5.08975e-06 0 -3.53153e-05 4.59166e-06 0 -3.15959e-05 4.13179e-06 0 -2.82535e-05 3.71662e-06 0 -2.52479e-05 3.34367e-06 0 -2.25399e-05 3.01901e-06 0 -2.00931e-05 2.73164e-06 0 -1.78753e-05 2.47969e-06 0 -1.58571e-05 2.2621e-06 0 -1.40126e-05 2.07101e-06 0 -1.23189e-05 1.90674e-06 0 -1.07553e-05 1.76519e-06 0 -9.30361e-06 1.64263e-06 0 -7.94726e-06 1.54069e-06 0 -6.67119e-06 1.45432e-06 0 -5.46196e-06 1.38318e-06 0 -4.30673e-06 1.32722e-06 0 -3.19381e-06 1.28368e-06 0 -2.11217e-06 1.25361e-06 0 -1.05095e-06 1.23577e-06 0 0 1.22906e-06 0 -8.60664e-06 -2.63702e-05 0 -3.93211e-05 -2.13044e-05 0 -6.02205e-05 -1.28858e-05 0 -7.03558e-05 -5.26208e-06 0 -7.26276e-05 -1.05706e-07 0 -7.03054e-05 2.77697e-06 0 -6.57145e-05 4.1301e-06 0 -6.02345e-05 4.59112e-06 0 -5.46071e-05 4.57408e-06 0 -4.92022e-05 4.33509e-06 0 -4.41804e-05 3.99982e-06 0 -3.95973e-05 3.63667e-06 0 -3.54528e-05 3.28263e-06 0 -3.17214e-05 2.95479e-06 0 -2.83659e-05 2.65832e-06 0 -2.53476e-05 2.39178e-06 0 -2.26276e-05 2.15961e-06 0 -2.01699e-05 1.95403e-06 0 -1.79425e-05 1.77376e-06 0 -1.59155e-05 1.61806e-06 0 -1.40632e-05 1.48132e-06 0 -1.23627e-05 1.36376e-06 0 -1.07929e-05 1.26248e-06 0 -9.33566e-06 1.17477e-06 0 -7.97428e-06 1.10182e-06 0 -6.69361e-06 1.04002e-06 0 -5.48014e-06 9.8912e-07 0 -4.32095e-06 9.49082e-07 0 -3.20429e-06 9.17927e-07 0 -2.11907e-06 8.96416e-07 0 -1.05438e-06 8.83647e-07 0 8.0575e-21 8.78845e-07 0 -8.12493e-06 -1.55096e-05 0 -3.73478e-05 -1.26333e-05 0 -5.79695e-05 -7.76935e-06 0 -6.8633e-05 -3.26827e-06 0 -7.15761e-05 -1.64451e-07 0 -6.97645e-05 1.59824e-06 0 -6.54902e-05 2.43854e-06 0 -6.01857e-05 2.73375e-06 0 -5.46472e-05 2.73425e-06 0 -4.92829e-05 2.59682e-06 0 -4.42756e-05 2.39882e-06 0 -3.96938e-05 2.18241e-06 0 -3.55443e-05 1.97071e-06 0 -3.18051e-05 1.77427e-06 0 -2.8441e-05 1.59643e-06 0 -2.54141e-05 1.43644e-06 0 -2.26863e-05 1.29703e-06 0 -2.02213e-05 1.17356e-06 0 -1.79873e-05 1.06528e-06 0 -1.59546e-05 9.7175e-07 0 -1.40971e-05 8.89605e-07 0 -1.2392e-05 8.18983e-07 0 -1.0818e-05 7.58136e-07 0 -9.35709e-06 7.05447e-07 0 -7.99234e-06 6.61628e-07 0 -6.7086e-06 6.24502e-07 0 -5.49229e-06 5.93927e-07 0 -4.33045e-06 5.69876e-07 0 -3.21129e-06 5.51162e-07 0 -2.12368e-06 5.38241e-07 0 -1.05667e-06 5.30571e-07 0 0 5.27686e-07 0 -7.89429e-06 -5.11916e-06 0 -3.63934e-05 -4.18631e-06 0 -5.68627e-05 -2.59539e-06 0 -6.77719e-05 -1.10747e-06 0 -7.10435e-05 -7.15435e-08 0 -6.94875e-05 5.21386e-07 0 -6.53737e-05 8.06203e-07 0 -6.01588e-05 9.07717e-07 0 -5.4666e-05 9.09687e-07 0 -4.93227e-05 8.64887e-07 0 -4.43231e-05 7.99418e-07 0 -3.97421e-05 7.27532e-07 0 -3.55901e-05 6.57088e-07 0 -3.18471e-05 5.91653e-07 0 -2.84787e-05 5.32382e-07 0 -2.54476e-05 4.79044e-07 0 -2.27157e-05 4.32554e-07 0 -2.02471e-05 3.91378e-07 0 -1.80098e-05 3.55264e-07 0 -1.59742e-05 3.24069e-07 0 -1.41141e-05 2.9667e-07 0 -1.24067e-05 2.73115e-07 0 -1.08307e-05 2.52821e-07 0 -9.36785e-06 2.35247e-07 0 -8.00142e-06 2.20632e-07 0 -6.71613e-06 2.08249e-07 0 -5.4984e-06 1.98051e-07 0 -4.33523e-06 1.9003e-07 0 -3.21481e-06 1.83788e-07 0 -2.126e-06 1.79479e-07 0 -1.05782e-06 1.76921e-07 0 0 1.75959e-07 0 -7.89429e-06 5.11916e-06 0 -3.63934e-05 4.18631e-06 0 -5.68627e-05 2.59539e-06 0 -6.77719e-05 1.10747e-06 0 -7.10435e-05 7.15435e-08 0 -6.94875e-05 -5.21386e-07 0 -6.53737e-05 -8.06203e-07 0 -6.01588e-05 -9.07717e-07 0 -5.4666e-05 -9.09687e-07 0 -4.93227e-05 -8.64887e-07 0 -4.43231e-05 -7.99418e-07 0 -3.97421e-05 -7.27532e-07 0 -3.55901e-05 -6.57088e-07 0 -3.18471e-05 -5.91653e-07 0 -2.84787e-05 -5.32382e-07 0 -2.54476e-05 -4.79044e-07 0 -2.27157e-05 -4.32554e-07 0 -2.02471e-05 -3.91378e-07 0 -1.80098e-05 -3.55264e-07 0 -1.59742e-05 -3.24069e-07 0 -1.41141e-05 -2.9667e-07 0 -1.24067e-05 -2.73115e-07 0 -1.08307e-05 -2.52821e-07 0 -9.36785e-06 -2.35247e-07 0 -8.00142e-06 -2.20632e-07 0 -6.71613e-06 -2.08249e-07 0 -5.4984e-06 -1.98051e-07 0 -4.33523e-06 -1.9003e-07 0 -3.21481e-06 -1.83788e-07 0 -2.126e-06 -1.79479e-07 0 -1.05782e-06 -1.76921e-07 0 0 -1.75959e-07 0 -8.12493e-06 1.55096e-05 0 -3.73478e-05 1.26333e-05 0 -5.79695e-05 7.76935e-06 0 -6.8633e-05 3.26827e-06 0 -7.15761e-05 1.64451e-07 0 -6.97645e-05 -1.59824e-06 0 -6.54902e-05 -2.43854e-06 0 -6.01857e-05 -2.73375e-06 0 -5.46472e-05 -2.73425e-06 0 -4.92829e-05 -2.59682e-06 0 -4.42756e-05 -2.39882e-06 0 -3.96938e-05 -2.18241e-06 0 -3.55443e-05 -1.97071e-06 0 -3.18051e-05 -1.77427e-06 0 -2.8441e-05 -1.59643e-06 0 -2.54141e-05 -1.43644e-06 0 -2.26863e-05 -1.29703e-06 0 -2.02213e-05 -1.17356e-06 0 -1.79873e-05 -1.06528e-06 0 -1.59546e-05 -9.7175e-07 0 -1.40971e-05 -8.89605e-07 0 -1.2392e-05 -8.18983e-07 0 -1.0818e-05 -7.58136e-07 0 -9.35709e-06 -7.05447e-07 0 -7.99234e-06 -6.61628e-07 0 -6.7086e-06 -6.24502e-07 0 -5.49229e-06 -5.93927e-07 0 -4.33045e-06 -5.69876e-07 0 -3.21129e-06 -5.51162e-07 0 -2.12368e-06 -5.38241e-07 0 -1.05667e-06 -5.30571e-07 0 0 -5.27686e-07 0 -8.60664e-06 2.63702e-05 0 -3.93211e-05 2.13044e-05 0 -6.02205e-05 1.28858e-05 0 -7.03558e-05 5.26208e-06 0 -7.26276e-05 1.05706e-07 0 -7.03054e-05 -2.77697e-06 0 -6.57145e-05 -4.1301e-06 0 -6.02345e-05 -4.59112e-06 0 -5.46071e-05 -4.57408e-06 0 -4.92022e-05 -4.33509e-06 0 -4.41804e-05 -3.99982e-06 0 -3.95973e-05 -3.63667e-06 0 -3.54528e-05 -3.28263e-06 0 -3.17214e-05 -2.95479e-06 0 -2.83659e-05 -2.65832e-06 0 -2.53476e-05 -2.39178e-06 0 -2.26276e-05 -2.15961e-06 0 -2.01699e-05 -1.95403e-06 0 -1.79425e-05 -1.77376e-06 0 -1.59155e-05 -1.61806e-06 0 -1.40632e-05 -1.48132e-06 0 -1.23627e-05 -1.36376e-06 0 -1.07929e-05 -1.26248e-06 0 -9.33566e-06 -1.17477e-06 0 -7.97428e-06 -1.10182e-06 0 -6.69361e-06 -1.04002e-06 0 -5.48014e-06 -9.8912e-07 0 -4.32095e-06 -9.49082e-07 0 -3.20429e-06 -9.17927e-07 0 -2.11907e-06 -8.96416e-07 0 -1.05438e-06 -8.83647e-07 0 0 -8.78845e-07 0 -9.38784e-06 3.80635e-05 0 -4.24651e-05 3.0351e-05 0 -6.37064e-05 1.78819e-05 0 -7.29514e-05 6.96207e-06 0 -7.41775e-05 -2.09331e-07 0 -7.10879e-05 -4.12428e-06 0 -6.60308e-05 -5.91844e-06 0 -6.02958e-05 -6.49928e-06 0 -5.45403e-05 -6.43847e-06 0 -4.90777e-05 -6.08341e-06 0 -4.40359e-05 -5.60322e-06 0 -3.94518e-05 -5.08975e-06 0 -3.53153e-05 -4.59166e-06 0 -3.15959e-05 -4.13179e-06 0 -2.82535e-05 -3.71662e-06 0 -2.52479e-05 -3.34367e-06 0 -2.25399e-05 -3.01901e-06 0 -2.00931e-05 -2.73164e-06 0 -1.78753e-05 -2.47969e-06 0 -1.58571e-05 -2.2621e-06 0 -1.40126e-05 -2.07101e-06 0 -1.23189e-05 -1.90674e-06 0 -1.07553e-05 -1.76519e-06 0 -9.30361e-06 -1.64263e-06 0 -7.94726e-06 -1.54069e-06 0 -6.67119e-06 -1.45432e-06 0 -5.46196e-06 -1.38318e-06 0 -4.30673e-06 -1.32722e-06 0 -3.19381e-06 -1.28368e-06 0 -2.11217e-06 -1.25361e-06 0 -1.05095e-06 -1.23577e-06 0 -3.83124e-20 -1.22906e-06 0 -1.05538e-05 5.10355e-05 0 -4.70329e-05 3.99239e-05 0 -6.8564e-05 2.2653e-05 0 -7.64287e-05 8.2182e-06 0 -7.61906e-05 -8.89674e-07 0 -7.20776e-05 -5.70453e-06 0 -6.64158e-05 -7.83809e-06 0 -6.03559e-05 -8.47552e-06 0 -5.44394e-05 -8.33539e-06 0 -4.89055e-05 -7.84473e-06 0 -4.38402e-05 -7.20942e-06 0 -3.92564e-05 -6.54089e-06 0 -3.51316e-05 -5.89646e-06 0 -3.14285e-05 -5.30378e-06 0 -2.81036e-05 -4.76982e-06 0 -2.51152e-05 -4.29072e-06 0 -2.24232e-05 -3.87398e-06 0 -1.99908e-05 -3.50525e-06 0 -1.77861e-05 -3.18204e-06 0 -1.57794e-05 -2.90296e-06 0 -1.39452e-05 -2.65788e-06 0 -1.22607e-05 -2.44718e-06 0 -1.07053e-05 -2.26564e-06 0 -9.261e-06 -2.10844e-06 0 -7.91134e-06 -1.97769e-06 0 -6.64137e-06 -1.8669e-06 0 -5.43779e-06 -1.77565e-06 0 -4.28782e-06 -1.70387e-06 0 -3.17987e-06 -1.64802e-06 0 -2.10299e-06 -1.60945e-06 0 -1.0464e-06 -1.58655e-06 0 0 -1.57794e-06 0 -1.22476e-05 6.5873e-05 0 -5.34161e-05 5.01622e-05 0 -7.49736e-05 2.7027e-05 0 -8.07841e-05 8.84867e-06 0 -7.8613e-05 -2.04843e-06 0 -7.32273e-05 -7.57799e-06 0 -6.6839e-05 -9.91922e-06 0 -6.03969e-05 -1.05341e-05 0 -5.42946e-05 -1.0271e-05 0 -4.86805e-05 -9.62101e-06 0 -4.35907e-05 -8.81825e-06 0 -3.90099e-05 -7.98901e-06 0 -3.4901e-05 -7.19557e-06 0 -3.12191e-05 -6.4692e-06 0 -2.79165e-05 -5.81642e-06 0 -2.49497e-05 -5.23151e-06 0 -2.22777e-05 -4.72324e-06 0 -1.98634e-05 -4.27371e-06 0 -1.76749e-05 -3.87981e-06 0 -1.56826e-05 -3.53973e-06 0 -1.38612e-05 -3.2411e-06 0 -1.21882e-05 -2.98438e-06 0 -1.0643e-05 -2.76319e-06 0 -9.20789e-06 -2.57163e-06 0 -7.86656e-06 -2.4123e-06 0 -6.60422e-06 -2.27729e-06 0 -5.40766e-06 -2.16609e-06 0 -4.26425e-06 -2.07861e-06 0 -3.1625e-06 -2.01054e-06 0 -2.09156e-06 -1.96353e-06 0 -1.04072e-06 -1.93562e-06 0 0 -1.92513e-06 0 -1.471e-05 8.33937e-05 0 -6.22037e-05 6.11661e-05 0 -8.31492e-05 3.07275e-05 0 -8.59852e-05 8.63337e-06 0 -8.13657e-05 -3.80028e-06 0 -7.44761e-05 -9.79822e-06 0 -6.72627e-05 -1.2186e-05 0 -6.03978e-05 -1.26854e-05 0 -5.40945e-05 -1.22492e-05 0 -4.83968e-05 -1.1413e-05 0 -4.32844e-05 -1.04289e-05 0 -3.87109e-05 -9.43269e-06 0 -3.46231e-05 -8.48734e-06 0 -3.09675e-05 -7.62638e-06 0 -2.76922e-05 -6.85486e-06 0 -2.47515e-05 -6.16463e-06 0 -2.21035e-05 -5.5655e-06 0 -1.9711e-05 -5.0359e-06 0 -1.75419e-05 -4.57198e-06 0 -1.55669e-05 -4.17153e-06 0 -1.37609e-05 -3.81991e-06 0 -1.21015e-05 -3.51763e-06 0 -1.05685e-05 -3.25719e-06 0 -9.1444e-06 -3.03163e-06 0 -7.81303e-06 -2.844e-06 0 -6.55978e-06 -2.68501e-06 0 -5.37163e-06 -2.55405e-06 0 -4.23606e-06 -2.45102e-06 0 -3.14173e-06 -2.37084e-06 0 -2.07788e-06 -2.31548e-06 0 -1.03394e-06 -2.28261e-06 0 0 -2.27025e-06 0 -1.83622e-05 0.000104799 0 -7.42772e-05 7.29298e-05 0 -9.33146e-05 3.3325e-05 0 -9.19486e-05 7.3124e-06 0 -8.43392e-05 -6.25578e-06 0 -7.57491e-05 -1.24086e-05 0 -6.76435e-05 -1.4655e-05 0 -6.03347e-05 -1.49354e-05 0 -5.38265e-05 -1.42713e-05 0 -4.80478e-05 -1.32199e-05 0 -4.29181e-05 -1.20399e-05 0 -3.8358e-05 -1.08701e-05 0 -3.42972e-05 -9.76992e-06 0 -3.06736e-05 -8.77357e-06 0 -2.74308e-05 -7.88352e-06 0 -2.45208e-05 -7.08862e-06 0 -2.1901e-05 -6.39948e-06 0 -1.95339e-05 -5.79067e-06 0 -1.73874e-05 -5.25755e-06 0 -1.54325e-05 -4.79746e-06 0 -1.36442e-05 -4.3935e-06 0 -1.20008e-05 -4.04624e-06 0 -1.0482e-05 -3.74702e-06 0 -9.07061e-06 -3.48786e-06 0 -7.75081e-06 -3.27228e-06 0 -6.50814e-06 -3.08959e-06 0 -5.32975e-06 -2.93909e-06 0 -4.2033e-06 -2.82069e-06 0 -3.11758e-06 -2.72854e-06 0 -2.06197e-06 -2.66491e-06 0 -1.02605e-06 -2.62713e-06 0 1.14989e-19 -2.61293e-06 0 -2.39254e-05 0.00013195 0 -9.08458e-05 8.51957e-05 0 -0.00010561 3.41772e-05 0 -9.85048e-05 4.59423e-06 0 -8.73889e-05 -9.51189e-06 0 -7.69606e-05 -1.54379e-05 0 -6.79349e-05 -1.73337e-05 0 -6.01835e-05 -1.72845e-05 0 -5.34785e-05 -1.63358e-05 0 -4.76279e-05 -1.50397e-05 0 -4.24894e-05 -1.36487e-05 0 -3.79503e-05 -1.2299e-05 0 -3.39235e-05 -1.10412e-05 0 -3.03381e-05 -9.90891e-06 0 -2.71329e-05 -8.90076e-06 0 -2.42584e-05 -8.00204e-06 0 -2.16709e-05 -7.2239e-06 0 -1.93326e-05 -6.53689e-06 0 -1.72118e-05 -5.93553e-06 0 -1.52797e-05 -5.41665e-06 0 -1.35118e-05 -4.96111e-06 0 -1.18863e-05 -4.5695e-06 0 -1.03837e-05 -4.23206e-06 0 -8.98679e-06 -3.93978e-06 0 -7.68013e-06 -3.69663e-06 0 -6.44948e-06 -3.49055e-06 0 -5.28217e-06 -3.32078e-06 0 -4.16608e-06 -3.18721e-06 0 -3.09014e-06 -3.08325e-06 0 -2.04391e-06 -3.01145e-06 0 -1.01708e-06 -2.96883e-06 0 0 -2.9528e-06 0 -3.29407e-05 0.000167887 0 -0.000113902 9.71358e-05 0 -0.000120095 3.23733e-05 0 -0.000105387 1.80425e-07 0 -9.0331e-05 -1.36384e-05 0 -7.80091e-05 -1.88961e-05 0 -6.80832e-05 -2.02187e-05 0 -5.99155e-05 -1.97276e-05 0 -5.3035e-05 -1.84381e-05 0 -4.71284e-05 -1.68683e-05 0 -4.19935e-05 -1.52524e-05 0 -3.74853e-05 -1.37167e-05 0 -3.35004e-05 -1.2299e-05 0 -2.99597e-05 -1.10304e-05 0 -2.6798e-05 -9.90486e-06 0 -2.39638e-05 -8.90339e-06 0 -2.14127e-05 -8.03747e-06 0 -1.9107e-05 -7.27345e-06 0 -1.70151e-05 -6.60494e-06 0 -1.51086e-05 -6.02824e-06 0 -1.33634e-05 -5.52197e-06 0 -1.17581e-05 -5.08675e-06 0 -1.02735e-05 -4.7117e-06 0 -8.89285e-06 -4.38683e-06 0 -7.60091e-06 -4.11654e-06 0 -6.38371e-06 -3.88744e-06 0 -5.22883e-06 -3.69869e-06 0 -4.12434e-06 -3.55017e-06 0 -3.05938e-06 -3.43457e-06 0 -2.02365e-06 -3.35474e-06 0 -1.00702e-06 -3.30734e-06 0 0 -3.28952e-06 0 -4.85073e-05 0.000217901 0 -0.000145901 0.000106686 0 -0.000136379 2.67228e-05 0 -0.000112167 -6.18648e-06 0 -9.2947e-05 -1.86613e-05 0 -7.87911e-05 -2.27695e-05 0 -6.80383e-05 -2.3295e-05 0 -5.95064e-05 -2.22539e-05 0 -5.24841e-05 -2.05706e-05 0 -4.65441e-05 -1.87005e-05 0 -4.14283e-05 -1.68468e-05 0 -3.69623e-05 -1.512e-05 0 -3.30283e-05 -1.35406e-05 0 -2.95394e-05 -1.2136e-05 0 -2.64269e-05 -1.08941e-05 0 -2.36378e-05 -9.7912e-06 0 -2.11272e-05 -8.83891e-06 0 -1.88577e-05 -7.99923e-06 0 -1.67978e-05 -7.26481e-06 0 -1.49196e-05 -6.63138e-06 0 -1.31994e-05 -6.07533e-06 0 -1.16165e-05 -5.5973e-06 0 -1.01518e-05 -5.18534e-06 0 -8.78909e-06 -4.82847e-06 0 -7.51339e-06 -4.53152e-06 0 -6.31106e-06 -4.2798e-06 0 -5.1699e-06 -4.0724e-06 0 -4.07823e-06 -3.90919e-06 0 -3.02538e-06 -3.78214e-06 0 -2.00126e-06 -3.6944e-06 0 -9.95914e-07 -3.64231e-06 0 2.39141e-19 -3.62271e-06 0 -7.79226e-05 0.00029185 0 -0.000189658 0.000109255 0 -0.000153451 1.58786e-05 0 -0.000118272 -1.46487e-05 0 -9.49967e-05 -2.45451e-05 0 -7.92019e-05 -2.70174e-05 0 -6.77519e-05 -2.65354e-05 0 -5.89327e-05 -2.48465e-05 0 -5.18145e-05 -2.27227e-05 0 -4.58695e-05 -2.05295e-05 0 -4.07913e-05 -1.84272e-05 0 -3.63807e-05 -1.65056e-05 0 -3.25069e-05 -1.47635e-05 0 -2.90773e-05 -1.32236e-05 0 -2.602e-05 -1.18666e-05 0 -2.32809e-05 -1.0664e-05 0 -2.08151e-05 -9.62694e-06 0 -1.85852e-05 -8.71314e-06 0 -1.65603e-05 -7.91418e-06 0 -1.47131e-05 -7.22522e-06 0 -1.30203e-05 -6.62045e-06 0 -1.14617e-05 -6.10051e-06 0 -1.00188e-05 -5.6524e-06 0 -8.67568e-06 -5.26417e-06 0 -7.41773e-06 -4.94109e-06 0 -6.23163e-06 -4.66719e-06 0 -5.10547e-06 -4.44149e-06 0 -4.02781e-06 -4.26386e-06 0 -2.98821e-06 -4.12558e-06 0 -1.97678e-06 -4.03008e-06 0 -9.83765e-07 -3.97337e-06 0 0 -3.95204e-06 0 -0.000140934 0.000409683 0 -0.00024637 9.57195e-05 0 -0.000169354 -1.27459e-06 0 -0.000123009 -2.51419e-05 0 -9.62351e-05 -3.11793e-05 0 -7.91434e-05 -3.15713e-05 0 -6.71801e-05 -2.99013e-05 0 -5.81736e-05 -2.74834e-05 0 -5.1016e-05 -2.48813e-05 0 -4.50997e-05 -2.23469e-05 0 -4.00806e-05 -1.99882e-05 0 -3.57396e-05 -1.78695e-05 0 -3.19365e-05 -1.59648e-05 0 -2.85738e-05 -1.42908e-05 0 -2.55778e-05 -1.28207e-05 0 -2.28937e-05 -1.15202e-05 0 -2.04767e-05 -1.04003e-05 0 -1.82899e-05 -9.41409e-06 0 -1.6303e-05 -8.55213e-06 0 -1.44894e-05 -7.80896e-06 0 -1.28263e-05 -7.15661e-06 0 -1.12941e-05 -6.59574e-06 0 -9.87472e-06 -6.1123e-06 0 -8.5528e-06 -5.69342e-06 0 -7.31407e-06 -5.34477e-06 0 -6.14555e-06 -5.04918e-06 0 -5.03564e-06 -4.80556e-06 0 -3.97316e-06 -4.61381e-06 0 -2.94792e-06 -4.46453e-06 0 -1.95024e-06 -4.36142e-06 0 -9.70593e-07 -4.30019e-06 0 -7.52915e-19 -4.27717e-06 0 -0.000301934 0.000615986 0 -0.000309404 5.15832e-05 0 -0.000181191 -2.48919e-05 0 -0.000125671 -3.73162e-05 0 -9.64496e-05 -3.83739e-05 0 -7.85373e-05 -3.63363e-05 0 -6.62899e-05 -3.33435e-05 0 -5.7214e-05 -3.0138e-05 0 -5.00817e-05 -2.70312e-05 0 -4.42319e-05 -2.41435e-05 0 -3.92951e-05 -2.15239e-05 0 -3.50391e-05 -1.92075e-05 0 -3.13175e-05 -1.71414e-05 0 -2.80297e-05 -1.53355e-05 0 -2.51012e-05 -1.37545e-05 0 -2.2477e-05 -1.23584e-05 0 -2.01128e-05 -1.11578e-05 0 -1.79725e-05 -1.0101e-05 0 -1.60266e-05 -9.17774e-06 0 -1.4249e-05 -8.38179e-06 0 -1.26178e-05 -7.68311e-06 0 -1.11139e-05 -7.08236e-06 0 -9.71985e-06 -6.56449e-06 0 -8.4207e-06 -6.11571e-06 0 -7.20262e-06 -5.74211e-06 0 -6.05299e-06 -5.42532e-06 0 -4.96053e-06 -5.16421e-06 0 -3.91437e-06 -4.95866e-06 0 -2.90457e-06 -4.79863e-06 0 -1.9217e-06 -4.68808e-06 0 -9.56424e-07 -4.62244e-06 0 -5.05842e-19 -4.59775e-06 0 -0.000836505 0.00103536 0 -0.00035439 -3.42247e-05 0 -0.000185779 -5.33459e-05 0 -0.00012568 -5.05128e-05 0 -9.54868e-05 -4.58686e-05 0 -7.73304e-05 -4.11966e-05 0 -6.50593e-05 -3.68056e-05 0 -5.60443e-05 -3.27805e-05 0 -4.90074e-05 -2.91554e-05 0 -4.32645e-05 -2.59092e-05 0 -3.84347e-05 -2.3028e-05 0 -3.42798e-05 -2.05154e-05 0 -3.06506e-05 -1.82904e-05 0 -2.74459e-05 -1.63552e-05 0 -2.45909e-05 -1.46662e-05 0 -2.20314e-05 -1.31772e-05 0 -1.97241e-05 -1.18981e-05 0 -1.76337e-05 -1.07729e-05 0 -1.57315e-05 -9.79012e-06 0 -1.39924e-05 -8.94295e-06 0 -1.23952e-05 -8.19928e-06 0 -1.09215e-05 -7.55978e-06 0 -9.55447e-06 -7.00841e-06 0 -8.27961e-06 -6.53054e-06 0 -7.08356e-06 -6.13266e-06 0 -5.9541e-06 -5.79522e-06 0 -4.88029e-06 -5.51706e-06 0 -3.85156e-06 -5.29805e-06 0 -2.85825e-06 -5.12753e-06 0 -1.89119e-06 -5.00972e-06 0 -9.4128e-07 -4.93977e-06 0 0 -4.91345e-06 0 -0.00719838 -0.00411023 0 -0.00034536 -0.000143269 0 -0.000181046 -8.30493e-05 0 -0.000122748 -6.38395e-05 0 -9.32798e-05 -5.33577e-05 0 -7.55008e-05 -4.60242e-05 0 -6.34796e-05 -4.02265e-05 0 -5.46608e-05 -3.53791e-05 0 -4.77919e-05 -3.1236e-05 0 -4.21976e-05 -2.76336e-05 0 -3.75001e-05 -2.44938e-05 0 -3.34626e-05 -2.17888e-05 0 -2.99371e-05 -1.94085e-05 0 -2.68233e-05 -1.73478e-05 0 -2.40479e-05 -1.55539e-05 0 -2.15579e-05 -1.3975e-05 0 -1.93113e-05 -1.26201e-05 0 -1.7274e-05 -1.14288e-05 0 -1.54182e-05 -1.03884e-05 0 -1.372e-05 -9.49168e-06 0 -1.21589e-05 -8.70445e-06 0 -1.07173e-05 -8.02739e-06 0 -9.37889e-06 -7.44355e-06 0 -8.12979e-06 -6.93745e-06 0 -6.95711e-06 -6.51597e-06 0 -5.84906e-06 -6.15847e-06 0 -4.79504e-06 -5.86372e-06 0 -3.78482e-06 -5.63163e-06 0 -2.80903e-06 -5.45089e-06 0 -1.85876e-06 -5.32602e-06 0 -9.25186e-07 -5.25186e-06 0 0 -5.22397e-06 0 </DataArray> 
</PointData> 
<Points> 
<DataArray type="Float32" NumberOfComponents="3"> 