<?xml version="1.0"?> 
<VTKFile type="StructuredGrid" version="0.1"> 
<StructuredGrid WholeExtent="0 31 0 31 0 0"> 
<Piece Extent="0 31 0 31 0 0"> 
<PointData>
<DataArray type="Float32" Name="B" format="ascii" NumberOfComponents="3"> 
0 -0 0 9.26838e-07 -0 0 1.85931e-06 -0 0 2.8029e-06 -0 0 3.76333e-06 -0 0 4.74615e-06 -0 0 5.75691e-06 -0 0 6.80133e-06 -0 0 7.88488e-06 -0 0 9.01317e-06 -0 0 1.01917e-05 -0 0 1.14258e-05 -0 0 1.27209e-05 -0 0 1.40819e-05 -0 0 1.55138e-05 -0 0 1.70211e-05 -0 0 1.86079e-05 -0 0 2.02779e-05 -0 0 2.20342e-05 -0 0 2.3879e-05 -0 0 2.58137e-05 -0 0 2.78389e-05 -0 0 2.99537e-05 -0 0 3.21561e-05 -0 0 3.44425e-05 -0 0 3.68078e-05 -0 0 3.9245e-05 -0 0 4.17453e-05 -0 0 4.42979e-05 -0 0 4.689e-05 -0 0 4.95069e-05 -0 0 5.21317e-05 -0 0 2.19751e-21 -9.24503e-07 0 9.23696e-07 -9.27645e-07 0 1.85302e-06 -9.35961e-07 0 2.79347e-06 -9.49837e-07 0 3.75075e-06 -9.69627e-07 0 4.73042e-06 -9.94603e-07 0 5.73803e-06 -1.02553e-06 0 6.77931e-06 -1.06198e-06 0 7.85974e-06 -1.10363e-06 0 8.98494e-06 -1.15145e-06 0 1.01604e-05 -1.20434e-06 0 1.13916e-05 -1.26257e-06 0 1.26837e-05 -1.32627e-06 0 1.40421e-05 -1.3946e-06 0 1.54714e-05 -1.46798e-06 0 1.69763e-05 -1.54566e-06 0 1.85611e-05 -1.62703e-06 0 2.02294e-05 -1.71217e-06 0 2.19843e-05 -1.79981e-06 0 2.38283e-05 -1.88939e-06 0 2.57628e-05 -1.98e-06 0 2.77884e-05 -2.07053e-06 0 2.99043e-05 -2.15961e-06 0 3.21087e-05 -2.24595e-06 0 3.4398e-05 -2.32812e-06 0 3.67672e-05 -2.40419e-06 0 3.92093e-05 -2.47243e-06 0 4.17157e-05 -2.53089e-06 0 4.42755e-05 -2.57754e-06 0 4.68759e-05 -2.61039e-06 0 4.95022e-05 -2.62746e-06 0 5.21374e-05 -2.62686e-06 0 2.87937e-21 -1.84338e-06 0 9.15382e-07 -1.84966e-06 0 1.83639e-06 -1.86629e-06 0 2.76851e-06 -1.89403e-06 0 3.71745e-06 -1.93361e-06 0 4.68878e-06 -1.98356e-06 0 5.68806e-06 -2.04542e-06 0 6.72102e-06 -2.11835e-06 0 7.79318e-06 -2.20168e-06 0 8.91018e-06 -2.2974e-06 0 1.00776e-05 -2.40327e-06 0 1.13009e-05 -2.51989e-06 0 1.25854e-05 -2.6475e-06 0 1.39364e-05 -2.78443e-06 0 1.53589e-05 -2.93154e-06 0 1.68576e-05 -3.08733e-06 0 1.84369e-05 -3.25063e-06 0 2.01006e-05 -3.42159e-06 0 2.1852e-05 -3.59767e-06 0 2.36937e-05 -3.77777e-06 0 2.56274e-05 -3.96008e-06 0 2.7654e-05 -4.14238e-06 0 2.97729e-05 -4.32195e-06 0 3.19824e-05 -4.49622e-06 0 3.42793e-05 -4.66227e-06 0 3.66587e-05 -4.81626e-06 0 3.91139e-05 -4.95469e-06 0 4.16363e-05 -5.07364e-06 0 4.42151e-05 -5.169e-06 0 4.68376e-05 -5.23671e-06 0 4.94888e-05 -5.27276e-06 0 5.21518e-05 -5.27331e-06 0 0 -2.75113e-06 0 9.01519e-07 -2.76055e-06 0 1.80865e-06 -2.78548e-06 0 2.72689e-06 -2.82709e-06 0 3.66193e-06 -2.88644e-06 0 4.61933e-06 -2.96136e-06 0 5.60469e-06 -3.05416e-06 0 6.62376e-06 -3.1636e-06 0 7.68208e-06 -3.28868e-06 0 8.78536e-06 -3.43244e-06 0 9.93926e-06 -3.59149e-06 0 1.11493e-05 -3.76677e-06 0 1.2421e-05 -3.95868e-06 0 1.37598e-05 -4.16474e-06 0 1.51707e-05 -4.38627e-06 0 1.66589e-05 -4.62104e-06 0 1.82287e-05 -4.86732e-06 0 1.98845e-05 -5.12542e-06 0 2.16298e-05 -5.3915e-06 0 2.34675e-05 -5.66398e-06 0 2.53997e-05 -5.94016e-06 0 2.74276e-05 -6.21669e-06 0 2.95512e-05 -6.48956e-06 0 3.1769e-05 -6.75486e-06 0 3.40784e-05 -7.00821e-06 0 3.64747e-05 -7.2438e-06 0 3.89515e-05 -7.45631e-06 0 4.15005e-05 -7.6398e-06 0 4.4111e-05 -7.78796e-06 0 4.67704e-05 -7.89458e-06 0 4.94635e-05 -7.95348e-06 0 5.21731e-05 -7.95869e-06 0 0 -3.64209e-06 0 8.8177e-07 -3.65463e-06 0 1.76914e-06 -3.68785e-06 0 2.66758e-06 -3.74328e-06 0 3.58279e-06 -3.82238e-06 0 4.52033e-06 -3.92225e-06 0 5.4858e-06 -4.04601e-06 0 6.485e-06 -4.192e-06 0 7.52351e-06 -4.35893e-06 0 8.60712e-06 -4.55089e-06 0 9.7416e-06 -4.76338e-06 0 1.09326e-05 -4.99773e-06 0 1.21858e-05 -5.25453e-06 0 1.35068e-05 -5.53046e-06 0 1.4901e-05 -5.82741e-06 0 1.63737e-05 -6.14245e-06 0 1.79298e-05 -6.47327e-06 0 1.95738e-05 -6.82048e-06 0 2.13099e-05 -7.1789e-06 0 2.31413e-05 -7.54652e-06 0 2.50708e-05 -7.91984e-06 0 2.71001e-05 -8.29431e-06 0 2.92296e-05 -8.66473e-06 0 3.14588e-05 -9.0258e-06 0 3.37853e-05 -9.37163e-06 0 3.62052e-05 -9.69445e-06 0 3.87125e-05 -9.98703e-06 0 4.12992e-05 -1.02413e-05 0 4.3955e-05 -1.04486e-05 0 4.66672e-05 -1.06004e-05 0 4.94205e-05 -1.06882e-05 0 5.21972e-05 -1.07036e-05 0 0 -4.51072e-06 0 8.56877e-07 -4.52638e-06 0 1.71933e-06 -4.56785e-06 0 2.5928e-06 -4.63708e-06 0 3.48299e-06 -4.73587e-06 0 4.39544e-06 -4.86065e-06 0 5.33578e-06 -5.01533e-06 0 6.30982e-06 -5.1979e-06 0 7.32322e-06 -5.40676e-06 0 8.38186e-06 -5.64712e-06 0 9.49161e-06 -5.91338e-06 0 1.06583e-05 -6.20728e-06 0 1.18878e-05 -6.52966e-06 0 1.3186e-05 -6.87641e-06 0 1.45586e-05 -7.25006e-06 0 1.60113e-05 -7.64699e-06 0 1.75494e-05 -8.06439e-06 0 1.91779e-05 -8.50327e-06 0 2.09016e-05 -8.95708e-06 0 2.27243e-05 -9.42348e-06 0 2.46495e-05 -9.89823e-06 0 2.66795e-05 -1.03756e-05 0 2.88158e-05 -1.08492e-05 0 3.10583e-05 -1.13123e-05 0 3.34056e-05 -1.17576e-05 0 3.58545e-05 -1.21753e-05 0 3.83997e-05 -1.25561e-05 0 4.10337e-05 -1.28896e-05 0 4.37465e-05 -1.31647e-05 0 4.65256e-05 -1.33704e-05 0 4.93555e-05 -1.34954e-05 0 5.2218e-05 -1.35287e-05 0 0 -5.35152e-06 0 8.26111e-07 -5.37029e-06 0 1.65776e-06 -5.41997e-06 0 2.50035e-06 -5.50291e-06 0 3.35955e-06 -5.62131e-06 0 4.24091e-06 -5.77092e-06 0 5.15005e-06 -5.95647e-06 0 6.09282e-06 -6.1756e-06 0 7.07494e-06 -6.42644e-06 0 8.10238e-06 -6.71538e-06 0 9.18116e-06 -7.03573e-06 0 1.03173e-05 -7.38971e-06 0 1.15169e-05 -7.77846e-06 0 1.27862e-05 -8.19712e-06 0 1.41313e-05 -8.64896e-06 0 1.55582e-05 -9.12972e-06 0 1.70729e-05 -9.63612e-06 0 1.8681e-05 -1.01698e-05 0 2.03879e-05 -1.07227e-05 0 2.21983e-05 -1.12923e-05 0 2.41166e-05 -1.18738e-05 0 2.61459e-05 -1.24601e-05 0 2.82888e-05 -1.3044e-05 0 3.05462e-05 -1.36172e-05 0 3.29178e-05 -1.41707e-05 0 3.54012e-05 -1.46929e-05 0 3.79921e-05 -1.51722e-05 0 4.06839e-05 -1.5596e-05 0 4.34671e-05 -1.59503e-05 0 4.63295e-05 -1.62211e-05 0 4.92554e-05 -1.63943e-05 0 5.22261e-05 -1.64558e-05 0 2.4678e-20 -6.15889e-06 0 7.89921e-07 -6.18073e-06 0 1.58532e-06 -6.23854e-06 0 2.39156e-06 -6.33509e-06 0 3.21425e-06 -6.47297e-06 0 4.05892e-06 -6.64725e-06 0 4.93119e-06 -6.86355e-06 0 5.83693e-06 -7.11914e-06 0 6.78192e-06 -7.41196e-06 0 7.77224e-06 -7.74961e-06 0 8.81405e-06 -8.12433e-06 0 9.91354e-06 -8.53889e-06 0 1.10772e-05 -8.99485e-06 0 1.23116e-05 -9.48657e-06 0 1.3623e-05 -1.00183e-05 0 1.50184e-05 -1.0585e-05 0 1.6504e-05 -1.11832e-05 0 1.80864e-05 -1.18151e-05 0 1.97718e-05 -1.24715e-05 0 2.15657e-05 -1.31496e-05 0 2.34736e-05 -1.38441e-05 0 2.55e-05 -1.45466e-05 0 2.76483e-05 -1.52492e-05 0 2.9921e-05 -1.59421e-05 0 3.23189e-05 -1.66147e-05 0 3.48411e-05 -1.72532e-05 0 3.74844e-05 -1.7844e-05 0 4.02432e-05 -1.83717e-05 0 4.31089e-05 -1.88194e-05 0 4.60698e-05 -1.91699e-05 0 4.91103e-05 -1.94054e-05 0 5.22112e-05 -1.95084e-05 0 0 -6.92746e-06 0 7.48669e-07 -6.95233e-06 0 1.50273e-06 -7.01818e-06 0 2.26749e-06 -7.12818e-06 0 3.04848e-06 -7.28533e-06 0 3.8512e-06 -7.48406e-06 0 4.68123e-06 -7.73086e-06 0 5.54447e-06 -8.02274e-06 0 6.44674e-06 -8.35741e-06 0 7.39421e-06 -8.74377e-06 0 8.39321e-06 -9.17306e-06 0 9.45013e-06 -9.64864e-06 0 1.05718e-05 -1.01726e-05 0 1.1765e-05 -1.07385e-05 0 1.30369e-05 -1.13517e-05 0 1.43945e-05 -1.20068e-05 0 1.58452e-05 -1.26997e-05 0 1.73962e-05 -1.34339e-05 0 1.90546e-05 -1.41985e-05 0 2.08272e-05 -1.4991e-05 0 2.27206e-05 -1.58056e-05 0 2.47406e-05 -1.66327e-05 0 2.68922e-05 -1.74639e-05 0 2.91794e-05 -1.82877e-05 0 3.16046e-05 -1.9092e-05 0 3.41684e-05 -1.9861e-05 0 3.68693e-05 -2.05788e-05 0 3.9703e-05 -2.12269e-05 0 4.26623e-05 -2.17855e-05 0 4.57361e-05 -2.22335e-05 0 4.89092e-05 -2.25492e-05 0 5.21618e-05 -2.27106e-05 0 0 -7.65179e-06 0 7.01431e-07 -7.67964e-06 0 1.40815e-06 -7.75339e-06 0 2.12533e-06 -7.87661e-06 0 2.85845e-06 -8.05274e-06 0 3.61291e-06 -8.27558e-06 0 4.39425e-06 -8.55254e-06 0 5.20835e-06 -8.88036e-06 0 6.06106e-06 -9.25659e-06 0 6.95864e-06 -9.69152e-06 0 7.90756e-06 -1.01754e-05 0 8.91443e-06 -1.07123e-05 0 9.98638e-06 -1.13048e-05 0 1.11306e-05 -1.19461e-05 0 1.23547e-05 -1.26425e-05 0 1.36666e-05 -1.33882e-05 0 1.50742e-05 -1.41789e-05 0 1.65857e-05 -1.50195e-05 0 1.82095e-05 -1.58975e-05 0 1.99535e-05 -1.68109e-05 0 2.18258e-05 -1.77536e-05 0 2.38338e-05 -1.87147e-05 0 2.59843e-05 -1.96856e-05 0 2.82831e-05 -2.06532e-05 0 3.07347e-05 -2.16039e-05 0 3.33418e-05 -2.25199e-05 0 3.61048e-05 -2.33829e-05 0 3.90217e-05 -2.41715e-05 0 4.20866e-05 -2.48621e-05 0 4.52902e-05 -2.54296e-05 0 4.86178e-05 -2.58477e-05 0 5.20498e-05 -2.6089e-05 0 0 -8.32656e-06 0 6.49346e-07 -8.35732e-06 0 1.30383e-06 -8.43878e-06 0 1.96851e-06 -8.57493e-06 0 2.64871e-06 -8.76962e-06 0 3.34973e-06 -9.0161e-06 0 4.07706e-06 -9.32268e-06 0 4.8365e-06 -9.68591e-06 0 5.63394e-06 -1.01032e-05 0 6.47566e-06 -1.05863e-05 0 7.36827e-06 -1.11246e-05 0 8.3186e-06 -1.17228e-05 0 9.33407e-06 -1.23844e-05 0 1.04223e-05 -1.31017e-05 0 1.15914e-05 -1.38828e-05 0 1.28501e-05 -1.47214e-05 0 1.42069e-05 -1.5613e-05 0 1.56714e-05 -1.65642e-05 0 1.72529e-05 -1.75611e-05 0 1.89608e-05 -1.86022e-05 0 2.0805e-05 -1.96817e-05 0 2.27946e-05 -2.0787e-05 0 2.49385e-05 -2.191e-05 0 2.72447e-05 -2.30359e-05 0 2.97201e-05 -2.41496e-05 0 3.23698e-05 -2.52316e-05 0 3.5197e-05 -2.6261e-05 0 3.82019e-05 -2.72135e-05 0 4.13814e-05 -2.80615e-05 0 4.47278e-05 -2.87754e-05 0 4.82283e-05 -2.93233e-05 0 5.18636e-05 -2.96716e-05 0 0 -8.9467e-06 0 5.92168e-07 -8.98027e-06 0 1.18929e-06 -9.0692e-06 0 1.79624e-06 -9.21788e-06 0 2.41818e-06 -9.4306e-06 0 3.06027e-06 -9.70007e-06 0 3.72787e-06 -1.00355e-05 0 4.42671e-06 -1.04334e-05 0 5.16262e-06 -1.0891e-05 0 5.94192e-06 -1.14216e-05 0 6.77132e-06 -1.20137e-05 0 7.65781e-06 -1.2673e-05 0 8.60911e-06 -1.34037e-05 0 9.63327e-06 -1.41977e-05 0 1.07389e-05 -1.50646e-05 0 1.19354e-05 -1.5998e-05 0 1.32323e-05 -1.69933e-05 0 1.46402e-05 -1.80594e-05 0 1.61698e-05 -1.91806e-05 0 1.78322e-05 -2.03566e-05 0 1.96389e-05 -2.15818e-05 0 2.16013e-05 -2.28422e-05 0 2.37305e-05 -2.41309e-05 0 2.60372e-05 -2.5431e-05 0 2.85311e-05 -2.67262e-05 0 3.12204e-05 -2.79956e-05 0 3.41113e-05 -2.92158e-05 0 3.72074e-05 -3.03592e-05 0 4.05087e-05 -3.13945e-05 0 4.40108e-05 -3.22869e-05 0 4.77032e-05 -3.29984e-05 0 5.15682e-05 -3.34878e-05 0 0 -9.50711e-06 0 5.29835e-07 -9.54337e-06 0 1.06438e-06 -9.63947e-06 0 1.60831e-06 -9.80017e-06 0 2.16653e-06 -1.00302e-05 0 2.74403e-06 -1.03218e-05 0 3.34599e-06 -1.06852e-05 0 3.978e-06 -1.11167e-05 0 4.64581e-06 -1.16135e-05 0 5.35571e-06 -1.21905e-05 0 6.11445e-06 -1.28355e-05 0 6.92913e-06 -1.3555e-05 0 7.80774e-06 -1.43544e-05 0 8.7587e-06 -1.52251e-05 0 9.79113e-06 -1.61785e-05 0 1.09152e-05 -1.72082e-05 0 1.21414e-05 -1.83098e-05 0 1.34813e-05 -1.94945e-05 0 1.49473e-05 -2.07454e-05 0 1.65521e-05 -2.20632e-05 0 1.83093e-05 -2.34434e-05 0 2.02326e-05 -2.48705e-05 0 2.23359e-05 -2.63391e-05 0 2.46329e-05 -2.78307e-05 0 2.71365e-05 -2.93276e-05 0 2.98586e-05 -3.08083e-05 0 3.28093e-05 -3.22467e-05 0 3.59964e-05 -3.36123e-05 0 3.94241e-05 -3.48698e-05 0 4.30925e-05 -3.59793e-05 0 4.69952e-05 -3.68957e-05 0 5.11177e-05 -3.75692e-05 0 0 -1.0003e-05 0 4.63172e-07 -1.00419e-05 0 9.30774e-07 -1.01447e-05 0 1.40719e-06 -1.03168e-05 0 1.89708e-06 -1.05633e-05 0 2.40515e-06 -1.0876e-05 0 2.93639e-06 -1.1266e-05 0 3.49618e-06 -1.17296e-05 0 4.09012e-06 -1.22642e-05 0 4.72442e-06 -1.28862e-05 0 5.40579e-06 -1.35825e-05 0 6.14143e-06 -1.4361e-05 0 6.93951e-06 -1.5228e-05 0 7.80876e-06 -1.61747e-05 0 8.75881e-06 -1.72148e-05 0 9.80049e-06 -1.83415e-05 0 1.09453e-05 -1.95511e-05 0 1.22059e-05 -2.08579e-05 0 1.35964e-05 -2.22432e-05 0 1.51311e-05 -2.37097e-05 0 1.6826e-05 -2.52541e-05 0 1.86974e-05 -2.68596e-05 0 2.07622e-05 -2.8523e-05 0 2.30374e-05 -3.02242e-05 0 2.55397e-05 -3.19448e-05 0 2.82852e-05 -3.36627e-05 0 3.12885e-05 -3.53496e-05 0 3.45623e-05 -3.69725e-05 0 3.81164e-05 -3.84924e-05 0 4.19566e-05 -3.98641e-05 0 4.60827e-05 -4.10356e-05 0 5.04858e-05 -4.19471e-05 0 0 -1.043e-05 0 3.91827e-07 -1.04712e-05 0 7.87735e-07 -1.05804e-05 0 1.19177e-06 -1.07631e-05 0 1.60826e-06 -1.1025e-05 0 2.04159e-06 -1.13574e-05 0 2.49645e-06 -1.17725e-05 0 2.97796e-06 -1.22664e-05 0 3.49149e-06 -1.28367e-05 0 4.04306e-06 -1.35016e-05 0 4.63929e-06 -1.42472e-05 0 5.28736e-06 -1.50827e-05 0 5.99551e-06 -1.60156e-05 0 6.77273e-06 -1.70369e-05 0 7.62904e-06 -1.81626e-05 0 8.57592e-06 -1.93865e-05 0 9.62569e-06 -2.07049e-05 0 1.07924e-05 -2.21361e-05 0 1.20915e-05 -2.36599e-05 0 1.35393e-05 -2.52813e-05 0 1.51545e-05 -2.69987e-05 0 1.69559e-05 -2.87941e-05 0 1.89638e-05 -3.06675e-05 0 2.11994e-05 -3.25972e-05 0 2.36832e-05 -3.45645e-05 0 2.64362e-05 -3.65473e-05 0 2.94783e-05 -3.85156e-05 0 3.28281e-05 -4.04345e-05 0 3.65021e-05 -4.22618e-05 0 4.05138e-05 -4.39482e-05 0 4.4872e-05 -4.54347e-05 0 4.95774e-05 -4.66512e-05 0 0 -1.07837e-05 0 3.16516e-07 -1.08271e-05 0 6.36703e-07 -1.0942e-05 0 9.64208e-07 -1.11344e-05 0 1.30295e-06 -1.14104e-05 0 1.65694e-06 -1.17609e-05 0 2.03049e-06 -1.21991e-05 0 2.42836e-06 -1.27212e-05 0 2.85563e-06 -1.33247e-05 0 3.31804e-06 -1.40297e-05 0 3.82199e-06 -1.48218e-05 0 4.37453e-06 -1.57115e-05 0 4.98389e-06 -1.67076e-05 0 5.65917e-06 -1.78009e-05 0 6.41067e-06 -1.90104e-05 0 7.25042e-06 -2.033e-05 0 8.19154e-06 -2.17571e-05 0 9.24923e-06 -2.33138e-05 0 1.04404e-05 -2.49788e-05 0 1.17837e-05 -2.67602e-05 0 1.32999e-05 -2.86586e-05 0 1.50114e-05 -3.06547e-05 0 1.69419e-05 -3.27532e-05 0 1.9117e-05 -3.49306e-05 0 2.15618e-05 -3.71685e-05 0 2.43027e-05 -3.94453e-05 0 2.73652e-05 -4.173e-05 0 3.07745e-05 -4.39863e-05 0 3.45547e-05 -4.61705e-05 0 3.87287e-05 -4.82303e-05 0 4.33171e-05 -5.0102e-05 0 4.83355e-05 -5.17064e-05 0 0 -1.10604e-05 0 2.37786e-07 -1.11057e-05 0 4.7877e-07 -1.12257e-05 0 7.26139e-07 -1.14267e-05 0 9.83338e-07 -1.17152e-05 0 1.25393e-06 -1.20819e-05 0 1.54177e-06 -1.25409e-05 0 1.85119e-06 -1.30883e-05 0 2.18686e-06 -1.37221e-05 0 2.55414e-06 -1.44639e-05 0 2.95912e-06 -1.52989e-05 0 3.40857e-06 -1.62389e-05 0 3.91058e-06 -1.72944e-05 0 4.4742e-06 -1.84562e-05 0 5.10989e-06 -1.97461e-05 0 5.83004e-06 -2.11587e-05 0 6.64843e-06 -2.26924e-05 0 7.58132e-06 -2.43743e-05 0 8.64717e-06 -2.61819e-05 0 9.86647e-06 -2.81267e-05 0 1.1263e-05 -3.02126e-05 0 1.28622e-05 -3.24194e-05 0 1.46919e-05 -3.47572e-05 0 1.67823e-05 -3.72014e-05 0 1.9164e-05 -3.97338e-05 0 2.18688e-05 -4.23346e-05 0 2.49285e-05 -4.49718e-05 0 2.83748e-05 -4.76088e-05 0 3.22399e-05 -5.02018e-05 0 3.6557e-05 -5.26984e-05 0 4.13608e-05 -5.50338e-05 0 4.66874e-05 -5.71245e-05 0 -2.82857e-20 -1.12567e-05 0 1.55539e-07 -1.13036e-05 0 3.13727e-07 -1.1428e-05 0 4.77215e-07 -1.16363e-05 0 6.48893e-07 -1.19355e-05 0 8.31782e-07 -1.23162e-05 0 1.02919e-06 -1.27931e-05 0 1.24492e-06 -1.33627e-05 0 1.48309e-06 -1.4023e-05 0 1.74855e-06 -1.47974e-05 0 2.04691e-06 -1.56708e-05 0 2.38451e-06 -1.66565e-05 0 2.76905e-06 -1.77663e-05 0 3.20934e-06 -1.89915e-05 0 3.71573e-06 -2.03568e-05 0 4.30073e-06 -2.18579e-05 0 4.97852e-06 -2.34944e-05 0 5.76618e-06 -2.52987e-05 0 6.68352e-06 -2.72478e-05 0 7.75295e-06 -2.93574e-05 0 9.00102e-06 -3.16355e-05 0 1.04568e-05 -3.40611e-05 0 1.21524e-05 -3.66513e-05 0 1.41237e-05 -3.93806e-05 0 1.64068e-05 -4.22314e-05 0 1.90401e-05 -4.51863e-05 0 2.20616e-05 -4.82126e-05 0 2.55096e-05 -5.12738e-05 0 2.9423e-05 -5.43275e-05 0 3.38441e-05 -5.73247e-05 0 3.88225e-05 -6.0206e-05 0 4.44192e-05 -6.28933e-05 0 -1.62151e-20 -1.13696e-05 0 7.08822e-08 -1.14178e-05 0 1.43803e-07 -1.15457e-05 0 2.20814e-07 -1.176e-05 0 3.04179e-07 -1.20679e-05 0 3.96303e-07 -1.24599e-05 0 4.99874e-07 -1.29516e-05 0 6.18035e-07 -1.35395e-05 0 7.54287e-07 -1.42221e-05 0 9.12835e-07 -1.50241e-05 0 1.09863e-06 -1.59305e-05 0 1.31742e-06 -1.69557e-05 0 1.57632e-06 -1.81136e-05 0 1.88366e-06 -1.93954e-05 0 2.24942e-06 -2.08293e-05 0 2.68594e-06 -2.24121e-05 0 3.20749e-06 -2.4145e-05 0 3.83169e-06 -2.60666e-05 0 4.57939e-06 -2.81533e-05 0 5.47477e-06 -3.04262e-05 0 6.54713e-06 -3.28981e-05 0 7.82923e-06 -3.55481e-05 0 9.35817e-06 -3.84019e-05 0 1.11757e-05 -4.14333e-05 0 1.33248e-05 -4.46262e-05 0 1.58511e-05 -4.79654e-05 0 1.87991e-05 -5.14172e-05 0 2.22128e-05 -5.49449e-05 0 2.61355e-05 -5.8508e-05 0 3.0615e-05 -6.20636e-05 0 3.57109e-05 -6.55663e-05 0 4.1508e-05 -6.89599e-05 0 0 -1.1397e-05 0 -1.58025e-08 -1.14461e-05 0 -3.0243e-08 -1.15765e-05 0 -4.19337e-08 -1.17951e-05 0 -4.93107e-08 -1.21094e-05 0 -5.06631e-08 -1.25099e-05 0 -4.40182e-08 -1.30127e-05 0 -2.69887e-08 -1.36147e-05 0 3.1758e-09 -1.43145e-05 0 4.98812e-08 -1.51384e-05 0 1.17263e-07 -1.60713e-05 0 2.10258e-07 -1.7129e-05 0 3.35156e-07 -1.83269e-05 0 4.9948e-07 -1.9657e-05 0 7.12511e-07 -2.11506e-05 0 9.85993e-07 -2.28059e-05 0 1.33388e-06 -2.46262e-05 0 1.77382e-06 -2.66565e-05 0 2.32728e-06 -2.88734e-05 0 3.01981e-06 -3.13042e-05 0 3.88323e-06 -3.39679e-05 0 4.95411e-06 -3.68445e-05 0 6.27495e-06 -3.99703e-05 0 7.89463e-06 -4.33192e-05 0 9.86432e-06 -4.68769e-05 0 1.22383e-05 -5.06313e-05 0 1.50691e-05 -5.45458e-05 0 1.84053e-05 -5.8581e-05 0 2.22912e-05 -6.2696e-05 0 2.67712e-05 -6.68547e-05 0 3.19025e-05 -7.10323e-05 0 3.77783e-05 -7.52147e-05 0 0 -1.1337e-05 0 -1.03887e-07 -1.13867e-05 0 -2.07151e-07 -1.15186e-05 0 -3.09132e-07 -1.17398e-05 0 -4.09037e-07 -1.2058e-05 0 -5.05927e-07 -1.24637e-05 0 -5.98634e-07 -1.29735e-05 0 -6.85635e-07 -1.35847e-05 0 -7.65057e-07 -1.42961e-05 0 -8.3445e-07 -1.51353e-05 0 -8.90685e-07 -1.60871e-05 0 -9.29867e-07 -1.71688e-05 0 -9.46842e-07 -1.83974e-05 0 -9.35219e-07 -1.97653e-05 0 -8.86864e-07 -2.13074e-05 0 -7.91146e-07 -2.30232e-05 0 -6.35039e-07 -2.49183e-05 0 -4.01562e-07 -2.70448e-05 0 -6.9357e-08 -2.938e-05 0 3.87805e-07 -3.19583e-05 0 1.00375e-06 -3.48067e-05 0 1.81868e-06 -3.79068e-05 0 2.88094e-06 -4.13088e-05 0 4.24792e-06 -4.4988e-05 0 5.98137e-06 -4.89331e-05 0 8.14768e-06 -5.31353e-05 0 1.08101e-05 -5.75526e-05 0 1.40234e-05 -6.21379e-05 0 1.78284e-05 -6.68421e-05 0 2.22538e-05 -7.16284e-05 0 2.73298e-05 -7.64923e-05 0 3.31211e-05 -8.14766e-05 0 0 -1.11888e-05 0 -1.92545e-07 -1.12386e-05 0 -3.85254e-07 -1.13708e-05 0 -5.78244e-07 -1.15927e-05 0 -7.7155e-07 -1.1912e-05 0 -9.65067e-07 -1.23194e-05 0 -1.1585e-06 -1.2832e-05 0 -1.35129e-06 -1.3447e-05 0 -1.54254e-06 -1.41638e-05 0 -1.7309e-06 -1.50107e-05 0 -1.9144e-06 -1.59731e-05 0 -2.09042e-06 -1.70692e-05 0 -2.25519e-06 -1.83173e-05 0 -2.40381e-06 -1.97108e-05 0 -2.52973e-06 -2.12875e-05 0 -2.62398e-06 -2.30489e-05 0 -2.67513e-06 -2.50026e-05 0 -2.66766e-06 -2.72081e-05 0 -2.58128e-06 -2.96443e-05 0 -2.39003e-06 -3.23537e-05 0 -2.05903e-06 -3.53725e-05 0 -1.545e-06 -3.86864e-05 0 -7.93666e-07 -4.23628e-05 0 2.62272e-07 -4.63809e-05 0 1.69811e-06 -5.07353e-05 0 3.59737e-06 -5.54221e-05 0 6.04037e-06 -6.0391e-05 0 9.09284e-06 -6.55783e-05 0 1.27919e-05 -7.09114e-05 0 1.71382e-05 -7.6333e-05 0 2.2105e-05 -8.18407e-05 0 2.76758e-05 -8.75302e-05 0 0 -1.09521e-05 0 -2.81019e-07 -1.10015e-05 0 -5.63033e-07 -1.11329e-05 0 -8.46986e-07 -1.13535e-05 0 -1.13379e-06 -1.1671e-05 0 -1.42424e-06 -1.20764e-05 0 -1.71898e-06 -1.25868e-05 0 -2.0185e-06 -1.31999e-05 0 -2.32301e-06 -1.39153e-05 0 -2.63236e-06 -1.47619e-05 0 -2.94598e-06 -1.57254e-05 0 -3.26269e-06 -1.6825e-05 0 -3.5805e-06 -1.80802e-05 0 -3.89636e-06 -1.94852e-05 0 -4.20583e-06 -2.10803e-05 0 -4.50236e-06 -2.28689e-05 0 -4.777e-06 -2.4861e-05 0 -5.01693e-06 -2.71233e-05 0 -5.20435e-06 -2.96367e-05 0 -5.31533e-06 -3.24528e-05 0 -5.3158e-06 -3.56191e-05 0 -5.16111e-06 -3.91271e-05 0 -4.79193e-06 -4.30666e-05 0 -4.13006e-06 -4.74252e-05 0 -3.08247e-06 -5.22086e-05 0 -1.53949e-06 -5.74233e-05 0 6.1018e-07 -6.30093e-05 0 3.45972e-06 -6.88756e-05 0 7.05355e-06 -7.49009e-05 0 1.13574e-05 -8.09675e-05 0 1.62488e-05 -8.70297e-05 0 2.15504e-05 -9.31978e-05 0 0 -1.06275e-05 0 -3.68499e-07 -1.06762e-05 0 -7.38853e-07 -1.08054e-05 0 -1.11286e-06 -1.10225e-05 0 -1.49235e-06 -1.13352e-05 0 -1.87905e-06 -1.17346e-05 0 -2.27461e-06 -1.22379e-05 0 -2.68062e-06 -1.2843e-05 0 -3.09845e-06 -1.35497e-05 0 -3.52931e-06 -1.43872e-05 0 -3.97413e-06 -1.53418e-05 0 -4.4334e-06 -1.6433e-05 0 -4.90711e-06 -1.76814e-05 0 -5.39447e-06 -1.90819e-05 0 -5.89363e-06 -2.06767e-05 0 -6.40112e-06 -2.24711e-05 0 -6.91145e-06 -2.44773e-05 0 -7.41572e-06 -2.67681e-05 0 -7.90044e-06 -2.93276e-05 0 -8.34582e-06 -3.22166e-05 0 -8.72146e-06 -3.54952e-05 0 -8.98433e-06 -3.91636e-05 0 -9.07271e-06 -4.33398e-05 0 -8.89861e-06 -4.80272e-05 0 -8.34824e-06 -5.32523e-05 0 -7.27531e-06 -5.90443e-05 0 -5.51638e-06 -6.53404e-05 0 -2.91919e-06 -7.20142e-05 0 6.01441e-07 -7.88608e-05 0 4.99089e-06 -8.56343e-05 0 9.99995e-06 -9.2155e-05 0 1.52017e-05 -9.84624e-05 0 0 -1.02164e-05 0 -4.54189e-07 -1.02638e-05 0 -9.1111e-07 -1.03897e-05 0 -1.37343e-06 -1.06011e-05 0 -1.84391e-06 -1.09059e-05 0 -2.32525e-06 -1.12952e-05 0 -2.82011e-06 -1.17862e-05 0 -3.33123e-06 -1.23769e-05 0 -3.86123e-06 -1.30673e-05 0 -4.41271e-06 -1.38867e-05 0 -4.98821e-06 -1.48215e-05 0 -5.59004e-06 -1.58918e-05 0 -6.22038e-06 -1.71184e-05 0 -6.88099e-06 -1.8497e-05 0 -7.57305e-06 -2.0071e-05 0 -8.29684e-06 -2.18469e-05 0 -9.0512e-06 -2.38389e-05 0 -9.83259e-06 -2.61246e-05 0 -1.06338e-05 -2.86914e-05 0 -1.14419e-05 -3.16088e-05 0 -1.22342e-05 -3.495e-05 0 -1.29741e-05 -3.87269e-05 0 -1.36032e-05 -4.3091e-05 0 -1.40289e-05 -4.80717e-05 0 -1.41178e-05 -5.37321e-05 0 -1.36779e-05 -6.01493e-05 0 -1.24654e-05 -6.72802e-05 0 -1.02144e-05 -7.49723e-05 0 -6.72349e-06 -8.29018e-05 0 -2.00556e-06 -9.05887e-05 0 3.55276e-06 -9.75534e-05 0 9.1543e-06 -0.000103606 0 0 -9.72111e-06 0 -5.37127e-07 -9.76676e-06 0 -1.07786e-06 -9.88798e-06 0 -1.62575e-06 -1.00916e-05 0 -2.18448e-06 -1.03851e-05 0 -2.75771e-06 -1.07603e-05 0 -3.34915e-06 -1.12337e-05 0 -3.96271e-06 -1.18036e-05 0 -4.60224e-06 -1.24701e-05 0 -5.2718e-06 -1.32618e-05 0 -5.97558e-06 -1.41659e-05 0 -6.71781e-06 -1.52022e-05 0 -7.50301e-06 -1.63914e-05 0 -8.33566e-06 -1.77298e-05 0 -9.22032e-06 -1.92607e-05 0 -1.01615e-05 -2.09916e-05 0 -1.11634e-05 -2.2938e-05 0 -1.2229e-05 -2.51796e-05 0 -1.33596e-05 -2.77073e-05 0 -1.45525e-05 -3.05973e-05 0 -1.57978e-05 -3.39344e-05 0 -1.70731e-05 -3.77438e-05 0 -1.83336e-05 -4.22139e-05 0 -1.94951e-05 -4.74113e-05 0 -2.04162e-05 -5.34574e-05 0 -2.08613e-05 -6.05184e-05 0 -2.04787e-05 -6.86284e-05 0 -1.88035e-05 -7.76635e-05 0 -1.53591e-05 -8.71796e-05 0 -9.93151e-06 -9.63149e-05 0 -2.98276e-06 -0.00010397 0 4.10825e-06 -0.00010939 0 -1.00611e-19 -9.14481e-06 0 -6.16487e-07 -9.1882e-06 0 -1.23744e-06 -9.30344e-06 0 -1.86726e-06 -9.49704e-06 0 -2.51057e-06 -9.77622e-06 0 -3.17195e-06 -1.01332e-05 0 -3.85616e-06 -1.05837e-05 0 -4.56823e-06 -1.11263e-05 0 -5.31326e-06 -1.17613e-05 0 -6.09674e-06 -1.2516e-05 0 -6.92452e-06 -1.33784e-05 0 -7.80272e-06 -1.43675e-05 0 -8.73822e-06 -1.55034e-05 0 -9.73831e-06 -1.67829e-05 0 -1.0811e-05 -1.8248e-05 0 -1.19655e-05 -1.99062e-05 0 -1.32115e-05 -2.17734e-05 0 -1.45599e-05 -2.39283e-05 0 -1.6022e-05 -2.63644e-05 0 -1.76086e-05 -2.91608e-05 0 -1.93281e-05 -3.241e-05 0 -2.11812e-05 -3.61493e-05 0 -2.31519e-05 -4.06002e-05 0 -2.51875e-05 -4.58751e-05 0 -2.71694e-05 -5.21748e-05 0 -2.88504e-05 -5.98098e-05 0 -2.97764e-05 -6.89966e-05 0 -2.91981e-05 -7.97985e-05 0 -2.60921e-05 -9.17824e-05 0 -1.95499e-05 -0.000103573 0 -9.77039e-06 -0.000112818 0 9.08221e-07 -0.000117343 0 0 -8.49146e-06 0 -6.91419e-07 -8.53213e-06 0 -1.38814e-06 -8.64015e-06 0 -2.09537e-06 -8.82163e-06 0 -2.81862e-06 -9.08337e-06 0 -3.5634e-06 -9.4181e-06 0 -4.33543e-06 -9.84068e-06 0 -5.14085e-06 -1.03498e-05 0 -5.98594e-06 -1.09458e-05 0 -6.87756e-06 -1.16543e-05 0 -7.82313e-06 -1.24642e-05 0 -8.83058e-06 -1.33933e-05 0 -9.90904e-06 -1.44606e-05 0 -1.10685e-05 -1.56629e-05 0 -1.23204e-05 -1.70396e-05 0 -1.36783e-05 -1.85977e-05 0 -1.51576e-05 -2.03519e-05 0 -1.67772e-05 -2.23764e-05 0 -1.85596e-05 -2.46654e-05 0 -2.05309e-05 -2.72954e-05 0 -2.27224e-05 -3.03588e-05 0 -2.51668e-05 -3.39002e-05 0 -2.78939e-05 -3.81588e-05 0 -3.09152e-05 -4.32891e-05 0 -3.41891e-05 -4.95776e-05 0 -3.75431e-05 -5.75235e-05 0 -4.0522e-05 -6.76705e-05 0 -4.21155e-05 -8.05911e-05 0 -4.04284e-05 -9.63722e-05 0 -3.28043e-05 -0.000113367 0 -1.77841e-05 -0.000126818 0 8.59848e-07 -0.000130526 0 2.27841e-19 -7.76592e-06 0 -7.61086e-07 -7.80342e-06 0 -1.52825e-06 -7.90301e-06 0 -2.30748e-06 -8.07035e-06 0 -3.10512e-06 -8.31174e-06 0 -3.92754e-06 -8.62047e-06 0 -4.78136e-06 -9.01028e-06 0 -5.67375e-06 -9.48001e-06 0 -6.61207e-06 -1.00299e-05 0 -7.60446e-06 -1.06837e-05 0 -8.65976e-06 -1.14309e-05 0 -9.78753e-06 -1.2288e-05 0 -1.09989e-05 -1.32722e-05 0 -1.23063e-05 -1.43802e-05 0 -1.3724e-05 -1.56476e-05 0 -1.52696e-05 -1.70799e-05 0 -1.69637e-05 -1.86895e-05 0 -1.88323e-05 -2.05417e-05 0 -2.09084e-05 -2.26298e-05 0 -2.32334e-05 -2.50205e-05 0 -2.58628e-05 -2.77952e-05 0 -2.88664e-05 -3.09962e-05 0 -3.2333e-05 -3.48498e-05 0 -3.63707e-05 -3.95284e-05 0 -4.10841e-05 -4.53716e-05 0 -4.65223e-05 -5.30441e-05 0 -5.25006e-05 -6.35065e-05 0 -5.81437e-05 -7.82656e-05 0 -6.08152e-05 -9.91513e-05 0 -5.44365e-05 -0.000126229 0 -3.0705e-05 -0.000151589 0 6.87102e-06 -0.000156076 0 1.27876e-19 -6.97381e-06 0 -8.24728e-07 -7.00772e-06 0 -1.65625e-06 -7.09778e-06 0 -2.50128e-06 -7.24911e-06 0 -3.3669e-06 -7.46741e-06 0 -4.26028e-06 -7.74663e-06 0 -5.18887e-06 -8.0992e-06 0 -6.16076e-06 -8.52404e-06 0 -7.18428e-06 -9.02132e-06 0 -8.26867e-06 -9.61246e-06 0 -9.42402e-06 -1.02879e-05 0 -1.06613e-05 -1.10621e-05 0 -1.19932e-05 -1.19503e-05 0 -1.3434e-05 -1.29488e-05 0 -1.50005e-05 -1.40885e-05 0 -1.67132e-05 -1.53727e-05 0 -1.85964e-05 -1.68105e-05 0 -2.06817e-05 -1.84548e-05 0 -2.301e-05 -2.02958e-05 0 -2.56347e-05 -2.23832e-05 0 -2.8632e-05 -2.47757e-05 0 -3.21055e-05 -2.75001e-05 0 -3.62031e-05 -3.07279e-05 0 -4.11423e-05 -3.46007e-05 0 -4.72224e-05 -3.94234e-05 0 -5.4861e-05 -4.58655e-05 0 -6.45464e-05 -5.51262e-05 0 -7.65419e-05 -6.9675e-05 0 -8.94849e-05 -9.45229e-05 0 -9.49106e-05 -0.000137889 0 -6.37474e-05 -0.000199043 0 2.82418e-05 -0.000216521 0 0 -6.12151e-06 0 -8.8164e-07 -6.15145e-06 0 -1.77072e-06 -6.23097e-06 0 -2.67458e-06 -6.36458e-06 0 -3.60102e-06 -6.55733e-06 0 -4.55786e-06 -6.80387e-06 0 -5.5533e-06 -7.11514e-06 0 -6.59624e-06 -7.49017e-06 0 -7.69583e-06 -7.92907e-06 0 -8.86225e-06 -8.45056e-06 0 -1.01066e-05 -9.04607e-06 0 -1.14408e-05 -9.72804e-06 0 -1.2879e-05 -1.05092e-05 0 -1.44367e-05 -1.13857e-05 0 -1.6132e-05 -1.23827e-05 0 -1.79873e-05 -1.35015e-05 0 -2.00288e-05 -1.47469e-05 0 -2.22908e-05 -1.61572e-05 0 -2.4818e-05 -1.77182e-05 0 -2.76696e-05 -1.94575e-05 0 -3.09326e-05 -2.14015e-05 0 -3.47304e-05 -2.3549e-05 0 -3.92499e-05 -2.59759e-05 0 -4.47911e-05 -2.87334e-05 0 -5.18219e-05 -3.19672e-05 0 -6.11391e-05 -3.60572e-05 0 -7.41015e-05 -4.18455e-05 0 -9.31076e-05 -5.15178e-05 0 -0.000122289 -7.13617e-05 0 -0.000166109 -0.000121881 0 -0.000191101 -0.000272469 0 0.000113122 -0.000438557 0 0 -5.21606e-06 0 -9.31184e-07 -5.2417e-06 0 -1.87037e-06 -5.30978e-06 0 -2.82545e-06 -5.42418e-06 0 -3.80481e-06 -5.58919e-06 0 -4.81688e-06 -5.80025e-06 0 -5.87048e-06 -6.06669e-06 0 -6.97517e-06 -6.38764e-06 0 -8.1408e-06 -6.76313e-06 0 -9.37827e-06 -7.20902e-06 0 -1.06994e-05 -7.71779e-06 0 -1.2117e-05 -8.29973e-06 0 -1.36459e-05 -8.96501e-06 0 -1.53022e-05 -9.70973e-06 0 -1.71048e-05 -1.05534e-05 0 -1.90762e-05 -1.14949e-05 0 -2.12427e-05 -1.25351e-05 0 -2.36378e-05 -1.36977e-05 0 -2.6305e-05 -1.49633e-05 0 -2.93009e-05 -1.63368e-05 0 -3.2709e-05 -1.78087e-05 0 -3.66494e-05 -1.9344e-05 0 -4.13086e-05 -2.0901e-05 0 -4.69974e-05 -2.24011e-05 0 -5.42282e-05 -2.37357e-05 0 -6.39405e-05 -2.47345e-05 0 -7.79177e-05 -2.52031e-05 0 -9.98996e-05 -2.49801e-05 0 -0.000138925 -2.43036e-05 0 -0.000222953 -2.59577e-05 0 -0.000495672 -5.85082e-05 0 -0.00241743 -0.0117531 0 </DataArray> 
</PointData> 
<Points> 
<DataArray type="Float32" NumberOfComponents="3"> 