<?xml version="1.0"?> 
<VTKFile type="StructuredGrid" version="0.1"> 
<StructuredGrid WholeExtent="0 31 0 31 0 0"> 
<Piece Extent="0 31 0 31 0 0"> 
<PointData>
<DataArray type="Float32" Name="B" format="ascii" NumberOfComponents="3"> 
-0.014894 -0.0123217 0 -0.0114981 0.000285124 0 -0.011119 5.70382e-05 0 -0.011125 -8.05006e-06 0 -0.0113206 -2.931e-05 0 -0.0115742 -3.41546e-05 0 -0.0118249 -3.20232e-05 0 -0.0120453 -2.70776e-05 0 -0.0122258 -2.13973e-05 0 -0.0123661 -1.61103e-05 0 -0.0124708 -1.1605e-05 0 -0.012546 -8.02707e-06 0 -0.0125981 -5.32088e-06 0 -0.0126327 -3.34715e-06 0 -0.0126544 -1.94412e-06 0 -0.0126666 -9.59718e-07 0 -0.0126719 -2.67169e-07 0 -0.012672 2.35691e-07 0 -0.0126679 6.24607e-07 0 -0.0126603 9.51384e-07 0 -0.0126495 1.2504e-06 0 -0.0126355 1.54247e-06 0 -0.0126183 1.83843e-06 0 -0.0125978 2.14356e-06 0 -0.0125734 2.46148e-06 0 -0.0125445 2.82044e-06 0 -0.0125088 3.30281e-06 0 -0.0124616 4.14185e-06 0 -0.0123907 6.02338e-06 0 -0.0122586 1.16526e-05 0 -0.0118753 4.51494e-05 0 -0.00512275 0.00514061 0 -0.00085829 0.00111348 0 0.000414179 -1.76726e-05 0 0.000433304 4.6985e-06 0 0.000440646 4.27659e-06 0 0.000450904 3.26261e-06 0 0.000462069 2.43695e-06 0 0.000472448 1.78437e-06 0 0.000481235 1.27066e-06 0 0.000488204 8.71719e-07 0 0.000493458 5.8224e-07 0 0.000497246 3.70347e-07 0 0.000499871 2.23392e-07 0 0.000501615 1.2571e-07 0 0.00050272 6.35748e-08 0 0.000503375 2.59307e-08 0 0.000503719 4.37865e-09 0 0.000503849 -7.09992e-09 0 0.000503831 -1.27351e-08 0 0.000503703 -1.52817e-08 0 0.000503489 -1.639e-08 0 0.0005032 -1.69816e-08 0 0.000502838 -1.74656e-08 0 0.000502405 -1.78773e-08 0 0.000501898 -1.7968e-08 0 0.000501317 -1.70671e-08 0 0.000500659 -1.43124e-08 0 0.000499913 -7.93182e-09 0 0.000499039 6.75416e-09 0 0.000497905 4.89251e-08 0 0.000496074 2.41004e-07 0 0.000492166 3.11985e-06 0 -0.000824197 -0.00819166 0 -0.000170598 -0.00442417 0 -3.38826e-05 -2.93109e-05 0 -1.83456e-05 -6.47711e-07 0 -9.00914e-06 2.31192e-06 0 -5.52172e-06 2.16897e-06 0 -4.05728e-06 1.69489e-06 0 -3.41659e-06 1.25326e-06 0 -3.15935e-06 8.93189e-07 0 -3.09096e-06 6.1225e-07 0 -3.11257e-06 4.07357e-07 0 -3.17202e-06 2.58409e-07 0 -3.24075e-06 1.55252e-07 0 -3.3045e-06 8.68725e-08 0 -3.35736e-06 4.36461e-08 0 -3.39805e-06 1.78101e-08 0 -3.42758e-06 3.4627e-09 0 -3.44791e-06 -3.62866e-09 0 -3.46118e-06 -6.44041e-09 0 -3.46932e-06 -6.90884e-09 0 -3.47395e-06 -6.18711e-09 0 -3.47628e-06 -4.91455e-09 0 -3.47724e-06 -3.37587e-09 0 -3.47749e-06 -1.61028e-09 0 -3.47755e-06 5.13962e-10 0 -3.47786e-06 3.48031e-09 0 -3.479e-06 7.98546e-09 0 -3.48193e-06 1.592e-08 0 -3.48827e-06 3.28661e-08 0 -3.49715e-06 7.94693e-08 0 -3.44289e-06 2.45943e-07 0 -2.04756e-06 7.79709e-07 0 -0.000312804 -0.00445492 0 1.00314e-05 -0.00563468 0 -4.62185e-06 -1.81607e-05 0 -1.14395e-05 -4.13024e-06 0 -5.78476e-06 6.74853e-07 0 -2.70238e-06 1.43897e-06 0 -1.19057e-06 1.34703e-06 0 -4.38239e-07 1.08569e-06 0 -7.21484e-08 8.18208e-07 0 8.8185e-08 5.86543e-07 0 1.40333e-07 4.05989e-07 0 1.37061e-07 2.68422e-07 0 1.09305e-07 1.69126e-07 0 7.42101e-08 1.0065e-07 0 4.05115e-08 5.55172e-08 0 1.2014e-08 2.72018e-08 0 -1.02449e-08 1.04525e-08 0 -2.66458e-08 1.33403e-09 0 -3.81791e-08 -3.04179e-09 0 -4.59894e-08 -4.6342e-09 0 -5.1147e-08 -4.6607e-09 0 -5.45519e-08 -3.83675e-09 0 -5.6912e-08 -2.51871e-09 0 -5.87553e-08 -8.05661e-10 0 -6.04534e-08 1.38613e-09 0 -6.22435e-08 4.52377e-09 0 -6.42224e-08 9.29531e-09 0 -6.61158e-08 1.75588e-08 0 -6.57484e-08 3.42458e-08 0 -4.84166e-08 7.30612e-08 0 9.33253e-08 1.47841e-07 0 7.31963e-07 -1.74232e-08 0 -0.000150895 -0.00286541 0 6.94513e-05 -0.00578086 0 2.85315e-06 -8.14935e-06 0 -7.16789e-06 -5.02728e-06 0 -4.97975e-06 -5.10194e-07 0 -2.66851e-06 7.85138e-07 0 -1.31022e-06 1.00509e-06 0 -5.68455e-07 9.09281e-07 0 -1.77122e-07 7.31625e-07 0 1.60044e-08 5.49687e-07 0 9.97221e-08 3.95014e-07 0 1.23529e-07 2.70631e-07 0 1.17446e-07 1.77019e-07 0 9.87447e-08 1.10061e-07 0 7.68586e-08 6.43435e-08 0 5.649e-08 3.45618e-08 0 3.95709e-08 1.61443e-08 0 2.6505e-08 5.49897e-09 0 1.69359e-08 -1.21203e-10 0 1.02013e-08 -2.65018e-09 0 5.58218e-09 -3.3322e-09 0 2.42647e-09 -2.93096e-09 0 2.00447e-10 -1.85575e-09 0 -1.49574e-09 -2.56137e-10 0 -2.92068e-09 1.90255e-09 0 -4.16539e-09 5.03247e-09 0 -5.01013e-09 9.71145e-09 0 -4.36613e-09 1.7414e-08 0 2.22159e-09 3.12625e-08 0 3.42277e-08 5.48518e-08 0 1.69025e-07 5.18946e-08 0 3.11686e-07 -7.30667e-08 0 -8.52022e-05 -0.00200913 0 9.06766e-05 -0.00552473 0 3.74544e-06 -3.02071e-06 0 -3.9249e-06 -4.46186e-06 0 -3.9687e-06 -1.19346e-06 0 -2.49522e-06 2.58675e-07 0 -1.3796e-06 6.91811e-07 0 -6.96865e-07 7.33841e-07 0 -3.06077e-07 6.37871e-07 0 -9.45291e-08 5.03702e-07 0 1.22126e-08 3.75298e-07 0 5.80057e-08 2.65378e-07 0 7.05851e-08 1.7899e-07 0 6.65771e-08 1.15033e-07 0 5.56152e-08 7.00038e-08 0 4.29763e-08 3.97671e-08 0 3.12781e-08 2.04376e-08 0 2.15774e-08 8.8003e-09 0 1.40729e-08 2.29474e-09 0 8.54006e-09 -9.43257e-10 0 4.58861e-09 -2.14858e-09 0 1.8049e-09 -2.10548e-09 0 -1.73654e-10 -1.25708e-09 0 -1.61911e-09 2.06996e-10 0 -2.67858e-09 2.273e-09 0 -3.30882e-09 5.26918e-09 0 -3.03436e-09 9.58935e-09 0 -2.28998e-10 1.61163e-08 0 1.04509e-08 2.57957e-08 0 4.60232e-08 3.41242e-08 0 1.3685e-07 -3.75669e-09 0 1.15874e-07 -2.36299e-08 0 -5.37412e-05 -0.00148846 0 9.78944e-05 -0.00509845 0 3.11457e-06 -7.22375e-07 0 -1.86821e-06 -3.43558e-06 0 -2.95612e-06 -1.46262e-06 0 -2.20373e-06 -1.20162e-07 0 -1.36574e-06 4.24663e-07 0 -7.7478e-07 5.69407e-07 0 -4.04792e-07 5.426e-07 0 -1.86814e-07 4.51865e-07 0 -6.43081e-08 3.48816e-07 0 -9.2959e-10 2.53849e-07 0 2.7656e-08 1.75733e-07 0 3.67874e-08 1.1595e-07 0 3.58889e-08 7.26913e-08 0 3.05467e-08 4.28981e-08 0 2.38897e-08 2.33497e-08 0 1.75154e-08 1.12237e-08 0 1.21069e-08 4.17857e-09 0 7.83567e-09 4.56078e-10 0 4.61652e-09 -1.13821e-09 0 2.26189e-09 -1.38434e-09 0 5.74103e-10 -7.41422e-10 0 -5.95558e-10 5.71274e-10 0 -1.29092e-09 2.49394e-09 0 -1.35953e-09 5.25221e-09 0 -1.62206e-10 9.01668e-09 0 4.12956e-09 1.4022e-08 0 1.64828e-08 1.93416e-08 0 4.78014e-08 1.66005e-08 0 9.58142e-08 -2.53764e-08 0 4.3242e-08 9.32993e-09 0 -3.67876e-05 -0.00114258 0 9.95028e-05 -0.00459706 0 2.33976e-06 2.53106e-07 0 -7.11297e-07 -2.45957e-06 0 -2.08636e-06 -1.45654e-06 0 -1.86165e-06 -3.58561e-07 0 -1.29319e-06 2.12498e-07 0 -8.11609e-07 4.2323e-07 0 -4.77297e-07 4.50434e-07 0 -2.62799e-07 3.97012e-07 0 -1.30905e-07 3.17348e-07 0 -5.39969e-08 2.37151e-07 0 -1.19693e-08 1.67922e-07 0 8.71248e-09 1.13211e-07 0 1.6928e-08 7.26276e-08 0 1.8347e-08 4.40662e-08 0 1.6456e-08 2.4927e-08 0 1.32891e-08 1.27793e-08 0 9.94558e-09 5.52228e-09 0 6.94957e-09 1.53263e-09 0 4.49424e-09 -3.17301e-10 0 2.60249e-09 -7.8134e-10 0 1.23201e-09 -3.18147e-10 0 3.4951e-10 8.34113e-10 0 1.74003e-12 2.57459e-09 0 4.1802e-10 5.02019e-09 0 2.29958e-09 8.11725e-09 0 7.37137e-09 1.15282e-08 0 1.94126e-08 1.31342e-08 0 4.29947e-08 4.43796e-09 0 6.21031e-08 -2.87288e-08 0 1.59412e-08 2.32899e-08 0 -2.68421e-05 -0.000896547 0 9.88112e-05 -0.00406323 0 1.71472e-06 6.30082e-07 0 -1.1808e-07 -1.69546e-06 0 -1.40826e-06 -1.30183e-06 0 -1.5185e-06 -4.80076e-07 0 -1.18412e-06 5.67081e-08 0 -8.16358e-07 2.99717e-07 0 -5.27151e-07 3.6487e-07 0 -3.23735e-07 3.41505e-07 0 -1.87789e-07 2.82458e-07 0 -1.00958e-07 2.16302e-07 0 -4.7889e-08 1.56214e-07 0 -1.72266e-08 1.07225e-07 0 -8.94254e-10 7.00602e-08 0 6.67841e-09 4.34118e-08 0 9.20431e-09 2.52417e-08 0 9.06103e-09 1.34985e-08 0 7.69928e-09 6.33451e-09 0 5.95213e-09 2.28351e-09 0 4.26291e-09 3.06793e-10 0 2.84682e-09 -3.03941e-10 0 1.80487e-09 8.24766e-12 0 1.20881e-09 9.9726e-10 0 1.18054e-09 2.52938e-09 0 1.99168e-09 4.61942e-09 0 4.31101e-09 7.02158e-09 0 9.53509e-09 8.9862e-09 0 1.9954e-08 7.93461e-09 0 3.54896e-08 -2.65182e-09 0 3.87463e-08 -2.4917e-08 0 5.46155e-09 2.69447e-08 0 -2.06492e-05 -0.000711686 0 9.72756e-05 -0.00351715 0 1.26271e-06 7.32837e-07 0 1.66701e-07 -1.14515e-06 0 -9.13122e-07 -1.08776e-06 0 -1.20867e-06 -5.14517e-07 0 -1.06015e-06 -4.71327e-08 0 -7.9941e-07 2.00455e-07 0 -5.58842e-07 2.88143e-07 0 -3.71267e-07 2.87143e-07 0 -2.35262e-07 2.45464e-07 0 -1.41527e-07 1.92231e-07 0 -7.96116e-08 1.41248e-07 0 -4.05178e-08 9.84253e-08 0 -1.71278e-08 6.52688e-08 0 -4.09933e-09 4.11088e-08 0 2.40358e-09 2.43962e-08 0 5.0211e-09 1.34371e-08 0 5.49446e-09 6.64244e-09 0 4.92163e-09 2.71947e-09 0 3.96511e-09 7.36586e-10 0 3.01109e-09 4.76346e-11 0 2.28872e-09 2.38858e-10 0 1.96195e-09 1.06731e-09 0 2.21124e-09 2.3773e-09 0 3.31959e-09 4.09908e-09 0 5.85405e-09 5.84874e-09 0 1.07748e-08 6.65115e-09 0 1.90116e-08 4.03115e-09 0 2.79506e-08 -5.99631e-09 0 2.38836e-08 -1.94155e-08 0 1.13519e-09 2.58768e-08 0 -1.65589e-05 -0.000566328 0 9.55235e-05 -0.00296845 0 9.4336e-07 7.05815e-07 0 2.87247e-07 -7.64552e-07 0 -5.66571e-07 -8.66005e-07 0 -9.45612e-07 -4.89378e-07 0 -9.35308e-07 -1.06296e-07 0 -7.6898e-07 1.25029e-07 0 -5.76551e-07 2.2141e-07 0 -4.07352e-07 2.35177e-07 0 -2.74112e-07 2.07395e-07 0 -1.75906e-07 1.65723e-07 0 -1.07065e-07 1.23601e-07 0 -6.09816e-08 8.72163e-08 0 -3.15712e-08 5.85305e-08 0 -1.3803e-08 3.73387e-08 0 -3.79669e-09 2.25038e-08 0 1.2826e-09 1.26622e-08 0 3.41198e-09 6.48302e-09 0 3.91246e-09 2.85911e-09 0 3.63509e-09 9.80535e-10 0 3.11503e-09 2.77438e-10 0 2.69357e-09 3.77663e-10 0 2.61356e-09 1.05243e-09 0 3.09859e-09 2.13709e-09 0 4.41833e-09 3.50269e-09 0 6.99374e-09 4.69176e-09 0 1.13241e-08 4.67587e-09 0 1.72856e-08 1.40904e-09 0 2.13756e-08 -6.92497e-09 0 1.46552e-08 -1.43228e-08 0 -5.81146e-10 2.27464e-08 0 -1.37893e-05 -0.000447462 0 9.38647e-05 -0.00242156 0 7.21486e-07 6.16234e-07 0 3.27734e-07 -5.04775e-07 0 -3.32188e-07 -6.61162e-07 0 -7.34494e-07 -4.27127e-07 0 -8.20768e-07 -1.29592e-07 0 -7.3273e-07 7.1261e-08 0 -5.84384e-07 1.64746e-07 0 -4.33882e-07 1.86287e-07 0 -3.05026e-07 1.69005e-07 0 -2.04189e-07 1.37442e-07 0 -1.30085e-07 1.03807e-07 0 -7.83672e-08 7.40068e-08 0 -4.39723e-08 5.0141e-08 0 -2.22157e-08 3.23062e-08 0 -9.22607e-09 1.96999e-08 0 -2.02913e-09 1.12593e-08 0 1.5386e-09 5.90785e-09 0 2.98078e-09 2.73202e-09 0 3.3057e-09 1.05515e-09 0 3.17421e-09 3.95413e-10 0 3.0224e-09 4.32982e-10 0 3.1582e-09 9.63762e-10 0 3.83488e-09 1.82807e-09 0 5.29252e-09 2.86691e-09 0 7.78978e-09 3.61325e-09 0 1.14086e-08 3.11674e-09 0 1.53306e-08 -1.30378e-10 0 1.61763e-08 -6.48397e-09 0 9.0284e-09 -1.01935e-08 0 -1.25302e-09 1.88123e-08 0 -1.18789e-05 -0.000346797 0 9.24494e-05 -0.00187815 0 5.69971e-07 4.96078e-07 0 3.32412e-07 -3.26676e-07 0 -1.78647e-07 -4.81158e-07 0 -5.73942e-07 -3.43811e-07 0 -7.23825e-07 -1.25684e-07 0 -6.9686e-07 3.59206e-08 0 -5.85984e-07 1.17375e-07 0 -4.52633e-07 1.40655e-07 0 -3.28697e-07 1.30774e-07 0 -2.26517e-07 1.07924e-07 0 -1.4856e-07 8.23496e-08 0 -9.24763e-08 5.91898e-08 0 -5.4124e-08 4.03996e-08 0 -2.9156e-08 2.62271e-08 0 -1.37404e-08 1.6133e-08 0 -4.80728e-09 9.32612e-09 0 -5.11751e-11 4.97845e-09 0 2.17518e-09 2.37557e-09 0 3.00575e-09 9.828e-10 0 3.2028e-09 4.15794e-10 0 3.27897e-09 4.16071e-10 0 3.59347e-09 8.13766e-10 0 4.41842e-09 1.46779e-09 0 5.95712e-09 2.21833e-09 0 8.31351e-09 2.64462e-09 0 1.12324e-08 1.95937e-09 0 1.3508e-08 -8.41514e-10 0 1.23388e-08 -5.35051e-09 0 5.64169e-09 -6.99365e-09 0 -1.49323e-09 1.46221e-08 0 -1.05613e-05 -0.00025874 0 9.1351e-05 -0.00133842 0 4.6992e-07 3.60958e-07 0 3.24102e-07 -2.0167e-07 0 -8.20362e-08 -3.2496e-07 0 -4.59547e-07 -2.49773e-07 0 -6.48749e-07 -1.02345e-07 0 -6.66094e-07 1.5174e-08 0 -5.84412e-07 7.78552e-08 0 -4.65189e-07 9.80214e-08 0 -3.45791e-07 9.29422e-08 0 -2.43067e-07 7.75826e-08 0 -1.62444e-07 5.96596e-08 0 -1.03173e-07 4.31428e-08 0 -6.18724e-08 2.96069e-08 0 -3.4485e-08 1.93259e-08 0 -1.72272e-08 1.19618e-08 0 -6.96725e-09 6.97012e-09 0 -1.29763e-09 3.76476e-09 0 1.53508e-09 1.83376e-09 0 2.75902e-09 7.9086e-10 0 3.21296e-09 3.56436e-10 0 3.46731e-09 3.40568e-10 0 3.91913e-09 6.157e-10 0 4.85147e-09 1.07142e-09 0 6.43197e-09 1.57305e-09 0 8.63532e-09 1.78983e-09 0 1.09611e-08 1.14323e-09 0 1.20286e-08 -9.68621e-10 0 9.69135e-09 -3.91217e-09 0 3.64445e-09 -4.51394e-09 0 -1.55979e-09 1.03972e-08 0 -9.67741e-06 -0.000179308 0 9.06048e-05 -0.000801731 0 4.09108e-07 2.18659e-07 0 3.14214e-07 -1.09322e-07 0 -2.58993e-08 -1.87296e-07 0 -3.86461e-07 -1.50985e-07 0 -5.97804e-07 -6.62009e-08 0 -6.43789e-07 4.91117e-09 0 -5.82025e-07 4.4259e-08 0 -4.72822e-07 5.77835e-08 0 -3.56864e-07 5.55471e-08 0 -2.54006e-07 4.67311e-08 0 -1.71715e-07 3.6124e-08 0 -1.10362e-07 2.62289e-08 0 -6.71058e-08 1.8064e-08 0 -3.80995e-08 1.18332e-08 0 -1.9602e-08 7.35354e-09 0 -8.44507e-09 4.30661e-09 0 -2.15536e-09 2.3433e-09 0 1.09065e-09 1.15578e-09 0 2.58384e-09 5.10637e-10 0 3.21422e-09 2.38053e-10 0 3.5909e-09 2.21943e-10 0 4.13582e-09 3.83199e-10 0 5.13764e-09 6.51549e-10 0 6.73628e-09 9.37665e-10 0 8.81449e-09 1.0313e-09 0 1.07157e-08 5.81876e-10 0 1.10019e-08 -7.19105e-10 0 8.04549e-09 -2.36443e-09 0 2.53547e-09 -2.52316e-09 0 -1.56537e-09 6.21002e-09 0 -9.132e-06 -0.000105482 0 9.02271e-05 -0.000267017 0 3.80289e-07 7.31839e-08 0 3.08166e-07 -3.4589e-08 0 -1.36035e-10 -6.11385e-08 0 -3.50834e-07 -5.04614e-08 0 -5.72042e-07 -2.28415e-08 0 -6.32074e-07 9.38812e-10 0 -5.80419e-07 1.43381e-08 0 -4.76421e-07 1.90845e-08 0 -3.62316e-07 1.84762e-08 0 -2.59462e-07 1.56056e-08 0 -1.76368e-07 1.20953e-08 0 -1.13985e-07 8.79992e-09 0 -6.97507e-08 6.07127e-09 0 -3.99308e-08 3.9841e-09 0 -2.08082e-08 2.4807e-09 0 -9.19774e-09 1.45641e-09 0 -2.59367e-09 7.95269e-10 0 8.62363e-10 3.94592e-10 0 2.49271e-09 1.76291e-10 0 3.21315e-09 8.34253e-11 0 3.65225e-09 7.694e-11 0 4.2443e-09 1.30029e-10 0 5.28027e-09 2.18581e-10 0 6.88491e-09 3.11367e-10 0 8.89332e-09 3.36376e-10 0 1.05736e-08 1.76498e-10 0 1.04775e-08 -2.61739e-10 0 7.25763e-09 -7.89245e-10 0 2.04003e-09 -8.11016e-10 0 -1.55887e-09 2.06447e-09 0 -8.87076e-06 -3.48196e-05 0 9.02271e-05 0.000267017 0 3.80289e-07 -7.31839e-08 0 3.08166e-07 3.4589e-08 0 -1.36035e-10 6.11385e-08 0 -3.50834e-07 5.04614e-08 0 -5.72042e-07 2.28415e-08 0 -6.32074e-07 -9.38812e-10 0 -5.80419e-07 -1.43381e-08 0 -4.76421e-07 -1.90845e-08 0 -3.62316e-07 -1.84762e-08 0 -2.59462e-07 -1.56056e-08 0 -1.76368e-07 -1.20953e-08 0 -1.13985e-07 -8.79992e-09 0 -6.97507e-08 -6.07127e-09 0 -3.99308e-08 -3.9841e-09 0 -2.08082e-08 -2.4807e-09 0 -9.19774e-09 -1.45641e-09 0 -2.59367e-09 -7.95269e-10 0 8.62363e-10 -3.94592e-10 0 2.49271e-09 -1.76291e-10 0 3.21315e-09 -8.34253e-11 0 3.65225e-09 -7.694e-11 0 4.2443e-09 -1.30029e-10 0 5.28027e-09 -2.18581e-10 0 6.88491e-09 -3.11367e-10 0 8.89332e-09 -3.36376e-10 0 1.05736e-08 -1.76498e-10 0 1.04775e-08 2.61739e-10 0 7.25763e-09 7.89244e-10 0 2.04003e-09 8.11016e-10 0 -1.55887e-09 -2.06447e-09 0 -8.87076e-06 3.48196e-05 0 9.06048e-05 0.000801731 0 4.09108e-07 -2.18659e-07 0 3.14214e-07 1.09322e-07 0 -2.58993e-08 1.87296e-07 0 -3.86461e-07 1.50985e-07 0 -5.97804e-07 6.62009e-08 0 -6.43789e-07 -4.91117e-09 0 -5.82025e-07 -4.4259e-08 0 -4.72822e-07 -5.77835e-08 0 -3.56864e-07 -5.55471e-08 0 -2.54006e-07 -4.67311e-08 0 -1.71715e-07 -3.6124e-08 0 -1.10362e-07 -2.62289e-08 0 -6.71058e-08 -1.8064e-08 0 -3.80995e-08 -1.18332e-08 0 -1.9602e-08 -7.35354e-09 0 -8.44507e-09 -4.30662e-09 0 -2.15536e-09 -2.3433e-09 0 1.09065e-09 -1.15578e-09 0 2.58384e-09 -5.10637e-10 0 3.21422e-09 -2.38053e-10 0 3.5909e-09 -2.21943e-10 0 4.13582e-09 -3.83199e-10 0 5.13764e-09 -6.51549e-10 0 6.73628e-09 -9.37665e-10 0 8.81449e-09 -1.0313e-09 0 1.07157e-08 -5.81876e-10 0 1.10019e-08 7.19105e-10 0 8.04549e-09 2.36443e-09 0 2.53547e-09 2.52316e-09 0 -1.56536e-09 -6.21002e-09 0 -9.132e-06 0.000105482 0 9.1351e-05 0.00133842 0 4.6992e-07 -3.60958e-07 0 3.24102e-07 2.0167e-07 0 -8.20362e-08 3.2496e-07 0 -4.59547e-07 2.49773e-07 0 -6.48749e-07 1.02345e-07 0 -6.66094e-07 -1.5174e-08 0 -5.84412e-07 -7.78552e-08 0 -4.65189e-07 -9.80214e-08 0 -3.45791e-07 -9.29422e-08 0 -2.43067e-07 -7.75826e-08 0 -1.62444e-07 -5.96596e-08 0 -1.03173e-07 -4.31428e-08 0 -6.18724e-08 -2.96069e-08 0 -3.4485e-08 -1.93259e-08 0 -1.72272e-08 -1.19618e-08 0 -6.96725e-09 -6.97012e-09 0 -1.29763e-09 -3.76476e-09 0 1.53508e-09 -1.83376e-09 0 2.75902e-09 -7.9086e-10 0 3.21296e-09 -3.56436e-10 0 3.46731e-09 -3.40568e-10 0 3.91913e-09 -6.157e-10 0 4.85147e-09 -1.07142e-09 0 6.43197e-09 -1.57305e-09 0 8.63533e-09 -1.78983e-09 0 1.09611e-08 -1.14323e-09 0 1.20286e-08 9.68622e-10 0 9.69135e-09 3.91217e-09 0 3.64445e-09 4.51394e-09 0 -1.55979e-09 -1.03972e-08 0 -9.67741e-06 0.000179308 0 9.24494e-05 0.00187815 0 5.69971e-07 -4.96078e-07 0 3.32412e-07 3.26676e-07 0 -1.78647e-07 4.81158e-07 0 -5.73942e-07 3.43811e-07 0 -7.23825e-07 1.25684e-07 0 -6.9686e-07 -3.59206e-08 0 -5.85984e-07 -1.17375e-07 0 -4.52633e-07 -1.40655e-07 0 -3.28697e-07 -1.30774e-07 0 -2.26517e-07 -1.07924e-07 0 -1.4856e-07 -8.23496e-08 0 -9.24763e-08 -5.91898e-08 0 -5.4124e-08 -4.03996e-08 0 -2.9156e-08 -2.62271e-08 0 -1.37404e-08 -1.6133e-08 0 -4.80728e-09 -9.32612e-09 0 -5.11751e-11 -4.97845e-09 0 2.17518e-09 -2.37557e-09 0 3.00575e-09 -9.828e-10 0 3.2028e-09 -4.15794e-10 0 3.27897e-09 -4.16071e-10 0 3.59347e-09 -8.13766e-10 0 4.41842e-09 -1.46779e-09 0 5.95712e-09 -2.21833e-09 0 8.31351e-09 -2.64462e-09 0 1.12324e-08 -1.95937e-09 0 1.3508e-08 8.41513e-10 0 1.23388e-08 5.35051e-09 0 5.64169e-09 6.99365e-09 0 -1.49323e-09 -1.46221e-08 0 -1.05613e-05 0.00025874 0 9.38647e-05 0.00242156 0 7.21486e-07 -6.16234e-07 0 3.27734e-07 5.04775e-07 0 -3.32188e-07 6.61162e-07 0 -7.34494e-07 4.27127e-07 0 -8.20768e-07 1.29592e-07 0 -7.3273e-07 -7.1261e-08 0 -5.84384e-07 -1.64746e-07 0 -4.33882e-07 -1.86287e-07 0 -3.05026e-07 -1.69005e-07 0 -2.04189e-07 -1.37442e-07 0 -1.30085e-07 -1.03807e-07 0 -7.83672e-08 -7.40068e-08 0 -4.39723e-08 -5.0141e-08 0 -2.22157e-08 -3.23062e-08 0 -9.22607e-09 -1.96999e-08 0 -2.02913e-09 -1.12593e-08 0 1.5386e-09 -5.90785e-09 0 2.98078e-09 -2.73202e-09 0 3.3057e-09 -1.05515e-09 0 3.17421e-09 -3.95413e-10 0 3.0224e-09 -4.32982e-10 0 3.1582e-09 -9.63762e-10 0 3.83488e-09 -1.82807e-09 0 5.29252e-09 -2.86691e-09 0 7.78978e-09 -3.61325e-09 0 1.14086e-08 -3.11674e-09 0 1.53306e-08 1.30378e-10 0 1.61763e-08 6.48397e-09 0 9.0284e-09 1.01935e-08 0 -1.25302e-09 -1.88123e-08 0 -1.18789e-05 0.000346797 0 9.55235e-05 0.00296845 0 9.4336e-07 -7.05815e-07 0 2.87247e-07 7.64552e-07 0 -5.66571e-07 8.66005e-07 0 -9.45612e-07 4.89378e-07 0 -9.35308e-07 1.06296e-07 0 -7.6898e-07 -1.25029e-07 0 -5.76551e-07 -2.2141e-07 0 -4.07352e-07 -2.35177e-07 0 -2.74112e-07 -2.07395e-07 0 -1.75906e-07 -1.65723e-07 0 -1.07065e-07 -1.23601e-07 0 -6.09816e-08 -8.72163e-08 0 -3.15712e-08 -5.85305e-08 0 -1.3803e-08 -3.73387e-08 0 -3.79669e-09 -2.25038e-08 0 1.2826e-09 -1.26622e-08 0 3.41198e-09 -6.48302e-09 0 3.91246e-09 -2.85911e-09 0 3.63509e-09 -9.80535e-10 0 3.11503e-09 -2.77438e-10 0 2.69357e-09 -3.77663e-10 0 2.61356e-09 -1.05243e-09 0 3.09859e-09 -2.13709e-09 0 4.41833e-09 -3.50269e-09 0 6.99374e-09 -4.69176e-09 0 1.13241e-08 -4.67587e-09 0 1.72856e-08 -1.40904e-09 0 2.13756e-08 6.92497e-09 0 1.46552e-08 1.43228e-08 0 -5.81146e-10 -2.27464e-08 0 -1.37893e-05 0.000447462 0 9.72756e-05 0.00351715 0 1.26271e-06 -7.32837e-07 0 1.66701e-07 1.14515e-06 0 -9.13122e-07 1.08776e-06 0 -1.20867e-06 5.14517e-07 0 -1.06015e-06 4.71327e-08 0 -7.9941e-07 -2.00455e-07 0 -5.58842e-07 -2.88143e-07 0 -3.71267e-07 -2.87143e-07 0 -2.35262e-07 -2.45464e-07 0 -1.41527e-07 -1.92231e-07 0 -7.96116e-08 -1.41248e-07 0 -4.05178e-08 -9.84253e-08 0 -1.71278e-08 -6.52688e-08 0 -4.09933e-09 -4.11088e-08 0 2.40358e-09 -2.43962e-08 0 5.0211e-09 -1.34371e-08 0 5.49446e-09 -6.64244e-09 0 4.92163e-09 -2.71947e-09 0 3.96511e-09 -7.36586e-10 0 3.01109e-09 -4.76346e-11 0 2.28872e-09 -2.38858e-10 0 1.96195e-09 -1.06731e-09 0 2.21124e-09 -2.3773e-09 0 3.31959e-09 -4.09908e-09 0 5.85405e-09 -5.84874e-09 0 1.07748e-08 -6.65115e-09 0 1.90116e-08 -4.03115e-09 0 2.79506e-08 5.99631e-09 0 2.38836e-08 1.94155e-08 0 1.13519e-09 -2.58768e-08 0 -1.65589e-05 0.000566328 0 9.88112e-05 0.00406323 0 1.71472e-06 -6.30082e-07 0 -1.1808e-07 1.69546e-06 0 -1.40826e-06 1.30183e-06 0 -1.5185e-06 4.80076e-07 0 -1.18412e-06 -5.67081e-08 0 -8.16358e-07 -2.99717e-07 0 -5.27151e-07 -3.6487e-07 0 -3.23735e-07 -3.41505e-07 0 -1.87789e-07 -2.82458e-07 0 -1.00958e-07 -2.16302e-07 0 -4.7889e-08 -1.56214e-07 0 -1.72266e-08 -1.07225e-07 0 -8.94254e-10 -7.00602e-08 0 6.67841e-09 -4.34118e-08 0 9.20431e-09 -2.52417e-08 0 9.06103e-09 -1.34985e-08 0 7.69928e-09 -6.33451e-09 0 5.95213e-09 -2.28351e-09 0 4.26291e-09 -3.06793e-10 0 2.84682e-09 3.03941e-10 0 1.80487e-09 -8.24772e-12 0 1.20881e-09 -9.9726e-10 0 1.18054e-09 -2.52938e-09 0 1.99168e-09 -4.61942e-09 0 4.31101e-09 -7.02158e-09 0 9.53509e-09 -8.9862e-09 0 1.9954e-08 -7.93461e-09 0 3.54896e-08 2.65182e-09 0 3.87463e-08 2.4917e-08 0 5.46155e-09 -2.69447e-08 0 -2.06492e-05 0.000711686 0 9.95028e-05 0.00459706 0 2.33976e-06 -2.53106e-07 0 -7.11297e-07 2.45957e-06 0 -2.08636e-06 1.45654e-06 0 -1.86165e-06 3.58561e-07 0 -1.29319e-06 -2.12498e-07 0 -8.11609e-07 -4.2323e-07 0 -4.77297e-07 -4.50434e-07 0 -2.62799e-07 -3.97012e-07 0 -1.30905e-07 -3.17348e-07 0 -5.39969e-08 -2.37151e-07 0 -1.19693e-08 -1.67922e-07 0 8.71248e-09 -1.13211e-07 0 1.6928e-08 -7.26276e-08 0 1.8347e-08 -4.40662e-08 0 1.6456e-08 -2.4927e-08 0 1.32891e-08 -1.27793e-08 0 9.94558e-09 -5.52228e-09 0 6.94957e-09 -1.53263e-09 0 4.49424e-09 3.17301e-10 0 2.60249e-09 7.8134e-10 0 1.23201e-09 3.18147e-10 0 3.49511e-10 -8.34113e-10 0 1.74024e-12 -2.57459e-09 0 4.1802e-10 -5.02019e-09 0 2.29958e-09 -8.11725e-09 0 7.37137e-09 -1.15282e-08 0 1.94126e-08 -1.31342e-08 0 4.29947e-08 -4.43796e-09 0 6.21031e-08 2.87288e-08 0 1.59412e-08 -2.32899e-08 0 -2.68421e-05 0.000896547 0 9.78944e-05 0.00509845 0 3.11457e-06 7.22375e-07 0 -1.86821e-06 3.43558e-06 0 -2.95612e-06 1.46262e-06 0 -2.20373e-06 1.20162e-07 0 -1.36574e-06 -4.24663e-07 0 -7.7478e-07 -5.69407e-07 0 -4.04792e-07 -5.426e-07 0 -1.86814e-07 -4.51865e-07 0 -6.43081e-08 -3.48816e-07 0 -9.2959e-10 -2.53849e-07 0 2.7656e-08 -1.75733e-07 0 3.67874e-08 -1.1595e-07 0 3.58889e-08 -7.26913e-08 0 3.05467e-08 -4.28981e-08 0 2.38897e-08 -2.33497e-08 0 1.75154e-08 -1.12237e-08 0 1.21069e-08 -4.17857e-09 0 7.83567e-09 -4.56078e-10 0 4.61652e-09 1.13821e-09 0 2.26189e-09 1.38434e-09 0 5.74103e-10 7.41422e-10 0 -5.95559e-10 -5.71274e-10 0 -1.29092e-09 -2.49394e-09 0 -1.35953e-09 -5.25221e-09 0 -1.62206e-10 -9.01668e-09 0 4.12956e-09 -1.4022e-08 0 1.64828e-08 -1.93416e-08 0 4.78014e-08 -1.66005e-08 0 9.58142e-08 2.53764e-08 0 4.3242e-08 -9.32993e-09 0 -3.67876e-05 0.00114258 0 9.06766e-05 0.00552473 0 3.74544e-06 3.02071e-06 0 -3.9249e-06 4.46186e-06 0 -3.9687e-06 1.19346e-06 0 -2.49522e-06 -2.58675e-07 0 -1.3796e-06 -6.91811e-07 0 -6.96865e-07 -7.33841e-07 0 -3.06077e-07 -6.37871e-07 0 -9.45291e-08 -5.03702e-07 0 1.22126e-08 -3.75298e-07 0 5.80057e-08 -2.65378e-07 0 7.05851e-08 -1.7899e-07 0 6.65771e-08 -1.15033e-07 0 5.56152e-08 -7.00038e-08 0 4.29763e-08 -3.97671e-08 0 3.12781e-08 -2.04376e-08 0 2.15774e-08 -8.8003e-09 0 1.40729e-08 -2.29474e-09 0 8.54006e-09 9.43257e-10 0 4.58861e-09 2.14858e-09 0 1.8049e-09 2.10548e-09 0 -1.73655e-10 1.25708e-09 0 -1.61911e-09 -2.06995e-10 0 -2.67858e-09 -2.273e-09 0 -3.30882e-09 -5.26918e-09 0 -3.03436e-09 -9.58935e-09 0 -2.28999e-10 -1.61163e-08 0 1.04509e-08 -2.57957e-08 0 4.60232e-08 -3.41242e-08 0 1.3685e-07 3.75669e-09 0 1.15874e-07 2.36299e-08 0 -5.37412e-05 0.00148846 0 6.94513e-05 0.00578086 0 2.85315e-06 8.14935e-06 0 -7.16789e-06 5.02728e-06 0 -4.97975e-06 5.10194e-07 0 -2.66851e-06 -7.85138e-07 0 -1.31022e-06 -1.00509e-06 0 -5.68455e-07 -9.09281e-07 0 -1.77122e-07 -7.31625e-07 0 1.60044e-08 -5.49687e-07 0 9.97221e-08 -3.95014e-07 0 1.23529e-07 -2.70631e-07 0 1.17446e-07 -1.77019e-07 0 9.87447e-08 -1.10061e-07 0 7.68586e-08 -6.43435e-08 0 5.649e-08 -3.45618e-08 0 3.95709e-08 -1.61443e-08 0 2.6505e-08 -5.49897e-09 0 1.69359e-08 1.21203e-10 0 1.02013e-08 2.65018e-09 0 5.58218e-09 3.3322e-09 0 2.42647e-09 2.93096e-09 0 2.00446e-10 1.85575e-09 0 -1.49574e-09 2.56137e-10 0 -2.92068e-09 -1.90255e-09 0 -4.16539e-09 -5.03247e-09 0 -5.01013e-09 -9.71145e-09 0 -4.36613e-09 -1.7414e-08 0 2.22159e-09 -3.12625e-08 0 3.42277e-08 -5.48518e-08 0 1.69025e-07 -5.18946e-08 0 3.11686e-07 7.30667e-08 0 -8.52022e-05 0.00200913 0 1.00314e-05 0.00563468 0 -4.62185e-06 1.81607e-05 0 -1.14395e-05 4.13024e-06 0 -5.78476e-06 -6.74853e-07 0 -2.70238e-06 -1.43897e-06 0 -1.19057e-06 -1.34703e-06 0 -4.38239e-07 -1.08569e-06 0 -7.21484e-08 -8.18208e-07 0 8.8185e-08 -5.86543e-07 0 1.40333e-07 -4.05989e-07 0 1.37061e-07 -2.68422e-07 0 1.09305e-07 -1.69126e-07 0 7.42101e-08 -1.0065e-07 0 4.05115e-08 -5.55172e-08 0 1.2014e-08 -2.72018e-08 0 -1.02449e-08 -1.04525e-08 0 -2.66458e-08 -1.33403e-09 0 -3.81791e-08 3.04179e-09 0 -4.59894e-08 4.6342e-09 0 -5.1147e-08 4.6607e-09 0 -5.45519e-08 3.83675e-09 0 -5.6912e-08 2.51871e-09 0 -5.87553e-08 8.05661e-10 0 -6.04534e-08 -1.38613e-09 0 -6.22435e-08 -4.52377e-09 0 -6.42224e-08 -9.29531e-09 0 -6.61158e-08 -1.75588e-08 0 -6.57484e-08 -3.42458e-08 0 -4.84166e-08 -7.30612e-08 0 9.33253e-08 -1.47841e-07 0 7.31963e-07 1.74232e-08 0 -0.000150895 0.00286541 0 -0.000170598 0.00442417 0 -3.38826e-05 2.93109e-05 0 -1.83456e-05 6.47711e-07 0 -9.00914e-06 -2.31192e-06 0 -5.52172e-06 -2.16897e-06 0 -4.05728e-06 -1.69489e-06 0 -3.41659e-06 -1.25326e-06 0 -3.15935e-06 -8.93189e-07 0 -3.09096e-06 -6.1225e-07 0 -3.11257e-06 -4.07357e-07 0 -3.17202e-06 -2.58409e-07 0 -3.24075e-06 -1.55252e-07 0 -3.3045e-06 -8.68725e-08 0 -3.35736e-06 -4.36461e-08 0 -3.39805e-06 -1.78101e-08 0 -3.42758e-06 -3.4627e-09 0 -3.44791e-06 3.62866e-09 0 -3.46118e-06 6.44041e-09 0 -3.46932e-06 6.90884e-09 0 -3.47395e-06 6.18711e-09 0 -3.47628e-06 4.91455e-09 0 -3.47724e-06 3.37587e-09 0 -3.47749e-06 1.61028e-09 0 -3.47755e-06 -5.13962e-10 0 -3.47786e-06 -3.48031e-09 0 -3.479e-06 -7.98546e-09 0 -3.48193e-06 -1.592e-08 0 -3.48827e-06 -3.28661e-08 0 -3.49715e-06 -7.94693e-08 0 -3.44289e-06 -2.45943e-07 0 -2.04756e-06 -7.79709e-07 0 -0.000312804 0.00445492 0 -0.00085829 -0.00111348 0 0.000414179 1.76726e-05 0 0.000433304 -4.6985e-06 0 0.000440646 -4.27659e-06 0 0.000450904 -3.26261e-06 0 0.000462069 -2.43695e-06 0 0.000472448 -1.78437e-06 0 0.000481235 -1.27066e-06 0 0.000488204 -8.71719e-07 0 0.000493458 -5.8224e-07 0 0.000497246 -3.70347e-07 0 0.000499871 -2.23392e-07 0 0.000501615 -1.2571e-07 0 0.00050272 -6.35748e-08 0 0.000503375 -2.59307e-08 0 0.000503719 -4.37865e-09 0 0.000503849 7.09992e-09 0 0.000503831 1.27351e-08 0 0.000503703 1.52817e-08 0 0.000503489 1.639e-08 0 0.0005032 1.69816e-08 0 0.000502838 1.74656e-08 0 0.000502405 1.78773e-08 0 0.000501898 1.7968e-08 0 0.000501317 1.70671e-08 0 0.000500659 1.43124e-08 0 0.000499913 7.93182e-09 0 0.000499039 -6.75416e-09 0 0.000497905 -4.89251e-08 0 0.000496074 -2.41004e-07 0 0.000492166 -3.11985e-06 0 -0.000824197 0.00819166 0 -0.014894 0.0123217 0 -0.0114981 -0.000285124 0 -0.011119 -5.70382e-05 0 -0.011125 8.05006e-06 0 -0.0113206 2.931e-05 0 -0.0115742 3.41546e-05 0 -0.0118249 3.20232e-05 0 -0.0120453 2.70776e-05 0 -0.0122258 2.13973e-05 0 -0.0123661 1.61103e-05 0 -0.0124708 1.1605e-05 0 -0.012546 8.02707e-06 0 -0.0125981 5.32088e-06 0 -0.0126327 3.34715e-06 0 -0.0126544 1.94412e-06 0 -0.0126666 9.59718e-07 0 -0.0126719 2.67169e-07 0 -0.012672 -2.35691e-07 0 -0.0126679 -6.24607e-07 0 -0.0126603 -9.51384e-07 0 -0.0126495 -1.2504e-06 0 -0.0126355 -1.54247e-06 0 -0.0126183 -1.83843e-06 0 -0.0125978 -2.14356e-06 0 -0.0125734 -2.46148e-06 0 -0.0125445 -2.82044e-06 0 -0.0125088 -3.30281e-06 0 -0.0124616 -4.14185e-06 0 -0.0123907 -6.02338e-06 0 -0.0122586 -1.16526e-05 0 -0.0118753 -4.51494e-05 0 -0.00512275 -0.00514061 0 </DataArray> 
</PointData> 
<Points> 
<DataArray type="Float32" NumberOfComponents="3"> 