<?xml version="1.0"?> 
<VTKFile type="StructuredGrid" version="0.1"> 
<StructuredGrid WholeExtent="0 31 0 31 0 0"> 
<Piece Extent="0 31 0 31 0 0"> 
<PointData>
<DataArray type="Float32" Name="B" format="ascii" NumberOfComponents="3"> 
0 -0 0 -5.82408e-07 -0 0 -1.16858e-06 -0 0 -1.7622e-06 -0 0 -2.36709e-06 -0 0 -2.98702e-06 -0 0 -3.62575e-06 -0 0 -4.28719e-06 -0 0 -4.97512e-06 -0 0 -5.69347e-06 -0 0 -6.44615e-06 -0 0 -7.23699e-06 -0 0 -8.06992e-06 -0 0 -8.94874e-06 -0 0 -9.87715e-06 -0 0 -1.08588e-05 -0 0 -1.18971e-05 -0 0 -1.29952e-05 -0 0 -1.41559e-05 -0 0 -1.53817e-05 -0 0 -1.66744e-05 -0 0 -1.80353e-05 -0 0 -1.94648e-05 -0 0 -2.09624e-05 -0 0 -2.25268e-05 -0 0 -2.41552e-05 -0 0 -2.58436e-05 -0 0 -2.75866e-05 -0 0 -2.9377e-05 -0 0 -3.12062e-05 -0 0 -3.30638e-05 -0 0 -3.49378e-05 -0 0 -1.38065e-21 5.80848e-07 0 -5.80308e-07 5.82947e-07 0 -1.16438e-06 5.88507e-07 0 -1.75588e-06 5.97793e-07 0 -2.35865e-06 6.1106e-07 0 -2.97644e-06 6.27835e-07 0 -3.61301e-06 6.48665e-07 0 -4.27228e-06 6.73296e-07 0 -4.95804e-06 7.01531e-07 0 -5.6742e-06 7.34118e-07 0 -6.42469e-06 7.70313e-07 0 -7.21334e-06 8.10395e-07 0 -8.04412e-06 8.54526e-07 0 -8.92084e-06 9.02167e-07 0 -9.84721e-06 9.53743e-07 0 -1.0827e-05 1.00878e-06 0 -1.18634e-05 1.06694e-06 0 -1.29599e-05 1.12847e-06 0 -1.41193e-05 1.19245e-06 0 -1.5344e-05 1.25862e-06 0 -1.6636e-05 1.32647e-06 0 -1.79966e-05 1.39516e-06 0 -1.94263e-05 1.46392e-06 0 -2.09248e-05 1.53177e-06 0 -2.24907e-05 1.59764e-06 0 -2.41213e-05 1.66017e-06 0 -2.58128e-05 1.71801e-06 0 -2.75597e-05 1.76963e-06 0 -2.9355e-05 1.81338e-06 0 -3.119e-05 1.84761e-06 0 -3.30544e-05 1.87063e-06 0 -3.49361e-05 1.88077e-06 0 -1.8087e-21 1.15794e-06 0 -5.74754e-07 1.16213e-06 0 -1.15326e-06 1.17324e-06 0 -1.73917e-06 1.19179e-06 0 -2.33632e-06 1.2183e-06 0 -2.94845e-06 1.25182e-06 0 -3.57932e-06 1.29346e-06 0 -4.23285e-06 1.34269e-06 0 -4.91282e-06 1.39914e-06 0 -5.62318e-06 1.46431e-06 0 -6.36787e-06 1.53671e-06 0 -7.15074e-06 1.6169e-06 0 -7.97582e-06 1.70523e-06 0 -8.84694e-06 1.80061e-06 0 -9.76791e-06 1.90392e-06 0 -1.07425e-05 2.01422e-06 0 -1.17742e-05 2.13082e-06 0 -1.28665e-05 2.25425e-06 0 -1.40222e-05 2.38267e-06 0 -1.5244e-05 2.5156e-06 0 -1.6534e-05 2.65201e-06 0 -1.78938e-05 2.79023e-06 0 -1.93241e-05 2.92874e-06 0 -2.08247e-05 3.06555e-06 0 -2.23944e-05 3.19857e-06 0 -2.40309e-05 3.32505e-06 0 -2.57305e-05 3.44226e-06 0 -2.74877e-05 3.54714e-06 0 -2.92959e-05 3.63635e-06 0 -3.11464e-05 3.70653e-06 0 -3.30288e-05 3.75424e-06 0 -3.49308e-05 3.77611e-06 0 0 1.7276e-06 0 -5.65502e-07 1.73388e-06 0 -1.13473e-06 1.75052e-06 0 -1.71134e-06 1.7783e-06 0 -2.29912e-06 1.818e-06 0 -2.90181e-06 1.86822e-06 0 -3.52317e-06 1.93059e-06 0 -4.16711e-06 2.00437e-06 0 -4.83744e-06 2.08899e-06 0 -5.5381e-06 2.18672e-06 0 -6.27307e-06 2.29533e-06 0 -7.04626e-06 2.41569e-06 0 -7.86175e-06 2.54833e-06 0 -8.72348e-06 2.69165e-06 0 -9.63535e-06 2.84699e-06 0 -1.06013e-05 3.01296e-06 0 -1.16249e-05 3.18855e-06 0 -1.27098e-05 3.37462e-06 0 -1.38593e-05 3.5684e-06 0 -1.50761e-05 3.76923e-06 0 -1.63627e-05 3.97559e-06 0 -1.77209e-05 4.18497e-06 0 -1.91518e-05 4.39518e-06 0 -2.06556e-05 4.6032e-06 0 -2.22316e-05 4.80589e-06 0 -2.38777e-05 4.99913e-06 0 -2.55905e-05 5.17878e-06 0 -2.7365e-05 5.34018e-06 0 -2.91946e-05 5.47825e-06 0 -3.10709e-05 5.58783e-06 0 -3.29833e-05 5.66362e-06 0 -3.49196e-05 5.7004e-06 0 0 2.28607e-06 0 -5.52344e-07 2.29442e-06 0 -1.10838e-06 2.31654e-06 0 -1.67174e-06 2.35349e-06 0 -2.24619e-06 2.40631e-06 0 -2.83544e-06 2.47312e-06 0 -3.44324e-06 2.55614e-06 0 -4.0735e-06 2.65438e-06 0 -4.73003e-06 2.76709e-06 0 -5.41681e-06 2.89732e-06 0 -6.13786e-06 3.04214e-06 0 -6.89716e-06 3.20274e-06 0 -7.69887e-06 3.37985e-06 0 -8.54703e-06 3.57137e-06 0 -9.44572e-06 3.77916e-06 0 -1.03991e-05 4.0014e-06 0 -1.14109e-05 4.23677e-06 0 -1.24851e-05 4.48656e-06 0 -1.36251e-05 4.74706e-06 0 -1.48343e-05 5.01746e-06 0 -1.61155e-05 5.29585e-06 0 -1.7471e-05 5.57886e-06 0 -1.89023e-05 5.86368e-06 0 -2.04102e-05 6.14629e-06 0 -2.19946e-05 6.42248e-06 0 -2.36538e-05 6.68677e-06 0 -2.5385e-05 6.93355e-06 0 -2.71837e-05 7.15652e-06 0 -2.90437e-05 7.34872e-06 0 -3.09567e-05 7.50306e-06 0 -3.29122e-05 7.61221e-06 0 -3.48979e-05 7.6689e-06 0 0 2.82968e-06 0 -5.3579e-07 2.84008e-06 0 -1.07523e-06 2.86764e-06 0 -1.62191e-06 2.91367e-06 0 -2.17957e-06 2.97948e-06 0 -2.75188e-06 3.06276e-06 0 -3.34258e-06 3.16628e-06 0 -3.95556e-06 3.28883e-06 0 -4.59465e-06 3.4295e-06 0 -5.26386e-06 3.59216e-06 0 -5.96724e-06 3.77316e-06 0 -6.70886e-06 3.97403e-06 0 -7.49298e-06 4.19579e-06 0 -8.32381e-06 4.43582e-06 0 -9.20558e-06 4.69655e-06 0 -1.01426e-05 4.9758e-06 0 -1.11391e-05 5.27196e-06 0 -1.21993e-05 5.58685e-06 0 -1.3327e-05 5.91578e-06 0 -1.4526e-05 6.25795e-06 0 -1.57996e-05 6.61108e-06 0 -1.71508e-05 6.97093e-06 0 -1.85818e-05 7.33424e-06 0 -2.00941e-05 7.69593e-06 0 -2.1688e-05 8.05073e-06 0 -2.3363e-05 8.39183e-06 0 -2.51168e-05 8.7121e-06 0 -2.69456e-05 9.00348e-06 0 -2.88436e-05 9.25704e-06 0 -3.08028e-05 9.46353e-06 0 -3.28131e-05 9.61337e-06 0 -3.48617e-05 9.69696e-06 0 0 3.35482e-06 0 -5.15386e-07 3.36724e-06 0 -1.03437e-06 3.40016e-06 0 -1.56048e-06 3.45516e-06 0 -2.0974e-06 3.53382e-06 0 -2.64878e-06 3.63337e-06 0 -3.21831e-06 3.75719e-06 0 -3.80989e-06 3.90384e-06 0 -4.42733e-06 4.07228e-06 0 -5.07466e-06 4.26721e-06 0 -5.756e-06 4.48429e-06 0 -6.4755e-06 4.72545e-06 0 -7.23753e-06 4.99199e-06 0 -8.04647e-06 5.28084e-06 0 -8.90677e-06 5.59508e-06 0 -9.82307e-06 5.93217e-06 0 -1.07998e-05 6.29026e-06 0 -1.18417e-05 6.67185e-06 0 -1.29531e-05 7.07129e-06 0 -1.41383e-05 7.48784e-06 0 -1.54013e-05 7.91899e-06 0 -1.67458e-05 8.35964e-06 0 -1.81749e-05 8.80621e-06 0 -1.96909e-05 9.25255e-06 0 -2.12952e-05 9.69238e-06 0 -2.29882e-05 1.01176e-05 0 -2.47686e-05 1.05194e-05 0 -2.66335e-05 1.0888e-05 0 -2.85778e-05 1.12123e-05 0 -3.05943e-05 1.14806e-05 0 -3.26729e-05 1.16808e-05 0 -3.48006e-05 1.18006e-05 0 -1.54578e-20 3.85782e-06 0 -4.91456e-07 3.87223e-06 0 -9.86436e-07 3.91041e-06 0 -1.4884e-06 3.97423e-06 0 -2.00097e-06 4.06551e-06 0 -2.52773e-06 4.1811e-06 0 -3.07234e-06 4.32493e-06 0 -3.63866e-06 4.49539e-06 0 -4.2305e-06 4.69131e-06 0 -4.85191e-06 4.91827e-06 0 -5.50706e-06 5.17125e-06 0 -6.20017e-06 5.45262e-06 0 -6.93576e-06 5.76403e-06 0 -7.71837e-06 6.10195e-06 0 -8.55271e-06 6.47025e-06 0 -9.44372e-06 6.86603e-06 0 -1.03963e-05 7.2873e-06 0 -1.14154e-05 7.73737e-06 0 -1.25062e-05 8.20964e-06 0 -1.36736e-05 8.70356e-06 0 -1.49224e-05 9.21654e-06 0 -1.62571e-05 9.74258e-06 0 -1.76818e-05 1.02781e-05 0 -1.92001e-05 1.08157e-05 0 -2.08146e-05 1.13483e-05 0 -2.25267e-05 1.18665e-05 0 -2.43365e-05 1.23599e-05 0 -2.62424e-05 1.28167e-05 0 -2.82403e-05 1.32235e-05 0 -3.03239e-05 1.3566e-05 0 -3.24834e-05 1.3829e-05 0 -3.4706e-05 1.39971e-05 0 0 4.33521e-06 0 -4.64268e-07 4.35157e-06 0 -9.31968e-07 4.3949e-06 0 -1.40647e-06 4.46733e-06 0 -1.89132e-06 4.57097e-06 0 -2.39004e-06 4.70227e-06 0 -2.90621e-06 4.86573e-06 0 -3.44365e-06 5.05962e-06 0 -4.00616e-06 5.28262e-06 0 -4.59779e-06 5.54123e-06 0 -5.22275e-06 5.82981e-06 0 -5.88534e-06 6.15118e-06 0 -6.59022e-06 6.50742e-06 0 -7.34212e-06 6.89458e-06 0 -8.14598e-06 7.31739e-06 0 -9.00709e-06 7.77269e-06 0 -9.93073e-06 8.25838e-06 0 -1.09225e-05 8.77878e-06 0 -1.19881e-05 9.32634e-06 0 -1.31332e-05 9.90091e-06 0 -1.43635e-05 1.04999e-05 0 -1.56846e-05 1.11165e-05 0 -1.71019e-05 1.17473e-05 0 -1.862e-05 1.2384e-05 0 -2.02431e-05 1.30184e-05 0 -2.19743e-05 1.364e-05 0 -2.38152e-05 1.42369e-05 0 -2.57657e-05 1.47951e-05 0 -2.78233e-05 1.52988e-05 0 -2.99828e-05 1.57307e-05 0 -3.22353e-05 1.60723e-05 0 -3.45681e-05 1.6304e-05 0 0 4.78353e-06 0 -4.33272e-07 4.80177e-06 0 -8.6986e-07 4.85009e-06 0 -1.31303e-06 4.93089e-06 0 -1.7662e-06 5.04655e-06 0 -2.23281e-06 5.19313e-06 0 -2.71636e-06 5.37576e-06 0 -3.2206e-06 5.59253e-06 0 -3.74929e-06 5.84208e-06 0 -4.30647e-06 6.13182e-06 0 -4.89636e-06 6.45551e-06 0 -5.52333e-06 6.81651e-06 0 -6.19216e-06 7.21736e-06 0 -6.90776e-06 7.65374e-06 0 -7.67534e-06 8.13136e-06 0 -8.50053e-06 8.64687e-06 0 -9.38906e-06 9.19812e-06 0 -1.03471e-05 9.79068e-06 0 -1.13811e-05 1.0416e-05 0 -1.24974e-05 1.10746e-05 0 -1.3703e-05 1.17642e-05 0 -1.50047e-05 1.24769e-05 0 -1.64089e-05 1.32101e-05 0 -1.79222e-05 1.39544e-05 0 -1.95505e-05 1.47008e-05 0 -2.12988e-05 1.54379e-05 0 -2.31707e-05 1.61522e-05 0 -2.51685e-05 1.68277e-05 0 -2.72916e-05 1.74457e-05 0 -2.95366e-05 1.79859e-05 0 -3.18963e-05 1.84254e-05 0 -3.43585e-05 1.87404e-05 0 0 5.1994e-06 0 -3.99236e-07 5.21945e-06 0 -8.01648e-07 5.27257e-06 0 -1.21036e-06 5.36144e-06 0 -1.62869e-06 5.48868e-06 0 -2.05991e-06 5.65004e-06 0 -2.50745e-06 5.85121e-06 0 -2.97496e-06 6.09019e-06 0 -3.46612e-06 6.36557e-06 0 -3.98495e-06 6.68571e-06 0 -4.53566e-06 7.04383e-06 0 -5.12268e-06 7.44383e-06 0 -5.75087e-06 7.88882e-06 0 -6.42532e-06 8.37416e-06 0 -7.15147e-06 8.90665e-06 0 -7.93533e-06 9.48281e-06 0 -8.78306e-06 1.01005e-05 0 -9.70145e-06 1.07669e-05 0 -1.06976e-05 1.14725e-05 0 -1.1779e-05 1.22185e-05 0 -1.29536e-05 1.30031e-05 0 -1.42294e-05 1.38179e-05 0 -1.56147e-05 1.46611e-05 0 -1.71177e-05 1.55223e-05 0 -1.87464e-05 1.6392e-05 0 -2.0508e-05 1.72583e-05 0 -2.24091e-05 1.8106e-05 0 -2.44542e-05 1.89171e-05 0 -2.66459e-05 1.96703e-05 0 -2.89831e-05 2.03414e-05 0 -3.14609e-05 2.09033e-05 0 -3.40686e-05 2.13264e-05 0 0 5.57966e-06 0 -3.6205e-07 5.60144e-06 0 -7.27109e-07 5.65914e-06 0 -1.09814e-06 5.75569e-06 0 -1.47829e-06 5.894e-06 0 -1.87071e-06 6.06949e-06 0 -2.27866e-06 6.28844e-06 0 -2.70567e-06 6.54878e-06 0 -3.15536e-06 6.84906e-06 0 -3.63163e-06 7.19866e-06 0 -4.1387e-06 7.59023e-06 0 -4.68098e-06 8.02835e-06 0 -5.26342e-06 8.51671e-06 0 -5.89123e-06 9.05041e-06 0 -6.5701e-06 9.63747e-06 0 -7.30634e-06 1.02744e-05 0 -8.10658e-06 1.09592e-05 0 -8.9782e-06 1.17007e-05 0 -9.92912e-06 1.24886e-05 0 -1.09677e-05 1.33252e-05 0 -1.21031e-05 1.42095e-05 0 -1.33449e-05 1.51322e-05 0 -1.47029e-05 1.60932e-05 0 -1.61876e-05 1.70812e-05 0 -1.78093e-05 1.80865e-05 0 -1.9578e-05 1.90969e-05 0 -2.15033e-05 2.00959e-05 0 -2.35933e-05 2.10637e-05 0 -2.58542e-05 2.19764e-05 0 -2.82886e-05 2.28059e-05 0 -3.0895e-05 2.35199e-05 0 -3.36653e-05 2.40821e-05 0 0 5.9212e-06 0 -3.21733e-07 5.94459e-06 0 -6.46275e-07 6.00661e-06 0 -9.76398e-07 6.11039e-06 0 -1.31505e-06 6.25914e-06 0 -1.66518e-06 6.44797e-06 0 -2.02992e-06 6.68378e-06 0 -2.41261e-06 6.96442e-06 0 -2.81672e-06 7.28844e-06 0 -3.24608e-06 7.66623e-06 0 -3.70479e-06 8.09e-06 0 -4.19724e-06 8.56497e-06 0 -4.7284e-06 9.09552e-06 0 -5.30359e-06 9.67654e-06 0 -5.92865e-06 1.03174e-05 0 -6.6102e-06 1.10147e-05 0 -7.35528e-06 1.17666e-05 0 -8.17184e-06 1.25841e-05 0 -9.06858e-06 1.3456e-05 0 -1.00548e-05 1.43859e-05 0 -1.1141e-05 1.53739e-05 0 -1.23382e-05 1.64103e-05 0 -1.36581e-05 1.74969e-05 0 -1.51137e-05 1.8622e-05 0 -1.67176e-05 1.97757e-05 0 -1.84834e-05 2.09462e-05 0 -2.04242e-05 2.21162e-05 0 -2.25525e-05 2.32646e-05 0 -2.48792e-05 2.4365e-05 0 -2.74123e-05 2.53854e-05 0 -3.01554e-05 2.6288e-05 0 -3.31049e-05 2.70289e-05 0 0 6.22115e-06 0 -2.78839e-07 6.24605e-06 0 -5.60254e-07 6.31205e-06 0 -8.46796e-07 6.42255e-06 0 -1.14118e-06 6.58099e-06 0 -1.44615e-06 6.78225e-06 0 -1.76461e-06 7.03378e-06 0 -2.09973e-06 7.33342e-06 0 -2.45477e-06 7.67975e-06 0 -2.83342e-06 8.08418e-06 0 -3.23965e-06 8.53851e-06 0 -3.67776e-06 9.04865e-06 0 -4.15271e-06 9.61975e-06 0 -4.66982e-06 1.02466e-05 0 -5.23507e-06 1.09399e-05 0 -5.85532e-06 1.16965e-05 0 -6.53794e-06 1.2515e-05 0 -7.29145e-06 1.34086e-05 0 -8.12525e-06 1.43654e-05 0 -9.04962e-06 1.53907e-05 0 -1.00763e-05 1.6486e-05 0 -1.12179e-05 1.76412e-05 0 -1.24882e-05 1.88608e-05 0 -1.39024e-05 2.01328e-05 0 -1.54762e-05 2.14479e-05 0 -1.72268e-05 2.27953e-05 0 -1.91714e-05 2.41575e-05 0 -2.13278e-05 2.55125e-05 0 -2.37128e-05 2.68324e-05 0 -2.63412e-05 2.80818e-05 0 -2.92239e-05 2.92173e-05 0 -3.23645e-05 3.01863e-05 0 0 6.47687e-06 0 -2.3322e-07 6.50313e-06 0 -4.68749e-07 6.57276e-06 0 -7.08874e-07 6.68935e-06 0 -9.56043e-07 6.85663e-06 0 -1.21275e-06 7.06922e-06 0 -1.48163e-06 7.33515e-06 0 -1.7656e-06 7.65225e-06 0 -2.06772e-06 8.01918e-06 0 -2.39143e-06 8.44833e-06 0 -2.74053e-06 8.93116e-06 0 -3.11916e-06 9.47435e-06 0 -3.53214e-06 1.00838e-05 0 -3.98478e-06 1.07542e-05 0 -4.48306e-06 1.14981e-05 0 -5.03398e-06 1.23122e-05 0 -5.6452e-06 1.31959e-05 0 -6.32564e-06 1.41648e-05 0 -7.08539e-06 1.52065e-05 0 -7.93559e-06 1.63283e-05 0 -8.88925e-06 1.75335e-05 0 -9.96049e-06 1.88115e-05 0 -1.11651e-05 2.01708e-05 0 -1.25208e-05 2.1599e-05 0 -1.40465e-05 2.30879e-05 0 -1.5763e-05 2.4629e-05 0 -1.76926e-05 2.6205e-05 0 -1.98588e-05 2.77945e-05 0 -2.22857e-05 2.93688e-05 0 -2.49972e-05 3.08907e-05 0 -2.80146e-05 3.23118e-05 0 -3.13533e-05 3.35707e-05 0 0 6.68591e-06 0 -1.8536e-07 6.71337e-06 0 -3.72724e-07 6.7862e-06 0 -5.64085e-07 6.90819e-06 0 -7.61583e-07 7.08329e-06 0 -9.6741e-07 7.30596e-06 0 -1.18391e-06 7.58474e-06 0 -1.41371e-06 7.9175e-06 0 -1.65957e-06 8.30297e-06 0 -1.92464e-06 8.75453e-06 0 -2.21248e-06 9.26337e-06 0 -2.52699e-06 9.8369e-06 0 -2.87279e-06 1.04819e-05 0 -3.25503e-06 1.11931e-05 0 -3.67962e-06 1.19845e-05 0 -4.15358e-06 1.28535e-05 0 -4.68471e-06 1.37999e-05 0 -5.28225e-06 1.48422e-05 0 -5.95681e-06 1.59676e-05 0 -6.72032e-06 1.71856e-05 0 -7.58691e-06 1.85017e-05 0 -8.5722e-06 1.99055e-05 0 -9.6939e-06 2.14096e-05 0 -1.09723e-05 2.3002e-05 0 -1.24294e-05 2.46761e-05 0 -1.409e-05 2.64266e-05 0 -1.59813e-05 2.82377e-05 0 -1.81332e-05 3.00898e-05 0 -2.05783e-05 3.19557e-05 0 -2.33512e-05 3.37981e-05 0 -2.64871e-05 3.55661e-05 0 -3.00187e-05 3.71912e-05 0 0 6.84617e-06 0 -1.35629e-07 6.87465e-06 0 -2.72925e-07 6.9502e-06 0 -4.1355e-07 7.07679e-06 0 -5.59301e-07 7.25859e-06 0 -7.12032e-07 7.48991e-06 0 -8.73751e-07 7.77978e-06 0 -1.04672e-06 8.12612e-06 0 -1.23338e-06 8.52775e-06 0 -1.43653e-06 8.99901e-06 0 -1.65939e-06 9.53085e-06 0 -1.90554e-06 1.01315e-05 0 -2.1793e-06 1.08085e-05 0 -2.48556e-06 1.15568e-05 0 -2.83004e-06 1.2392e-05 0 -3.21962e-06 1.33121e-05 0 -3.6621e-06 1.43176e-05 0 -4.16689e-06 1.54301e-05 0 -4.74495e-06 1.66364e-05 0 -5.40883e-06 1.79487e-05 0 -6.17366e-06 1.93753e-05 0 -7.05638e-06 2.09057e-05 0 -8.07655e-06 2.25578e-05 0 -9.2569e-06 2.43204e-05 0 -1.06223e-05 2.61891e-05 0 -1.22017e-05 2.81628e-05 0 -1.40269e-05 3.02284e-05 0 -1.61344e-05 3.23699e-05 0 -1.85654e-05 3.45641e-05 0 -2.13665e-05 3.67771e-05 0 -2.45903e-05 3.89602e-05 0 -2.82927e-05 4.10422e-05 0 1.74785e-20 6.95581e-06 0 -8.40636e-08 6.98512e-06 0 -1.69418e-07 7.06286e-06 0 -2.57357e-07 7.19318e-06 0 -3.49287e-07 7.38041e-06 0 -4.46681e-07 7.61878e-06 0 -5.51156e-07 7.91774e-06 0 -6.64563e-07 8.27528e-06 0 -7.8893e-07 8.69036e-06 0 -9.26643e-07 9.17815e-06 0 -1.08047e-06 9.7295e-06 0 -1.25358e-06 1.03533e-05 0 -1.44984e-06 1.10582e-05 0 -1.67375e-06 1.1839e-05 0 -1.93063e-06 1.27133e-05 0 -2.22705e-06 1.36795e-05 0 -2.57057e-06 1.4739e-05 0 -2.97051e-06 1.59168e-05 0 -3.43794e-06 1.71994e-05 0 -3.98576e-06 1.86022e-05 0 -4.6298e-06 2.01364e-05 0 -5.38816e-06 2.17921e-05 0 -6.28195e-06 2.35929e-05 0 -7.33613e-06 2.55288e-05 0 -8.5783e-06 2.75986e-05 0 -1.00407e-05 2.98061e-05 0 -1.17597e-05 3.2142e-05 0 -1.37772e-05 3.45957e-05 0 -1.6142e-05 3.7151e-05 0 -1.89128e-05 3.97823e-05 0 -2.21607e-05 4.24502e-05 0 -2.59718e-05 4.5091e-05 0 1.00023e-20 7.01338e-06 0 -3.13272e-08 7.04329e-06 0 -6.35391e-08 7.12266e-06 0 -9.75278e-08 7.25572e-06 0 -1.3428e-07 7.447e-06 0 -1.74848e-07 7.69065e-06 0 -2.20415e-07 7.99647e-06 0 -2.7237e-07 8.36257e-06 0 -3.32277e-07 8.78803e-06 0 -4.02027e-07 9.28877e-06 0 -4.83869e-07 9.85561e-06 0 -5.80446e-07 1.04982e-05 0 -6.95075e-07 1.12258e-05 0 -8.31679e-07 1.20337e-05 0 -9.95051e-07 1.2941e-05 0 -1.19121e-06 1.3947e-05 0 -1.42728e-06 1.5054e-05 0 -1.71221e-06 1.62903e-05 0 -2.05689e-06 1.76427e-05 0 -2.47429e-06 1.91297e-05 0 -2.98068e-06 2.0766e-05 0 -3.59497e-06 2.25425e-05 0 -4.33966e-06 2.44897e-05 0 -5.24164e-06 2.65989e-05 0 -6.33095e-06 2.88723e-05 0 -7.6428e-06 3.13198e-05 0 -9.21688e-06 3.39365e-05 0 -1.1099e-05 3.67185e-05 0 -1.33436e-05 3.96592e-05 0 -1.60179e-05 4.27466e-05 0 -1.92096e-05 4.59603e-05 0 -2.30353e-05 4.92606e-05 0 0 7.01782e-06 0 2.22906e-08 7.0481e-06 0 4.41324e-08 7.12846e-06 0 6.50636e-08 7.26323e-06 0 8.4553e-08 7.45704e-06 0 1.02005e-07 7.70404e-06 0 1.16714e-07 8.01432e-06 0 1.27803e-07 8.38606e-06 0 1.34232e-07 8.81851e-06 0 1.34682e-07 9.32822e-06 0 1.27512e-07 9.906e-06 0 1.10715e-07 1.05621e-05 0 8.16778e-08 1.13067e-05 0 3.71985e-08 1.21353e-05 0 -2.67602e-08 1.30686e-05 0 -1.1543e-07 1.41067e-05 0 -2.35181e-07 1.52528e-05 0 -3.94264e-07 1.65389e-05 0 -6.03009e-07 1.7952e-05 0 -8.7405e-07 1.95142e-05 0 -1.22366e-06 2.12442e-05 0 -1.67122e-06 2.31339e-05 0 -2.24027e-06 2.52213e-05 0 -2.95943e-06 2.74997e-05 0 -3.86091e-06 2.99752e-05 0 -4.98243e-06 3.2664e-05 0 -6.36597e-06 3.55657e-05 0 -8.059e-06 3.8683e-05 0 -1.01169e-05 4.20201e-05 0 -1.26087e-05 4.55825e-05 0 -1.56287e-05 4.93787e-05 0 -1.93145e-05 5.34141e-05 0 0 6.96846e-06 0 7.63683e-08 6.99886e-06 0 1.5275e-07 7.07955e-06 0 2.29139e-07 7.21491e-06 0 3.0549e-07 7.40963e-06 0 3.81698e-07 7.65793e-06 0 4.57572e-07 7.97004e-06 0 5.32797e-07 8.34428e-06 0 6.06915e-07 8.78004e-06 0 6.79252e-07 9.29431e-06 0 7.48865e-07 9.87803e-06 0 8.14498e-07 1.0542e-05 0 8.74388e-07 1.1297e-05 0 9.2624e-07 1.21388e-05 0 9.67004e-07 1.30898e-05 0 9.92533e-07 1.41507e-05 0 9.97556e-07 1.53259e-05 0 9.74958e-07 1.66507e-05 0 9.15475e-07 1.81128e-05 0 8.07349e-07 1.9738e-05 0 6.34882e-07 2.15493e-05 0 3.78718e-07 2.35404e-05 0 1.46548e-08 2.57577e-05 0 -4.87456e-07 2.81968e-05 0 -1.16205e-06 3.08682e-05 0 -2.04941e-06 3.37945e-05 0 -3.19326e-06 3.69786e-05 0 -4.64046e-06 4.04281e-05 0 -6.44159e-06 4.41556e-05 0 -8.65616e-06 4.81831e-05 0 -1.13659e-05 5.25533e-05 0 -1.4701e-05 5.73338e-05 0 0 6.8651e-06 0 1.30436e-07 6.89536e-06 0 2.61363e-07 6.97568e-06 0 3.93253e-07 7.11045e-06 0 5.26565e-07 7.30439e-06 0 6.61707e-07 7.5518e-06 0 7.99034e-07 7.86299e-06 0 9.38827e-07 8.23639e-06 0 1.08125e-06 8.67151e-06 0 1.22634e-06 9.18562e-06 0 1.37391e-06 9.76984e-06 0 1.52356e-06 1.04353e-05 0 1.67451e-06 1.11934e-05 0 1.82552e-06 1.20403e-05 0 1.97475e-06 1.29995e-05 0 2.11941e-06 1.40725e-05 0 2.25569e-06 1.52648e-05 0 2.37804e-06 1.66148e-05 0 2.47882e-06 1.81112e-05 0 2.54777e-06 1.97837e-05 0 2.57044e-06 2.16599e-05 0 2.52815e-06 2.37361e-05 0 2.39648e-06 2.60678e-05 0 2.14385e-06 2.86541e-05 0 1.73317e-06 3.15108e-05 0 1.12062e-06 3.46667e-05 0 2.59748e-07 3.81265e-05 0 -8.95275e-07 4.18979e-05 0 -2.386e-06 4.59943e-05 0 -4.25043e-06 5.04455e-05 0 -6.5343e-06 5.53211e-05 0 -9.32013e-06 6.07539e-05 0 0 6.70798e-06 0 1.83975e-07 6.73783e-06 0 3.68934e-07 6.81706e-06 0 5.55835e-07 6.95003e-06 0 7.4566e-07 7.14144e-06 0 9.39351e-07 7.3857e-06 0 1.13783e-06 7.69308e-06 0 1.342e-06 8.06214e-06 0 1.55269e-06 8.49249e-06 0 1.77068e-06 9.00147e-06 0 1.99666e-06 9.58041e-06 0 2.23113e-06 1.02407e-05 0 2.47442e-06 1.0994e-05 0 2.72655e-06 1.18369e-05 0 2.98709e-06 1.27937e-05 0 3.25498e-06 1.38667e-05 0 3.52826e-06 1.50623e-05 0 3.80358e-06 1.64217e-05 0 4.07566e-06 1.79346e-05 0 4.33664e-06 1.96346e-05 0 4.57446e-06 2.15546e-05 0 4.77221e-06 2.36938e-05 0 4.90621e-06 2.61183e-05 0 4.94373e-06 2.88326e-05 0 4.84409e-06 3.18592e-05 0 4.55723e-06 3.52345e-05 0 4.02947e-06 3.89632e-05 0 3.21134e-06 4.30466e-05 0 2.06968e-06 4.74848e-05 0 5.98419e-07 5.2294e-05 0 -1.18247e-06 5.75459e-05 0 -3.2515e-06 6.34155e-05 0 0 6.49786e-06 0 2.36543e-07 6.52703e-06 0 4.74566e-07 6.60444e-06 0 7.15519e-07 6.73437e-06 0 9.60913e-07 6.92145e-06 0 1.21223e-06 7.16025e-06 0 1.47096e-06 7.46089e-06 0 1.73866e-06 7.82202e-06 0 2.01684e-06 8.24335e-06 0 2.30706e-06 8.74203e-06 0 2.61088e-06 9.30967e-06 0 2.92981e-06 9.95769e-06 0 3.26538e-06 1.06979e-05 0 3.61897e-06 1.15272e-05 0 3.99178e-06 1.24702e-05 0 4.38472e-06 1.35297e-05 0 4.79811e-06 1.47132e-05 0 5.23135e-06 1.60635e-05 0 5.68231e-06 1.75719e-05 0 6.14662e-06 1.92755e-05 0 6.61597e-06 2.12121e-05 0 7.07686e-06 2.33853e-05 0 7.50791e-06 2.58731e-05 0 7.8763e-06 2.86881e-05 0 8.13716e-06 3.18629e-05 0 8.23033e-06 3.54462e-05 0 8.08647e-06 3.94435e-05 0 7.6396e-06 4.38436e-05 0 6.85241e-06 4.86131e-05 0 5.74905e-06 5.37169e-05 0 4.43796e-06 5.91782e-05 0 3.09899e-06 6.51614e-05 0 0 6.23595e-06 0 2.87685e-07 6.26415e-06 0 5.77343e-07 6.339e-06 0 8.70912e-07 6.46466e-06 0 1.17043e-06 6.64562e-06 0 1.47791e-06 6.87665e-06 0 1.79542e-06 7.16759e-06 0 2.12516e-06 7.51719e-06 0 2.46932e-06 7.9252e-06 0 2.83025e-06 8.40836e-06 0 3.21043e-06 8.9586e-06 0 3.61237e-06 9.58714e-06 0 4.03885e-06 1.03056e-05 0 4.49271e-06 1.11113e-05 0 4.9769e-06 1.20284e-05 0 5.49454e-06 1.30603e-05 0 6.04855e-06 1.42149e-05 0 6.64163e-06 1.55357e-05 0 7.27566e-06 1.70156e-05 0 7.95093e-06 1.86943e-05 0 8.66471e-06 2.06143e-05 0 9.40922e-06 2.27842e-05 0 1.01682e-05 2.52954e-05 0 1.09116e-05 2.81719e-05 0 1.15913e-05 3.14633e-05 0 1.21338e-05 3.52397e-05 0 1.24415e-05 3.95166e-05 0 1.24072e-05 4.42713e-05 0 1.19553e-05 4.94154e-05 0 1.11134e-05 5.48047e-05 0 1.00888e-05 6.03249e-05 0 9.28232e-06 6.60404e-05 0 0 5.92396e-06 0 3.3684e-07 5.95092e-06 0 6.76133e-07 6.02251e-06 0 1.02029e-06 6.14267e-06 0 1.37187e-06 6.31574e-06 0 1.73339e-06 6.53673e-06 0 2.1075e-06 6.81507e-06 0 2.49702e-06 7.14957e-06 0 2.9048e-06 7.54003e-06 0 3.33398e-06 8.0025e-06 0 3.78789e-06 8.5293e-06 0 4.27009e-06 9.13118e-06 0 4.7846e-06 9.81939e-06 0 5.3357e-06 1.05913e-05 0 5.92819e-06 1.14703e-05 0 6.56749e-06 1.24599e-05 0 7.25939e-06 1.35679e-05 0 8.01033e-06 1.48372e-05 0 8.82701e-06 1.62621e-05 0 9.7157e-06 1.78834e-05 0 1.06815e-05 1.97469e-05 0 1.17256e-05 2.18665e-05 0 1.28418e-05 2.43465e-05 0 1.40088e-05 2.72273e-05 0 1.51815e-05 3.05834e-05 0 1.62742e-05 3.45239e-05 0 1.71489e-05 3.90995e-05 0 1.76164e-05 4.42995e-05 0 1.74861e-05 4.99744e-05 0 1.67008e-05 5.57915e-05 0 1.55404e-05 6.13342e-05 0 1.47319e-05 6.63978e-05 0 6.12158e-20 5.56409e-06 0 3.83564e-07 5.58956e-06 0 7.7004e-07 5.65717e-06 0 1.1623e-06 5.77067e-06 0 1.56337e-06 5.93415e-06 0 1.9763e-06 6.14289e-06 0 2.40425e-06 6.40581e-06 0 2.85064e-06 6.72179e-06 0 3.31895e-06 7.09062e-06 0 3.81305e-06 7.52745e-06 0 4.33712e-06 8.02496e-06 0 4.89565e-06 8.59327e-06 0 5.49384e-06 9.24289e-06 0 6.1374e-06 9.97121e-06 0 6.83286e-06 1.08002e-05 0 7.58793e-06 1.1733e-05 0 8.4113e-06 1.27769e-05 0 9.31337e-06 1.39723e-05 0 1.03061e-05 1.53142e-05 0 1.14029e-05 1.68425e-05 0 1.26187e-05 1.86036e-05 0 1.39677e-05 2.06158e-05 0 1.54601e-05 2.29926e-05 0 1.70942e-05 2.57933e-05 0 1.88423e-05 2.91257e-05 0 2.06226e-05 3.3161e-05 0 2.22601e-05 3.8034e-05 0 2.34425e-05 4.38201e-05 0 2.37294e-05 5.03692e-05 0 2.27476e-05 5.70856e-05 0 2.06913e-05 6.2925e-05 0 1.88169e-05 6.69998e-05 0 0 5.15899e-06 0 4.27404e-07 5.18272e-06 0 8.58151e-07 5.2457e-06 0 1.29554e-06 5.35142e-06 0 1.74306e-06 5.5037e-06 0 2.20421e-06 5.69812e-06 0 2.68266e-06 5.94298e-06 0 3.18237e-06 6.2372e-06 0 3.70741e-06 6.58057e-06 0 4.26229e-06 6.98708e-06 0 4.85196e-06 7.44987e-06 0 5.48175e-06 7.97816e-06 0 6.15792e-06 8.58148e-06 0 6.88739e-06 9.25717e-06 0 7.67827e-06 1.00251e-05 0 8.54033e-06 1.08875e-05 0 9.48492e-06 1.18507e-05 0 1.05262e-05 1.29505e-05 0 1.16814e-05 1.4182e-05 0 1.29714e-05 1.55811e-05 0 1.44225e-05 1.71905e-05 0 1.6065e-05 1.90301e-05 0 1.79326e-05 2.12135e-05 0 2.0058e-05 2.38156e-05 0 2.24558e-05 2.69776e-05 0 2.50902e-05 3.09504e-05 0 2.78e-05 3.60193e-05 0 3.01635e-05 4.25021e-05 0 3.13282e-05 5.04996e-05 0 3.00699e-05 5.92631e-05 0 2.5811e-05 6.65065e-05 0 2.06644e-05 6.93602e-05 0 -1.38237e-19 4.71177e-06 0 4.67921e-07 4.73352e-06 0 9.39583e-07 4.79126e-06 0 1.41867e-06 4.88817e-06 0 1.9091e-06 5.02774e-06 0 2.41479e-06 5.20592e-06 0 2.93986e-06 5.43028e-06 0 3.48874e-06 5.69979e-06 0 4.06602e-06 6.01418e-06 0 4.67679e-06 6.38616e-06 0 5.32663e-06 6.8093e-06 0 6.02158e-06 7.2918e-06 0 6.76873e-06 7.84198e-06 0 7.57602e-06 8.45703e-06 0 8.45275e-06 9.15411e-06 0 9.41033e-06 9.93445e-06 0 1.04622e-05 1.08025e-05 0 1.16256e-05 1.17878e-05 0 1.29222e-05 1.28845e-05 0 1.43796e-05 1.41208e-05 0 1.6035e-05 1.55308e-05 0 1.79361e-05 1.71305e-05 0 2.01448e-05 1.90184e-05 0 2.2741e-05 2.1271e-05 0 2.58132e-05 2.40441e-05 0 2.94406e-05 2.76511e-05 0 3.3611e-05 3.25631e-05 0 3.79977e-05 3.95443e-05 0 4.14116e-05 4.95648e-05 0 4.09052e-05 6.27405e-05 0 3.24336e-05 7.50569e-05 0 1.84116e-05 7.69155e-05 0 -7.74892e-20 4.22593e-06 0 5.04732e-07 4.2455e-06 0 1.01356e-06 4.29743e-06 0 1.53053e-06 4.3846e-06 0 2.05991e-06 4.51011e-06 0 2.60601e-06 4.67031e-06 0 3.17333e-06 4.87197e-06 0 3.76673e-06 5.11411e-06 0 4.39123e-06 5.39643e-06 0 5.05239e-06 5.73014e-06 0 5.75627e-06 6.10937e-06 0 6.50946e-06 6.54115e-06 0 7.31966e-06 7.03244e-06 0 8.19546e-06 7.58027e-06 0 9.14695e-06 8.19872e-06 0 1.01865e-05 8.8877e-06 0 1.13288e-05 9.64947e-06 0 1.25929e-05 1.05059e-05 0 1.40033e-05 1.1449e-05 0 1.5592e-05 1.24965e-05 0 1.74044e-05 1.36682e-05 0 1.9502e-05 1.497e-05 0 2.19729e-05 1.64647e-05 0 2.49466e-05 1.82063e-05 0 2.86036e-05 2.03199e-05 0 3.32038e-05 2.3095e-05 0 3.90762e-05 2.70858e-05 0 4.64985e-05 3.34878e-05 0 5.50145e-05 4.48471e-05 0 6.05426e-05 6.55515e-05 0 4.7911e-05 9.52906e-05 0 5.83099e-06 0.000100661 0 0 3.70535e-06 0 5.37485e-07 3.72254e-06 0 1.07938e-06 3.76818e-06 0 1.63003e-06 3.84476e-06 0 2.19405e-06 3.95502e-06 0 2.77605e-06 4.09573e-06 0 3.38086e-06 4.27277e-06 0 4.0137e-06 4.48524e-06 0 4.67992e-06 4.7328e-06 0 5.38545e-06 5.02512e-06 0 6.13671e-06 5.35688e-06 0 6.94063e-06 5.73393e-06 0 7.80527e-06 6.16181e-06 0 8.73953e-06 6.63745e-06 0 9.75374e-06 7.17171e-06 0 1.08605e-05 7.76312e-06 0 1.20747e-05 8.41167e-06 0 1.34155e-05 9.13081e-06 0 1.49078e-05 9.91009e-06 0 1.65843e-05 1.07548e-05 0 1.84929e-05 1.16665e-05 0 2.07007e-05 1.26356e-05 0 2.33094e-05 1.36712e-05 0 2.64806e-05 1.47766e-05 0 3.04665e-05 1.59857e-05 0 3.56978e-05 1.74184e-05 0 4.29173e-05 1.94011e-05 0 5.34696e-05 2.28807e-05 0 6.97982e-05 3.08379e-05 0 9.51094e-05 5.3853e-05 0 0.000112559 0.000130816 0 -5.33559e-05 0.000207408 0 0 3.15424e-06 0 5.65872e-07 3.1689e-06 0 1.13642e-06 3.2078e-06 0 1.71625e-06 3.2731e-06 0 2.31025e-06 3.36707e-06 0 2.9233e-06 3.48697e-06 0 3.5605e-06 3.63776e-06 0 4.22734e-06 3.81863e-06 0 4.92944e-06 4.02922e-06 0 5.67297e-06 4.27758e-06 0 6.4646e-06 4.55907e-06 0 7.31142e-06 4.87833e-06 0 8.22158e-06 5.23957e-06 0 9.20395e-06 5.63969e-06 0 1.02687e-05 6.08649e-06 0 1.14278e-05 6.57735e-06 0 1.26951e-05 7.11021e-06 0 1.40884e-05 7.69063e-06 0 1.56299e-05 8.30577e-06 0 1.73488e-05 8.94887e-06 0 1.92877e-05 9.60276e-06 0 2.15072e-05 1.02407e-05 0 2.41012e-05 1.08109e-05 0 2.72253e-05 1.12498e-05 0 3.11352e-05 1.14602e-05 0 3.62992e-05 1.12754e-05 0 4.36098e-05 1.04728e-05 0 5.49588e-05 8.71996e-06 0 7.50232e-05 5.54826e-06 0 0.000118875 6.33027e-07 0 0.00027014 1.23225e-06 0 0.0012004 0.00904767 0 </DataArray> 
</PointData> 
<Points> 
<DataArray type="Float32" NumberOfComponents="3"> 