<?xml version="1.0"?> 
<VTKFile type="StructuredGrid" version="0.1"> 
<StructuredGrid WholeExtent="0 31 0 31 0 0"> 
<Piece Extent="0 31 0 31 0 0"> 
<PointData>
<DataArray type="Float32" Name="B" format="ascii" NumberOfComponents="3"> 
-0.0211099 -0.0157207 0 -0.0183296 0.00032575 0 -0.0173503 6.27031e-05 0 -0.0172964 -9.10264e-06 0 -0.0175836 -3.22357e-05 0 -0.0179715 -3.73856e-05 0 -0.0183567 -3.49471e-05 0 -0.0186946 -2.94726e-05 0 -0.0189698 -2.32249e-05 0 -0.0191823 -1.74419e-05 0 -0.0193393 -1.25257e-05 0 -0.019451 -8.63315e-06 0 -0.0195274 -5.699e-06 0 -0.0195774 -3.56755e-06 0 -0.0196082 -2.05994e-06 0 -0.0196253 -1.00893e-06 0 -0.0196326 -2.75603e-07 0 -0.0196326 2.5161e-07 0 -0.019627 6.55188e-07 0 -0.0196168 9.91361e-07 0 -0.0196025 1.29723e-06 0 -0.0195842 1.59496e-06 0 -0.0195618 1.89527e-06 0 -0.0195353 2.20173e-06 0 -0.0195041 2.5141e-06 0 -0.0194676 2.8532e-06 0 -0.0194239 3.28874e-06 0 -0.019368 4.02774e-06 0 -0.0192873 5.68222e-06 0 -0.0191422 1.06489e-05 0 -0.0187312 4.05735e-05 0 -0.00719838 0.00616083 0 -0.000814122 -0.00105177 0 0.000422993 -1.59415e-05 0 0.000435192 4.29399e-06 0 0.000441252 3.8669e-06 0 0.000451122 2.92769e-06 0 0.000462134 2.17367e-06 0 0.00047244 1.58362e-06 0 0.000481186 1.12245e-06 0 0.000488128 7.66464e-07 0 0.00049336 5.09611e-07 0 0.00049713 3.22301e-07 0 0.000499738 1.92963e-07 0 0.000501468 1.07431e-07 0 0.000502561 5.33856e-08 0 0.000503207 2.09584e-08 0 0.000503545 2.68606e-09 0 0.000503672 -6.7595e-09 0 0.000503655 -1.11092e-08 0 0.000503532 -1.27853e-08 0 0.000503326 -1.32379e-08 0 0.000503049 -1.32816e-08 0 0.000502704 -1.32903e-08 0 0.000502291 -1.3321e-08 0 0.00050181 -1.31897e-08 0 0.000501261 -1.2366e-08 0 0.000500645 -1.0143e-08 0 0.000499957 -5.11354e-09 0 0.00049917 6.2464e-09 0 0.000498186 3.77474e-08 0 0.00049667 1.77592e-07 0 0.000493471 2.3817e-06 0 -0.000836505 -0.0082946 0 -0.000125489 -0.0063493 0 -2.97751e-05 -2.66353e-05 0 -1.58285e-05 -6.07002e-07 0 -7.33272e-06 2.10095e-06 0 -4.14344e-06 1.97421e-06 0 -2.79052e-06 1.54382e-06 0 -2.18763e-06 1.14216e-06 0 -1.93626e-06 8.14289e-07 0 -1.86002e-06 5.58375e-07 0 -1.86892e-06 3.71767e-07 0 -1.9151e-06 2.35978e-07 0 -1.97206e-06 1.41886e-07 0 -2.02628e-06 7.94851e-08 0 -2.07192e-06 4.0018e-08 0 -2.10745e-06 1.64154e-08 0 -2.13349e-06 3.29929e-09 0 -2.15163e-06 -3.1905e-09 0 -2.16366e-06 -5.77253e-09 0 -2.17126e-06 -6.22105e-09 0 -2.17581e-06 -5.60152e-09 0 -2.1784e-06 -4.51852e-09 0 -2.17981e-06 -3.26406e-09 0 -2.18065e-06 -1.92161e-09 0 -2.18133e-06 -4.41527e-10 0 -2.18226e-06 1.47807e-09 0 -2.18392e-06 4.24853e-09 0 -2.18713e-06 9.01828e-09 0 -2.19341e-06 1.92502e-08 0 -2.20363e-06 4.81393e-08 0 -2.17921e-06 1.56667e-07 0 -1.23452e-06 4.64364e-07 0 -0.000301934 -0.00438148 0 4.39615e-05 -0.00729011 0 -4.14093e-06 -1.64183e-05 0 -1.04236e-05 -3.77061e-06 0 -5.28316e-06 6.10361e-07 0 -2.47826e-06 1.30817e-06 0 -1.10238e-06 1.22543e-06 0 -4.17704e-07 9.88018e-07 0 -8.45571e-08 7.44709e-07 0 6.13198e-08 5.33943e-07 0 1.08762e-07 3.69736e-07 0 1.05767e-07 2.4453e-07 0 8.04892e-08 1.5413e-07 0 4.85341e-08 9.17752e-08 0 1.78529e-08 5.06687e-08 0 -8.08887e-09 2.48745e-08 0 -2.83427e-08 9.61461e-09 0 -4.3249e-08 1.30502e-09 0 -5.37011e-08 -2.68817e-09 0 -6.07303e-08 -4.15732e-09 0 -6.52977e-08 -4.22499e-09 0 -6.82071e-08 -3.5643e-09 0 -7.00862e-08 -2.53206e-09 0 -7.14001e-08 -1.26568e-09 0 -7.24766e-08 2.41946e-10 0 -7.35332e-08 2.27595e-09 0 -7.46889e-08 5.24511e-09 0 -7.58473e-08 1.02975e-08 0 -7.57955e-08 2.05635e-08 0 -6.55226e-08 4.50233e-08 0 2.53785e-08 9.3558e-08 0 4.34973e-07 -6.3654e-08 0 -0.000140934 -0.00277324 0 9.46025e-05 -0.0072012 0 2.62161e-06 -7.33864e-06 0 -6.5155e-06 -4.58057e-06 0 -4.53197e-06 -4.67508e-07 0 -2.42964e-06 7.13125e-07 0 -1.19346e-06 9.14151e-07 0 -5.18183e-07 8.27386e-07 0 -1.61815e-07 6.65862e-07 0 1.41271e-08 5.00373e-07 0 9.04765e-08 3.59708e-07 0 1.12259e-07 2.4651e-07 0 1.06804e-07 1.61293e-07 0 8.98376e-08 1.00328e-07 0 6.99538e-08 5.86936e-08 0 5.14407e-08 3.15669e-08 0 3.60646e-08 1.47876e-08 0 2.42013e-08 5.08443e-09 0 1.55353e-08 -4.86351e-11 0 9.47317e-09 -2.38132e-09 0 5.37093e-09 -3.06098e-09 0 2.6457e-09 -2.80482e-09 0 8.20924e-10 -2.01736e-09 0 -4.63015e-10 -8.80251e-10 0 -1.44946e-09 5.7364e-10 0 -2.25881e-09 2.589e-09 0 -2.81036e-09 5.50746e-09 0 -2.49449e-09 1.02476e-08 0 1.3755e-09 1.8828e-08 0 2.10788e-08 3.37281e-08 0 1.0723e-07 3.10484e-08 0 1.84145e-07 -7.56775e-08 0 -7.79226e-05 -0.00192906 0 0.000110116 -0.00674797 0 3.41405e-06 -2.70268e-06 0 -3.56547e-06 -4.06181e-06 0 -3.61091e-06 -1.08839e-06 0 -2.27141e-06 2.34147e-07 0 -1.25635e-06 6.29018e-07 0 -6.34923e-07 6.67661e-07 0 -2.79122e-07 5.80499e-07 0 -8.64533e-08 4.585e-07 0 1.08271e-08 3.41725e-07 0 5.26078e-08 2.41698e-07 0 6.41327e-08 1.63066e-07 0 6.05389e-08 1.04838e-07 0 5.06001e-08 6.38349e-08 0 3.91256e-08 3.62963e-08 0 2.85042e-08 1.86867e-08 0 1.97046e-08 8.07778e-09 0 1.29146e-08 2.13328e-09 0 7.93698e-09 -8.53145e-10 0 4.42315e-09 -2.02034e-09 0 2.00229e-09 -2.10383e-09 0 3.46566e-10 -1.53758e-09 0 -7.97576e-10 -5.36457e-10 0 -1.58863e-09 8.30362e-10 0 -2.05503e-09 2.75035e-09 0 -1.9509e-09 5.45226e-09 0 -3.19537e-10 9.49046e-09 0 6.12727e-09 1.55139e-08 0 2.81967e-08 2.07351e-08 0 8.53047e-08 -4.28203e-09 0 6.24791e-08 -3.19234e-08 0 -4.85073e-05 -0.00142346 0 0.000113608 -0.00615339 0 2.83518e-06 -6.30169e-07 0 -1.69612e-06 -3.12618e-06 0 -2.68909e-06 -1.33248e-06 0 -2.00576e-06 -1.10397e-07 0 -1.24351e-06 3.85918e-07 0 -7.05709e-07 5.17982e-07 0 -3.68901e-07 4.9377e-07 0 -1.70417e-07 4.11307e-07 0 -5.8812e-08 3.1759e-07 0 -1.03916e-09 2.31178e-07 0 2.50477e-08 1.6008e-07 0 3.34113e-08 1.05658e-07 0 3.2633e-08 6.62698e-08 0 2.78017e-08 3.91369e-08 0 2.17704e-08 2.13282e-08 0 1.59981e-08 1.02725e-08 0 1.11117e-08 3.83298e-09 0 7.27189e-09 3.99809e-10 0 4.40441e-09 -1.12865e-09 0 2.33954e-09 -1.48316e-09 0 8.93126e-10 -1.1102e-09 0 -8.51064e-11 -2.47064e-10 0 -6.73112e-10 1.00519e-09 0 -8.21548e-10 2.76642e-09 0 -1.7464e-10 5.1278e-09 0 2.36362e-09 8.24009e-09 0 9.87352e-09 1.1562e-08 0 2.92679e-08 9.78174e-09 0 5.86316e-08 -1.72565e-08 0 2.07328e-08 -5.75753e-09 0 -3.29407e-05 -0.00109059 0 0.000112712 -0.0055046 0 2.1292e-06 2.46548e-07 0 -6.45029e-07 -2.23763e-06 0 -1.89756e-06 -1.32632e-06 0 -1.69417e-06 -3.27114e-07 0 -1.17728e-06 1.92893e-07 0 -7.3911e-07 3.84942e-07 0 -4.34826e-07 4.09879e-07 0 -2.39544e-07 3.61375e-07 0 -1.19417e-07 2.88922e-07 0 -4.93433e-08 2.15956e-07 0 -1.10277e-08 1.52952e-07 0 7.84735e-09 1.03149e-07 0 1.53654e-08 6.62002e-08 0 1.66898e-08 4.01903e-08 0 1.49975e-08 2.27546e-08 0 1.21437e-08 1.16781e-08 0 9.13215e-09 5.04346e-09 0 6.4421e-09 1.36394e-09 0 4.24961e-09 -4.00594e-10 0 2.5722e-09 -9.55639e-10 0 1.36151e-09 -7.44587e-10 0 5.64949e-10 -1.6639e-11 0 1.77394e-10 1.10118e-09 0 3.06657e-10 2.65847e-09 0 1.35602e-09 4.60789e-09 0 4.36855e-09 6.74157e-09 0 1.16922e-08 7.75562e-09 0 2.61883e-08 2.25739e-09 0 3.72389e-08 -1.86612e-08 0 6.24112e-09 5.75533e-09 0 -2.39254e-05 -0.000855043 0 0.000110289 -0.00483861 0 1.55987e-06 5.83031e-07 0 -1.06071e-07 -1.54245e-06 0 -1.28026e-06 -1.18515e-06 0 -1.38152e-06 -4.37465e-07 0 -1.07778e-06 5.12016e-08 0 -7.43316e-07 2.72551e-07 0 -4.80158e-07 3.32009e-07 0 -2.95e-07 3.10851e-07 0 -1.71207e-07 2.57145e-07 0 -9.21099e-08 1.96958e-07 0 -4.37461e-08 1.42277e-07 0 -1.57842e-08 9.76866e-08 0 -8.74148e-10 6.3851e-08 0 6.05539e-09 3.95843e-08 0 8.38612e-09 2.30315e-08 0 8.28451e-09 1.23232e-08 0 7.07267e-09 5.77263e-09 0 5.50903e-09 2.03657e-09 0 3.99454e-09 1.56917e-10 0 2.71806e-09 -5.28652e-10 0 1.75692e-09 -4.46247e-10 0 1.14862e-09 1.53431e-10 0 9.50945e-10 1.1249e-09 0 1.30897e-09 2.45285e-09 0 2.61455e-09 3.97127e-09 0 5.7146e-09 5.21318e-09 0 1.20245e-08 4.57854e-09 0 2.14383e-08 -2.04635e-09 0 2.27034e-08 -1.57882e-08 0 1.20452e-09 9.81186e-09 0 -1.83622e-05 -0.000678562 0 0.000107514 -0.00417166 0 1.14935e-06 6.72583e-07 0 1.52409e-07 -1.04177e-06 0 -8.30269e-07 -9.90148e-07 0 -1.09974e-06 -4.68655e-07 0 -9.64957e-07 -4.32324e-08 0 -7.27827e-07 1.82232e-07 0 -5.0893e-07 2.62182e-07 0 -3.38199e-07 2.6137e-07 0 -2.14371e-07 2.23457e-07 0 -1.29005e-07 1.75032e-07 0 -7.26011e-08 1.2864e-07 0 -3.69732e-08 8.96632e-08 0 -1.56447e-08 5.94785e-08 0 -3.75283e-09 3.74783e-08 0 2.19473e-09 2.22533e-08 0 4.60201e-09 1.22594e-08 0 5.05382e-09 6.0456e-09 0 4.54748e-09 2.42758e-09 0 3.6807e-09 5.4586e-10 0 2.7945e-09 -2.03274e-10 0 2.07882e-09 -2.15964e-10 0 1.65106e-09 2.65634e-10 0 1.62059e-09 1.08646e-09 0 2.15011e-09 2.17844e-09 0 3.57675e-09 3.29046e-09 0 6.48389e-09 3.81318e-09 0 1.14409e-08 2.2085e-09 0 1.67584e-08 -4.01074e-09 0 1.37141e-08 -1.20834e-08 0 -6.53641e-10 1.05052e-08 0 -1.471e-05 -0.000539982 0 0.000104864 -0.00351055 0 8.5901e-07 6.4553e-07 0 2.61808e-07 -6.95544e-07 0 -5.15148e-07 -7.88239e-07 0 -8.60396e-07 -4.45656e-07 0 -8.51294e-07 -9.70048e-08 0 -7.00074e-07 1.13615e-07 0 -5.24999e-07 2.01455e-07 0 -3.71006e-07 2.14069e-07 0 -2.49709e-07 1.88795e-07 0 -1.60285e-07 1.5089e-07 0 -9.75849e-08 1.12562e-07 0 -5.55991e-08 7.94477e-08 0 -2.8793e-08 5.33339e-08 0 -1.25882e-08 3.4037e-08 0 -3.45327e-09 2.05224e-08 0 1.19199e-09 1.15471e-08 0 3.14556e-09 5.89566e-09 0 3.60597e-09 2.55341e-09 0 3.34019e-09 7.73182e-10 0 2.822e-09 2.29216e-11 0 2.34026e-09 -5.22807e-11 0 2.08177e-09 3.2357e-10 0 2.19657e-09 9.9577e-10 0 2.84894e-09 1.86046e-09 0 4.29267e-09 2.62195e-09 0 6.83023e-09 2.63692e-09 0 1.03758e-08 6.36473e-10 0 1.27041e-08 -4.48537e-09 0 8.22456e-09 -8.78968e-09 0 -1.23606e-09 9.68119e-09 0 -1.22476e-05 -0.000426713 0 0.000102553 -0.00285759 0 6.57214e-07 5.62494e-07 0 2.98525e-07 -4.59233e-07 0 -3.01983e-07 -6.01775e-07 0 -6.68289e-07 -3.88914e-07 0 -7.47018e-07 -1.18141e-07 0 -6.67035e-07 6.47131e-08 0 -5.32089e-07 1.49894e-07 0 -3.95126e-07 1.6957e-07 0 -2.77832e-07 1.53843e-07 0 -1.86022e-07 1.25137e-07 0 -1.18536e-07 9.45331e-08 0 -7.1425e-08 6.74119e-08 0 -4.00835e-08 4.56865e-08 0 -2.02493e-08 2.94467e-08 0 -8.39988e-09 1.79623e-08 0 -1.82945e-09 1.02644e-08 0 1.42844e-09 5.36957e-09 0 2.73706e-09 2.44055e-09 0 3.00452e-09 8.53072e-10 0 2.8167e-09 1.57541e-10 0 2.54639e-09 4.99809e-11 0 2.43846e-09 3.33412e-10 0 2.67355e-09 8.63679e-10 0 3.4063e-09 1.52054e-09 0 4.79597e-09 2.00382e-09 0 6.89014e-09 1.719e-09 0 9.17426e-09 -2.65072e-10 0 9.52511e-09 -4.13411e-09 0 4.93475e-09 -6.18612e-09 0 -1.36987e-09 8.20915e-09 0 -1.05538e-05 -0.000330782 0 0.000100667 -0.00221284 0 5.19388e-07 4.52255e-07 0 3.02728e-07 -2.97216e-07 0 -1.62333e-07 -4.37936e-07 0 -5.22198e-07 -3.13026e-07 0 -6.58769e-07 -1.14529e-07 0 -6.34356e-07 3.25829e-08 0 -5.33517e-07 1.06792e-07 0 -4.12171e-07 1.28034e-07 0 -2.99365e-07 1.1904e-07 0 -2.06339e-07 9.8259e-08 0 -1.35351e-07 7.49906e-08 0 -8.42686e-08 5.39135e-08 0 -4.93261e-08 3.68088e-08 0 -2.65696e-08 2.3904e-08 0 -1.2513e-08 1.47081e-08 0 -4.36433e-09 8.50005e-09 0 -2.89046e-11 4.5231e-09 0 1.98595e-09 2.12249e-09 0 2.70124e-09 8.04908e-10 0 2.79328e-09 2.11916e-10 0 2.70285e-09 9.85253e-11 0 2.72121e-09 3.0263e-10 0 3.05084e-09 7.00333e-10 0 3.83083e-09 1.17431e-09 0 5.12949e-09 1.45496e-09 0 6.78875e-09 1.04996e-09 0 8.05851e-09 -6.57061e-10 0 7.19802e-09 -3.37878e-09 0 2.98786e-09 -4.20744e-09 0 -1.35118e-09 6.47451e-09 0 -9.38784e-06 -0.000246841 0 9.92432e-05 -0.00157519 0 4.28368e-07 3.28807e-07 0 2.95144e-07 -1.83489e-07 0 -7.44583e-08 -2.9577e-07 0 -4.18109e-07 -2.27397e-07 0 -5.90431e-07 -9.32405e-08 0 -6.06333e-07 1.37336e-08 0 -5.32065e-07 7.08342e-08 0 -4.23582e-07 8.92271e-08 0 -3.14913e-07 8.46011e-08 0 -2.21398e-07 7.06334e-08 0 -1.47987e-07 5.43272e-08 0 -9.40054e-08 3.92959e-08 0 -5.63806e-08 2.69745e-08 0 -3.14225e-08 1.76131e-08 0 -1.569e-08 1.09044e-08 0 -6.33524e-09 6.35169e-09 0 -1.17162e-09 3.41953e-09 0 1.3893e-09 1.63857e-09 0 2.45302e-09 6.52463e-10 0 2.76418e-09 2.00523e-10 0 2.815e-09 1.03135e-10 0 2.93137e-09 2.39574e-10 0 3.33039e-09 5.14672e-10 0 4.13467e-09 8.31124e-10 0 5.33617e-09 9.77384e-10 0 6.62771e-09 5.91877e-10 0 7.15589e-09 -6.92175e-10 0 5.604e-09 -2.45517e-09 0 1.85721e-09 -2.69822e-09 0 -1.2934e-09 4.64476e-09 0 -8.60664e-06 -0.00017109 0 9.82914e-05 -0.000942898 0 3.73042e-07 1.99086e-07 0 2.86136e-07 -9.94695e-08 0 -2.33963e-08 -1.70473e-07 0 -3.51607e-07 -1.37456e-07 0 -5.44061e-07 -6.03046e-08 0 -5.86019e-07 4.42454e-09 0 -5.29878e-07 4.02674e-08 0 -4.30518e-07 5.25998e-08 0 -3.24986e-07 5.05615e-08 0 -2.31353e-07 4.25448e-08 0 -1.56425e-07 3.28948e-08 0 -1.0055e-07 2.38898e-08 0 -6.11452e-08 1.64575e-08 0 -3.4714e-08 1.07841e-08 0 -1.78537e-08 6.7031e-09 0 -7.68377e-09 3.9241e-09 0 -1.958e-09 2.12807e-09 0 9.75096e-10 1.03282e-09 0 2.27735e-09 4.22999e-10 0 2.73914e-09 1.40341e-10 0 2.88723e-09 7.5214e-11 0 3.07052e-09 1.5316e-10 0 3.51492e-09 3.14305e-10 0 4.32966e-09 4.94659e-10 0 5.45228e-09 5.59892e-10 0 6.48095e-09 2.91011e-10 0 6.53109e-09 -4.98607e-10 0 4.61855e-09 -1.4782e-09 0 1.23719e-09 -1.50183e-09 0 -1.24132e-09 2.78853e-09 0 -8.12493e-06 -0.000100659 0 9.78138e-05 -0.000313926 0 3.46822e-07 6.66175e-08 0 2.8063e-07 -3.1472e-08 0 3.85957e-11 -5.56473e-08 0 -3.19191e-07 -4.59391e-08 0 -5.20613e-07 -2.08061e-08 0 -5.7535e-07 8.39487e-10 0 -5.2841e-07 1.30449e-08 0 -4.33789e-07 1.73725e-08 0 -3.29945e-07 1.68178e-08 0 -2.36317e-07 1.42076e-08 0 -1.6066e-07 1.1014e-08 0 -1.03847e-07 8.01508e-09 0 -6.35533e-08 5.53129e-09 0 -3.63818e-08 3.63084e-09 0 -1.89528e-08 2.26122e-09 0 -8.3706e-09 1.32698e-09 0 -2.35986e-09 7.22169e-10 0 7.62353e-10 3.52623e-10 0 2.18613e-09 1.46305e-10 0 2.72485e-09 5.01553e-11 0 2.92267e-09 2.73167e-11 0 3.13998e-09 5.26276e-11 0 3.60682e-09 1.05657e-10 0 4.42499e-09 1.6412e-10 0 5.50375e-09 1.82031e-10 0 6.39574e-09 8.62533e-11 0 6.21252e-09 -1.79477e-10 0 4.1485e-09 -4.92521e-10 0 9.62498e-10 -4.81713e-10 0 -1.21224e-09 9.29241e-10 0 -7.89429e-06 -3.32297e-05 0 9.78138e-05 0.000313926 0 3.46822e-07 -6.66175e-08 0 2.8063e-07 3.1472e-08 0 3.85957e-11 5.56473e-08 0 -3.19191e-07 4.59391e-08 0 -5.20613e-07 2.08061e-08 0 -5.7535e-07 -8.39487e-10 0 -5.2841e-07 -1.30449e-08 0 -4.33789e-07 -1.73725e-08 0 -3.29945e-07 -1.68178e-08 0 -2.36317e-07 -1.42076e-08 0 -1.6066e-07 -1.1014e-08 0 -1.03847e-07 -8.01508e-09 0 -6.35533e-08 -5.53129e-09 0 -3.63818e-08 -3.63084e-09 0 -1.89528e-08 -2.26122e-09 0 -8.3706e-09 -1.32698e-09 0 -2.35986e-09 -7.22169e-10 0 7.62353e-10 -3.52623e-10 0 2.18613e-09 -1.46305e-10 0 2.72485e-09 -5.01553e-11 0 2.92267e-09 -2.73167e-11 0 3.13998e-09 -5.26276e-11 0 3.60682e-09 -1.05657e-10 0 4.42499e-09 -1.6412e-10 0 5.50375e-09 -1.82031e-10 0 6.39574e-09 -8.62535e-11 0 6.21252e-09 1.79477e-10 0 4.1485e-09 4.92521e-10 0 9.62498e-10 4.81713e-10 0 -1.21224e-09 -9.29241e-10 0 -7.89429e-06 3.32297e-05 0 9.82914e-05 0.000942898 0 3.73042e-07 -1.99086e-07 0 2.86136e-07 9.94695e-08 0 -2.33963e-08 1.70473e-07 0 -3.51607e-07 1.37456e-07 0 -5.44061e-07 6.03046e-08 0 -5.86019e-07 -4.42454e-09 0 -5.29878e-07 -4.02674e-08 0 -4.30518e-07 -5.25998e-08 0 -3.24986e-07 -5.05615e-08 0 -2.31353e-07 -4.25448e-08 0 -1.56425e-07 -3.28948e-08 0 -1.0055e-07 -2.38898e-08 0 -6.11452e-08 -1.64575e-08 0 -3.4714e-08 -1.07841e-08 0 -1.78537e-08 -6.7031e-09 0 -7.68377e-09 -3.9241e-09 0 -1.958e-09 -2.12807e-09 0 9.75096e-10 -1.03282e-09 0 2.27735e-09 -4.22999e-10 0 2.73914e-09 -1.40341e-10 0 2.88723e-09 -7.52141e-11 0 3.07052e-09 -1.5316e-10 0 3.51492e-09 -3.14305e-10 0 4.32966e-09 -4.94659e-10 0 5.45228e-09 -5.59892e-10 0 6.48095e-09 -2.91011e-10 0 6.53109e-09 4.98607e-10 0 4.61855e-09 1.4782e-09 0 1.23719e-09 1.50183e-09 0 -1.24132e-09 -2.78853e-09 0 -8.12493e-06 0.000100659 0 9.92432e-05 0.00157519 0 4.28368e-07 -3.28807e-07 0 2.95144e-07 1.83489e-07 0 -7.44583e-08 2.9577e-07 0 -4.18109e-07 2.27397e-07 0 -5.90431e-07 9.32405e-08 0 -6.06333e-07 -1.37336e-08 0 -5.32065e-07 -7.08342e-08 0 -4.23582e-07 -8.92271e-08 0 -3.14913e-07 -8.46011e-08 0 -2.21398e-07 -7.06334e-08 0 -1.47987e-07 -5.43272e-08 0 -9.40054e-08 -3.92959e-08 0 -5.63806e-08 -2.69745e-08 0 -3.14225e-08 -1.76131e-08 0 -1.569e-08 -1.09044e-08 0 -6.33524e-09 -6.35169e-09 0 -1.17162e-09 -3.41953e-09 0 1.3893e-09 -1.63857e-09 0 2.45302e-09 -6.52463e-10 0 2.76418e-09 -2.00523e-10 0 2.815e-09 -1.03135e-10 0 2.93137e-09 -2.39574e-10 0 3.33039e-09 -5.14672e-10 0 4.13467e-09 -8.31124e-10 0 5.33617e-09 -9.77383e-10 0 6.62771e-09 -5.91877e-10 0 7.15589e-09 6.92175e-10 0 5.604e-09 2.45517e-09 0 1.8572e-09 2.69822e-09 0 -1.2934e-09 -4.64476e-09 0 -8.60664e-06 0.00017109 0 0.000100667 0.00221284 0 5.19388e-07 -4.52255e-07 0 3.02728e-07 2.97216e-07 0 -1.62333e-07 4.37936e-07 0 -5.22198e-07 3.13026e-07 0 -6.58769e-07 1.14529e-07 0 -6.34356e-07 -3.25829e-08 0 -5.33517e-07 -1.06792e-07 0 -4.12171e-07 -1.28034e-07 0 -2.99365e-07 -1.1904e-07 0 -2.06339e-07 -9.8259e-08 0 -1.35351e-07 -7.49906e-08 0 -8.42686e-08 -5.39135e-08 0 -4.93261e-08 -3.68088e-08 0 -2.65696e-08 -2.3904e-08 0 -1.2513e-08 -1.47081e-08 0 -4.36433e-09 -8.50005e-09 0 -2.89046e-11 -4.5231e-09 0 1.98595e-09 -2.12249e-09 0 2.70124e-09 -8.04908e-10 0 2.79328e-09 -2.11916e-10 0 2.70285e-09 -9.85253e-11 0 2.72121e-09 -3.0263e-10 0 3.05084e-09 -7.00333e-10 0 3.83083e-09 -1.17431e-09 0 5.12949e-09 -1.45496e-09 0 6.78875e-09 -1.04996e-09 0 8.05851e-09 6.5706e-10 0 7.19802e-09 3.37878e-09 0 2.98786e-09 4.20744e-09 0 -1.35118e-09 -6.47451e-09 0 -9.38784e-06 0.000246841 0 0.000102553 0.00285759 0 6.57214e-07 -5.62494e-07 0 2.98525e-07 4.59233e-07 0 -3.01983e-07 6.01775e-07 0 -6.68289e-07 3.88914e-07 0 -7.47018e-07 1.18141e-07 0 -6.67035e-07 -6.47131e-08 0 -5.32089e-07 -1.49894e-07 0 -3.95126e-07 -1.6957e-07 0 -2.77832e-07 -1.53843e-07 0 -1.86022e-07 -1.25137e-07 0 -1.18536e-07 -9.45331e-08 0 -7.1425e-08 -6.74119e-08 0 -4.00835e-08 -4.56865e-08 0 -2.02493e-08 -2.94467e-08 0 -8.39988e-09 -1.79623e-08 0 -1.82945e-09 -1.02644e-08 0 1.42844e-09 -5.36957e-09 0 2.73706e-09 -2.44055e-09 0 3.00452e-09 -8.53072e-10 0 2.8167e-09 -1.57541e-10 0 2.54639e-09 -4.99808e-11 0 2.43846e-09 -3.33413e-10 0 2.67355e-09 -8.63679e-10 0 3.4063e-09 -1.52054e-09 0 4.79597e-09 -2.00382e-09 0 6.89014e-09 -1.719e-09 0 9.17426e-09 2.65072e-10 0 9.52511e-09 4.13411e-09 0 4.93475e-09 6.18612e-09 0 -1.36987e-09 -8.20915e-09 0 -1.05538e-05 0.000330782 0 0.000104864 0.00351055 0 8.5901e-07 -6.4553e-07 0 2.61808e-07 6.95544e-07 0 -5.15148e-07 7.88239e-07 0 -8.60396e-07 4.45656e-07 0 -8.51294e-07 9.70048e-08 0 -7.00074e-07 -1.13615e-07 0 -5.24999e-07 -2.01455e-07 0 -3.71006e-07 -2.14069e-07 0 -2.49709e-07 -1.88795e-07 0 -1.60285e-07 -1.5089e-07 0 -9.75849e-08 -1.12562e-07 0 -5.55991e-08 -7.94477e-08 0 -2.8793e-08 -5.33339e-08 0 -1.25882e-08 -3.4037e-08 0 -3.45327e-09 -2.05224e-08 0 1.19199e-09 -1.15471e-08 0 3.14556e-09 -5.89566e-09 0 3.60597e-09 -2.55341e-09 0 3.34019e-09 -7.73182e-10 0 2.822e-09 -2.29216e-11 0 2.34026e-09 5.22807e-11 0 2.08177e-09 -3.2357e-10 0 2.19657e-09 -9.9577e-10 0 2.84894e-09 -1.86046e-09 0 4.29267e-09 -2.62195e-09 0 6.83023e-09 -2.63692e-09 0 1.03758e-08 -6.36473e-10 0 1.27041e-08 4.48537e-09 0 8.22456e-09 8.78967e-09 0 -1.23606e-09 -9.68119e-09 0 -1.22476e-05 0.000426713 0 0.000107514 0.00417166 0 1.14935e-06 -6.72583e-07 0 1.52409e-07 1.04177e-06 0 -8.30269e-07 9.90148e-07 0 -1.09974e-06 4.68655e-07 0 -9.64957e-07 4.32324e-08 0 -7.27827e-07 -1.82232e-07 0 -5.0893e-07 -2.62182e-07 0 -3.38199e-07 -2.6137e-07 0 -2.14371e-07 -2.23457e-07 0 -1.29005e-07 -1.75032e-07 0 -7.26011e-08 -1.2864e-07 0 -3.69732e-08 -8.96632e-08 0 -1.56447e-08 -5.94785e-08 0 -3.75283e-09 -3.74783e-08 0 2.19473e-09 -2.22533e-08 0 4.60201e-09 -1.22594e-08 0 5.05382e-09 -6.0456e-09 0 4.54748e-09 -2.42758e-09 0 3.6807e-09 -5.4586e-10 0 2.7945e-09 2.03274e-10 0 2.07882e-09 2.15964e-10 0 1.65106e-09 -2.65634e-10 0 1.62059e-09 -1.08646e-09 0 2.15011e-09 -2.17844e-09 0 3.57675e-09 -3.29046e-09 0 6.48389e-09 -3.81318e-09 0 1.14409e-08 -2.2085e-09 0 1.67584e-08 4.01074e-09 0 1.37141e-08 1.20834e-08 0 -6.53641e-10 -1.05052e-08 0 -1.471e-05 0.000539982 0 0.000110289 0.00483861 0 1.55987e-06 -5.83031e-07 0 -1.06071e-07 1.54245e-06 0 -1.28026e-06 1.18515e-06 0 -1.38152e-06 4.37465e-07 0 -1.07778e-06 -5.12016e-08 0 -7.43316e-07 -2.72551e-07 0 -4.80158e-07 -3.32009e-07 0 -2.95e-07 -3.10851e-07 0 -1.71207e-07 -2.57145e-07 0 -9.21099e-08 -1.96958e-07 0 -4.37461e-08 -1.42277e-07 0 -1.57842e-08 -9.76866e-08 0 -8.74148e-10 -6.3851e-08 0 6.05539e-09 -3.95843e-08 0 8.38612e-09 -2.30315e-08 0 8.28451e-09 -1.23232e-08 0 7.07267e-09 -5.77263e-09 0 5.50903e-09 -2.03657e-09 0 3.99454e-09 -1.56917e-10 0 2.71806e-09 5.28652e-10 0 1.75692e-09 4.46247e-10 0 1.14862e-09 -1.53431e-10 0 9.50945e-10 -1.1249e-09 0 1.30897e-09 -2.45285e-09 0 2.61455e-09 -3.97127e-09 0 5.7146e-09 -5.21318e-09 0 1.20245e-08 -4.57854e-09 0 2.14383e-08 2.04635e-09 0 2.27034e-08 1.57882e-08 0 1.20452e-09 -9.81187e-09 0 -1.83622e-05 0.000678562 0 0.000112712 0.0055046 0 2.1292e-06 -2.46548e-07 0 -6.45029e-07 2.23763e-06 0 -1.89756e-06 1.32632e-06 0 -1.69417e-06 3.27114e-07 0 -1.17728e-06 -1.92893e-07 0 -7.3911e-07 -3.84942e-07 0 -4.34826e-07 -4.09879e-07 0 -2.39544e-07 -3.61375e-07 0 -1.19417e-07 -2.88922e-07 0 -4.93433e-08 -2.15956e-07 0 -1.10277e-08 -1.52952e-07 0 7.84735e-09 -1.03149e-07 0 1.53654e-08 -6.62002e-08 0 1.66898e-08 -4.01903e-08 0 1.49975e-08 -2.27546e-08 0 1.21437e-08 -1.16781e-08 0 9.13215e-09 -5.04346e-09 0 6.4421e-09 -1.36394e-09 0 4.24961e-09 4.00594e-10 0 2.5722e-09 9.55639e-10 0 1.36151e-09 7.44587e-10 0 5.6495e-10 1.6639e-11 0 1.77394e-10 -1.10118e-09 0 3.06658e-10 -2.65847e-09 0 1.35602e-09 -4.60789e-09 0 4.36855e-09 -6.74157e-09 0 1.16922e-08 -7.75562e-09 0 2.61883e-08 -2.25739e-09 0 3.72389e-08 1.86612e-08 0 6.24112e-09 -5.75533e-09 0 -2.39254e-05 0.000855043 0 0.000113608 0.00615339 0 2.83518e-06 6.30169e-07 0 -1.69612e-06 3.12618e-06 0 -2.68909e-06 1.33248e-06 0 -2.00576e-06 1.10397e-07 0 -1.24351e-06 -3.85918e-07 0 -7.05709e-07 -5.17982e-07 0 -3.68901e-07 -4.9377e-07 0 -1.70417e-07 -4.11307e-07 0 -5.8812e-08 -3.1759e-07 0 -1.03916e-09 -2.31178e-07 0 2.50477e-08 -1.6008e-07 0 3.34113e-08 -1.05658e-07 0 3.2633e-08 -6.62698e-08 0 2.78017e-08 -3.91369e-08 0 2.17704e-08 -2.13282e-08 0 1.59981e-08 -1.02725e-08 0 1.11117e-08 -3.83298e-09 0 7.27189e-09 -3.99809e-10 0 4.40441e-09 1.12865e-09 0 2.33954e-09 1.48316e-09 0 8.93126e-10 1.1102e-09 0 -8.51068e-11 2.47064e-10 0 -6.73112e-10 -1.00519e-09 0 -8.21548e-10 -2.76642e-09 0 -1.74639e-10 -5.1278e-09 0 2.36362e-09 -8.24009e-09 0 9.87352e-09 -1.1562e-08 0 2.92679e-08 -9.78174e-09 0 5.86316e-08 1.72565e-08 0 2.07328e-08 5.75753e-09 0 -3.29407e-05 0.00109059 0 0.000110116 0.00674797 0 3.41405e-06 2.70268e-06 0 -3.56547e-06 4.06181e-06 0 -3.61091e-06 1.08839e-06 0 -2.27141e-06 -2.34147e-07 0 -1.25635e-06 -6.29018e-07 0 -6.34923e-07 -6.67661e-07 0 -2.79122e-07 -5.80499e-07 0 -8.64533e-08 -4.585e-07 0 1.08271e-08 -3.41725e-07 0 5.26078e-08 -2.41698e-07 0 6.41327e-08 -1.63066e-07 0 6.05389e-08 -1.04838e-07 0 5.06001e-08 -6.38349e-08 0 3.91256e-08 -3.62963e-08 0 2.85042e-08 -1.86867e-08 0 1.97046e-08 -8.07778e-09 0 1.29146e-08 -2.13328e-09 0 7.93698e-09 8.53145e-10 0 4.42315e-09 2.02034e-09 0 2.00229e-09 2.10383e-09 0 3.46565e-10 1.53758e-09 0 -7.97576e-10 5.36457e-10 0 -1.58863e-09 -8.30362e-10 0 -2.05503e-09 -2.75035e-09 0 -1.9509e-09 -5.45226e-09 0 -3.19538e-10 -9.49046e-09 0 6.12727e-09 -1.55139e-08 0 2.81967e-08 -2.07351e-08 0 8.53047e-08 4.28203e-09 0 6.24791e-08 3.19234e-08 0 -4.85073e-05 0.00142346 0 9.46025e-05 0.0072012 0 2.62161e-06 7.33864e-06 0 -6.5155e-06 4.58057e-06 0 -4.53197e-06 4.67508e-07 0 -2.42964e-06 -7.13125e-07 0 -1.19346e-06 -9.14151e-07 0 -5.18183e-07 -8.27386e-07 0 -1.61815e-07 -6.65862e-07 0 1.41271e-08 -5.00373e-07 0 9.04766e-08 -3.59708e-07 0 1.12259e-07 -2.4651e-07 0 1.06804e-07 -1.61293e-07 0 8.98376e-08 -1.00328e-07 0 6.99538e-08 -5.86936e-08 0 5.14407e-08 -3.15669e-08 0 3.60646e-08 -1.47876e-08 0 2.42013e-08 -5.08443e-09 0 1.55353e-08 4.86349e-11 0 9.47316e-09 2.38132e-09 0 5.37093e-09 3.06098e-09 0 2.6457e-09 2.80482e-09 0 8.20924e-10 2.01736e-09 0 -4.63015e-10 8.80251e-10 0 -1.44946e-09 -5.7364e-10 0 -2.2588e-09 -2.589e-09 0 -2.81036e-09 -5.50746e-09 0 -2.49449e-09 -1.02476e-08 0 1.3755e-09 -1.8828e-08 0 2.10788e-08 -3.37281e-08 0 1.0723e-07 -3.10484e-08 0 1.84145e-07 7.56775e-08 0 -7.79226e-05 0.00192906 0 4.39615e-05 0.00729011 0 -4.14093e-06 1.64183e-05 0 -1.04236e-05 3.77061e-06 0 -5.28316e-06 -6.10361e-07 0 -2.47826e-06 -1.30817e-06 0 -1.10238e-06 -1.22543e-06 0 -4.17704e-07 -9.88018e-07 0 -8.45571e-08 -7.44709e-07 0 6.13198e-08 -5.33943e-07 0 1.08762e-07 -3.69736e-07 0 1.05767e-07 -2.4453e-07 0 8.04892e-08 -1.5413e-07 0 4.85341e-08 -9.17752e-08 0 1.78529e-08 -5.06687e-08 0 -8.08887e-09 -2.48745e-08 0 -2.83427e-08 -9.61461e-09 0 -4.3249e-08 -1.30502e-09 0 -5.37011e-08 2.68817e-09 0 -6.07303e-08 4.15732e-09 0 -6.52977e-08 4.22499e-09 0 -6.82071e-08 3.5643e-09 0 -7.00862e-08 2.53206e-09 0 -7.14001e-08 1.26568e-09 0 -7.24766e-08 -2.41946e-10 0 -7.35332e-08 -2.27595e-09 0 -7.46889e-08 -5.24511e-09 0 -7.58473e-08 -1.02975e-08 0 -7.57955e-08 -2.05635e-08 0 -6.55226e-08 -4.50233e-08 0 2.53785e-08 -9.3558e-08 0 4.34973e-07 6.3654e-08 0 -0.000140934 0.00277324 0 -0.000125489 0.0063493 0 -2.97751e-05 2.66353e-05 0 -1.58285e-05 6.07002e-07 0 -7.33272e-06 -2.10095e-06 0 -4.14344e-06 -1.97421e-06 0 -2.79052e-06 -1.54382e-06 0 -2.18763e-06 -1.14216e-06 0 -1.93626e-06 -8.14289e-07 0 -1.86002e-06 -5.58375e-07 0 -1.86892e-06 -3.71767e-07 0 -1.9151e-06 -2.35978e-07 0 -1.97206e-06 -1.41886e-07 0 -2.02628e-06 -7.94851e-08 0 -2.07192e-06 -4.0018e-08 0 -2.10745e-06 -1.64154e-08 0 -2.13349e-06 -3.29929e-09 0 -2.15163e-06 3.1905e-09 0 -2.16366e-06 5.77253e-09 0 -2.17126e-06 6.22105e-09 0 -2.17581e-06 5.60152e-09 0 -2.1784e-06 4.51852e-09 0 -2.17981e-06 3.26406e-09 0 -2.18065e-06 1.92161e-09 0 -2.18133e-06 4.41527e-10 0 -2.18226e-06 -1.47807e-09 0 -2.18392e-06 -4.24853e-09 0 -2.18713e-06 -9.01829e-09 0 -2.19341e-06 -1.92502e-08 0 -2.20363e-06 -4.81393e-08 0 -2.17921e-06 -1.56667e-07 0 -1.23452e-06 -4.64364e-07 0 -0.000301934 0.00438148 0 -0.000814122 0.00105177 0 0.000422993 1.59415e-05 0 0.000435192 -4.29399e-06 0 0.000441252 -3.8669e-06 0 0.000451122 -2.92769e-06 0 0.000462134 -2.17367e-06 0 0.00047244 -1.58362e-06 0 0.000481186 -1.12245e-06 0 0.000488128 -7.66464e-07 0 0.00049336 -5.09611e-07 0 0.00049713 -3.22301e-07 0 0.000499738 -1.92963e-07 0 0.000501468 -1.07431e-07 0 0.000502561 -5.33856e-08 0 0.000503207 -2.09584e-08 0 0.000503545 -2.68606e-09 0 0.000503672 6.7595e-09 0 0.000503655 1.11092e-08 0 0.000503532 1.27853e-08 0 0.000503326 1.32379e-08 0 0.000503049 1.32816e-08 0 0.000502704 1.32903e-08 0 0.000502291 1.3321e-08 0 0.00050181 1.31897e-08 0 0.000501261 1.2366e-08 0 0.000500645 1.0143e-08 0 0.000499957 5.11354e-09 0 0.00049917 -6.2464e-09 0 0.000498186 -3.77474e-08 0 0.00049667 -1.77592e-07 0 0.000493471 -2.3817e-06 0 -0.000836505 0.0082946 0 -0.0211099 0.0157207 0 -0.0183296 -0.00032575 0 -0.0173503 -6.27031e-05 0 -0.0172964 9.10264e-06 0 -0.0175836 3.22357e-05 0 -0.0179715 3.73856e-05 0 -0.0183567 3.49471e-05 0 -0.0186946 2.94726e-05 0 -0.0189698 2.32249e-05 0 -0.0191823 1.74419e-05 0 -0.0193393 1.25257e-05 0 -0.019451 8.63315e-06 0 -0.0195274 5.699e-06 0 -0.0195774 3.56755e-06 0 -0.0196082 2.05994e-06 0 -0.0196253 1.00893e-06 0 -0.0196326 2.75603e-07 0 -0.0196326 -2.5161e-07 0 -0.019627 -6.55188e-07 0 -0.0196168 -9.91361e-07 0 -0.0196025 -1.29723e-06 0 -0.0195842 -1.59496e-06 0 -0.0195618 -1.89527e-06 0 -0.0195353 -2.20173e-06 0 -0.0195041 -2.5141e-06 0 -0.0194676 -2.8532e-06 0 -0.0194239 -3.28874e-06 0 -0.019368 -4.02774e-06 0 -0.0192873 -5.68222e-06 0 -0.0191422 -1.06489e-05 0 -0.0187312 -4.05735e-05 0 -0.00719838 -0.00616083 0 </DataArray> 
</PointData> 
<Points> 
<DataArray type="Float32" NumberOfComponents="3"> 