<?xml version="1.0"?> 
<VTKFile type="StructuredGrid" version="0.1"> 
<StructuredGrid WholeExtent="0 31 0 31 0 0"> 
<Piece Extent="0 31 0 31 0 0"> 
<PointData>
<DataArray type="Float32" Name="B" format="ascii" NumberOfComponents="3"> 
0.00232161 -0.0123217 0 -0.000376456 0.000285124 0 -0.000121345 5.70382e-05 0 -8.35086e-05 -8.05006e-06 0 -7.52648e-05 -2.931e-05 0 -7.26514e-05 -3.41546e-05 0 -7.02262e-05 -3.20232e-05 0 -6.67364e-05 -2.70776e-05 0 -6.21928e-05 -2.13973e-05 0 -5.71217e-05 -1.61103e-05 0 -5.19291e-05 -1.1605e-05 0 -4.70428e-05 -8.02707e-06 0 -4.27549e-05 -5.32088e-06 0 -3.9246e-05 -3.34715e-06 0 -3.66136e-05 -1.94412e-06 0 -3.49022e-05 -9.59718e-07 0 -3.41291e-05 -2.67169e-07 0 -3.43059e-05 2.35691e-07 0 -3.54545e-05 6.24607e-07 0 -3.76199e-05 9.51384e-07 0 -4.08816e-05 1.2504e-06 0 -4.53666e-05 1.54247e-06 0 -5.12665e-05 1.83843e-06 0 -5.88689e-05 2.14356e-06 0 -6.86141e-05 2.46148e-06 0 -8.12418e-05 2.82044e-06 0 -9.809e-05 3.30281e-06 0 -0.000121896 4.14185e-06 0 -0.000159146 6.02338e-06 0 -0.000229397 1.16526e-05 0 -0.000430014 4.51494e-05 0 0.000816389 0.00514061 0 -0.000112787 -0.000436442 0 -0.000267296 -0.000139651 0 -0.000157342 -4.05314e-05 0 -0.000103463 -3.57666e-05 0 -8.20925e-05 -3.89972e-05 0 -7.23324e-05 -3.9084e-05 0 -6.63868e-05 -3.61427e-05 0 -6.14988e-05 -3.14758e-05 0 -5.68066e-05 -2.61783e-05 0 -5.21743e-05 -2.09814e-05 0 -4.77225e-05 -1.62816e-05 0 -4.36337e-05 -1.22476e-05 0 -4.00745e-05 -8.89552e-06 0 -3.71702e-05 -6.15546e-06 0 -3.50047e-05 -3.918e-06 0 -3.36305e-05 -2.06322e-06 0 -3.30831e-05 -4.77618e-07 0 -3.33941e-05 9.43531e-07 0 -3.46033e-05 2.29143e-06 0 -3.677e-05 3.6447e-06 0 -3.99832e-05 5.07576e-06 0 -4.43731e-05 6.65722e-06 0 -5.01259e-05 8.4722e-06 0 -5.75052e-05 1.06348e-05 0 -6.68896e-05 1.33232e-05 0 -7.88485e-05 1.69234e-05 0 -9.43093e-05 2.22392e-05 0 -0.000114908 3.11718e-05 0 -0.000143547 4.86889e-05 0 -0.000183634 8.96884e-05 0 -0.000215315 0.000201428 0 -5.60607e-05 0.000359995 0 -5.63759e-05 -0.000218035 0 -0.00012388 -0.000152168 0 -0.000117952 -8.95294e-05 0 -9.55374e-05 -6.29232e-05 0 -7.92564e-05 -5.28027e-05 0 -6.89064e-05 -4.71214e-05 0 -6.17596e-05 -4.19354e-05 0 -5.61663e-05 -3.64374e-05 0 -5.13635e-05 -3.07862e-05 0 -4.70495e-05 -2.5313e-05 0 -4.31484e-05 -2.02664e-05 0 -3.96879e-05 -1.57721e-05 0 -3.67327e-05 -1.18523e-05 0 -3.43514e-05 -8.4605e-06 0 -3.26024e-05 -5.51141e-06 0 -3.15325e-05 -2.90221e-06 0 -3.11813e-05 -5.26426e-07 0 -3.15883e-05 1.72383e-06 0 -3.28006e-05 3.95254e-06 0 -3.48816e-05 6.26066e-06 0 -3.79184e-05 8.75251e-06 0 -4.20309e-05 1.15431e-05 0 -4.73795e-05 1.47702e-05 0 -5.417e-05 1.86175e-05 0 -6.26483e-05 2.33446e-05 0 -7.30682e-05 2.94661e-05 0 -8.56128e-05 3.79576e-05 0 -0.000100193 5.08957e-05 0 -0.000115588 7.24788e-05 0 -0.000125792 0.000109689 0 -0.00011042 0.000165314 0 -4.45883e-05 0.000204766 0 -3.87528e-05 -0.000150752 0 -7.30606e-05 -0.000128037 0 -8.33107e-05 -9.77954e-05 0 -7.87691e-05 -7.62182e-05 0 -7.0467e-05 -6.34404e-05 0 -6.25162e-05 -5.50936e-05 0 -5.57237e-05 -4.81702e-05 0 -5.01147e-05 -4.15699e-05 0 -4.54669e-05 -3.51992e-05 0 -4.15281e-05 -2.91948e-05 0 -3.81396e-05 -2.36809e-05 0 -3.52372e-05 -1.87105e-05 0 -3.28157e-05 -1.4275e-05 0 -3.08989e-05 -1.03207e-05 0 -2.95204e-05 -6.76531e-06 0 -2.87164e-05 -3.51042e-06 0 -2.85234e-05 -4.50546e-07 0 -2.89805e-05 2.52661e-06 0 -3.01343e-05 5.53563e-06 0 -3.20436e-05 8.69524e-06 0 -3.47857e-05 1.21345e-05 0 -3.84616e-05 1.59997e-05 0 -4.31998e-05 2.0463e-05 0 -4.91514e-05 2.5735e-05 0 -5.64574e-05 3.20579e-05 0 -6.51308e-05 3.98071e-05 0 -7.47554e-05 4.95572e-05 0 -8.40711e-05 6.25611e-05 0 -9.05231e-05 8.08419e-05 0 -8.91095e-05 0.000105552 0 -7.23168e-05 0.000132468 0 -3.83029e-05 0.000147901 0 -3.19012e-05 -0.000118654 0 -5.21931e-05 -0.000109143 0 -6.27035e-05 -9.41285e-05 0 -6.43496e-05 -8.03325e-05 0 -6.08659e-05 -7.00063e-05 0 -5.48971e-05 -6.19853e-05 0 -4.84579e-05 -5.42378e-05 0 -4.31027e-05 -4.65004e-05 0 -3.88812e-05 -3.92346e-05 0 -3.54732e-05 -3.25735e-05 0 -3.26546e-05 -2.65408e-05 0 -3.03101e-05 -2.11062e-05 0 -2.83957e-05 -1.62119e-05 0 -2.69081e-05 -1.17801e-05 0 -2.58641e-05 -7.71848e-06 0 -2.529e-05 -3.92504e-06 0 -2.52165e-05 -2.91327e-07 0 -2.56783e-05 3.29973e-06 0 -2.67156e-05 6.97087e-06 0 -2.83771e-05 1.08538e-05 0 -3.07241e-05 1.50955e-05 0 -3.38346e-05 1.98644e-05 0 -3.78074e-05 2.53565e-05 0 -4.27629e-05 3.17961e-05 0 -4.8834e-05 3.93878e-05 0 -5.60914e-05 4.82586e-05 0 -6.40207e-05 5.80727e-05 0 -7.04093e-05 6.89025e-05 0 -7.2664e-05 8.19825e-05 0 -6.83498e-05 9.7085e-05 0 -5.54107e-05 0.000111027 0 -3.4979e-05 0.000118307 0 -2.9261e-05 -9.9826e-05 0 -4.26905e-05 -9.57438e-05 0 -5.13685e-05 -8.82628e-05 0 -5.47375e-05 -8.04237e-05 0 -5.36073e-05 -7.40646e-05 0 -4.79456e-05 -6.92338e-05 0 -3.9744e-05 -6.02615e-05 0 -3.49287e-05 -5.09056e-05 0 -3.14922e-05 -4.26424e-05 0 -2.88353e-05 -3.53171e-05 0 -2.66953e-05 -2.87981e-05 0 -2.49474e-05 -2.29581e-05 0 -2.35403e-05 -1.7684e-05 0 -2.24632e-05 -1.28682e-05 0 -2.17266e-05 -8.40344e-06 0 -2.13514e-05 -4.18077e-06 0 -2.13631e-05 -8.78802e-08 0 -2.17899e-05 3.99584e-06 0 -2.26625e-05 8.19799e-06 0 -2.40154e-05 1.26581e-05 0 -2.58898e-05 1.75344e-05 0 -2.83365e-05 2.30112e-05 0 -3.1422e-05 2.93058e-05 0 -3.52416e-05 3.66745e-05 0 -3.99581e-05 4.5377e-05 0 -4.59782e-05 5.56809e-05 0 -5.50253e-05 6.60975e-05 0 -6.08653e-05 7.26606e-05 0 -6.13539e-05 8.05785e-05 0 -5.67802e-05 8.92404e-05 0 -4.70541e-05 9.65922e-05 0 -3.34083e-05 0.000100102 0 -2.86566e-05 -8.72575e-05 0 -3.84072e-05 -8.58662e-05 0 -4.55788e-05 -8.24918e-05 0 -4.95112e-05 -7.8758e-05 0 -5.02025e-05 -7.61568e-05 0 -4.78303e-05 -7.62223e-05 0 -4.40276e-05 -6.51698e-05 0 -4.10756e-05 -5.4197e-05 0 -3.89214e-05 -4.51007e-05 0 -3.72556e-05 -3.7259e-05 0 -3.59096e-05 -3.03783e-05 0 -3.48044e-05 -2.42449e-05 0 -3.39122e-05 -1.86985e-05 0 -3.32333e-05 -1.36057e-05 0 -3.27824e-05 -8.84678e-06 0 -3.25803e-05 -4.30738e-06 0 -3.26492e-05 1.2685e-07 0 -3.30105e-05 4.57707e-06 0 -3.36842e-05 9.17145e-06 0 -3.46883e-05 1.40514e-05 0 -3.60402e-05 1.93792e-05 0 -3.77583e-05 2.53469e-05 0 -3.98664e-05 3.21879e-05 0 -4.24056e-05 4.01962e-05 0 -4.54617e-05 4.97316e-05 0 -4.92139e-05 6.14565e-05 0 -5.35545e-05 7.35276e-05 0 -5.60653e-05 7.45979e-05 0 -5.50873e-05 7.82087e-05 0 -5.06046e-05 8.25918e-05 0 -4.29317e-05 8.62005e-05 0 -3.29851e-05 8.76218e-05 0 -2.91652e-05 -7.79973e-05 0 -3.68719e-05 -7.80644e-05 0 -4.31471e-05 -7.70347e-05 0 -4.75232e-05 -7.59177e-05 0 -4.99246e-05 -7.58296e-05 0 -5.06152e-05 -7.78616e-05 0 -5.02883e-05 -6.71314e-05 0 -4.9699e-05 -5.57465e-05 0 -4.91342e-05 -4.6317e-05 0 -4.86178e-05 -3.82566e-05 0 -4.81386e-05 -3.12193e-05 0 -4.77002e-05 -2.49494e-05 0 -4.73204e-05 -1.92619e-05 0 -4.70238e-05 -1.4011e-05 0 -4.68371e-05 -9.07174e-06 0 -4.67854e-05 -4.32951e-06 0 -4.68899e-05 3.27915e-07 0 -4.7166e-05 5.01789e-06 0 -4.76227e-05 9.86397e-06 0 -4.82609e-05 1.50027e-05 0 -4.90726e-05 2.05917e-05 0 -5.00399e-05 2.6819e-05 0 -5.11339e-05 3.39184e-05 0 -5.23164e-05 4.21935e-05 0 -5.35376e-05 5.20219e-05 0 -5.46909e-05 6.39999e-05 0 -5.54013e-05 7.54733e-05 0 -5.48519e-05 7.42403e-05 0 -5.23533e-05 7.50564e-05 0 -4.77298e-05 7.67253e-05 0 -4.11984e-05 7.81122e-05 0 -3.33356e-05 7.82949e-05 0 -3.0287e-05 -7.05897e-05 0 -3.68563e-05 -7.14248e-05 0 -4.27035e-05 -7.16777e-05 0 -4.75779e-05 -7.20406e-05 0 -5.14599e-05 -7.33581e-05 0 -5.44675e-05 -7.65046e-05 0 -5.67081e-05 -6.64338e-05 0 -5.82755e-05 -5.53928e-05 0 -5.93078e-05 -4.61704e-05 0 -5.99537e-05 -3.82512e-05 0 -6.03349e-05 -3.13038e-05 0 -6.05434e-05 -2.5078e-05 0 -6.06492e-05 -1.93927e-05 0 -6.07067e-05 -1.41068e-05 0 -6.07582e-05 -9.10117e-06 0 -6.08353e-05 -4.26755e-06 0 -6.09593e-05 4.98729e-07 0 -6.11412e-05 5.30622e-06 0 -6.13799e-05 1.02683e-05 0 -6.16605e-05 1.55098e-05 0 -6.19512e-05 2.11735e-05 0 -6.21981e-05 2.743e-05 0 -6.23188e-05 3.44916e-05 0 -6.21937e-05 4.2636e-05 0 -6.16591e-05 5.22088e-05 0 -6.05145e-05 6.37243e-05 0 -5.85722e-05 7.43602e-05 0 -5.57093e-05 7.18125e-05 0 -5.18247e-05 7.10593e-05 0 -4.68472e-05 7.11741e-05 0 -4.08635e-05 7.1302e-05 0 -3.41759e-05 7.07857e-05 0 -3.16722e-05 -6.42544e-05 0 -3.75733e-05 -6.54105e-05 0 -4.32381e-05 -6.62353e-05 0 -4.86141e-05 -6.72143e-05 0 -5.38417e-05 -6.90323e-05 0 -5.90279e-05 -7.26693e-05 0 -6.36718e-05 -6.33959e-05 0 -6.72548e-05 -5.32473e-05 0 -6.97347e-05 -4.47234e-05 0 -7.1425e-05 -3.72941e-05 0 -7.25782e-05 -3.06786e-05 0 -7.33661e-05 -2.46732e-05 0 -7.39051e-05 -1.91287e-05 0 -7.42759e-05 -1.39254e-05 0 -7.45349e-05 -8.96038e-06 0 -7.47198e-05 -4.13914e-06 0 -7.48529e-05 6.3037e-07 0 -7.49412e-05 5.44316e-06 0 -7.4976e-05 1.03976e-05 0 -7.49294e-05 1.56001e-05 0 -7.47504e-05 2.11704e-05 0 -7.43559e-05 2.72476e-05 0 -7.36183e-05 3.40004e-05 0 -7.23455e-05 4.16482e-05 0 -7.02564e-05 5.04772e-05 0 -6.70052e-05 6.10133e-05 0 -6.2606e-05 7.07332e-05 0 -5.75621e-05 6.75673e-05 0 -5.23788e-05 6.62066e-05 0 -4.69728e-05 6.56429e-05 0 -4.12365e-05 6.51825e-05 0 -3.52482e-05 6.43527e-05 0 -3.30949e-05 -5.85865e-05 0 -3.85592e-05 -5.9761e-05 0 -4.4105e-05 -6.06685e-05 0 -4.98342e-05 -6.15911e-05 0 -5.61495e-05 -6.29424e-05 0 -6.4081e-05 -6.57038e-05 0 -7.25085e-05 -5.79387e-05 0 -7.7887e-05 -4.95474e-05 0 -8.1479e-05 -4.21891e-05 0 -8.39722e-05 -3.55376e-05 0 -8.57356e-05 -2.94504e-05 0 -8.69928e-05 -2.38118e-05 0 -8.78882e-05 -1.85259e-05 0 -8.85184e-05 -1.35072e-05 0 -8.89483e-05 -8.67697e-06 0 -8.92195e-05 -3.95951e-06 0 -8.93543e-05 7.20429e-07 0 -8.93573e-05 5.44081e-06 0 -8.92141e-05 1.02813e-05 0 -8.88889e-05 1.53259e-05 0 -8.83188e-05 2.06647e-05 0 -8.74038e-05 2.63957e-05 0 -8.59904e-05 3.26271e-05 0 -8.38403e-05 3.94827e-05 0 -8.0565e-05 4.71069e-05 0 -7.54571e-05 5.58212e-05 0 -6.72371e-05 6.39506e-05 0 -5.94412e-05 6.15734e-05 0 -5.31916e-05 6.06035e-05 0 -4.747e-05 6.0042e-05 0 -4.18898e-05 5.9468e-05 0 -3.63628e-05 5.86021e-05 0 -3.43802e-05 -5.33829e-05 0 -3.9492e-05 -5.43961e-05 0 -4.48343e-05 -5.51046e-05 0 -5.05416e-05 -5.55864e-05 0 -5.69925e-05 -5.58143e-05 0 -6.51404e-05 -5.50087e-05 0 -7.39375e-05 -5.08127e-05 0 -7.97304e-05 -4.49108e-05 0 -8.37837e-05 -3.89542e-05 0 -8.67127e-05 -3.32246e-05 0 -8.8859e-05 -2.77774e-05 0 -9.04366e-05 -2.26005e-05 0 -9.1588e-05 -1.76577e-05 0 -9.24096e-05 -1.2902e-05 0 -9.29666e-05 -8.28187e-06 0 -9.33004e-05 -3.74293e-06 0 -9.3432e-05 7.71339e-07 0 -9.33642e-05 5.32013e-06 0 -9.30804e-05 9.96293e-06 0 -9.25422e-05 1.47597e-05 0 -9.16848e-05 1.97694e-05 0 -9.04081e-05 2.50471e-05 0 -8.85625e-05 3.06361e-05 0 -8.59231e-05 3.6553e-05 0 -8.21354e-05 4.27422e-05 0 -7.65709e-05 4.8918e-05 0 -6.79542e-05 5.34183e-05 0 -5.99329e-05 5.4545e-05 0 -5.35552e-05 5.46408e-05 0 -4.78737e-05 5.44734e-05 0 -4.25183e-05 5.40637e-05 0 -3.73625e-05 5.33326e-05 0 -3.54629e-05 -4.85632e-05 0 -4.02252e-05 -4.93387e-05 0 -4.52515e-05 -4.97561e-05 0 -5.06169e-05 -4.97721e-05 0 -5.64449e-05 -4.92044e-05 0 -6.27198e-05 -4.76253e-05 0 -6.88556e-05 -4.44689e-05 0 -7.39668e-05 -4.02079e-05 0 -7.79596e-05 -3.54646e-05 0 -8.10231e-05 -3.06205e-05 0 -8.33601e-05 -2.58305e-05 0 -8.51297e-05 -2.11539e-05 0 -8.64491e-05 -1.66019e-05 0 -8.74028e-05 -1.21613e-05 0 -8.80493e-05 -7.80588e-06 0 -8.84261e-05 -3.50192e-06 0 -8.85521e-05 7.88561e-07 0 -8.84285e-05 5.10624e-06 0 -8.80389e-05 9.49103e-06 0 -8.7347e-05 1.39802e-05 0 -8.62932e-05 1.86049e-05 0 -8.47899e-05 2.3383e-05 0 -8.27143e-05 2.83077e-05 0 -7.98994e-05 3.33219e-05 0 -7.61334e-05 3.82695e-05 0 -7.12187e-05 4.27656e-05 0 -6.52417e-05 4.61808e-05 0 -5.90839e-05 4.8033e-05 0 -5.3331e-05 4.88783e-05 0 -4.80012e-05 4.91366e-05 0 -4.29757e-05 4.89845e-05 0 -3.81838e-05 4.84623e-05 0 -3.62914e-05 -4.40998e-05 0 -4.06952e-05 -4.46346e-05 0 -4.53272e-05 -4.47879e-05 0 -5.01968e-05 -4.44867e-05 0 -5.52899e-05 -4.3591e-05 0 -6.04789e-05 -4.18953e-05 0 -6.5429e-05 -3.92928e-05 0 -6.98357e-05 -3.59133e-05 0 -7.352e-05 -3.20452e-05 0 -7.65001e-05 -2.7945e-05 0 -7.8863e-05 -2.37615e-05 0 -8.07036e-05 -1.9578e-05 0 -8.21043e-05 -1.54322e-05 0 -8.31298e-05 -1.13342e-05 0 -8.38272e-05 -7.27788e-06 0 -8.42276e-05 -3.24733e-06 0 -8.43463e-05 7.78963e-07 0 -8.4184e-05 4.82504e-06 0 -8.37259e-05 8.91357e-06 0 -8.29412e-05 1.30628e-05 0 -8.17812e-05 1.72818e-05 0 -8.01783e-05 2.15634e-05 0 -7.80457e-05 2.58722e-05 0 -7.52828e-05 3.01257e-05 0 -7.17963e-05 3.41737e-05 0 -6.75617e-05 3.77572e-05 0 -6.27532e-05 4.05824e-05 0 -5.76723e-05 4.25129e-05 0 -5.26527e-05 4.36489e-05 0 -4.78236e-05 4.41897e-05 0 -4.32012e-05 4.42708e-05 0 -3.8779e-05 4.39616e-05 0 -3.68904e-05 -3.99786e-05 0 -4.09396e-05 -4.03072e-05 0 -4.51632e-05 -4.02632e-05 0 -4.9535e-05 -3.97828e-05 0 -5.39991e-05 -3.87795e-05 0 -5.84391e-05 -3.71641e-05 0 -6.26756e-05 -3.49116e-05 0 -6.65187e-05 -3.20918e-05 0 -6.98553e-05 -2.88482e-05 0 -7.26561e-05 -2.53417e-05 0 -7.4947e-05 -2.1686e-05 0 -7.67758e-05 -1.79608e-05 0 -7.8193e-05 -1.42125e-05 0 -7.92432e-05 -1.04643e-05 0 -7.99608e-05 -6.7237e-06 0 -8.03692e-05 -2.98838e-06 0 -8.04801e-05 7.4979e-07 0 -8.02937e-05 4.50114e-06 0 -7.97979e-05 8.27445e-06 0 -7.89687e-05 1.20735e-05 0 -7.77701e-05 1.58925e-05 0 -7.6155e-05 1.971e-05 0 -7.40693e-05 2.34805e-05 0 -7.14607e-05 2.71246e-05 0 -6.8299e-05 3.0527e-05 0 -6.46088e-05 3.35249e-05 0 -6.04998e-05 3.59706e-05 0 -5.61595e-05 3.77895e-05 0 -5.17664e-05 3.90018e-05 0 -4.74373e-05 3.9692e-05 0 -4.32292e-05 3.99424e-05 0 -3.91704e-05 3.9814e-05 0 -3.73086e-05 -3.61831e-05 0 -4.10204e-05 -3.63493e-05 0 -4.48568e-05 -3.61713e-05 0 -4.8777e-05 -3.56013e-05 0 -5.27189e-05 -3.45885e-05 0 -5.65903e-05 -3.30927e-05 0 -6.02781e-05 -3.11115e-05 0 -6.36675e-05 -2.86912e-05 0 -6.66778e-05 -2.59125e-05 0 -6.92701e-05 -2.28796e-05 0 -7.14414e-05 -1.96741e-05 0 -7.32096e-05 -1.63623e-05 0 -7.46014e-05 -1.29898e-05 0 -7.56439e-05 -9.58494e-06 0 -7.63597e-05 -6.16331e-06 0 -7.67651e-05 -2.73193e-06 0 -7.68682e-05 7.07342e-07 0 -7.66687e-05 4.15443e-06 0 -7.61577e-05 7.60783e-06 0 -7.5318e-05 1.10614e-05 0 -7.41251e-05 1.45004e-05 0 -7.25499e-05 1.78973e-05 0 -7.05626e-05 2.12071e-05 0 -6.81421e-05 2.4363e-05 0 -6.5288e-05 2.72821e-05 0 -6.20358e-05 2.98584e-05 0 -5.84637e-05 3.20081e-05 0 -5.46844e-05 3.36812e-05 0 -5.08104e-05 3.48765e-05 0 -4.69336e-05 3.56303e-05 0 -4.3117e-05 3.59902e-05 0 -3.94026e-05 3.60011e-05 0 -3.75541e-05 -3.26898e-05 0 -4.09602e-05 -3.27346e-05 0 -4.44521e-05 -3.24709e-05 0 -4.79874e-05 -3.18647e-05 0 -5.15099e-05 -3.08859e-05 0 -5.49482e-05 -2.95153e-05 0 -5.82208e-05 -2.77587e-05 0 -6.12499e-05 -2.56477e-05 0 -6.39745e-05 -2.32333e-05 0 -6.6358e-05 -2.05862e-05 0 -6.83866e-05 -1.77647e-05 0 -7.00628e-05 -1.48215e-05 0 -7.1398e-05 -1.17972e-05 0 -7.24068e-05 -8.72079e-06 0 -7.31028e-05 -5.61179e-06 0 -7.3496e-05 -2.48301e-06 0 -7.35915e-05 6.56895e-07 0 -7.33888e-05 3.80058e-06 0 -7.28819e-05 6.93954e-06 0 -7.20594e-05 1.00614e-05 0 -7.09061e-05 1.31471e-05 0 -6.94053e-05 1.61679e-05 0 -6.75434e-05 1.90833e-05 0 -6.53152e-05 2.184e-05 0 -6.27317e-05 2.43786e-05 0 -5.98271e-05 2.66265e-05 0 -5.66604e-05 2.85306e-05 0 -5.33078e-05 3.00562e-05 0 -4.98499e-05 3.11947e-05 0 -4.63581e-05 3.19622e-05 0 -4.28889e-05 3.2386e-05 0 -3.94856e-05 3.24977e-05 0 -3.7689e-05 -2.9471e-05 0 -4.08195e-05 -2.94281e-05 0 -4.40059e-05 -2.91134e-05 0 -4.72085e-05 -2.85026e-05 0 -5.03788e-05 -2.75774e-05 0 -5.34605e-05 -2.63285e-05 0 -5.63931e-05 -2.47637e-05 0 -5.91194e-05 -2.29061e-05 0 -6.15923e-05 -2.07897e-05 0 -6.37792e-05 -1.84652e-05 0 -6.56621e-05 -1.59748e-05 0 -6.72351e-05 -1.33599e-05 0 -6.85e-05 -1.06552e-05 0 -6.94624e-05 -7.88806e-06 0 -7.0129e-05 -5.07932e-06 0 -7.05052e-05 -2.24487e-06 0 -7.05935e-05 6.02473e-07 0 -7.03936e-05 3.45076e-06 0 -6.99014e-05 6.2872e-06 0 -6.91103e-05 9.09606e-06 0 -6.80121e-05 1.18567e-05 0 -6.65993e-05 1.45417e-05 0 -6.48682e-05 1.71163e-05 0 -6.28225e-05 1.95382e-05 0 -6.04781e-05 2.17641e-05 0 -5.78655e-05 2.37421e-05 0 -5.50304e-05 2.54361e-05 0 -5.20287e-05 2.68207e-05 0 -4.892e-05 2.78859e-05 0 -4.57606e-05 2.86381e-05 0 -4.2599e-05 2.90938e-05 0 -3.94756e-05 2.92747e-05 0 -3.77362e-05 -2.64981e-05 0 -4.06224e-05 -2.63946e-05 0 -4.35421e-05 -2.60534e-05 0 -4.64596e-05 -2.54575e-05 0 -4.9334e-05 -2.45949e-05 0 -5.21197e-05 -2.34615e-05 0 -5.47701e-05 -2.20648e-05 0 -5.72407e-05 -2.04222e-05 0 -5.9494e-05 -1.85579e-05 0 -6.15013e-05 -1.65094e-05 0 -6.32437e-05 -1.4308e-05 0 -6.4711e-05 -1.19866e-05 0 -6.58993e-05 -9.57433e-06 0 -6.68084e-05 -7.0959e-06 0 -6.74402e-05 -4.57184e-06 0 -6.77965e-05 -2.01927e-06 0 -6.78783e-05 5.46854e-07 0 -6.76849e-05 3.11206e-06 0 -6.72143e-05 5.66135e-06 0 -6.6463e-05 8.17762e-06 0 -6.5428e-05 1.06403e-05 0 -6.41077e-05 1.30246e-05 0 -6.25042e-05 1.53009e-05 0 -6.06262e-05 1.74357e-05 0 -5.84907e-05 1.93966e-05 0 -5.61248e-05 2.11449e-05 0 -5.35648e-05 2.26549e-05 0 -5.08539e-05 2.39072e-05 0 -4.80385e-05 2.48922e-05 0 -4.51635e-05 2.56124e-05 0 -4.22701e-05 2.60775e-05 0 -3.93944e-05 2.63026e-05 0 -3.77144e-05 -2.37428e-05 0 -4.03883e-05 -2.35993e-05 0 -4.30793e-05 -2.32491e-05 0 -4.5756e-05 -2.268e-05 0 -4.83834e-05 -2.18842e-05 0 -5.09241e-05 -2.08597e-05 0 -5.33403e-05 -1.96133e-05 0 -5.55961e-05 -1.81586e-05 0 -5.76603e-05 -1.65132e-05 0 -5.95078e-05 -1.47059e-05 0 -6.11202e-05 -1.27606e-05 0 -6.24856e-05 -1.07034e-05 0 -6.35968e-05 -8.5588e-06 0 -6.44504e-05 -6.34868e-06 0 -6.50451e-05 -4.09236e-06 0 -6.53806e-05 -1.80693e-06 0 -6.54564e-05 4.91943e-07 0 -6.5272e-05 2.78878e-06 0 -6.48265e-05 5.06782e-06 0 -6.41189e-05 7.31189e-06 0 -6.31493e-05 9.50156e-06 0 -6.19195e-05 1.16147e-05 0 -6.04352e-05 1.36264e-05 0 -5.87068e-05 1.55098e-05 0 -5.67514e-05 1.72401e-05 0 -5.45926e-05 1.87876e-05 0 -5.22607e-05 2.01331e-05 0 -4.97906e-05 2.12616e-05 0 -4.72196e-05 2.21647e-05 0 -4.45848e-05 2.28426e-05 0 -4.19212e-05 2.33015e-05 0 -3.92606e-05 2.3552e-05 0 -3.7651e-05 -2.11788e-05 0 -4.01379e-05 -2.10113e-05 0 -4.26293e-05 -2.06648e-05 0 -4.50976e-05 -2.01304e-05 0 -4.75129e-05 -1.94027e-05 0 -4.98439e-05 -1.84811e-05 0 -5.20593e-05 -1.73715e-05 0 -5.41294e-05 -1.60843e-05 0 -5.60278e-05 -1.46331e-05 0 -5.77325e-05 -1.30404e-05 0 -5.92259e-05 -1.13246e-05 0 -6.04956e-05 -9.5071e-06 0 -6.15327e-05 -7.60822e-06 0 -6.2332e-05 -5.64716e-06 0 -6.28899e-05 -3.64156e-06 0 -6.32047e-05 -1.60775e-06 0 -6.32751e-05 4.38869e-07 0 -6.31007e-05 2.48287e-06 0 -6.26812e-05 4.50871e-06 0 -6.20175e-05 6.49997e-06 0 -6.11114e-05 8.43882e-06 0 -5.99673e-05 1.03058e-05 0 -5.85925e-05 1.208e-05 0 -5.69983e-05 1.37396e-05 0 -5.52009e-05 1.52653e-05 0 -5.32212e-05 1.66335e-05 0 -5.10848e-05 1.78298e-05 0 -4.88206e-05 1.88422e-05 0 -4.64594e-05 1.96635e-05 0 -4.40323e-05 2.0293e-05 0 -4.15692e-05 2.07345e-05 0 -3.90978e-05 2.09959e-05 0 -3.75565e-05 -1.87822e-05 0 -3.98823e-05 -1.8603e-05 0 -4.22031e-05 -1.82696e-05 0 -4.44946e-05 -1.77751e-05 0 -4.67309e-05 -1.7116e-05 0 -4.88854e-05 -1.62921e-05 0 -5.09315e-05 -1.53083e-05 0 -5.28439e-05 -1.41732e-05 0 -5.45999e-05 -1.2897e-05 0 -5.61798e-05 -1.14979e-05 0 -5.75674e-05 -9.99044e-06 0 -5.87503e-05 -8.39192e-06 0 -5.97191e-05 -6.71952e-06 0 -6.04672e-05 -4.98983e-06 0 -6.09902e-05 -3.21869e-06 0 -6.12854e-05 -1.42114e-06 0 -6.13511e-05 3.88235e-07 0 -6.11867e-05 2.19478e-06 0 -6.07928e-05 3.9838e-06 0 -6.01709e-05 5.74011e-06 0 -5.93243e-05 7.44768e-06 0 -5.82583e-05 9.0896e-06 0 -5.69812e-05 1.06483e-05 0 -5.55043e-05 1.21058e-05 0 -5.38426e-05 1.34469e-05 0 -5.2015e-05 1.46526e-05 0 -5.00435e-05 1.57118e-05 0 -4.79525e-05 1.66147e-05 0 -4.57683e-05 1.73552e-05 0 -4.35172e-05 1.79325e-05 0 -4.12253e-05 1.83487e-05 0 -3.89167e-05 1.86097e-05 0 -3.74446e-05 -1.65305e-05 0 -3.96314e-05 -1.63493e-05 0 -4.18059e-05 -1.60359e-05 0 -4.39466e-05 -1.5585e-05 0 -4.60308e-05 -1.49941e-05 0 -4.80354e-05 -1.42634e-05 0 -4.99374e-05 -1.3397e-05 0 -5.17151e-05 -1.24017e-05 0 -5.33484e-05 -1.12858e-05 0 -5.48196e-05 -1.00637e-05 0 -5.61139e-05 -8.74718e-06 0 -5.72192e-05 -7.35042e-06 0 -5.8126e-05 -5.88783e-06 0 -5.88274e-05 -4.37369e-06 0 -5.93183e-05 -2.82194e-06 0 -5.95954e-05 -1.24617e-06 0 -5.96569e-05 3.40292e-07 0 -5.95022e-05 1.92394e-06 0 -5.91322e-05 3.49131e-06 0 -5.8549e-05 5.02871e-06 0 -5.77565e-05 6.52197e-06 0 -5.67606e-05 7.95651e-06 0 -5.55699e-05 9.31753e-06 0 -5.41952e-05 1.05903e-05 0 -5.26506e-05 1.17625e-05 0 -5.0953e-05 1.28189e-05 0 -4.91216e-05 1.37504e-05 0 -4.71777e-05 1.45495e-05 0 -4.51438e-05 1.52108e-05 0 -4.30429e-05 1.57333e-05 0 -4.08976e-05 1.61185e-05 0 -3.87295e-05 1.63706e-05 0 -3.73252e-05 -1.44041e-05 0 -3.93915e-05 -1.42286e-05 0 -4.14397e-05 -1.39404e-05 0 -4.34507e-05 -1.35357e-05 0 -4.54044e-05 -1.30125e-05 0 -4.72805e-05 -1.23712e-05 0 -4.9059e-05 -1.16153e-05 0 -5.07206e-05 -1.07502e-05 0 -5.22475e-05 -9.78256e-06 0 -5.3624e-05 -8.7241e-06 0 -5.48361e-05 -7.58427e-06 0 -5.58725e-05 -6.37476e-06 0 -5.67238e-05 -5.10761e-06 0 -5.73829e-05 -3.795e-06 0 -5.78447e-05 -2.44905e-06 0 -5.81054e-05 -1.08173e-06 0 -5.81633e-05 2.95041e-07 0 -5.80176e-05 1.66917e-06 0 -5.76695e-05 3.02864e-06 0 -5.71214e-05 4.36134e-06 0 -5.63776e-05 5.65495e-06 0 -5.54442e-05 6.89702e-06 0 -5.43295e-05 8.07515e-06 0 -5.30441e-05 9.17719e-06 0 -5.1601e-05 1.01932e-05 0 -5.00153e-05 1.11107e-05 0 -4.83041e-05 1.19225e-05 0 -4.64862e-05 1.26223e-05 0 -4.45813e-05 1.32059e-05 0 -4.26094e-05 1.36722e-05 0 -4.05906e-05 1.4022e-05 0 -3.85442e-05 1.42586e-05 0 -3.72056e-05 -1.23849e-05 0 -3.91715e-05 -1.22209e-05 0 -4.1115e-05 -1.1962e-05 0 -4.30188e-05 -1.16052e-05 0 -4.48649e-05 -1.11491e-05 0 -4.66351e-05 -1.05941e-05 0 -4.83116e-05 -9.9431e-06 0 -4.9877e-05 -9.20057e-06 0 -5.13155e-05 -8.37164e-06 0 -5.26126e-05 -7.46596e-06 0 -5.37554e-05 -6.49113e-06 0 -5.47331e-05 -5.45674e-06 0 -5.55369e-05 -4.37279e-06 0 -5.61597e-05 -3.24955e-06 0 -5.65962e-05 -2.09737e-06 0 -5.68428e-05 -9.2662e-07 0 -5.68975e-05 2.52333e-07 0 -5.67599e-05 1.4289e-06 0 -5.64309e-05 2.5926e-06 0 -5.59132e-05 3.73296e-06 0 -5.52112e-05 4.83944e-06 0 -5.4331e-05 5.90154e-06 0 -5.32806e-05 6.90892e-06 0 -5.207e-05 7.85162e-06 0 -5.07113e-05 8.72153e-06 0 -4.92182e-05 9.50857e-06 0 -4.76063e-05 1.0207e-05 0 -4.58922e-05 1.08116e-05 0 -4.40935e-05 1.1319e-05 0 -4.22282e-05 1.17279e-05 0 -4.03143e-05 1.20392e-05 0 -3.83691e-05 1.22551e-05 0 -3.70915e-05 -1.04563e-05 0 -3.89722e-05 -1.03084e-05 0 -4.08272e-05 -1.00818e-05 0 -4.26406e-05 -9.77422e-06 0 -4.4396e-05 -9.38459e-06 0 -4.6077e-05 -8.9133e-06 0 -4.76674e-05 -8.36275e-06 0 -4.91517e-05 -7.7365e-06 0 -5.05152e-05 -7.03864e-06 0 -5.17447e-05 -6.27697e-06 0 -5.28282e-05 -5.45757e-06 0 -5.37557e-05 -4.58824e-06 0 -5.45185e-05 -3.67719e-06 0 -5.51097e-05 -2.73293e-06 0 -5.55243e-05 -1.76414e-06 0 -5.57586e-05 -7.79583e-07 0 -5.58107e-05 2.11922e-07 0 -5.568e-05 1.20135e-06 0 -5.53677e-05 2.17979e-06 0 -5.48765e-05 3.13838e-06 0 -5.42106e-05 4.06829e-06 0 -5.33761e-05 4.96078e-06 0 -5.23806e-05 5.80738e-06 0 -5.12337e-05 6.59996e-06 0 -4.99465e-05 7.33202e-06 0 -4.85318e-05 7.99539e-06 0 -4.70035e-05 8.58548e-06 0 -4.53768e-05 9.09817e-06 0 -4.36677e-05 9.53055e-06 0 -4.18924e-05 9.88169e-06 0 -4.00671e-05 1.0152e-05 0 -3.82077e-05 1.03432e-05 0 -3.69878e-05 -8.60312e-06 0 -3.87983e-05 -8.47506e-06 0 -4.05805e-05 -8.28318e-06 0 -4.23196e-05 -8.02571e-06 0 -4.40006e-05 -7.70197e-06 0 -4.56084e-05 -7.31228e-06 0 -4.71283e-05 -6.85855e-06 0 -4.85458e-05 -6.34361e-06 0 -4.98476e-05 -5.77066e-06 0 -5.10212e-05 -5.14589e-06 0 -5.20557e-05 -4.47413e-06 0 -5.29412e-05 -3.76158e-06 0 -5.36698e-05 -3.01485e-06 0 -5.42346e-05 -2.24083e-06 0 -5.46308e-05 -1.44662e-06 0 -5.48548e-05 -6.39411e-07 0 -5.49047e-05 1.73519e-07 0 -5.47799e-05 9.84708e-07 0 -5.44817e-05 1.7868e-06 0 -5.40127e-05 2.57252e-06 0 -5.3377e-05 3.33463e-06 0 -5.25805e-05 4.06607e-06 0 -5.16307e-05 4.76001e-06 0 -5.05364e-05 5.40997e-06 0 -4.93081e-05 6.01077e-06 0 -4.79577e-05 6.55595e-06 0 -4.6498e-05 7.04187e-06 0 -4.49431e-05 7.46528e-06 0 -4.33074e-05 7.82384e-06 0 -4.16058e-05 8.11677e-06 0 -3.98534e-05 8.3443e-06 0 -3.80647e-05 8.50777e-06 0 -3.68991e-05 -6.81113e-06 0 -3.86545e-05 -6.70565e-06 0 -4.03794e-05 -6.55023e-06 0 -4.20602e-05 -6.34359e-06 0 -4.36829e-05 -6.08524e-06 0 -4.52334e-05 -5.77543e-06 0 -4.66979e-05 -5.41568e-06 0 -4.8063e-05 -5.00814e-06 0 -4.93162e-05 -4.55526e-06 0 -5.04459e-05 -4.06181e-06 0 -5.14415e-05 -3.53148e-06 0 -5.22938e-05 -2.96908e-06 0 -5.29951e-05 -2.37975e-06 0 -5.35389e-05 -1.76887e-06 0 -5.39204e-05 -1.14201e-06 0 -5.41362e-05 -5.04871e-07 0 -5.41843e-05 1.36795e-07 0 -5.40643e-05 7.77068e-07 0 -5.37773e-05 1.41012e-06 0 -5.3326e-05 2.03021e-06 0 -5.27144e-05 2.63163e-06 0 -5.19482e-05 3.20888e-06 0 -5.10344e-05 3.75662e-06 0 -4.99816e-05 4.26986e-06 0 -4.87996e-05 4.74461e-06 0 -4.74997e-05 5.17588e-06 0 -4.60938e-05 5.5609e-06 0 -4.45951e-05 5.89717e-06 0 -4.30169e-05 6.18287e-06 0 -4.13733e-05 6.41736e-06 0 -3.9678e-05 6.60079e-06 0 -3.7945e-05 6.73412e-06 0 -3.68264e-05 -5.06715e-06 0 -3.85387e-05 -4.98633e-06 0 -4.02191e-05 -4.8687e-06 0 -4.18546e-05 -4.71336e-06 0 -4.3432e-05 -4.51997e-06 0 -4.4938e-05 -4.28874e-06 0 -4.63595e-05 -4.02077e-06 0 -4.76839e-05 -3.71763e-06 0 -4.88993e-05 -3.3811e-06 0 -4.99947e-05 -3.01465e-06 0 -5.09599e-05 -2.62096e-06 0 -5.17863e-05 -2.20356e-06 0 -5.24662e-05 -1.7662e-06 0 -5.29936e-05 -1.31286e-06 0 -5.33636e-05 -8.47647e-07 0 -5.35728e-05 -3.74794e-07 0 -5.36196e-05 1.01419e-07 0 -5.35033e-05 5.76589e-07 0 -5.32252e-05 1.04639e-06 0 -5.27878e-05 1.50654e-06 0 -5.21951e-05 1.95284e-06 0 -5.14524e-05 2.38123e-06 0 -5.05668e-05 2.78779e-06 0 -4.95463e-05 3.16887e-06 0 -4.84005e-05 3.52156e-06 0 -4.71398e-05 3.84224e-06 0 -4.57757e-05 4.12888e-06 0 -4.43205e-05 4.37967e-06 0 -4.2787e-05 4.59327e-06 0 -4.11884e-05 4.7692e-06 0 -3.95377e-05 4.90755e-06 0 -3.7848e-05 5.00898e-06 0 -3.67739e-05 -3.35872e-06 0 -3.84564e-05 -3.30405e-06 0 -4.01061e-05 -3.22514e-06 0 -4.17104e-05 -3.12142e-06 0 -4.32566e-05 -2.99267e-06 0 -4.47319e-05 -2.83904e-06 0 -4.61238e-05 -2.66126e-06 0 -4.74201e-05 -2.46034e-06 0 -4.86094e-05 -2.23745e-06 0 -4.9681e-05 -1.99484e-06 0 -5.06253e-05 -1.73429e-06 0 -5.14337e-05 -1.45808e-06 0 -5.20988e-05 -1.16869e-06 0 -5.26147e-05 -8.68727e-07 0 -5.29766e-05 -5.60914e-07 0 -5.31814e-05 -2.48041e-07 0 -5.32272e-05 6.70551e-08 0 -5.31136e-05 3.81458e-07 0 -5.28417e-05 6.923e-07 0 -5.24139e-05 9.96756e-07 0 -5.18342e-05 1.29205e-06 0 -5.1108e-05 1.57551e-06 0 -5.02418e-05 1.84456e-06 0 -4.92437e-05 2.09681e-06 0 -4.81228e-05 2.33037e-06 0 -4.68891e-05 2.54286e-06 0 -4.55538e-05 2.73296e-06 0 -4.41287e-05 2.89949e-06 0 -4.2626e-05 3.04157e-06 0 -4.10583e-05 3.15888e-06 0 -3.94384e-05 3.25147e-06 0 -3.77786e-05 3.31975e-06 0 -3.67418e-05 -1.67352e-06 0 -3.84067e-05 -1.64595e-06 0 -4.00382e-05 -1.60635e-06 0 -4.1624e-05 -1.55444e-06 0 -4.31517e-05 -1.49012e-06 0 -4.46088e-05 -1.41347e-06 0 -4.59831e-05 -1.32483e-06 0 -4.72627e-05 -1.22473e-06 0 -4.84365e-05 -1.11372e-06 0 -4.94941e-05 -9.92927e-07 0 -5.04259e-05 -8.6322e-07 0 -5.12235e-05 -7.25735e-07 0 -5.18798e-05 -5.81696e-07 0 -5.23889e-05 -4.32399e-07 0 -5.27461e-05 -2.79194e-07 0 -5.29482e-05 -1.23471e-07 0 -5.29934e-05 3.33589e-08 0 -5.28813e-05 1.89843e-07 0 -5.26131e-05 3.44553e-07 0 -5.21911e-05 4.96084e-07 0 -5.16192e-05 6.43058e-07 0 -5.09027e-05 7.84144e-07 0 -5.00481e-05 9.18074e-07 0 -4.90633e-05 1.04366e-06 0 -4.79571e-05 1.15997e-06 0 -4.67395e-05 1.26582e-06 0 -4.54213e-05 1.36057e-06 0 -4.4014e-05 1.44364e-06 0 -4.25296e-05 1.51458e-06 0 -4.09803e-05 1.57324e-06 0 -3.93785e-05 1.61964e-06 0 -3.77365e-05 1.65398e-06 0 -3.67296e-05 -0 0 -3.83879e-05 7.50829e-19 0 -4.00125e-05 -0 0 -4.15913e-05 -0 0 -4.31121e-05 -0 0 -4.45623e-05 -9.80545e-19 0 -4.593e-05 -1.57211e-18 0 -4.72034e-05 -0 0 -4.83714e-05 -4.73049e-19 0 -4.94236e-05 -0 0 -5.03507e-05 2.76978e-19 0 -5.11443e-05 -0 0 -5.17973e-05 7.59829e-19 0 -5.23038e-05 -0 0 -5.26592e-05 9.6559e-20 0 -5.28603e-05 -0 0 -5.29053e-05 -9.37765e-19 0 -5.27938e-05 -0 0 -5.25269e-05 1.60527e-19 0 -5.21071e-05 -7.64373e-19 0 -5.15382e-05 -0 0 -5.08253e-05 -0 0 -4.99751e-05 -0 0 -4.89953e-05 -0 0 -4.78947e-05 -0 0 -4.66831e-05 1.94029e-18 0 -4.53713e-05 9.98347e-19 0 -4.39707e-05 -0 0 -4.24932e-05 -3.22061e-18 0 -4.09508e-05 -0 0 -3.93559e-05 -7.69762e-19 0 -3.77205e-05 -0 0 </DataArray> 
</PointData> 
<Points> 
<DataArray type="Float32" NumberOfComponents="3"> 