<?xml version="1.0"?> 
<VTKFile type="StructuredGrid" version="0.1"> 
<StructuredGrid WholeExtent="0 31 0 31 0 0"> 
<Piece Extent="0 31 0 31 0 0"> 
<PointData>
<DataArray type="Float32" Name="B" format="ascii" NumberOfComponents="3"> 
0.0297329 0.0162587 0 0.032678 -0.00019433 0 0.0298071 -2.7097e-05 0 0.0295201 5.03488e-06 0 0.0299585 1.39948e-05 0 0.0306007 1.54551e-05 0 0.0312442 1.39863e-05 0 0.0318062 1.14564e-05 0 0.0322593 8.74192e-06 0 0.0326045 6.36952e-06 0 0.032855 4.40376e-06 0 0.0330293 2.89914e-06 0 0.0331455 1.80872e-06 0 0.0332193 1.05426e-06 0 0.0332631 5.54001e-07 0 0.0332863 2.3538e-07 0 0.0332955 4.0344e-08 0 0.0332952 -7.61449e-08 0 0.033288 -1.46284e-07 0 0.0332757 -1.91223e-07 0 0.033259 -2.24045e-07 0 0.0332382 -2.51051e-07 0 0.0332134 -2.71883e-07 0 0.0331846 -2.78286e-07 0 0.0331522 -2.51721e-07 0 0.0331163 -1.56738e-07 0 0.0330776 6.73127e-08 0 0.0330358 5.4583e-07 0 0.0329887 1.63192e-06 0 0.032927 4.80118e-06 0 0.0327945 2.18884e-05 0 0.00992856 -0.00488009 0 -0.000211275 0.0103573 0 -4.21604e-05 -8.28045e-06 0 -9.03466e-06 1.93492e-06 0 -2.8977e-06 1.95973e-06 0 -1.04168e-06 1.60207e-06 0 -3.09005e-07 1.25938e-06 0 3.78572e-08 9.6025e-07 0 2.33069e-07 7.08933e-07 0 3.67165e-07 5.03478e-07 0 4.69671e-07 3.47412e-07 0 5.57839e-07 2.29821e-07 0 6.36409e-07 1.4555e-07 0 7.04765e-07 8.74339e-08 0 7.61357e-07 4.87389e-08 0 8.04563e-07 2.37844e-08 0 8.32998e-07 8.0963e-09 0 8.45583e-07 -1.62836e-09 0 8.41471e-07 -7.77739e-09 0 8.19951e-07 -1.19414e-08 0 7.8034e-07 -1.50779e-08 0 7.21876e-07 -1.76986e-08 0 6.43562e-07 -1.9972e-08 0 5.43785e-07 -2.17943e-08 0 4.19483e-07 -2.28564e-08 0 2.64387e-07 -2.24873e-08 0 6.46702e-08 -1.99438e-08 0 -2.0935e-07 -1.34809e-08 0 -6.24277e-07 2.4288e-09 0 -1.34423e-06 5.34672e-08 0 -2.85164e-06 3.03325e-07 0 -6.2405e-06 3.53084e-06 0 5.88753e-05 0.000492406 0 -0.000215771 0.00920865 0 -1.96478e-05 -1.27985e-05 0 -1.20401e-05 -1.94727e-07 0 -8.01895e-06 1.00919e-06 0 -6.59286e-06 9.31631e-07 0 -6.0594e-06 7.22626e-07 0 -5.87855e-06 5.31436e-07 0 -5.85052e-06 3.77408e-07 0 -5.88805e-06 2.57705e-07 0 -5.94887e-06 1.7024e-07 0 -6.01233e-06 1.07298e-07 0 -6.06864e-06 6.39358e-08 0 -6.11422e-06 3.53367e-08 0 -6.14874e-06 1.73544e-08 0 -6.17344e-06 6.67126e-09 0 -6.19012e-06 7.81674e-10 0 -6.20061e-06 -2.09588e-09 0 -6.20652e-06 -3.19475e-09 0 -6.20914e-06 -3.29e-09 0 -6.20948e-06 -2.8011e-09 0 -6.20827e-06 -1.8944e-09 0 -6.20608e-06 -5.34846e-10 0 -6.20332e-06 1.48918e-09 0 -6.20031e-06 4.57047e-09 0 -6.19735e-06 9.57748e-09 0 -6.19488e-06 1.78752e-08 0 -6.19355e-06 3.30134e-08 0 -6.19382e-06 6.51302e-08 0 -6.18737e-06 1.49863e-07 0 -6.04467e-06 4.27045e-07 0 -3.8891e-06 1.50842e-06 0 -5.19959e-05 -0.0003513 0 -0.000162301 0.00791855 0 -2.3004e-06 -8.33425e-06 0 -4.85943e-06 -1.72028e-06 0 -2.39934e-06 3.08488e-07 0 -1.07206e-06 6.25689e-07 0 -4.21846e-07 5.81667e-07 0 -9.82264e-08 4.67204e-07 0 5.93557e-08 3.51574e-07 0 1.28507e-07 2.51607e-07 0 1.51018e-07 1.73413e-07 0 1.49694e-07 1.14288e-07 0 1.37838e-07 7.17305e-08 0 1.22818e-07 4.24505e-08 0 1.08385e-07 2.31927e-08 0 9.61598e-08 1.11321e-08 0 8.65688e-08 4.00794e-09 0 7.94195e-08 1.38751e-10 0 7.42478e-08 -1.6915e-09 0 7.05115e-08 -2.28107e-09 0 6.76884e-08 -2.08415e-09 0 6.5318e-08 -1.30324e-09 0 6.30172e-08 6.38306e-11 0 6.04852e-08 2.20044e-09 0 5.75114e-08 5.47307e-09 0 5.40032e-08 1.07522e-08 0 5.00651e-08 1.93737e-08 0 4.65495e-08 3.47337e-08 0 4.80592e-08 6.54477e-08 0 8.18244e-08 1.34116e-07 0 3.25015e-07 2.59654e-07 0 1.42062e-06 2.2114e-07 0 -4.76469e-05 -0.000440868 0 -0.000120308 0.00679404 0 1.10756e-06 -3.87793e-06 0 -3.12063e-06 -2.13675e-06 0 -2.1419e-06 -2.04185e-07 0 -1.14262e-06 3.44465e-07 0 -5.58499e-07 4.3499e-07 0 -2.40471e-07 3.91733e-07 0 -7.32191e-08 3.14568e-07 0 8.97994e-09 2.35885e-07 0 4.4225e-08 1.68886e-07 0 5.39064e-08 1.15381e-07 0 5.09045e-08 7.52206e-08 0 4.26062e-08 4.65578e-08 0 3.30281e-08 2.70261e-08 0 2.41529e-08 1.43261e-08 0 1.67721e-08 6.48939e-09 0 1.10195e-08 1.98291e-09 0 6.69993e-09 -3.47122e-10 0 3.48311e-09 -1.28604e-09 0 1.01052e-09 -1.29736e-09 0 -1.0487e-09 -6.03394e-10 0 -2.96799e-09 7.73062e-10 0 -4.93994e-09 2.98538e-09 0 -7.03743e-09 6.35669e-09 0 -9.11991e-09 1.16881e-08 0 -1.05224e-08 2.01093e-08 0 -8.95278e-09 3.42797e-08 0 4.04718e-09 5.94791e-08 0 6.28965e-08 1.01043e-07 0 2.95589e-07 9.97153e-08 0 6.10079e-07 1.24886e-08 0 -3.48213e-05 -0.000382998 0 -9.29853e-05 0.00585122 0 1.58515e-06 -1.52125e-06 0 -1.71926e-06 -1.91359e-06 0 -1.71146e-06 -5.02583e-07 0 -1.07057e-06 1.17324e-07 0 -5.89566e-07 3.00364e-07 0 -2.96292e-07 3.16563e-07 0 -1.28937e-07 2.7443e-07 0 -3.86295e-08 2.16218e-07 0 6.62766e-09 1.60593e-07 0 2.58202e-08 1.13268e-07 0 3.08645e-08 7.61715e-08 0 2.8883e-08 4.87658e-08 0 2.39889e-08 2.9508e-08 0 1.84197e-08 1.66022e-08 0 1.32688e-08 8.37507e-09 0 8.95828e-09 3.4561e-09 0 5.54027e-09 7.72308e-10 0 2.88477e-09 -4.31042e-10 0 7.91461e-10 -6.13417e-10 0 -9.44183e-10 -7.91348e-12 0 -2.48841e-09 1.34177e-09 0 -3.9297e-09 3.55622e-09 0 -5.21364e-09 6.90069e-09 0 -5.99735e-09 1.20485e-08 0 -5.18261e-09 1.97893e-08 0 4.33083e-10 3.16941e-08 0 2.06816e-08 4.91818e-08 0 8.52708e-08 6.40454e-08 0 2.46559e-07 2.51293e-09 0 2.55409e-07 3.96711e-08 0 -2.50354e-05 -0.000310934 0 -7.51626e-05 0.00504618 0 1.33645e-06 -4.41057e-07 0 -8.23195e-07 -1.48e-06 0 -1.2773e-06 -6.22514e-07 0 -9.46972e-07 -4.67122e-08 0 -5.8469e-07 1.8533e-07 0 -3.30392e-07 2.45988e-07 0 -1.71683e-07 2.33569e-07 0 -7.84373e-08 1.94003e-07 0 -2.629e-08 1.49367e-07 0 5.24117e-10 1.08443e-07 0 1.24766e-08 7.48708e-08 0 1.61491e-08 4.92323e-08 0 1.55742e-08 3.07163e-08 0 1.31303e-08 1.79913e-08 0 1.01376e-08 9.66977e-09 0 7.2578e-09 4.55001e-09 0 4.76021e-09 1.65309e-09 0 2.6968e-09 2.69153e-10 0 1.01459e-09 -4.57154e-11 0 -3.71421e-10 4.72732e-10 0 -1.52601e-09 1.76398e-09 0 -2.44169e-09 3.91443e-09 0 -2.95522e-09 7.12126e-09 0 -2.57338e-09 1.18905e-08 0 5.94745e-11 1.8602e-08 0 8.44716e-09 2.76571e-08 0 3.16146e-08 3.72127e-08 0 8.86529e-08 3.26167e-08 0 1.77859e-07 -3.8841e-08 0 1.0767e-07 7.21692e-08 0 -1.84012e-05 -0.000248683 0 -6.31832e-05 0.0043411 0 1.00721e-06 3.13657e-08 0 -3.16987e-07 -1.06163e-06 0 -9.03098e-07 -6.22856e-07 0 -8.01117e-07 -1.50424e-07 0 -5.54447e-07 9.37799e-08 0 -3.46794e-07 1.83149e-07 0 -2.03151e-07 1.93987e-07 0 -1.11239e-07 1.70467e-07 0 -5.49478e-08 1.35972e-07 0 -2.22598e-08 1.01383e-07 0 -4.50402e-09 7.16074e-08 0 4.13825e-09 4.8127e-08 0 7.47471e-09 3.07449e-08 0 7.92723e-09 1.85398e-08 0 6.97649e-09 1.03918e-08 0 5.47881e-09 5.26745e-09 0 3.89093e-09 2.2904e-09 0 2.42744e-09 8.06942e-10 0 1.17017e-09 3.98422e-10 0 1.44899e-10 8.33738e-10 0 -6.19446e-10 2.03983e-09 0 -1.03053e-09 4.06947e-09 0 -8.40219e-10 7.0479e-09 0 5.32691e-10 1.1297e-08 0 4.51344e-09 1.67866e-08 0 1.43637e-08 2.28965e-08 0 3.69295e-08 2.57277e-08 0 8.03918e-08 1.04305e-08 0 1.18935e-07 -4.81568e-08 0 4.63993e-08 8.38746e-08 0 -1.39519e-05 -0.000198528 0 -5.49013e-05 0.00370895 0 7.40738e-07 2.25063e-07 0 -5.74436e-08 -7.3194e-07 0 -6.1227e-07 -5.58123e-07 0 -6.55237e-07 -2.03825e-07 0 -5.08664e-07 2.63397e-08 0 -3.49391e-07 1.29944e-07 0 -2.24786e-07 1.57189e-07 0 -1.3745e-07 1.46632e-07 0 -7.93145e-08 1.21084e-07 0 -4.23214e-08 9.25279e-08 0 -1.98167e-08 6.66658e-08 0 -6.8995e-09 4.56284e-08 0 -9.61712e-11 2.9701e-08 0 2.98017e-09 1.83084e-08 0 3.91369e-09 1.05723e-08 0 3.7144e-09 5.62169e-09 0 2.99732e-09 2.68771e-09 0 2.11955e-09 1.18122e-09 0 1.28371e-09 7.16914e-10 0 6.15949e-10 1.07488e-09 0 2.29334e-10 2.17403e-09 0 2.8794e-10 4.03636e-09 0 1.09825e-09 6.71816e-09 0 3.26566e-09 1.03635e-08 0 8.11482e-09 1.45908e-08 0 1.82749e-08 1.80478e-08 0 3.79299e-08 1.60534e-08 0 6.72127e-08 -2.8962e-09 0 7.67393e-08 -4.36668e-08 0 2.0363e-08 8.19531e-08 0 -1.09395e-05 -0.000158445 0 -4.89726e-05 0.00313079 0 5.4224e-07 2.88222e-07 0 6.83674e-08 -4.94517e-07 0 -3.96317e-07 -4.6694e-07 0 -5.21024e-07 -2.19376e-07 0 -4.55361e-07 -1.86566e-08 0 -3.42409e-07 8.71688e-08 0 -2.38747e-07 1.24185e-07 0 -1.58173e-07 1.23286e-07 0 -9.99292e-08 1.05268e-07 0 -5.98959e-08 8.2269e-08 0 -3.3534e-08 6.03118e-08 0 -1.69554e-08 4.19124e-08 0 -7.09456e-09 2.76971e-08 0 -1.65746e-09 1.73657e-08 0 9.98997e-10 1.02505e-08 0 2.00466e-09 5.63356e-09 0 2.10778e-09 2.85489e-09 0 1.7897e-09 1.39625e-09 0 1.36043e-09 9.12316e-10 0 1.03605e-09 1.20019e-09 0 1.00401e-09 2.17559e-09 0 1.48707e-09 3.83472e-09 0 2.82531e-09 6.17455e-09 0 5.59409e-09 9.18719e-09 0 1.08932e-08 1.22372e-08 0 2.0525e-08 1.35751e-08 0 3.62136e-08 8.71841e-09 0 5.35365e-08 -9.49774e-09 0 4.86446e-08 -3.50723e-08 0 8.55665e-09 7.35279e-08 0 -8.84399e-06 -0.000126021 0 -4.46812e-05 0.00259306 0 4.03475e-07 2.88363e-07 0 1.21682e-07 -3.30094e-07 0 -2.45972e-07 -3.71983e-07 0 -4.07622e-07 -2.09139e-07 0 -4.01871e-07 -4.44438e-08 0 -3.29608e-07 5.45977e-08 0 -2.46597e-07 9.54545e-08 0 -1.73856e-07 1.00965e-07 0 -1.16727e-07 8.89725e-08 0 -7.47192e-08 7.09517e-08 0 -4.53478e-08 5.27998e-08 0 -2.57467e-08 3.71601e-08 0 -1.32894e-08 2.48573e-08 0 -5.81054e-09 1.57932e-08 0 -1.64271e-09 9.47775e-09 0 4.3342e-10 5.33375e-09 0 1.27437e-09 2.8096e-09 0 1.46606e-09 1.46232e-09 0 1.41059e-09 9.9185e-10 0 1.40171e-09 1.21745e-09 0 1.69004e-09 2.05659e-09 0 2.54377e-09 3.48643e-09 0 4.31474e-09 5.45939e-09 0 7.50702e-09 7.85538e-09 0 1.29203e-08 9.90067e-09 0 2.14962e-08 9.75307e-09 0 3.30522e-08 3.69546e-09 0 4.14789e-08 -1.16696e-08 0 3.07601e-08 -2.64673e-08 0 3.13272e-09 6.24959e-08 0 -7.37479e-06 -9.92519e-05 0 -4.15576e-05 0.0020857 0 3.07442e-07 2.5706e-07 0 1.39716e-07 -2.17843e-07 0 -1.44481e-07 -2.84073e-07 0 -3.16683e-07 -1.82786e-07 0 -3.52778e-07 -5.47744e-08 0 -3.14244e-07 3.13209e-08 0 -2.50145e-07 7.10427e-08 0 -1.85386e-07 7.99662e-08 0 -1.30081e-07 7.25234e-08 0 -8.69009e-08 5.88625e-08 0 -5.52422e-08 4.43604e-08 0 -3.32068e-08 3.15461e-08 0 -1.86017e-08 2.13077e-08 0 -9.40614e-09 1.36781e-08 0 -3.95199e-09 8.3116e-09 0 -9.55123e-10 4.75896e-09 0 5.2691e-10 2.57477e-09 0 1.16584e-09 1.39419e-09 0 1.44062e-09 9.66596e-10 0 1.7101e-09 1.13783e-09 0 2.27693e-09 1.83204e-09 0 3.4428e-09 3.0152e-09 0 5.55509e-09 4.61304e-09 0 9.02255e-09 6.44019e-09 0 1.43205e-08 7.69853e-09 0 2.16135e-08 6.68595e-09 0 2.94479e-08 6.44293e-10 0 3.18151e-08 -1.12403e-08 0 1.95815e-08 -1.9169e-08 0 5.5894e-10 5.07188e-08 0 -6.33826e-06 -7.66041e-05 0 -3.93095e-05 0.00160095 0 2.4196e-07 2.09622e-07 0 1.41988e-07 -1.40921e-07 0 -7.80391e-08 -2.06746e-07 0 -2.47513e-07 -1.47254e-07 0 -3.11188e-07 -5.33613e-08 0 -2.98981e-07 1.59655e-08 0 -2.50973e-07 5.06246e-08 0 -1.93547e-07 6.03699e-08 0 -1.40309e-07 5.61302e-08 0 -9.65176e-08 4.62321e-08 0 -6.31834e-08 3.52007e-08 0 -3.92607e-08 2.52389e-08 0 -2.29501e-08 1.71761e-08 0 -1.23719e-08 1.11125e-08 0 -5.8712e-09 6.81555e-09 0 -2.11883e-09 3.95145e-09 0 -1.06528e-10 2.17811e-09 0 9.05133e-10 1.21059e-09 0 1.45658e-09 8.50925e-10 0 1.95891e-09 9.75227e-10 0 2.75581e-09 1.51894e-09 0 4.17236e-09 2.44496e-09 0 6.54165e-09 3.67105e-09 0 1.01709e-08 4.99397e-09 0 1.52304e-08 5.69061e-09 0 2.12555e-08 4.35005e-09 0 2.60671e-08 -8.82309e-10 0 2.45905e-08 -9.43154e-09 0 1.26943e-08 -1.33275e-08 0 -6.79477e-10 3.89729e-08 0 -5.61293e-06 -5.69196e-05 0 -3.77516e-05 0.00113256 0 1.98758e-07 1.53787e-07 0 1.3852e-07 -8.69645e-08 0 -3.62479e-08 -1.39626e-07 0 -1.98216e-07 -1.0703e-07 0 -2.78955e-07 -4.35513e-08 0 -2.85862e-07 6.8897e-09 0 -2.50398e-07 3.35839e-08 0 -1.9902e-07 4.20665e-08 0 -1.47698e-07 3.98988e-08 0 -1.03648e-07 3.32406e-08 0 -6.91517e-08 2.5507e-08 0 -4.3851e-08 1.84009e-08 0 -2.62694e-08 1.25918e-08 0 -1.46491e-08 8.19275e-09 0 -7.35331e-09 5.05806e-09 0 -3.02311e-09 2.95819e-09 0 -6.02767e-10 1.65139e-09 0 6.97328e-10 9.33658e-10 0 1.46368e-09 6.62009e-10 0 2.14669e-09 7.45789e-10 0 3.12029e-09 1.13573e-09 0 4.72487e-09 1.79916e-09 0 7.27591e-09 2.66313e-09 0 1.09889e-08 3.54891e-09 0 1.57812e-08 3.88622e-09 0 2.07285e-08 2.63733e-09 0 2.33082e-08 -1.32235e-09 0 1.95514e-08 -6.96938e-09 0 8.5491e-09 -8.68528e-09 0 -1.27422e-09 2.75164e-08 0 -5.12189e-06 -3.93098e-05 0 -3.6768e-05 0.000675258 0 1.72516e-07 9.36246e-08 0 1.34308e-07 -4.71304e-08 0 -1.19731e-08 -8.04709e-08 0 -1.66717e-07 -6.47164e-08 0 -2.57073e-07 -2.82043e-08 0 -2.76339e-07 2.32771e-09 0 -2.49438e-07 1.90934e-08 0 -2.02352e-07 2.47959e-08 0 -1.52486e-07 2.38482e-08 0 -1.08362e-07 2.00245e-08 0 -7.3138e-08 1.54466e-08 0 -4.69367e-08 1.11887e-08 0 -2.85116e-08 7.68429e-09 0 -1.61937e-08 5.01812e-09 0 -8.36263e-09 3.11126e-09 0 -3.64159e-09 1.82971e-09 0 -9.4406e-10 1.02952e-09 0 5.52744e-10 5.88157e-10 0 1.46605e-09 4.19203e-10 0 2.27247e-09 4.67395e-10 0 3.36591e-09 7.01861e-10 0 5.09572e-09 1.10037e-09 0 7.76212e-09 1.61317e-09 0 1.15118e-08 2.11907e-09 0 1.60828e-08 2.2549e-09 0 2.02566e-08 1.39132e-09 0 2.13855e-08 -1.05473e-09 0 1.63924e-08 -4.23917e-09 0 6.21015e-09 -4.88539e-09 0 -1.55002e-09 1.63663e-08 0 -4.81719e-06 -2.30683e-05 0 -3.62903e-05 0.000224384 0 1.60086e-07 3.14097e-08 0 1.31719e-07 -1.49099e-08 0 -8.35326e-10 -2.62669e-08 0 -1.51362e-07 -2.16318e-08 0 -2.46004e-07 -9.73655e-09 0 -2.71333e-07 4.75108e-10 0 -2.4878e-07 6.18575e-09 0 -2.03925e-07 8.18909e-09 0 -1.54844e-07 7.93287e-09 0 -1.10713e-07 6.6875e-09 0 -7.51389e-08 5.17228e-09 0 -4.84917e-08 3.75418e-09 0 -2.96448e-08 2.58296e-09 0 -1.69764e-08 1.68982e-09 0 -8.87527e-09 1.04988e-09 0 -3.95652e-09 6.19086e-10 0 -1.11841e-09 3.49668e-10 0 4.78387e-10 2.00752e-10 0 1.46652e-09 1.43433e-10 0 2.33573e-09 1.59143e-10 0 3.48987e-09 2.37368e-10 0 5.2824e-09 3.70243e-10 0 8.00476e-09 5.40157e-10 0 1.17668e-08 7.04337e-10 0 1.62136e-08 7.38291e-10 0 1.99843e-08 4.31676e-10 0 2.0401e-08 -3.93491e-10 0 1.48722e-08 -1.41934e-09 0 5.15424e-09 -1.57518e-09 0 -1.65805e-09 5.43026e-09 0 -4.67081e-06 -7.6052e-06 0 -3.62903e-05 -0.000224384 0 1.60086e-07 -3.14097e-08 0 1.31719e-07 1.49099e-08 0 -8.35326e-10 2.62669e-08 0 -1.51362e-07 2.16318e-08 0 -2.46004e-07 9.73655e-09 0 -2.71333e-07 -4.75108e-10 0 -2.4878e-07 -6.18575e-09 0 -2.03925e-07 -8.18909e-09 0 -1.54844e-07 -7.93287e-09 0 -1.10713e-07 -6.6875e-09 0 -7.51389e-08 -5.17228e-09 0 -4.84917e-08 -3.75418e-09 0 -2.96448e-08 -2.58296e-09 0 -1.69764e-08 -1.68982e-09 0 -8.87527e-09 -1.04988e-09 0 -3.95652e-09 -6.19086e-10 0 -1.11841e-09 -3.49668e-10 0 4.78387e-10 -2.00752e-10 0 1.46652e-09 -1.43433e-10 0 2.33573e-09 -1.59143e-10 0 3.48987e-09 -2.37368e-10 0 5.2824e-09 -3.70243e-10 0 8.00476e-09 -5.40157e-10 0 1.17668e-08 -7.04337e-10 0 1.62136e-08 -7.38291e-10 0 1.99843e-08 -4.31676e-10 0 2.0401e-08 3.93491e-10 0 1.48722e-08 1.41934e-09 0 5.15424e-09 1.57518e-09 0 -1.65805e-09 -5.43026e-09 0 -4.67081e-06 7.6052e-06 0 -3.6768e-05 -0.000675258 0 1.72516e-07 -9.36246e-08 0 1.34308e-07 4.71304e-08 0 -1.19731e-08 8.04709e-08 0 -1.66717e-07 6.47164e-08 0 -2.57073e-07 2.82043e-08 0 -2.76339e-07 -2.32771e-09 0 -2.49438e-07 -1.90934e-08 0 -2.02352e-07 -2.47959e-08 0 -1.52486e-07 -2.38482e-08 0 -1.08362e-07 -2.00245e-08 0 -7.3138e-08 -1.54466e-08 0 -4.69367e-08 -1.11887e-08 0 -2.85116e-08 -7.68429e-09 0 -1.61937e-08 -5.01812e-09 0 -8.36263e-09 -3.11126e-09 0 -3.64159e-09 -1.82971e-09 0 -9.4406e-10 -1.02952e-09 0 5.52744e-10 -5.88157e-10 0 1.46605e-09 -4.19203e-10 0 2.27247e-09 -4.67395e-10 0 3.36591e-09 -7.01861e-10 0 5.09572e-09 -1.10037e-09 0 7.76212e-09 -1.61317e-09 0 1.15118e-08 -2.11907e-09 0 1.60828e-08 -2.2549e-09 0 2.02566e-08 -1.39132e-09 0 2.13855e-08 1.05473e-09 0 1.63924e-08 4.23917e-09 0 6.21015e-09 4.88539e-09 0 -1.55002e-09 -1.63663e-08 0 -4.81719e-06 2.30683e-05 0 -3.77516e-05 -0.00113256 0 1.98758e-07 -1.53787e-07 0 1.3852e-07 8.69645e-08 0 -3.62479e-08 1.39626e-07 0 -1.98216e-07 1.0703e-07 0 -2.78955e-07 4.35513e-08 0 -2.85862e-07 -6.8897e-09 0 -2.50398e-07 -3.35839e-08 0 -1.9902e-07 -4.20665e-08 0 -1.47698e-07 -3.98988e-08 0 -1.03648e-07 -3.32406e-08 0 -6.91517e-08 -2.5507e-08 0 -4.3851e-08 -1.84009e-08 0 -2.62694e-08 -1.25918e-08 0 -1.46491e-08 -8.19275e-09 0 -7.35331e-09 -5.05806e-09 0 -3.02311e-09 -2.95819e-09 0 -6.02767e-10 -1.65139e-09 0 6.97328e-10 -9.33658e-10 0 1.46368e-09 -6.62009e-10 0 2.14669e-09 -7.45789e-10 0 3.12029e-09 -1.13573e-09 0 4.72487e-09 -1.79916e-09 0 7.27591e-09 -2.66313e-09 0 1.09889e-08 -3.54891e-09 0 1.57812e-08 -3.88622e-09 0 2.07285e-08 -2.63733e-09 0 2.33082e-08 1.32235e-09 0 1.95514e-08 6.96938e-09 0 8.5491e-09 8.68528e-09 0 -1.27422e-09 -2.75164e-08 0 -5.12189e-06 3.93098e-05 0 -3.93095e-05 -0.00160095 0 2.4196e-07 -2.09622e-07 0 1.41988e-07 1.40921e-07 0 -7.80391e-08 2.06746e-07 0 -2.47513e-07 1.47254e-07 0 -3.11188e-07 5.33613e-08 0 -2.98981e-07 -1.59655e-08 0 -2.50973e-07 -5.06246e-08 0 -1.93547e-07 -6.03699e-08 0 -1.40309e-07 -5.61302e-08 0 -9.65176e-08 -4.62321e-08 0 -6.31834e-08 -3.52007e-08 0 -3.92607e-08 -2.52389e-08 0 -2.29501e-08 -1.71761e-08 0 -1.23719e-08 -1.11125e-08 0 -5.8712e-09 -6.81555e-09 0 -2.11883e-09 -3.95145e-09 0 -1.06528e-10 -2.17811e-09 0 9.05133e-10 -1.21059e-09 0 1.45658e-09 -8.50925e-10 0 1.95891e-09 -9.75227e-10 0 2.75581e-09 -1.51894e-09 0 4.17236e-09 -2.44496e-09 0 6.54165e-09 -3.67105e-09 0 1.01709e-08 -4.99397e-09 0 1.52304e-08 -5.69061e-09 0 2.12555e-08 -4.35005e-09 0 2.60671e-08 8.82309e-10 0 2.45905e-08 9.43154e-09 0 1.26943e-08 1.33275e-08 0 -6.79477e-10 -3.89729e-08 0 -5.61293e-06 5.69196e-05 0 -4.15576e-05 -0.0020857 0 3.07442e-07 -2.5706e-07 0 1.39716e-07 2.17843e-07 0 -1.44481e-07 2.84073e-07 0 -3.16683e-07 1.82786e-07 0 -3.52778e-07 5.47744e-08 0 -3.14244e-07 -3.13209e-08 0 -2.50145e-07 -7.10427e-08 0 -1.85386e-07 -7.99662e-08 0 -1.30081e-07 -7.25234e-08 0 -8.69009e-08 -5.88625e-08 0 -5.52422e-08 -4.43604e-08 0 -3.32068e-08 -3.15461e-08 0 -1.86017e-08 -2.13077e-08 0 -9.40614e-09 -1.36781e-08 0 -3.95199e-09 -8.3116e-09 0 -9.55123e-10 -4.75896e-09 0 5.2691e-10 -2.57477e-09 0 1.16584e-09 -1.39419e-09 0 1.44062e-09 -9.66596e-10 0 1.7101e-09 -1.13783e-09 0 2.27693e-09 -1.83204e-09 0 3.4428e-09 -3.0152e-09 0 5.55509e-09 -4.61304e-09 0 9.02255e-09 -6.44019e-09 0 1.43205e-08 -7.69853e-09 0 2.16135e-08 -6.68595e-09 0 2.94479e-08 -6.44293e-10 0 3.18151e-08 1.12403e-08 0 1.95815e-08 1.9169e-08 0 5.5894e-10 -5.07188e-08 0 -6.33826e-06 7.66041e-05 0 -4.46812e-05 -0.00259306 0 4.03475e-07 -2.88363e-07 0 1.21682e-07 3.30094e-07 0 -2.45972e-07 3.71983e-07 0 -4.07622e-07 2.09139e-07 0 -4.01871e-07 4.44438e-08 0 -3.29608e-07 -5.45977e-08 0 -2.46597e-07 -9.54545e-08 0 -1.73856e-07 -1.00965e-07 0 -1.16727e-07 -8.89725e-08 0 -7.47192e-08 -7.09517e-08 0 -4.53478e-08 -5.27998e-08 0 -2.57467e-08 -3.71601e-08 0 -1.32894e-08 -2.48573e-08 0 -5.81054e-09 -1.57932e-08 0 -1.64271e-09 -9.47775e-09 0 4.3342e-10 -5.33375e-09 0 1.27437e-09 -2.8096e-09 0 1.46606e-09 -1.46232e-09 0 1.41059e-09 -9.9185e-10 0 1.40171e-09 -1.21745e-09 0 1.69004e-09 -2.05659e-09 0 2.54377e-09 -3.48643e-09 0 4.31474e-09 -5.45939e-09 0 7.50702e-09 -7.85538e-09 0 1.29203e-08 -9.90067e-09 0 2.14962e-08 -9.75307e-09 0 3.30522e-08 -3.69546e-09 0 4.14789e-08 1.16696e-08 0 3.07601e-08 2.64673e-08 0 3.13272e-09 -6.24959e-08 0 -7.37479e-06 9.92519e-05 0 -4.89726e-05 -0.00313079 0 5.4224e-07 -2.88222e-07 0 6.83674e-08 4.94517e-07 0 -3.96317e-07 4.6694e-07 0 -5.21024e-07 2.19376e-07 0 -4.55361e-07 1.86566e-08 0 -3.42409e-07 -8.71688e-08 0 -2.38747e-07 -1.24185e-07 0 -1.58173e-07 -1.23286e-07 0 -9.99292e-08 -1.05268e-07 0 -5.98959e-08 -8.2269e-08 0 -3.3534e-08 -6.03118e-08 0 -1.69554e-08 -4.19124e-08 0 -7.09456e-09 -2.76971e-08 0 -1.65746e-09 -1.73657e-08 0 9.98997e-10 -1.02505e-08 0 2.00466e-09 -5.63356e-09 0 2.10778e-09 -2.85489e-09 0 1.7897e-09 -1.39625e-09 0 1.36043e-09 -9.12316e-10 0 1.03605e-09 -1.20019e-09 0 1.00401e-09 -2.17559e-09 0 1.48707e-09 -3.83472e-09 0 2.82531e-09 -6.17455e-09 0 5.59409e-09 -9.18719e-09 0 1.08932e-08 -1.22372e-08 0 2.0525e-08 -1.35751e-08 0 3.62136e-08 -8.71841e-09 0 5.35365e-08 9.49774e-09 0 4.86446e-08 3.50723e-08 0 8.55665e-09 -7.35279e-08 0 -8.84399e-06 0.000126021 0 -5.49013e-05 -0.00370895 0 7.40738e-07 -2.25063e-07 0 -5.74436e-08 7.3194e-07 0 -6.1227e-07 5.58123e-07 0 -6.55237e-07 2.03825e-07 0 -5.08664e-07 -2.63397e-08 0 -3.49391e-07 -1.29944e-07 0 -2.24786e-07 -1.57189e-07 0 -1.3745e-07 -1.46632e-07 0 -7.93145e-08 -1.21084e-07 0 -4.23214e-08 -9.25279e-08 0 -1.98167e-08 -6.66658e-08 0 -6.8995e-09 -4.56284e-08 0 -9.61712e-11 -2.9701e-08 0 2.98017e-09 -1.83084e-08 0 3.91369e-09 -1.05723e-08 0 3.7144e-09 -5.62169e-09 0 2.99732e-09 -2.68771e-09 0 2.11955e-09 -1.18122e-09 0 1.28371e-09 -7.16914e-10 0 6.15949e-10 -1.07488e-09 0 2.29334e-10 -2.17403e-09 0 2.8794e-10 -4.03636e-09 0 1.09825e-09 -6.71816e-09 0 3.26566e-09 -1.03635e-08 0 8.11482e-09 -1.45908e-08 0 1.82749e-08 -1.80478e-08 0 3.79299e-08 -1.60534e-08 0 6.72127e-08 2.8962e-09 0 7.67393e-08 4.36668e-08 0 2.0363e-08 -8.19531e-08 0 -1.09395e-05 0.000158445 0 -6.31832e-05 -0.0043411 0 1.00721e-06 -3.13657e-08 0 -3.16987e-07 1.06163e-06 0 -9.03098e-07 6.22856e-07 0 -8.01117e-07 1.50424e-07 0 -5.54447e-07 -9.37799e-08 0 -3.46794e-07 -1.83149e-07 0 -2.03151e-07 -1.93987e-07 0 -1.11239e-07 -1.70467e-07 0 -5.49478e-08 -1.35972e-07 0 -2.22598e-08 -1.01383e-07 0 -4.50402e-09 -7.16074e-08 0 4.13825e-09 -4.8127e-08 0 7.47471e-09 -3.07449e-08 0 7.92723e-09 -1.85398e-08 0 6.97649e-09 -1.03918e-08 0 5.47881e-09 -5.26745e-09 0 3.89093e-09 -2.2904e-09 0 2.42744e-09 -8.06942e-10 0 1.17017e-09 -3.98422e-10 0 1.44899e-10 -8.33738e-10 0 -6.19446e-10 -2.03983e-09 0 -1.03053e-09 -4.06947e-09 0 -8.40219e-10 -7.0479e-09 0 5.32691e-10 -1.1297e-08 0 4.51344e-09 -1.67866e-08 0 1.43637e-08 -2.28965e-08 0 3.69295e-08 -2.57277e-08 0 8.03918e-08 -1.04305e-08 0 1.18935e-07 4.81568e-08 0 4.63993e-08 -8.38746e-08 0 -1.39519e-05 0.000198528 0 -7.51626e-05 -0.00504618 0 1.33645e-06 4.41057e-07 0 -8.23195e-07 1.48e-06 0 -1.2773e-06 6.22514e-07 0 -9.46972e-07 4.67122e-08 0 -5.8469e-07 -1.8533e-07 0 -3.30392e-07 -2.45988e-07 0 -1.71683e-07 -2.33569e-07 0 -7.84373e-08 -1.94003e-07 0 -2.629e-08 -1.49367e-07 0 5.24117e-10 -1.08443e-07 0 1.24766e-08 -7.48708e-08 0 1.61491e-08 -4.92323e-08 0 1.55742e-08 -3.07163e-08 0 1.31303e-08 -1.79913e-08 0 1.01376e-08 -9.66977e-09 0 7.2578e-09 -4.55001e-09 0 4.76021e-09 -1.65309e-09 0 2.6968e-09 -2.69153e-10 0 1.01459e-09 4.57154e-11 0 -3.71422e-10 -4.72732e-10 0 -1.52601e-09 -1.76398e-09 0 -2.44169e-09 -3.91443e-09 0 -2.95522e-09 -7.12126e-09 0 -2.57338e-09 -1.18905e-08 0 5.9474e-11 -1.8602e-08 0 8.44716e-09 -2.76571e-08 0 3.16146e-08 -3.72127e-08 0 8.86529e-08 -3.26167e-08 0 1.77859e-07 3.8841e-08 0 1.0767e-07 -7.21692e-08 0 -1.84012e-05 0.000248683 0 -9.29853e-05 -0.00585122 0 1.58515e-06 1.52125e-06 0 -1.71926e-06 1.91359e-06 0 -1.71146e-06 5.02583e-07 0 -1.07057e-06 -1.17324e-07 0 -5.89566e-07 -3.00364e-07 0 -2.96292e-07 -3.16563e-07 0 -1.28937e-07 -2.7443e-07 0 -3.86295e-08 -2.16218e-07 0 6.62766e-09 -1.60593e-07 0 2.58202e-08 -1.13268e-07 0 3.08645e-08 -7.61715e-08 0 2.8883e-08 -4.87658e-08 0 2.39889e-08 -2.9508e-08 0 1.84197e-08 -1.66022e-08 0 1.32688e-08 -8.37507e-09 0 8.95828e-09 -3.4561e-09 0 5.54027e-09 -7.72308e-10 0 2.88477e-09 4.31042e-10 0 7.91461e-10 6.13417e-10 0 -9.44183e-10 7.91349e-12 0 -2.48841e-09 -1.34177e-09 0 -3.9297e-09 -3.55622e-09 0 -5.21364e-09 -6.90069e-09 0 -5.99735e-09 -1.20485e-08 0 -5.18261e-09 -1.97893e-08 0 4.33083e-10 -3.16941e-08 0 2.06816e-08 -4.91818e-08 0 8.52708e-08 -6.40454e-08 0 2.46559e-07 -2.51293e-09 0 2.55409e-07 -3.96711e-08 0 -2.50354e-05 0.000310934 0 -0.000120308 -0.00679404 0 1.10756e-06 3.87793e-06 0 -3.12063e-06 2.13675e-06 0 -2.1419e-06 2.04185e-07 0 -1.14262e-06 -3.44465e-07 0 -5.58499e-07 -4.3499e-07 0 -2.40471e-07 -3.91733e-07 0 -7.32191e-08 -3.14568e-07 0 8.97994e-09 -2.35885e-07 0 4.4225e-08 -1.68886e-07 0 5.39064e-08 -1.15381e-07 0 5.09045e-08 -7.52206e-08 0 4.26062e-08 -4.65578e-08 0 3.30281e-08 -2.70261e-08 0 2.41529e-08 -1.43261e-08 0 1.67721e-08 -6.48939e-09 0 1.10195e-08 -1.98291e-09 0 6.69993e-09 3.47122e-10 0 3.48311e-09 1.28604e-09 0 1.01052e-09 1.29736e-09 0 -1.0487e-09 6.03394e-10 0 -2.96799e-09 -7.73062e-10 0 -4.93994e-09 -2.98538e-09 0 -7.03743e-09 -6.35669e-09 0 -9.11991e-09 -1.16881e-08 0 -1.05224e-08 -2.01093e-08 0 -8.95278e-09 -3.42797e-08 0 4.04718e-09 -5.94791e-08 0 6.28965e-08 -1.01043e-07 0 2.95589e-07 -9.97153e-08 0 6.10079e-07 -1.24886e-08 0 -3.48213e-05 0.000382998 0 -0.000162301 -0.00791855 0 -2.3004e-06 8.33425e-06 0 -4.85943e-06 1.72028e-06 0 -2.39934e-06 -3.08488e-07 0 -1.07206e-06 -6.25689e-07 0 -4.21846e-07 -5.81667e-07 0 -9.82264e-08 -4.67204e-07 0 5.93557e-08 -3.51574e-07 0 1.28507e-07 -2.51607e-07 0 1.51018e-07 -1.73413e-07 0 1.49694e-07 -1.14288e-07 0 1.37838e-07 -7.17305e-08 0 1.22818e-07 -4.24505e-08 0 1.08385e-07 -2.31927e-08 0 9.61598e-08 -1.11321e-08 0 8.65688e-08 -4.00794e-09 0 7.94195e-08 -1.38751e-10 0 7.42478e-08 1.6915e-09 0 7.05115e-08 2.28107e-09 0 6.76884e-08 2.08415e-09 0 6.5318e-08 1.30324e-09 0 6.30172e-08 -6.38306e-11 0 6.04852e-08 -2.20044e-09 0 5.75114e-08 -5.47307e-09 0 5.40032e-08 -1.07522e-08 0 5.00651e-08 -1.93737e-08 0 4.65495e-08 -3.47337e-08 0 4.80592e-08 -6.54477e-08 0 8.18244e-08 -1.34116e-07 0 3.25015e-07 -2.59654e-07 0 1.42062e-06 -2.2114e-07 0 -4.76469e-05 0.000440868 0 -0.000215771 -0.00920865 0 -1.96478e-05 1.27985e-05 0 -1.20401e-05 1.94727e-07 0 -8.01895e-06 -1.00919e-06 0 -6.59286e-06 -9.31631e-07 0 -6.0594e-06 -7.22626e-07 0 -5.87855e-06 -5.31436e-07 0 -5.85052e-06 -3.77408e-07 0 -5.88805e-06 -2.57705e-07 0 -5.94887e-06 -1.7024e-07 0 -6.01233e-06 -1.07298e-07 0 -6.06864e-06 -6.39358e-08 0 -6.11422e-06 -3.53367e-08 0 -6.14874e-06 -1.73544e-08 0 -6.17344e-06 -6.67126e-09 0 -6.19012e-06 -7.81674e-10 0 -6.20061e-06 2.09588e-09 0 -6.20652e-06 3.19475e-09 0 -6.20914e-06 3.29e-09 0 -6.20948e-06 2.8011e-09 0 -6.20827e-06 1.8944e-09 0 -6.20608e-06 5.34846e-10 0 -6.20332e-06 -1.48918e-09 0 -6.20031e-06 -4.57047e-09 0 -6.19735e-06 -9.57748e-09 0 -6.19488e-06 -1.78752e-08 0 -6.19355e-06 -3.30134e-08 0 -6.19382e-06 -6.51302e-08 0 -6.18737e-06 -1.49863e-07 0 -6.04467e-06 -4.27045e-07 0 -3.8891e-06 -1.50842e-06 0 -5.19959e-05 0.0003513 0 -0.000211275 -0.0103573 0 -4.21604e-05 8.28045e-06 0 -9.03466e-06 -1.93492e-06 0 -2.8977e-06 -1.95973e-06 0 -1.04168e-06 -1.60207e-06 0 -3.09005e-07 -1.25938e-06 0 3.78572e-08 -9.6025e-07 0 2.33069e-07 -7.08933e-07 0 3.67165e-07 -5.03478e-07 0 4.69671e-07 -3.47412e-07 0 5.57839e-07 -2.29821e-07 0 6.36409e-07 -1.4555e-07 0 7.04765e-07 -8.74339e-08 0 7.61357e-07 -4.87389e-08 0 8.04563e-07 -2.37844e-08 0 8.32998e-07 -8.0963e-09 0 8.45583e-07 1.62836e-09 0 8.41471e-07 7.77739e-09 0 8.19951e-07 1.19414e-08 0 7.8034e-07 1.50779e-08 0 7.21876e-07 1.76986e-08 0 6.43562e-07 1.9972e-08 0 5.43785e-07 2.17943e-08 0 4.19483e-07 2.28564e-08 0 2.64387e-07 2.24873e-08 0 6.46702e-08 1.99438e-08 0 -2.0935e-07 1.34809e-08 0 -6.24277e-07 -2.4288e-09 0 -1.34423e-06 -5.34672e-08 0 -2.85164e-06 -3.03325e-07 0 -6.2405e-06 -3.53084e-06 0 5.88753e-05 -0.000492406 0 0.0297329 -0.0162587 0 0.032678 0.00019433 0 0.0298071 2.7097e-05 0 0.0295201 -5.03488e-06 0 0.0299585 -1.39948e-05 0 0.0306007 -1.54551e-05 0 0.0312442 -1.39863e-05 0 0.0318062 -1.14564e-05 0 0.0322593 -8.74192e-06 0 0.0326045 -6.36952e-06 0 0.032855 -4.40376e-06 0 0.0330293 -2.89914e-06 0 0.0331455 -1.80872e-06 0 0.0332193 -1.05426e-06 0 0.0332631 -5.54001e-07 0 0.0332863 -2.3538e-07 0 0.0332955 -4.0344e-08 0 0.0332952 7.61449e-08 0 0.033288 1.46284e-07 0 0.0332757 1.91223e-07 0 0.033259 2.24045e-07 0 0.0332382 2.51051e-07 0 0.0332134 2.71883e-07 0 0.0331846 2.78286e-07 0 0.0331522 2.51721e-07 0 0.0331163 1.56738e-07 0 0.0330776 -6.73127e-08 0 0.0330358 -5.4583e-07 0 0.0329887 -1.63192e-06 0 0.032927 -4.80118e-06 0 0.0327945 -2.18884e-05 0 0.00992856 0.00488009 0 </DataArray> 
</PointData> 
<Points> 
<DataArray type="Float32" NumberOfComponents="3"> 