<?xml version="1.0"?> 
<VTKFile type="StructuredGrid" version="0.1"> 
<StructuredGrid WholeExtent="0 31 0 31 0 0"> 
<Piece Extent="0 31 0 31 0 0"> 
<PointData>
<DataArray type="Float32" Name="B" format="ascii" NumberOfComponents="3"> 
0.000714047 0.00429129 0 0.000252281 3.93031e-05 0 0.000129665 2.78474e-05 0 8.87557e-05 2.61714e-05 0 6.83267e-05 2.50795e-05 0 5.59563e-05 2.3798e-05 0 4.7517e-05 2.23152e-05 0 4.12626e-05 2.07207e-05 0 3.63423e-05 1.91007e-05 0 3.22973e-05 1.75166e-05 0 2.88704e-05 1.60076e-05 0 2.58999e-05 1.46067e-05 0 2.32849e-05 1.33096e-05 0 2.09571e-05 1.21322e-05 0 1.88665e-05 1.10676e-05 0 1.69773e-05 1.01021e-05 0 1.52609e-05 9.24774e-06 0 1.36941e-05 8.47973e-06 0 1.22581e-05 7.79518e-06 0 1.09364e-05 7.19355e-06 0 9.71468e-06 6.65758e-06 0 8.58072e-06 6.18985e-06 0 7.52305e-06 5.78159e-06 0 6.53172e-06 5.4242e-06 0 5.59744e-06 5.12354e-06 0 4.71161e-06 4.86669e-06 0 3.86644e-06 4.65356e-06 0 3.05434e-06 4.4848e-06 0 2.26831e-06 4.35287e-06 0 1.50163e-06 4.26143e-06 0 7.47622e-07 4.20701e-06 0 0 4.18652e-06 0 7.51845e-06 0.000248676 0 0.000123802 0.000145544 0 0.000103469 7.53541e-05 0 7.96462e-05 5.05655e-05 0 6.3627e-05 3.96506e-05 0 5.27371e-05 3.35175e-05 0 4.49159e-05 2.93438e-05 0 3.89913e-05 2.61244e-05 0 3.4298e-05 2.34594e-05 0 3.0441e-05 2.1149e-05 0 2.71844e-05 1.91112e-05 0 2.43729e-05 1.73172e-05 0 2.19068e-05 1.57039e-05 0 1.97177e-05 1.42713e-05 0 1.77554e-05 1.29939e-05 0 1.5984e-05 1.18455e-05 0 1.43753e-05 1.08365e-05 0 1.29066e-05 9.93299e-06 0 1.15598e-05 9.12996e-06 0 1.03193e-05 8.42564e-06 0 9.17161e-06 7.79891e-06 0 8.10529e-06 7.25242e-06 0 7.10968e-06 6.77566e-06 0 6.17555e-06 6.3584e-06 0 5.29429e-06 6.00742e-06 0 4.45797e-06 5.70761e-06 0 3.65936e-06 5.45882e-06 0 2.89144e-06 5.26181e-06 0 2.14773e-06 5.1078e-06 0 1.42199e-06 5.00103e-06 0 7.08032e-07 4.9375e-06 0 0 4.91358e-06 0 1.54333e-05 0.000141027 0 5.76247e-05 0.00012121 0 6.78974e-05 8.72495e-05 0 6.23073e-05 6.40797e-05 0 5.40278e-05 5.02294e-05 0 4.66007e-05 4.15095e-05 0 4.04998e-05 3.55004e-05 0 3.55338e-05 3.10135e-05 0 3.144e-05 2.74647e-05 0 2.80009e-05 2.45106e-05 0 2.5061e-05 2.19909e-05 0 2.25058e-05 1.98332e-05 0 2.02557e-05 1.7926e-05 0 1.82534e-05 1.62561e-05 0 1.64551e-05 1.47814e-05 0 1.48292e-05 1.34639e-05 0 1.33502e-05 1.23124e-05 0 1.19978e-05 1.12843e-05 0 1.07557e-05 1.03725e-05 0 9.6096e-06 9.57395e-06 0 8.54762e-06 8.864e-06 0 7.5593e-06 8.2453e-06 0 6.63509e-06 7.70569e-06 0 5.76667e-06 7.2335e-06 0 4.9463e-06 6.83631e-06 0 4.16679e-06 6.497e-06 0 3.42162e-06 6.21542e-06 0 2.70442e-06 5.99241e-06 0 2.00929e-06 5.81806e-06 0 1.33055e-06 5.69719e-06 0 6.62569e-07 5.62526e-06 0 0 5.59818e-06 0 1.7094e-05 0.000108818 0 3.54155e-05 0.000101076 0 4.50516e-05 8.45021e-05 0 4.61585e-05 6.84374e-05 0 4.32015e-05 5.60467e-05 0 3.9067e-05 4.69751e-05 0 3.49468e-05 4.02241e-05 0 3.12156e-05 3.50202e-05 0 2.79365e-05 3.08762e-05 0 2.50709e-05 2.74428e-05 0 2.25579e-05 2.45403e-05 0 2.03374e-05 2.20804e-05 0 1.83601e-05 1.99231e-05 0 1.65864e-05 1.80477e-05 0 1.4984e-05 1.64003e-05 0 1.35284e-05 1.4934e-05 0 1.21991e-05 1.36563e-05 0 1.09794e-05 1.25177e-05 0 9.85581e-06 1.15091e-05 0 8.81616e-06 1.06267e-05 0 7.85032e-06 9.84242e-06 0 6.94932e-06 9.15913e-06 0 6.10492e-06 8.5632e-06 0 5.30991e-06 8.0417e-06 0 4.55752e-06 7.60296e-06 0 3.84144e-06 7.2281e-06 0 3.15595e-06 6.91696e-06 0 2.49539e-06 6.6705e-06 0 1.85453e-06 6.47779e-06 0 1.22833e-06 6.34417e-06 0 6.11744e-07 6.26464e-06 0 -1.06702e-19 6.2347e-06 0 1.58509e-05 9.54031e-05 0 2.47841e-05 8.98971e-05 0 3.11641e-05 7.98195e-05 0 3.3648e-05 6.86114e-05 0 3.32656e-05 5.85096e-05 0 3.13962e-05 5.01678e-05 0 2.89601e-05 4.34464e-05 0 2.64312e-05 3.80128e-05 0 2.40165e-05 3.35717e-05 0 2.17896e-05 2.98482e-05 0 1.97637e-05 2.66855e-05 0 1.79276e-05 2.40031e-05 0 1.62626e-05 2.1653e-05 0 1.47488e-05 1.96137e-05 0 1.33672e-05 1.78253e-05 0 1.21019e-05 1.62355e-05 0 1.09387e-05 1.48517e-05 0 9.86559e-06 1.36193e-05 0 8.87217e-06 1.25281e-05 0 7.94913e-06 1.15734e-05 0 7.08841e-06 1.0725e-05 0 6.2828e-06 9.98564e-06 0 5.52553e-06 9.34067e-06 0 4.81063e-06 8.77609e-06 0 4.13244e-06 8.30095e-06 0 3.48564e-06 7.89487e-06 0 2.86534e-06 7.55772e-06 0 2.26669e-06 7.29058e-06 0 1.68519e-06 7.08166e-06 0 1.11646e-06 6.93678e-06 0 5.56117e-07 6.85054e-06 0 0 6.81806e-06 0 1.26119e-05 8.90518e-05 0 1.74267e-05 8.36131e-05 0 2.15934e-05 7.59566e-05 0 2.40183e-05 6.73881e-05 0 2.4722e-05 5.90992e-05 0 2.42163e-05 5.17151e-05 0 2.30235e-05 4.53879e-05 0 2.15118e-05 4.00409e-05 0 1.98995e-05 3.55377e-05 0 1.83033e-05 3.16928e-05 0 1.67779e-05 2.83899e-05 0 1.53463e-05 2.55686e-05 0 1.40141e-05 2.30885e-05 0 1.27788e-05 2.09315e-05 0 1.16343e-05 1.90376e-05 0 1.05733e-05 1.73528e-05 0 9.58835e-06 1.58855e-05 0 8.67215e-06 1.45779e-05 0 7.81808e-06 1.34196e-05 0 7.01977e-06 1.24056e-05 0 6.27146e-06 1.1504e-05 0 5.56784e-06 1.07178e-05 0 4.90377e-06 1.00317e-05 0 4.27462e-06 9.43072e-06 0 3.67592e-06 8.92469e-06 0 3.10337e-06 8.49203e-06 0 2.55301e-06 8.13267e-06 0 2.02084e-06 7.84783e-06 0 1.50311e-06 7.625e-06 0 9.96152e-07 7.47044e-06 0 4.96288e-07 7.37843e-06 0 0 7.34378e-06 0 7.83993e-06 8.55977e-05 0 1.0937e-05 7.97196e-05 0 1.39639e-05 7.29626e-05 0 1.618e-05 6.57715e-05 0 1.73777e-05 5.87064e-05 0 1.76932e-05 5.21689e-05 0 1.73802e-05 4.63386e-05 0 1.66763e-05 4.12399e-05 0 1.57575e-05 3.68291e-05 0 1.47408e-05 3.29917e-05 0 1.3696e-05 2.96504e-05 0 1.26646e-05 2.67669e-05 0 1.16683e-05 2.42171e-05 0 1.0718e-05 2.19889e-05 0 9.81796e-06 2.0026e-05 0 8.96888e-06 1.82759e-05 0 8.16934e-06 1.67484e-05 0 7.41683e-06 1.53854e-05 0 6.70834e-06 1.41763e-05 0 6.04053e-06 1.31166e-05 0 5.40999e-06 1.21734e-05 0 4.81337e-06 1.13501e-05 0 4.24721e-06 1.0631e-05 0 3.70826e-06 1.00007e-05 0 3.19326e-06 9.46957e-06 0 2.69903e-06 9.01518e-06 0 2.2225e-06 8.63758e-06 0 1.76058e-06 8.33814e-06 0 1.3103e-06 8.10382e-06 0 8.68733e-07 7.94124e-06 0 4.32915e-07 7.84444e-06 0 5.91776e-19 7.80798e-06 0 1.9561e-06 8.308e-05 0 4.60372e-06 7.68003e-05 0 7.24167e-06 7.04168e-05 0 9.41643e-06 6.39939e-05 0 1.0931e-05 5.77478e-05 0 1.17926e-05 5.18889e-05 0 1.21163e-05 4.65443e-05 0 1.20448e-05 4.17587e-05 0 1.17064e-05 3.75295e-05 0 1.12009e-05 3.37882e-05 0 1.0598e-05 3.04867e-05 0 9.94591e-06 2.76057e-05 0 9.27557e-06 2.50396e-05 0 8.60633e-06 2.27832e-05 0 7.95045e-06 2.07863e-05 0 7.3148e-06 1.89999e-05 0 6.70324e-06 1.74357e-05 0 6.1175e-06 1.60368e-05 0 5.55794e-06 1.47935e-05 0 5.02403e-06 1.37018e-05 0 4.51469e-06 1.27288e-05 0 4.02843e-06 1.18784e-05 0 3.56349e-06 1.11347e-05 0 3.11798e-06 1.04823e-05 0 2.68986e-06 9.93193e-06 0 2.27703e-06 9.46079e-06 0 1.87738e-06 9.06902e-06 0 1.48869e-06 8.75817e-06 0 1.10881e-06 8.51482e-06 0 7.35546e-07 8.34592e-06 0 3.66664e-07 8.24534e-06 0 0 8.20745e-06 0 -4.56488e-06 8.04649e-05 0 -1.6805e-06 7.40458e-05 0 1.03721e-06 6.79351e-05 0 3.35891e-06 6.20349e-05 0 5.16505e-06 5.63874e-05 0 6.4431e-06 5.10794e-05 0 7.25169e-06 4.61806e-05 0 7.68056e-06 4.17259e-05 0 7.82192e-06 3.77256e-05 0 7.7569e-06 3.41372e-05 0 7.54831e-06 3.0932e-05 0 7.24486e-06 2.81045e-05 0 6.88098e-06 2.55668e-05 0 6.48097e-06 2.33199e-05 0 6.06224e-06 2.13207e-05 0 5.63625e-06 1.95249e-05 0 5.21097e-06 1.79463e-05 0 4.79164e-06 1.65306e-05 0 4.38153e-06 1.52691e-05 0 3.98266e-06 1.4159e-05 0 3.59601e-06 1.31678e-05 0 3.22188e-06 1.23001e-05 0 2.86009e-06 1.15402e-05 0 2.51006e-06 1.08728e-05 0 2.17095e-06 1.03092e-05 0 1.84169e-06 9.82626e-06 0 1.52112e-06 9.4244e-06 0 1.20789e-06 9.10534e-06 0 9.00623e-07 8.85544e-06 0 5.97893e-07 8.68194e-06 0 2.9818e-07 8.57859e-06 0 0 8.53966e-06 0 -1.1206e-05 7.72463e-05 0 -7.79253e-06 7.10234e-05 0 -4.76518e-06 6.52645e-05 0 -2.18196e-06 5.98286e-05 0 -7.80755e-08 5.46849e-05 0 1.55335e-06 4.98545e-05 0 2.75573e-06 4.53673e-05 0 3.59332e-06 4.12441e-05 0 4.13591e-06 3.74962e-05 0 4.44952e-06 3.40956e-05 0 4.58926e-06 3.10259e-05 0 4.60118e-06 2.82902e-05 0 4.52033e-06 2.58165e-05 0 4.3733e-06 2.36107e-05 0 4.18056e-06 2.16367e-05 0 3.95671e-06 1.98556e-05 0 3.71274e-06 1.82828e-05 0 3.45667e-06 1.68678e-05 0 3.19415e-06 1.56034e-05 0 2.92936e-06 1.44877e-05 0 2.66512e-06 1.34896e-05 0 2.40334e-06 1.26141e-05 0 2.14526e-06 1.18461e-05 0 1.89155e-06 1.11707e-05 0 1.64246e-06 1.05996e-05 0 1.39794e-06 1.01098e-05 0 1.15771e-06 9.70194e-06 0 9.21288e-07 9.37782e-06 0 6.88052e-07 9.12385e-06 0 4.57296e-07 8.94744e-06 0 2.28218e-07 8.84232e-06 0 0 8.80272e-06 0 -1.75234e-05 7.32851e-05 0 -1.35357e-05 6.75667e-05 0 -1.01294e-05 6.22891e-05 0 -7.24545e-06 5.73383e-05 0 -4.85128e-06 5.26707e-05 0 -2.91195e-06 4.82832e-05 0 -1.38168e-06 4.41861e-05 0 -2.05935e-07 4.03906e-05 0 6.72655e-07 3.6907e-05 0 1.30966e-06 3.37157e-05 0 1.75342e-06 3.08079e-05 0 2.04639e-06 2.81921e-05 0 2.22259e-06 2.581e-05 0 2.30917e-06 2.36708e-05 0 2.32812e-06 2.17451e-05 0 2.29593e-06 1.99994e-05 0 2.22565e-06 1.84505e-05 0 2.12735e-06 1.70522e-05 0 2.00852e-06 1.57988e-05 0 1.8751e-06 1.46894e-05 0 1.73146e-06 1.36949e-05 0 1.58089e-06 1.28206e-05 0 1.42591e-06 1.20523e-05 0 1.26829e-06 1.13757e-05 0 1.10932e-06 1.08027e-05 0 9.4986e-07 1.03107e-05 0 7.90476e-07 9.90068e-06 0 6.3148e-07 9.57459e-06 0 4.72995e-07 9.31893e-06 0 3.15006e-07 9.14126e-06 0 1.57399e-07 9.03537e-06 0 0 8.99547e-06 0 -2.31009e-05 6.86891e-05 0 -1.86718e-05 6.36861e-05 0 -1.49374e-05 5.89985e-05 0 -1.17821e-05 5.45712e-05 0 -9.13362e-06 5.03797e-05 0 -6.93629e-06 4.64212e-05 0 -5.1381e-06 4.2702e-05 0 -3.68713e-06 3.92302e-05 0 -2.53238e-06 3.6016e-05 0 -1.62503e-06 3.30462e-05 0 -9.22053e-07 3.03175e-05 0 -3.84599e-07 2.78414e-05 0 1.94891e-08 2.55712e-05 0 3.16783e-07 2.35184e-05 0 5.29611e-07 2.16598e-05 0 6.75339e-07 1.99668e-05 0 7.68193e-07 1.84572e-05 0 8.19565e-07 1.70895e-05 0 8.38269e-07 1.58594e-05 0 8.31551e-07 1.47673e-05 0 8.05004e-07 1.37858e-05 0 7.6305e-07 1.29211e-05 0 7.09275e-07 1.21597e-05 0 6.46401e-07 1.14882e-05 0 5.76617e-07 1.09185e-05 0 5.01641e-07 1.0429e-05 0 4.2278e-07 1.00205e-05 0 3.41092e-07 9.69533e-06 0 2.57382e-07 9.44026e-06 0 1.72291e-07 9.26292e-06 0 8.63509e-08 9.15719e-06 0 0 9.11734e-06 0 -2.78617e-05 6.36944e-05 0 -2.31748e-05 5.94955e-05 0 -1.92143e-05 5.54527e-05 0 -1.58514e-05 5.15718e-05 0 -1.2999e-05 4.78578e-05 0 -1.05914e-05 4.43201e-05 0 -8.57342e-06 4.09695e-05 0 -6.89476e-06 3.78164e-05 0 -5.50875e-06 3.48724e-05 0 -4.37163e-06 3.21304e-05 0 -3.44476e-06 2.9591e-05 0 -2.69271e-06 2.7268e-05 0 -2.08548e-06 2.51242e-05 0 -1.59764e-06 2.31729e-05 0 -1.2072e-06 2.13959e-05 0 -8.96586e-07 1.97696e-05 0 -6.50984e-07 1.83123e-05 0 -4.58193e-07 1.6987e-05 0 -3.08507e-07 1.5791e-05 0 -1.93711e-07 1.47256e-05 0 -1.07269e-07 1.37659e-05 0 -4.38531e-08 1.29182e-05 0 1.02005e-09 1.21704e-05 0 3.08876e-08 1.15097e-05 0 4.87273e-08 1.09483e-05 0 5.70012e-08 1.04653e-05 0 5.77046e-08 1.00618e-05 0 5.25733e-08 9.74041e-06 0 4.30447e-08 9.4881e-06 0 3.03666e-08 9.31258e-06 0 1.56806e-08 9.20791e-06 0 0 9.16845e-06 0 -3.16764e-05 5.85566e-05 0 -2.69328e-05 5.51448e-05 0 -2.28745e-05 5.17445e-05 0 -1.93915e-05 4.84057e-05 0 -1.64016e-05 4.51599e-05 0 -1.38406e-05 4.20312e-05 0 -1.16549e-05 3.90384e-05 0 -9.7975e-06 3.61964e-05 0 -8.22563e-06 3.35198e-05 0 -6.89992e-06 3.1007e-05 0 -5.78557e-06 2.86621e-05 0 -4.85043e-06 2.65001e-05 0 -4.06681e-06 2.44926e-05 0 -3.41083e-06 2.26535e-05 0 -2.86137e-06 2.09692e-05 0 -2.40117e-06 1.94207e-05 0 -2.01535e-06 1.8026e-05 0 -1.69139e-06 1.67529e-05 0 -1.41909e-06 1.56001e-05 0 -1.1896e-06 1.45699e-05 0 -9.95741e-07 1.36394e-05 0 -8.31506e-07 1.28155e-05 0 -6.91716e-07 1.20871e-05 0 -5.72173e-07 1.14425e-05 0 -4.6924e-07 1.08939e-05 0 -3.7982e-07 1.04212e-05 0 -3.01316e-07 1.0026e-05 0 -2.31393e-07 9.71086e-06 0 -1.68043e-07 9.46331e-06 0 -1.09467e-07 9.29101e-06 0 -5.39672e-08 9.18821e-06 0 0 9.14946e-06 0 -3.46622e-05 5.34867e-05 0 -3.00096e-05 5.07778e-05 0 -2.5962e-05 4.79732e-05 0 -2.24394e-05 4.51458e-05 0 -1.93752e-05 4.2345e-05 0 -1.67138e-05 3.96063e-05 0 -1.44075e-05 3.6956e-05 0 -1.24141e-05 3.44141e-05 0 -1.06956e-05 3.19982e-05 0 -9.21685e-06 2.97119e-05 0 -7.94678e-06 2.75624e-05 0 -6.85646e-06 2.55654e-05 0 -5.92067e-06 2.36998e-05 0 -5.11726e-06 2.19799e-05 0 -4.42636e-06 2.03963e-05 0 -3.83138e-06 1.89335e-05 0 -3.31777e-06 1.76096e-05 0 -2.87303e-06 1.63968e-05 0 -2.48677e-06 1.52946e-05 0 -2.14983e-06 1.43064e-05 0 -1.85462e-06 1.34116e-05 0 -1.59464e-06 1.26172e-05 0 -1.36421e-06 1.19135e-05 0 -1.1586e-06 1.12896e-05 0 -9.73654e-07 1.07577e-05 0 -8.05731e-07 1.0299e-05 0 -6.51724e-07 9.91488e-06 0 -5.08771e-07 9.60832e-06 0 -3.74362e-07 9.36736e-06 0 -2.46202e-07 9.19955e-06 0 -1.22089e-07 9.0994e-06 0 -6.89254e-20 9.06164e-06 0 -3.69992e-05 4.86155e-05 0 -3.25257e-05 4.64997e-05 0 -2.85639e-05 4.42203e-05 0 -2.50634e-05 4.18568e-05 0 -2.19761e-05 3.94665e-05 0 -1.92583e-05 3.70916e-05 0 -1.68705e-05 3.47639e-05 0 -1.47766e-05 3.25074e-05 0 -1.29437e-05 3.03423e-05 0 -1.13412e-05 2.82766e-05 0 -9.94186e-06 2.63198e-05 0 -8.71991e-06 2.44882e-05 0 -7.65265e-06 2.27669e-05 0 -6.71987e-06 2.11705e-05 0 -5.90313e-06 1.96927e-05 0 -5.18676e-06 1.83215e-05 0 -4.55679e-06 1.70745e-05 0 -4.00101e-06 1.59279e-05 0 -3.50909e-06 1.48825e-05 0 -3.07176e-06 1.39419e-05 0 -2.6812e-06 1.30881e-05 0 -2.33062e-06 1.23283e-05 0 -2.01396e-06 1.16537e-05 0 -1.7261e-06 1.10547e-05 0 -1.46244e-06 1.0543e-05 0 -1.21892e-06 1.01011e-05 0 -9.91987e-07 9.73081e-06 0 -7.78323e-07 9.43492e-06 0 -5.74977e-07 9.2022e-06 0 -3.79211e-07 9.04004e-06 0 -1.88371e-07 8.94322e-06 0 1.07669e-19 8.90671e-06 0 -3.87117e-05 4.40129e-05 0 -3.44719e-05 4.238e-05 0 -3.06533e-05 4.05478e-05 0 -2.72287e-05 3.8592e-05 0 -2.4167e-05 3.65707e-05 0 -2.14367e-05 3.45284e-05 0 -1.90072e-05 3.24996e-05 0 -1.68493e-05 3.05106e-05 0 -1.49357e-05 2.85832e-05 0 -1.32405e-05 2.67293e-05 0 -1.174e-05 2.49598e-05 0 -1.04118e-05 2.32913e-05 0 -9.23577e-06 2.17143e-05 0 -8.19372e-06 2.02429e-05 0 -7.26879e-06 1.88736e-05 0 -6.44646e-06 1.75977e-05 0 -5.71356e-06 1.64319e-05 0 -5.05838e-06 1.53561e-05 0 -4.47088e-06 1.43719e-05 0 -3.9419e-06 1.34837e-05 0 -3.46357e-06 1.26753e-05 0 -3.02898e-06 1.19541e-05 0 -2.63185e-06 1.13124e-05 0 -2.26679e-06 1.07416e-05 0 -1.9289e-06 1.02533e-05 0 -1.61378e-06 9.83098e-06 0 -1.31752e-06 9.47667e-06 0 -1.03645e-06 9.19331e-06 0 -7.67219e-07 8.97029e-06 0 -5.06732e-07 8.8148e-06 0 -2.51937e-07 8.72193e-06 0 0 8.6869e-06 0 -4.00153e-05 3.97041e-05 0 -3.60251e-05 3.84565e-05 0 -3.23752e-05 3.69963e-05 0 -2.90555e-05 3.53908e-05 0 -2.60489e-05 3.36945e-05 0 -2.33345e-05 3.19508e-05 0 -2.08904e-05 3.01945e-05 0 -1.86941e-05 2.84528e-05 0 -1.67238e-05 2.67483e-05 0 -1.49581e-05 2.50951e-05 0 -1.33771e-05 2.35054e-05 0 -1.19615e-05 2.19955e-05 0 -1.06938e-05 2.05603e-05 0 -9.55794e-06 1.92134e-05 0 -8.53861e-06 1.79538e-05 0 -7.62256e-06 1.6775e-05 0 -6.79755e-06 1.5693e-05 0 -6.05252e-06 1.46912e-05 0 -5.37784e-06 1.37716e-05 0 -4.7646e-06 1.2939e-05 0 -4.20503e-06 1.21795e-05 0 -3.6922e-06 1.15002e-05 0 -3.21971e-06 1.08946e-05 0 -2.78201e-06 1.0355e-05 0 -2.374e-06 9.89251e-06 0 -1.99098e-06 9.49211e-06 0 -1.6288e-06 9.15578e-06 0 -1.28345e-06 8.88655e-06 0 -9.51289e-07 8.6745e-06 0 -6.28881e-07 8.52658e-06 0 -3.12841e-07 8.43821e-06 0 0 8.40487e-06 0 -4.09829e-05 3.56877e-05 0 -3.72411e-05 3.47433e-05 0 -3.37709e-05 3.35878e-05 0 -3.05738e-05 3.22784e-05 0 -2.76429e-05 3.08639e-05 0 -2.49665e-05 2.93845e-05 0 -2.25299e-05 2.78736e-05 0 -2.03169e-05 2.6358e-05 0 -1.83108e-05 2.48599e-05 0 -1.64944e-05 2.33949e-05 0 -1.48516e-05 2.19759e-05 0 -1.33661e-05 2.06185e-05 0 -1.20228e-05 1.93211e-05 0 -1.08077e-05 1.80968e-05 0 -9.70728e-06 1.69462e-05 0 -8.70949e-06 1.5865e-05 0 -7.80311e-06 1.48683e-05 0 -6.97785e-06 1.39423e-05 0 -6.22459e-06 1.30897e-05 0 -5.53477e-06 1.23154e-05 0 -4.90081e-06 1.16073e-05 0 -4.31587e-06 1.09725e-05 0 -3.77355e-06 1.04055e-05 0 -3.26821e-06 9.89945e-06 0 -2.79459e-06 9.46497e-06 0 -2.34785e-06 9.08837e-06 0 -1.92358e-06 8.77171e-06 0 -1.51755e-06 8.51798e-06 0 -1.12585e-06 8.31801e-06 0 -7.44768e-07 8.17844e-06 0 -3.70637e-07 8.09502e-06 0 0 8.06355e-06 0 -4.16712e-05 3.19476e-05 0 -3.81644e-05 3.12402e-05 0 -3.48736e-05 3.03317e-05 0 -3.1807e-05 2.92698e-05 0 -2.89649e-05 2.80969e-05 0 -2.63423e-05 2.68488e-05 0 -2.39307e-05 2.55566e-05 0 -2.1719e-05 2.42456e-05 0 -1.96952e-05 2.2937e-05 0 -1.78459e-05 2.1647e-05 0 -1.61584e-05 2.03886e-05 0 -1.46191e-05 1.91765e-05 0 -1.32154e-05 1.80118e-05 0 -1.19352e-05 1.69067e-05 0 -1.07667e-05 1.58633e-05 0 -9.69909e-06 1.48791e-05 0 -8.72224e-06 1.39679e-05 0 -7.82663e-06 1.31187e-05 0 -7.00375e-06 1.23344e-05 0 -6.24546e-06 1.16201e-05 0 -5.54448e-06 1.09654e-05 0 -4.89412e-06 1.03771e-05 0 -4.28805e-06 9.85057e-06 0 -3.72064e-06 9.37996e-06 0 -3.18656e-06 8.97525e-06 0 -2.68083e-06 8.62405e-06 0 -2.19892e-06 8.32843e-06 0 -1.73639e-06 8.09135e-06 0 -1.28913e-06 7.90438e-06 0 -8.5322e-07 7.77382e-06 0 -4.2474e-07 7.69576e-06 0 0 7.66631e-06 0 -4.21757e-05 2.84612e-05 0 -3.88869e-05 2.79377e-05 0 -3.57682e-05 2.7228e-05 0 -3.28319e-05 2.63714e-05 0 -3.00834e-05 2.54038e-05 0 -2.75228e-05 2.43566e-05 0 -2.51463e-05 2.32577e-05 0 -2.29475e-05 2.21305e-05 0 -2.09179e-05 2.09946e-05 0 -1.90481e-05 1.98662e-05 0 -1.73279e-05 1.87577e-05 0 -1.57467e-05 1.76829e-05 0 -1.42939e-05 1.6645e-05 0 -1.29594e-05 1.56551e-05 0 -1.17329e-05 1.47163e-05 0 -1.06048e-05 1.38274e-05 0 -9.56621e-06 1.30012e-05 0 -8.60828e-06 1.22289e-05 0 -7.72316e-06 1.15136e-05 0 -6.9032e-06 1.08602e-05 0 -6.14143e-06 1.02602e-05 0 -5.43138e-06 9.7198e-06 0 -4.76686e-06 9.23528e-06 0 -4.14228e-06 8.80157e-06 0 -3.55229e-06 8.428e-06 0 -2.99185e-06 8.10348e-06 0 -2.45632e-06 7.83005e-06 0 -1.94111e-06 7.61057e-06 0 -1.44196e-06 7.43738e-06 0 -9.54766e-07 7.31638e-06 0 -4.75409e-07 7.24402e-06 0 0 7.21671e-06 0 -4.25218e-05 2.52032e-05 0 -3.94291e-05 2.48214e-05 0 -3.64698e-05 2.42708e-05 0 -3.36585e-05 2.35834e-05 0 -3.10038e-05 2.27892e-05 0 -2.85093e-05 2.19154e-05 0 -2.6175e-05 2.09865e-05 0 -2.39979e-05 2.00234e-05 0 -2.19728e-05 1.90442e-05 0 -2.00931e-05 1.8064e-05 0 -1.83514e-05 1.70949e-05 0 -1.67394e-05 1.61493e-05 0 -1.52485e-05 1.52317e-05 0 -1.38702e-05 1.43524e-05 0 -1.25957e-05 1.35149e-05 0 -1.14169e-05 1.27192e-05 0 -1.03255e-05 1.19768e-05 0 -9.31367e-06 1.12809e-05 0 -8.3742e-06 1.06346e-05 0 -7.49991e-06 1.00427e-05 0 -6.6842e-06 9.49803e-06 0 -5.92085e-06 9.00652e-06 0 -5.20384e-06 8.56507e-06 0 -4.52767e-06 8.16935e-06 0 -3.88702e-06 7.828e-06 0 -3.27682e-06 7.53117e-06 0 -2.69237e-06 7.28084e-06 0 -2.12899e-06 7.07973e-06 0 -1.5823e-06 6.92096e-06 0 -1.04805e-06 6.80997e-06 0 -5.21968e-07 6.74358e-06 0 0 6.71851e-06 0 -4.27554e-05 2.21473e-05 0 -3.98371e-05 2.18739e-05 0 -3.70228e-05 2.145e-05 0 -3.43282e-05 2.09016e-05 0 -3.17637e-05 2.02536e-05 0 -2.93357e-05 1.9529e-05 0 -2.70466e-05 1.8749e-05 0 -2.48963e-05 1.79321e-05 0 -2.28822e-05 1.70944e-05 0 -2.10004e-05 1.62499e-05 0 -1.92454e-05 1.54099e-05 0 -1.76111e-05 1.45853e-05 0 -1.60907e-05 1.37816e-05 0 -1.46772e-05 1.30079e-05 0 -1.33632e-05 1.22681e-05 0 -1.21416e-05 1.1563e-05 0 -1.10052e-05 1.09028e-05 0 -9.94695e-06 1.02823e-05 0 -8.96014e-06 9.70458e-06 0 -8.03815e-06 9.17424e-06 0 -7.17476e-06 8.68525e-06 0 -6.36402e-06 8.24318e-06 0 -5.6001e-06 7.84549e-06 0 -4.87762e-06 7.48854e-06 0 -4.19131e-06 7.18022e-06 0 -3.53614e-06 6.91185e-06 0 -2.90735e-06 6.68532e-06 0 -2.30022e-06 6.5032e-06 0 -1.71027e-06 6.35934e-06 0 -1.13314e-06 6.25873e-06 0 -5.64445e-07 6.19853e-06 0 0 6.1758e-06 0 -4.29111e-05 1.92687e-05 0 -4.01474e-05 1.90772e-05 0 -3.74636e-05 1.87537e-05 0 -3.4876e-05 1.83192e-05 0 -3.23963e-05 1.77941e-05 0 -3.00324e-05 1.71977e-05 0 -2.7789e-05 1.6548e-05 0 -2.56679e-05 1.58612e-05 0 -2.36688e-05 1.51511e-05 0 -2.17898e-05 1.44307e-05 0 -2.00274e-05 1.371e-05 0 -1.83771e-05 1.29987e-05 0 -1.68338e-05 1.23025e-05 0 -1.53919e-05 1.16295e-05 0 -1.40451e-05 1.09836e-05 0 -1.27875e-05 1.03662e-05 0 -1.16126e-05 9.78629e-06 0 -1.05142e-05 9.2399e-06 0 -9.48609e-06 8.73007e-06 0 -8.52221e-06 8.26098e-06 0 -7.61669e-06 7.82772e-06 0 -6.76386e-06 7.43536e-06 0 -5.95809e-06 7.08186e-06 0 -5.19413e-06 6.7642e-06 0 -4.46682e-06 6.48948e-06 0 -3.77112e-06 6.25014e-06 0 -3.1023e-06 6.04796e-06 0 -2.45558e-06 5.88529e-06 0 -1.82643e-06 5.75674e-06 0 -1.21041e-06 5.6668e-06 0 -6.03022e-07 5.61297e-06 0 0 5.59265e-06 0 -4.29996e-05 1.65432e-05 0 -4.0367e-05 1.64127e-05 0 -3.77959e-05 1.61684e-05 0 -3.53023e-05 1.58271e-05 0 -3.28987e-05 1.54054e-05 0 -3.05939e-05 1.49193e-05 0 -2.8394e-05 1.4384e-05 0 -2.63026e-05 1.3813e-05 0 -2.43209e-05 1.32183e-05 0 -2.24486e-05 1.26114e-05 0 -2.06837e-05 1.2001e-05 0 -1.90234e-05 1.13957e-05 0 -1.74636e-05 1.08009e-05 0 -1.6e-05 1.02238e-05 0 -1.46275e-05 9.6682e-06 0 -1.33408e-05 9.13563e-06 0 -1.21345e-05 8.63392e-06 0 -1.10028e-05 8.16022e-06 0 -9.94023e-06 7.71729e-06 0 -8.94106e-06 7.30894e-06 0 -7.9998e-06 6.93121e-06 0 -7.11105e-06 6.58858e-06 0 -6.2694e-06 6.2795e-06 0 -5.46973e-06 6.00144e-06 0 -4.70697e-06 5.7607e-06 0 -3.97614e-06 5.5508e-06 0 -3.27252e-06 5.37337e-06 0 -2.59132e-06 5.23052e-06 0 -1.92797e-06 5.11758e-06 0 -1.27797e-06 5.03853e-06 0 -6.36762e-07 4.99121e-06 0 0 4.97334e-06 0 -4.30494e-05 1.39481e-05 0 -4.05295e-05 1.38621e-05 0 -3.80561e-05 1.368e-05 0 -3.56451e-05 1.34152e-05 0 -3.3309e-05 1.30809e-05 0 -3.10578e-05 1.26901e-05 0 -2.88983e-05 1.22553e-05 0 -2.68353e-05 1.17879e-05 0 -2.48714e-05 1.12978e-05 0 -2.30075e-05 1.07951e-05 0 -2.1243e-05 1.02871e-05 0 -1.95761e-05 9.7811e-06 0 -1.8004e-05 9.28227e-06 0 -1.65234e-05 8.79661e-06 0 -1.513e-05 8.32772e-06 0 -1.38195e-05 7.87719e-06 0 -1.25869e-05 7.45168e-06 0 -1.14272e-05 7.04914e-06 0 -1.03353e-05 6.67207e-06 0 -9.30604e-06 6.32383e-06 0 -8.33409e-06 6.00124e-06 0 -7.41437e-06 5.70825e-06 0 -6.54166e-06 5.44362e-06 0 -5.71098e-06 5.20534e-06 0 -4.91736e-06 4.99882e-06 0 -4.15588e-06 4.81864e-06 0 -3.42184e-06 4.66623e-06 0 -2.71045e-06 4.54346e-06 0 -2.01711e-06 4.44635e-06 0 -1.33729e-06 4.37837e-06 0 -6.66395e-07 4.33766e-06 0 0 4.32229e-06 0 -4.30714e-05 1.14624e-05 0 -4.06453e-05 1.14081e-05 0 -3.8254e-05 1.12747e-05 0 -3.59131e-05 1.10728e-05 0 -3.36351e-05 1.08127e-05 0 -3.14305e-05 1.05048e-05 0 -2.93068e-05 1.01592e-05 0 -2.72697e-05 9.78496e-06 0 -2.53228e-05 9.3904e-06 0 -2.34679e-05 8.98371e-06 0 -2.17055e-05 8.57117e-06 0 -2.00349e-05 8.15865e-06 0 -1.8454e-05 7.75081e-06 0 -1.69604e-05 7.3526e-06 0 -1.55507e-05 6.96718e-06 0 -1.4221e-05 6.59608e-06 0 -1.29672e-05 6.24483e-06 0 -1.17846e-05 5.91199e-06 0 -1.06686e-05 5.59972e-06 0 -9.61435e-06 5.31088e-06 0 -8.61685e-06 5.04302e-06 0 -7.67123e-06 4.79943e-06 0 -6.77244e-06 4.57921e-06 0 -5.91566e-06 4.38075e-06 0 -5.096e-06 4.2086e-06 0 -4.30859e-06 4.05831e-06 0 -3.54877e-06 3.93112e-06 0 -2.81175e-06 3.82861e-06 0 -2.09294e-06 3.74751e-06 0 -1.38777e-06 3.69071e-06 0 -6.91612e-07 3.6567e-06 0 0 3.64385e-06 0 -4.30752e-05 9.06567e-06 0 -4.07236e-05 9.03304e-06 0 -3.8398e-05 8.93797e-06 0 -3.61136e-05 8.78831e-06 0 -3.3883e-05 8.59208e-06 0 -3.17167e-05 8.35717e-06 0 -2.9623e-05 8.0914e-06 0 -2.76081e-05 7.80198e-06 0 -2.56761e-05 7.49532e-06 0 -2.38299e-05 7.17801e-06 0 -2.20706e-05 6.85506e-06 0 -2.03981e-05 6.53109e-06 0 -1.88113e-05 6.21003e-06 0 -1.73083e-05 5.89579e-06 0 -1.58863e-05 5.59102e-06 0 -1.45421e-05 5.29708e-06 0 -1.32718e-05 5.01834e-06 0 -1.20713e-05 4.75386e-06 0 -1.09364e-05 4.5054e-06 0 -9.86238e-06 4.27529e-06 0 -8.84458e-06 4.06168e-06 0 -7.87831e-06 3.86724e-06 0 -6.95868e-06 3.6913e-06 0 -6.08097e-06 3.53265e-06 0 -5.24036e-06 3.39493e-06 0 -4.43207e-06 3.27464e-06 0 -3.65145e-06 3.17278e-06 0 -2.89374e-06 3.09067e-06 0 -2.15433e-06 3.02568e-06 0 -1.42865e-06 2.98016e-06 0 -7.12036e-07 2.95289e-06 0 0 2.94259e-06 0 -4.30709e-05 6.73899e-06 0 -4.07777e-05 6.72064e-06 0 -3.85037e-05 6.6559e-06 0 -3.6264e-05 6.55043e-06 0 -3.40711e-05 6.41e-06 0 -3.19356e-05 6.24036e-06 0 -2.98662e-05 6.04723e-06 0 -2.78694e-05 5.83591e-06 0 -2.59501e-05 5.61113e-06 0 -2.41114e-05 5.37784e-06 0 -2.23552e-05 5.13976e-06 0 -2.06819e-05 4.90033e-06 0 -1.90911e-05 4.66261e-06 0 -1.75812e-05 4.42949e-06 0 -1.615e-05 4.20303e-06 0 -1.47947e-05 3.98433e-06 0 -1.35118e-05 3.77663e-06 0 -1.22975e-05 3.57935e-06 0 -1.11478e-05 3.39382e-06 0 -1.00584e-05 3.22183e-06 0 -9.02468e-06 3.06205e-06 0 -8.0422e-06 2.9165e-06 0 -7.10616e-06 2.78471e-06 0 -6.21194e-06 2.6658e-06 0 -5.35481e-06 2.56253e-06 0 -4.53e-06 2.47229e-06 0 -3.73292e-06 2.39586e-06 0 -2.95881e-06 2.33421e-06 0 -2.20306e-06 2.28542e-06 0 -1.4611e-06 2.25123e-06 0 -7.2825e-07 2.23075e-06 0 0 2.22302e-06 0 -4.30636e-05 4.46428e-06 0 -4.08108e-05 4.45487e-06 0 -3.85729e-05 4.41476e-06 0 -3.63644e-05 4.34759e-06 0 -3.41981e-05 4.25712e-06 0 -3.20844e-05 4.14709e-06 0 -3.00323e-05 4.02125e-06 0 -2.80486e-05 3.88307e-06 0 -2.61385e-05 3.73569e-06 0 -2.43055e-05 3.58237e-06 0 -2.25519e-05 3.42562e-06 0 -2.08785e-05 3.2677e-06 0 -1.92852e-05 3.11068e-06 0 -1.77709e-05 2.9565e-06 0 -1.63335e-05 2.80654e-06 0 -1.49707e-05 2.66158e-06 0 -1.36791e-05 2.52378e-06 0 -1.24554e-05 2.39278e-06 0 -1.12956e-05 2.2695e-06 0 -1.01955e-05 2.15513e-06 0 -9.15075e-06 2.04882e-06 0 -8.15699e-06 1.95192e-06 0 -7.20952e-06 1.86415e-06 0 -6.30378e-06 1.78493e-06 0 -5.43508e-06 1.71609e-06 0 -4.59872e-06 1.65593e-06 0 -3.7901e-06 1.60495e-06 0 -3.00449e-06 1.56383e-06 0 -2.23728e-06 1.53128e-06 0 -1.48389e-06 1.50847e-06 0 -7.39638e-07 1.49481e-06 0 0 1.48964e-06 0 -4.30577e-05 2.22359e-06 0 -4.0829e-05 2.21972e-06 0 -3.86126e-05 2.20057e-06 0 -3.64228e-05 2.16793e-06 0 -3.42724e-05 2.12364e-06 0 -3.21719e-05 2.06955e-06 0 -3.01303e-05 2.0075e-06 0 -2.81546e-05 1.93923e-06 0 -2.62501e-05 1.86628e-06 0 -2.44207e-05 1.79029e-06 0 -2.26688e-05 1.71251e-06 0 -2.09955e-05 1.63406e-06 0 -1.94008e-05 1.556e-06 0 -1.78839e-05 1.47928e-06 0 -1.6443e-05 1.40462e-06 0 -1.50757e-05 1.33239e-06 0 -1.37791e-05 1.26369e-06 0 -1.25498e-05 1.19836e-06 0 -1.13839e-05 1.13684e-06 0 -1.02775e-05 1.07975e-06 0 -9.22622e-06 1.02666e-06 0 -8.22574e-06 9.78255e-07 0 -7.27144e-06 9.34397e-07 0 -6.35882e-06 8.948e-07 0 -5.48321e-06 8.60388e-07 0 -4.63992e-06 8.30305e-07 0 -3.8244e-06 8.04813e-07 0 -3.03189e-06 7.84247e-07 0 -2.25781e-06 7.67963e-07 0 -1.49757e-06 7.56553e-07 0 -7.46471e-07 7.49716e-07 0 0 7.47134e-07 0 -4.30552e-05 -0 0 -4.08356e-05 7.98704e-19 0 -3.86272e-05 -0 0 -3.64445e-05 -0 0 -3.43001e-05 -0 0 -3.22046e-05 -7.08627e-19 0 -3.0167e-05 -0 0 -2.81943e-05 -0 0 -2.6292e-05 -0 0 -2.4464e-05 -2.22632e-19 0 -2.27127e-05 -2.59139e-19 0 -2.10395e-05 -0 0 -1.94443e-05 -0 0 -1.79265e-05 1.75312e-19 0 -1.64843e-05 1.25384e-19 0 -1.51154e-05 4.10613e-21 0 -1.38169e-05 -0 0 -1.25854e-05 -0 0 -1.14173e-05 1.28714e-19 0 -1.03085e-05 -0 0 -9.25472e-06 -1.00563e-19 0 -8.25171e-06 -0 0 -7.29484e-06 -0 0 -6.37961e-06 -0 0 -5.50139e-06 1.86809e-20 0 -4.65549e-06 -1.51762e-20 0 -3.83736e-06 -0 0 -3.04225e-06 -0 0 -2.26557e-06 -0 0 -1.50273e-06 -0 0 -7.49053e-07 -0 0 0 -0 0 </DataArray> 
</PointData> 
<Points> 
<DataArray type="Float32" NumberOfComponents="3"> 