<?xml version="1.0"?> 
<VTKFile type="StructuredGrid" version="0.1"> 
<StructuredGrid WholeExtent="0 31 0 31 0 0"> 
<Piece Extent="0 31 0 31 0 0"> 
<PointData>
<DataArray type="Float32" Name="B" format="ascii" NumberOfComponents="3"> 
0 3.3361e-06 0 5.91081e-07 3.35386e-06 0 1.18754e-06 3.40106e-06 0 1.79471e-06 3.48052e-06 0 2.41824e-06 3.59546e-06 0 3.06386e-06 3.74297e-06 0 3.7376e-06 3.93009e-06 0 4.44604e-06 4.15675e-06 0 5.19604e-06 4.42355e-06 0 5.99523e-06 4.74316e-06 0 6.85203e-06 5.11092e-06 0 7.77559e-06 5.53594e-06 0 8.77663e-06 6.02788e-06 0 9.86711e-06 6.58547e-06 0 1.1061e-05 7.22763e-06 0 1.23753e-05 7.95674e-06 0 1.383e-05 8.77764e-06 0 1.54511e-05 9.71957e-06 0 1.72724e-05 1.07721e-05 0 1.93385e-05 1.19539e-05 0 2.17158e-05 1.32774e-05 0 2.45001e-05 1.47294e-05 0 2.78413e-05 1.63262e-05 0 3.19906e-05 1.80432e-05 0 3.73632e-05 1.98621e-05 0 4.47209e-05 2.17773e-05 0 5.55046e-05 2.38342e-05 0 7.2702e-05 2.63094e-05 0 0.000103362 3.03468e-05 0 0.000168293 4.09762e-05 0 0.000364178 9.26744e-05 0 0.00802723 0.00437752 0 0 3.13772e-06 0 6.01325e-07 3.15447e-06 0 1.20817e-06 3.19898e-06 0 1.82601e-06 3.27392e-06 0 2.46066e-06 3.38231e-06 0 3.118e-06 3.52142e-06 0 3.80422e-06 3.6979e-06 0 4.52612e-06 3.91168e-06 0 5.29073e-06 4.16333e-06 0 6.10593e-06 4.46477e-06 0 6.98036e-06 4.81161e-06 0 7.92346e-06 5.21237e-06 0 8.94623e-06 5.67607e-06 0 1.00609e-05 6.20138e-06 0 1.12817e-05 6.80578e-06 0 1.2626e-05 7.49106e-06 0 1.41138e-05 8.26108e-06 0 1.57711e-05 9.14137e-06 0 1.76313e-05 1.01203e-05 0 1.97381e-05 1.12107e-05 0 2.21562e-05 1.2416e-05 0 2.49784e-05 1.37138e-05 0 2.83498e-05 1.50892e-05 0 3.25145e-05 1.64808e-05 0 3.78785e-05 1.77968e-05 0 4.51926e-05 1.8867e-05 0 5.58903e-05 1.941e-05 0 7.29702e-05 1.89122e-05 0 0.000103562 1.62199e-05 0 0.000168788 7.36518e-06 0 0.000363907 -3.8948e-05 0 0.000864947 -0.0015257 0 0 2.93604e-06 0 6.10961e-07 2.95175e-06 0 1.22758e-06 2.9935e-06 0 1.85546e-06 3.06379e-06 0 2.50057e-06 3.16547e-06 0 3.16893e-06 3.29597e-06 0 3.8669e-06 3.46153e-06 0 4.60146e-06 3.66209e-06 0 5.37982e-06 3.89817e-06 0 6.21006e-06 4.18096e-06 0 7.10108e-06 4.5063e-06 0 8.06252e-06 4.88215e-06 0 9.10564e-06 5.31686e-06 0 1.02429e-05 5.80906e-06 0 1.14888e-05 6.37479e-06 0 1.28608e-05 7.0153e-06 0 1.43789e-05 7.7335e-06 0 1.60687e-05 8.55132e-06 0 1.79629e-05 9.45615e-06 0 2.01036e-05 1.04552e-05 0 2.25523e-05 1.15434e-05 0 2.53964e-05 1.26899e-05 0 2.87723e-05 1.38497e-05 0 3.29082e-05 1.49265e-05 0 3.8184e-05 1.57575e-05 0 4.5303e-05 1.60133e-05 0 5.56032e-05 1.50965e-05 0 7.18477e-05 1.17393e-05 0 0.000100376 2.66026e-06 0 0.000158222 -2.3762e-05 0 0.000297618 -0.000137312 0 0.00020825 -0.000860259 0 7.01149e-20 2.73127e-06 0 6.19973e-07 2.74591e-06 0 1.24573e-06 2.78484e-06 0 1.88301e-06 2.85037e-06 0 2.53789e-06 2.94518e-06 0 3.21657e-06 3.06686e-06 0 3.92554e-06 3.22123e-06 0 4.67193e-06 3.40825e-06 0 5.46315e-06 3.62839e-06 0 6.30747e-06 3.89206e-06 0 7.21397e-06 4.19538e-06 0 8.19253e-06 4.54571e-06 0 9.25463e-06 4.95075e-06 0 1.04129e-05 5.40909e-06 0 1.1682e-05 5.93536e-06 0 1.30794e-05 6.53029e-06 0 1.46249e-05 7.19593e-06 0 1.63438e-05 7.9508e-06 0 1.82672e-05 8.78147e-06 0 2.04352e-05 9.69007e-06 0 2.29049e-05 1.06636e-05 0 2.57562e-05 1.16639e-05 0 2.91124e-05 1.26185e-05 0 3.31778e-05 1.33993e-05 0 3.82911e-05 1.37789e-05 0 4.50733e-05 1.32839e-05 0 5.46879e-05 1.10385e-05 0 6.94507e-05 5.14095e-06 0 9.42414e-05 -9.29219e-06 0 0.000139462 -4.81562e-05 0 0.000212592 -0.000181325 0 2.43371e-05 -0.000569965 0 0 2.5236e-06 0 6.28348e-07 2.53716e-06 0 1.2626e-06 2.5732e-06 0 1.9086e-06 2.63388e-06 0 2.57258e-06 2.72166e-06 0 3.26084e-06 2.83432e-06 0 3.98003e-06 2.97727e-06 0 4.73743e-06 3.15044e-06 0 5.5406e-06 3.35428e-06 0 6.39799e-06 3.59842e-06 0 7.31887e-06 3.87923e-06 0 8.3133e-06 4.20349e-06 0 9.39294e-06 4.57824e-06 0 1.05706e-05 5.00206e-06 0 1.1861e-05 5.48817e-06 0 1.32815e-05 6.03686e-06 0 1.48518e-05 6.64941e-06 0 1.65962e-05 7.34115e-06 0 1.85445e-05 8.09805e-06 0 2.07337e-05 8.91778e-06 0 2.32155e-05 9.78053e-06 0 2.60606e-05 1.06417e-05 0 2.93753e-05 1.14056e-05 0 3.33334e-05 1.19165e-05 0 3.82181e-05 1.18924e-05 0 4.45399e-05 1.07401e-05 0 5.32247e-05 7.3627e-06 0 6.59946e-05 -5.95673e-07 0 8.59286e-05 -1.89101e-05 0 0.00011661 -6.41172e-05 0 0.00013912 -0.00018729 0 -4.12648e-05 -0.000404042 0 0 2.31325e-06 0 6.3607e-07 2.32571e-06 0 1.27816e-06 2.35881e-06 0 1.93221e-06 2.41453e-06 0 2.60457e-06 2.49515e-06 0 3.30167e-06 2.59863e-06 0 4.03029e-06 2.72992e-06 0 4.79783e-06 2.88896e-06 0 5.61201e-06 3.07618e-06 0 6.48145e-06 3.30039e-06 0 7.41557e-06 3.55825e-06 0 8.4246e-06 3.85594e-06 0 9.52036e-06 4.19983e-06 0 1.07158e-05 4.58854e-06 0 1.20256e-05 5.0339e-06 0 1.3467e-05 5.53582e-06 0 1.50594e-05 6.09493e-06 0 1.68261e-05 6.72362e-06 0 1.8795e-05 7.40757e-06 0 2.09999e-05 8.14063e-06 0 2.3486e-05 8.89746e-06 0 2.63131e-05 9.62863e-06 0 2.9568e-05 1.02194e-05 0 3.33876e-05 1.04929e-05 0 3.79893e-05 1.01249e-05 0 4.37512e-05 8.4324e-06 0 5.13208e-05 4.16789e-06 0 6.17581e-05 -5.27422e-06 0 7.63368e-05 -2.58579e-05 0 9.32609e-05 -7.21646e-05 0 8.42745e-05 -0.0001745 0 -6.72744e-05 -0.000299827 0 -2.38794e-19 2.10045e-06 0 6.4313e-07 2.11178e-06 0 1.29237e-06 2.14189e-06 0 1.95379e-06 2.19257e-06 0 2.63382e-06 2.2659e-06 0 3.339e-06 2.36002e-06 0 4.07623e-06 2.47945e-06 0 4.85305e-06 2.62412e-06 0 5.6773e-06 2.79441e-06 0 6.55775e-06 2.99833e-06 0 7.50396e-06 3.23283e-06 0 8.5263e-06 3.5035e-06 0 9.63672e-06 3.81605e-06 0 1.08482e-05 4.16912e-06 0 1.21756e-05 4.57323e-06 0 1.36358e-05 5.02798e-06 0 1.52477e-05 5.53343e-06 0 1.70336e-05 6.09938e-06 0 1.90193e-05 6.7115e-06 0 2.1235e-05 7.36064e-06 0 2.37189e-05 8.01729e-06 0 2.65186e-05 8.62887e-06 0 2.9699e-05 9.06699e-06 0 3.33564e-05 9.14058e-06 0 3.76345e-05 8.49722e-06 0 4.27664e-05 6.39822e-06 0 4.91033e-05 1.5199e-06 0 5.70484e-05 -8.79724e-06 0 6.63142e-05 -3.01492e-05 0 7.17079e-05 -7.39348e-05 0 4.54674e-05 -0.000154584 0 -7.79027e-05 -0.000229468 0 0 1.88542e-06 0 6.49516e-07 1.8956e-06 0 1.30524e-06 1.92267e-06 0 1.97331e-06 1.96823e-06 0 2.66028e-06 2.03416e-06 0 3.37277e-06 2.11878e-06 0 4.1178e-06 2.22615e-06 0 4.90301e-06 2.35621e-06 0 5.73637e-06 2.5093e-06 0 6.62676e-06 2.69262e-06 0 7.5839e-06 2.9034e-06 0 8.61825e-06 3.14663e-06 0 9.74188e-06 3.42739e-06 0 1.09679e-05 3.74438e-06 0 1.23109e-05 4.10682e-06 0 1.37877e-05 4.5141e-06 0 1.54167e-05 4.96582e-06 0 1.7219e-05 5.46953e-06 0 1.92182e-05 6.01119e-06 0 2.14405e-05 6.5795e-06 0 2.39169e-05 7.14234e-06 0 2.66821e-05 7.64577e-06 0 2.97777e-05 7.95354e-06 0 3.3257e-05 7.86788e-06 0 3.71863e-05 7.02348e-06 0 4.16488e-05 4.66059e-06 0 4.67035e-05 -5.49684e-07 0 5.21576e-05 -1.11573e-05 0 5.6534e-05 -3.20381e-05 0 5.3028e-05 -7.12535e-05 0 1.84724e-05 -0.000133127 0 -8.19451e-05 -0.000179134 0 0 1.66837e-06 0 6.5521e-07 1.6774e-06 0 1.31671e-06 1.70138e-06 0 1.99072e-06 1.74176e-06 0 2.68387e-06 1.80017e-06 0 3.40288e-06 1.87516e-06 0 4.15486e-06 1.9703e-06 0 4.94755e-06 2.08555e-06 0 5.78903e-06 2.2212e-06 0 6.68829e-06 2.38363e-06 0 7.65515e-06 2.57036e-06 0 8.70019e-06 2.78579e-06 0 9.83555e-06 3.03438e-06 0 1.10743e-05 3.3149e-06 0 1.24311e-05 3.63534e-06 0 1.39226e-05 3.99493e-06 0 1.55663e-05 4.39295e-06 0 1.73823e-05 4.83502e-06 0 1.9392e-05 5.30778e-06 0 2.16176e-05 5.79859e-06 0 2.40825e-05 6.27432e-06 0 2.68085e-05 6.68159e-06 0 2.98136e-05 6.88224e-06 0 3.31073e-05 6.67957e-06 0 3.66784e-05 5.7106e-06 0 4.04636e-05 3.22789e-06 0 4.42499e-05 -2.04101e-06 0 4.73459e-05 -1.24174e-05 0 4.74806e-05 -3.19002e-05 0 3.75292e-05 -6.56669e-05 0 -2.03833e-07 -0.000112459 0 -8.30151e-05 -0.000141358 0 -2.39218e-20 1.44955e-06 0 6.60221e-07 1.4574e-06 0 1.3268e-06 1.47826e-06 0 2.00603e-06 1.51338e-06 0 2.70462e-06 1.5642e-06 0 3.42938e-06 1.62943e-06 0 4.18747e-06 1.71219e-06 0 4.98675e-06 1.81244e-06 0 5.83537e-06 1.93045e-06 0 6.74242e-06 2.07172e-06 0 7.71783e-06 2.23413e-06 0 8.77225e-06 2.42145e-06 0 9.91789e-06 2.63754e-06 0 1.11679e-05 2.88126e-06 0 1.25367e-05 3.15943e-06 0 1.40407e-05 3.47118e-06 0 1.5697e-05 3.81561e-06 0 1.75244e-05 4.19675e-06 0 1.95421e-05 4.60221e-06 0 2.17684e-05 5.01893e-06 0 2.42195e-05 5.41431e-06 0 2.69043e-05 5.73745e-06 0 2.98178e-05 5.85423e-06 0 3.2927e-05 5.57658e-06 0 3.61461e-05 4.55839e-06 0 3.92749e-05 2.0947e-06 0 4.18601e-05 -2.98105e-06 0 4.2818e-05 -1.2688e-05 0 3.94204e-05 -3.01409e-05 0 2.49705e-05 -5.83143e-05 0 -1.32974e-05 -9.33694e-05 0 -8.27862e-05 -0.000111817 0 0 1.22918e-06 0 6.6453e-07 1.23584e-06 0 1.33548e-06 1.25355e-06 0 2.0192e-06 1.28336e-06 0 2.72248e-06 1.3265e-06 0 3.45217e-06 1.38186e-06 0 4.21552e-06 1.45212e-06 0 5.02046e-06 1.53722e-06 0 5.87522e-06 1.63738e-06 0 6.78898e-06 1.75729e-06 0 7.77172e-06 1.89512e-06 0 8.8342e-06 2.05407e-06 0 9.98865e-06 2.23737e-06 0 1.12482e-05 2.44402e-06 0 1.26273e-05 2.6797e-06 0 1.41419e-05 2.94353e-06 0 1.58087e-05 3.23453e-06 0 1.76453e-05 3.55546e-06 0 1.96689e-05 3.89524e-06 0 2.18942e-05 4.2412e-06 0 2.43304e-05 4.56279e-06 0 2.69743e-05 4.81339e-06 0 2.97996e-05 4.86861e-06 0 3.27333e-05 4.55612e-06 0 3.56214e-05 3.55989e-06 0 3.81406e-05 1.24337e-06 0 3.96357e-05 -3.41768e-06 0 3.87349e-05 -1.2106e-05 0 3.25116e-05 -2.71373e-05 0 1.50572e-05 -4.99649e-05 0 -2.24559e-05 -7.59684e-05 0 -8.20077e-05 -8.78577e-05 0 0 1.00749e-06 0 6.68132e-07 1.01296e-06 0 1.34274e-06 1.02748e-06 0 2.03022e-06 1.05194e-06 0 2.7374e-06 1.08733e-06 0 3.47122e-06 1.13274e-06 0 4.23897e-06 1.19038e-06 0 5.04864e-06 1.26019e-06 0 5.90854e-06 1.34235e-06 0 6.82789e-06 1.44071e-06 0 7.81677e-06 1.55376e-06 0 8.88596e-06 1.68412e-06 0 1.00478e-05 1.8344e-06 0 1.13153e-05 2.00376e-06 0 1.27028e-05 2.19678e-06 0 1.42262e-05 2.41265e-06 0 1.59015e-05 2.6504e-06 0 1.77455e-05 2.91183e-06 0 1.97733e-05 3.18746e-06 0 2.19965e-05 3.46575e-06 0 2.4418e-05 3.71961e-06 0 2.70239e-05 3.90839e-06 0 2.97684e-05 3.92257e-06 0 3.25433e-05 3.61193e-06 0 3.51342e-05 2.70205e-06 0 3.71131e-05 6.45934e-07 0 3.76621e-05 -3.41377e-06 0 3.52114e-05 -1.08179e-05 0 2.68067e-05 -2.32124e-05 0 7.41483e-06 -4.11046e-05 0 -2.88577e-05 -6.0089e-05 0 -8.10744e-05 -6.77601e-05 0 0 7.84725e-07 0 6.71022e-07 7.88984e-07 0 1.34856e-06 8.00307e-07 0 2.03905e-06 8.19369e-07 0 2.74938e-06 8.4695e-07 0 3.4865e-06 8.82351e-07 0 4.25778e-06 9.2727e-07 0 5.07125e-06 9.81683e-07 0 5.93526e-06 1.04572e-06 0 6.8591e-06 1.12238e-06 0 7.85289e-06 1.21048e-06 0 8.92747e-06 1.31206e-06 0 1.00951e-05 1.42913e-06 0 1.1369e-05 1.56103e-06 0 1.27633e-05 1.71127e-06 0 1.42936e-05 1.87916e-06 0 1.59757e-05 2.06384e-06 0 1.78252e-05 2.26643e-06 0 1.9856e-05 2.47926e-06 0 2.20766e-05 2.69262e-06 0 2.44847e-05 2.8841e-06 0 2.70574e-05 3.02043e-06 0 2.97325e-05 3.01151e-06 0 3.23719e-05 2.73465e-06 0 3.4711e-05 1.96653e-06 0 3.62368e-05 2.66149e-07 0 3.60073e-05 -3.04198e-06 0 3.23255e-05 -8.96901e-06 0 2.23027e-05 -1.86282e-05 0 1.7068e-06 -3.20197e-05 0 -3.328e-05 -4.54639e-05 0 -8.0191e-05 -5.03503e-05 0 -2.57225e-21 5.6112e-07 0 6.73195e-07 5.64167e-07 0 1.35293e-06 5.72267e-07 0 2.04569e-06 5.85904e-07 0 2.75838e-06 6.05636e-07 0 3.49799e-06 6.30963e-07 0 4.27192e-06 6.63099e-07 0 5.08825e-06 7.02026e-07 0 5.95535e-06 7.47841e-07 0 6.88257e-06 8.02681e-07 0 7.88005e-06 8.65702e-07 0 8.95866e-06 9.38354e-07 0 1.01307e-05 1.02208e-06 0 1.14094e-05 1.11639e-06 0 1.28087e-05 1.22376e-06 0 1.43442e-05 1.34367e-06 0 1.60312e-05 1.47545e-06 0 1.78848e-05 1.61974e-06 0 1.99174e-05 1.7709e-06 0 2.21356e-05 1.9216e-06 0 2.45328e-05 2.05507e-06 0 2.7079e-05 2.14668e-06 0 2.9699e-05 2.12935e-06 0 3.22316e-05 1.91226e-06 0 3.43735e-05 1.33063e-06 0 3.55475e-05 6.14854e-08 0 3.47229e-05 -2.38083e-06 0 3.01271e-05 -6.69775e-06 0 1.89697e-05 -1.3591e-05 0 -2.34061e-06 -2.28639e-05 0 -3.62334e-05 -3.18019e-05 0 -7.94663e-05 -3.47844e-05 0 0 3.36913e-07 0 6.74647e-07 3.38743e-07 0 1.35586e-06 3.43608e-07 0 2.05013e-06 3.51799e-07 0 2.7644e-06 3.6365e-07 0 3.50568e-06 3.78863e-07 0 4.28138e-06 3.98165e-07 0 5.09961e-06 4.21546e-07 0 5.96878e-06 4.49063e-07 0 6.89825e-06 4.82e-07 0 7.8982e-06 5.1985e-07 0 8.97951e-06 5.63481e-07 0 1.01545e-05 6.13755e-07 0 1.14363e-05 6.70376e-07 0 1.2839e-05 7.34823e-07 0 1.4378e-05 8.06764e-07 0 1.60682e-05 8.85777e-07 0 1.79244e-05 9.72177e-07 0 1.99582e-05 1.06252e-06 0 2.21745e-05 1.15225e-06 0 2.4564e-05 1.23099e-06 0 2.70916e-05 1.2836e-06 0 2.96734e-05 1.26873e-06 0 3.21323e-05 1.13061e-06 0 3.41386e-05 7.68289e-07 0 3.50723e-05 -1.5127e-08 0 3.3846e-05 -1.51184e-06 0 2.86464e-05 -4.13331e-06 0 1.67711e-05 -8.26227e-06 0 -4.93082e-06 -1.37065e-05 0 -3.80444e-05 -1.88153e-05 0 -7.89583e-05 -2.04196e-05 0 0 1.12344e-07 0 6.75376e-07 1.12955e-07 0 1.35733e-06 1.14577e-07 0 2.05236e-06 1.17309e-07 0 2.76742e-06 1.21262e-07 0 3.50953e-06 1.26335e-07 0 4.28612e-06 1.32772e-07 0 5.10531e-06 1.4057e-07 0 5.97552e-06 1.49747e-07 0 6.90613e-06 1.60732e-07 0 7.90732e-06 1.73355e-07 0 8.98998e-06 1.87905e-07 0 1.01665e-05 2.0467e-07 0 1.14499e-05 2.2355e-07 0 1.28542e-05 2.45036e-07 0 1.43949e-05 2.69015e-07 0 1.60867e-05 2.95343e-07 0 1.79442e-05 3.24114e-07 0 1.99786e-05 3.5417e-07 0 2.21938e-05 3.83961e-07 0 2.45793e-05 4.0998e-07 0 2.70974e-05 4.2712e-07 0 2.96596e-05 4.2141e-07 0 3.20807e-05 3.7405e-07 0 3.40177e-05 2.51033e-07 0 3.48293e-05 -1.37688e-08 0 3.34001e-05 -5.17849e-07 0 2.78996e-05 -1.39669e-06 0 1.56763e-05 -2.7714e-06 0 -6.19741e-06 -4.56603e-06 0 -3.89076e-05 -6.22779e-06 0 -7.8697e-05 -6.73336e-06 0 0 -1.12344e-07 0 6.75376e-07 -1.12955e-07 0 1.35733e-06 -1.14577e-07 0 2.05236e-06 -1.17309e-07 0 2.76742e-06 -1.21262e-07 0 3.50953e-06 -1.26335e-07 0 4.28612e-06 -1.32772e-07 0 5.10531e-06 -1.4057e-07 0 5.97552e-06 -1.49747e-07 0 6.90613e-06 -1.60732e-07 0 7.90732e-06 -1.73355e-07 0 8.98998e-06 -1.87905e-07 0 1.01665e-05 -2.0467e-07 0 1.14499e-05 -2.2355e-07 0 1.28542e-05 -2.45036e-07 0 1.43949e-05 -2.69015e-07 0 1.60867e-05 -2.95343e-07 0 1.79442e-05 -3.24114e-07 0 1.99786e-05 -3.5417e-07 0 2.21938e-05 -3.83961e-07 0 2.45793e-05 -4.0998e-07 0 2.70974e-05 -4.2712e-07 0 2.96596e-05 -4.2141e-07 0 3.20807e-05 -3.7405e-07 0 3.40177e-05 -2.51033e-07 0 3.48293e-05 1.37688e-08 0 3.34001e-05 5.17849e-07 0 2.78996e-05 1.39669e-06 0 1.56763e-05 2.7714e-06 0 -6.19741e-06 4.56603e-06 0 -3.89076e-05 6.22779e-06 0 -7.8697e-05 6.73336e-06 0 0 -3.36913e-07 0 6.74647e-07 -3.38743e-07 0 1.35586e-06 -3.43608e-07 0 2.05013e-06 -3.51799e-07 0 2.7644e-06 -3.6365e-07 0 3.50568e-06 -3.78863e-07 0 4.28138e-06 -3.98165e-07 0 5.09961e-06 -4.21546e-07 0 5.96878e-06 -4.49063e-07 0 6.89825e-06 -4.82e-07 0 7.8982e-06 -5.1985e-07 0 8.97951e-06 -5.63481e-07 0 1.01545e-05 -6.13755e-07 0 1.14363e-05 -6.70376e-07 0 1.2839e-05 -7.34823e-07 0 1.4378e-05 -8.06764e-07 0 1.60682e-05 -8.85777e-07 0 1.79244e-05 -9.72177e-07 0 1.99582e-05 -1.06252e-06 0 2.21745e-05 -1.15225e-06 0 2.4564e-05 -1.23099e-06 0 2.70916e-05 -1.2836e-06 0 2.96734e-05 -1.26873e-06 0 3.21323e-05 -1.13061e-06 0 3.41386e-05 -7.68289e-07 0 3.50723e-05 1.5127e-08 0 3.3846e-05 1.51184e-06 0 2.86464e-05 4.13331e-06 0 1.67711e-05 8.26227e-06 0 -4.93082e-06 1.37065e-05 0 -3.80444e-05 1.88153e-05 0 -7.89583e-05 2.04196e-05 0 0 -5.6112e-07 0 6.73195e-07 -5.64167e-07 0 1.35293e-06 -5.72267e-07 0 2.04569e-06 -5.85904e-07 0 2.75838e-06 -6.05636e-07 0 3.49799e-06 -6.30963e-07 0 4.27192e-06 -6.63099e-07 0 5.08825e-06 -7.02026e-07 0 5.95535e-06 -7.47841e-07 0 6.88257e-06 -8.02681e-07 0 7.88005e-06 -8.65702e-07 0 8.95866e-06 -9.38354e-07 0 1.01307e-05 -1.02208e-06 0 1.14094e-05 -1.11639e-06 0 1.28087e-05 -1.22376e-06 0 1.43442e-05 -1.34367e-06 0 1.60312e-05 -1.47545e-06 0 1.78848e-05 -1.61974e-06 0 1.99174e-05 -1.7709e-06 0 2.21356e-05 -1.9216e-06 0 2.45328e-05 -2.05507e-06 0 2.7079e-05 -2.14668e-06 0 2.9699e-05 -2.12935e-06 0 3.22316e-05 -1.91226e-06 0 3.43735e-05 -1.33063e-06 0 3.55475e-05 -6.14854e-08 0 3.47229e-05 2.38083e-06 0 3.01271e-05 6.69775e-06 0 1.89697e-05 1.3591e-05 0 -2.34061e-06 2.28639e-05 0 -3.62334e-05 3.18019e-05 0 -7.94663e-05 3.47844e-05 0 1.22308e-20 -7.84725e-07 0 6.71022e-07 -7.88984e-07 0 1.34856e-06 -8.00307e-07 0 2.03905e-06 -8.19369e-07 0 2.74938e-06 -8.4695e-07 0 3.4865e-06 -8.82351e-07 0 4.25778e-06 -9.2727e-07 0 5.07125e-06 -9.81683e-07 0 5.93526e-06 -1.04572e-06 0 6.8591e-06 -1.12238e-06 0 7.85289e-06 -1.21048e-06 0 8.92747e-06 -1.31206e-06 0 1.00951e-05 -1.42913e-06 0 1.1369e-05 -1.56103e-06 0 1.27633e-05 -1.71127e-06 0 1.42936e-05 -1.87916e-06 0 1.59757e-05 -2.06384e-06 0 1.78252e-05 -2.26643e-06 0 1.9856e-05 -2.47926e-06 0 2.20766e-05 -2.69262e-06 0 2.44847e-05 -2.8841e-06 0 2.70574e-05 -3.02043e-06 0 2.97325e-05 -3.01151e-06 0 3.23719e-05 -2.73465e-06 0 3.4711e-05 -1.96653e-06 0 3.62368e-05 -2.66149e-07 0 3.60073e-05 3.04198e-06 0 3.23255e-05 8.96901e-06 0 2.23027e-05 1.86282e-05 0 1.7068e-06 3.20197e-05 0 -3.328e-05 4.54639e-05 0 -8.0191e-05 5.03503e-05 0 0 -1.00749e-06 0 6.68132e-07 -1.01296e-06 0 1.34274e-06 -1.02748e-06 0 2.03022e-06 -1.05194e-06 0 2.7374e-06 -1.08733e-06 0 3.47122e-06 -1.13274e-06 0 4.23897e-06 -1.19038e-06 0 5.04864e-06 -1.26019e-06 0 5.90854e-06 -1.34235e-06 0 6.82789e-06 -1.44071e-06 0 7.81677e-06 -1.55376e-06 0 8.88596e-06 -1.68412e-06 0 1.00478e-05 -1.8344e-06 0 1.13153e-05 -2.00376e-06 0 1.27028e-05 -2.19678e-06 0 1.42262e-05 -2.41265e-06 0 1.59015e-05 -2.6504e-06 0 1.77455e-05 -2.91183e-06 0 1.97733e-05 -3.18746e-06 0 2.19965e-05 -3.46575e-06 0 2.4418e-05 -3.71961e-06 0 2.70239e-05 -3.90839e-06 0 2.97684e-05 -3.92257e-06 0 3.25433e-05 -3.61193e-06 0 3.51342e-05 -2.70205e-06 0 3.71131e-05 -6.45934e-07 0 3.76621e-05 3.41377e-06 0 3.52114e-05 1.08179e-05 0 2.68067e-05 2.32124e-05 0 7.41483e-06 4.11046e-05 0 -2.88577e-05 6.0089e-05 0 -8.10744e-05 6.77601e-05 0 0 -1.22918e-06 0 6.6453e-07 -1.23584e-06 0 1.33548e-06 -1.25355e-06 0 2.0192e-06 -1.28336e-06 0 2.72248e-06 -1.3265e-06 0 3.45217e-06 -1.38186e-06 0 4.21552e-06 -1.45212e-06 0 5.02046e-06 -1.53722e-06 0 5.87522e-06 -1.63738e-06 0 6.78898e-06 -1.75729e-06 0 7.77172e-06 -1.89512e-06 0 8.8342e-06 -2.05407e-06 0 9.98865e-06 -2.23737e-06 0 1.12482e-05 -2.44402e-06 0 1.26273e-05 -2.6797e-06 0 1.41419e-05 -2.94353e-06 0 1.58087e-05 -3.23453e-06 0 1.76453e-05 -3.55546e-06 0 1.96689e-05 -3.89524e-06 0 2.18942e-05 -4.2412e-06 0 2.43304e-05 -4.56279e-06 0 2.69743e-05 -4.81339e-06 0 2.97996e-05 -4.86861e-06 0 3.27333e-05 -4.55612e-06 0 3.56214e-05 -3.55989e-06 0 3.81406e-05 -1.24337e-06 0 3.96357e-05 3.41768e-06 0 3.87349e-05 1.2106e-05 0 3.25116e-05 2.71373e-05 0 1.50572e-05 4.99649e-05 0 -2.24559e-05 7.59684e-05 0 -8.20077e-05 8.78577e-05 0 0 -1.44955e-06 0 6.60221e-07 -1.4574e-06 0 1.3268e-06 -1.47826e-06 0 2.00603e-06 -1.51338e-06 0 2.70462e-06 -1.5642e-06 0 3.42938e-06 -1.62943e-06 0 4.18747e-06 -1.71219e-06 0 4.98675e-06 -1.81244e-06 0 5.83537e-06 -1.93045e-06 0 6.74242e-06 -2.07172e-06 0 7.71783e-06 -2.23413e-06 0 8.77225e-06 -2.42145e-06 0 9.91789e-06 -2.63754e-06 0 1.11679e-05 -2.88126e-06 0 1.25367e-05 -3.15943e-06 0 1.40407e-05 -3.47118e-06 0 1.5697e-05 -3.81561e-06 0 1.75244e-05 -4.19675e-06 0 1.95421e-05 -4.60221e-06 0 2.17684e-05 -5.01893e-06 0 2.42195e-05 -5.41431e-06 0 2.69043e-05 -5.73745e-06 0 2.98178e-05 -5.85423e-06 0 3.2927e-05 -5.57658e-06 0 3.61461e-05 -4.55839e-06 0 3.92749e-05 -2.0947e-06 0 4.18601e-05 2.98105e-06 0 4.2818e-05 1.2688e-05 0 3.94204e-05 3.01409e-05 0 2.49705e-05 5.83143e-05 0 -1.32974e-05 9.33694e-05 0 -8.27862e-05 0.000111817 0 -3.67108e-20 -1.66837e-06 0 6.5521e-07 -1.6774e-06 0 1.31671e-06 -1.70138e-06 0 1.99072e-06 -1.74176e-06 0 2.68387e-06 -1.80017e-06 0 3.40288e-06 -1.87516e-06 0 4.15486e-06 -1.9703e-06 0 4.94755e-06 -2.08555e-06 0 5.78903e-06 -2.2212e-06 0 6.68829e-06 -2.38363e-06 0 7.65515e-06 -2.57036e-06 0 8.70019e-06 -2.78579e-06 0 9.83555e-06 -3.03438e-06 0 1.10743e-05 -3.3149e-06 0 1.24311e-05 -3.63534e-06 0 1.39226e-05 -3.99493e-06 0 1.55663e-05 -4.39295e-06 0 1.73823e-05 -4.83502e-06 0 1.9392e-05 -5.30778e-06 0 2.16176e-05 -5.79859e-06 0 2.40825e-05 -6.27432e-06 0 2.68085e-05 -6.68159e-06 0 2.98136e-05 -6.88224e-06 0 3.31073e-05 -6.67957e-06 0 3.66784e-05 -5.7106e-06 0 4.04636e-05 -3.22789e-06 0 4.42499e-05 2.04101e-06 0 4.73459e-05 1.24174e-05 0 4.74806e-05 3.19002e-05 0 3.75292e-05 6.56669e-05 0 -2.03833e-07 0.000112459 0 -8.30151e-05 0.000141358 0 0 -1.88542e-06 0 6.49516e-07 -1.8956e-06 0 1.30524e-06 -1.92267e-06 0 1.97331e-06 -1.96823e-06 0 2.66028e-06 -2.03416e-06 0 3.37277e-06 -2.11878e-06 0 4.1178e-06 -2.22615e-06 0 4.90301e-06 -2.35621e-06 0 5.73637e-06 -2.5093e-06 0 6.62676e-06 -2.69262e-06 0 7.5839e-06 -2.9034e-06 0 8.61825e-06 -3.14663e-06 0 9.74188e-06 -3.42739e-06 0 1.09679e-05 -3.74438e-06 0 1.23109e-05 -4.10682e-06 0 1.37877e-05 -4.5141e-06 0 1.54167e-05 -4.96582e-06 0 1.7219e-05 -5.46953e-06 0 1.92182e-05 -6.01119e-06 0 2.14405e-05 -6.5795e-06 0 2.39169e-05 -7.14234e-06 0 2.66821e-05 -7.64577e-06 0 2.97777e-05 -7.95354e-06 0 3.3257e-05 -7.86788e-06 0 3.71863e-05 -7.02348e-06 0 4.16488e-05 -4.66059e-06 0 4.67035e-05 5.49684e-07 0 5.21576e-05 1.11573e-05 0 5.6534e-05 3.20381e-05 0 5.3028e-05 7.12535e-05 0 1.84724e-05 0.000133127 0 -8.19451e-05 0.000179134 0 0 -2.10045e-06 0 6.4313e-07 -2.11178e-06 0 1.29237e-06 -2.14189e-06 0 1.95379e-06 -2.19257e-06 0 2.63382e-06 -2.2659e-06 0 3.339e-06 -2.36002e-06 0 4.07623e-06 -2.47945e-06 0 4.85305e-06 -2.62412e-06 0 5.6773e-06 -2.79441e-06 0 6.55775e-06 -2.99833e-06 0 7.50396e-06 -3.23283e-06 0 8.5263e-06 -3.5035e-06 0 9.63672e-06 -3.81605e-06 0 1.08482e-05 -4.16912e-06 0 1.21756e-05 -4.57323e-06 0 1.36358e-05 -5.02798e-06 0 1.52477e-05 -5.53343e-06 0 1.70336e-05 -6.09938e-06 0 1.90193e-05 -6.7115e-06 0 2.1235e-05 -7.36064e-06 0 2.37189e-05 -8.01729e-06 0 2.65186e-05 -8.62887e-06 0 2.9699e-05 -9.06699e-06 0 3.33564e-05 -9.14058e-06 0 3.76345e-05 -8.49722e-06 0 4.27664e-05 -6.39822e-06 0 4.91033e-05 -1.5199e-06 0 5.70484e-05 8.79724e-06 0 6.63142e-05 3.01492e-05 0 7.17079e-05 7.39348e-05 0 4.54674e-05 0.000154584 0 -7.79027e-05 0.000229468 0 -7.63509e-20 -2.31325e-06 0 6.3607e-07 -2.32571e-06 0 1.27816e-06 -2.35881e-06 0 1.93221e-06 -2.41453e-06 0 2.60457e-06 -2.49515e-06 0 3.30167e-06 -2.59863e-06 0 4.03029e-06 -2.72992e-06 0 4.79783e-06 -2.88896e-06 0 5.61201e-06 -3.07618e-06 0 6.48145e-06 -3.30039e-06 0 7.41557e-06 -3.55825e-06 0 8.4246e-06 -3.85594e-06 0 9.52036e-06 -4.19983e-06 0 1.07158e-05 -4.58854e-06 0 1.20256e-05 -5.0339e-06 0 1.3467e-05 -5.53582e-06 0 1.50594e-05 -6.09493e-06 0 1.68261e-05 -6.72362e-06 0 1.8795e-05 -7.40757e-06 0 2.09999e-05 -8.14063e-06 0 2.3486e-05 -8.89746e-06 0 2.63131e-05 -9.62863e-06 0 2.9568e-05 -1.02194e-05 0 3.33876e-05 -1.04929e-05 0 3.79893e-05 -1.01249e-05 0 4.37512e-05 -8.4324e-06 0 5.13208e-05 -4.16789e-06 0 6.17581e-05 5.27422e-06 0 7.63368e-05 2.58579e-05 0 9.32609e-05 7.21646e-05 0 8.42745e-05 0.0001745 0 -6.72744e-05 0.000299827 0 0 -2.5236e-06 0 6.28348e-07 -2.53716e-06 0 1.2626e-06 -2.5732e-06 0 1.9086e-06 -2.63388e-06 0 2.57258e-06 -2.72166e-06 0 3.26084e-06 -2.83432e-06 0 3.98003e-06 -2.97727e-06 0 4.73743e-06 -3.15044e-06 0 5.5406e-06 -3.35428e-06 0 6.39799e-06 -3.59842e-06 0 7.31887e-06 -3.87923e-06 0 8.3133e-06 -4.20349e-06 0 9.39294e-06 -4.57824e-06 0 1.05706e-05 -5.00206e-06 0 1.1861e-05 -5.48817e-06 0 1.32815e-05 -6.03686e-06 0 1.48518e-05 -6.64941e-06 0 1.65962e-05 -7.34115e-06 0 1.85445e-05 -8.09805e-06 0 2.07337e-05 -8.91778e-06 0 2.32155e-05 -9.78053e-06 0 2.60606e-05 -1.06417e-05 0 2.93753e-05 -1.14056e-05 0 3.33334e-05 -1.19165e-05 0 3.82181e-05 -1.18924e-05 0 4.45399e-05 -1.07401e-05 0 5.32247e-05 -7.3627e-06 0 6.59946e-05 5.95673e-07 0 8.59286e-05 1.89101e-05 0 0.00011661 6.41172e-05 0 0.00013912 0.00018729 0 -4.12648e-05 0.000404042 0 2.40394e-19 -2.73127e-06 0 6.19973e-07 -2.74591e-06 0 1.24573e-06 -2.78484e-06 0 1.88301e-06 -2.85037e-06 0 2.53789e-06 -2.94518e-06 0 3.21657e-06 -3.06686e-06 0 3.92554e-06 -3.22123e-06 0 4.67193e-06 -3.40825e-06 0 5.46315e-06 -3.62839e-06 0 6.30747e-06 -3.89206e-06 0 7.21397e-06 -4.19538e-06 0 8.19253e-06 -4.54571e-06 0 9.25463e-06 -4.95075e-06 0 1.04129e-05 -5.40909e-06 0 1.1682e-05 -5.93536e-06 0 1.30794e-05 -6.53029e-06 0 1.46249e-05 -7.19593e-06 0 1.63438e-05 -7.9508e-06 0 1.82672e-05 -8.78147e-06 0 2.04352e-05 -9.69007e-06 0 2.29049e-05 -1.06636e-05 0 2.57562e-05 -1.16639e-05 0 2.91124e-05 -1.26185e-05 0 3.31778e-05 -1.33993e-05 0 3.82911e-05 -1.37789e-05 0 4.50733e-05 -1.32839e-05 0 5.46879e-05 -1.10385e-05 0 6.94507e-05 -5.14095e-06 0 9.42414e-05 9.29219e-06 0 0.000139462 4.81562e-05 0 0.000212592 0.000181325 0 2.43371e-05 0.000569965 0 1.61511e-19 -2.93604e-06 0 6.10961e-07 -2.95175e-06 0 1.22758e-06 -2.9935e-06 0 1.85546e-06 -3.06379e-06 0 2.50057e-06 -3.16547e-06 0 3.16893e-06 -3.29597e-06 0 3.8669e-06 -3.46153e-06 0 4.60146e-06 -3.66209e-06 0 5.37982e-06 -3.89817e-06 0 6.21006e-06 -4.18096e-06 0 7.10108e-06 -4.5063e-06 0 8.06252e-06 -4.88215e-06 0 9.10564e-06 -5.31686e-06 0 1.02429e-05 -5.80906e-06 0 1.14888e-05 -6.37479e-06 0 1.28608e-05 -7.0153e-06 0 1.43789e-05 -7.7335e-06 0 1.60687e-05 -8.55132e-06 0 1.79629e-05 -9.45615e-06 0 2.01036e-05 -1.04552e-05 0 2.25523e-05 -1.15434e-05 0 2.53964e-05 -1.26899e-05 0 2.87723e-05 -1.38497e-05 0 3.29082e-05 -1.49265e-05 0 3.8184e-05 -1.57575e-05 0 4.5303e-05 -1.60133e-05 0 5.56032e-05 -1.50965e-05 0 7.18477e-05 -1.17393e-05 0 0.000100376 -2.66026e-06 0 0.000158222 2.3762e-05 0 0.000297618 0.000137312 0 0.00020825 0.000860259 0 0 -3.13772e-06 0 6.01325e-07 -3.15447e-06 0 1.20817e-06 -3.19898e-06 0 1.82601e-06 -3.27392e-06 0 2.46066e-06 -3.38231e-06 0 3.118e-06 -3.52142e-06 0 3.80422e-06 -3.6979e-06 0 4.52612e-06 -3.91168e-06 0 5.29073e-06 -4.16333e-06 0 6.10593e-06 -4.46477e-06 0 6.98036e-06 -4.81161e-06 0 7.92346e-06 -5.21237e-06 0 8.94623e-06 -5.67607e-06 0 1.00609e-05 -6.20138e-06 0 1.12817e-05 -6.80578e-06 0 1.2626e-05 -7.49106e-06 0 1.41138e-05 -8.26108e-06 0 1.57711e-05 -9.14137e-06 0 1.76313e-05 -1.01203e-05 0 1.97381e-05 -1.12107e-05 0 2.21562e-05 -1.2416e-05 0 2.49784e-05 -1.37138e-05 0 2.83498e-05 -1.50892e-05 0 3.25145e-05 -1.64808e-05 0 3.78785e-05 -1.77968e-05 0 4.51926e-05 -1.8867e-05 0 5.58903e-05 -1.941e-05 0 7.29702e-05 -1.89122e-05 0 0.000103562 -1.62199e-05 0 0.000168788 -7.36518e-06 0 0.000363907 3.8948e-05 0 0.000864947 0.0015257 0 0 -3.3361e-06 0 5.91081e-07 -3.35386e-06 0 1.18754e-06 -3.40106e-06 0 1.79471e-06 -3.48052e-06 0 2.41824e-06 -3.59546e-06 0 3.06386e-06 -3.74297e-06 0 3.7376e-06 -3.93009e-06 0 4.44604e-06 -4.15675e-06 0 5.19604e-06 -4.42355e-06 0 5.99523e-06 -4.74316e-06 0 6.85203e-06 -5.11092e-06 0 7.77559e-06 -5.53594e-06 0 8.77663e-06 -6.02788e-06 0 9.86711e-06 -6.58547e-06 0 1.1061e-05 -7.22763e-06 0 1.23753e-05 -7.95674e-06 0 1.383e-05 -8.77764e-06 0 1.54511e-05 -9.71957e-06 0 1.72724e-05 -1.07721e-05 0 1.93385e-05 -1.19539e-05 0 2.17158e-05 -1.32774e-05 0 2.45001e-05 -1.47294e-05 0 2.78413e-05 -1.63262e-05 0 3.19906e-05 -1.80432e-05 0 3.73632e-05 -1.98621e-05 0 4.47209e-05 -2.17773e-05 0 5.55046e-05 -2.38342e-05 0 7.2702e-05 -2.63094e-05 0 0.000103362 -3.03468e-05 0 0.000168293 -4.09762e-05 0 0.000364178 -9.26744e-05 0 0.00802723 -0.00437752 0 </DataArray> 
</PointData> 
<Points> 
<DataArray type="Float32" NumberOfComponents="3"> 