<?xml version="1.0"?> 
<VTKFile type="StructuredGrid" version="0.1"> 
<StructuredGrid WholeExtent="0 31 0 31 0 0"> 
<Piece Extent="0 31 0 31 0 0"> 
<PointData>
<DataArray type="Float32" Name="B" format="ascii" NumberOfComponents="3"> 
-0.034694 -0.0214404 0 -0.0352515 0.000337737 0 -0.0325274 5.73068e-05 0 -0.0322811 -9.14212e-06 0 -0.0327785 -2.95094e-05 0 -0.0334876 -3.36444e-05 0 -0.0341961 -3.11056e-05 0 -0.0348158 -2.59796e-05 0 -0.035317 -2.02587e-05 0 -0.0357005 -1.50681e-05 0 -0.0359805 -1.06936e-05 0 -0.0361768 -7.26874e-06 0 -0.0363087 -4.71979e-06 0 -0.0363934 -2.89629e-06 0 -0.0364444 -1.63144e-06 0 -0.0364718 -7.72183e-07 0 -0.036483 -1.93034e-07 0 -0.0364828 2.05606e-07 0 -0.0364741 4.9654e-07 0 -0.0364589 7.28806e-07 0 -0.0364379 9.3411e-07 0 -0.0364115 1.13025e-06 0 -0.0363798 1.32331e-06 0 -0.0363426 1.50922e-06 0 -0.0363 1.67399e-06 0 -0.0362516 1.80343e-06 0 -0.0361968 1.89342e-06 0 -0.0361326 1.97262e-06 0 -0.0360497 2.13889e-06 0 -0.0359178 2.70614e-06 0 -0.0355759 7.62402e-06 0 -0.0116734 0.00728778 0 -0.000323292 -0.00836096 0 0.000281502 -3.23435e-06 0 0.00026396 1.092e-06 0 0.000262955 8.21039e-07 0 0.000267402 5.332e-07 0 0.000273363 3.43633e-07 0 0.000279195 2.18422e-07 0 0.000284218 1.33651e-07 0 0.00028822 7.67801e-08 0 0.000291236 4.15924e-08 0 0.000293398 1.87559e-08 0 0.000294881 5.28536e-09 0 0.000295853 -1.83983e-09 0 0.000296456 -4.86744e-09 0 0.000296806 -5.38567e-09 0 0.000296984 -4.46234e-09 0 0.00029705 -2.77825e-09 0 0.000297043 -7.54202e-10 0 0.000296986 1.36664e-09 0 0.000296894 3.4429e-09 0 0.000296774 5.37532e-09 0 0.000296629 7.06897e-09 0 0.000296459 8.41249e-09 0 0.000296268 9.28376e-09 0 0.000296059 9.49483e-09 0 0.000295844 8.90802e-09 0 0.000295642 7.05124e-09 0 0.000295487 1.87688e-09 0 0.000295444 -1.76431e-08 0 0.000295674 -1.21695e-07 0 0.000296316 -1.23074e-06 0 -0.000538388 -0.00527024 0 8.70655e-05 -0.0106336 0 -2.91615e-06 -6.17851e-06 0 -3.58202e-07 -2.13245e-07 0 1.65826e-06 4.87605e-07 0 2.47757e-06 4.70652e-07 0 2.87855e-06 3.72458e-07 0 3.09974e-06 2.77936e-07 0 3.22736e-06 1.9925e-07 0 3.30046e-06 1.37446e-07 0 3.34065e-06 9.25131e-08 0 3.36077e-06 5.92907e-08 0 3.36919e-06 3.60824e-08 0 3.3712e-06 2.05726e-08 0 3.37002e-06 1.06837e-08 0 3.36748e-06 4.71688e-09 0 3.36456e-06 1.36586e-09 0 3.36167e-06 -3.19543e-10 0 3.35898e-06 -1.02446e-09 0 3.35644e-06 -1.21836e-09 0 3.354e-06 -1.21754e-09 0 3.35158e-06 -1.25498e-09 0 3.3491e-06 -1.52948e-09 0 3.34655e-06 -2.24848e-09 0 3.34389e-06 -3.67618e-09 0 3.34113e-06 -6.28308e-09 0 3.3383e-06 -1.0846e-08 0 3.33541e-06 -1.93389e-08 0 3.33191e-06 -3.72905e-08 0 3.32104e-06 -8.35322e-08 0 3.22885e-06 -2.26511e-07 0 2.17645e-06 -8.52696e-07 0 -0.000139597 -0.00232705 0 0.000147259 -0.0102257 0 -7.28444e-07 -3.47594e-06 0 -2.52946e-06 -9.43059e-07 0 -1.32959e-06 1.30223e-07 0 -6.63623e-07 3.05619e-07 0 -3.36312e-07 2.89614e-07 0 -1.73474e-07 2.34829e-07 0 -9.4328e-08 1.77431e-07 0 -5.97839e-08 1.27562e-07 0 -4.8566e-08 8.89413e-08 0 -4.93462e-08 5.91223e-08 0 -5.54266e-08 3.74948e-08 0 -6.30898e-08 2.25206e-08 0 -7.04378e-08 1.26159e-08 0 -7.6635e-08 6.38311e-09 0 -8.14387e-08 2.68757e-09 0 -8.49065e-08 6.67619e-10 0 -8.72193e-08 -3.24818e-10 0 -8.85819e-08 -7.52567e-10 0 -8.91718e-08 -9.39708e-10 0 -8.91201e-08 -1.13275e-09 0 -8.85114e-08 -1.5442e-09 0 -8.73959e-08 -2.3923e-09 0 -8.58101e-08 -3.94669e-09 0 -8.38131e-08 -6.68933e-09 0 -8.15534e-08 -1.13768e-08 0 -7.96111e-08 -1.98683e-08 0 -8.07085e-08 -3.67515e-08 0 -9.98676e-08 -7.36068e-08 0 -2.27865e-07 -1.38729e-07 0 -8.04463e-07 -2.02865e-07 0 -4.76916e-05 -0.00130962 0 0.000145811 -0.00933284 0 7.2182e-07 -1.43957e-06 0 -1.51896e-06 -1.11056e-06 0 -1.07799e-06 -1.23733e-07 0 -5.8216e-07 1.64076e-07 0 -2.88032e-07 2.15243e-07 0 -1.26569e-07 1.96286e-07 0 -4.09245e-08 1.58482e-07 0 1.6393e-09 1.1947e-07 0 2.04271e-08 8.63976e-08 0 2.60668e-08 5.94757e-08 0 2.50857e-08 3.91203e-08 0 2.12591e-08 2.45061e-08 0 1.66644e-08 1.44943e-08 0 1.23546e-08 7.95172e-09 0 8.78224e-09 3.8907e-09 0 6.06934e-09 1.52331e-09 0 4.17526e-09 2.30639e-10 0 2.99614e-09 -4.46441e-10 0 2.41924e-09 -8.39673e-10 0 2.3473e-09 -1.20683e-09 0 2.70298e-09 -1.76997e-09 0 3.41766e-09 -2.75104e-09 0 4.40198e-09 -4.41093e-09 0 5.47974e-09 -7.20361e-09 0 6.20174e-09 -1.17714e-08 0 5.21556e-09 -1.95586e-08 0 -2.21126e-09 -3.33173e-08 0 -3.45406e-08 -5.55688e-08 0 -1.575e-07 -5.61607e-08 0 -3.4704e-07 -5.40591e-08 0 -2.00342e-05 -0.00085393 0 0.000134563 -0.00836046 0 8.33299e-07 -4.60613e-07 0 -8.22575e-07 -9.70711e-07 0 -8.55257e-07 -2.67714e-07 0 -5.42485e-07 5.07176e-08 0 -3.01984e-07 1.47321e-07 0 -1.53853e-07 1.58055e-07 0 -6.86209e-08 1.38024e-07 0 -2.22305e-08 1.09418e-07 0 1.44661e-09 8.19659e-08 0 1.17986e-08 5.82114e-08 0 1.48408e-08 3.94574e-08 0 1.41974e-08 2.55221e-08 0 1.19804e-08 1.56784e-08 0 9.36022e-09 9.04617e-09 0 6.93162e-09 4.78609e-09 0 4.9519e-09 2.19162e-09 0 3.49294e-09 6.8372e-10 0 2.53533e-09 -1.82137e-10 0 2.02277e-09 -7.35698e-10 0 1.88893e-09 -1.2375e-09 0 2.06427e-09 -1.91137e-09 0 2.46504e-09 -2.9744e-09 0 2.95692e-09 -4.6657e-09 0 3.26688e-09 -7.37758e-09 0 2.71962e-09 -1.15649e-08 0 -5.1247e-10 -1.8074e-08 0 -1.18327e-08 -2.75815e-08 0 -4.70527e-08 -3.56022e-08 0 -1.33821e-07 -4.40854e-09 0 -1.53925e-07 -4.85112e-08 0 -9.96155e-06 -0.000608956 0 0.000123309 -0.0074075 0 6.77012e-07 -4.28692e-08 0 -3.87323e-07 -7.4173e-07 0 -6.34861e-07 -3.2236e-07 0 -4.77839e-07 -3.0342e-08 0 -2.9804e-07 8.96011e-08 0 -1.70208e-07 1.22328e-07 0 -8.97408e-08 1.17298e-07 0 -4.21088e-08 9.81258e-08 0 -1.51144e-08 7.60905e-08 0 -1.00581e-09 5.55987e-08 0 5.48077e-09 3.86649e-08 0 7.67962e-09 2.5658e-08 0 7.64921e-09 1.62146e-08 0 6.62e-09 9.68701e-09 0 5.29157e-09 5.37984e-09 0 4.03194e-09 2.67136e-09 0 3.01026e-09 1.03012e-09 0 2.2827e-09 3.51753e-11 0 1.84497e-09 -6.32898e-10 0 1.66026e-09 -1.22983e-09 0 1.66815e-09 -1.97427e-09 0 1.77422e-09 -3.07103e-09 0 1.81043e-09 -4.72719e-09 0 1.43737e-09 -7.25002e-09 0 -1.47658e-10 -1.08695e-08 0 -4.91509e-09 -1.57964e-08 0 -1.77882e-08 -2.09734e-08 0 -4.89469e-08 -1.85912e-08 0 -9.82501e-08 1.88245e-08 0 -6.82018e-08 -5.73304e-08 0 -5.71862e-06 -0.000458738 0 0.000113828 -0.00649718 0 5.05783e-07 1.22278e-07 0 -1.44362e-07 -5.29197e-07 0 -4.46672e-07 -3.18465e-07 0 -4.02667e-07 -8.09295e-08 0 -2.81497e-07 4.39283e-08 0 -1.77693e-07 9.06536e-08 0 -1.0519e-07 9.72936e-08 0 -5.84539e-08 8.62013e-08 0 -2.95192e-08 6.91562e-08 0 -1.25297e-08 5.18774e-08 0 -3.15206e-09 3.68902e-08 0 1.54571e-09 2.50013e-08 0 3.4959e-09 1.6152e-08 0 3.94051e-09 9.89977e-09 0 3.65077e-09 5.6833e-09 0 3.08323e-09 2.96599e-09 0 2.48986e-09 1.26932e-09 0 1.99356e-09 2.03139e-10 0 1.63722e-09 -5.34476e-10 0 1.41195e-09 -1.18781e-09 0 1.26756e-09 -1.9643e-09 0 1.10395e-09 -3.0507e-09 0 7.32687e-10 -4.61563e-09 0 -2.16806e-10 -6.87033e-09 0 -2.57117e-09 -9.82025e-09 0 -8.15116e-09 -1.31247e-08 0 -2.06848e-08 -1.4641e-08 0 -4.45939e-08 -6.45989e-09 0 -6.6864e-08 2.49554e-08 0 -3.09827e-08 -5.92728e-08 0 -3.71504e-06 -0.000357003 0 0.000106207 -0.0056312 0 3.6841e-07 1.76409e-07 0 -1.97661e-08 -3.64687e-07 0 -2.9915e-07 -2.834e-07 0 -3.26893e-07 -1.06246e-07 0 -2.56902e-07 1.05793e-08 0 -1.78238e-07 6.39851e-08 0 -1.15816e-07 7.87668e-08 0 -7.16438e-08 7.41508e-08 0 -4.19207e-08 6.14998e-08 0 -2.28149e-08 4.72664e-08 0 -1.10472e-08 3.42735e-08 0 -4.17328e-09 2.36397e-08 0 -4.44779e-10 1.55436e-08 0 1.35198e-09 9.7145e-09 0 2.03193e-09 5.71217e-09 0 2.12079e-09 3.08257e-09 0 1.9404e-09 1.4034e-09 0 1.67215e-09 3.21009e-10 0 1.40162e-09 -4.42964e-10 0 1.14617e-09 -1.11564e-09 0 8.67014e-10 -1.88826e-09 0 4.63699e-10 -2.92544e-09 0 -2.58628e-10 -4.35523e-09 0 -1.6666e-09 -6.29434e-09 0 -4.51844e-09 -8.55571e-09 0 -1.02782e-08 -1.04049e-08 0 -2.12359e-08 -9.28969e-09 0 -3.75534e-08 9.54711e-10 0 -4.39243e-08 2.32983e-08 0 -1.45041e-08 -5.54395e-08 0 -2.67801e-06 -0.00028265 0 0.000100137 -0.00480499 0 2.74109e-07 1.82141e-07 0 3.89902e-08 -2.46188e-07 0 -1.94564e-07 -2.36285e-07 0 -2.60645e-07 -1.1306e-07 0 -2.30048e-07 -1.16104e-08 0 -1.74302e-07 4.25675e-08 0 -1.22388e-07 6.21596e-08 0 -8.16904e-08 6.23514e-08 0 -5.20272e-08 5.34078e-08 0 -3.14885e-08 4.19734e-08 0 -1.7851e-08 3.09618e-08 0 -9.18229e-09 2.16745e-08 0 -3.94503e-09 1.44568e-08 0 -9.7949e-10 9.17428e-09 0 5.50648e-10 5.49263e-09 0 1.22194e-09 3.03596e-09 0 1.41191e-09 1.43981e-09 0 1.35033e-09 3.91421e-10 0 1.15881e-09 -3.59102e-10 0 8.77435e-10 -1.01697e-09 0 4.78395e-10 -1.75332e-09 0 -1.35377e-10 -2.70845e-09 0 -1.15337e-09 -3.97173e-09 0 -2.90936e-09 -5.57751e-09 0 -6.02587e-09 -7.1994e-09 0 -1.1505e-08 -7.89015e-09 0 -2.02984e-08 -5.20945e-09 0 -3.01e-08 4.72664e-09 0 -2.82437e-08 1.90658e-08 0 -6.78018e-09 -4.8734e-08 0 -2.08537e-06 -0.000224974 0 9.53647e-05 -0.00401244 0 2.06203e-07 1.66047e-07 0 6.38095e-08 -1.64424e-07 0 -1.20665e-07 -1.87907e-07 0 -2.03923e-07 -1.07117e-07 0 -2.02841e-07 -2.4122e-08 0 -1.67464e-07 2.63515e-08 0 -1.2602e-07 4.77372e-08 0 -8.93615e-08 5.10751e-08 0 -6.03614e-08 4.50984e-08 0 -3.88993e-08 3.61615e-08 0 -2.37893e-08 2.70729e-08 0 -1.36214e-08 1.9188e-08 0 -7.08696e-09 1.29472e-08 0 -3.09809e-09 8.31532e-09 0 -8.13468e-10 5.04706e-09 0 3.80628e-10 2.83903e-09 0 9.06838e-10 1.38503e-09 0 1.03572e-09 4.16422e-10 0 9.20084e-10 -2.8418e-10 0 6.20456e-10 -8.96178e-10 0 1.20283e-10 -1.56766e-09 0 -6.7043e-10 -2.41396e-09 0 -1.92592e-09 -3.49094e-09 0 -3.92574e-09 -4.77026e-09 0 -7.11744e-09 -5.84853e-09 0 -1.20259e-08 -5.72939e-09 0 -1.85655e-08 -2.38522e-09 0 -2.34861e-08 6.06899e-09 0 -1.81242e-08 1.45824e-08 0 -3.07143e-09 -4.09775e-08 0 -1.72788e-06 -0.000178032 0 9.16643e-05 -0.00324741 0 1.58696e-07 1.40362e-07 0 7.20337e-08 -1.08637e-07 0 -7.05171e-08 -1.43393e-07 0 -1.58336e-07 -9.32722e-08 0 -1.77895e-07 -2.88943e-08 0 -1.59418e-07 1.48428e-08 0 -1.27559e-07 3.55051e-08 0 -9.50006e-08 4.04659e-08 0 -6.70035e-08 3.67326e-08 0 -4.50077e-08 2.99744e-08 0 -2.87783e-08 2.27234e-08 0 -1.74005e-08 1.62695e-08 0 -9.79034e-09 1.10798e-08 0 -4.93915e-09 7.18284e-09 0 -2.01145e-09 4.40539e-09 0 -3.67545e-10 2.51044e-09 0 4.50516e-10 1.24957e-09 0 7.46501e-10 4.00635e-10 0 6.99255e-10 -2.18092e-10 0 3.86886e-10 -7.5712e-10 0 -1.9643e-10 -1.33943e-09 0 -1.13141e-09 -2.05602e-09 0 -2.57085e-09 -2.93659e-09 0 -4.7288e-09 -3.91368e-09 0 -7.86632e-09 -4.56833e-09 0 -1.20782e-08 -3.98003e-09 0 -1.65824e-08 -6.38105e-10 0 -1.81439e-08 5.95579e-09 0 -1.17155e-08 1.06677e-08 0 -1.22729e-09 -3.30473e-08 0 -1.50137e-06 -0.000138258 0 8.88703e-05 -0.00250413 0 1.26168e-07 1.10655e-07 0 7.28204e-08 -7.03599e-08 0 -3.76286e-08 -1.04341e-07 0 -1.2368e-07 -7.4972e-08 0 -1.56816e-07 -2.78154e-08 0 -1.51508e-07 7.32719e-09 0 -1.27784e-07 2.52878e-08 0 -9.89767e-08 3.05602e-08 0 -7.20873e-08 2.84125e-08 0 -4.98293e-08 2.35269e-08 0 -3.27828e-08 1.80178e-08 0 -2.04676e-08 1.30046e-08 0 -1.20037e-08 8.92018e-09 0 -6.45851e-09 5.82409e-09 0 -3.0083e-09 3.59999e-09 0 -9.96146e-10 2.07105e-09 0 6.25187e-11 1.04569e-09 0 4.97394e-10 3.4984e-10 0 5.08086e-10 -1.60125e-10 0 1.87116e-10 -6.0348e-10 0 -4.61799e-10 -1.07678e-09 0 -1.50945e-09 -1.64811e-09 0 -3.08506e-09 -2.32923e-09 0 -5.33595e-09 -3.03764e-09 0 -8.34908e-09 -3.39233e-09 0 -1.18706e-08 -2.62997e-09 0 -1.47156e-08 2.70957e-10 0 -1.41208e-08 5.05067e-09 0 -7.71977e-09 7.47216e-09 0 -2.90849e-10 -2.52954e-08 0 -1.35424e-06 -0.000103356 0 8.68645e-05 -0.00177727 0 1.04656e-07 7.94173e-08 0 7.09293e-08 -4.34632e-08 0 -1.69207e-08 -7.04732e-08 0 -9.89972e-08 -5.442e-08 0 -1.40512e-07 -2.25641e-08 0 -1.44749e-07 2.96864e-09 0 -1.27355e-07 1.67695e-08 0 -1.01631e-07 2.13016e-08 0 -7.57557e-08 2.01873e-08 0 -5.3402e-08 1.69073e-08 0 -3.57909e-08 1.30488e-08 0 -2.27922e-08 9.47493e-09 0 -1.36927e-08 6.53345e-09 0 -7.62506e-09 4.28782e-09 0 -3.77846e-09 2.66518e-09 0 -1.48529e-09 1.54353e-09 0 -2.42043e-10 7.87042e-10 0 3.00036e-10 2.70768e-10 0 3.56072e-10 -1.09058e-10 0 2.96072e-11 -4.38768e-10 0 -6.67874e-10 -7.87709e-10 0 -1.7981e-09 -1.2028e-09 0 -3.4685e-09 -1.68581e-09 0 -5.76763e-09 -2.16067e-09 0 -8.63849e-09 -2.32628e-09 0 -1.1572e-08 -1.6209e-09 0 -1.31875e-08 5.79021e-10 0 -1.12974e-08 3.75672e-09 0 -5.29057e-09 4.89526e-09 0 1.87718e-10 -1.78161e-08 0 -1.25945e-06 -7.17441e-05 0 8.55669e-05 -0.00106185 0 9.15657e-08 4.77044e-08 0 6.87534e-08 -2.35711e-08 0 -4.88098e-09 -4.06224e-08 0 -8.32308e-08 -3.28809e-08 0 -1.29458e-07 -1.4566e-08 0 -1.3986e-07 8.75648e-10 0 -1.26781e-07 9.53161e-09 0 -1.03241e-07 1.25592e-08 0 -7.81306e-08 1.20627e-08 0 -5.57627e-08 1.01819e-08 0 -3.77992e-08 7.89928e-09 0 -2.43543e-08 5.75876e-09 0 -1.48333e-08 3.98476e-09 0 -8.41623e-09 2.62395e-09 0 -4.30309e-09 1.63683e-09 0 -1.82015e-09 9.52008e-10 0 -4.51784e-10 4.8844e-10 0 1.63273e-10 1.70929e-10 0 2.50473e-10 -6.32422e-11 0 -7.9184e-11 -2.66311e-10 0 -8.08718e-10 -4.80004e-10 0 -1.99297e-09 -7.31714e-10 0 -3.72276e-09 -1.01966e-09 0 -6.04312e-09 -1.29109e-09 0 -8.79524e-09 -1.35404e-09 0 -1.13061e-08 -8.67652e-10 0 -1.21201e-08 4.93445e-10 0 -9.51934e-09 2.29402e-09 0 -3.90926e-09 2.76293e-09 0 4.24584e-10 -1.05815e-08 0 -1.20243e-06 -4.22544e-05 0 8.49277e-05 -0.000353205 0 8.53575e-08 1.5902e-08 0 6.74327e-08 -7.45943e-09 0 6.46999e-10 -1.32612e-08 0 -7.55461e-08 -1.0987e-08 0 -1.2387e-07 -5.02134e-09 0 -1.37294e-07 1.41137e-10 0 -1.26404e-07 3.08761e-09 0 -1.03999e-07 4.14835e-09 0 -7.92995e-08 4.01194e-09 0 -5.69399e-08 3.39985e-09 0 -3.8807e-08 2.6446e-09 0 -2.51414e-08 1.93183e-09 0 -1.54097e-08 1.33903e-09 0 -8.81709e-09 8.83208e-10 0 -4.5696e-09 5.51921e-10 0 -1.99075e-09 3.21673e-10 0 -5.59014e-10 1.65533e-10 0 9.30993e-11 5.83992e-11 0 1.96214e-10 -2.07086e-11 0 -1.34897e-10 -8.92749e-11 0 -8.80397e-10 -1.61225e-10 0 -2.09141e-09 -2.45555e-10 0 -3.84975e-09 -3.41181e-10 0 -6.17731e-09 -4.29309e-10 0 -8.86258e-09 -4.44095e-10 0 -1.1153e-08 -2.71587e-10 0 -1.15727e-08 1.87957e-10 0 -8.66119e-09 7.69497e-10 0 -3.28259e-09 8.92333e-10 0 5.22499e-10 -3.5085e-09 0 -1.1755e-06 -1.39566e-05 0 8.49277e-05 0.000353205 0 8.53575e-08 -1.5902e-08 0 6.74327e-08 7.45943e-09 0 6.46999e-10 1.32612e-08 0 -7.55461e-08 1.0987e-08 0 -1.2387e-07 5.02134e-09 0 -1.37294e-07 -1.41137e-10 0 -1.26404e-07 -3.08761e-09 0 -1.03999e-07 -4.14835e-09 0 -7.92995e-08 -4.01194e-09 0 -5.69399e-08 -3.39985e-09 0 -3.8807e-08 -2.6446e-09 0 -2.51414e-08 -1.93183e-09 0 -1.54097e-08 -1.33903e-09 0 -8.81709e-09 -8.83208e-10 0 -4.5696e-09 -5.51921e-10 0 -1.99075e-09 -3.21673e-10 0 -5.59014e-10 -1.65533e-10 0 9.30992e-11 -5.83992e-11 0 1.96214e-10 2.07086e-11 0 -1.34898e-10 8.92749e-11 0 -8.80398e-10 1.61225e-10 0 -2.09141e-09 2.45555e-10 0 -3.84975e-09 3.41181e-10 0 -6.17731e-09 4.29309e-10 0 -8.86258e-09 4.44095e-10 0 -1.1153e-08 2.71587e-10 0 -1.15727e-08 -1.87957e-10 0 -8.66119e-09 -7.69498e-10 0 -3.28259e-09 -8.92333e-10 0 5.22499e-10 3.5085e-09 0 -1.1755e-06 1.39566e-05 0 8.55669e-05 0.00106185 0 9.15657e-08 -4.77044e-08 0 6.87534e-08 2.35711e-08 0 -4.88098e-09 4.06224e-08 0 -8.32308e-08 3.28809e-08 0 -1.29458e-07 1.4566e-08 0 -1.3986e-07 -8.75648e-10 0 -1.26781e-07 -9.53161e-09 0 -1.03241e-07 -1.25592e-08 0 -7.81306e-08 -1.20627e-08 0 -5.57627e-08 -1.01819e-08 0 -3.77992e-08 -7.89928e-09 0 -2.43543e-08 -5.75876e-09 0 -1.48333e-08 -3.98476e-09 0 -8.41623e-09 -2.62395e-09 0 -4.30309e-09 -1.63683e-09 0 -1.82015e-09 -9.52008e-10 0 -4.51784e-10 -4.8844e-10 0 1.63273e-10 -1.70929e-10 0 2.50473e-10 6.32422e-11 0 -7.9184e-11 2.66311e-10 0 -8.08719e-10 4.80004e-10 0 -1.99297e-09 7.31714e-10 0 -3.72276e-09 1.01966e-09 0 -6.04312e-09 1.29109e-09 0 -8.79524e-09 1.35404e-09 0 -1.13061e-08 8.67652e-10 0 -1.21201e-08 -4.93444e-10 0 -9.51934e-09 -2.29402e-09 0 -3.90926e-09 -2.76293e-09 0 4.24585e-10 1.05815e-08 0 -1.20243e-06 4.22544e-05 0 8.68645e-05 0.00177727 0 1.04656e-07 -7.94173e-08 0 7.09293e-08 4.34632e-08 0 -1.69207e-08 7.04732e-08 0 -9.89972e-08 5.442e-08 0 -1.40512e-07 2.25641e-08 0 -1.44749e-07 -2.96864e-09 0 -1.27355e-07 -1.67695e-08 0 -1.01631e-07 -2.13016e-08 0 -7.57557e-08 -2.01873e-08 0 -5.3402e-08 -1.69073e-08 0 -3.57909e-08 -1.30488e-08 0 -2.27922e-08 -9.47493e-09 0 -1.36927e-08 -6.53345e-09 0 -7.62506e-09 -4.28782e-09 0 -3.77846e-09 -2.66518e-09 0 -1.48529e-09 -1.54353e-09 0 -2.42043e-10 -7.87042e-10 0 3.00036e-10 -2.70768e-10 0 3.56072e-10 1.09058e-10 0 2.96073e-11 4.38768e-10 0 -6.67874e-10 7.87709e-10 0 -1.7981e-09 1.2028e-09 0 -3.4685e-09 1.68581e-09 0 -5.76763e-09 2.16067e-09 0 -8.63849e-09 2.32628e-09 0 -1.1572e-08 1.6209e-09 0 -1.31875e-08 -5.79021e-10 0 -1.12974e-08 -3.75672e-09 0 -5.29057e-09 -4.89526e-09 0 1.87718e-10 1.78161e-08 0 -1.25945e-06 7.17441e-05 0 8.88703e-05 0.00250413 0 1.26168e-07 -1.10655e-07 0 7.28204e-08 7.03599e-08 0 -3.76286e-08 1.04341e-07 0 -1.2368e-07 7.4972e-08 0 -1.56816e-07 2.78154e-08 0 -1.51508e-07 -7.32719e-09 0 -1.27784e-07 -2.52878e-08 0 -9.89767e-08 -3.05602e-08 0 -7.20873e-08 -2.84125e-08 0 -4.98293e-08 -2.35269e-08 0 -3.27828e-08 -1.80178e-08 0 -2.04676e-08 -1.30046e-08 0 -1.20037e-08 -8.92018e-09 0 -6.45851e-09 -5.82409e-09 0 -3.0083e-09 -3.59999e-09 0 -9.96146e-10 -2.07105e-09 0 6.25187e-11 -1.04569e-09 0 4.97395e-10 -3.4984e-10 0 5.08086e-10 1.60125e-10 0 1.87116e-10 6.0348e-10 0 -4.61799e-10 1.07678e-09 0 -1.50945e-09 1.64811e-09 0 -3.08506e-09 2.32923e-09 0 -5.33595e-09 3.03764e-09 0 -8.34908e-09 3.39233e-09 0 -1.18706e-08 2.62997e-09 0 -1.47156e-08 -2.70958e-10 0 -1.41208e-08 -5.05067e-09 0 -7.71977e-09 -7.47216e-09 0 -2.90849e-10 2.52954e-08 0 -1.35424e-06 0.000103356 0 9.16643e-05 0.00324741 0 1.58696e-07 -1.40362e-07 0 7.20337e-08 1.08637e-07 0 -7.05171e-08 1.43393e-07 0 -1.58336e-07 9.32722e-08 0 -1.77895e-07 2.88943e-08 0 -1.59418e-07 -1.48428e-08 0 -1.27559e-07 -3.55051e-08 0 -9.50006e-08 -4.04659e-08 0 -6.70035e-08 -3.67326e-08 0 -4.50077e-08 -2.99744e-08 0 -2.87783e-08 -2.27234e-08 0 -1.74005e-08 -1.62695e-08 0 -9.79034e-09 -1.10798e-08 0 -4.93915e-09 -7.18284e-09 0 -2.01145e-09 -4.40539e-09 0 -3.67545e-10 -2.51044e-09 0 4.50516e-10 -1.24957e-09 0 7.46502e-10 -4.00635e-10 0 6.99255e-10 2.18093e-10 0 3.86886e-10 7.5712e-10 0 -1.9643e-10 1.33943e-09 0 -1.13141e-09 2.05602e-09 0 -2.57085e-09 2.93659e-09 0 -4.7288e-09 3.91368e-09 0 -7.86632e-09 4.56833e-09 0 -1.20782e-08 3.98003e-09 0 -1.65824e-08 6.38104e-10 0 -1.81439e-08 -5.95579e-09 0 -1.17155e-08 -1.06677e-08 0 -1.22729e-09 3.30473e-08 0 -1.50137e-06 0.000138258 0 9.53647e-05 0.00401244 0 2.06203e-07 -1.66047e-07 0 6.38095e-08 1.64424e-07 0 -1.20665e-07 1.87907e-07 0 -2.03923e-07 1.07117e-07 0 -2.02841e-07 2.4122e-08 0 -1.67464e-07 -2.63515e-08 0 -1.2602e-07 -4.77372e-08 0 -8.93615e-08 -5.10751e-08 0 -6.03614e-08 -4.50984e-08 0 -3.88993e-08 -3.61615e-08 0 -2.37893e-08 -2.70729e-08 0 -1.36214e-08 -1.9188e-08 0 -7.08696e-09 -1.29472e-08 0 -3.09809e-09 -8.31532e-09 0 -8.13468e-10 -5.04706e-09 0 3.80628e-10 -2.83903e-09 0 9.06838e-10 -1.38503e-09 0 1.03572e-09 -4.16422e-10 0 9.20084e-10 2.8418e-10 0 6.20456e-10 8.96178e-10 0 1.20283e-10 1.56766e-09 0 -6.7043e-10 2.41396e-09 0 -1.92592e-09 3.49094e-09 0 -3.92574e-09 4.77026e-09 0 -7.11744e-09 5.84853e-09 0 -1.20259e-08 5.72938e-09 0 -1.85655e-08 2.38522e-09 0 -2.34861e-08 -6.06899e-09 0 -1.81242e-08 -1.45824e-08 0 -3.07143e-09 4.09775e-08 0 -1.72788e-06 0.000178032 0 0.000100137 0.00480499 0 2.74109e-07 -1.82141e-07 0 3.89902e-08 2.46188e-07 0 -1.94564e-07 2.36285e-07 0 -2.60645e-07 1.1306e-07 0 -2.30048e-07 1.16104e-08 0 -1.74302e-07 -4.25675e-08 0 -1.22388e-07 -6.21596e-08 0 -8.16904e-08 -6.23514e-08 0 -5.20272e-08 -5.34078e-08 0 -3.14885e-08 -4.19734e-08 0 -1.7851e-08 -3.09618e-08 0 -9.18229e-09 -2.16745e-08 0 -3.94503e-09 -1.44568e-08 0 -9.7949e-10 -9.17428e-09 0 5.50648e-10 -5.49263e-09 0 1.22194e-09 -3.03596e-09 0 1.41191e-09 -1.43981e-09 0 1.35033e-09 -3.91421e-10 0 1.15881e-09 3.59102e-10 0 8.77435e-10 1.01697e-09 0 4.78395e-10 1.75332e-09 0 -1.35377e-10 2.70845e-09 0 -1.15337e-09 3.97173e-09 0 -2.90936e-09 5.57751e-09 0 -6.02587e-09 7.1994e-09 0 -1.1505e-08 7.89015e-09 0 -2.02984e-08 5.20945e-09 0 -3.01e-08 -4.72664e-09 0 -2.82437e-08 -1.90658e-08 0 -6.78018e-09 4.8734e-08 0 -2.08537e-06 0.000224974 0 0.000106207 0.0056312 0 3.6841e-07 -1.76409e-07 0 -1.97661e-08 3.64687e-07 0 -2.9915e-07 2.834e-07 0 -3.26893e-07 1.06246e-07 0 -2.56902e-07 -1.05793e-08 0 -1.78238e-07 -6.39851e-08 0 -1.15816e-07 -7.87668e-08 0 -7.16438e-08 -7.41508e-08 0 -4.19207e-08 -6.14998e-08 0 -2.28149e-08 -4.72664e-08 0 -1.10472e-08 -3.42735e-08 0 -4.17328e-09 -2.36397e-08 0 -4.44779e-10 -1.55436e-08 0 1.35198e-09 -9.7145e-09 0 2.03193e-09 -5.71217e-09 0 2.12079e-09 -3.08257e-09 0 1.9404e-09 -1.4034e-09 0 1.67215e-09 -3.21009e-10 0 1.40162e-09 4.42964e-10 0 1.14617e-09 1.11564e-09 0 8.67014e-10 1.88826e-09 0 4.63699e-10 2.92544e-09 0 -2.58628e-10 4.35523e-09 0 -1.6666e-09 6.29434e-09 0 -4.51844e-09 8.55571e-09 0 -1.02782e-08 1.04049e-08 0 -2.12359e-08 9.28969e-09 0 -3.75534e-08 -9.54711e-10 0 -4.39243e-08 -2.32983e-08 0 -1.45041e-08 5.54395e-08 0 -2.67801e-06 0.00028265 0 0.000113828 0.00649718 0 5.05783e-07 -1.22278e-07 0 -1.44362e-07 5.29197e-07 0 -4.46672e-07 3.18465e-07 0 -4.02667e-07 8.09295e-08 0 -2.81497e-07 -4.39283e-08 0 -1.77693e-07 -9.06536e-08 0 -1.0519e-07 -9.72936e-08 0 -5.84539e-08 -8.62013e-08 0 -2.95192e-08 -6.91562e-08 0 -1.25297e-08 -5.18774e-08 0 -3.15206e-09 -3.68902e-08 0 1.54571e-09 -2.50013e-08 0 3.4959e-09 -1.6152e-08 0 3.94051e-09 -9.89977e-09 0 3.65077e-09 -5.6833e-09 0 3.08323e-09 -2.96599e-09 0 2.48986e-09 -1.26932e-09 0 1.99356e-09 -2.03139e-10 0 1.63722e-09 5.34476e-10 0 1.41195e-09 1.18781e-09 0 1.26756e-09 1.9643e-09 0 1.10395e-09 3.0507e-09 0 7.32687e-10 4.61563e-09 0 -2.16805e-10 6.87033e-09 0 -2.57117e-09 9.82025e-09 0 -8.15116e-09 1.31247e-08 0 -2.06848e-08 1.4641e-08 0 -4.45939e-08 6.45989e-09 0 -6.6864e-08 -2.49554e-08 0 -3.09827e-08 5.92728e-08 0 -3.71504e-06 0.000357003 0 0.000123309 0.0074075 0 6.77012e-07 4.28692e-08 0 -3.87323e-07 7.4173e-07 0 -6.34861e-07 3.2236e-07 0 -4.77839e-07 3.0342e-08 0 -2.9804e-07 -8.96011e-08 0 -1.70208e-07 -1.22328e-07 0 -8.97408e-08 -1.17298e-07 0 -4.21088e-08 -9.81258e-08 0 -1.51144e-08 -7.60905e-08 0 -1.00581e-09 -5.55987e-08 0 5.48077e-09 -3.86649e-08 0 7.67962e-09 -2.5658e-08 0 7.64921e-09 -1.62146e-08 0 6.62e-09 -9.68701e-09 0 5.29157e-09 -5.37984e-09 0 4.03194e-09 -2.67136e-09 0 3.01026e-09 -1.03012e-09 0 2.2827e-09 -3.51754e-11 0 1.84497e-09 6.32898e-10 0 1.66026e-09 1.22983e-09 0 1.66815e-09 1.97427e-09 0 1.77422e-09 3.07103e-09 0 1.81043e-09 4.72719e-09 0 1.43737e-09 7.25001e-09 0 -1.47657e-10 1.08695e-08 0 -4.91509e-09 1.57964e-08 0 -1.77882e-08 2.09734e-08 0 -4.89469e-08 1.85912e-08 0 -9.82501e-08 -1.88245e-08 0 -6.82018e-08 5.73304e-08 0 -5.71862e-06 0.000458738 0 0.000134563 0.00836046 0 8.33299e-07 4.60613e-07 0 -8.22575e-07 9.70711e-07 0 -8.55257e-07 2.67714e-07 0 -5.42485e-07 -5.07176e-08 0 -3.01984e-07 -1.47321e-07 0 -1.53853e-07 -1.58055e-07 0 -6.86209e-08 -1.38024e-07 0 -2.22305e-08 -1.09418e-07 0 1.44661e-09 -8.19659e-08 0 1.17986e-08 -5.82114e-08 0 1.48408e-08 -3.94574e-08 0 1.41974e-08 -2.55221e-08 0 1.19804e-08 -1.56784e-08 0 9.36022e-09 -9.04617e-09 0 6.93162e-09 -4.78609e-09 0 4.9519e-09 -2.19162e-09 0 3.49294e-09 -6.8372e-10 0 2.53533e-09 1.82137e-10 0 2.02277e-09 7.35698e-10 0 1.88893e-09 1.2375e-09 0 2.06427e-09 1.91137e-09 0 2.46504e-09 2.9744e-09 0 2.95692e-09 4.6657e-09 0 3.26688e-09 7.37758e-09 0 2.71961e-09 1.15649e-08 0 -5.1247e-10 1.8074e-08 0 -1.18327e-08 2.75815e-08 0 -4.70527e-08 3.56022e-08 0 -1.33821e-07 4.40854e-09 0 -1.53925e-07 4.85112e-08 0 -9.96155e-06 0.000608956 0 0.000145811 0.00933284 0 7.2182e-07 1.43957e-06 0 -1.51896e-06 1.11056e-06 0 -1.07799e-06 1.23733e-07 0 -5.8216e-07 -1.64076e-07 0 -2.88032e-07 -2.15243e-07 0 -1.26569e-07 -1.96286e-07 0 -4.09245e-08 -1.58482e-07 0 1.6393e-09 -1.1947e-07 0 2.04271e-08 -8.63976e-08 0 2.60668e-08 -5.94757e-08 0 2.50857e-08 -3.91203e-08 0 2.12591e-08 -2.45061e-08 0 1.66644e-08 -1.44943e-08 0 1.23546e-08 -7.95172e-09 0 8.78224e-09 -3.8907e-09 0 6.06934e-09 -1.52331e-09 0 4.17526e-09 -2.30639e-10 0 2.99614e-09 4.46441e-10 0 2.41924e-09 8.39673e-10 0 2.3473e-09 1.20683e-09 0 2.70298e-09 1.76997e-09 0 3.41766e-09 2.75104e-09 0 4.40198e-09 4.41093e-09 0 5.47974e-09 7.20361e-09 0 6.20173e-09 1.17714e-08 0 5.21556e-09 1.95586e-08 0 -2.21126e-09 3.33173e-08 0 -3.45406e-08 5.55688e-08 0 -1.575e-07 5.61607e-08 0 -3.4704e-07 5.40591e-08 0 -2.00342e-05 0.00085393 0 0.000147259 0.0102257 0 -7.28444e-07 3.47594e-06 0 -2.52946e-06 9.43059e-07 0 -1.32959e-06 -1.30223e-07 0 -6.63623e-07 -3.05619e-07 0 -3.36312e-07 -2.89614e-07 0 -1.73474e-07 -2.34829e-07 0 -9.4328e-08 -1.77431e-07 0 -5.97839e-08 -1.27562e-07 0 -4.8566e-08 -8.89413e-08 0 -4.93462e-08 -5.91223e-08 0 -5.54266e-08 -3.74948e-08 0 -6.30898e-08 -2.25206e-08 0 -7.04378e-08 -1.26159e-08 0 -7.6635e-08 -6.38312e-09 0 -8.14387e-08 -2.68757e-09 0 -8.49065e-08 -6.67619e-10 0 -8.72193e-08 3.24818e-10 0 -8.85819e-08 7.52567e-10 0 -8.91718e-08 9.39708e-10 0 -8.91201e-08 1.13275e-09 0 -8.85114e-08 1.5442e-09 0 -8.73959e-08 2.3923e-09 0 -8.58101e-08 3.94669e-09 0 -8.38131e-08 6.68932e-09 0 -8.15534e-08 1.13768e-08 0 -7.96111e-08 1.98683e-08 0 -8.07085e-08 3.67515e-08 0 -9.98676e-08 7.36068e-08 0 -2.27865e-07 1.38729e-07 0 -8.04463e-07 2.02865e-07 0 -4.76916e-05 0.00130962 0 8.70655e-05 0.0106336 0 -2.91615e-06 6.17851e-06 0 -3.58202e-07 2.13245e-07 0 1.65826e-06 -4.87605e-07 0 2.47757e-06 -4.70652e-07 0 2.87855e-06 -3.72458e-07 0 3.09974e-06 -2.77936e-07 0 3.22736e-06 -1.9925e-07 0 3.30046e-06 -1.37446e-07 0 3.34065e-06 -9.25131e-08 0 3.36077e-06 -5.92907e-08 0 3.36919e-06 -3.60824e-08 0 3.3712e-06 -2.05726e-08 0 3.37002e-06 -1.06837e-08 0 3.36748e-06 -4.71688e-09 0 3.36456e-06 -1.36586e-09 0 3.36167e-06 3.19543e-10 0 3.35898e-06 1.02446e-09 0 3.35644e-06 1.21836e-09 0 3.354e-06 1.21754e-09 0 3.35158e-06 1.25498e-09 0 3.3491e-06 1.52948e-09 0 3.34655e-06 2.24848e-09 0 3.34389e-06 3.67618e-09 0 3.34113e-06 6.28308e-09 0 3.3383e-06 1.0846e-08 0 3.33541e-06 1.93389e-08 0 3.33191e-06 3.72905e-08 0 3.32104e-06 8.35322e-08 0 3.22885e-06 2.26511e-07 0 2.17645e-06 8.52696e-07 0 -0.000139597 0.00232705 0 -0.000323292 0.00836096 0 0.000281502 3.23435e-06 0 0.00026396 -1.092e-06 0 0.000262955 -8.21039e-07 0 0.000267402 -5.332e-07 0 0.000273363 -3.43633e-07 0 0.000279195 -2.18422e-07 0 0.000284218 -1.33651e-07 0 0.00028822 -7.67801e-08 0 0.000291236 -4.15924e-08 0 0.000293398 -1.87559e-08 0 0.000294881 -5.28536e-09 0 0.000295853 1.83983e-09 0 0.000296456 4.86744e-09 0 0.000296806 5.38567e-09 0 0.000296984 4.46234e-09 0 0.00029705 2.77825e-09 0 0.000297043 7.54202e-10 0 0.000296986 -1.36664e-09 0 0.000296894 -3.4429e-09 0 0.000296774 -5.37532e-09 0 0.000296629 -7.06897e-09 0 0.000296459 -8.41249e-09 0 0.000296268 -9.28376e-09 0 0.000296059 -9.49483e-09 0 0.000295844 -8.90802e-09 0 0.000295642 -7.05124e-09 0 0.000295487 -1.87688e-09 0 0.000295444 1.76431e-08 0 0.000295674 1.21695e-07 0 0.000296316 1.23074e-06 0 -0.000538388 0.00527024 0 -0.034694 0.0214404 0 -0.0352515 -0.000337737 0 -0.0325274 -5.73068e-05 0 -0.0322811 9.14212e-06 0 -0.0327785 2.95094e-05 0 -0.0334876 3.36444e-05 0 -0.0341961 3.11056e-05 0 -0.0348158 2.59796e-05 0 -0.035317 2.02587e-05 0 -0.0357005 1.50681e-05 0 -0.0359805 1.06936e-05 0 -0.0361768 7.26874e-06 0 -0.0363087 4.71979e-06 0 -0.0363934 2.89629e-06 0 -0.0364444 1.63144e-06 0 -0.0364718 7.72183e-07 0 -0.036483 1.93034e-07 0 -0.0364828 -2.05606e-07 0 -0.0364741 -4.9654e-07 0 -0.0364589 -7.28806e-07 0 -0.0364379 -9.3411e-07 0 -0.0364115 -1.13025e-06 0 -0.0363798 -1.32331e-06 0 -0.0363426 -1.50922e-06 0 -0.0363 -1.67399e-06 0 -0.0362516 -1.80343e-06 0 -0.0361968 -1.89342e-06 0 -0.0361326 -1.97262e-06 0 -0.0360497 -2.13889e-06 0 -0.0359178 -2.70614e-06 0 -0.0355759 -7.62402e-06 0 -0.0116734 -0.00728778 0 </DataArray> 
</PointData> 
<Points> 
<DataArray type="Float32" NumberOfComponents="3"> 