<?xml version="1.0"?> 
<VTKFile type="StructuredGrid" version="0.1"> 
<StructuredGrid WholeExtent="0 31 0 31 0 0"> 
<Piece Extent="0 31 0 31 0 0"> 
<PointData>
<DataArray type="Float32" Name="B" format="ascii" NumberOfComponents="3"> 
0 4.83753e-06 0 -8.60106e-07 4.86237e-06 0 -1.72784e-06 4.92837e-06 0 -2.61073e-06 5.03939e-06 0 -3.5168e-06 5.19977e-06 0 -4.45411e-06 5.40529e-06 0 -5.43116e-06 5.66546e-06 0 -6.45718e-06 5.97983e-06 0 -7.54173e-06 6.34889e-06 0 -8.69544e-06 6.78932e-06 0 -9.92996e-06 7.29427e-06 0 -1.12579e-05 7.87525e-06 0 -1.26939e-05 8.54417e-06 0 -1.42544e-05 9.29835e-06 0 -1.59582e-05 1.01609e-05 0 -1.78283e-05 1.11333e-05 0 -1.98916e-05 1.22196e-05 0 -2.21827e-05 1.34528e-05 0 -2.47464e-05 1.48165e-05 0 -2.76422e-05 1.63273e-05 0 -3.09574e-05 1.7991e-05 0 -3.48183e-05 1.97822e-05 0 -3.94219e-05 2.16958e-05 0 -4.50974e-05 2.3679e-05 0 -5.23885e-05 2.5671e-05 0 -6.22925e-05 2.75947e-05 0 -7.66988e-05 2.94024e-05 0 -9.9543e-05 3.12411e-05 0 -0.000140206 3.41066e-05 0 -0.000226937 4.31197e-05 0 -0.000497127 9.74368e-05 0 -0.00257256 0.00844698 0 0 5.67276e-06 0 -8.12168e-07 5.70168e-06 0 -1.63135e-06 5.77852e-06 0 -2.46447e-06 5.90777e-06 0 -3.31889e-06 6.09449e-06 0 -4.20202e-06 6.33373e-06 0 -5.12162e-06 6.63657e-06 0 -6.08614e-06 7.00249e-06 0 -7.10432e-06 7.43209e-06 0 -8.18587e-06 7.94488e-06 0 -9.34143e-06 8.53301e-06 0 -1.05825e-05 9.21019e-06 0 -1.19227e-05 9.99084e-06 0 -1.33771e-05 1.08725e-05 0 -1.49633e-05 1.18841e-05 0 -1.6703e-05 1.30293e-05 0 -1.86221e-05 1.43164e-05 0 -2.07542e-05 1.57936e-05 0 -2.31434e-05 1.74493e-05 0 -2.58487e-05 1.93242e-05 0 -2.89567e-05 2.14609e-05 0 -3.25909e-05 2.38691e-05 0 -3.69398e-05 2.6666e-05 0 -4.2306e-05 2.99341e-05 0 -4.91625e-05 3.38769e-05 0 -5.8313e-05 3.89858e-05 0 -7.11174e-05 4.62728e-05 0 -8.99339e-05 5.82388e-05 0 -0.000118665 8.17539e-05 0 -0.000160805 0.000138133 0 -0.000181029 0.000295619 0 0.000123941 0.000479801 0 0 6.45666e-06 0 -7.57285e-07 6.4893e-06 0 -1.52089e-06 6.57602e-06 0 -2.29705e-06 6.72186e-06 0 -3.09237e-06 6.93253e-06 0 -3.9135e-06 7.20242e-06 0 -4.76738e-06 7.544e-06 0 -5.66156e-06 7.95668e-06 0 -6.60378e-06 8.44114e-06 0 -7.60264e-06 9.01941e-06 0 -8.66755e-06 9.68276e-06 0 -9.80867e-06 1.04469e-05 0 -1.10379e-05 1.13285e-05 0 -1.23685e-05 1.23254e-05 0 -1.3816e-05 1.34717e-05 0 -1.53995e-05 1.47735e-05 0 -1.71416e-05 1.62431e-05 0 -1.90717e-05 1.79425e-05 0 -2.12279e-05 1.98649e-05 0 -2.36604e-05 2.20723e-05 0 -2.64403e-05 2.46392e-05 0 -2.96652e-05 2.76029e-05 0 -3.34743e-05 3.11745e-05 0 -3.80718e-05 3.55252e-05 0 -4.37355e-05 4.1013e-05 0 -5.08438e-05 4.84042e-05 0 -5.98067e-05 5.90276e-05 0 -7.07188e-05 7.55498e-05 0 -8.18512e-05 0.00010323 0 -8.40421e-05 0.000150428 0 -4.72848e-05 0.0002163 0 5.51569e-05 0.000239082 0 6.14623e-20 7.18264e-06 0 -6.96144e-07 7.21859e-06 0 -1.39784e-06 7.3141e-06 0 -2.11057e-06 7.47471e-06 0 -2.84011e-06 7.70666e-06 0 -3.59226e-06 8.00376e-06 0 -4.37307e-06 8.37966e-06 0 -5.18902e-06 8.83369e-06 0 -6.04678e-06 9.36657e-06 0 -6.95367e-06 1.00025e-05 0 -7.91762e-06 1.07319e-05 0 -8.94717e-06 1.1572e-05 0 -1.00522e-05 1.25417e-05 0 -1.12435e-05 1.36387e-05 0 -1.25338e-05 1.49017e-05 0 -1.39383e-05 1.63386e-05 0 -1.54747e-05 1.79645e-05 0 -1.71656e-05 1.98527e-05 0 -1.9039e-05 2.19993e-05 0 -2.11302e-05 2.44811e-05 0 -2.3486e-05 2.73932e-05 0 -2.61645e-05 3.07866e-05 0 -2.92375e-05 3.492e-05 0 -3.27868e-05 3.99881e-05 0 -3.68777e-05 4.63686e-05 0 -4.14926e-05 5.47901e-05 0 -4.63352e-05 6.62818e-05 0 -5.0337e-05 8.24276e-05 0 -5.0541e-05 0.000105097 0 -4.03886e-05 0.000134254 0 -1.0946e-05 0.000161591 0 3.49037e-05 0.000166833 0 0 7.84481e-06 0 -6.29496e-07 7.88363e-06 0 -1.26373e-06 7.98676e-06 0 -1.90735e-06 8.16015e-06 0 -2.56528e-06 8.41049e-06 0 -3.24239e-06 8.73105e-06 0 -3.94374e-06 9.13647e-06 0 -4.67472e-06 9.62595e-06 0 -5.44077e-06 1.02002e-05 0 -6.24782e-06 1.0885e-05 0 -7.10219e-06 1.16703e-05 0 -8.01053e-06 1.25744e-05 0 -8.98038e-06 1.36174e-05 0 -1.00199e-05 1.47974e-05 0 -1.11381e-05 1.61559e-05 0 -1.23457e-05 1.77018e-05 0 -1.36544e-05 1.94521e-05 0 -1.50784e-05 2.1487e-05 0 -1.66336e-05 2.38029e-05 0 -1.8338e-05 2.6484e-05 0 -2.02113e-05 2.96324e-05 0 -2.22706e-05 3.32986e-05 0 -2.45235e-05 3.77434e-05 0 -2.69484e-05 4.3134e-05 0 -2.94561e-05 4.97763e-05 0 -3.18004e-05 5.81976e-05 0 -3.34146e-05 6.89575e-05 0 -3.31225e-05 8.26227e-05 0 -2.87954e-05 9.92127e-05 0 -1.74866e-05 0.000116887 0 2.54279e-06 0.000130488 0 2.75812e-05 0.000133154 0 0 8.43809e-06 0 -5.5814e-07 8.47932e-06 0 -1.12016e-06 8.58882e-06 0 -1.68986e-06 8.77289e-06 0 -2.27124e-06 9.03855e-06 0 -2.86822e-06 9.37861e-06 0 -3.48482e-06 9.80845e-06 0 -4.12527e-06 1.03271e-05 0 -4.79374e-06 1.09352e-05 0 -5.49468e-06 1.16598e-05 0 -6.23269e-06 1.24899e-05 0 -7.01243e-06 1.34449e-05 0 -7.83896e-06 1.45456e-05 0 -8.71743e-06 1.57896e-05 0 -9.65321e-06 1.72203e-05 0 -1.06519e-05 1.88467e-05 0 -1.17191e-05 2.06861e-05 0 -1.286e-05 2.2821e-05 0 -1.40787e-05 2.52462e-05 0 -1.53765e-05 2.80454e-05 0 -1.67487e-05 3.13163e-05 0 -1.81786e-05 3.50991e-05 0 -1.96261e-05 3.96249e-05 0 -2.10043e-05 4.5009e-05 0 -2.21476e-05 5.14548e-05 0 -2.27409e-05 5.92711e-05 0 -2.22374e-05 6.8654e-05 0 -1.9764e-05 7.96152e-05 0 -1.4146e-05 9.16117e-05 0 -4.31795e-06 0.00010307 0 9.62901e-06 0.00011133 0 2.53272e-05 0.000113833 0 -3.39477e-19 8.95821e-06 0 -4.82938e-07 9.00135e-06 0 -9.68881e-07 9.11594e-06 0 -1.46076e-06 9.30851e-06 0 -1.96163e-06 9.58634e-06 0 -2.47444e-06 9.94179e-06 0 -3.00216e-06 1.03908e-05 0 -3.54782e-06 1.09321e-05 0 -4.11432e-06 1.15662e-05 0 -4.70459e-06 1.2321e-05 0 -5.32149e-06 1.31848e-05 0 -5.96768e-06 1.41772e-05 0 -6.64572e-06 1.53191e-05 0 -7.35778e-06 1.66078e-05 0 -8.10552e-06 1.80867e-05 0 -8.88979e-06 1.97642e-05 0 -9.71009e-06 2.16565e-05 0 -1.05637e-05 2.38445e-05 0 -1.1444e-05 2.63198e-05 0 -1.23389e-05 2.91598e-05 0 -1.32249e-05 3.24501e-05 0 -1.40625e-05 3.62157e-05 0 -1.47841e-05 4.06435e-05 0 -1.52738e-05 4.57952e-05 0 -1.53497e-05 5.17819e-05 0 -1.47213e-05 5.87471e-05 0 -1.29681e-05 6.66838e-05 0 -9.54242e-06 7.53967e-05 0 -3.87941e-06 8.4323e-05 0 4.31115e-06 9.24251e-05 0 1.46012e-05 9.83697e-05 0 2.55768e-05 0.000101138 0 0 9.40173e-06 0 -4.04755e-07 9.44631e-06 0 -8.11638e-07 9.56469e-06 0 -1.22271e-06 9.76357e-06 0 -1.64008e-06 1.00504e-05 0 -2.06574e-06 1.04171e-05 0 -2.5016e-06 1.08799e-05 0 -2.94952e-06 1.14374e-05 0 -3.41113e-06 1.20898e-05 0 -3.8879e-06 1.28652e-05 0 -4.38097e-06 1.37513e-05 0 -4.89108e-06 1.47675e-05 0 -5.41841e-06 1.59344e-05 0 -5.96233e-06 1.72485e-05 0 -6.5211e-06 1.87521e-05 0 -7.09128e-06 2.04522e-05 0 -7.66719e-06 2.2363e-05 0 -8.23946e-06 2.45604e-05 0 -8.79343e-06 2.70323e-05 0 -9.30701e-06 2.98461e-05 0 -9.74507e-06 3.30718e-05 0 -1.00557e-05 3.67187e-05 0 -1.01605e-05 4.09279e-05 0 -9.94096e-06 4.57183e-05 0 -9.23191e-06 5.11342e-05 0 -7.80179e-06 5.72175e-05 0 -5.36133e-06 6.38755e-05 0 -1.596e-06 7.08789e-05 0 3.73917e-06 7.77917e-05 0 1.06575e-05 8.39842e-05 0 1.87666e-05 8.8789e-05 0 2.72247e-05 9.18035e-05 0 0 9.76613e-06 0 -3.24429e-07 9.81165e-06 0 -6.50126e-07 9.93253e-06 0 -9.78299e-07 1.01355e-05 0 -1.31013e-06 1.04281e-05 0 -1.64668e-06 1.0802e-05 0 -1.98884e-06 1.12734e-05 0 -2.33734e-06 1.18407e-05 0 -2.6926e-06 1.25036e-05 0 -3.05469e-06 1.32903e-05 0 -3.42319e-06 1.41877e-05 0 -3.79704e-06 1.52147e-05 0 -4.17428e-06 1.63911e-05 0 -4.55184e-06 1.77122e-05 0 -4.92505e-06 1.92185e-05 0 -5.28692e-06 2.09149e-05 0 -5.62772e-06 2.28131e-05 0 -5.9332e-06 2.49819e-05 0 -6.18317e-06 2.74054e-05 0 -6.34972e-06 3.01397e-05 0 -6.3919e-06 3.32384e-05 0 -6.25395e-06 3.66978e-05 0 -5.85851e-06 4.06184e-05 0 -5.09817e-06 4.49904e-05 0 -3.83715e-06 4.98171e-05 0 -1.90398e-06 5.50869e-05 0 8.90209e-07 6.06858e-05 0 4.71963e-06 6.64147e-05 0 9.68122e-06 7.19688e-05 0 1.57131e-05 7.69766e-05 0 2.25307e-05 8.11047e-05 0 2.96391e-05 8.42122e-05 0 0 1.00497e-05 0 -2.42878e-07 1.00957e-05 0 -4.86194e-07 1.02178e-05 0 -7.30335e-07 1.04228e-05 0 -9.75603e-07 1.07181e-05 0 -1.22215e-06 1.10952e-05 0 -1.46992e-06 1.15702e-05 0 -1.71857e-06 1.2141e-05 0 -1.9674e-06 1.28072e-05 0 -2.21521e-06 1.35962e-05 0 -2.46014e-06 1.44945e-05 0 -2.69957e-06 1.55202e-05 0 -2.92969e-06 1.66915e-05 0 -3.14536e-06 1.8003e-05 0 -3.33956e-06 1.94922e-05 0 -3.50259e-06 2.11619e-05 0 -3.62177e-06 2.30209e-05 0 -3.67963e-06 2.51299e-05 0 -3.65276e-06 2.74698e-05 0 -3.51056e-06 3.00852e-05 0 -3.21069e-06 3.30151e-05 0 -2.69894e-06 3.6246e-05 0 -1.90486e-06 3.98461e-05 0 -7.37563e-07 4.37891e-05 0 9.08967e-07 4.80561e-05 0 3.15697e-06 5.26117e-05 0 6.12693e-06 5.73489e-05 0 9.91391e-06 6.21119e-05 0 1.45512e-05 6.66952e-05 0 1.99732e-05 7.08795e-05 0 2.59976e-05 7.44967e-05 0 3.23519e-05 7.75118e-05 0 0 1.02516e-05 0 -1.60872e-07 1.02976e-05 0 -3.21398e-07 1.04198e-05 0 -4.81184e-07 1.06248e-05 0 -6.39705e-07 1.09199e-05 0 -7.96271e-07 1.12964e-05 0 -9.49939e-07 1.17702e-05 0 -1.09939e-06 1.23387e-05 0 -1.24292e-06 1.30014e-05 0 -1.37817e-06 1.37844e-05 0 -1.50208e-06 1.4674e-05 0 -1.61068e-06 1.56872e-05 0 -1.69863e-06 1.68405e-05 0 -1.75918e-06 1.81276e-05 0 -1.78356e-06 1.95827e-05 0 -1.76012e-06 2.12063e-05 0 -1.67437e-06 2.30044e-05 0 -1.50705e-06 2.50293e-05 0 -1.23346e-06 2.72593e-05 0 -8.22702e-07 2.97291e-05 0 -2.33992e-07 3.24647e-05 0 5.82264e-07 3.54469e-05 0 1.68704e-06 3.87193e-05 0 3.15426e-06 4.22478e-05 0 5.06444e-06 4.60036e-05 0 7.5035e-06 4.99436e-05 0 1.05486e-05 5.39766e-05 0 1.4253e-05 5.79852e-05 0 1.8627e-05 6.18296e-05 0 2.36237e-05 6.5375e-05 0 2.91398e-05 6.85298e-05 0 3.50433e-05 7.12875e-05 0 0 1.03717e-05 0 -7.92223e-08 1.04173e-05 0 -1.57373e-07 1.05384e-05 0 -2.33343e-07 1.07416e-05 0 -3.05848e-07 1.10338e-05 0 -3.73434e-07 1.14063e-05 0 -4.34363e-07 1.18743e-05 0 -4.86458e-07 1.24353e-05 0 -5.27131e-07 1.30881e-05 0 -5.53087e-07 1.38577e-05 0 -5.60223e-07 1.47302e-05 0 -5.43538e-07 1.5721e-05 0 -4.96539e-07 1.68451e-05 0 -4.11316e-07 1.80953e-05 0 -2.77961e-07 1.9502e-05 0 -8.37319e-08 2.1064e-05 0 1.8675e-07 2.27846e-05 0 5.53216e-07 2.47075e-05 0 1.0401e-06 2.68102e-05 0 1.6769e-06 2.9118e-05 0 2.50101e-06 3.16472e-05 0 3.55599e-06 3.43752e-05 0 4.89302e-06 3.7328e-05 0 6.57111e-06 4.04692e-05 0 8.65117e-06 4.37668e-05 0 1.11946e-05 4.71772e-05 0 1.42533e-05 5.06255e-05 0 1.78603e-05 5.40224e-05 0 2.20212e-05 5.72691e-05 0 2.6709e-05 6.02754e-05 0 3.18714e-05 6.29797e-05 0 3.74536e-05 6.5369e-05 0 0 1.04107e-05 0 1.44468e-09 1.04556e-05 0 4.6267e-09 1.05746e-05 0 1.13097e-08 1.07741e-05 0 2.34687e-08 1.10609e-05 0 4.32453e-08 1.14262e-05 0 7.30854e-08 1.18846e-05 0 1.15918e-07 1.24332e-05 0 1.75084e-07 1.30705e-05 0 2.54678e-07 1.38201e-05 0 3.59622e-07 1.4668e-05 0 4.95732e-07 1.56281e-05 0 6.70343e-07 1.67135e-05 0 8.92141e-07 1.79164e-05 0 1.17172e-06 1.92636e-05 0 1.52234e-06 2.0752e-05 0 1.95957e-06 2.23827e-05 0 2.5028e-06 2.41919e-05 0 3.17532e-06 2.61563e-05 0 4.00438e-06 2.82941e-05 0 5.02327e-06 3.06138e-05 0 6.26933e-06 3.30917e-05 0 7.7847e-06 3.57413e-05 0 9.61592e-06 3.8527e-05 0 1.18088e-05 4.14168e-05 0 1.44077e-05 4.43698e-05 0 1.74481e-05 4.73243e-05 0 2.09523e-05 5.02105e-05 0 2.49254e-05 5.29539e-05 0 2.9355e-05 5.54863e-05 0 3.42188e-05 5.77552e-05 0 3.95007e-05 5.97298e-05 0 0 1.03701e-05 0 8.03241e-08 1.04138e-05 0 1.62978e-07 1.05298e-05 0 2.50307e-07 1.07242e-05 0 3.44893e-07 1.10033e-05 0 4.49475e-07 1.13585e-05 0 5.67105e-07 1.18037e-05 0 7.01342e-07 1.23357e-05 0 8.56138e-07 1.29527e-05 0 1.03621e-06 1.36766e-05 0 1.2471e-06 1.44935e-05 0 1.49518e-06 1.54158e-05 0 1.78832e-06 1.64549e-05 0 2.13562e-06 1.76023e-05 0 2.54792e-06 1.88813e-05 0 3.03849e-06 2.02875e-05 0 3.62249e-06 2.182e-05 0 4.31838e-06 2.35082e-05 0 5.1477e-06 2.5329e-05 0 6.13494e-06 2.72947e-05 0 7.30912e-06 2.94082e-05 0 8.70174e-06 3.16459e-05 0 1.03472e-05 3.40126e-05 0 1.2282e-05 3.64751e-05 0 1.45411e-05 3.9003e-05 0 1.71568e-05 4.15586e-05 0 2.01548e-05 4.40906e-05 0 2.3551e-05 4.65421e-05 0 2.73504e-05 4.88528e-05 0 3.15483e-05 5.09654e-05 0 3.61353e-05 5.28288e-05 0 4.11071e-05 5.4398e-05 0 3.89891e-20 1.02518e-05 0 1.56886e-07 1.02941e-05 0 3.16622e-07 1.04062e-05 0 4.8206e-07 1.0594e-05 0 6.56308e-07 1.08636e-05 0 8.42615e-07 1.12063e-05 0 1.04454e-06 1.16352e-05 0 1.26616e-06 1.21469e-05 0 1.5119e-06 1.27394e-05 0 1.78696e-06 1.34329e-05 0 2.09728e-06 1.42137e-05 0 2.44963e-06 1.50926e-05 0 2.85213e-06 1.60793e-05 0 3.314e-06 1.71651e-05 0 3.84602e-06 1.83698e-05 0 4.46106e-06 1.9688e-05 0 5.17355e-06 2.11173e-05 0 6.00062e-06 2.26812e-05 0 6.96177e-06 2.43573e-05 0 8.0786e-06 2.61532e-05 0 9.37604e-06 2.80678e-05 0 1.08803e-05 3.00788e-05 0 1.26194e-05 3.21844e-05 0 1.46218e-05 3.43547e-05 0 1.69143e-05 3.65615e-05 0 1.95208e-05 3.87703e-05 0 2.24599e-05 4.09372e-05 0 2.57431e-05 4.30145e-05 0 2.93746e-05 4.49507e-05 0 3.33519e-05 4.66949e-05 0 3.76688e-05 4.8197e-05 0 4.232e-05 4.94052e-05 0 -6.07955e-20 1.00584e-05 0 2.30853e-07 1.00989e-05 0 4.65008e-07 1.02065e-05 0 7.05756e-07 1.03866e-05 0 9.56658e-07 1.06448e-05 0 1.22139e-06 1.09728e-05 0 1.50395e-06 1.13828e-05 0 1.8088e-06 1.18712e-05 0 2.14075e-06 1.24358e-05 0 2.50533e-06 1.3095e-05 0 2.90878e-06 1.38355e-05 0 3.35804e-06 1.46666e-05 0 3.86131e-06 1.55965e-05 0 4.42774e-06 1.66162e-05 0 5.06779e-06 1.77427e-05 0 5.79372e-06 1.89695e-05 0 6.61898e-06 2.02933e-05 0 7.5592e-06 2.17323e-05 0 8.63175e-06 2.32656e-05 0 9.85542e-06 2.4897e-05 0 1.12513e-05 2.66227e-05 0 1.28411e-05 2.84217e-05 0 1.46471e-05 3.02884e-05 0 1.66918e-05 3.21956e-05 0 1.89951e-05 3.41176e-05 0 2.15749e-05 3.60228e-05 0 2.44441e-05 3.78732e-05 0 2.76107e-05 3.96275e-05 0 3.1077e-05 4.12407e-05 0 3.48397e-05 4.26669e-05 0 3.88919e-05 4.38582e-05 0 4.32234e-05 4.47633e-05 0 0 9.79279e-06 0 3.01187e-07 9.83141e-06 0 6.0605e-07 9.93379e-06 0 9.18242e-07 1.01051e-05 0 1.24169e-06 1.03506e-05 0 1.58041e-06 1.06622e-05 0 1.93871e-06 1.10511e-05 0 2.32138e-06 1.15138e-05 0 2.73347e-06 1.20476e-05 0 3.18071e-06 1.26695e-05 0 3.66947e-06 1.33664e-05 0 4.20671e-06 1.41466e-05 0 4.80055e-06 1.50165e-05 0 5.45983e-06 1.59673e-05 0 6.19455e-06 1.70131e-05 0 7.01616e-06 1.81471e-05 0 7.937e-06 1.93652e-05 0 8.9711e-06 2.06813e-05 0 1.01338e-05 2.20757e-05 0 1.14412e-05 2.35498e-05 0 1.2911e-05 2.50978e-05 0 1.45611e-05 2.67005e-05 0 1.64093e-05 2.83494e-05 0 1.84731e-05 3.00203e-05 0 2.07675e-05 3.169e-05 0 2.33055e-05 3.33292e-05 0 2.60961e-05 3.49051e-05 0 2.91438e-05 3.63811e-05 0 3.24485e-05 3.77176e-05 0 3.6005e-05 3.88735e-05 0 3.98037e-05 3.98049e-05 0 4.38297e-05 4.04649e-05 0 0 9.45859e-06 0 3.68101e-07 9.49508e-06 0 7.40188e-07 9.59178e-06 0 1.12021e-06 9.75352e-06 0 1.5124e-06 9.98511e-06 0 1.92105e-06 1.02788e-05 0 2.3507e-06 1.06449e-05 0 2.80637e-06 1.10798e-05 0 3.29328e-06 1.15808e-05 0 3.81726e-06 1.21631e-05 0 4.38471e-06 1.28142e-05 0 5.00252e-06 1.35411e-05 0 5.67856e-06 1.4349e-05 0 6.42133e-06 1.52294e-05 0 7.2402e-06 1.61937e-05 0 8.14576e-06 1.7235e-05 0 9.1492e-06 1.83487e-05 0 1.0263e-05 1.95451e-05 0 1.15004e-05 2.08063e-05 0 1.28753e-05 2.21314e-05 0 1.44023e-05 2.35136e-05 0 1.60959e-05 2.49354e-05 0 1.79703e-05 2.63867e-05 0 2.00387e-05 2.7846e-05 0 2.23123e-05 2.92922e-05 0 2.48002e-05 3.06986e-05 0 2.75078e-05 3.20364e-05 0 3.04368e-05 3.32735e-05 0 3.35847e-05 3.43748e-05 0 3.69443e-05 3.5304e-05 0 4.05033e-05 3.60224e-05 0 4.42437e-05 3.64891e-05 0 0 9.05948e-06 0 4.31139e-07 9.09368e-06 0 8.66516e-07 9.18428e-06 0 1.31032e-06 9.33576e-06 0 1.76701e-06 9.55251e-06 0 2.24109e-06 9.82711e-06 0 2.73728e-06 1.0169e-05 0 3.26075e-06 1.05746e-05 0 3.8168e-06 1.10411e-05 0 4.4113e-06 1.15822e-05 0 5.05057e-06 1.21859e-05 0 5.74134e-06 1.28582e-05 0 6.4912e-06 1.36032e-05 0 7.30817e-06 1.44125e-05 0 8.20097e-06 1.52956e-05 0 9.17929e-06 1.62455e-05 0 1.02532e-05 1.72572e-05 0 1.14335e-05 1.83384e-05 0 1.27319e-05 1.94727e-05 0 1.41599e-05 2.06577e-05 0 1.57297e-05 2.1886e-05 0 1.74528e-05 2.3142e-05 0 1.93402e-05 2.44145e-05 0 2.14019e-05 2.56846e-05 0 2.36459e-05 2.69333e-05 0 2.6078e-05 2.81362e-05 0 2.87008e-05 2.92682e-05 0 3.15137e-05 3.0301e-05 0 3.45119e-05 3.12039e-05 0 3.76863e-05 3.19453e-05 0 4.1023e-05 3.24918e-05 0 4.45022e-05 3.28088e-05 0 0 8.5996e-06 0 4.89698e-07 8.63138e-06 0 9.83825e-07 8.71557e-06 0 1.48675e-06 8.85625e-06 0 2.0031e-06 9.05742e-06 0 2.53754e-06 9.31208e-06 0 3.0949e-06 9.6288e-06 0 3.68041e-06 1.0004e-05 0 4.29941e-06 1.04349e-05 0 4.95771e-06 1.09337e-05 0 5.66152e-06 1.14891e-05 0 6.41733e-06 1.2106e-05 0 7.23237e-06 1.27878e-05 0 8.11416e-06 1.35263e-05 0 9.07074e-06 1.43293e-05 0 1.01109e-05 1.51899e-05 0 1.12436e-05 1.61031e-05 0 1.24783e-05 1.70741e-05 0 1.3825e-05 1.80882e-05 0 1.52934e-05 1.91423e-05 0 1.68933e-05 2.02284e-05 0 1.86339e-05 2.13327e-05 0 2.05238e-05 2.24437e-05 0 2.25701e-05 2.35449e-05 0 2.47782e-05 2.46192e-05 0 2.71515e-05 2.56446e-05 0 2.96902e-05 2.65989e-05 0 3.23918e-05 2.74577e-05 0 3.52498e-05 2.81942e-05 0 3.82539e-05 2.87813e-05 0 4.13891e-05 2.91906e-05 0 4.46352e-05 2.93934e-05 0 0 8.08321e-06 0 5.44193e-07 8.11248e-06 0 1.09296e-06 8.19e-06 0 1.65081e-06 8.31949e-06 0 2.22249e-06 8.50453e-06 0 2.81277e-06 8.73861e-06 0 3.42655e-06 9.0294e-06 0 4.06908e-06 9.37343e-06 0 4.74569e-06 9.76805e-06 0 5.4621e-06 1.02239e-05 0 6.22434e-06 1.07305e-05 0 7.03864e-06 1.12921e-05 0 7.91184e-06 1.1911e-05 0 8.85095e-06 1.25797e-05 0 9.86334e-06 1.33043e-05 0 1.09569e-05 1.40782e-05 0 1.21396e-05 1.48966e-05 0 1.34197e-05 1.57628e-05 0 1.48055e-05 1.66638e-05 0 1.63051e-05 1.75957e-05 0 1.79266e-05 1.85507e-05 0 1.96769e-05 1.95168e-05 0 2.15625e-05 2.04822e-05 0 2.35883e-05 2.14327e-05 0 2.57576e-05 2.23531e-05 0 2.80715e-05 2.32236e-05 0 3.05287e-05 2.40251e-05 0 3.31248e-05 2.47361e-05 0 3.58523e-05 2.53339e-05 0 3.86998e-05 2.57951e-05 0 4.1652e-05 2.60961e-05 0 4.4689e-05 2.62133e-05 0 0 7.51472e-06 0 5.93923e-07 7.54141e-06 0 1.19252e-06 7.61208e-06 0 1.8004e-06 7.73009e-06 0 2.4224e-06 7.89862e-06 0 3.06331e-06 8.11166e-06 0 3.7281e-06 8.37604e-06 0 4.422e-06 8.68847e-06 0 5.15025e-06 9.04638e-06 0 5.91847e-06 9.45904e-06 0 6.73248e-06 9.91695e-06 0 7.59824e-06 1.04234e-05 0 8.52218e-06 1.09802e-05 0 9.51079e-06 1.15803e-05 0 1.05708e-05 1.22287e-05 0 1.17093e-05 1.29191e-05 0 1.29333e-05 1.36466e-05 0 1.425e-05 1.44136e-05 0 1.56663e-05 1.52083e-05 0 1.7189e-05 1.60266e-05 0 1.88242e-05 1.6861e-05 0 2.05776e-05 1.7701e-05 0 2.24536e-05 1.85352e-05 0 2.44554e-05 1.93513e-05 0 2.65845e-05 2.0136e-05 0 2.88405e-05 2.08716e-05 0 3.12205e-05 2.15416e-05 0 3.37191e-05 2.21276e-05 0 3.63278e-05 2.26101e-05 0 3.90349e-05 2.29695e-05 0 4.18249e-05 2.31861e-05 0 4.46788e-05 2.32406e-05 0 0 6.89881e-06 0 6.39017e-07 6.92287e-06 0 1.28278e-06 6.98657e-06 0 1.93595e-06 7.0929e-06 0 2.60341e-06 7.24466e-06 0 3.29e-06 7.43638e-06 0 4.00065e-06 7.67409e-06 0 4.74058e-06 7.95469e-06 0 5.51493e-06 8.27576e-06 0 6.32917e-06 8.64533e-06 0 7.18892e-06 9.05478e-06 0 8.09983e-06 9.50677e-06 0 9.06795e-06 1.00026e-05 0 1.00993e-05 1.05358e-05 0 1.12e-05 1.11102e-05 0 1.23764e-05 1.17202e-05 0 1.36346e-05 1.23611e-05 0 1.49808e-05 1.30342e-05 0 1.64209e-05 1.37291e-05 0 1.79603e-05 1.44418e-05 0 1.96039e-05 1.51652e-05 0 2.13557e-05 1.58902e-05 0 2.32189e-05 1.6606e-05 0 2.51952e-05 1.73022e-05 0 2.72845e-05 1.7967e-05 0 2.94853e-05 1.8585e-05 0 3.17936e-05 1.91419e-05 0 3.42031e-05 1.96222e-05 0 3.67047e-05 2.00092e-05 0 3.92865e-05 2.02867e-05 0 4.19336e-05 2.04383e-05 0 4.46275e-05 2.04483e-05 0 0 6.24006e-06 0 6.79754e-07 6.26146e-06 0 1.3643e-06 6.31811e-06 0 2.05833e-06 6.41264e-06 0 2.76675e-06 6.5475e-06 0 3.4944e-06 6.71775e-06 0 4.2462e-06 6.92866e-06 0 5.02729e-06 7.1774e-06 0 5.84273e-06 7.46169e-06 0 6.69782e-06 7.78845e-06 0 7.59796e-06 8.14994e-06 0 8.54853e-06 8.5483e-06 0 9.55519e-06 8.9844e-06 0 1.06235e-05 9.45248e-06 0 1.1759e-05 9.95547e-06 0 1.29675e-05 1.04882e-05 0 1.42542e-05 1.10465e-05 0 1.56245e-05 1.16307e-05 0 1.70833e-05 1.22321e-05 0 1.86348e-05 1.28466e-05 0 2.02829e-05 1.34677e-05 0 2.20304e-05 1.40875e-05 0 2.38791e-05 1.46964e-05 0 2.58295e-05 1.52853e-05 0 2.78807e-05 1.58441e-05 0 3.00299e-05 1.63593e-05 0 3.22723e-05 1.6819e-05 0 3.46009e-05 1.72099e-05 0 3.70064e-05 1.75181e-05 0 3.9477e-05 1.77301e-05 0 4.19979e-05 1.78325e-05 0 4.45519e-05 1.78126e-05 0 0 5.54324e-06 0 7.15178e-07 5.56196e-06 0 1.43516e-06 5.61151e-06 0 2.16467e-06 5.69418e-06 0 2.90859e-06 5.81206e-06 0 3.67177e-06 5.96081e-06 0 4.45908e-06 6.14493e-06 0 5.27557e-06 6.36188e-06 0 6.12621e-06 6.60961e-06 0 7.01615e-06 6.89396e-06 0 7.95056e-06 7.20814e-06 0 8.93457e-06 7.55383e-06 0 9.97349e-06 7.93158e-06 0 1.10725e-05 8.33633e-06 0 1.22366e-05 8.77028e-06 0 1.3471e-05 9.22881e-06 0 1.47804e-05 9.70826e-06 0 1.61693e-05 1.02085e-05 0 1.76417e-05 1.07219e-05 0 1.92011e-05 1.12448e-05 0 2.08504e-05 1.17713e-05 0 2.25915e-05 1.22949e-05 0 2.44251e-05 1.28067e-05 0 2.63508e-05 1.32992e-05 0 2.83669e-05 1.37639e-05 0 3.04697e-05 1.41891e-05 0 3.26539e-05 1.45649e-05 0 3.49121e-05 1.48802e-05 0 3.72348e-05 1.51233e-05 0 3.96104e-05 1.52834e-05 0 4.20246e-05 1.53494e-05 0 4.44611e-05 1.53111e-05 0 0 4.81314e-06 0 7.46156e-07 4.82918e-06 0 1.49713e-06 4.87162e-06 0 2.25762e-06 4.9424e-06 0 3.03253e-06 5.0433e-06 0 3.82666e-06 5.17056e-06 0 4.64484e-06 5.32798e-06 0 5.49205e-06 5.51332e-06 0 6.37315e-06 5.72478e-06 0 7.29312e-06 5.96722e-06 0 8.25697e-06 6.23479e-06 0 9.26956e-06 6.5288e-06 0 1.03359e-05 6.84957e-06 0 1.14608e-05 7.19274e-06 0 1.26489e-05 7.55995e-06 0 1.39048e-05 7.9472e-06 0 1.52327e-05 8.35127e-06 0 1.66363e-05 8.77172e-06 0 1.81192e-05 9.20224e-06 0 1.9684e-05 9.63942e-06 0 2.13327e-05 1.00782e-05 0 2.30665e-05 1.0513e-05 0 2.48854e-05 1.09363e-05 0 2.67882e-05 1.13419e-05 0 2.87724e-05 1.17224e-05 0 3.08338e-05 1.20683e-05 0 3.29667e-05 1.23713e-05 0 3.51633e-05 1.26222e-05 0 3.74142e-05 1.28117e-05 0 3.97078e-05 1.29307e-05 0 4.20305e-05 1.29706e-05 0 4.43668e-05 1.29233e-05 0 0 4.05445e-06 0 7.72414e-07 4.0678e-06 0 1.54964e-06 4.10313e-06 0 2.33637e-06 4.16205e-06 0 3.13749e-06 4.246e-06 0 3.95777e-06 4.35184e-06 0 4.80197e-06 4.48268e-06 0 5.67503e-06 4.63664e-06 0 6.58168e-06 4.81217e-06 0 7.52679e-06 5.01321e-06 0 8.51517e-06 5.23488e-06 0 9.55148e-06 5.47818e-06 0 1.06405e-05 5.74327e-06 0 1.17866e-05 6.0265e-06 0 1.29942e-05 6.32906e-06 0 1.42674e-05 6.6476e-06 0 1.56099e-05 6.97939e-06 0 1.7025e-05 7.32385e-06 0 1.85156e-05 7.67582e-06 0 2.00837e-05 8.03236e-06 0 2.17307e-05 8.38916e-06 0 2.34572e-05 8.74182e-06 0 2.52625e-05 9.08383e-06 0 2.71449e-05 9.4102e-06 0 2.91013e-05 9.71506e-06 0 3.1127e-05 9.99047e-06 0 3.32161e-05 1.02298e-05 0 3.53606e-05 1.04257e-05 0 3.7551e-05 1.05707e-05 0 3.9776e-05 1.06576e-05 0 4.20226e-05 1.06796e-05 0 4.42758e-05 1.06303e-05 0 0 3.27204e-06 0 7.93603e-07 3.28271e-06 0 1.592e-06 3.31094e-06 0 2.39989e-06 3.35801e-06 0 3.22212e-06 3.42507e-06 0 4.06343e-06 3.50958e-06 0 4.92854e-06 3.61401e-06 0 5.82231e-06 3.73682e-06 0 6.7494e-06 3.87676e-06 0 7.71454e-06 4.0369e-06 0 8.72242e-06 4.21333e-06 0 9.77751e-06 4.40681e-06 0 1.08843e-05 4.61737e-06 0 1.20471e-05 4.8421e-06 0 1.32698e-05 5.08184e-06 0 1.45563e-05 5.33389e-06 0 1.59099e-05 5.59605e-06 0 1.73335e-05 5.86771e-06 0 1.88294e-05 6.14481e-06 0 2.03994e-05 6.42494e-06 0 2.20442e-05 6.70461e-06 0 2.3764e-05 6.98039e-06 0 2.55576e-05 7.24703e-06 0 2.74228e-05 7.50064e-06 0 2.93561e-05 7.7366e-06 0 3.13527e-05 7.94867e-06 0 3.34062e-05 8.13169e-06 0 3.55087e-05 8.27999e-06 0 3.76507e-05 8.38774e-06 0 3.98211e-05 8.44948e-06 0 4.20072e-05 8.45996e-06 0 4.41948e-05 8.41437e-06 0 0 2.47064e-06 0 8.10382e-07 2.47863e-06 0 1.62555e-06 2.49979e-06 0 2.45018e-06 2.53505e-06 0 3.2891e-06 2.58527e-06 0 4.14703e-06 2.64855e-06 0 5.02864e-06 2.72672e-06 0 5.93874e-06 2.8186e-06 0 6.8819e-06 2.92325e-06 0 7.86278e-06 3.04293e-06 0 8.88593e-06 3.17471e-06 0 9.95568e-06 3.31911e-06 0 1.10764e-05 3.47613e-06 0 1.2252e-05 3.64357e-06 0 1.34865e-05 3.822e-06 0 1.47831e-05 4.0094e-06 0 1.61451e-05 4.20409e-06 0 1.7575e-05 4.40554e-06 0 1.90748e-05 4.61074e-06 0 2.06457e-05 4.81786e-06 0 2.22884e-05 5.02426e-06 0 2.40023e-05 5.22741e-06 0 2.57862e-05 5.42334e-06 0 2.76374e-05 5.60922e-06 0 2.95522e-05 5.78162e-06 0 3.15255e-05 5.93592e-06 0 3.35508e-05 6.06835e-06 0 3.56201e-05 6.17474e-06 0 3.77239e-05 6.25085e-06 0 3.98514e-05 6.29272e-06 0 4.19902e-05 6.29654e-06 0 4.41266e-05 6.25886e-06 0 0 1.65497e-06 0 8.2214e-07 1.66029e-06 0 1.64906e-06 1.67439e-06 0 2.48541e-06 1.69787e-06 0 3.33602e-06 1.73132e-06 0 4.20557e-06 1.77345e-06 0 5.09871e-06 1.82548e-06 0 6.0202e-06 1.88663e-06 0 6.97457e-06 1.95624e-06 0 7.9664e-06 2.03582e-06 0 9.00015e-06 2.12341e-06 0 1.00801e-05 2.21933e-06 0 1.12103e-05 2.32357e-06 0 1.23949e-05 2.43467e-06 0 1.36373e-05 2.55296e-06 0 1.49409e-05 2.67711e-06 0 1.63085e-05 2.80598e-06 0 1.77426e-05 2.93918e-06 0 1.92447e-05 3.07474e-06 0 2.08161e-05 3.2114e-06 0 2.2457e-05 3.34741e-06 0 2.41666e-05 3.4811e-06 0 2.59435e-05 3.60982e-06 0 2.77847e-05 3.7317e-06 0 2.96864e-05 3.84448e-06 0 3.16432e-05 3.94512e-06 0 3.36486e-05 4.03114e-06 0 3.56947e-05 4.09981e-06 0 3.77719e-05 4.14836e-06 0 3.98695e-05 4.1742e-06 0 4.19755e-05 4.17488e-06 0 4.40764e-05 4.14815e-06 0 0 8.29869e-07 0 8.29186e-07 8.32531e-07 0 1.66314e-06 8.39572e-07 0 2.50652e-06 8.51309e-07 0 3.36412e-06 8.6802e-07 0 4.24063e-06 8.8907e-07 0 5.14067e-06 9.1506e-07 0 6.06897e-06 9.45597e-07 0 7.03003e-06 9.80359e-07 0 8.02838e-06 1.02008e-06 0 9.06845e-06 1.0638e-06 0 1.01544e-05 1.11165e-06 0 1.12904e-05 1.16364e-06 0 1.24802e-05 1.21902e-06 0 1.37273e-05 1.27797e-06 0 1.5035e-05 1.3398e-06 0 1.64059e-05 1.40396e-06 0 1.78423e-05 1.47022e-06 0 1.93459e-05 1.53763e-06 0 2.09174e-05 1.60553e-06 0 2.25571e-05 1.67305e-06 0 2.4264e-05 1.73937e-06 0 2.60366e-05 1.80315e-06 0 2.78717e-05 1.86348e-06 0 2.97655e-05 1.91922e-06 0 3.17124e-05 1.96887e-06 0 3.3706e-05 2.0112e-06 0 3.57381e-05 2.04486e-06 0 3.77994e-05 2.06848e-06 0 3.98792e-05 2.08078e-06 0 4.19656e-05 2.08056e-06 0 4.40454e-05 2.06671e-06 0 0 -0 0 8.31847e-07 6.55324e-21 0 1.66846e-06 -0 0 2.51449e-06 -2.76643e-20 0 3.37474e-06 -0 0 4.25387e-06 -0 0 5.15651e-06 -1.68094e-20 0 6.08738e-06 2.06707e-20 0 7.05096e-06 -0 0 8.05178e-06 -0 0 9.09422e-06 -8.77018e-20 0 1.01824e-05 1.79796e-20 0 1.13206e-05 1.43e-19 0 1.25123e-05 1.69951e-20 0 1.37612e-05 -0 0 1.50704e-05 -0 0 1.64426e-05 -2.03234e-19 0 1.78799e-05 -0 0 1.93839e-05 -0 0 2.09555e-05 -0 0 2.25947e-05 1.50379e-19 0 2.43007e-05 2.97061e-20 0 2.60716e-05 -0 0 2.79044e-05 -0 0 2.97951e-05 -0 0 3.17384e-05 -0 0 3.37274e-05 -7.42134e-19 0 3.57542e-05 -0 0 3.78096e-05 2.86563e-18 0 3.98827e-05 -0 0 4.19617e-05 8.20731e-19 0 4.40336e-05 -0 0 </DataArray> 
</PointData> 
<Points> 
<DataArray type="Float32" NumberOfComponents="3"> 