<?xml version="1.0"?> 
<VTKFile type="StructuredGrid" version="0.1"> 
<StructuredGrid WholeExtent="0 31 0 31 0 0"> 
<Piece Extent="0 31 0 31 0 0"> 
<PointData>
<DataArray type="Float32" Name="B" format="ascii" NumberOfComponents="3"> 
0.0264032 0.0184326 0 0.0243601 -0.000352139 0 0.0228234 -6.56274e-05 0 0.0227118 9.75738e-06 0 0.0230781 3.37525e-05 0 0.0235834 3.89827e-05 0 0.0240863 3.63437e-05 0 0.0245269 3.05795e-05 0 0.0248848 2.40374e-05 0 0.0251601 1.80112e-05 0 0.0253627 1.28989e-05 0 0.0255059 8.86193e-06 0 0.0256032 5.82806e-06 0 0.0256665 3.63203e-06 0 0.0257051 2.08573e-06 0 0.0257264 1.01404e-06 0 0.0257352 2.71992e-07 0 0.0257352 -2.56532e-07 0 0.0257283 -6.57135e-07 0 0.025716 -9.8801e-07 0 0.0256988 -1.28738e-06 0 0.0256769 -1.57773e-06 0 0.0256504 -1.86928e-06 0 0.025619 -2.16368e-06 0 0.0255824 -2.45685e-06 0 0.02554 -2.76127e-06 0 0.0254901 -3.13093e-06 0 0.0254279 -3.7376e-06 0 0.0253408 -5.09271e-06 0 0.0251892 -9.1798e-06 0 0.0247685 -3.42243e-05 0 0.00895941 -0.00691179 0 0.000734372 0.00317106 0 -0.00041332 1.35137e-05 0 -0.000418061 -3.70182e-06 0 -0.000422573 -3.2882e-06 0 -0.000431624 -2.46481e-06 0 -0.000442001 -1.81539e-06 0 -0.000451784 -1.31366e-06 0 -0.000460107 -9.25185e-07 0 -0.000466717 -6.2771e-07 0 -0.0004717 -4.1471e-07 0 -0.000475286 -2.60169e-07 0 -0.000477764 -1.54102e-07 0 -0.000479404 -8.4457e-08 0 -0.000480438 -4.08632e-08 0 -0.000481046 -1.50702e-08 0 -0.000481363 -8.76077e-10 0 -0.000481483 6.12366e-09 0 -0.000481467 8.99771e-09 0 -0.000481354 9.7301e-09 0 -0.000481165 9.50717e-09 0 -0.000480912 9.00113e-09 0 -0.000480599 8.5342e-09 0 -0.000480225 8.18258e-09 0 -0.000479791 7.83498e-09 0 -0.000479299 7.12437e-09 0 -0.000478751 5.53032e-09 0 -0.00047815 2.07177e-09 0 -0.000477484 -5.46565e-09 0 -0.000476694 -2.492e-08 0 -0.000475559 -1.06419e-07 0 -0.000473209 -1.53946e-06 0 0.000812254 0.00803503 0 7.48964e-05 0.00799694 0 2.43663e-05 2.27956e-05 0 1.26197e-05 5.39764e-07 0 5.33583e-06 -1.79815e-06 0 2.58407e-06 -1.69316e-06 0 1.4018e-06 -1.32528e-06 0 8.63071e-07 -9.81146e-07 0 6.28546e-07 -6.99801e-07 0 5.47793e-07 -4.80096e-07 0 5.43587e-07 -3.19929e-07 0 5.74484e-07 -2.03233e-07 0 6.17176e-07 -1.22318e-07 0 6.59498e-07 -6.86239e-08 0 6.95934e-07 -3.4641e-08 0 7.24742e-07 -1.43033e-08 0 7.46159e-07 -2.99168e-09 0 7.6131e-07 2.61291e-09 0 7.71583e-07 4.85236e-09 0 7.78302e-07 5.26136e-09 0 7.82585e-07 4.77112e-09 0 7.85307e-07 3.925e-09 0 7.8712e-07 3.00959e-09 0 7.88495e-07 2.14894e-09 0 7.89782e-07 1.37772e-09 0 7.91289e-07 5.88765e-10 0 7.93391e-07 -3.25918e-10 0 7.96738e-07 -1.72246e-09 0 8.02685e-07 -4.79291e-09 0 8.13813e-07 -1.47054e-08 0 8.20284e-07 -6.05428e-08 0 3.67523e-07 -1.28724e-07 0 0.000277868 0.00411655 0 -7.59702e-05 0.00862692 0 3.47904e-06 1.39584e-05 0 8.95218e-06 3.24618e-06 0 4.55066e-06 -5.19194e-07 0 2.14583e-06 -1.12019e-06 0 9.66011e-07 -1.05027e-06 0 3.78913e-07 -8.47165e-07 0 9.32702e-08 -6.38663e-07 0 -3.17745e-08 -4.58007e-07 0 -7.24371e-08 -3.17323e-07 0 -6.98497e-08 -2.0995e-07 0 -4.81556e-08 -1.32398e-07 0 -2.07369e-08 -7.88896e-08 0 5.58591e-09 -4.36056e-08 0 2.78382e-08 -2.14602e-08 0 4.52018e-08 -8.35651e-09 0 5.7962e-08 -1.21898e-09 0 6.68761e-08 2.21707e-09 0 7.2817e-08 3.49875e-09 0 7.65946e-08 3.60463e-09 0 7.88813e-08 3.13607e-09 0 8.01973e-08 2.43474e-09 0 8.09244e-08 1.67038e-09 0 8.13322e-08 9.1281e-10 0 8.16092e-08 7.13481e-11 0 8.18911e-08 -9.65675e-10 0 8.22639e-08 -2.5861e-09 0 8.253e-08 -5.98252e-09 0 7.97649e-08 -1.50177e-08 0 4.36774e-08 -3.51865e-08 0 -1.18972e-07 1.07103e-07 0 0.000124814 0.00255987 0 -0.000115619 0.00830681 0 -2.27549e-06 6.2072e-06 0 5.57836e-06 3.93368e-06 0 3.88613e-06 4.04389e-07 0 2.08458e-06 -6.09945e-07 0 1.02454e-06 -7.8326e-07 0 4.45264e-07 -7.09331e-07 0 1.39436e-07 -5.70998e-07 0 -1.16324e-08 -4.29191e-07 0 -7.72768e-08 -3.0868e-07 0 -9.60833e-08 -2.11615e-07 0 -9.14941e-08 -1.38519e-07 0 -7.70041e-08 -8.62096e-08 0 -5.99917e-08 -5.04784e-08 0 -4.41431e-08 -2.71923e-08 0 -3.0982e-08 -1.27847e-08 0 -2.08399e-08 -4.44767e-09 0 -1.34556e-08 -2.60589e-11 0 -8.33097e-09 2.00839e-09 0 -4.92494e-09 2.65598e-09 0 -2.74931e-09 2.55609e-09 0 -1.40552e-09 2.09081e-09 0 -5.89949e-10 1.46589e-09 0 -8.51141e-11 7.80342e-10 0 2.53503e-10 -3.23754e-11 0 4.87754e-10 -1.06276e-09 0 5.1383e-10 -2.63331e-09 0 -4.69289e-10 -5.57063e-09 0 -7.0086e-09 -1.11304e-08 0 -4.07483e-08 -8.84527e-09 0 -4.85558e-08 7.49809e-08 0 6.72374e-05 0.00176469 0 -0.000124742 0.00767629 0 -2.93345e-06 2.26654e-06 0 3.05022e-06 3.48424e-06 0 3.0953e-06 9.35754e-07 0 1.94833e-06 -1.99387e-07 0 1.07819e-06 -5.38734e-07 0 5.45232e-07 -5.72301e-07 0 2.39968e-07 -4.97757e-07 0 7.45991e-08 -3.9326e-07 0 -8.96832e-09 -2.93217e-07 0 -4.49107e-08 -2.07456e-07 0 -5.48773e-08 -1.40015e-07 0 -5.18549e-08 -9.00614e-08 0 -4.33736e-08 -5.48762e-08 0 -3.35648e-08 -3.12392e-08 0 -2.44844e-08 -1.61191e-08 0 -1.69706e-08 -7.00222e-09 0 -1.1192e-08 -1.87859e-09 0 -6.98702e-09 7.25746e-10 0 -4.06438e-09 1.8038e-09 0 -2.11217e-09 2.01023e-09 0 -8.51639e-10 1.75089e-09 0 -5.88136e-11 1.25646e-09 0 4.2925e-10 6.48566e-10 0 7.11426e-10 -1.11328e-10 0 7.82178e-10 -1.07688e-09 0 3.96111e-10 -2.4498e-09 0 -1.53585e-09 -4.55407e-09 0 -9.13796e-09 -6.43977e-09 0 -3.00316e-08 4.62023e-09 0 -6.35342e-09 3.88218e-08 0 4.11535e-05 0.00129624 0 -0.000124356 0.0069394 0 -2.43187e-06 5.10421e-07 0 1.4499e-06 2.68014e-06 0 2.30453e-06 1.1441e-06 0 1.72013e-06 9.58066e-08 0 1.06693e-06 -3.30307e-07 0 6.05795e-07 -4.43918e-07 0 3.16887e-07 -4.23361e-07 0 1.46571e-07 -3.52774e-07 0 5.07455e-08 -2.72484e-07 0 1.10331e-09 -1.98404e-07 0 -2.13447e-08 -1.37432e-07 0 -2.8575e-08 -9.07478e-08 0 -2.79509e-08 -5.6952e-08 0 -2.38417e-08 -3.36652e-08 0 -1.86996e-08 -1.83745e-08 0 -1.37816e-08 -8.87237e-09 0 -9.63091e-09 -3.31987e-09 0 -6.39029e-09 -3.26067e-10 0 -3.99981e-09 1.06977e-09 0 -2.31494e-09 1.51717e-09 0 -1.17312e-09 1.43045e-09 0 -4.29065e-10 1.0546e-09 0 2.58844e-11 5.27493e-10 0 2.4766e-10 -1.59722e-10 0 1.7944e-10 -1.01482e-09 0 -4.94382e-10 -2.09804e-09 0 -2.83274e-09 -3.27711e-09 0 -9.4552e-09 -2.53548e-09 0 -1.88866e-08 8.3823e-09 0 2.68253e-09 2.05934e-08 0 2.76542e-05 0.000990937 0 -0.000120994 0.00617156 0 -1.82558e-06 -2.29216e-07 0 5.5057e-07 1.91789e-06 0 1.62583e-06 1.13814e-06 0 1.45265e-06 2.8137e-07 0 1.00992e-06 -1.64857e-07 0 6.34307e-07 -3.29829e-07 0 3.73352e-07 -3.51411e-07 0 2.05819e-07 -3.09944e-07 0 1.02711e-07 -2.47869e-07 0 4.25332e-08 -1.85323e-07 0 9.60416e-09 -1.31297e-07 0 -6.63926e-09 -8.85799e-08 0 -1.31312e-08 -5.68795e-08 0 -1.43031e-08 -3.4558e-08 0 -1.28836e-08 -1.95876e-08 0 -1.04676e-08 -1.00665e-08 0 -7.91961e-09 -4.34421e-09 0 -5.65308e-09 -1.13563e-09 0 -3.81925e-09 4.66379e-10 0 -2.42949e-09 1.08817e-09 0 -1.4315e-09 1.13848e-09 0 -7.55698e-10 8.66664e-10 0 -3.45294e-10 4.20356e-10 0 -1.81892e-10 -1.80569e-10 0 -3.53188e-10 -8.97137e-10 0 -1.1748e-09 -1.66026e-09 0 -3.46079e-09 -2.03811e-09 0 -8.23724e-09 2.18346e-11 0 -1.07471e-08 7.77814e-09 0 3.73174e-09 1.20308e-08 0 1.9963e-05 0.00077617 0 -0.000116946 0.00540252 0 -1.33684e-06 -5.10499e-07 0 8.94259e-08 1.32202e-06 0 1.0963e-06 1.01667e-06 0 1.18416e-06 3.75735e-07 0 9.24339e-07 -4.34573e-08 0 6.37787e-07 -2.33474e-07 0 4.1218e-07 -2.84637e-07 0 2.53372e-07 -2.66611e-07 0 1.47144e-07 -2.20593e-07 0 7.92367e-08 -1.69006e-07 0 3.76914e-08 -1.22121e-07 0 1.3652e-08 -8.38782e-08 0 8.15839e-10 -5.48512e-08 0 -5.16771e-09 -3.40268e-08 0 -7.20142e-09 -1.98147e-08 0 -7.14591e-09 -1.06094e-08 0 -6.13695e-09 -4.95845e-09 0 -4.82515e-09 -1.70062e-09 0 -3.55159e-09 -1.83481e-13 0 -2.47049e-09 7.30258e-10 0 -1.63219e-09 8.81239e-10 0 -1.03822e-09 6.97103e-10 0 -6.79786e-10 3.28745e-10 0 -5.69052e-10 -1.79079e-10 0 -8.03823e-10 -7.47395e-10 0 -1.64435e-09 -1.21231e-09 0 -3.56943e-09 -1.02236e-09 0 -6.45004e-09 1.35145e-09 0 -5.66828e-09 5.9693e-09 0 3.10515e-09 7.74983e-09 0 1.52727e-05 0.000615782 0 -0.000113053 0.00464385 0 -9.85756e-07 -5.82933e-07 0 -1.31455e-07 8.92858e-07 0 7.11129e-07 8.49257e-07 0 9.42757e-07 4.0231e-07 0 8.27587e-07 3.74427e-08 0 6.24435e-07 -1.56044e-07 0 4.36775e-07 -2.24761e-07 0 2.90351e-07 -2.24173e-07 0 1.84111e-07 -1.91684e-07 0 1.10845e-07 -1.50183e-07 0 6.24175e-08 -1.10409e-07 0 3.18126e-08 -7.69825e-08 0 1.34778e-08 -5.10887e-08 0 3.24231e-09 -3.221e-08 0 -1.88996e-09 -1.91378e-08 0 -3.98179e-09 -1.05458e-08 0 -4.39229e-09 -5.18455e-09 0 -3.97458e-09 -2.02958e-09 0 -3.23543e-09 -3.31278e-10 0 -2.45577e-09 4.45299e-10 0 -1.77807e-09 6.61347e-10 0 -1.26802e-09 5.4765e-10 0 -9.59108e-10 2.51851e-10 0 -8.86656e-10 -1.62582e-10 0 -1.14313e-09 -5.88373e-10 0 -1.90961e-09 -8.08562e-10 0 -3.37017e-09 -2.89336e-10 0 -4.83379e-09 1.84988e-09 0 -2.94523e-09 4.22319e-09 0 2.4139e-09 5.32541e-09 0 1.22182e-05 0.000490037 0 -0.000109622 0.00389922 0 -7.37118e-07 -5.57033e-07 0 -2.24928e-07 5.96137e-07 0 4.41212e-07 6.76024e-07 0 7.37576e-07 3.82457e-07 0 7.30074e-07 8.3474e-08 0 6.0057e-07 -9.72353e-08 0 4.50501e-07 -1.72695e-07 0 3.18446e-07 -1.83606e-07 0 2.14393e-07 -1.61943e-07 0 1.3766e-07 -1.29462e-07 0 8.38397e-08 -9.66047e-08 0 4.77866e-08 -6.82069e-08 0 2.47564e-08 -4.58063e-08 0 1.08233e-08 -2.92477e-08 0 2.95893e-09 -1.76441e-08 0 -1.04929e-09 -9.9274e-09 0 -2.74167e-09 -5.05062e-09 0 -3.14189e-09 -2.1361e-09 0 -2.89932e-09 -5.32037e-10 0 -2.40563e-09 2.32597e-10 0 -1.88466e-09 4.7994e-10 0 -1.45899e-09 4.19434e-10 0 -1.19854e-09 1.89072e-10 0 -1.15503e-09 -1.36931e-10 0 -1.40399e-09 -4.37556e-10 0 -2.03779e-09 -4.82727e-10 0 -3.01251e-09 1.63906e-10 0 -3.47747e-09 1.84974e-09 0 -1.43449e-09 2.87236e-09 0 1.83696e-09 3.80713e-09 0 1.01706e-05 0.000387314 0 -0.000106758 0.00316873 0 -5.64217e-07 -4.8417e-07 0 -2.56269e-07 3.93621e-07 0 2.5858e-07 5.16087e-07 0 5.72877e-07 3.33704e-07 0 6.40619e-07 1.01526e-07 0 5.72188e-07 -5.5337e-08 0 4.5654e-07 -1.28491e-07 0 3.39101e-07 -1.45441e-07 0 2.38495e-07 -1.31958e-07 0 1.59725e-07 -1.07362e-07 0 1.01806e-07 -8.11277e-08 0 6.13613e-08 -5.78707e-08 0 3.44428e-08 -3.92352e-08 0 1.73978e-08 -2.53002e-08 0 7.20657e-09 -1.54397e-08 0 1.54982e-09 -8.82093e-09 0 -1.25586e-09 -4.59662e-09 0 -2.37371e-09 -2.04243e-09 0 -2.57204e-09 -6.13715e-10 0 -2.33609e-09 8.72154e-11 0 -1.9591e-09 3.35205e-10 0 -1.61214e-09 3.11508e-10 0 -1.39537e-09 1.38456e-10 0 -1.3712e-09 -1.07722e-10 0 -1.59256e-09 -3.06813e-10 0 -2.07056e-09 -2.46129e-10 0 -2.61701e-09 3.88181e-10 0 -2.45764e-09 1.60358e-09 0 -6.25422e-10 1.90834e-09 0 1.42685e-09 2.75276e-09 0 8.76752e-06 0.000300311 0 -0.000104486 0.00245082 0 -4.46105e-07 -3.88666e-07 0 -2.59814e-07 2.54766e-07 0 1.38923e-07 3.75574e-07 0 4.47631e-07 2.68561e-07 0 5.64921e-07 9.83676e-08 0 5.44127e-07 -2.78212e-08 0 4.57732e-07 -9.15411e-08 0 3.53695e-07 -1.09817e-07 0 2.56948e-07 -1.02103e-07 0 1.77143e-07 -8.42994e-08 0 1.16227e-07 -6.43542e-08 0 7.2378e-08 -4.62808e-08 0 4.23725e-08 -3.16093e-08 0 2.2822e-08 -2.05361e-08 0 1.07387e-08 -1.26405e-08 0 3.73063e-09 -7.30248e-09 0 5.3709e-12 -3.87007e-09 0 -1.70993e-09 -1.77664e-09 0 -2.27868e-09 -5.91838e-10 0 -2.26167e-09 1.22348e-12 0 -2.0086e-09 2.23326e-10 0 -1.73002e-09 2.21732e-10 0 -1.54993e-09 9.77327e-11 0 -1.53712e-09 -7.8963e-11 0 -1.72129e-09 -2.01706e-10 0 -2.04845e-09 -9.46655e-11 0 -2.2568e-09 4.43891e-10 0 -1.74261e-09 1.25938e-09 0 -2.03446e-10 1.23734e-09 0 1.15008e-09 1.956e-09 0 7.80413e-06 0.000224153 0 -0.000102798 0.00174312 0 -3.68095e-07 -2.82287e-07 0 -2.53286e-07 1.57289e-07 0 6.36262e-08 2.53654e-07 0 3.58397e-07 1.95084e-07 0 5.06309e-07 8.00608e-08 0 5.20072e-07 -1.16931e-08 0 4.56464e-07 -6.07175e-08 0 3.63463e-07 -7.65332e-08 0 2.70273e-07 -7.25625e-08 0 1.90054e-07 -6.05972e-08 0 1.27063e-07 -4.66204e-08 0 8.07296e-08 -3.37317e-08 0 4.84247e-08 -2.31632e-08 0 2.69867e-08 -1.51306e-08 0 1.3467e-08 -9.37042e-09 0 5.42636e-09 -5.45566e-09 0 9.94401e-10 -2.92485e-09 0 -1.1828e-09 -1.37177e-09 0 -2.03982e-09 -4.85549e-10 0 -2.19459e-09 -3.58472e-11 0 -2.03965e-09 1.38806e-10 0 -1.81549e-09 1.47023e-10 0 -1.66376e-09 6.45663e-11 0 -1.65666e-09 -5.28755e-11 0 -1.80379e-09 -1.22226e-10 0 -2.00461e-09 -1.46578e-11 0 -1.9704e-09 3.85476e-10 0 -1.27173e-09 8.90871e-10 0 1.12125e-11 7.64577e-10 0 9.70488e-10 1.31072e-09 0 7.15972e-06 0.000155394 0 -0.000101682 0.00104286 0 -3.20673e-07 -1.70812e-07 0 -2.45553e-07 8.52693e-08 0 1.98707e-08 1.46199e-07 0 3.01387e-07 1.17919e-07 0 4.6654e-07 5.17727e-08 0 5.02636e-07 -3.74454e-09 0 4.54573e-07 -3.45159e-08 0 3.694e-07 -4.51171e-08 0 2.78904e-07 -4.33661e-08 0 1.98588e-07 -3.64991e-08 0 1.34298e-07 -2.82279e-08 0 8.63428e-08 -2.05066e-08 0 5.25124e-08 -1.41318e-08 0 2.98115e-08 -9.26375e-09 0 1.53252e-08 -5.75972e-09 0 6.58666e-09 -3.37009e-09 0 1.67506e-09 -1.81983e-09 0 -8.16925e-10 -8.64725e-10 0 -1.87133e-09 -3.16875e-10 0 -2.14435e-09 -3.64954e-11 0 -2.05738e-09 7.4802e-11 0 -1.87103e-09 8.35726e-11 0 -1.73857e-09 3.66749e-11 0 -1.73381e-09 -3.00338e-11 0 -1.85177e-09 -6.40195e-11 0 -1.96291e-09 1.25722e-11 0 -1.77485e-09 2.56317e-10 0 -9.89757e-10 5.27367e-10 0 1.15157e-10 4.14871e-10 0 8.63028e-10 7.54835e-10 0 6.76276e-06 9.14373e-05 0 -0.000101126 0.000347115 0 -2.98197e-07 -5.71396e-08 0 -2.40828e-07 2.69795e-08 0 -2.1154e-10 4.77239e-08 0 2.73598e-07 3.94091e-08 0 4.46431e-07 1.78612e-08 0 4.9348e-07 -7.03473e-10 0 4.53306e-07 -1.11816e-08 0 3.72199e-07 -1.49013e-08 0 2.83153e-07 -1.44243e-08 0 2.02844e-07 -1.21886e-08 0 1.3793e-07 -9.45133e-09 0 8.91713e-08 -6.87995e-09 0 5.45782e-08 -4.74956e-09 0 3.12427e-08 -3.11888e-09 0 1.6269e-08 -1.94291e-09 0 7.17762e-09 -1.13956e-09 0 2.02291e-09 -6.17506e-10 0 -6.29024e-10 -2.95244e-10 0 -1.784e-09 -1.09926e-10 0 -2.11746e-09 -1.46933e-11 0 -2.06535e-09 2.35005e-11 0 -1.89843e-09 2.70743e-11 0 -1.77574e-09 1.18845e-11 0 -1.77167e-09 -9.70104e-12 0 -1.87365e-09 -1.97305e-11 0 -1.93835e-09 7.76127e-12 0 -1.67604e-09 8.93706e-11 0 -8.58058e-10 1.74272e-10 0 1.57097e-10 1.31357e-10 0 8.12633e-10 2.46606e-10 0 6.57281e-06 3.01874e-05 0 -0.000101126 -0.000347115 0 -2.98197e-07 5.71396e-08 0 -2.40828e-07 -2.69795e-08 0 -2.1154e-10 -4.77239e-08 0 2.73598e-07 -3.94091e-08 0 4.46431e-07 -1.78612e-08 0 4.9348e-07 7.03473e-10 0 4.53306e-07 1.11816e-08 0 3.72199e-07 1.49013e-08 0 2.83153e-07 1.44243e-08 0 2.02844e-07 1.21886e-08 0 1.3793e-07 9.45133e-09 0 8.91713e-08 6.87995e-09 0 5.45782e-08 4.74956e-09 0 3.12427e-08 3.11888e-09 0 1.6269e-08 1.94291e-09 0 7.17762e-09 1.13956e-09 0 2.02291e-09 6.17506e-10 0 -6.29024e-10 2.95244e-10 0 -1.784e-09 1.09926e-10 0 -2.11746e-09 1.46933e-11 0 -2.06535e-09 -2.35005e-11 0 -1.89843e-09 -2.70743e-11 0 -1.77574e-09 -1.18844e-11 0 -1.77167e-09 9.70068e-12 0 -1.87365e-09 1.97306e-11 0 -1.93835e-09 -7.76109e-12 0 -1.67604e-09 -8.93705e-11 0 -8.58059e-10 -1.74271e-10 0 1.57097e-10 -1.31357e-10 0 8.12633e-10 -2.46606e-10 0 6.57281e-06 -3.01874e-05 0 -0.000101682 -0.00104286 0 -3.20673e-07 1.70812e-07 0 -2.45553e-07 -8.52693e-08 0 1.98707e-08 -1.46199e-07 0 3.01387e-07 -1.17919e-07 0 4.6654e-07 -5.17727e-08 0 5.02636e-07 3.74454e-09 0 4.54573e-07 3.45159e-08 0 3.694e-07 4.51171e-08 0 2.78904e-07 4.33661e-08 0 1.98588e-07 3.64991e-08 0 1.34298e-07 2.82279e-08 0 8.63428e-08 2.05066e-08 0 5.25124e-08 1.41318e-08 0 2.98115e-08 9.26375e-09 0 1.53252e-08 5.75972e-09 0 6.58666e-09 3.37009e-09 0 1.67506e-09 1.81983e-09 0 -8.16925e-10 8.64725e-10 0 -1.87133e-09 3.16875e-10 0 -2.14435e-09 3.64954e-11 0 -2.05738e-09 -7.4802e-11 0 -1.87103e-09 -8.35726e-11 0 -1.73857e-09 -3.66749e-11 0 -1.73381e-09 3.00339e-11 0 -1.85177e-09 6.40195e-11 0 -1.96291e-09 -1.25722e-11 0 -1.77485e-09 -2.56317e-10 0 -9.89757e-10 -5.27367e-10 0 1.15157e-10 -4.1487e-10 0 8.63028e-10 -7.54835e-10 0 6.76276e-06 -9.14373e-05 0 -0.000102798 -0.00174312 0 -3.68095e-07 2.82287e-07 0 -2.53286e-07 -1.57289e-07 0 6.36262e-08 -2.53654e-07 0 3.58397e-07 -1.95084e-07 0 5.06309e-07 -8.00608e-08 0 5.20072e-07 1.16931e-08 0 4.56464e-07 6.07175e-08 0 3.63463e-07 7.65332e-08 0 2.70273e-07 7.25625e-08 0 1.90054e-07 6.05972e-08 0 1.27063e-07 4.66204e-08 0 8.07296e-08 3.37317e-08 0 4.84247e-08 2.31632e-08 0 2.69867e-08 1.51306e-08 0 1.3467e-08 9.37042e-09 0 5.42636e-09 5.45566e-09 0 9.94401e-10 2.92485e-09 0 -1.1828e-09 1.37177e-09 0 -2.03982e-09 4.85549e-10 0 -2.19459e-09 3.58472e-11 0 -2.03965e-09 -1.38806e-10 0 -1.81549e-09 -1.47023e-10 0 -1.66376e-09 -6.45663e-11 0 -1.65666e-09 5.28753e-11 0 -1.80379e-09 1.22225e-10 0 -2.00461e-09 1.46581e-11 0 -1.9704e-09 -3.85477e-10 0 -1.27173e-09 -8.9087e-10 0 1.12127e-11 -7.64577e-10 0 9.70488e-10 -1.31072e-09 0 7.15972e-06 -0.000155394 0 -0.000104486 -0.00245082 0 -4.46105e-07 3.88666e-07 0 -2.59814e-07 -2.54766e-07 0 1.38923e-07 -3.75574e-07 0 4.47631e-07 -2.68561e-07 0 5.64921e-07 -9.83676e-08 0 5.44127e-07 2.78212e-08 0 4.57732e-07 9.15411e-08 0 3.53695e-07 1.09817e-07 0 2.56948e-07 1.02103e-07 0 1.77143e-07 8.42994e-08 0 1.16227e-07 6.43542e-08 0 7.2378e-08 4.62808e-08 0 4.23725e-08 3.16093e-08 0 2.2822e-08 2.05361e-08 0 1.07387e-08 1.26405e-08 0 3.73063e-09 7.30248e-09 0 5.3709e-12 3.87007e-09 0 -1.70993e-09 1.77664e-09 0 -2.27868e-09 5.91838e-10 0 -2.26167e-09 -1.22351e-12 0 -2.0086e-09 -2.23326e-10 0 -1.73002e-09 -2.21732e-10 0 -1.54993e-09 -9.77327e-11 0 -1.53711e-09 7.89627e-11 0 -1.72129e-09 2.01706e-10 0 -2.04845e-09 9.46654e-11 0 -2.2568e-09 -4.43891e-10 0 -1.74261e-09 -1.25938e-09 0 -2.03446e-10 -1.23734e-09 0 1.15008e-09 -1.956e-09 0 7.80413e-06 -0.000224153 0 -0.000106758 -0.00316873 0 -5.64217e-07 4.8417e-07 0 -2.56269e-07 -3.93621e-07 0 2.5858e-07 -5.16087e-07 0 5.72877e-07 -3.33704e-07 0 6.40619e-07 -1.01526e-07 0 5.72188e-07 5.5337e-08 0 4.5654e-07 1.28491e-07 0 3.39101e-07 1.45441e-07 0 2.38495e-07 1.31958e-07 0 1.59725e-07 1.07362e-07 0 1.01806e-07 8.11277e-08 0 6.13613e-08 5.78707e-08 0 3.44428e-08 3.92352e-08 0 1.73978e-08 2.53002e-08 0 7.20657e-09 1.54397e-08 0 1.54982e-09 8.82093e-09 0 -1.25586e-09 4.59662e-09 0 -2.37371e-09 2.04243e-09 0 -2.57204e-09 6.13715e-10 0 -2.33609e-09 -8.72154e-11 0 -1.9591e-09 -3.35205e-10 0 -1.61214e-09 -3.11508e-10 0 -1.39537e-09 -1.38456e-10 0 -1.3712e-09 1.07722e-10 0 -1.59256e-09 3.06813e-10 0 -2.07056e-09 2.46129e-10 0 -2.61701e-09 -3.88181e-10 0 -2.45764e-09 -1.60358e-09 0 -6.25421e-10 -1.90835e-09 0 1.42685e-09 -2.75276e-09 0 8.76752e-06 -0.000300311 0 -0.000109622 -0.00389922 0 -7.37118e-07 5.57033e-07 0 -2.24928e-07 -5.96137e-07 0 4.41212e-07 -6.76024e-07 0 7.37576e-07 -3.82457e-07 0 7.30074e-07 -8.3474e-08 0 6.0057e-07 9.72353e-08 0 4.50501e-07 1.72695e-07 0 3.18446e-07 1.83606e-07 0 2.14393e-07 1.61943e-07 0 1.3766e-07 1.29462e-07 0 8.38397e-08 9.66047e-08 0 4.77866e-08 6.82069e-08 0 2.47564e-08 4.58063e-08 0 1.08233e-08 2.92477e-08 0 2.95893e-09 1.76441e-08 0 -1.04929e-09 9.9274e-09 0 -2.74167e-09 5.05062e-09 0 -3.14189e-09 2.1361e-09 0 -2.89932e-09 5.32037e-10 0 -2.40563e-09 -2.32597e-10 0 -1.88466e-09 -4.7994e-10 0 -1.45899e-09 -4.19434e-10 0 -1.19854e-09 -1.89072e-10 0 -1.15503e-09 1.36931e-10 0 -1.40399e-09 4.37556e-10 0 -2.03779e-09 4.82727e-10 0 -3.01251e-09 -1.63907e-10 0 -3.47747e-09 -1.84974e-09 0 -1.43449e-09 -2.87236e-09 0 1.83696e-09 -3.80713e-09 0 1.01706e-05 -0.000387314 0 -0.000113053 -0.00464385 0 -9.85756e-07 5.82933e-07 0 -1.31455e-07 -8.92858e-07 0 7.11129e-07 -8.49257e-07 0 9.42757e-07 -4.0231e-07 0 8.27587e-07 -3.74427e-08 0 6.24435e-07 1.56044e-07 0 4.36775e-07 2.24761e-07 0 2.90351e-07 2.24173e-07 0 1.84111e-07 1.91684e-07 0 1.10845e-07 1.50183e-07 0 6.24175e-08 1.10409e-07 0 3.18126e-08 7.69825e-08 0 1.34778e-08 5.10887e-08 0 3.24231e-09 3.221e-08 0 -1.88996e-09 1.91378e-08 0 -3.98179e-09 1.05458e-08 0 -4.39229e-09 5.18455e-09 0 -3.97458e-09 2.02958e-09 0 -3.23543e-09 3.31278e-10 0 -2.45577e-09 -4.45299e-10 0 -1.77807e-09 -6.61347e-10 0 -1.26802e-09 -5.4765e-10 0 -9.59108e-10 -2.51851e-10 0 -8.86655e-10 1.62582e-10 0 -1.14313e-09 5.88373e-10 0 -1.90961e-09 8.08562e-10 0 -3.37017e-09 2.89335e-10 0 -4.83379e-09 -1.84988e-09 0 -2.94523e-09 -4.22319e-09 0 2.4139e-09 -5.32541e-09 0 1.22182e-05 -0.000490037 0 -0.000116946 -0.00540252 0 -1.33684e-06 5.10499e-07 0 8.94259e-08 -1.32202e-06 0 1.0963e-06 -1.01667e-06 0 1.18416e-06 -3.75735e-07 0 9.24339e-07 4.34573e-08 0 6.37787e-07 2.33474e-07 0 4.1218e-07 2.84637e-07 0 2.53372e-07 2.66611e-07 0 1.47144e-07 2.20593e-07 0 7.92367e-08 1.69006e-07 0 3.76914e-08 1.22121e-07 0 1.3652e-08 8.38782e-08 0 8.15839e-10 5.48512e-08 0 -5.16771e-09 3.40268e-08 0 -7.20142e-09 1.98147e-08 0 -7.14591e-09 1.06094e-08 0 -6.13695e-09 4.95845e-09 0 -4.82515e-09 1.70062e-09 0 -3.55159e-09 1.8348e-13 0 -2.47049e-09 -7.30258e-10 0 -1.63219e-09 -8.81239e-10 0 -1.03822e-09 -6.97103e-10 0 -6.79786e-10 -3.28745e-10 0 -5.69053e-10 1.79079e-10 0 -8.03823e-10 7.47395e-10 0 -1.64435e-09 1.21231e-09 0 -3.56943e-09 1.02236e-09 0 -6.45004e-09 -1.35145e-09 0 -5.66828e-09 -5.9693e-09 0 3.10515e-09 -7.74983e-09 0 1.52727e-05 -0.000615782 0 -0.000120994 -0.00617156 0 -1.82558e-06 2.29216e-07 0 5.5057e-07 -1.91789e-06 0 1.62583e-06 -1.13814e-06 0 1.45265e-06 -2.8137e-07 0 1.00992e-06 1.64857e-07 0 6.34307e-07 3.29829e-07 0 3.73352e-07 3.51411e-07 0 2.05819e-07 3.09944e-07 0 1.02711e-07 2.47869e-07 0 4.25332e-08 1.85323e-07 0 9.60416e-09 1.31297e-07 0 -6.63926e-09 8.85799e-08 0 -1.31312e-08 5.68795e-08 0 -1.43031e-08 3.4558e-08 0 -1.28836e-08 1.95876e-08 0 -1.04676e-08 1.00665e-08 0 -7.91961e-09 4.34421e-09 0 -5.65308e-09 1.13563e-09 0 -3.81925e-09 -4.66379e-10 0 -2.42949e-09 -1.08817e-09 0 -1.4315e-09 -1.13848e-09 0 -7.55699e-10 -8.66664e-10 0 -3.45294e-10 -4.20355e-10 0 -1.81892e-10 1.80569e-10 0 -3.53189e-10 8.97137e-10 0 -1.1748e-09 1.66026e-09 0 -3.46079e-09 2.03811e-09 0 -8.23724e-09 -2.18346e-11 0 -1.07471e-08 -7.77814e-09 0 3.73174e-09 -1.20308e-08 0 1.9963e-05 -0.00077617 0 -0.000124356 -0.0069394 0 -2.43187e-06 -5.10421e-07 0 1.4499e-06 -2.68014e-06 0 2.30453e-06 -1.1441e-06 0 1.72013e-06 -9.58066e-08 0 1.06693e-06 3.30307e-07 0 6.05795e-07 4.43918e-07 0 3.16887e-07 4.23361e-07 0 1.46571e-07 3.52774e-07 0 5.07455e-08 2.72484e-07 0 1.10331e-09 1.98404e-07 0 -2.13447e-08 1.37432e-07 0 -2.8575e-08 9.07478e-08 0 -2.79509e-08 5.6952e-08 0 -2.38417e-08 3.36652e-08 0 -1.86996e-08 1.83745e-08 0 -1.37816e-08 8.87237e-09 0 -9.63091e-09 3.31987e-09 0 -6.39029e-09 3.26068e-10 0 -3.99981e-09 -1.06977e-09 0 -2.31494e-09 -1.51717e-09 0 -1.17312e-09 -1.43045e-09 0 -4.29065e-10 -1.0546e-09 0 2.58841e-11 -5.27493e-10 0 2.47661e-10 1.59723e-10 0 1.7944e-10 1.01482e-09 0 -4.94383e-10 2.09804e-09 0 -2.83274e-09 3.27711e-09 0 -9.45521e-09 2.53548e-09 0 -1.88866e-08 -8.3823e-09 0 2.68253e-09 -2.05934e-08 0 2.76542e-05 -0.000990937 0 -0.000124742 -0.00767629 0 -2.93345e-06 -2.26654e-06 0 3.05022e-06 -3.48424e-06 0 3.0953e-06 -9.35754e-07 0 1.94833e-06 1.99387e-07 0 1.07819e-06 5.38734e-07 0 5.45232e-07 5.72301e-07 0 2.39968e-07 4.97757e-07 0 7.45991e-08 3.9326e-07 0 -8.96832e-09 2.93217e-07 0 -4.49107e-08 2.07456e-07 0 -5.48773e-08 1.40015e-07 0 -5.18549e-08 9.00614e-08 0 -4.33736e-08 5.48762e-08 0 -3.35648e-08 3.12392e-08 0 -2.44844e-08 1.61191e-08 0 -1.69706e-08 7.00222e-09 0 -1.1192e-08 1.87859e-09 0 -6.98701e-09 -7.25746e-10 0 -4.06438e-09 -1.8038e-09 0 -2.11217e-09 -2.01023e-09 0 -8.51639e-10 -1.75089e-09 0 -5.88138e-11 -1.25646e-09 0 4.2925e-10 -6.48566e-10 0 7.11426e-10 1.11327e-10 0 7.8218e-10 1.07688e-09 0 3.96111e-10 2.4498e-09 0 -1.53585e-09 4.55407e-09 0 -9.13796e-09 6.43977e-09 0 -3.00316e-08 -4.62023e-09 0 -6.35342e-09 -3.88218e-08 0 4.11535e-05 -0.00129624 0 -0.000115619 -0.00830681 0 -2.27549e-06 -6.2072e-06 0 5.57836e-06 -3.93368e-06 0 3.88613e-06 -4.04389e-07 0 2.08458e-06 6.09945e-07 0 1.02454e-06 7.8326e-07 0 4.45264e-07 7.09331e-07 0 1.39436e-07 5.70998e-07 0 -1.16324e-08 4.29191e-07 0 -7.72768e-08 3.0868e-07 0 -9.60833e-08 2.11615e-07 0 -9.14941e-08 1.38519e-07 0 -7.70041e-08 8.62096e-08 0 -5.99917e-08 5.04784e-08 0 -4.41431e-08 2.71923e-08 0 -3.0982e-08 1.27847e-08 0 -2.08399e-08 4.44767e-09 0 -1.34556e-08 2.6059e-11 0 -8.33097e-09 -2.00839e-09 0 -4.92494e-09 -2.65598e-09 0 -2.74931e-09 -2.55609e-09 0 -1.40552e-09 -2.09081e-09 0 -5.8995e-10 -1.46589e-09 0 -8.51142e-11 -7.80342e-10 0 2.53503e-10 3.2374e-11 0 4.87755e-10 1.06276e-09 0 5.13829e-10 2.6333e-09 0 -4.69289e-10 5.57063e-09 0 -7.0086e-09 1.11304e-08 0 -4.07483e-08 8.84527e-09 0 -4.85558e-08 -7.49809e-08 0 6.72374e-05 -0.00176469 0 -7.59702e-05 -0.00862692 0 3.47904e-06 -1.39584e-05 0 8.95218e-06 -3.24618e-06 0 4.55066e-06 5.19194e-07 0 2.14583e-06 1.12019e-06 0 9.66011e-07 1.05027e-06 0 3.78913e-07 8.47165e-07 0 9.32702e-08 6.38663e-07 0 -3.17745e-08 4.58007e-07 0 -7.24371e-08 3.17323e-07 0 -6.98497e-08 2.0995e-07 0 -4.81556e-08 1.32398e-07 0 -2.07369e-08 7.88896e-08 0 5.58591e-09 4.36056e-08 0 2.78382e-08 2.14602e-08 0 4.52018e-08 8.35651e-09 0 5.7962e-08 1.21898e-09 0 6.68761e-08 -2.21707e-09 0 7.2817e-08 -3.49875e-09 0 7.65946e-08 -3.60463e-09 0 7.88813e-08 -3.13607e-09 0 8.01973e-08 -2.43474e-09 0 8.09244e-08 -1.67038e-09 0 8.13322e-08 -9.1281e-10 0 8.16092e-08 -7.13478e-11 0 8.18911e-08 9.65675e-10 0 8.22639e-08 2.5861e-09 0 8.253e-08 5.98252e-09 0 7.97649e-08 1.50177e-08 0 4.36774e-08 3.51865e-08 0 -1.18972e-07 -1.07103e-07 0 0.000124814 -0.00255987 0 7.48964e-05 -0.00799694 0 2.43663e-05 -2.27956e-05 0 1.26197e-05 -5.39764e-07 0 5.33583e-06 1.79815e-06 0 2.58407e-06 1.69316e-06 0 1.4018e-06 1.32528e-06 0 8.63071e-07 9.81146e-07 0 6.28546e-07 6.99801e-07 0 5.47793e-07 4.80096e-07 0 5.43587e-07 3.19929e-07 0 5.74484e-07 2.03233e-07 0 6.17176e-07 1.22318e-07 0 6.59498e-07 6.86239e-08 0 6.95934e-07 3.4641e-08 0 7.24742e-07 1.43033e-08 0 7.46159e-07 2.99168e-09 0 7.6131e-07 -2.61291e-09 0 7.71583e-07 -4.85236e-09 0 7.78302e-07 -5.26136e-09 0 7.82585e-07 -4.77112e-09 0 7.85307e-07 -3.925e-09 0 7.8712e-07 -3.00959e-09 0 7.88495e-07 -2.14894e-09 0 7.89782e-07 -1.37772e-09 0 7.91289e-07 -5.88766e-10 0 7.93391e-07 3.25919e-10 0 7.96738e-07 1.72246e-09 0 8.02685e-07 4.79291e-09 0 8.13813e-07 1.47054e-08 0 8.20284e-07 6.05428e-08 0 3.67523e-07 1.28724e-07 0 0.000277868 -0.00411655 0 0.000734372 -0.00317106 0 -0.00041332 -1.35137e-05 0 -0.000418061 3.70182e-06 0 -0.000422573 3.2882e-06 0 -0.000431624 2.46481e-06 0 -0.000442001 1.81539e-06 0 -0.000451784 1.31366e-06 0 -0.000460107 9.25185e-07 0 -0.000466717 6.2771e-07 0 -0.0004717 4.1471e-07 0 -0.000475286 2.60169e-07 0 -0.000477764 1.54102e-07 0 -0.000479404 8.4457e-08 0 -0.000480438 4.08632e-08 0 -0.000481046 1.50702e-08 0 -0.000481363 8.76077e-10 0 -0.000481483 -6.12366e-09 0 -0.000481467 -8.99771e-09 0 -0.000481354 -9.7301e-09 0 -0.000481165 -9.50717e-09 0 -0.000480912 -9.00113e-09 0 -0.000480599 -8.5342e-09 0 -0.000480225 -8.18258e-09 0 -0.000479791 -7.83498e-09 0 -0.000479299 -7.12437e-09 0 -0.000478751 -5.53032e-09 0 -0.00047815 -2.07177e-09 0 -0.000477484 5.46565e-09 0 -0.000476694 2.492e-08 0 -0.000475559 1.06419e-07 0 -0.000473209 1.53946e-06 0 0.000812254 -0.00803503 0 0.0264032 -0.0184326 0 0.0243601 0.000352139 0 0.0228234 6.56274e-05 0 0.0227118 -9.75738e-06 0 0.0230781 -3.37525e-05 0 0.0235834 -3.89827e-05 0 0.0240863 -3.63437e-05 0 0.0245269 -3.05795e-05 0 0.0248848 -2.40374e-05 0 0.0251601 -1.80112e-05 0 0.0253627 -1.28989e-05 0 0.0255059 -8.86193e-06 0 0.0256032 -5.82806e-06 0 0.0256665 -3.63203e-06 0 0.0257051 -2.08573e-06 0 0.0257264 -1.01404e-06 0 0.0257352 -2.71992e-07 0 0.0257352 2.56532e-07 0 0.0257283 6.57135e-07 0 0.025716 9.8801e-07 0 0.0256988 1.28738e-06 0 0.0256769 1.57773e-06 0 0.0256504 1.86928e-06 0 0.025619 2.16368e-06 0 0.0255824 2.45685e-06 0 0.02554 2.76127e-06 0 0.0254901 3.13093e-06 0 0.0254279 3.7376e-06 0 0.0253408 5.09271e-06 0 0.0251892 9.1798e-06 0 0.0247685 3.42243e-05 0 0.00895941 0.00691179 0 </DataArray> 
</PointData> 
<Points> 
<DataArray type="Float32" NumberOfComponents="3"> 