<?xml version="1.0"?> 
<VTKFile type="StructuredGrid" version="0.1"> 
<StructuredGrid WholeExtent="0 31 0 31 0 0"> 
<Piece Extent="0 31 0 31 0 0"> 
<PointData>
<DataArray type="Float32" Name="B" format="ascii" NumberOfComponents="3"> 
0.000667112 0.00246282 0 0.000253859 0.000133008 0 0.000133959 7.49354e-05 0 9.0429e-05 5.55644e-05 0 6.83341e-05 4.50706e-05 0 5.50268e-05 3.79499e-05 0 4.60628e-05 3.25214e-05 0 3.95144e-05 2.81344e-05 0 3.44351e-05 2.44948e-05 0 3.03146e-05 2.14052e-05 0 2.68677e-05 1.87672e-05 0 2.3916e-05 1.65377e-05 0 2.13475e-05 1.46035e-05 0 1.90869e-05 1.2952e-05 0 1.70786e-05 1.15315e-05 0 1.52828e-05 1.02933e-05 0 1.36675e-05 9.24188e-06 0 1.22071e-05 8.32458e-06 0 1.08806e-05 7.52944e-06 0 9.67007e-06 6.84902e-06 0 8.56011e-06 6.25503e-06 0 7.53751e-06 5.74706e-06 0 6.59026e-06 5.31114e-06 0 5.70802e-06 4.93475e-06 0 4.8813e-06 4.62259e-06 0 4.10143e-06 4.3586e-06 0 3.36068e-06 4.14152e-06 0 2.65159e-06 3.971e-06 0 1.96736e-06 3.83842e-06 0 1.30154e-06 3.74695e-06 0 6.47744e-07 3.69268e-06 0 0 3.67228e-06 0 -5.76325e-05 0.000307996 0 8.71794e-05 0.000202522 0 8.62819e-05 0.000116535 0 6.95312e-05 7.86671e-05 0 5.64325e-05 5.92173e-05 0 4.70472e-05 4.74345e-05 0 4.015e-05 3.93656e-05 0 3.48635e-05 3.33734e-05 0 3.06454e-05 2.87e-05 0 2.71623e-05 2.48916e-05 0 2.42116e-05 2.17299e-05 0 2.16598e-05 1.91104e-05 0 1.94205e-05 1.68619e-05 0 1.74343e-05 1.49567e-05 0 1.56573e-05 1.33247e-05 0 1.40574e-05 1.19051e-05 0 1.26093e-05 1.07007e-05 0 1.12923e-05 9.64995e-06 0 1.00895e-05 8.73868e-06 0 8.98623e-06 7.95819e-06 0 7.96996e-06 7.27622e-06 0 7.02969e-06 6.69236e-06 0 6.15535e-06 6.19077e-06 0 5.33818e-06 5.75728e-06 0 4.57006e-06 5.39739e-06 0 3.84352e-06 5.09278e-06 0 3.15178e-06 4.84212e-06 0 2.48832e-06 4.64509e-06 0 1.84711e-06 4.49184e-06 0 1.22239e-06 4.38606e-06 0 6.0848e-07 4.32328e-06 0 0 4.29967e-06 0 -4.78148e-05 0.000175284 0 1.44107e-05 0.000155682 0 3.99331e-05 0.000116301 0 4.36794e-05 8.62772e-05 0 4.08094e-05 6.66243e-05 0 3.66618e-05 5.35121e-05 0 3.26855e-05 4.42558e-05 0 2.91804e-05 3.73662e-05 0 2.61402e-05 3.20368e-05 0 2.34917e-05 2.7736e-05 0 2.11635e-05 2.41965e-05 0 1.90957e-05 2.12846e-05 0 1.72439e-05 1.8795e-05 0 1.55743e-05 1.6691e-05 0 1.40602e-05 1.48906e-05 0 1.26813e-05 1.33247e-05 0 1.14206e-05 1.19952e-05 0 1.02639e-05 1.08342e-05 0 9.19918e-06 9.82603e-06 0 8.21576e-06 8.96116e-06 0 7.30421e-06 8.20441e-06 0 6.45609e-06 7.55553e-06 0 5.66351e-06 6.9973e-06 0 4.91947e-06 6.51428e-06 0 4.21735e-06 6.11274e-06 0 3.55097e-06 5.77256e-06 0 2.91466e-06 5.49238e-06 0 2.30288e-06 5.27196e-06 0 1.71046e-06 5.10043e-06 0 1.13243e-06 4.98197e-06 0 5.63838e-07 4.91165e-06 0 0 4.8852e-06 0 -4.18765e-05 0.000125152 0 -8.96495e-06 0.000119837 0 1.27937e-05 0.000102214 0 2.27905e-05 8.33317e-05 0 2.59405e-05 6.77939e-05 0 2.59578e-05 5.592e-05 0 2.47118e-05 4.6881e-05 0 2.3026e-05 3.98748e-05 0 2.12442e-05 3.43392e-05 0 1.95044e-05 2.98255e-05 0 1.78571e-05 2.60898e-05 0 1.63177e-05 2.30057e-05 0 1.48868e-05 2.03633e-05 0 1.35595e-05 1.81252e-05 0 1.23289e-05 1.6206e-05 0 1.11875e-05 1.45334e-05 0 1.01282e-05 1.31099e-05 0 9.14385e-06 1.1864e-05 0 8.22782e-06 1.07798e-05 0 7.37364e-06 9.84756e-06 0 6.57528e-06 9.03033e-06 0 5.82704e-06 8.32819e-06 0 5.12331e-06 7.72309e-06 0 4.45896e-06 7.19872e-06 0 3.82895e-06 6.76213e-06 0 3.22849e-06 6.39182e-06 0 2.65305e-06 6.08652e-06 0 2.09813e-06 5.84611e-06 0 1.55949e-06 5.65889e-06 0 1.033e-06 5.52953e-06 0 5.14486e-07 5.45271e-06 0 -9.2824e-20 5.42382e-06 0 -3.82928e-05 9.83629e-05 0 -1.80669e-05 9.6619e-05 0 -1.9171e-06 8.78795e-05 0 8.36644e-06 7.63801e-05 0 1.38788e-05 6.51846e-05 0 1.63527e-05 5.5512e-05 0 1.71049e-05 4.75124e-05 0 1.69364e-05 4.09659e-05 0 1.62934e-05 3.56069e-05 0 1.54188e-05 3.11397e-05 0 1.44406e-05 2.73866e-05 0 1.34302e-05 2.42528e-05 0 1.24258e-05 2.15488e-05 0 1.1448e-05 1.92441e-05 0 1.05082e-05 1.7258e-05 0 9.6118e-06 1.552e-05 0 8.76093e-06 1.40346e-05 0 7.95563e-06 1.27304e-05 0 7.19461e-06 1.15919e-05 0 6.47573e-06 1.061e-05 0 5.79634e-06 9.74714e-06 0 5.15346e-06 9.00397e-06 0 4.54381e-06 8.36215e-06 0 3.96414e-06 7.805e-06 0 3.41103e-06 7.34024e-06 0 2.88105e-06 6.94553e-06 0 2.37089e-06 6.61971e-06 0 1.87712e-06 6.36287e-06 0 1.39643e-06 6.16271e-06 0 9.25553e-07 6.02432e-06 0 4.61142e-07 5.94211e-06 0 0 5.91117e-06 0 -3.60449e-05 8.14855e-05 0 -2.2288e-05 8.08186e-05 0 -1.02387e-05 7.59932e-05 0 -1.22053e-06 6.87793e-05 0 4.76702e-06 6.089e-05 0 8.38222e-06 5.3378e-05 0 1.03627e-05 4.66839e-05 0 1.12892e-05 4.08959e-05 0 1.15584e-05 3.59637e-05 0 1.14268e-05 3.17374e-05 0 1.10516e-05 2.81135e-05 0 1.05341e-05 2.50377e-05 0 9.93635e-06 2.23556e-05 0 9.29752e-06 2.00478e-05 0 8.64347e-06 1.80444e-05 0 7.9901e-06 1.62813e-05 0 7.34777e-06 1.47655e-05 0 6.72288e-06 1.34292e-05 0 6.11907e-06 1.2258e-05 0 5.53819e-06 1.1244e-05 0 4.9808e-06 1.03504e-05 0 4.44651e-06 9.57855e-06 0 3.9343e-06 8.91027e-06 0 3.44269e-06 8.32897e-06 0 2.96988e-06 7.84305e-06 0 2.5138e-06 7.42974e-06 0 2.0723e-06 7.08811e-06 0 1.64301e-06 6.81848e-06 0 1.22358e-06 6.60818e-06 0 8.11592e-07 6.46268e-06 0 4.04545e-07 6.3762e-06 0 0 6.34366e-06 0 -3.46241e-05 6.9727e-05 0 -2.45624e-05 6.93969e-05 0 -1.52924e-05 6.64612e-05 0 -7.68002e-06 6.17212e-05 0 -1.97368e-06 5.61133e-05 0 2.01312e-06 5.03697e-05 0 4.64142e-06 4.49255e-05 0 6.27492e-06 3.99783e-05 0 7.20991e-06 3.55935e-05 0 7.66744e-06 3.17258e-05 0 7.79961e-06 2.83334e-05 0 7.71478e-06 2.53985e-05 0 7.48542e-06 2.28064e-05 0 7.16114e-06 2.05501e-05 0 6.77711e-06 1.85734e-05 0 6.35678e-06 1.68216e-05 0 5.91683e-06 1.53048e-05 0 5.4688e-06 1.39608e-05 0 5.02043e-06 1.27773e-05 0 4.57708e-06 1.17483e-05 0 4.14208e-06 1.08383e-05 0 3.71744e-06 1.00496e-05 0 3.30416e-06 9.36491e-06 0 2.90245e-06 8.76797e-06 0 2.51199e-06 8.26778e-06 0 2.13201e-06 7.84164e-06 0 1.76147e-06 7.48886e-06 0 1.39905e-06 7.21007e-06 0 1.0433e-06 6.99243e-06 0 6.92672e-07 6.84174e-06 0 3.45464e-07 6.75213e-06 0 5.09196e-19 6.7184e-06 0 -3.37446e-05 6.09265e-05 0 -2.59571e-05 6.06935e-05 0 -1.85764e-05 5.87523e-05 0 -1.21615e-05 5.54873e-05 0 -6.97068e-06 5.14184e-05 0 -3.00127e-06 4.70224e-05 0 -9.86859e-08 4.26463e-05 0 1.94459e-06 3.84975e-05 0 3.32881e-06 3.46863e-05 0 4.22392e-06 3.12295e-05 0 4.75948e-06 2.81273e-05 0 5.03616e-06 2.53892e-05 0 5.1264e-06 2.29369e-05 0 5.08303e-06 2.07748e-05 0 4.94569e-06 1.88611e-05 0 4.74221e-06 1.71515e-05 0 4.49342e-06 1.56595e-05 0 4.21457e-06 1.43297e-05 0 3.91651e-06 1.31526e-05 0 3.60737e-06 1.2124e-05 0 3.29284e-06 1.1211e-05 0 2.97691e-06 1.04168e-05 0 2.66236e-06 9.7252e-06 0 2.35091e-06 9.12071e-06 0 2.04356e-06 8.6129e-06 0 1.74076e-06 8.17949e-06 0 1.44248e-06 7.8201e-06 0 1.14839e-06 7.53568e-06 0 8.5792e-07 7.31343e-06 0 5.70305e-07 7.15941e-06 0 2.84648e-07 7.06778e-06 0 0 7.03328e-06 0 -3.32216e-05 5.3964e-05 0 -2.69034e-05 5.37606e-05 0 -2.0827e-05 5.23909e-05 0 -1.53568e-05 5.0047e-05 0 -1.07035e-05 4.70252e-05 0 -6.92466e-06 4.36315e-05 0 -3.96736e-06 4.01216e-05 0 -1.72131e-06 3.66752e-05 0 -5.93443e-08 3.34083e-05 0 1.14038e-06 3.03686e-05 0 1.97989e-06 2.75805e-05 0 2.54488e-06 2.50703e-05 0 2.90126e-06 2.279e-05 0 3.09985e-06 2.07524e-05 0 3.18072e-06 1.89292e-05 0 3.17327e-06 1.72867e-05 0 3.10042e-06 1.58406e-05 0 2.97963e-06 1.45437e-05 0 2.82381e-06 1.33892e-05 0 2.64311e-06 1.23749e-05 0 2.44498e-06 1.1471e-05 0 2.235e-06 1.06815e-05 0 2.01741e-06 9.99174e-06 0 1.79521e-06 9.38726e-06 0 1.57055e-06 8.87805e-06 0 1.34492e-06 8.44259e-06 0 1.11925e-06 8.08089e-06 0 8.9408e-07 7.7942e-06 0 6.69646e-07 7.56994e-06 0 4.45946e-07 7.4144e-06 0 2.22816e-07 7.3218e-06 0 0 7.28693e-06 0 -3.29055e-05 4.82039e-05 0 -2.76013e-05 4.80265e-05 0 -2.24658e-05 4.70199e-05 0 -1.77365e-05 4.5284e-05 0 -1.35724e-05 4.29931e-05 0 -1.00432e-05 4.0345e-05 0 -7.14398e-06 3.75226e-05 0 -4.82198e-06 3.46699e-05 0 -3.00077e-06 3.18921e-05 0 -1.59727e-06 2.92477e-05 0 -5.35306e-07 2.6773e-05 0 2.54058e-07 2.45023e-05 0 8.27238e-07 2.24108e-05 0 1.23007e-06 2.05167e-05 0 1.50037e-06 1.88031e-05 0 1.66708e-06 1.72457e-05 0 1.75354e-06 1.58621e-05 0 1.77817e-06 1.46133e-05 0 1.75503e-06 1.34949e-05 0 1.69555e-06 1.25067e-05 0 1.60841e-06 1.16223e-05 0 1.50037e-06 1.08466e-05 0 1.37684e-06 1.01665e-05 0 1.24181e-06 9.56884e-06 0 1.09842e-06 9.0639e-06 0 9.49066e-07 8.63123e-06 0 7.95491e-07 8.27118e-06 0 6.39033e-07 7.98534e-06 0 4.80645e-07 7.7615e-06 0 3.2102e-07 7.60611e-06 0 1.60677e-07 7.51355e-06 0 0 7.47868e-06 0 -3.26994e-05 4.32813e-05 0 -2.81264e-05 4.31462e-05 0 -2.3689e-05 4.23937e-05 0 -1.95424e-05 4.10806e-05 0 -1.58022e-05 3.93145e-05 0 -1.25324e-05 3.72259e-05 0 -9.74839e-06 3.49457e-05 0 -7.42938e-06 3.25854e-05 0 -5.53203e-06 3.02335e-05 0 -4.00199e-06 2.79492e-05 0 -2.78458e-06 2.57721e-05 0 -1.82661e-06 2.3739e-05 0 -1.0819e-06 2.18415e-05 0 -5.10991e-07 2.01005e-05 0 -7.98959e-08 1.85082e-05 0 2.38407e-07 1.70483e-05 0 4.66457e-07 1.57394e-05 0 6.22612e-07 1.45502e-05 0 7.21298e-07 1.34786e-05 0 7.74557e-07 1.25262e-05 0 7.91813e-07 1.16702e-05 0 7.80619e-07 1.09161e-05 0 7.47196e-07 1.02525e-05 0 6.96333e-07 9.66764e-06 0 6.31947e-07 9.17205e-06 0 5.57168e-07 8.74649e-06 0 4.74435e-07 8.39169e-06 0 3.85774e-07 8.10955e-06 0 2.92776e-07 7.88835e-06 0 1.96752e-07 7.73464e-06 0 9.88385e-08 7.64304e-06 0 0 7.60852e-06 0 -3.25331e-05 3.89727e-05 0 -2.85031e-05 3.88952e-05 0 -2.45905e-05 3.83364e-05 0 -2.09003e-05 3.73333e-05 0 -1.75164e-05 3.59567e-05 0 -1.44921e-05 3.42958e-05 0 -1.18491e-05 3.24449e-05 0 -9.58234e-06 3.04898e-05 0 -7.66849e-06 2.85026e-05 0 -6.07266e-06 2.65381e-05 0 -4.75645e-06 2.46348e-05 0 -3.6799e-06 2.28284e-05 0 -2.80633e-06 2.11215e-05 0 -2.10298e-06 1.95359e-05 0 -1.54041e-06 1.80703e-05 0 -1.0944e-06 1.6715e-05 0 -7.44114e-07 1.54889e-05 0 -4.72055e-07 1.43675e-05 0 -2.64115e-07 1.33507e-05 0 -1.08214e-07 1.24418e-05 0 5.34029e-09 1.16211e-05 0 8.45101e-08 1.0895e-05 0 1.36019e-07 1.02537e-05 0 1.6519e-07 9.68679e-06 0 1.76506e-07 9.20492e-06 0 1.73669e-07 8.79026e-06 0 1.5967e-07 8.44388e-06 0 1.37102e-07 8.16796e-06 0 1.08097e-07 7.95139e-06 0 7.44953e-08 7.80076e-06 0 3.79707e-08 7.71092e-06 0 0 7.67707e-06 0 -3.23591e-05 3.51466e-05 0 -2.87709e-05 3.51336e-05 0 -2.52842e-05 3.47294e-05 0 -2.19717e-05 3.39626e-05 0 -1.88949e-05 3.28832e-05 0 -1.60969e-05 3.15545e-05 0 -1.36001e-05 3.00461e-05 0 -1.14082e-05 2.8424e-05 0 -9.51037e-06 2.67464e-05 0 -7.88527e-06 2.50616e-05 0 -6.50686e-06 2.34051e-05 0 -5.34592e-06 2.18096e-05 0 -4.37413e-06 2.02845e-05 0 -3.56495e-06 1.88512e-05 0 -2.89364e-06 1.7513e-05 0 -2.33907e-06 1.62652e-05 0 -1.8825e-06 1.51265e-05 0 -1.50778e-06 1.40781e-05 0 -1.20151e-06 1.31218e-05 0 -9.51962e-07 1.2262e-05 0 -7.49505e-07 1.14821e-05 0 -5.86046e-07 1.07891e-05 0 -4.54596e-07 1.01747e-05 0 -3.49495e-07 9.63e-06 0 -2.65863e-07 9.16556e-06 0 -1.99565e-07 8.76502e-06 0 -1.47173e-07 8.42979e-06 0 -1.05633e-07 8.16229e-06 0 -7.2357e-08 7.95208e-06 0 -4.50498e-08 7.80573e-06 0 -2.15726e-08 7.7184e-06 0 0 7.68547e-06 0 -3.21569e-05 3.17199e-05 0 -2.89327e-05 3.17687e-05 0 -2.57936e-05 3.14898e-05 0 -2.27932e-05 3.09075e-05 0 -1.9978e-05 3.00595e-05 0 -1.73832e-05 2.89926e-05 0 -1.50296e-05 2.77596e-05 0 -1.29251e-05 2.64118e-05 0 -1.1066e-05 2.49957e-05 0 -9.44009e-06 2.35534e-05 0 -8.02995e-06 2.21164e-05 0 -6.81469e-06 2.07137e-05 0 -5.77279e-06 1.93585e-05 0 -4.88323e-06 1.80709e-05 0 -4.12561e-06 1.68574e-05 0 -3.48193e-06 1.57169e-05 0 -2.93576e-06 1.46673e-05 0 -2.47255e-06 1.36948e-05 0 -2.07993e-06 1.28025e-05 0 -1.74683e-06 1.19955e-05 0 -1.46395e-06 1.12605e-05 0 -1.22332e-06 1.06043e-05 0 -1.01791e-06 1.00206e-05 0 -8.41913e-07 9.50144e-06 0 -6.9022e-07 9.05745e-06 0 -5.5841e-07 8.67373e-06 0 -4.42738e-07 8.35193e-06 0 -3.39797e-07 8.09472e-06 0 -2.46639e-07 7.89236e-06 0 -1.606e-07 7.75133e-06 0 -7.91544e-08 7.66712e-06 0 0 7.63537e-06 0 -3.1924e-05 2.86323e-05 0 -2.90091e-05 2.87336e-05 0 -2.61627e-05 2.85557e-05 0 -2.34267e-05 2.81195e-05 0 -2.08378e-05 2.74545e-05 0 -1.8425e-05 2.65968e-05 0 -1.62074e-05 2.55872e-05 0 -1.41944e-05 2.44662e-05 0 -1.23867e-05 2.32711e-05 0 -1.0778e-05 2.20382e-05 0 -9.35716e-06 2.07948e-05 0 -8.10947e-06 1.9566e-05 0 -7.01892e-06 1.83672e-05 0 -6.06912e-06 1.72166e-05 0 -5.24356e-06 1.61226e-05 0 -4.5272e-06 1.50867e-05 0 -3.90589e-06 1.41256e-05 0 -3.36679e-06 1.32298e-05 0 -2.89872e-06 1.24032e-05 0 -2.49144e-06 1.16514e-05 0 -2.13619e-06 1.09637e-05 0 -1.82528e-06 1.03472e-05 0 -1.55182e-06 9.79674e-06 0 -1.31002e-06 9.30578e-06 0 -1.09465e-06 8.88462e-06 0 -9.01142e-07 8.51983e-06 0 -7.25536e-07 8.21334e-06 0 -5.64169e-07 7.96794e-06 0 -4.13818e-07 7.77464e-06 0 -2.71527e-07 7.6398e-06 0 -1.34458e-07 7.55924e-06 0 -5.72666e-20 7.52885e-06 0 -3.16676e-05 2.58377e-05 0 -2.90217e-05 2.598e-05 0 -2.64284e-05 2.5882e-05 0 -2.3922e-05 2.55615e-05 0 -2.15324e-05 2.50425e-05 0 -1.92839e-05 2.43532e-05 0 -1.71937e-05 2.3526e-05 0 -1.52718e-05 2.25931e-05 0 -1.35218e-05 2.15848e-05 0 -1.19411e-05 2.0532e-05 0 -1.05232e-05 1.94584e-05 0 -9.25831e-06 1.83853e-05 0 -8.13466e-06 1.73289e-05 0 -7.13979e-06 1.63055e-05 0 -6.26055e-06 1.53243e-05 0 -5.48461e-06 1.43887e-05 0 -4.8e-06 1.35141e-05 0 -4.19556e-06 1.26942e-05 0 -3.66136e-06 1.19334e-05 0 -3.18809e-06 1.12379e-05 0 -2.76762e-06 1.0599e-05 0 -2.39268e-06 1.00239e-05 0 -2.05663e-06 9.50861e-06 0 -1.75379e-06 9.0477e-06 0 -1.47894e-06 8.65114e-06 0 -1.22745e-06 8.30695e-06 0 -9.95214e-07 8.01721e-06 0 -7.78412e-07 7.78484e-06 0 -5.73611e-07 7.60161e-06 0 -3.77629e-07 7.47365e-06 0 -1.87378e-07 7.39716e-06 0 8.90721e-20 7.36829e-06 0 -3.13926e-05 2.32965e-05 0 -2.89751e-05 2.34681e-05 0 -2.65966e-05 2.3432e-05 0 -2.42859e-05 2.32031e-05 0 -2.20683e-05 2.28009e-05 0 -1.99649e-05 2.2248e-05 0 -1.7991e-05 2.15704e-05 0 -1.61569e-05 2.07941e-05 0 -1.44672e-05 1.99437e-05 0 -1.29223e-05 1.90458e-05 0 -1.15187e-05 1.81206e-05 0 -1.02497e-05 1.71861e-05 0 -9.10724e-06 1.62585e-05 0 -8.08172e-06 1.53519e-05 0 -7.16287e-06 1.44761e-05 0 -6.34065e-06 1.36355e-05 0 -5.60506e-06 1.28441e-05 0 -4.94654e-06 1.20981e-05 0 -4.35637e-06 1.14024e-05 0 -3.82622e-06 1.07631e-05 0 -3.34865e-06 1.01735e-05 0 -2.91691e-06 9.64071e-06 0 -2.5247e-06 9.1617e-06 0 -2.16654e-06 8.73207e-06 0 -1.83733e-06 8.36137e-06 0 -1.53245e-06 8.03896e-06 0 -1.24777e-06 7.76707e-06 0 -9.79359e-07 7.54866e-06 0 -7.23663e-07 7.37624e-06 0 -4.77346e-07 7.25572e-06 0 -2.37139e-07 7.18363e-06 0 0 7.15643e-06 0 -3.11101e-05 2.09743e-05 0 -2.8892e-05 2.11648e-05 0 -2.67013e-05 2.11754e-05 0 -2.45625e-05 2.10184e-05 0 -2.24975e-05 2.07098e-05 0 -2.05245e-05 2.02678e-05 0 -1.86576e-05 1.97134e-05 0 -1.69067e-05 1.90679e-05 0 -1.52774e-05 1.83514e-05 0 -1.37716e-05 1.75867e-05 0 -1.23881e-05 1.67909e-05 0 -1.11231e-05 1.59793e-05 0 -9.97063e-06 1.51674e-05 0 -8.92393e-06 1.43676e-05 0 -7.97499e-06 1.35893e-05 0 -7.11578e-06 1.28378e-05 0 -6.33806e-06 1.21256e-05 0 -5.63373e-06 1.14508e-05 0 -4.99523e-06 1.08184e-05 0 -4.41519e-06 1.02344e-05 0 -3.88689e-06 9.69397e-06 0 -3.40411e-06 9.20365e-06 0 -2.96096e-06 8.76144e-06 0 -2.55221e-06 8.36377e-06 0 -2.17294e-06 8.0197e-06 0 -1.8186e-06 7.71988e-06 0 -1.48507e-06 7.46659e-06 0 -1.16841e-06 7.2628e-06 0 -8.64965e-07 7.10176e-06 0 -5.71311e-07 6.98909e-06 0 -2.84049e-07 6.92166e-06 0 0 6.8962e-06 0 -3.08267e-05 1.88419e-05 0 -2.87817e-05 1.90426e-05 0 -2.67544e-05 1.90873e-05 0 -2.4766e-05 1.89862e-05 0 -2.28355e-05 1.87522e-05 0 -2.0979e-05 1.84003e-05 0 -1.92094e-05 1.79476e-05 0 -1.75362e-05 1.74115e-05 0 -1.59654e-05 1.68086e-05 0 -1.45002e-05 1.61583e-05 0 -1.31408e-05 1.54754e-05 0 -1.18853e-05 1.47725e-05 0 -1.073e-05 1.40644e-05 0 -9.66986e-06 1.33615e-05 0 -8.69893e-06 1.2673e-05 0 -7.81086e-06 1.20045e-05 0 -6.99894e-06 1.13669e-05 0 -6.25637e-06 1.07601e-05 0 -5.57669e-06 1.01887e-05 0 -4.95342e-06 9.65872e-06 0 -4.38055e-06 9.16648e-06 0 -3.85241e-06 8.71834e-06 0 -3.36354e-06 8.31294e-06 0 -2.90901e-06 7.94747e-06 0 -2.48409e-06 7.63043e-06 0 -2.08439e-06 7.35366e-06 0 -1.70584e-06 7.11944e-06 0 -1.3445e-06 6.93072e-06 0 -9.96712e-07 6.78143e-06 0 -6.58981e-07 6.6769e-06 0 -3.27835e-07 6.6143e-06 0 0 6.59066e-06 0 -3.05489e-05 1.68731e-05 0 -2.86523e-05 1.70768e-05 0 -2.67654e-05 1.71454e-05 0 -2.49069e-05 1.70871e-05 0 -2.30937e-05 1.69126e-05 0 -2.134e-05 1.66339e-05 0 -1.96576e-05 1.62651e-05 0 -1.80556e-05 1.58208e-05 0 -1.65403e-05 1.53144e-05 0 -1.51154e-05 1.47627e-05 0 -1.37823e-05 1.41782e-05 0 -1.25404e-05 1.35714e-05 0 -1.13876e-05 1.2956e-05 0 -1.03204e-05 1.23409e-05 0 -9.33443e-06 1.17347e-05 0 -8.42469e-06 1.11431e-05 0 -7.58577e-06 1.05756e-05 0 -6.81203e-06 1.0033e-05 0 -6.09797e-06 9.52e-06 0 -5.43794e-06 9.04221e-06 0 -4.8266e-06 8.59696e-06 0 -4.25882e-06 8.19024e-06 0 -3.72958e-06 7.82126e-06 0 -3.23426e-06 7.48786e-06 0 -2.76838e-06 7.19792e-06 0 -2.32769e-06 6.94437e-06 0 -1.90825e-06 6.72946e-06 0 -1.50616e-06 6.55606e-06 0 -1.11778e-06 6.41875e-06 0 -7.39605e-07 6.32253e-06 0 -3.68118e-07 6.26488e-06 0 0 6.2431e-06 0 -3.02807e-05 1.50458e-05 0 -2.85136e-05 1.52468e-05 0 -2.67499e-05 1.53308e-05 0 -2.50059e-05 1.53047e-05 0 -2.32965e-05 1.5177e-05 0 -2.16347e-05 1.49577e-05 0 -2.00312e-05 1.46584e-05 0 -1.84946e-05 1.4291e-05 0 -1.70313e-05 1.38668e-05 0 -1.56454e-05 1.34001e-05 0 -1.43391e-05 1.29014e-05 0 -1.3113e-05 1.23796e-05 0 -1.19659e-05 1.1847e-05 0 -1.08958e-05 1.13113e-05 0 -9.89941e-06 1.07804e-05 0 -8.973e-06 1.02597e-05 0 -8.11226e-06 9.75765e-06 0 -7.31256e-06 9.27568e-06 0 -6.56924e-06 8.81819e-06 0 -5.87743e-06 8.39046e-06 0 -5.23241e-06 7.99065e-06 0 -4.62957e-06 7.62431e-06 0 -4.06429e-06 7.29109e-06 0 -3.5323e-06 6.98933e-06 0 -3.02936e-06 6.72632e-06 0 -2.55139e-06 6.49593e-06 0 -2.0946e-06 6.30038e-06 0 -1.65515e-06 6.14238e-06 0 -1.22945e-06 6.01715e-06 0 -8.14012e-07 5.92934e-06 0 -4.05308e-07 5.8767e-06 0 0 5.85681e-06 0 -3.00273e-05 1.33408e-05 0 -2.83712e-05 1.35343e-05 0 -2.67133e-05 1.36269e-05 0 -2.50682e-05 1.36242e-05 0 -2.34491e-05 1.35331e-05 0 -2.18677e-05 1.33618e-05 0 -2.03341e-05 1.31199e-05 0 -1.88563e-05 1.28172e-05 0 -1.74405e-05 1.24631e-05 0 -1.60914e-05 1.20697e-05 0 -1.48116e-05 1.1646e-05 0 -1.36022e-05 1.11993e-05 0 -1.24633e-05 1.07408e-05 0 -1.13936e-05 1.02768e-05 0 -1.03908e-05 9.8146e-06 0 -9.45229e-06 9.35934e-06 0 -8.57458e-06 8.91824e-06 0 -7.75393e-06 8.49321e-06 0 -6.9864e-06 8.08833e-06 0 -6.26781e-06 7.70843e-06 0 -5.594e-06 7.35235e-06 0 -4.96084e-06 7.02515e-06 0 -4.36412e-06 6.72679e-06 0 -3.79986e-06 6.45608e-06 0 -3.2641e-06 6.21962e-06 0 -2.75294e-06 6.01218e-06 0 -2.26272e-06 5.83586e-06 0 -1.78972e-06 5.69323e-06 0 -1.3304e-06 5.5801e-06 0 -8.81317e-07 5.5007e-06 0 -4.3896e-07 5.45308e-06 0 0 5.43509e-06 0 -2.97912e-05 1.17406e-05 0 -2.82305e-05 1.19229e-05 0 -2.66639e-05 1.20186e-05 0 -2.51043e-05 1.20321e-05 0 -2.35637e-05 1.19693e-05 0 -2.20528e-05 1.18367e-05 0 -2.05809e-05 1.16422e-05 0 -1.91556e-05 1.1394e-05 0 -1.77832e-05 1.10998e-05 0 -1.64681e-05 1.07699e-05 0 -1.52134e-05 1.04119e-05 0 -1.40211e-05 1.00318e-05 0 -1.28915e-05 9.63951e-06 0 -1.18243e-05 9.24048e-06 0 -1.08181e-05 8.84108e-06 0 -9.8708e-06 8.4461e-06 0 -8.97988e-06 8.06173e-06 0 -8.14226e-06 7.69012e-06 0 -7.35466e-06 7.33497e-06 0 -6.61347e-06 7.00066e-06 0 -5.91505e-06 6.68651e-06 0 -5.25569e-06 6.39709e-06 0 -4.63157e-06 6.13261e-06 0 -4.039e-06 5.89218e-06 0 -3.47425e-06 5.68178e-06 0 -2.93364e-06 5.49694e-06 0 -2.41363e-06 5.33963e-06 0 -1.91063e-06 5.21224e-06 0 -1.42118e-06 5.11111e-06 0 -9.41867e-07 5.0401e-06 0 -4.69245e-07 4.99749e-06 0 0 4.98139e-06 0 -2.95733e-05 1.02304e-05 0 -2.80952e-05 1.03984e-05 0 -2.66076e-05 1.04927e-05 0 -2.51224e-05 1.05168e-05 0 -2.36504e-05 1.04753e-05 0 -2.22014e-05 1.03737e-05 0 -2.07841e-05 1.02184e-05 0 -1.94057e-05 1.00161e-05 0 -1.80722e-05 9.77327e-06 0 -1.67883e-05 9.49853e-06 0 -1.55573e-05 9.19825e-06 0 -1.43814e-05 8.87736e-06 0 -1.32617e-05 8.5446e-06 0 -1.21983e-05 8.20444e-06 0 -1.11905e-05 7.86252e-06 0 -1.0237e-05 7.52316e-06 0 -9.3357e-06 7.19162e-06 0 -8.48422e-06 6.87012e-06 0 -7.67985e-06 6.56195e-06 0 -6.91948e-06 6.27103e-06 0 -6.19992e-06 5.99703e-06 0 -5.51787e-06 5.74401e-06 0 -4.86982e-06 5.51233e-06 0 -4.25237e-06 5.30138e-06 0 -3.66203e-06 5.11644e-06 0 -3.09529e-06 4.95377e-06 0 -2.54878e-06 4.81518e-06 0 -2.019e-06 4.70283e-06 0 -1.50259e-06 4.61358e-06 0 -9.962e-07 4.55087e-06 0 -4.96428e-07 4.51323e-06 0 0 4.499e-06 0 -2.93797e-05 8.79667e-06 0 -2.79702e-05 8.94814e-06 0 -2.65485e-05 9.03735e-06 0 -2.51255e-05 9.0672e-06 0 -2.37111e-05 9.04144e-06 0 -2.23144e-05 8.96446e-06 0 -2.09434e-05 8.84154e-06 0 -1.96052e-05 8.6782e-06 0 -1.83056e-05 8.47959e-06 0 -1.70491e-05 8.25301e-06 0 -1.58393e-05 8.00373e-06 0 -1.46787e-05 7.73577e-06 0 -1.35688e-05 7.45667e-06 0 -1.251e-05 7.17011e-06 0 -1.15023e-05 6.88096e-06 0 -1.05446e-05 6.59307e-06 0 -9.6357e-06 6.31084e-06 0 -8.77349e-06 6.0364e-06 0 -7.95575e-06 5.77267e-06 0 -7.17982e-06 5.52307e-06 0 -6.44289e-06 5.28751e-06 0 -5.74197e-06 5.06953e-06 0 -5.07387e-06 4.86958e-06 0 -4.43544e-06 4.68726e-06 0 -3.82339e-06 4.52717e-06 0 -3.23439e-06 4.38621e-06 0 -2.6652e-06 4.26598e-06 0 -2.11244e-06 4.16843e-06 0 -1.57283e-06 4.0909e-06 0 -1.0431e-06 4.03639e-06 0 -5.19898e-07 4.00366e-06 0 0 3.99129e-06 0 -2.92079e-05 7.42731e-06 0 -2.78564e-05 7.56024e-06 0 -2.64907e-05 7.64146e-06 0 -2.51206e-05 7.67329e-06 0 -2.37553e-05 7.65871e-06 0 -2.24034e-05 7.60125e-06 0 -2.10724e-05 7.50517e-06 0 -1.97689e-05 7.37493e-06 0 -1.84988e-05 7.21469e-06 0 -1.72665e-05 7.03046e-06 0 -1.60756e-05 6.82656e-06 0 -1.49289e-05 6.6062e-06 0 -1.38282e-05 6.37579e-06 0 -1.27743e-05 6.1383e-06 0 -1.17674e-05 5.89787e-06 0 -1.0807e-05 5.65782e-06 0 -9.89224e-06 5.42177e-06 0 -9.02144e-06 5.1917e-06 0 -8.19275e-06 4.97011e-06 0 -7.4039e-06 4.75992e-06 0 -6.65238e-06 4.5612e-06 0 -5.93551e-06 4.37699e-06 0 -5.25035e-06 4.20776e-06 0 -4.59398e-06 4.05324e-06 0 -3.96328e-06 3.91738e-06 0 -3.35509e-06 3.79764e-06 0 -2.7663e-06 3.69543e-06 0 -2.19363e-06 3.61243e-06 0 -1.6339e-06 3.54642e-06 0 -1.08389e-06 3.49999e-06 0 -5.40317e-07 3.47211e-06 0 0 3.46156e-06 0 -2.90603e-05 6.11148e-06 0 -2.77567e-05 6.22435e-06 0 -2.64371e-05 6.29525e-06 0 -2.51107e-05 6.32599e-06 0 -2.37862e-05 6.31893e-06 0 -2.24715e-05 6.27685e-06 0 -2.11738e-05 6.2031e-06 0 -1.98996e-05 6.10124e-06 0 -1.86543e-05 5.97455e-06 0 -1.74426e-05 5.82788e-06 0 -1.62681e-05 5.66469e-06 0 -1.51336e-05 5.48751e-06 0 -1.40412e-05 5.30162e-06 0 -1.29919e-05 5.10939e-06 0 -1.19863e-05 4.91422e-06 0 -1.10243e-05 4.71889e-06 0 -1.01052e-05 4.52632e-06 0 -9.22773e-06 4.33825e-06 0 -8.39033e-06 4.15678e-06 0 -7.59104e-06 3.98431e-06 0 -6.82763e-06 3.82101e-06 0 -6.09766e-06 3.6694e-06 0 -5.39841e-06 3.52994e-06 0 -4.72713e-06 3.40246e-06 0 -4.0809e-06 3.29025e-06 0 -3.45667e-06 3.19127e-06 0 -2.85145e-06 3.10672e-06 0 -2.26206e-06 3.03801e-06 0 -1.68538e-06 2.98335e-06 0 -1.11829e-06 2.94488e-06 0 -5.5754e-07 2.92178e-06 0 0 2.91304e-06 0 -2.89398e-05 4.83888e-06 0 -2.76739e-05 4.93049e-06 0 -2.63907e-05 4.98925e-06 0 -2.50988e-05 5.01652e-06 0 -2.38065e-05 5.01411e-06 0 -2.25213e-05 4.98413e-06 0 -2.12502e-05 4.92917e-06 0 -1.99993e-05 4.85194e-06 0 -1.87741e-05 4.75497e-06 0 -1.75791e-05 4.64203e-06 0 -1.64179e-05 4.51581e-06 0 -1.52936e-05 4.37823e-06 0 -1.42081e-05 4.23348e-06 0 -1.3163e-05 4.08337e-06 0 -1.2159e-05 3.93062e-06 0 -1.11961e-05 3.77743e-06 0 -1.02739e-05 3.62609e-06 0 -9.39141e-06 3.47805e-06 0 -8.54739e-06 3.33497e-06 0 -7.74005e-06 3.19878e-06 0 -6.96738e-06 3.06967e-06 0 -6.22713e-06 2.94965e-06 0 -5.51677e-06 2.83913e-06 0 -4.8337e-06 2.73802e-06 0 -4.17511e-06 2.64894e-06 0 -3.5381e-06 2.57031e-06 0 -2.91975e-06 2.50309e-06 0 -2.31698e-06 2.44844e-06 0 -1.72673e-06 2.40494e-06 0 -1.14592e-06 2.37433e-06 0 -5.71377e-07 2.35593e-06 0 0 2.34898e-06 0 -2.88437e-05 3.60015e-06 0 -2.76071e-05 3.66961e-06 0 -2.63521e-05 3.71483e-06 0 -2.50872e-05 3.73681e-06 0 -2.382e-05 3.73684e-06 0 -2.2558e-05 3.71646e-06 0 -2.13077e-05 3.67754e-06 0 -2.00753e-05 3.62205e-06 0 -1.88659e-05 3.55184e-06 0 -1.76841e-05 3.46966e-06 0 -1.65336e-05 3.37749e-06 0 -1.54174e-05 3.2767e-06 0 -1.43377e-05 3.17043e-06 0 -1.32961e-05 3.05998e-06 0 -1.22935e-05 2.94737e-06 0 -1.13301e-05 2.83428e-06 0 -1.04057e-05 2.72236e-06 0 -9.51952e-06 2.61274e-06 0 -8.67047e-06 2.50666e-06 0 -7.85695e-06 2.40557e-06 0 -7.07713e-06 2.30964e-06 0 -6.32891e-06 2.22039e-06 0 -5.60989e-06 2.13812e-06 0 -4.9176e-06 2.06281e-06 0 -4.24934e-06 1.99641e-06 0 -3.60229e-06 1.93776e-06 0 -2.97362e-06 1.8876e-06 0 -2.36031e-06 1.84681e-06 0 -1.75935e-06 1.81433e-06 0 -1.16773e-06 1.79146e-06 0 -5.823e-07 1.77772e-06 0 0 1.77253e-06 0 -2.87758e-05 2.38646e-06 0 -2.75595e-05 2.43311e-06 0 -2.63241e-05 2.4638e-06 0 -2.50778e-05 2.47916e-06 0 -2.38281e-05 2.48004e-06 0 -2.25821e-05 2.46743e-06 0 -2.13463e-05 2.44256e-06 0 -2.01267e-05 2.40671e-06 0 -1.89284e-05 2.36107e-06 0 -1.77559e-05 2.30747e-06 0 -1.66129e-05 2.24719e-06 0 -1.55025e-05 2.18113e-06 0 -1.4427e-05 2.11135e-06 0 -1.33879e-05 2.03873e-06 0 -1.23864e-05 1.96458e-06 0 -1.14228e-05 1.89004e-06 0 -1.0497e-05 1.81617e-06 0 -9.6084e-06 1.74377e-06 0 -8.75595e-06 1.67364e-06 0 -7.93822e-06 1.60674e-06 0 -7.1535e-06 1.54323e-06 0 -6.39978e-06 1.48408e-06 0 -5.67478e-06 1.42954e-06 0 -4.9761e-06 1.37958e-06 0 -4.30112e-06 1.33551e-06 0 -3.6471e-06 1.29658e-06 0 -3.01123e-06 1.26327e-06 0 -2.39057e-06 1.23616e-06 0 -1.78215e-06 1.21458e-06 0 -1.18298e-06 1.19938e-06 0 -5.89935e-07 1.19025e-06 0 0 1.1868e-06 0 -2.8735e-05 1.18912e-06 0 -2.75307e-05 1.21255e-06 0 -2.6307e-05 1.22806e-06 0 -2.50717e-05 1.23595e-06 0 -2.38324e-05 1.23664e-06 0 -2.25959e-05 1.23063e-06 0 -2.13688e-05 1.21852e-06 0 -2.01569e-05 1.20094e-06 0 -1.89652e-05 1.17847e-06 0 -1.77982e-05 1.15203e-06 0 -1.66598e-05 1.12224e-06 0 -1.55529e-05 1.08954e-06 0 -1.44799e-05 1.05498e-06 0 -1.34424e-05 1.01897e-06 0 -1.24416e-05 9.82182e-07 0 -1.14779e-05 9.45166e-07 0 -1.05514e-05 9.08462e-07 0 -9.66131e-06 8.72461e-07 0 -8.80687e-06 8.37574e-07 0 -7.98667e-06 8.04281e-07 0 -7.19904e-06 7.72656e-07 0 -6.44207e-06 7.43194e-07 0 -5.71352e-06 7.16015e-07 0 -5.01104e-06 6.91113e-07 0 -4.33206e-06 6.69138e-07 0 -3.67387e-06 6.49719e-07 0 -3.03372e-06 6.33102e-07 0 -2.40867e-06 6.1958e-07 0 -1.79578e-06 6.08811e-07 0 -1.19209e-06 6.01226e-07 0 -5.94501e-07 5.96668e-07 0 0 5.94943e-07 0 -2.87196e-05 -0 0 -2.75197e-05 5.38259e-19 0 -2.63004e-05 -0 0 -2.50693e-05 -0 0 -2.38339e-05 -0 0 -2.26011e-05 -4.97312e-19 0 -2.13772e-05 -0 0 -2.01681e-05 -0 0 -1.89789e-05 -0 0 -1.78141e-05 -1.62115e-19 0 -1.66774e-05 -1.90279e-19 0 -1.55718e-05 -0 0 -1.44997e-05 -0 0 -1.34629e-05 1.3166e-19 0 -1.24624e-05 9.47924e-20 0 -1.14987e-05 3.12365e-21 0 -1.05718e-05 -0 0 -9.68124e-06 -0 0 -8.82605e-06 9.95014e-20 0 -8.00492e-06 -0 0 -7.21621e-06 -7.84123e-20 0 -6.45802e-06 -0 0 -5.72813e-06 -0 0 -5.02422e-06 -0 0 -4.34374e-06 1.47499e-20 0 -3.68398e-06 -1.20092e-20 0 -3.04221e-06 -0 0 -2.4155e-06 -0 0 -1.80093e-06 -0 0 -1.19553e-06 -0 0 -5.96225e-07 -0 0 0 -0 0 </DataArray> 
</PointData> 
<Points> 
<DataArray type="Float32" NumberOfComponents="3"> 