<?xml version="1.0"?> 
<VTKFile type="StructuredGrid" version="0.1"> 
<StructuredGrid WholeExtent="0 31 0 31 0 0"> 
<Piece Extent="0 31 0 31 0 0"> 
<PointData>
<DataArray type="Float32" Name="B" format="ascii" NumberOfComponents="3"> 
0 4.17812e-06 0 7.41799e-07 4.19989e-06 0 1.49025e-06 4.25776e-06 0 2.25192e-06 4.35512e-06 0 3.0338e-06 4.49586e-06 0 3.84294e-06 4.67632e-06 0 4.68677e-06 4.90496e-06 0 5.57337e-06 5.18152e-06 0 6.51113e-06 5.50655e-06 0 7.50939e-06 5.89506e-06 0 8.5784e-06 6.34116e-06 0 9.72929e-06 6.8554e-06 0 1.09751e-05 7.4488e-06 0 1.23301e-05 8.11934e-06 0 1.38113e-05 8.88853e-06 0 1.5439e-05 9.75826e-06 0 1.72373e-05 1.07332e-05 0 1.92371e-05 1.1845e-05 0 2.14786e-05 1.30802e-05 0 2.40149e-05 1.44565e-05 0 2.69247e-05 1.59835e-05 0 3.03214e-05 1.76413e-05 0 3.43824e-05 1.94357e-05 0 3.94042e-05 2.13271e-05 0 4.5877e-05 2.32752e-05 0 5.46997e-05 2.52375e-05 0 6.7574e-05 2.7213e-05 0 8.80373e-05 2.94181e-05 0 0.000124482 3.29467e-05 0 0.000201952 4.29873e-05 0 0.000439695 9.71792e-05 0 0.014894 0.00655551 0 0 3.9292e-06 0 7.54357e-07 3.94973e-06 0 1.51553e-06 4.00427e-06 0 2.29026e-06 4.09605e-06 0 3.08571e-06 4.22871e-06 0 3.90912e-06 4.39882e-06 0 4.76811e-06 4.61435e-06 0 5.67098e-06 4.87506e-06 0 6.62634e-06 5.18146e-06 0 7.64378e-06 5.54767e-06 0 8.73383e-06 5.96812e-06 0 9.90789e-06 6.45266e-06 0 1.11793e-05 7.01156e-06 0 1.25626e-05 7.64274e-06 0 1.40751e-05 8.36599e-06 0 1.57373e-05 9.18254e-06 0 1.75732e-05 1.00959e-05 0 1.96135e-05 1.11333e-05 0 2.18978e-05 1.22799e-05 0 2.44777e-05 1.35467e-05 0 2.74293e-05 1.49323e-05 0 3.08618e-05 1.64064e-05 0 3.4946e-05 1.79379e-05 0 3.9968e-05 1.9444e-05 0 4.64043e-05 2.07979e-05 0 5.51355e-05 2.17636e-05 0 6.78429e-05 2.19546e-05 0 8.80479e-05 2.06524e-05 0 0.000124147 1.6213e-05 0 0.000201149 2.98335e-06 0 0.000432548 -6.23914e-05 0 0.00085829 -0.00190261 0 0 3.67624e-06 0 7.66164e-07 3.69548e-06 0 1.5393e-06 3.74662e-06 0 2.32631e-06 3.83267e-06 0 3.13452e-06 3.95707e-06 0 3.97135e-06 4.11657e-06 0 4.84459e-06 4.31867e-06 0 5.76276e-06 4.56314e-06 0 6.73466e-06 4.85044e-06 0 7.77014e-06 5.19379e-06 0 8.87994e-06 5.58794e-06 0 1.00757e-05 6.04207e-06 0 1.1371e-05 6.56564e-06 0 1.27808e-05 7.15656e-06 0 1.43224e-05 7.83291e-06 0 1.60163e-05 8.5953e-06 0 1.78864e-05 9.44611e-06 0 1.9963e-05 1.04085e-05 0 2.22843e-05 1.14663e-05 0 2.48997e-05 1.2624e-05 0 2.78811e-05 1.38704e-05 0 3.13309e-05 1.51651e-05 0 3.54078e-05 1.64421e-05 0 4.03781e-05 1.75775e-05 0 4.66847e-05 1.83618e-05 0 5.51467e-05 1.83728e-05 0 6.73216e-05 1.6855e-05 0 8.64234e-05 1.22071e-05 0 0.000119819 2.91002e-07 0 0.000187218 -3.35174e-05 0 0.000346885 -0.000176402 0 0.000170598 -0.00102214 0 8.77821e-20 3.41947e-06 0 7.77202e-07 3.43741e-06 0 1.56153e-06 3.48507e-06 0 2.36002e-06 3.56527e-06 0 3.18016e-06 3.68121e-06 0 4.02954e-06 3.82987e-06 0 4.91611e-06 4.01824e-06 0 5.84857e-06 4.24609e-06 0 6.83594e-06 4.51386e-06 0 7.88826e-06 4.83384e-06 0 9.01649e-06 5.2011e-06 0 1.02325e-05 5.62413e-06 0 1.15501e-05 6.11163e-06 0 1.29844e-05 6.66149e-06 0 1.45527e-05 7.29011e-06 0 1.62757e-05 7.99754e-06 0 1.81769e-05 8.78517e-06 0 2.02855e-05 9.6722e-06 0 2.26382e-05 1.06415e-05 0 2.52815e-05 1.16917e-05 0 2.82815e-05 1.28025e-05 0 3.17311e-05 1.39248e-05 0 3.57726e-05 1.49609e-05 0 4.06428e-05 1.57499e-05 0 4.67331e-05 1.60073e-05 0 5.4761e-05 1.51445e-05 0 6.60682e-05 1.20834e-05 0 8.33155e-05 4.49241e-06 0 0.000112066 -1.35999e-05 0 0.000163861 -6.15543e-05 0 0.000242911 -0.000223192 0 -1.00314e-05 -0.000661184 0 0 3.15917e-06 0 7.87457e-07 3.17577e-06 0 1.58217e-06 3.21989e-06 0 2.39133e-06 3.29412e-06 0 3.22256e-06 3.40143e-06 0 4.08359e-06 3.53903e-06 0 4.98254e-06 3.71338e-06 0 5.92829e-06 3.92427e-06 0 6.93002e-06 4.1721e-06 0 7.99797e-06 4.46822e-06 0 9.1433e-06 4.80806e-06 0 1.03781e-05 5.19939e-06 0 1.17163e-05 5.65014e-06 0 1.31732e-05 6.15821e-06 0 1.4766e-05 6.7384e-06 0 1.65154e-05 7.39024e-06 0 1.84443e-05 8.11425e-06 0 2.0581e-05 8.92596e-06 0 2.296e-05 9.80759e-06 0 2.56241e-05 1.07527e-05 0 2.86325e-05 1.1733e-05 0 3.20663e-05 1.26924e-05 0 3.60474e-05 1.35059e-05 0 4.07747e-05 1.39813e-05 0 4.65723e-05 1.37712e-05 0 5.40236e-05 1.21494e-05 0 6.41821e-05 7.78638e-06 0 7.89908e-05 -2.16118e-06 0 0.000101839 -2.46329e-05 0 0.000136113 -7.93486e-05 0 0.000155904 -0.000225515 0 -6.94513e-05 -0.000463403 0 0 2.89559e-06 0 7.96909e-07 2.91083e-06 0 1.6012e-06 2.95133e-06 0 2.42019e-06 3.01948e-06 0 3.26164e-06 3.11801e-06 0 4.13341e-06 3.24434e-06 0 5.04378e-06 3.40441e-06 0 6.00177e-06 3.59803e-06 0 7.01674e-06 3.82555e-06 0 8.09908e-06 4.09738e-06 0 9.26014e-06 4.40929e-06 0 1.05122e-05 4.76836e-06 0 1.18693e-05 5.18176e-06 0 1.33467e-05 5.64743e-06 0 1.4962e-05 6.17858e-06 0 1.67351e-05 6.77434e-06 0 1.86887e-05 7.43449e-06 0 2.08497e-05 8.17124e-06 0 2.32501e-05 8.96652e-06 0 2.59286e-05 9.8096e-06 0 2.89364e-05 1.06659e-05 0 3.23412e-05 1.14738e-05 0 3.62407e-05 1.20869e-05 0 4.07895e-05 1.22888e-05 0 4.62322e-05 1.16841e-05 0 5.29934e-05 9.44561e-06 0 6.17938e-05 4.07627e-06 0 7.37869e-05 -7.53379e-06 0 9.02225e-05 -3.24568e-05 0 0.000108226 -8.77624e-05 0 9.24502e-05 -0.000207219 0 -9.06766e-05 -0.000341906 0 -2.98883e-19 2.62901e-06 0 8.05547e-07 2.64286e-06 0 1.6186e-06 2.67969e-06 0 2.44657e-06 2.74166e-06 0 3.29736e-06 2.83125e-06 0 4.17895e-06 2.94612e-06 0 5.09976e-06 3.09168e-06 0 6.06893e-06 3.26773e-06 0 7.09598e-06 3.47461e-06 0 8.19147e-06 3.72175e-06 0 9.36689e-06 4.00527e-06 0 1.06346e-05 4.33158e-06 0 1.20089e-05 4.70709e-06 0 1.35051e-05 5.12982e-06 0 1.51404e-05 5.61144e-06 0 1.69348e-05 6.15078e-06 0 1.89101e-05 6.74701e-06 0 2.10919e-05 7.4094e-06 0 2.35094e-05 8.11998e-06 0 2.61968e-05 8.86469e-06 0 2.91966e-05 9.60438e-06 0 3.25616e-05 1.0274e-05 0 3.63631e-05 1.07119e-05 0 4.07066e-05 1.06859e-05 0 4.57488e-05 9.76973e-06 0 5.17417e-05 7.07512e-06 0 5.90553e-05 1.02592e-06 0 6.80695e-05 -1.15238e-05 0 7.82165e-05 -3.71327e-05 0 8.28097e-05 -8.88966e-05 0 4.83396e-05 -0.000181856 0 -9.78944e-05 -0.000260897 0 0 2.35969e-06 0 8.1336e-07 2.37214e-06 0 1.63433e-06 2.40524e-06 0 2.47043e-06 2.46094e-06 0 3.32966e-06 2.54145e-06 0 4.22014e-06 2.6447e-06 0 5.15037e-06 2.77552e-06 0 6.12967e-06 2.93375e-06 0 7.16765e-06 3.11968e-06 0 8.275e-06 3.34176e-06 0 9.46338e-06 3.5965e-06 0 1.07453e-05 3.8896e-06 0 1.2135e-05 4.22676e-06 0 1.36479e-05 4.60608e-06 0 1.53012e-05 5.03777e-06 0 1.71145e-05 5.52044e-06 0 1.91087e-05 6.05282e-06 0 2.13079e-05 6.64167e-06 0 2.37388e-05 7.26947e-06 0 2.64304e-05 7.91988e-06 0 2.94164e-05 8.55102e-06 0 3.27338e-05 9.09654e-06 0 3.6426e-05 9.38656e-06 0 4.05469e-05 9.18212e-06 0 4.51613e-05 8.04362e-06 0 5.03442e-05 5.06295e-06 0 5.61224e-05 -1.33236e-06 0 6.21826e-05 -1.41351e-05 0 6.65994e-05 -3.89965e-05 0 6.10037e-05 -8.49808e-05 0 1.80771e-05 -0.000155593 0 -9.95028e-05 -0.000203359 0 0 2.08791e-06 0 8.20324e-07 2.09894e-06 0 1.64835e-06 2.12826e-06 0 2.49169e-06 2.1776e-06 0 3.35846e-06 2.24893e-06 0 4.25685e-06 2.3404e-06 0 5.1955e-06 2.45629e-06 0 6.1838e-06 2.59646e-06 0 7.23152e-06 2.76115e-06 0 8.34945e-06 2.95786e-06 0 9.54936e-06 3.18346e-06 0 1.08438e-05 3.44297e-06 0 1.22473e-05 3.74136e-06 0 1.3775e-05 4.07687e-06 0 1.54441e-05 4.45832e-06 0 1.72738e-05 4.88418e-06 0 1.92842e-05 5.3529e-06 0 2.1498e-05 5.86914e-06 0 2.39389e-05 6.41628e-06 0 2.66311e-05 6.97669e-06 0 2.9599e-05 7.5077e-06 0 3.28639e-05 7.94394e-06 0 3.6441e-05 8.11438e-06 0 4.0332e-05 7.7823e-06 0 4.451e-05 6.51287e-06 0 4.8878e-05 3.41684e-06 0 5.31463e-05 -3.00334e-06 0 5.64288e-05 -1.54528e-05 0 5.59193e-05 -3.85147e-05 0 4.30614e-05 -7.78482e-05 0 -2.62816e-06 -0.000130828 0 -9.88112e-05 -0.000160354 0 -2.99355e-20 1.81395e-06 0 8.2645e-07 1.82355e-06 0 1.66068e-06 1.84905e-06 0 2.5104e-06 1.89196e-06 0 3.38379e-06 1.954e-06 0 4.28915e-06 2.03354e-06 0 5.23519e-06 2.13433e-06 0 6.23143e-06 2.25623e-06 0 7.2877e-06 2.39946e-06 0 8.41493e-06 2.5705e-06 0 9.62497e-06 2.76665e-06 0 1.09305e-05 2.99222e-06 0 1.23459e-05 3.25149e-06 0 1.38866e-05 3.54287e-06 0 1.55695e-05 3.87383e-06 0 1.74133e-05 4.24282e-06 0 1.94375e-05 4.64814e-06 0 2.16632e-05 5.0928e-06 0 2.41115e-05 5.56142e-06 0 2.68015e-05 6.0362e-06 0 2.9749e-05 6.47552e-06 0 3.29598e-05 6.81725e-06 0 3.64215e-05 6.89626e-06 0 4.00853e-05 6.48695e-06 0 4.38367e-05 5.17619e-06 0 4.74185e-05 2.12848e-06 0 5.02636e-05 -4.02268e-06 0 5.10418e-05 -1.56148e-05 0 4.64628e-05 -3.61763e-05 0 2.86187e-05 -6.88179e-05 0 -1.70172e-05 -0.000108258 0 -9.72756e-05 -0.000126801 0 0 1.5381e-06 0 8.31718e-07 1.54625e-06 0 1.67129e-06 1.56789e-06 0 2.52649e-06 1.60431e-06 0 3.40558e-06 1.65696e-06 0 4.31692e-06 1.72447e-06 0 5.26932e-06 1.81e-06 0 6.27238e-06 1.91346e-06 0 7.33601e-06 2.035e-06 0 8.47122e-06 2.18014e-06 0 9.68996e-06 2.34656e-06 0 1.1005e-05 2.53791e-06 0 1.24307e-05 2.75777e-06 0 1.39824e-05 3.00474e-06 0 1.56769e-05 3.28502e-06 0 1.75327e-05 3.59714e-06 0 1.95684e-05 3.93936e-06 0 2.18037e-05 4.31346e-06 0 2.4257e-05 4.7057e-06 0 2.69433e-05 5.09907e-06 0 2.98696e-05 5.45483e-06 0 3.30274e-05 5.71624e-06 0 3.63787e-05 5.73075e-06 0 3.98276e-05 5.29218e-06 0 4.31792e-05 4.0244e-06 0 4.60336e-05 1.17539e-06 0 4.75922e-05 -4.44975e-06 0 4.62042e-05 -1.47872e-05 0 3.83942e-05 -3.24281e-05 0 1.72803e-05 -5.87614e-05 0 -2.70077e-05 -8.78696e-05 0 -9.55235e-05 -9.96207e-05 0 0 1.26065e-06 0 8.36121e-07 1.26733e-06 0 1.68016e-06 1.28508e-06 0 2.53993e-06 1.31495e-06 0 3.42378e-06 1.35813e-06 0 4.34013e-06 1.41351e-06 0 5.29785e-06 1.48367e-06 0 6.3066e-06 1.56852e-06 0 7.37638e-06 1.6682e-06 0 8.51827e-06 1.78723e-06 0 9.74426e-06 1.9237e-06 0 1.10672e-05 2.08058e-06 0 1.25014e-05 2.26079e-06 0 1.40623e-05 2.46313e-06 0 1.57665e-05 2.6926e-06 0 1.76321e-05 2.94786e-06 0 1.96771e-05 3.22731e-06 0 2.19199e-05 3.53184e-06 0 2.43767e-05 3.8497e-06 0 2.70582e-05 4.16557e-06 0 2.99642e-05 4.44526e-06 0 3.30731e-05 4.6394e-06 0 3.63238e-05 4.6141e-06 0 3.95789e-05 4.19001e-06 0 4.25728e-05 3.04125e-06 0 4.47843e-05 5.23286e-07 0 4.523e-05 -4.36057e-06 0 4.20433e-05 -1.31446e-05 0 3.17562e-05 -2.76466e-05 0 8.57725e-06 -4.82154e-05 0 -3.39487e-05 -6.93816e-05 0 -9.38647e-05 -7.6833e-05 0 0 9.81876e-07 0 8.39653e-07 9.87081e-07 0 1.68727e-06 1.00091e-06 0 2.55072e-06 1.02419e-06 0 3.43839e-06 1.05785e-06 0 4.35875e-06 1.101e-06 0 5.32073e-06 1.15568e-06 0 6.33405e-06 1.2218e-06 0 7.40876e-06 1.29949e-06 0 8.556e-06 1.39224e-06 0 9.7878e-06 1.49857e-06 0 1.1117e-05 1.62079e-06 0 1.25581e-05 1.76114e-06 0 1.41264e-05 1.91869e-06 0 1.58383e-05 2.09725e-06 0 1.77116e-05 2.29571e-06 0 1.97639e-05 2.51269e-06 0 2.20124e-05 2.74853e-06 0 2.44713e-05 2.99376e-06 0 2.7148e-05 3.23558e-06 0 3.00358e-05 3.44578e-06 0 3.31023e-05 3.58406e-06 0 3.62669e-05 3.54049e-06 0 3.93569e-05 3.16882e-06 0 4.20484e-05 2.20435e-06 0 4.37222e-05 1.28512e-07 0 4.32546e-05 -3.84171e-06 0 3.86443e-05 -1.08577e-05 0 2.65306e-05 -2.21326e-05 0 2.09908e-06 -3.74866e-05 0 -3.87198e-05 -5.243e-05 0 -9.24494e-05 -5.70954e-05 0 -3.21841e-21 7.02075e-07 0 8.42308e-07 7.05798e-07 0 1.69261e-06 7.15695e-07 0 2.55883e-06 7.32347e-07 0 3.44937e-06 7.56421e-07 0 4.37275e-06 7.87291e-07 0 5.33794e-06 8.26403e-07 0 6.35469e-06 8.73705e-07 0 7.4331e-06 9.29273e-07 0 8.58435e-06 9.95618e-07 0 9.82053e-06 1.07167e-06 0 1.11545e-05 1.15908e-06 0 1.26007e-05 1.25943e-06 0 1.41745e-05 1.37206e-06 0 1.58921e-05 1.49964e-06 0 1.77712e-05 1.64135e-06 0 1.98288e-05 1.79612e-06 0 2.20814e-05 1.96402e-06 0 2.45416e-05 2.13808e-06 0 2.7214e-05 2.30868e-06 0 3.00872e-05 2.45479e-06 0 3.31198e-05 2.54656e-06 0 3.62163e-05 2.50232e-06 0 3.91766e-05 2.21393e-06 0 4.16317e-05 1.48635e-06 0 4.28887e-05 -5.96606e-08 0 4.17244e-05 -2.98578e-06 0 3.60601e-05 -8.08761e-06 0 2.26723e-05 -1.61199e-05 0 -2.48273e-06 -2.67313e-05 0 -4.18937e-05 -3.66437e-05 0 -9.1351e-05 -3.94469e-05 0 0 4.21539e-07 0 8.44083e-07 4.23776e-07 0 1.69619e-06 4.29719e-07 0 2.56424e-06 4.39721e-07 0 3.4567e-06 4.54179e-07 0 4.38211e-06 4.72719e-07 0 5.34943e-06 4.9621e-07 0 6.36848e-06 5.24619e-07 0 7.44937e-06 5.57992e-07 0 8.60331e-06 5.97836e-07 0 9.8424e-06 6.43508e-07 0 1.11795e-05 6.95995e-07 0 1.26292e-05 7.5625e-07 0 1.42066e-05 8.23858e-07 0 1.5928e-05 9.00423e-07 0 1.78109e-05 9.85425e-07 0 1.98721e-05 1.07821e-06 0 2.21273e-05 1.17871e-06 0 2.45881e-05 1.2827e-06 0 2.72575e-05 1.38419e-06 0 3.01202e-05 1.47021e-06 0 3.31294e-05 1.52242e-06 0 3.61787e-05 1.49053e-06 0 3.90496e-05 1.30819e-06 0 4.13423e-05 8.55987e-07 0 4.23149e-05 -9.70014e-08 0 4.0681e-05 -1.88822e-06 0 3.43219e-05 -4.98305e-06 0 2.01311e-05 -9.78886e-06 0 -5.40975e-06 -1.60111e-05 0 -4.38345e-05 -2.16685e-05 0 -9.06048e-05 -2.3158e-05 0 0 1.40562e-07 0 8.44974e-07 1.41308e-07 0 1.69798e-06 1.4329e-07 0 2.56697e-06 1.46626e-07 0 3.46039e-06 1.51448e-07 0 4.3868e-06 1.57631e-07 0 5.35521e-06 1.65465e-07 0 6.37541e-06 1.74939e-07 0 7.45754e-06 1.86069e-07 0 8.61282e-06 1.99356e-07 0 9.85338e-06 2.14587e-07 0 1.11921e-05 2.3209e-07 0 1.26435e-05 2.52181e-07 0 1.42227e-05 2.74723e-07 0 1.59461e-05 3.00247e-07 0 1.78309e-05 3.28578e-07 0 1.98938e-05 3.5949e-07 0 2.21502e-05 3.92953e-07 0 2.46114e-05 4.27539e-07 0 2.72791e-05 4.61223e-07 0 3.01365e-05 4.89617e-07 0 3.31335e-05 5.06542e-07 0 3.61587e-05 4.95011e-07 0 3.89838e-05 4.32667e-07 0 4.11937e-05 2.79304e-07 0 4.20218e-05 -4.25966e-08 0 4.01508e-05 -6.45534e-07 0 3.34461e-05 -1.68252e-06 0 1.88668e-05 -3.2817e-06 0 -6.83953e-06 -5.33152e-06 0 -4.47578e-05 -7.17038e-06 0 -9.02271e-05 -7.63659e-06 0 0 -1.40562e-07 0 8.44974e-07 -1.41308e-07 0 1.69798e-06 -1.4329e-07 0 2.56697e-06 -1.46626e-07 0 3.46039e-06 -1.51448e-07 0 4.3868e-06 -1.57631e-07 0 5.35521e-06 -1.65465e-07 0 6.37541e-06 -1.74939e-07 0 7.45754e-06 -1.86069e-07 0 8.61282e-06 -1.99356e-07 0 9.85338e-06 -2.14587e-07 0 1.11921e-05 -2.3209e-07 0 1.26435e-05 -2.52181e-07 0 1.42227e-05 -2.74723e-07 0 1.59461e-05 -3.00247e-07 0 1.78309e-05 -3.28578e-07 0 1.98938e-05 -3.5949e-07 0 2.21502e-05 -3.92953e-07 0 2.46114e-05 -4.27539e-07 0 2.72791e-05 -4.61223e-07 0 3.01365e-05 -4.89617e-07 0 3.31335e-05 -5.06542e-07 0 3.61587e-05 -4.95011e-07 0 3.89838e-05 -4.32667e-07 0 4.11937e-05 -2.79304e-07 0 4.20218e-05 4.25966e-08 0 4.01508e-05 6.45534e-07 0 3.34461e-05 1.68252e-06 0 1.88668e-05 3.2817e-06 0 -6.83953e-06 5.33152e-06 0 -4.47578e-05 7.17038e-06 0 -9.02271e-05 7.63659e-06 0 0 -4.21539e-07 0 8.44083e-07 -4.23776e-07 0 1.69619e-06 -4.29719e-07 0 2.56424e-06 -4.39721e-07 0 3.4567e-06 -4.54179e-07 0 4.38211e-06 -4.72719e-07 0 5.34943e-06 -4.9621e-07 0 6.36848e-06 -5.24619e-07 0 7.44937e-06 -5.57992e-07 0 8.60331e-06 -5.97836e-07 0 9.8424e-06 -6.43508e-07 0 1.11795e-05 -6.95995e-07 0 1.26292e-05 -7.5625e-07 0 1.42066e-05 -8.23858e-07 0 1.5928e-05 -9.00423e-07 0 1.78109e-05 -9.85425e-07 0 1.98721e-05 -1.07821e-06 0 2.21273e-05 -1.17871e-06 0 2.45881e-05 -1.2827e-06 0 2.72575e-05 -1.38419e-06 0 3.01202e-05 -1.47021e-06 0 3.31294e-05 -1.52242e-06 0 3.61787e-05 -1.49053e-06 0 3.90496e-05 -1.30819e-06 0 4.13423e-05 -8.55987e-07 0 4.23149e-05 9.70014e-08 0 4.0681e-05 1.88822e-06 0 3.43219e-05 4.98305e-06 0 2.01311e-05 9.78886e-06 0 -5.40975e-06 1.60111e-05 0 -4.38345e-05 2.16685e-05 0 -9.06048e-05 2.3158e-05 0 0 -7.02075e-07 0 8.42308e-07 -7.05798e-07 0 1.69261e-06 -7.15695e-07 0 2.55883e-06 -7.32347e-07 0 3.44937e-06 -7.56421e-07 0 4.37275e-06 -7.87291e-07 0 5.33794e-06 -8.26403e-07 0 6.35469e-06 -8.73705e-07 0 7.4331e-06 -9.29273e-07 0 8.58435e-06 -9.95618e-07 0 9.82053e-06 -1.07167e-06 0 1.11545e-05 -1.15908e-06 0 1.26007e-05 -1.25943e-06 0 1.41745e-05 -1.37206e-06 0 1.58921e-05 -1.49964e-06 0 1.77712e-05 -1.64135e-06 0 1.98288e-05 -1.79612e-06 0 2.20814e-05 -1.96402e-06 0 2.45416e-05 -2.13808e-06 0 2.7214e-05 -2.30868e-06 0 3.00872e-05 -2.45479e-06 0 3.31198e-05 -2.54656e-06 0 3.62163e-05 -2.50232e-06 0 3.91766e-05 -2.21393e-06 0 4.16317e-05 -1.48635e-06 0 4.28887e-05 5.96606e-08 0 4.17244e-05 2.98578e-06 0 3.60601e-05 8.08761e-06 0 2.26723e-05 1.61199e-05 0 -2.48273e-06 2.67313e-05 0 -4.18937e-05 3.66437e-05 0 -9.1351e-05 3.94469e-05 0 1.53036e-20 -9.81876e-07 0 8.39653e-07 -9.87081e-07 0 1.68727e-06 -1.00091e-06 0 2.55072e-06 -1.02419e-06 0 3.43839e-06 -1.05785e-06 0 4.35875e-06 -1.101e-06 0 5.32073e-06 -1.15568e-06 0 6.33405e-06 -1.2218e-06 0 7.40876e-06 -1.29949e-06 0 8.556e-06 -1.39224e-06 0 9.7878e-06 -1.49857e-06 0 1.1117e-05 -1.62079e-06 0 1.25581e-05 -1.76114e-06 0 1.41264e-05 -1.91869e-06 0 1.58383e-05 -2.09725e-06 0 1.77116e-05 -2.29571e-06 0 1.97639e-05 -2.51269e-06 0 2.20124e-05 -2.74853e-06 0 2.44713e-05 -2.99376e-06 0 2.7148e-05 -3.23558e-06 0 3.00358e-05 -3.44578e-06 0 3.31023e-05 -3.58406e-06 0 3.62669e-05 -3.54049e-06 0 3.93569e-05 -3.16882e-06 0 4.20484e-05 -2.20435e-06 0 4.37222e-05 -1.28512e-07 0 4.32546e-05 3.84171e-06 0 3.86443e-05 1.08577e-05 0 2.65306e-05 2.21326e-05 0 2.09908e-06 3.74866e-05 0 -3.87198e-05 5.243e-05 0 -9.24494e-05 5.70954e-05 0 0 -1.26065e-06 0 8.36121e-07 -1.26733e-06 0 1.68016e-06 -1.28508e-06 0 2.53993e-06 -1.31495e-06 0 3.42378e-06 -1.35813e-06 0 4.34013e-06 -1.41351e-06 0 5.29785e-06 -1.48367e-06 0 6.3066e-06 -1.56852e-06 0 7.37638e-06 -1.6682e-06 0 8.51827e-06 -1.78723e-06 0 9.74426e-06 -1.9237e-06 0 1.10672e-05 -2.08058e-06 0 1.25014e-05 -2.26079e-06 0 1.40623e-05 -2.46313e-06 0 1.57665e-05 -2.6926e-06 0 1.76321e-05 -2.94786e-06 0 1.96771e-05 -3.22731e-06 0 2.19199e-05 -3.53184e-06 0 2.43767e-05 -3.8497e-06 0 2.70582e-05 -4.16557e-06 0 2.99642e-05 -4.44526e-06 0 3.30731e-05 -4.6394e-06 0 3.63238e-05 -4.6141e-06 0 3.95789e-05 -4.19001e-06 0 4.25728e-05 -3.04125e-06 0 4.47843e-05 -5.23286e-07 0 4.523e-05 4.36057e-06 0 4.20433e-05 1.31446e-05 0 3.17562e-05 2.76466e-05 0 8.57725e-06 4.82154e-05 0 -3.39487e-05 6.93816e-05 0 -9.38647e-05 7.6833e-05 0 0 -1.5381e-06 0 8.31718e-07 -1.54625e-06 0 1.67129e-06 -1.56789e-06 0 2.52649e-06 -1.60431e-06 0 3.40558e-06 -1.65696e-06 0 4.31692e-06 -1.72447e-06 0 5.26932e-06 -1.81e-06 0 6.27238e-06 -1.91346e-06 0 7.33601e-06 -2.035e-06 0 8.47122e-06 -2.18014e-06 0 9.68996e-06 -2.34656e-06 0 1.1005e-05 -2.53791e-06 0 1.24307e-05 -2.75777e-06 0 1.39824e-05 -3.00474e-06 0 1.56769e-05 -3.28502e-06 0 1.75327e-05 -3.59714e-06 0 1.95684e-05 -3.93936e-06 0 2.18037e-05 -4.31346e-06 0 2.4257e-05 -4.7057e-06 0 2.69433e-05 -5.09907e-06 0 2.98696e-05 -5.45483e-06 0 3.30274e-05 -5.71624e-06 0 3.63787e-05 -5.73075e-06 0 3.98276e-05 -5.29218e-06 0 4.31792e-05 -4.0244e-06 0 4.60336e-05 -1.17539e-06 0 4.75922e-05 4.44975e-06 0 4.62042e-05 1.47872e-05 0 3.83942e-05 3.24281e-05 0 1.72803e-05 5.87614e-05 0 -2.70077e-05 8.78696e-05 0 -9.55235e-05 9.96207e-05 0 0 -1.81395e-06 0 8.2645e-07 -1.82355e-06 0 1.66068e-06 -1.84905e-06 0 2.5104e-06 -1.89196e-06 0 3.38379e-06 -1.954e-06 0 4.28915e-06 -2.03354e-06 0 5.23519e-06 -2.13433e-06 0 6.23143e-06 -2.25623e-06 0 7.2877e-06 -2.39946e-06 0 8.41493e-06 -2.5705e-06 0 9.62497e-06 -2.76665e-06 0 1.09305e-05 -2.99222e-06 0 1.23459e-05 -3.25149e-06 0 1.38866e-05 -3.54287e-06 0 1.55695e-05 -3.87383e-06 0 1.74133e-05 -4.24282e-06 0 1.94375e-05 -4.64814e-06 0 2.16632e-05 -5.0928e-06 0 2.41115e-05 -5.56142e-06 0 2.68015e-05 -6.0362e-06 0 2.9749e-05 -6.47552e-06 0 3.29598e-05 -6.81725e-06 0 3.64215e-05 -6.89626e-06 0 4.00853e-05 -6.48695e-06 0 4.38367e-05 -5.17619e-06 0 4.74185e-05 -2.12848e-06 0 5.02636e-05 4.02268e-06 0 5.10418e-05 1.56148e-05 0 4.64628e-05 3.61763e-05 0 2.86187e-05 6.88179e-05 0 -1.70172e-05 0.000108258 0 -9.72756e-05 0.000126801 0 -4.59421e-20 -2.08791e-06 0 8.20324e-07 -2.09894e-06 0 1.64835e-06 -2.12826e-06 0 2.49169e-06 -2.1776e-06 0 3.35846e-06 -2.24893e-06 0 4.25685e-06 -2.3404e-06 0 5.1955e-06 -2.45629e-06 0 6.1838e-06 -2.59646e-06 0 7.23152e-06 -2.76115e-06 0 8.34945e-06 -2.95786e-06 0 9.54936e-06 -3.18346e-06 0 1.08438e-05 -3.44297e-06 0 1.22473e-05 -3.74136e-06 0 1.3775e-05 -4.07687e-06 0 1.54441e-05 -4.45832e-06 0 1.72738e-05 -4.88418e-06 0 1.92842e-05 -5.3529e-06 0 2.1498e-05 -5.86914e-06 0 2.39389e-05 -6.41628e-06 0 2.66311e-05 -6.97669e-06 0 2.9599e-05 -7.5077e-06 0 3.28639e-05 -7.94394e-06 0 3.6441e-05 -8.11438e-06 0 4.0332e-05 -7.7823e-06 0 4.451e-05 -6.51287e-06 0 4.8878e-05 -3.41684e-06 0 5.31463e-05 3.00334e-06 0 5.64288e-05 1.54528e-05 0 5.59193e-05 3.85147e-05 0 4.30614e-05 7.78482e-05 0 -2.62816e-06 0.000130828 0 -9.88112e-05 0.000160354 0 0 -2.35969e-06 0 8.1336e-07 -2.37214e-06 0 1.63433e-06 -2.40524e-06 0 2.47043e-06 -2.46094e-06 0 3.32966e-06 -2.54145e-06 0 4.22014e-06 -2.6447e-06 0 5.15037e-06 -2.77552e-06 0 6.12967e-06 -2.93375e-06 0 7.16765e-06 -3.11968e-06 0 8.275e-06 -3.34176e-06 0 9.46338e-06 -3.5965e-06 0 1.07453e-05 -3.8896e-06 0 1.2135e-05 -4.22676e-06 0 1.36479e-05 -4.60608e-06 0 1.53012e-05 -5.03777e-06 0 1.71145e-05 -5.52044e-06 0 1.91087e-05 -6.05282e-06 0 2.13079e-05 -6.64167e-06 0 2.37388e-05 -7.26947e-06 0 2.64304e-05 -7.91988e-06 0 2.94164e-05 -8.55102e-06 0 3.27338e-05 -9.09654e-06 0 3.6426e-05 -9.38656e-06 0 4.05469e-05 -9.18212e-06 0 4.51613e-05 -8.04362e-06 0 5.03442e-05 -5.06295e-06 0 5.61224e-05 1.33236e-06 0 6.21826e-05 1.41351e-05 0 6.65994e-05 3.89965e-05 0 6.10037e-05 8.49808e-05 0 1.80771e-05 0.000155593 0 -9.95028e-05 0.000203359 0 0 -2.62901e-06 0 8.05547e-07 -2.64286e-06 0 1.6186e-06 -2.67969e-06 0 2.44657e-06 -2.74166e-06 0 3.29736e-06 -2.83125e-06 0 4.17895e-06 -2.94612e-06 0 5.09976e-06 -3.09168e-06 0 6.06893e-06 -3.26773e-06 0 7.09598e-06 -3.47461e-06 0 8.19147e-06 -3.72175e-06 0 9.36689e-06 -4.00527e-06 0 1.06346e-05 -4.33158e-06 0 1.20089e-05 -4.70709e-06 0 1.35051e-05 -5.12982e-06 0 1.51404e-05 -5.61144e-06 0 1.69348e-05 -6.15078e-06 0 1.89101e-05 -6.74701e-06 0 2.10919e-05 -7.4094e-06 0 2.35094e-05 -8.11998e-06 0 2.61968e-05 -8.86469e-06 0 2.91966e-05 -9.60438e-06 0 3.25616e-05 -1.0274e-05 0 3.63631e-05 -1.07119e-05 0 4.07066e-05 -1.06859e-05 0 4.57488e-05 -9.76973e-06 0 5.17417e-05 -7.07512e-06 0 5.90553e-05 -1.02592e-06 0 6.80695e-05 1.15238e-05 0 7.82165e-05 3.71327e-05 0 8.28097e-05 8.88966e-05 0 4.83396e-05 0.000181856 0 -9.78944e-05 0.000260897 0 -9.55715e-20 -2.89559e-06 0 7.96909e-07 -2.91083e-06 0 1.6012e-06 -2.95133e-06 0 2.42019e-06 -3.01948e-06 0 3.26164e-06 -3.11801e-06 0 4.13341e-06 -3.24434e-06 0 5.04378e-06 -3.40441e-06 0 6.00177e-06 -3.59803e-06 0 7.01674e-06 -3.82555e-06 0 8.09908e-06 -4.09738e-06 0 9.26014e-06 -4.40929e-06 0 1.05122e-05 -4.76836e-06 0 1.18693e-05 -5.18176e-06 0 1.33467e-05 -5.64743e-06 0 1.4962e-05 -6.17858e-06 0 1.67351e-05 -6.77434e-06 0 1.86887e-05 -7.43449e-06 0 2.08497e-05 -8.17124e-06 0 2.32501e-05 -8.96652e-06 0 2.59286e-05 -9.8096e-06 0 2.89364e-05 -1.06659e-05 0 3.23412e-05 -1.14738e-05 0 3.62407e-05 -1.20869e-05 0 4.07895e-05 -1.22888e-05 0 4.62322e-05 -1.16841e-05 0 5.29934e-05 -9.44561e-06 0 6.17938e-05 -4.07627e-06 0 7.37869e-05 7.53379e-06 0 9.02225e-05 3.24568e-05 0 0.000108226 8.77624e-05 0 9.24502e-05 0.000207219 0 -9.06766e-05 0.000341906 0 0 -3.15917e-06 0 7.87457e-07 -3.17577e-06 0 1.58217e-06 -3.21989e-06 0 2.39133e-06 -3.29412e-06 0 3.22256e-06 -3.40143e-06 0 4.08359e-06 -3.53903e-06 0 4.98254e-06 -3.71338e-06 0 5.92829e-06 -3.92427e-06 0 6.93002e-06 -4.1721e-06 0 7.99797e-06 -4.46822e-06 0 9.1433e-06 -4.80806e-06 0 1.03781e-05 -5.19939e-06 0 1.17163e-05 -5.65014e-06 0 1.31732e-05 -6.15821e-06 0 1.4766e-05 -6.7384e-06 0 1.65154e-05 -7.39024e-06 0 1.84443e-05 -8.11425e-06 0 2.0581e-05 -8.92596e-06 0 2.296e-05 -9.80759e-06 0 2.56241e-05 -1.07527e-05 0 2.86325e-05 -1.1733e-05 0 3.20663e-05 -1.26924e-05 0 3.60474e-05 -1.35059e-05 0 4.07747e-05 -1.39813e-05 0 4.65723e-05 -1.37712e-05 0 5.40236e-05 -1.21494e-05 0 6.41821e-05 -7.78638e-06 0 7.89908e-05 2.16118e-06 0 0.000101839 2.46329e-05 0 0.000136113 7.93486e-05 0 0.000155904 0.000225515 0 -6.94513e-05 0.000463403 0 3.00967e-19 -3.41947e-06 0 7.77202e-07 -3.43741e-06 0 1.56153e-06 -3.48507e-06 0 2.36002e-06 -3.56527e-06 0 3.18016e-06 -3.68121e-06 0 4.02954e-06 -3.82987e-06 0 4.91611e-06 -4.01824e-06 0 5.84857e-06 -4.24609e-06 0 6.83594e-06 -4.51386e-06 0 7.88826e-06 -4.83384e-06 0 9.01649e-06 -5.2011e-06 0 1.02325e-05 -5.62413e-06 0 1.15501e-05 -6.11163e-06 0 1.29844e-05 -6.66149e-06 0 1.45527e-05 -7.29011e-06 0 1.62757e-05 -7.99754e-06 0 1.81769e-05 -8.78517e-06 0 2.02855e-05 -9.6722e-06 0 2.26382e-05 -1.06415e-05 0 2.52815e-05 -1.16917e-05 0 2.82815e-05 -1.28025e-05 0 3.17311e-05 -1.39248e-05 0 3.57726e-05 -1.49609e-05 0 4.06428e-05 -1.57499e-05 0 4.67331e-05 -1.60073e-05 0 5.4761e-05 -1.51445e-05 0 6.60682e-05 -1.20834e-05 0 8.33155e-05 -4.49241e-06 0 0.000112066 1.35999e-05 0 0.000163861 6.15543e-05 0 0.000242911 0.000223192 0 -1.00314e-05 0.000661184 0 2.02229e-19 -3.67624e-06 0 7.66164e-07 -3.69548e-06 0 1.5393e-06 -3.74662e-06 0 2.32631e-06 -3.83267e-06 0 3.13452e-06 -3.95707e-06 0 3.97135e-06 -4.11657e-06 0 4.84459e-06 -4.31867e-06 0 5.76276e-06 -4.56314e-06 0 6.73466e-06 -4.85044e-06 0 7.77014e-06 -5.19379e-06 0 8.87994e-06 -5.58794e-06 0 1.00757e-05 -6.04207e-06 0 1.1371e-05 -6.56564e-06 0 1.27808e-05 -7.15656e-06 0 1.43224e-05 -7.83291e-06 0 1.60163e-05 -8.5953e-06 0 1.78864e-05 -9.44611e-06 0 1.9963e-05 -1.04085e-05 0 2.22843e-05 -1.14663e-05 0 2.48997e-05 -1.2624e-05 0 2.78811e-05 -1.38704e-05 0 3.13309e-05 -1.51651e-05 0 3.54078e-05 -1.64421e-05 0 4.03781e-05 -1.75775e-05 0 4.66847e-05 -1.83618e-05 0 5.51467e-05 -1.83728e-05 0 6.73216e-05 -1.6855e-05 0 8.64234e-05 -1.22071e-05 0 0.000119819 -2.91002e-07 0 0.000187218 3.35174e-05 0 0.000346885 0.000176402 0 0.000170598 0.00102214 0 0 -3.9292e-06 0 7.54357e-07 -3.94973e-06 0 1.51553e-06 -4.00427e-06 0 2.29026e-06 -4.09605e-06 0 3.08571e-06 -4.22871e-06 0 3.90912e-06 -4.39882e-06 0 4.76811e-06 -4.61435e-06 0 5.67098e-06 -4.87506e-06 0 6.62634e-06 -5.18146e-06 0 7.64378e-06 -5.54767e-06 0 8.73383e-06 -5.96812e-06 0 9.90789e-06 -6.45266e-06 0 1.11793e-05 -7.01156e-06 0 1.25626e-05 -7.64274e-06 0 1.40751e-05 -8.36599e-06 0 1.57373e-05 -9.18254e-06 0 1.75732e-05 -1.00959e-05 0 1.96135e-05 -1.11333e-05 0 2.18978e-05 -1.22799e-05 0 2.44777e-05 -1.35467e-05 0 2.74293e-05 -1.49323e-05 0 3.08618e-05 -1.64064e-05 0 3.4946e-05 -1.79379e-05 0 3.9968e-05 -1.9444e-05 0 4.64043e-05 -2.07979e-05 0 5.51355e-05 -2.17636e-05 0 6.78429e-05 -2.19546e-05 0 8.80479e-05 -2.06524e-05 0 0.000124147 -1.6213e-05 0 0.000201149 -2.98335e-06 0 0.000432548 6.23914e-05 0 0.00085829 0.00190261 0 0 -4.17812e-06 0 7.41799e-07 -4.19989e-06 0 1.49025e-06 -4.25776e-06 0 2.25192e-06 -4.35512e-06 0 3.0338e-06 -4.49586e-06 0 3.84294e-06 -4.67632e-06 0 4.68677e-06 -4.90496e-06 0 5.57337e-06 -5.18152e-06 0 6.51113e-06 -5.50655e-06 0 7.50939e-06 -5.89506e-06 0 8.5784e-06 -6.34116e-06 0 9.72929e-06 -6.8554e-06 0 1.09751e-05 -7.4488e-06 0 1.23301e-05 -8.11934e-06 0 1.38113e-05 -8.88853e-06 0 1.5439e-05 -9.75826e-06 0 1.72373e-05 -1.07332e-05 0 1.92371e-05 -1.1845e-05 0 2.14786e-05 -1.30802e-05 0 2.40149e-05 -1.44565e-05 0 2.69247e-05 -1.59835e-05 0 3.03214e-05 -1.76413e-05 0 3.43824e-05 -1.94357e-05 0 3.94042e-05 -2.13271e-05 0 4.5877e-05 -2.32752e-05 0 5.46997e-05 -2.52375e-05 0 6.7574e-05 -2.7213e-05 0 8.80373e-05 -2.94181e-05 0 0.000124482 -3.29467e-05 0 0.000201952 -4.29873e-05 0 0.000439695 -9.71792e-05 0 0.014894 -0.00655551 0 </DataArray> 
</PointData> 
<Points> 
<DataArray type="Float32" NumberOfComponents="3"> 