<?xml version="1.0"?> 
<VTKFile type="StructuredGrid" version="0.1"> 
<StructuredGrid WholeExtent="0 31 0 31 0 0"> 
<Piece Extent="0 31 0 31 0 0"> 
<PointData>
<DataArray type="Float32" Name="B" format="ascii" NumberOfComponents="3"> 
-0.00168575 0.0188346 0 5.39703e-05 -0.000253937 0 -1.98862e-05 -3.90212e-05 0 -3.09038e-05 6.7178e-06 0 -3.74355e-05 2.01222e-05 0 -4.49064e-05 2.25954e-05 0 -5.39284e-05 2.06809e-05 0 -6.40043e-05 1.71171e-05 0 -7.44169e-05 1.32152e-05 0 -8.43503e-05 9.73749e-06 0 -9.34123e-05 6.82988e-06 0 -0.000101247 4.57725e-06 0 -0.000107673 2.92109e-06 0 -0.000112618 1.754e-06 0 -0.000116064 9.60434e-07 0 -0.000118023 4.36016e-07 0 -0.000118505 9.61975e-08 0 -0.000117505 -1.25418e-07 0 -0.000114993 -2.76862e-07 0 -0.000110906 -3.90116e-07 0 -0.000105146 -4.85449e-07 0 -9.75883e-05 -5.73515e-07 0 -8.80832e-05 -6.56221e-07 0 -7.64744e-05 -7.26411e-07 0 -6.26021e-05 -7.6631e-07 0 -4.62588e-05 -7.4637e-07 0 -2.70151e-05 -6.23162e-07 0 -3.69588e-06 -3.20053e-07 0 2.71096e-05 3.72694e-07 0 7.67123e-05 2.36511e-06 0 0.000206973 1.24496e-05 0 -0.000714047 -0.00595477 0 7.69347e-05 0.000298613 0 0.000126764 4.9496e-05 0 2.62171e-05 1.41686e-05 0 -1.31286e-05 2.4565e-05 0 -3.18479e-05 3.1282e-05 0 -4.50055e-05 3.28825e-05 0 -5.67173e-05 3.11992e-05 0 -6.78751e-05 2.77004e-05 0 -7.8416e-05 2.34262e-05 0 -8.80739e-05 1.90724e-05 0 -9.66138e-05 1.50201e-05 0 -0.000103881 1.14433e-05 0 -0.000109791 8.37356e-06 0 -0.000114312 5.76268e-06 0 -0.000117437 3.52525e-06 0 -0.00011917 1.5642e-06 0 -0.000119509 -2.14679e-07 0 -0.000118435 -1.89967e-06 0 -0.000115904 -3.56785e-06 0 -0.000111841 -5.28398e-06 0 -0.000106136 -7.10078e-06 0 -9.865e-05 -9.05596e-06 0 -8.92189e-05 -1.1167e-05 0 -7.7671e-05 -1.3428e-05 0 -6.38479e-05 -1.58203e-05 0 -4.76064e-05 -1.83859e-05 0 -2.87263e-05 -2.14084e-05 0 -6.58546e-06 -2.58518e-05 0 2.053e-05 -3.45178e-05 0 5.60643e-05 -5.63834e-05 0 9.34276e-05 -0.000125805 0 -7.51845e-06 -0.000248681 0 5.95478e-06 0.000146239 0 3.61908e-05 9.478e-05 0 1.47073e-05 5.87582e-05 0 -1.09873e-05 4.91769e-05 0 -3.0429e-05 4.76375e-05 0 -4.61242e-05 4.63713e-05 0 -5.99353e-05 4.34645e-05 0 -7.23438e-05 3.89924e-05 0 -8.3352e-05 3.36336e-05 0 -9.29333e-05 2.80648e-05 0 -0.000101099 2.27112e-05 0 -0.000107878 1.77894e-05 0 -0.000113303 1.33616e-05 0 -0.000117402 9.3969e-06 0 -0.000120198 5.81516e-06 0 -0.000121705 2.51355e-06 0 -0.000121919 -6.17498e-07 0 -0.000120815 -3.68976e-06 0 -0.000118341 -6.80948e-06 0 -0.00011441 -1.0075e-05 0 -0.000108901 -1.35744e-05 0 -0.000101653 -1.73781e-05 0 -9.24715e-05 -2.15248e-05 0 -8.11448e-05 -2.60028e-05 0 -6.75033e-05 -3.0738e-05 0 -5.15334e-05 -3.56683e-05 0 -3.35226e-05 -4.10154e-05 0 -1.40884e-05 -4.79133e-05 0 5.67988e-06 -5.92471e-05 0 2.21876e-05 -8.0336e-05 0 2.19103e-05 -0.000115156 0 -1.54333e-05 -0.000141027 0 -1.03101e-05 0.000108431 0 2.95668e-06 9.34175e-05 0 -1.94638e-06 7.69039e-05 0 -1.61002e-05 6.81174e-05 0 -3.24172e-05 6.45233e-05 0 -4.88815e-05 6.17787e-05 0 -6.44952e-05 5.73833e-05 0 -7.82171e-05 5.11519e-05 0 -8.97209e-05 4.40175e-05 0 -9.9209e-05 3.68029e-05 0 -0.00010697 2.99443e-05 0 -0.000113229 2.36263e-05 0 -0.000118137 1.78787e-05 0 -0.00012179 1.26454e-05 0 -0.000124246 7.82496e-06 0 -0.000125529 3.29436e-06 0 -0.000125643 -1.07861e-06 0 -0.00012456 -5.43247e-06 0 -0.000122225 -9.90452e-06 0 -0.000118549 -1.46298e-05 0 -0.000113397 -1.97389e-05 0 -0.000106586 -2.53485e-05 0 -9.78717e-05 -3.15397e-05 0 -8.69552e-05 -3.8313e-05 0 -7.35387e-05 -4.55008e-05 0 -5.75594e-05 -5.26808e-05 0 -3.97797e-05 -5.93534e-05 0 -2.21849e-05 -6.59908e-05 0 -7.34914e-06 -7.46092e-05 0 1.27916e-06 -8.70774e-05 0 -1.42159e-06 -0.000101524 0 -1.7094e-05 -0.000108817 0 -1.39953e-05 9.41653e-05 0 -8.21646e-06 9.0657e-05 0 -1.05859e-05 8.51885e-05 0 -1.99877e-05 8.1872e-05 0 -3.43052e-05 8.0897e-05 0 -5.24182e-05 7.92971e-05 0 -7.11257e-05 7.33119e-05 0 -8.63892e-05 6.41552e-05 0 -9.81076e-05 5.44251e-05 0 -0.000107197 4.51412e-05 0 -0.000114329 3.66112e-05 0 -0.00011992 2.88788e-05 0 -0.00012422 2.18748e-05 0 -0.000127372 1.54784e-05 0 -0.000129459 9.54487e-06 0 -0.000130519 3.91898e-06 0 -0.000130557 -1.55963e-06 0 -0.000129549 -7.05838e-06 0 -0.000127445 -1.27468e-05 0 -0.000124154 -1.87995e-05 0 -0.000119542 -2.53978e-05 0 -0.000113411 -3.27245e-05 0 -0.000105469 -4.0946e-05 0 -9.52915e-05 -5.01598e-05 0 -8.22649e-05 -6.02323e-05 0 -6.56497e-05 -7.03583e-05 0 -4.59037e-05 -7.80778e-05 0 -2.76238e-05 -8.20954e-05 0 -1.46172e-05 -8.55867e-05 0 -8.08511e-06 -9.02662e-05 0 -8.85757e-06 -9.47226e-05 0 -1.58509e-05 -9.54031e-05 0 -1.26997e-05 8.7869e-05 0 -1.01418e-05 8.95785e-05 0 -1.21254e-05 9.05259e-05 0 -1.92757e-05 9.28203e-05 0 -3.21091e-05 9.74284e-05 0 -5.43782e-05 0.000103051 0 -8.2238e-05 9.21476e-05 0 -9.81821e-05 7.74453e-05 0 -0.000109106 6.42914e-05 0 -0.000117138 5.26868e-05 0 -0.00012324 4.24633e-05 0 -0.000127925 3.3395e-05 0 -0.000131475 2.52601e-05 0 -0.00013405 1.78479e-05 0 -0.000135733 1.0958e-05 0 -0.000136563 4.39777e-06 0 -0.000136548 -2.02243e-06 0 -0.000135668 -8.49757e-06 0 -0.00013388 -1.52274e-05 0 -0.000131107 -2.24252e-05 0 -0.000127229 -3.03267e-05 0 -0.000122062 -3.91961e-05 0 -0.000115309 -4.93298e-05 0 -0.00010648 -6.10494e-05 0 -9.46859e-05 -7.46225e-05 0 -7.79463e-05 -9.01433e-05 0 -4.95979e-05 -0.000102271 0 -2.74257e-05 -9.81261e-05 0 -1.54638e-05 -9.48621e-05 0 -9.81554e-06 -9.32221e-05 0 -9.33305e-06 -9.18851e-05 0 -1.26119e-05 -8.90518e-05 0 -8.741e-06 8.46395e-05 0 -7.2311e-06 8.92763e-05 0 -8.46804e-06 9.42842e-05 0 -1.32437e-05 0.000101215 0 -2.237e-05 0.000111838 0 -3.6938e-05 0.000129453 0 -5.32926e-05 0.000110004 0 -6.5254e-05 8.9058e-05 0 -7.36117e-05 7.25651e-05 0 -7.97065e-05 5.88491e-05 0 -8.43003e-05 4.71614e-05 0 -8.78096e-05 3.698e-05 0 -9.04615e-05 2.79256e-05 0 -9.23779e-05 1.96979e-05 0 -9.36203e-05 1.20441e-05 0 -9.42149e-05 4.73832e-06 0 -9.41651e-05 -2.43315e-06 0 -9.34567e-05 -9.68672e-06 0 -9.20587e-05 -1.72454e-05 0 -8.99193e-05 -2.53536e-05 0 -8.69556e-05 -3.42941e-05 0 -8.30341e-05 -4.44081e-05 0 -7.79317e-05 -5.61281e-05 0 -7.12614e-05 -7.0035e-05 0 -6.23261e-05 -8.69281e-05 0 -4.98892e-05 -0.000108516 0 -3.32966e-05 -0.000128814 0 -1.88556e-05 -0.00011213 0 -1.0265e-05 -0.000102299 0 -6.30714e-06 -9.57745e-05 0 -5.86801e-06 -9.06749e-05 0 -7.83993e-06 -8.55977e-05 0 -3.18513e-06 8.23462e-05 0 -1.48757e-06 8.86666e-05 0 -1.2703e-06 9.61217e-05 0 -2.99115e-06 0.000106054 0 -6.94015e-06 0.000120227 0 -1.2967e-05 0.000140881 0 -1.97173e-05 0.000120302 0 -2.5522e-05 9.66225e-05 0 -3.00008e-05 7.81098e-05 0 -3.34425e-05 6.30269e-05 0 -3.61358e-05 5.03749e-05 0 -3.8256e-05 3.94517e-05 0 -3.98949e-05 2.97731e-05 0 -4.10952e-05 2.09802e-05 0 -4.18729e-05 1.27866e-05 0 -4.22296e-05 4.94691e-06 0 -4.21595e-05 -2.76532e-06 0 -4.16526e-05 -1.05769e-05 0 -4.06952e-05 -1.8722e-05 0 -3.9269e-05 -2.74611e-05 0 -3.73467e-05 -3.71034e-05 0 -3.48824e-05 -4.80378e-05 0 -3.17945e-05 -6.07828e-05 0 -2.79357e-05 -7.60751e-05 0 -2.30662e-05 -9.49361e-05 0 -1.69647e-05 -0.000119108 0 -1.00864e-05 -0.000140284 0 -4.15622e-06 -0.000120247 0 -5.28893e-07 -0.000106588 0 7.27353e-07 -9.6955e-05 0 5.13629e-08 -8.95429e-05 0 -1.9561e-06 -8.308e-05 0 3.23271e-06 7.99186e-05 0 5.78232e-06 8.6994e-05 0 7.89981e-06 9.55443e-05 0 9.54141e-06 0.000106737 0 1.08218e-05 0.000122166 0 1.18696e-05 0.000143731 0 1.2588e-05 0.000123245 0 1.28165e-05 9.91858e-05 0 1.26009e-05 8.02593e-05 0 1.21047e-05 6.48362e-05 0 1.1478e-05 5.18945e-05 0 1.08313e-05 4.06996e-05 0 1.02436e-05 3.0748e-05 0 9.77243e-06 2.16716e-05 0 9.45951e-06 1.31808e-05 0 9.3341e-06 5.03078e-06 0 9.41414e-06 -3.00205e-06 0 9.70643e-06 -1.11406e-05 0 1.02058e-05 -1.96145e-05 0 1.08933e-05 -2.86799e-05 0 1.17326e-05 -3.86427e-05 0 1.26647e-05 -4.98915e-05 0 1.35996e-05 -6.29514e-05 0 1.44043e-05 -7.85753e-05 0 1.48942e-05 -9.77939e-05 0 1.48638e-05 -0.000122231 0 1.42263e-05 -0.000143149 0 1.31182e-05 -0.000122015 0 1.16451e-05 -0.00010695 0 9.728e-06 -9.59981e-05 0 7.32953e-06 -8.75476e-05 0 4.56488e-06 -8.04649e-05 0 9.87279e-06 7.68483e-05 0 1.34952e-05 8.3912e-05 0 1.75528e-05 9.23972e-05 0 2.24234e-05 0.000103243 0 2.87776e-05 0.000117942 0 3.69114e-05 0.000138991 0 4.5033e-05 0.000119311 0 5.12301e-05 9.67075e-05 0 5.51004e-05 7.89273e-05 0 5.74006e-05 6.42299e-05 0 5.87341e-05 5.17055e-05 0 5.94849e-05 4.07276e-05 0 5.9893e-05 3.08627e-05 0 6.01105e-05 2.17867e-05 0 6.0234e-05 1.32402e-05 0 6.03225e-05 5.00051e-06 0 6.04058e-05 -3.13691e-06 0 6.04882e-05 -1.1376e-05 0 6.05477e-05 -1.99258e-05 0 6.05311e-05 -2.90168e-05 0 6.03438e-05 -3.89199e-05 0 5.98302e-05 -4.99722e-05 0 5.87407e-05 -6.26202e-05 0 5.66739e-05 -7.74995e-05 0 5.30038e-05 -9.55215e-05 0 4.69477e-05 -0.000118419 0 3.88861e-05 -0.000138422 0 3.0721e-05 -0.00011769 0 2.42534e-05 -0.000103266 0 1.92161e-05 -9.26211e-05 0 1.49804e-05 -8.42558e-05 0 1.1206e-05 -7.72462e-05 0 1.62388e-05 7.30018e-05 0 2.08425e-05 7.94597e-05 0 2.64936e-05 8.69647e-05 0 3.3912e-05 9.6045e-05 0 4.45875e-05 0.000107573 0 6.18246e-05 0.000124235 0 8.19977e-05 0.000107897 0 9.37368e-05 8.9641e-05 0 0.000100865 7.45513e-05 0 0.00010539 6.15031e-05 0 0.000108327 4.99976e-05 0 0.000110253 3.96595e-05 0 0.000111514 3.01992e-05 0 0.00011233 2.13796e-05 0 0.000112834 1.29974e-05 0 0.000113108 4.87044e-06 0 0.00011319 -3.17331e-06 0 0.000113083 -1.13064e-05 0 0.000112752 -1.97036e-05 0 0.00011212 -2.85529e-05 0 0.000111051 -3.80647e-05 0 0.000109325 -4.84843e-05 0 0.000106584 -6.01086e-05 0 0.000102242 -7.3317e-05 0 9.52652e-05 -8.86069e-05 0 8.36336e-05 -0.000107095 0 6.35109e-05 -0.000123683 0 4.62632e-05 -0.000107265 0 3.5523e-05 -9.59534e-05 0 2.80028e-05 -8.70453e-05 0 2.22358e-05 -7.96629e-05 0 1.75234e-05 -7.3285e-05 0 2.18885e-05 6.84939e-05 0 2.71412e-05 7.39881e-05 0 3.36824e-05 8.00028e-05 0 4.22345e-05 8.65526e-05 0 5.41817e-05 9.32622e-05 0 7.26159e-05 9.73695e-05 0 9.42038e-05 9.11486e-05 0 0.000107305 7.97217e-05 0 0.000115816 6.81626e-05 0 0.000121568 5.72628e-05 0 0.000125529 4.71382e-05 0 0.000128275 3.77242e-05 0 0.000130168 2.89026e-05 0 0.000131441 2.05404e-05 0 0.000132242 1.25034e-05 0 0.000132661 4.65928e-06 0 0.000132739 -3.12305e-06 0 0.000132478 -1.0977e-05 0 0.000131838 -1.90354e-05 0 0.000130731 -2.74341e-05 0 0.000129007 -3.63122e-05 0 0.00012643 -4.58073e-05 0 0.000122631 -5.60412e-05 0 0.000117027 -6.70803e-05 0 0.000108637 -7.88059e-05 0 9.56236e-05 -9.04207e-05 0 7.40817e-05 -9.68394e-05 0 5.56504e-05 -9.29262e-05 0 4.36675e-05 -8.6393e-05 0 3.5052e-05 -7.99919e-05 0 2.8433e-05 -7.40945e-05 0 2.31009e-05 -6.86891e-05 0 2.67282e-05 6.35666e-05 0 3.22834e-05 6.79857e-05 0 3.90805e-05 7.24591e-05 0 4.75822e-05 7.66984e-05 0 5.83345e-05 7.99302e-05 0 7.13703e-05 8.05915e-05 0 8.48522e-05 7.66918e-05 0 9.59472e-05 6.95597e-05 0 0.000104298 6.10337e-05 0 0.000110428 5.22245e-05 0 0.0001149 4.35612e-05 0 0.000118141 3.51953e-05 0 0.000120455 2.71474e-05 0 0.00012205 1.93777e-05 0 0.000123068 1.18184e-05 0 0.000123593 4.38757e-06 0 0.000123666 -3.00288e-06 0 0.000123288 -1.04451e-05 0 0.000122418 -1.80286e-05 0 0.000120971 -2.5837e-05 0 0.000118805 -3.39414e-05 0 0.000115709 -4.23838e-05 0 0.000111374 -5.11455e-05 0 0.000105366 -6.00751e-05 0 9.71158e-05 -6.87407e-05 0 8.60948e-05 -7.60268e-05 0 7.26561e-05 -8.00873e-05 0 5.96323e-05 -7.95843e-05 0 4.88635e-05 -7.64996e-05 0 4.03236e-05 -7.23895e-05 0 3.34746e-05 -6.80247e-05 0 2.78617e-05 -6.36944e-05 0 3.06222e-05 5.84799e-05 0 3.61578e-05 6.18968e-05 0 4.27243e-05 6.5073e-05 0 5.0525e-05 6.76756e-05 0 5.96446e-05 6.91247e-05 0 6.97583e-05 6.86205e-05 0 7.984e-05 6.5674e-05 0 8.89227e-05 6.05642e-05 0 9.64091e-05 5.40958e-05 0 0.000102312 4.69914e-05 0 0.000106852 3.96639e-05 0 0.000110277 3.23372e-05 0 0.000112797 2.51083e-05 0 0.000114573 1.80024e-05 0 0.00011572 1.10041e-05 0 0.000116309 4.07582e-06 0 0.000116376 -2.83151e-06 0 0.000115922 -9.77166e-06 0 0.00011491 -1.67944e-05 0 0.000113267 -2.39385e-05 0 0.000110878 -3.12209e-05 0 0.000107578 -3.86178e-05 0 0.000103155 -4.60326e-05 0 9.73561e-05 -5.32407e-05 0 8.99559e-05 -5.98271e-05 0 8.09383e-05 -6.50651e-05 0 7.08978e-05 -6.81447e-05 0 6.08017e-05 -6.87806e-05 0 5.16778e-05 -6.7456e-05 0 4.38551e-05 -6.49662e-05 0 3.7254e-05 -6.18888e-05 0 3.16764e-05 -5.85566e-05 0 3.3684e-05 5.34488e-05 0 3.90032e-05 5.60254e-05 0 4.51179e-05 5.82214e-05 0 5.20811e-05 5.97632e-05 0 5.98235e-05 6.02812e-05 0 6.80495e-05 5.93846e-05 0 7.62312e-05 5.68798e-05 0 8.3779e-05 5.28843e-05 0 9.03245e-05 4.77636e-05 0 9.57503e-05 4.19493e-05 0 0.000100105 3.5748e-05 0 0.000103502 2.93714e-05 0 0.000106068 2.29412e-05 0 0.000107911 1.6517e-05 0 0.000109114 1.0119e-05 0 0.000109732 3.7432e-06 0 0.000109794 -2.62759e-06 0 0.000109298 -9.015e-06 0 0.000108217 -1.54364e-05 0 0.000106494 -2.18966e-05 0 0.000104044 -2.83762e-05 0 0.000100757 -3.48158e-05 0 9.65042e-05 -4.10939e-05 0 9.11686e-05 -4.69977e-05 0 8.46986e-05 -5.22186e-05 0 7.7209e-05 -5.63221e-05 0 6.90671e-05 -5.89386e-05 0 6.08621e-05 -5.99464e-05 0 5.31233e-05 -5.95349e-05 0 4.6149e-05 -5.80917e-05 0 4.00118e-05 -5.59846e-05 0 3.46622e-05 -5.34867e-05 0 3.60923e-05 4.86066e-05 0 4.11019e-05 5.05177e-05 0 4.6703e-05 5.20059e-05 0 5.28753e-05 5.28701e-05 0 5.95109e-05 5.28802e-05 0 6.6384e-05 5.1829e-05 0 7.31778e-05 4.96222e-05 0 7.95494e-05 4.63249e-05 0 8.52459e-05 4.21207e-05 0 9.01346e-05 3.72725e-05 0 9.41868e-05 3.1991e-05 0 9.74369e-05 2.6448e-05 0 9.99457e-05 2.07606e-05 0 0.000101777 1.50011e-05 0 0.000102984 9.20965e-06 0 0.000103607 3.40491e-06 0 0.000103662 -2.40657e-06 0 0.000103152 -8.22216e-06 0 0.000102054 -1.40354e-05 0 0.000100331 -1.98279e-05 0 9.79252e-05 -2.55599e-05 0 9.47727e-05 -3.11589e-05 0 9.08101e-05 -3.65076e-05 0 8.60009e-05 -4.1433e-05 0 8.03715e-05 -4.57228e-05 0 7.40529e-05 -4.91119e-05 0 6.72972e-05 -5.14135e-05 0 6.04473e-05 -5.25594e-05 0 5.38207e-05 -5.26411e-05 0 4.7645e-05 -5.18633e-05 0 4.20303e-05 -5.04547e-05 0 3.69992e-05 -4.86156e-05 0 3.78696e-05 4.40253e-05 0 4.25318e-05 4.54245e-05 0 4.76317e-05 4.64089e-05 0 5.31241e-05 4.68356e-05 0 5.89058e-05 4.65579e-05 0 6.48088e-05 4.54562e-05 0 7.06158e-05 4.34821e-05 0 7.61051e-05 4.06717e-05 0 8.10939e-05 3.71283e-05 0 8.54657e-05 3.30187e-05 0 8.91687e-05 2.84857e-05 0 9.21983e-05 2.36611e-05 0 9.45763e-05 1.86462e-05 0 9.63345e-05 1.35133e-05 0 9.75038e-05 8.31142e-06 0 9.81078e-05 3.0726e-06 0 9.81586e-05 -2.18082e-06 0 9.76557e-05 -7.42953e-06 0 9.65859e-05 -1.26512e-05 0 9.49246e-05 -1.78139e-05 0 9.26395e-05 -2.28685e-05 0 8.96972e-05 -2.77425e-05 0 8.60742e-05 -3.2334e-05 0 8.17735e-05 -3.65104e-05 0 7.68454e-05 -4.01272e-05 0 7.1405e-05 -4.3016e-05 0 6.56346e-05 -4.50711e-05 0 5.97558e-05 -4.62542e-05 0 5.39865e-05 -4.66113e-05 0 4.84959e-05 -4.62606e-05 0 4.33887e-05 -4.5347e-05 0 3.87117e-05 -4.40129e-05 0 3.92325e-05 3.97318e-05 0 4.35506e-05 4.07426e-05 0 4.81898e-05 4.13689e-05 0 5.30973e-05 4.15093e-05 0 5.81833e-05 4.10677e-05 0 6.33206e-05 3.99705e-05 0 6.83566e-05 3.81904e-05 0 7.31362e-05 3.57498e-05 0 7.75251e-05 3.27106e-05 0 8.14265e-05 2.91836e-05 0 8.47829e-05 2.52668e-05 0 8.75703e-05 2.10596e-05 0 8.97869e-05 1.66458e-05 0 9.14429e-05 1.20918e-05 0 9.25522e-05 7.44831e-06 0 9.31267e-05 2.75419e-06 0 9.31728e-05 -1.95913e-06 0 9.269e-05 -6.66214e-06 0 9.16709e-05 -1.13233e-05 0 9.01024e-05 -1.59038e-05 0 8.79695e-05 -2.03526e-05 0 8.52607e-05 -2.46031e-05 0 8.19763e-05 -2.85709e-05 0 7.81392e-05 -3.21555e-05 0 7.38056e-05 -3.5258e-05 0 6.90715e-05 -3.77658e-05 0 6.40705e-05 -3.96155e-05 0 5.8958e-05 -4.0783e-05 0 5.38868e-05 -4.12937e-05 0 4.89848e-05 -4.12198e-05 0 4.43431e-05 -4.06564e-05 0 4.00153e-05 -3.97041e-05 0 4.02535e-05 3.57259e-05 0 4.42482e-05 3.64443e-05 0 4.84768e-05 3.68168e-05 0 5.28879e-05 3.67707e-05 0 5.74055e-05 3.62407e-05 0 6.19314e-05 3.5179e-05 0 6.63534e-05 3.35694e-05 0 7.05578e-05 3.14267e-05 0 7.4443e-05 2.87901e-05 0 7.79289e-05 2.57368e-05 0 8.09604e-05 2.23354e-05 0 8.35054e-05 1.86613e-05 0 8.55492e-05 1.47824e-05 0 8.70883e-05 1.07571e-05 0 8.81252e-05 6.63416e-06 0 8.86634e-05 2.45419e-06 0 8.87054e-05 -1.74702e-06 0 8.82505e-05 -5.93487e-06 0 8.72955e-05 -1.00735e-05 0 8.58357e-05 -1.41221e-05 0 8.38678e-05 -1.80317e-05 0 8.1394e-05 -2.17436e-05 0 7.84278e-05 -2.51892e-05 0 7.50004e-05 -2.82924e-05 0 7.11661e-05 -3.09834e-05 0 6.70041e-05 -3.3184e-05 0 6.26158e-05 -3.48536e-05 0 5.81148e-05 -3.59761e-05 0 5.36135e-05 -3.65662e-05 0 4.92107e-05 -3.66707e-05 0 4.4983e-05 -3.63538e-05 0 4.09829e-05 -3.56877e-05 0 4.09894e-05 3.19925e-05 0 4.46911e-05 3.24916e-05 0 4.85638e-05 3.26846e-05 0 5.25599e-05 3.25186e-05 0 5.66155e-05 3.19481e-05 0 6.06528e-05 3.09406e-05 0 6.45851e-05 2.94862e-05 0 6.83251e-05 2.75952e-05 0 7.17926e-05 2.52936e-05 0 7.49213e-05 2.26372e-05 0 7.7661e-05 1.96754e-05 0 7.99778e-05 1.64658e-05 0 8.18511e-05 1.30635e-05 0 8.327e-05 9.51859e-06 0 8.42299e-05 5.87577e-06 0 8.47292e-05 2.17481e-06 0 8.47675e-05 -1.54769e-06 0 8.43442e-05 -5.25558e-06 0 8.3459e-05 -8.91214e-06 0 8.21125e-05 -1.24774e-05 0 8.03083e-05 -1.59066e-05 0 7.80564e-05 -1.91489e-05 0 7.53765e-05 -2.2149e-05 0 7.23016e-05 -2.48485e-05 0 6.88812e-05 -2.7197e-05 0 6.51812e-05 -2.9138e-05 0 6.12812e-05 -3.06442e-05 0 5.72687e-05 -3.17043e-05 0 5.32303e-05 -3.23271e-05 0 4.92443e-05 -3.25442e-05 0 4.53753e-05 -3.24002e-05 0 4.16712e-05 -3.19476e-05 0 4.15365e-05 2.85097e-05 0 4.49743e-05 2.88454e-05 0 4.85347e-05 2.89131e-05 0 5.21751e-05 2.86738e-05 0 5.58416e-05 2.80947e-05 0 5.94713e-05 2.71535e-05 0 6.29957e-05 2.58435e-05 0 6.63458e-05 2.41725e-05 0 6.94575e-05 2.21585e-05 0 7.22751e-05 1.9843e-05 0 7.47542e-05 1.72627e-05 0 7.68615e-05 1.44621e-05 0 7.85739e-05 1.14859e-05 0 7.98766e-05 8.37678e-06 0 8.07607e-05 5.17457e-06 0 8.12214e-05 1.9164e-06 0 8.12564e-05 -1.36243e-06 0 8.08654e-05 -4.62665e-06 0 8.00496e-05 -7.84083e-06 0 7.88132e-05 -1.09677e-05 0 7.71641e-05 -1.39671e-05 0 7.51163e-05 -1.67961e-05 0 7.26922e-05 -1.94095e-05 0 6.99243e-05 -2.1762e-05 0 6.68565e-05 -2.38165e-05 0 6.3544e-05 -2.55305e-05 0 6.00507e-05 -2.68852e-05 0 5.64455e-05 -2.7872e-05 0 5.27969e-05 -2.84964e-05 0 4.91681e-05 -2.87804e-05 0 4.56133e-05 -2.87558e-05 0 4.21757e-05 -2.84612e-05 0 4.192e-05 2.52529e-05 0 4.51265e-05 2.54681e-05 0 4.84194e-05 2.54506e-05 0 5.1761e-05 2.51711e-05 0 5.51053e-05 2.46058e-05 0 5.84003e-05 2.37386e-05 0 6.15901e-05 2.25652e-05 0 6.46187e-05 2.10916e-05 0 6.74333e-05 1.93307e-05 0 6.99869e-05 1.73145e-05 0 7.224e-05 1.50704e-05 0 7.41615e-05 1.26337e-05 0 7.57282e-05 1.00406e-05 0 7.69235e-05 7.32733e-06 0 7.77367e-05 4.52865e-06 0 7.8161e-05 1.67819e-06 0 7.81932e-05 -1.19136e-06 0 7.78329e-05 -4.04705e-06 0 7.70827e-05 -6.85608e-06 0 7.59484e-05 -9.58472e-06 0 7.44401e-05 -1.21978e-05 0 7.25735e-05 -1.4659e-05 0 7.03714e-05 -1.69315e-05 0 6.78641e-05 -1.89796e-05 0 6.50907e-05 -2.07753e-05 0 6.20977e-05 -2.22859e-05 0 5.89378e-05 -2.34977e-05 0 5.56669e-05 -2.44042e-05 0 5.23408e-05 -2.50088e-05 0 4.90118e-05 -2.53271e-05 0 4.5726e-05 -2.53823e-05 0 4.25218e-05 -2.52032e-05 0 4.21865e-05 2.21963e-05 0 4.5191e-05 2.23237e-05 0 4.82545e-05 2.22508e-05 0 5.13433e-05 2.19552e-05 0 5.44179e-05 2.14193e-05 0 5.74342e-05 2.06314e-05 0 6.03459e-05 1.95887e-05 0 6.31063e-05 1.82959e-05 0 6.56711e-05 1.67626e-05 0 6.79999e-05 1.50138e-05 0 7.0058e-05 1.30707e-05 0 7.18168e-05 1.09613e-05 0 7.3254e-05 8.71517e-06 0 7.43527e-05 6.36268e-06 0 7.51013e-05 3.93394e-06 0 7.54924e-05 1.45867e-06 0 7.55222e-05 -1.03375e-06 0 7.51904e-05 -3.51352e-06 0 7.45e-05 -5.95115e-06 0 7.34578e-05 -8.31679e-06 0 7.20748e-05 -1.05801e-05 0 7.0367e-05 -1.27104e-05 0 6.83564e-05 -1.46779e-05 0 6.6071e-05 -1.64539e-05 0 6.3545e-05 -1.80169e-05 0 6.08185e-05 -1.93414e-05 0 5.79356e-05 -2.04171e-05 0 5.49429e-05 -2.12387e-05 0 5.18867e-05 -2.18085e-05 0 4.88112e-05 -2.21376e-05 0 4.5756e-05 -2.22433e-05 0 4.27554e-05 -2.21473e-05 0 4.23712e-05 1.93153e-05 0 4.51992e-05 1.93807e-05 0 4.80648e-05 1.92749e-05 0 5.09378e-05 1.89811e-05 0 5.37837e-05 1.8486e-05 0 5.65649e-05 1.77808e-05 0 5.92422e-05 1.6864e-05 0 6.1776e-05 1.57394e-05 0 6.41285e-05 1.44141e-05 0 6.6265e-05 1.29081e-05 0 6.81547e-05 1.12378e-05 0 6.97715e-05 9.42567e-06 0 7.10944e-05 7.496e-06 0 7.21072e-05 5.47401e-06 0 7.27981e-05 3.38542e-06 0 7.31594e-05 1.25598e-06 0 7.31871e-05 -8.88508e-07 0 7.2881e-05 -3.02177e-06 0 7.22443e-05 -5.11794e-06 0 7.12841e-05 -7.1511e-06 0 7.00116e-05 -9.09538e-06 0 6.84425e-05 -1.09253e-05 0 6.65974e-05 -1.26162e-05 0 6.45018e-05 -1.41454e-05 0 6.2186e-05 -1.54959e-05 0 5.96845e-05 -1.66475e-05 0 5.70351e-05 -1.75924e-05 0 5.4277e-05 -1.83262e-05 0 5.14495e-05 -1.88503e-05 0 4.85904e-05 -1.91729e-05 0 4.57341e-05 -1.93068e-05 0 4.29111e-05 -1.92687e-05 0 4.24841e-05 1.65862e-05 0 4.51641e-05 1.66093e-05 0 4.78658e-05 1.64879e-05 0 5.05618e-05 1.62092e-05 0 5.32214e-05 1.57631e-05 0 5.5812e-05 1.51433e-05 0 5.82992e-05 1.43485e-05 0 6.06491e-05 1.33821e-05 0 6.28287e-05 1.22497e-05 0 6.48073e-05 1.0967e-05 0 6.65576e-05 9.54701e-06 0 6.8056e-05 8.00781e-06 0 6.92828e-05 6.3691e-06 0 7.02228e-05 4.65178e-06 0 7.08644e-05 2.87746e-06 0 7.12002e-05 1.06808e-06 0 7.12262e-05 -7.54233e-07 0 7.09421e-05 -2.56684e-06 0 7.03513e-05 -4.34752e-06 0 6.94607e-05 -6.07424e-06 0 6.82813e-05 -7.72523e-06 0 6.68279e-05 -9.27937e-06 0 6.51197e-05 -1.07167e-05 0 6.31798e-05 -1.20189e-05 0 6.10353e-05 -1.31725e-05 0 5.87165e-05 -1.41616e-05 0 5.62562e-05 -1.49799e-05 0 5.36884e-05 -1.56241e-05 0 5.10471e-05 -1.60946e-05 0 4.83653e-05 -1.63978e-05 0 4.56736e-05 -1.65431e-05 0 4.29996e-05 -1.65432e-05 0 4.25548e-05 1.39865e-05 0 4.5109e-05 1.39826e-05 0 4.76722e-05 1.38588e-05 0 5.02195e-05 1.36052e-05 0 5.27235e-05 1.32142e-05 0 5.51551e-05 1.26812e-05 0 5.74842e-05 1.20054e-05 0 5.96807e-05 1.11896e-05 0 6.17157e-05 1.0238e-05 0 6.3562e-05 9.16331e-06 0 6.51949e-05 7.97568e-06 0 6.6593e-05 6.68951e-06 0 6.77381e-05 5.32072e-06 0 6.86158e-05 3.88638e-06 0 6.92152e-05 2.40433e-06 0 6.95291e-05 8.92865e-07 0 6.95536e-05 -6.29445e-07 0 6.92885e-05 -2.14358e-06 0 6.87371e-05 -3.63089e-06 0 6.79061e-05 -5.073e-06 0 6.68059e-05 -6.45195e-06 0 6.54505e-05 -7.75049e-06 0 6.38576e-05 -8.95248e-06 0 6.20482e-05 -1.00433e-05 0 6.00468e-05 -1.10124e-05 0 5.78802e-05 -1.1847e-05 0 5.55773e-05 -1.25424e-05 0 5.3168e-05 -1.30956e-05 0 5.06823e-05 -1.35069e-05 0 4.81494e-05 -1.37809e-05 0 4.55968e-05 -1.39247e-05 0 4.30494e-05 -1.39481e-05 0 4.25942e-05 1.14955e-05 0 4.50443e-05 1.14765e-05 0 4.74938e-05 1.13603e-05 0 4.99196e-05 1.11393e-05 0 5.22969e-05 1.0808e-05 0 5.45994e-05 1.03629e-05 0 5.68002e-05 9.8035e-06 0 5.88723e-05 9.13207e-06 0 6.07898e-05 8.35198e-06 0 6.25282e-05 7.4731e-06 0 6.4065e-05 6.50339e-06 0 6.53806e-05 5.45417e-06 0 6.64583e-05 4.33805e-06 0 6.72845e-05 3.16871e-06 0 6.78489e-05 1.96053e-06 0 6.81445e-05 7.28344e-07 0 6.81678e-05 -5.12686e-07 0 6.79186e-05 -1.74703e-06 0 6.73999e-05 -2.95947e-06 0 6.66182e-05 -4.1351e-06 0 6.55833e-05 -5.25942e-06 0 6.43084e-05 -6.31864e-06 0 6.28098e-05 -7.29996e-06 0 6.1107e-05 -8.19188e-06 0 5.92219e-05 -8.98617e-06 0 5.71788e-05 -9.67279e-06 0 5.50035e-05 -1.0248e-05 0 5.2723e-05 -1.07096e-05 0 5.03639e-05 -1.10575e-05 0 4.79526e-05 -1.1295e-05 0 4.55141e-05 -1.14275e-05 0 4.30714e-05 -1.14624e-05 0 4.26119e-05 9.09282e-06 0 4.49798e-05 9.06784e-06 0 4.734e-05 8.96677e-06 0 4.96709e-05 8.78409e-06 0 5.19496e-05 8.5157e-06 0 5.41518e-05 8.15903e-06 0 5.62529e-05 7.71399e-06 0 5.82284e-05 7.18221e-06 0 6.00545e-05 6.5663e-06 0 6.17087e-05 5.87378e-06 0 6.31705e-05 5.11071e-06 0 6.44215e-05 4.28575e-06 0 6.54462e-05 3.40858e-06 0 6.62317e-05 2.48979e-06 0 6.67684e-05 1.54057e-06 0 6.70497e-05 5.72517e-07 0 6.70721e-05 -4.02476e-07 0 6.68353e-05 -1.37221e-06 0 6.63425e-05 -2.32476e-06 0 6.55996e-05 -3.24846e-06 0 6.46161e-05 -4.13203e-06 0 6.34043e-05 -4.9648e-06 0 6.19795e-05 -5.73693e-06 0 6.03596e-05 -6.43961e-06 0 5.8565e-05 -7.06662e-06 0 5.66178e-05 -7.61027e-06 0 5.45417e-05 -8.06775e-06 0 5.23611e-05 -8.43722e-06 0 5.01006e-05 -8.7186e-06 0 4.77843e-05 -8.91428e-06 0 4.54353e-05 -9.02818e-06 0 4.30752e-05 -9.06567e-06 0 4.26184e-05 6.75973e-06 0 4.49223e-05 6.73549e-06 0 4.72131e-05 6.65518e-06 0 4.94705e-05 6.51488e-06 0 5.16729e-05 6.31175e-06 0 5.37977e-05 6.044e-06 0 5.58219e-05 5.71164e-06 0 5.77229e-05 5.31586e-06 0 5.94784e-05 4.85857e-06 0 6.10676e-05 4.3452e-06 0 6.24713e-05 3.78014e-06 0 6.36722e-05 3.16965e-06 0 6.46557e-05 2.52079e-06 0 6.54096e-05 1.84129e-06 0 6.59247e-05 1.13935e-06 0 6.61948e-05 4.23525e-07 0 6.62164e-05 -2.97426e-07 0 6.59894e-05 -1.01449e-06 0 6.55167e-05 -1.71887e-06 0 6.48041e-05 -2.40199e-06 0 6.38606e-05 -3.05556e-06 0 6.26977e-05 -3.67179e-06 0 6.133e-05 -4.24351e-06 0 5.97742e-05 -4.76436e-06 0 5.80493e-05 -5.22983e-06 0 5.61761e-05 -5.63434e-06 0 5.41765e-05 -5.97587e-06 0 5.2073e-05 -6.25306e-06 0 4.98887e-05 -6.46578e-06 0 4.7646e-05 -6.61568e-06 0 4.53666e-05 -6.70549e-06 0 4.30709e-05 -6.73899e-06 0 4.26186e-05 4.47828e-06 0 4.48782e-05 4.45959e-06 0 4.71212e-05 4.40397e-06 0 4.93281e-05 4.30894e-06 0 5.14781e-05 4.17269e-06 0 5.35497e-05 3.99409e-06 0 5.55213e-05 3.77319e-06 0 5.73711e-05 3.51076e-06 0 5.90783e-05 3.20806e-06 0 6.06228e-05 2.86862e-06 0 6.19865e-05 2.49529e-06 0 6.3153e-05 2.09214e-06 0 6.41081e-05 1.66379e-06 0 6.48402e-05 1.21528e-06 0 6.53404e-05 7.5201e-07 0 6.56027e-05 2.79592e-07 0 6.56238e-05 -1.96199e-07 0 6.54036e-05 -6.6943e-07 0 6.49448e-05 -1.13431e-06 0 6.42531e-05 -1.58519e-06 0 6.3337e-05 -2.01664e-06 0 6.22079e-05 -2.42356e-06 0 6.08794e-05 -2.80128e-06 0 5.93676e-05 -3.14564e-06 0 5.76906e-05 -3.45371e-06 0 5.58681e-05 -3.72189e-06 0 5.39208e-05 -3.94883e-06 0 5.18704e-05 -4.13364e-06 0 4.97383e-05 -4.27622e-06 0 4.75463e-05 -4.37758e-06 0 4.53148e-05 -4.43947e-06 0 4.30636e-05 -4.46428e-06 0 4.26172e-05 2.23064e-06 0 4.48505e-05 2.22054e-06 0 4.70651e-05 2.19211e-06 0 4.9242e-05 2.14416e-06 0 5.1361e-05 2.07578e-06 0 5.34013e-05 1.98646e-06 0 5.53417e-05 1.87621e-06 0 5.71613e-05 1.74543e-06 0 5.88398e-05 1.59472e-06 0 6.0358e-05 1.42584e-06 0 6.1698e-05 1.24019e-06 0 6.28441e-05 1.03977e-06 0 6.37823e-05 8.26855e-07 0 6.45015e-05 6.03954e-07 0 6.49929e-05 3.73729e-07 0 6.52506e-05 1.38966e-07 0 6.52714e-05 -9.74714e-08 0 6.50552e-05 -3.32638e-07 0 6.46047e-05 -5.63659e-07 0 6.39254e-05 -7.87737e-07 0 6.30256e-05 -1.00218e-06 0 6.19164e-05 -1.20447e-06 0 6.06111e-05 -1.3923e-06 0 5.91253e-05 -1.56362e-06 0 5.74767e-05 -1.717e-06 0 5.56841e-05 -1.85063e-06 0 5.37678e-05 -1.96388e-06 0 5.17486e-05 -2.05629e-06 0 4.96475e-05 -2.1278e-06 0 4.74854e-05 -2.1789e-06 0 4.52824e-05 -2.21044e-06 0 4.30577e-05 -2.22359e-06 0 4.26164e-05 -0 0 4.48397e-05 -8.77021e-19 0 4.70437e-05 -0 0 4.92093e-05 -0 0 5.13167e-05 -0 0 5.33452e-05 1.1738e-18 0 5.52739e-05 1.89193e-18 0 5.70822e-05 -0 0 5.875e-05 5.74546e-19 0 6.02583e-05 -0 0 6.15894e-05 -3.38802e-19 0 6.27278e-05 -0 0 6.36597e-05 -9.33842e-19 0 6.4374e-05 -0 0 6.48621e-05 -1.18935e-19 0 6.5118e-05 -0 0 6.51388e-05 1.15461e-18 0 6.49241e-05 -0 0 6.44766e-05 -1.97047e-19 0 6.3802e-05 9.35928e-19 0 6.29083e-05 -0 0 6.18066e-05 -0 0 6.051e-05 -0 0 5.90341e-05 -0 0 5.7396e-05 -0 0 5.56147e-05 -2.31151e-18 0 5.371e-05 -1.18183e-18 0 5.17026e-05 -0 0 4.96131e-05 3.76024e-18 0 4.74623e-05 -0 0 4.527e-05 8.85436e-19 0 4.30552e-05 -0 0 </DataArray> 
</PointData> 
<Points> 
<DataArray type="Float32" NumberOfComponents="3"> 