<?xml version="1.0"?> 
<VTKFile type="StructuredGrid" version="0.1"> 
<StructuredGrid WholeExtent="0 31 0 31 0 0"> 
<Piece Extent="0 31 0 31 0 0"> 
<PointData>
<DataArray type="Float32" Name="B" format="ascii" NumberOfComponents="3"> 
0 -1.12395e-07 0 -1.5583e-08 -1.14311e-07 0 -3.16024e-08 -1.19439e-07 0 -4.84976e-08 -1.28196e-07 0 -6.67537e-08 -1.41152e-07 0 -8.68868e-08 -1.58216e-07 0 -1.09474e-07 -1.8067e-07 0 -1.35192e-07 -2.0897e-07 0 -1.64797e-07 -2.43711e-07 0 -1.99201e-07 -2.87741e-07 0 -2.39485e-07 -3.4106e-07 0 -2.86916e-07 -4.06421e-07 0 -3.4309e-07 -4.87202e-07 0 -4.0991e-07 -5.84524e-07 0 -4.89743e-07 -7.05261e-07 0 -5.85658e-07 -8.52506e-07 0 -7.01464e-07 -1.03053e-06 0 -8.42329e-07 -1.25396e-06 0 -1.01526e-06 -1.52429e-06 0 -1.22988e-06 -1.85719e-06 0 -1.50086e-06 -2.27107e-06 0 -1.84996e-06 -2.77419e-06 0 -2.31188e-06 -3.40861e-06 0 -2.94566e-06 -4.19854e-06 0 -3.84998e-06 -5.19269e-06 0 -5.20631e-06 -6.49051e-06 0 -7.35401e-06 -8.25785e-06 0 -1.09713e-05 -1.08709e-05 0 -1.75284e-05 -1.53264e-05 0 -3.05948e-05 -2.49335e-05 0 -5.86345e-05 -5.65144e-05 0 0.0134149 0.00288631 0 0 -1.07045e-07 0 -1.66975e-08 -1.08876e-07 0 -3.38718e-08 -1.13778e-07 0 -5.20036e-08 -1.2215e-07 0 -7.16244e-08 -1.34538e-07 0 -9.33008e-08 -1.50856e-07 0 -1.17668e-07 -1.72335e-07 0 -1.45474e-07 -1.99411e-07 0 -1.77554e-07 -2.32657e-07 0 -2.14923e-07 -2.74806e-07 0 -2.58783e-07 -3.25858e-07 0 -3.1055e-07 -3.88454e-07 0 -3.72006e-07 -4.65829e-07 0 -4.4528e-07 -5.5905e-07 0 -5.33018e-07 -6.74679e-07 0 -6.38641e-07 -8.15637e-07 0 -7.66377e-07 -9.8593e-07 0 -9.21927e-07 -1.19932e-06 0 -1.11295e-06 -1.45696e-06 0 -1.34986e-06 -1.77309e-06 0 -1.64839e-06 -2.16387e-06 0 -2.03163e-06 -2.6353e-06 0 -2.53625e-06 -3.22165e-06 0 -3.22452e-06 -3.93788e-06 0 -4.20103e-06 -4.81426e-06 0 -5.66016e-06 -5.9094e-06 0 -7.97225e-06 -7.31016e-06 0 -1.19001e-05 -9.21226e-06 0 -1.9189e-05 -1.21397e-05 0 -3.46348e-05 -1.78914e-05 0 -7.78704e-05 -3.71729e-05 0 -0.000665142 7.44975e-05 0 0 -1.01335e-07 0 -1.77595e-08 -1.03074e-07 0 -3.60346e-08 -1.0773e-07 0 -5.53454e-08 -1.15683e-07 0 -7.62676e-08 -1.27453e-07 0 -9.94163e-08 -1.42959e-07 0 -1.25483e-07 -1.63373e-07 0 -1.55281e-07 -1.89112e-07 0 -1.89726e-07 -2.20724e-07 0 -2.29928e-07 -2.60811e-07 0 -2.77205e-07 -3.09376e-07 0 -3.33114e-07 -3.68931e-07 0 -3.99614e-07 -4.42555e-07 0 -4.79048e-07 -5.31255e-07 0 -5.74321e-07 -6.41251e-07 0 -6.89177e-07 -7.75274e-07 0 -8.28223e-07 -9.37052e-07 0 -9.97623e-07 -1.13942e-06 0 -1.20557e-06 -1.38318e-06 0 -1.46311e-06 -1.68109e-06 0 -1.78664e-06 -2.04699e-06 0 -2.20003e-06 -2.48458e-06 0 -2.74075e-06 -3.02011e-06 0 -3.4721e-06 -3.659e-06 0 -4.50022e-06 -4.41227e-06 0 -6.02295e-06 -5.29524e-06 0 -8.41979e-06 -6.30935e-06 0 -1.24803e-05 -7.44942e-06 0 -2.00374e-05 -8.68596e-06 0 -3.62555e-05 -9.82366e-06 0 -8.31098e-05 -7.90434e-06 0 -0.00026206 0.000185156 0 -2.44602e-21 -9.52826e-08 0 -1.87649e-08 -9.69231e-08 0 -3.80821e-08 -1.01315e-07 0 -5.85094e-08 -1.08817e-07 0 -8.06645e-08 -1.1992e-07 0 -1.05208e-07 -1.3455e-07 0 -1.32885e-07 -1.53815e-07 0 -1.64573e-07 -1.7811e-07 0 -2.01262e-07 -2.07954e-07 0 -2.4415e-07 -2.45807e-07 0 -2.9467e-07 -2.91673e-07 0 -3.54508e-07 -3.47927e-07 0 -4.25793e-07 -4.17473e-07 0 -5.11064e-07 -5.01255e-07 0 -6.13465e-07 -6.05121e-07 0 -7.37038e-07 -7.31605e-07 0 -8.86723e-07 -8.84141e-07 0 -1.06908e-06 -1.07459e-06 0 -1.29273e-06 -1.30341e-06 0 -1.56912e-06 -1.58187e-06 0 -1.91505e-06 -1.92149e-06 0 -2.3545e-06 -2.32372e-06 0 -2.92463e-06 -2.80688e-06 0 -3.68748e-06 -3.36701e-06 0 -4.74627e-06 -3.99606e-06 0 -6.29248e-06 -4.6664e-06 0 -8.69181e-06 -5.29435e-06 0 -1.2699e-05 -5.675e-06 0 -2.00293e-05 -5.23472e-06 0 -3.5232e-05 -1.89355e-06 0 -7.31437e-05 1.71332e-05 0 -0.000115348 0.000168014 0 0 -8.89076e-08 0 -1.97095e-08 -9.04426e-08 0 -4.00061e-08 -9.45521e-08 0 -6.14827e-08 -1.01573e-07 0 -8.47969e-08 -1.11965e-07 0 -1.10653e-07 -1.25659e-07 0 -1.39845e-07 -1.43694e-07 0 -1.73312e-07 -1.66443e-07 0 -2.12111e-07 -1.94393e-07 0 -2.5753e-07 -2.29849e-07 0 -3.11102e-07 -2.72818e-07 0 -3.74639e-07 -3.25523e-07 0 -4.50425e-07 -3.90683e-07 0 -5.41182e-07 -4.69174e-07 0 -6.50275e-07 -5.66448e-07 0 -7.82008e-07 -6.84832e-07 0 -9.41617e-07 -8.27461e-07 0 -1.13598e-06 -1.00519e-06 0 -1.37405e-06 -1.21816e-06 0 -1.66752e-06 -1.47615e-06 0 -2.0332e-06 -1.78845e-06 0 -2.49465e-06 -2.15442e-06 0 -3.08762e-06 -2.58483e-06 0 -3.87071e-06 -3.06695e-06 0 -4.9399e-06 -3.57494e-06 0 -6.47085e-06 -4.04118e-06 0 -8.7938e-06 -4.30392e-06 0 -1.25721e-05 -3.98073e-06 0 -1.92283e-05 -2.04845e-06 0 -3.20014e-05 4.85038e-06 0 -5.65066e-05 3.1886e-05 0 -4.88513e-05 0.000134097 0 0 -8.22306e-08 0 -2.05894e-08 -8.3654e-08 0 -4.17984e-08 -8.74647e-08 0 -6.42527e-08 -9.39751e-08 0 -8.86472e-08 -1.03613e-07 0 -1.15727e-07 -1.16315e-07 0 -1.46331e-07 -1.33047e-07 0 -1.81457e-07 -1.54154e-07 0 -2.22226e-07 -1.80089e-07 0 -2.70005e-07 -2.12997e-07 0 -3.26426e-07 -2.52882e-07 0 -3.93413e-07 -3.01807e-07 0 -4.73396e-07 -3.62295e-07 0 -5.69263e-07 -4.35147e-07 0 -6.84579e-07 -5.25401e-07 0 -8.23884e-07 -6.35171e-07 0 -9.92662e-07 -7.67288e-07 0 -1.19806e-06 -9.31587e-07 0 -1.44923e-06 -1.12792e-06 0 -1.75796e-06 -1.36465e-06 0 -2.1408e-06 -1.64895e-06 0 -2.62033e-06 -1.97832e-06 0 -3.22991e-06 -2.35668e-06 0 -4.02271e-06 -2.76361e-06 0 -5.08361e-06 -3.15766e-06 0 -6.56416e-06 -3.43658e-06 0 -8.74075e-06 -3.37343e-06 0 -1.21417e-05 -2.44691e-06 0 -1.77856e-05 6.6636e-07 0 -2.7379e-05 9.8278e-06 0 -3.98595e-05 3.7895e-05 0 -1.58902e-05 0.000105081 0 8.55764e-21 -7.52738e-08 0 -2.14013e-08 -7.65797e-08 0 -4.34521e-08 -8.00762e-08 0 -6.68088e-08 -8.60499e-08 0 -9.22003e-08 -9.48945e-08 0 -1.20409e-07 -1.06552e-07 0 -1.52319e-07 -1.21909e-07 0 -1.88977e-07 -1.41285e-07 0 -2.31566e-07 -1.65097e-07 0 -2.81526e-07 -1.95315e-07 0 -3.40578e-07 -2.31942e-07 0 -4.10753e-07 -2.76874e-07 0 -4.9461e-07 -3.32423e-07 0 -5.95191e-07 -3.99318e-07 0 -7.16238e-07 -4.82158e-07 0 -8.62497e-07 -5.82847e-07 0 -1.03967e-06 -7.0391e-07 0 -1.25509e-06 -8.54157e-07 0 -1.51805e-06 -1.0332e-06 0 -1.84027e-06 -1.24806e-06 0 -2.23776e-06 -1.504e-06 0 -2.73173e-06 -1.79697e-06 0 -3.35227e-06 -2.12497e-06 0 -4.1455e-06 -2.46131e-06 0 -5.182e-06 -2.75195e-06 0 -6.58264e-06 -2.86734e-06 0 -8.55665e-06 -2.53226e-06 0 -1.1471e-05 -1.1345e-06 0 -1.59039e-05 2.78559e-06 0 -2.2197e-05 1.29486e-05 0 -2.58551e-05 3.84117e-05 0 1.69346e-06 8.26141e-05 0 0 -6.80601e-08 0 -2.21418e-08 -6.92433e-08 0 -4.49605e-08 -7.24112e-08 0 -6.91404e-08 -7.7824e-08 0 -9.54418e-08 -8.58386e-08 0 -1.24682e-07 -9.64029e-08 0 -1.57783e-07 -1.10322e-07 0 -1.9584e-07 -1.27886e-07 0 -2.40091e-07 -1.49472e-07 0 -2.92043e-07 -1.76869e-07 0 -3.53498e-07 -2.1008e-07 0 -4.26583e-07 -2.50823e-07 0 -5.13974e-07 -3.0119e-07 0 -6.18852e-07 -3.61835e-07 0 -7.45116e-07 -4.36908e-07 0 -8.97689e-07 -5.28095e-07 0 -1.08244e-06 -6.37625e-07 0 -1.30688e-06 -7.73286e-07 0 -1.58032e-06 -9.34512e-07 0 -1.91429e-06 -1.12707e-06 0 -2.32411e-06 -1.35456e-06 0 -2.82919e-06 -1.61178e-06 0 -3.45579e-06 -1.89191e-06 0 -4.24168e-06 -2.16373e-06 0 -5.24087e-06 -2.36418e-06 0 -6.53907e-06 -2.34509e-06 0 -8.27064e-06 -1.80196e-06 0 -1.06326e-05 -8.13756e-08 0 -1.37887e-05 4.26795e-06 0 -1.70765e-05 1.44352e-05 0 -1.49209e-05 3.59653e-05 0 1.15955e-05 6.53697e-05 0 0 -6.06137e-08 0 -2.28069e-08 -6.16693e-08 0 -4.63154e-08 -6.44958e-08 0 -7.12349e-08 -6.93254e-08 0 -9.8354e-08 -7.64771e-08 0 -1.2852e-07 -8.59046e-08 0 -1.62692e-07 -9.8327e-08 0 -2.02007e-07 -1.14004e-07 0 -2.47753e-07 -1.33273e-07 0 -3.01496e-07 -1.57732e-07 0 -3.65112e-07 -1.87383e-07 0 -4.40812e-07 -2.23759e-07 0 -5.3138e-07 -2.68725e-07 0 -6.40114e-07 -3.22858e-07 0 -7.71052e-07 -3.89843e-07 0 -9.2927e-07 -4.71158e-07 0 -1.12078e-06 -5.68734e-07 0 -1.35318e-06 -6.89357e-07 0 -1.63579e-06 -8.32338e-07 0 -1.97985e-06 -1.00232e-06 0 -2.3998e-06 -1.20152e-06 0 -2.91308e-06 -1.42396e-06 0 -3.54164e-06 -1.65931e-06 0 -4.31416e-06 -1.87373e-06 0 -5.26672e-06 -1.99909e-06 0 -6.44765e-06 -1.87782e-06 0 -7.91435e-06 -1.19547e-06 0 -9.70037e-06 6.97424e-07 0 -1.16224e-05 5.13747e-06 0 -1.24031e-05 1.46313e-05 0 -6.70148e-06 3.21042e-05 0 1.73753e-05 5.19249e-05 0 8.73989e-22 -5.29596e-08 0 -2.33959e-08 -5.38835e-08 0 -4.75152e-08 -5.6357e-08 0 -7.30897e-08 -6.05836e-08 0 -1.00933e-07 -6.68427e-08 0 -1.3192e-07 -7.50942e-08 0 -1.67041e-07 -8.5968e-08 0 -2.07471e-07 -9.96916e-08 0 -2.5454e-07 -1.16562e-07 0 -3.09871e-07 -1.37977e-07 0 -3.75402e-07 -1.63939e-07 0 -4.53419e-07 -1.95789e-07 0 -5.46799e-07 -2.35159e-07 0 -6.58946e-07 -2.82548e-07 0 -7.94014e-07 -3.41166e-07 0 -9.57208e-07 -4.12282e-07 0 -1.15465e-06 -4.97543e-07 0 -1.39401e-06 -6.02753e-07 0 -1.68454e-06 -7.27157e-07 0 -2.03715e-06 -8.74409e-07 0 -2.46531e-06 -1.04564e-06 0 -2.98438e-06 -1.23454e-06 0 -3.61184e-06 -1.42859e-06 0 -4.36702e-06 -1.59333e-06 0 -5.26774e-06 -1.65962e-06 0 -6.32498e-06 -1.46975e-06 0 -7.5219e-06 -7.17222e-07 0 -8.74568e-06 1.20659e-06 0 -9.5468e-06 5.45976e-06 0 -8.34526e-06 1.38798e-05 0 -5.79905e-07 2.76787e-05 0 2.08979e-05 4.1192e-05 0 0 -4.5124e-08 0 -2.39053e-08 -4.59121e-08 0 -4.8553e-08 -4.80225e-08 0 -7.46941e-08 -5.16288e-08 0 -1.03164e-07 -5.69695e-08 0 -1.34861e-07 -6.40107e-08 0 -1.70803e-07 -7.32901e-08 0 -2.12198e-07 -8.50024e-08 0 -2.60414e-07 -9.9401e-08 0 -3.17118e-07 -1.1768e-07 0 -3.84306e-07 -1.39841e-07 0 -4.64329e-07 -1.67028e-07 0 -5.60141e-07 -2.00631e-07 0 -6.75237e-07 -2.41073e-07 0 -8.13869e-07 -2.91082e-07 0 -9.81348e-07 -3.5172e-07 0 -1.18388e-06 -4.2436e-07 0 -1.42918e-06 -5.1385e-07 0 -1.72639e-06 -6.19429e-07 0 -2.08608e-06 -7.43899e-07 0 -2.52074e-06 -8.87603e-07 0 -3.04363e-06 -1.04431e-06 0 -3.66785e-06 -1.20068e-06 0 -4.40361e-06 -1.32359e-06 0 -5.25111e-06 -1.34687e-06 0 -6.18591e-06 -1.12129e-06 0 -7.12352e-06 -3.63933e-07 0 -7.82794e-06 1.46596e-06 0 -7.66325e-06 5.32042e-06 0 -4.96651e-06 1.24674e-05 0 3.91154e-06 2.31208e-05 0 2.30691e-05 3.23954e-05 0 0 -3.71333e-08 0 -2.43331e-08 -3.77826e-08 0 -4.94246e-08 -3.95212e-08 0 -7.60416e-08 -4.24923e-08 0 -1.05038e-07 -4.68925e-08 0 -1.37332e-07 -5.2694e-08 0 -1.73964e-07 -6.03401e-08 0 -2.16169e-07 -6.99914e-08 0 -2.65348e-07 -8.1857e-08 0 -3.23208e-07 -9.6921e-08 0 -3.91788e-07 -1.15185e-07 0 -4.73495e-07 -1.37591e-07 0 -5.7135e-07 -1.65283e-07 0 -6.8892e-07 -1.98606e-07 0 -8.3054e-07 -2.39801e-07 0 -1.0016e-06 -2.89728e-07 0 -1.20839e-06 -3.49494e-07 0 -1.45861e-06 -4.23018e-07 0 -1.76132e-06 -5.09591e-07 0 -2.12671e-06 -6.11295e-07 0 -2.56638e-06 -7.27962e-07 0 -3.09158e-06 -8.5386e-07 0 -3.71139e-06 -9.76085e-07 0 -4.42757e-06 -1.0647e-06 0 -5.22421e-06 -1.06014e-06 0 -6.04511e-06 -8.29402e-07 0 -6.74733e-06 -1.25791e-07 0 -6.99687e-06 1.50572e-06 0 -6.0385e-06 4.80951e-06 0 -2.25437e-06 1.06122e-05 0 7.17081e-06 1.86296e-05 0 2.44228e-05 2.4983e-05 0 0 -2.90149e-08 0 -2.46776e-08 -2.95227e-08 0 -5.01265e-08 -3.08824e-08 0 -7.71268e-08 -3.32061e-08 0 -1.06547e-07 -3.66475e-08 0 -1.39322e-07 -4.11851e-08 0 -1.76509e-07 -4.71657e-08 0 -2.19368e-07 -5.47152e-08 0 -2.69323e-07 -6.3997e-08 0 -3.28113e-07 -7.57812e-08 0 -3.97815e-07 -9.00688e-08 0 -4.80879e-07 -1.07597e-07 0 -5.80378e-07 -1.29259e-07 0 -6.99939e-07 -1.55323e-07 0 -8.43961e-07 -1.87536e-07 0 -1.0179e-06 -2.26563e-07 0 -1.22808e-06 -2.73252e-07 0 -1.48223e-06 -3.30621e-07 0 -1.78928e-06 -3.98062e-07 0 -2.15911e-06 -4.77054e-07 0 -2.60249e-06 -5.67178e-07 0 -3.12897e-06 -6.63559e-07 0 -3.74405e-06 -7.54868e-07 0 -4.44222e-06 -8.15995e-07 0 -5.19374e-06 -7.97116e-07 0 -5.9156e-06 -5.87989e-07 0 -6.41727e-06 1.2181e-08 0 -6.29108e-06 1.36237e-06 0 -4.7126e-06 4.01249e-06 0 -1.66379e-07 8.47074e-06 0 9.48934e-06 1.42786e-05 0 2.52662e-05 1.85546e-05 0 9.53346e-23 -2.07966e-08 0 -2.49374e-08 -2.11608e-08 0 -5.06558e-08 -2.21361e-08 0 -7.79452e-08 -2.38027e-08 0 -1.07685e-07 -2.62711e-08 0 -1.40822e-07 -2.95259e-08 0 -1.78429e-07 -3.38158e-08 0 -2.21781e-07 -3.92313e-08 0 -2.72322e-07 -4.58897e-08 0 -3.31813e-07 -5.43434e-08 0 -4.02361e-07 -6.45932e-08 0 -4.86448e-07 -7.71677e-08 0 -5.87187e-07 -9.2707e-08 0 -7.08249e-07 -1.11403e-07 0 -8.5408e-07 -1.34504e-07 0 -1.03018e-06 -1.62484e-07 0 -1.24292e-06 -1.95942e-07 0 -1.49999e-06 -2.37016e-07 0 -1.81027e-06 -2.85238e-07 0 -2.18335e-06 -3.41592e-07 0 -2.62934e-06 -4.05612e-07 0 -3.1564e-06 -4.73589e-07 0 -3.76722e-06 -5.36714e-07 0 -4.45046e-06 -5.76042e-07 0 -5.16547e-06 -5.54082e-07 0 -5.80836e-06 -3.88435e-07 0 -6.15265e-06 6.88194e-08 0 -5.739e-06 1.07558e-06 0 -3.7073e-06 3.00613e-06 0 1.3472e-06 6.15114e-06 0 1.10728e-05 1.00753e-05 0 2.5781e-05 1.28107e-05 0 0 -1.25067e-08 0 -2.51114e-08 -1.27258e-08 0 -5.10103e-08 -1.33126e-08 0 -7.84934e-08 -1.43153e-08 0 -1.08448e-07 -1.58005e-08 0 -1.41827e-07 -1.77588e-08 0 -1.79715e-07 -2.034e-08 0 -2.23397e-07 -2.35985e-08 0 -2.7433e-07 -2.7605e-08 0 -3.34292e-07 -3.26919e-08 0 -4.05407e-07 -3.88595e-08 0 -4.90179e-07 -4.64259e-08 0 -5.91749e-07 -5.57761e-08 0 -7.13815e-07 -6.70248e-08 0 -8.60856e-07 -8.09227e-08 0 -1.03841e-06 -9.77517e-08 0 -1.25284e-06 -1.1787e-07 0 -1.51187e-06 -1.42551e-07 0 -1.82429e-06 -1.71504e-07 0 -2.19949e-06 -2.05284e-07 0 -2.64714e-06 -2.43549e-07 0 -3.17441e-06 -2.83976e-07 0 -3.78202e-06 -3.20988e-07 0 -4.4546e-06 -3.42806e-07 0 -5.14395e-06 -3.26164e-07 0 -5.73189e-06 -2.20163e-07 0 -5.96796e-06 6.56596e-08 0 -5.36032e-06 6.86271e-07 0 -3.03301e-06 1.85806e-06 0 2.33054e-06 3.72668e-06 0 1.20594e-05 5.99321e-06 0 2.60751e-05 7.51662e-06 0 0 -4.17369e-09 0 -2.5199e-08 -4.24684e-09 0 -5.11886e-08 -4.4427e-09 0 -7.87691e-08 -4.7774e-09 0 -1.08831e-07 -5.27315e-09 0 -1.42333e-07 -5.92682e-09 0 -1.80362e-07 -6.78845e-09 0 -2.2421e-07 -7.87616e-09 0 -2.7534e-07 -9.21355e-09 0 -3.35538e-07 -1.09116e-08 0 -4.06939e-07 -1.29704e-08 0 -4.92056e-07 -1.54962e-08 0 -5.94043e-07 -1.86174e-08 0 -7.16615e-07 -2.23722e-08 0 -8.64263e-07 -2.7011e-08 0 -1.04254e-06 -3.26275e-08 0 -1.25783e-06 -3.93407e-08 0 -1.51784e-06 -4.7574e-08 0 -1.83132e-06 -5.72278e-08 0 -2.20758e-06 -6.84825e-08 0 -2.65603e-06 -8.12118e-08 0 -3.18336e-06 -9.46266e-08 0 -3.78925e-06 -1.06818e-07 0 -4.45627e-06 -1.13789e-07 0 -5.13234e-06 -1.07656e-07 0 -5.69202e-06 -7.12101e-08 0 -5.87284e-06 2.59792e-08 0 -5.1673e-06 2.35569e-07 0 -2.69394e-06 6.28249e-07 0 2.81563e-06 1.24781e-06 0 1.25342e-05 1.98885e-06 0 2.62088e-05 2.47793e-06 0 0 4.17369e-09 0 -2.5199e-08 4.24684e-09 0 -5.11886e-08 4.4427e-09 0 -7.87691e-08 4.7774e-09 0 -1.08831e-07 5.27315e-09 0 -1.42333e-07 5.92682e-09 0 -1.80362e-07 6.78845e-09 0 -2.2421e-07 7.87616e-09 0 -2.7534e-07 9.21355e-09 0 -3.35538e-07 1.09116e-08 0 -4.06939e-07 1.29704e-08 0 -4.92056e-07 1.54962e-08 0 -5.94043e-07 1.86174e-08 0 -7.16615e-07 2.23722e-08 0 -8.64263e-07 2.7011e-08 0 -1.04254e-06 3.26275e-08 0 -1.25783e-06 3.93407e-08 0 -1.51784e-06 4.7574e-08 0 -1.83132e-06 5.72278e-08 0 -2.20758e-06 6.84825e-08 0 -2.65603e-06 8.12118e-08 0 -3.18336e-06 9.46266e-08 0 -3.78925e-06 1.06818e-07 0 -4.45627e-06 1.13789e-07 0 -5.13234e-06 1.07656e-07 0 -5.69202e-06 7.12101e-08 0 -5.87284e-06 -2.59792e-08 0 -5.1673e-06 -2.35569e-07 0 -2.69394e-06 -6.28249e-07 0 2.81563e-06 -1.24781e-06 0 1.25342e-05 -1.98885e-06 0 2.62088e-05 -2.47793e-06 0 0 1.25067e-08 0 -2.51114e-08 1.27258e-08 0 -5.10103e-08 1.33126e-08 0 -7.84934e-08 1.43153e-08 0 -1.08448e-07 1.58005e-08 0 -1.41827e-07 1.77588e-08 0 -1.79715e-07 2.034e-08 0 -2.23397e-07 2.35985e-08 0 -2.7433e-07 2.7605e-08 0 -3.34292e-07 3.26919e-08 0 -4.05407e-07 3.88595e-08 0 -4.90179e-07 4.64259e-08 0 -5.91749e-07 5.57761e-08 0 -7.13815e-07 6.70248e-08 0 -8.60856e-07 8.09227e-08 0 -1.03841e-06 9.77517e-08 0 -1.25284e-06 1.1787e-07 0 -1.51187e-06 1.42551e-07 0 -1.82429e-06 1.71504e-07 0 -2.19949e-06 2.05284e-07 0 -2.64714e-06 2.43549e-07 0 -3.17441e-06 2.83976e-07 0 -3.78202e-06 3.20988e-07 0 -4.4546e-06 3.42806e-07 0 -5.14395e-06 3.26164e-07 0 -5.73189e-06 2.20163e-07 0 -5.96796e-06 -6.56596e-08 0 -5.36032e-06 -6.86271e-07 0 -3.03301e-06 -1.85806e-06 0 2.33054e-06 -3.72668e-06 0 1.20594e-05 -5.99321e-06 0 2.60751e-05 -7.51662e-06 0 0 2.07966e-08 0 -2.49374e-08 2.11608e-08 0 -5.06558e-08 2.21361e-08 0 -7.79452e-08 2.38027e-08 0 -1.07685e-07 2.62711e-08 0 -1.40822e-07 2.95259e-08 0 -1.78429e-07 3.38158e-08 0 -2.21781e-07 3.92313e-08 0 -2.72322e-07 4.58897e-08 0 -3.31813e-07 5.43434e-08 0 -4.02361e-07 6.45932e-08 0 -4.86448e-07 7.71677e-08 0 -5.87187e-07 9.2707e-08 0 -7.08249e-07 1.11403e-07 0 -8.5408e-07 1.34504e-07 0 -1.03018e-06 1.62484e-07 0 -1.24292e-06 1.95942e-07 0 -1.49999e-06 2.37016e-07 0 -1.81027e-06 2.85238e-07 0 -2.18335e-06 3.41592e-07 0 -2.62934e-06 4.05612e-07 0 -3.1564e-06 4.73589e-07 0 -3.76722e-06 5.36714e-07 0 -4.45046e-06 5.76042e-07 0 -5.16547e-06 5.54082e-07 0 -5.80836e-06 3.88435e-07 0 -6.15265e-06 -6.88194e-08 0 -5.739e-06 -1.07558e-06 0 -3.7073e-06 -3.00613e-06 0 1.3472e-06 -6.15114e-06 0 1.10728e-05 -1.00753e-05 0 2.5781e-05 -1.28107e-05 0 -4.52229e-22 2.90149e-08 0 -2.46776e-08 2.95227e-08 0 -5.01265e-08 3.08824e-08 0 -7.71268e-08 3.32061e-08 0 -1.06547e-07 3.66475e-08 0 -1.39322e-07 4.11851e-08 0 -1.76509e-07 4.71657e-08 0 -2.19368e-07 5.47152e-08 0 -2.69323e-07 6.3997e-08 0 -3.28113e-07 7.57812e-08 0 -3.97815e-07 9.00688e-08 0 -4.80879e-07 1.07597e-07 0 -5.80378e-07 1.29259e-07 0 -6.99939e-07 1.55323e-07 0 -8.43961e-07 1.87536e-07 0 -1.0179e-06 2.26563e-07 0 -1.22808e-06 2.73252e-07 0 -1.48223e-06 3.30621e-07 0 -1.78928e-06 3.98062e-07 0 -2.15911e-06 4.77054e-07 0 -2.60249e-06 5.67178e-07 0 -3.12897e-06 6.63559e-07 0 -3.74405e-06 7.54868e-07 0 -4.44222e-06 8.15995e-07 0 -5.19374e-06 7.97116e-07 0 -5.9156e-06 5.87989e-07 0 -6.41727e-06 -1.2181e-08 0 -6.29108e-06 -1.36237e-06 0 -4.7126e-06 -4.01249e-06 0 -1.66379e-07 -8.47074e-06 0 9.48934e-06 -1.42786e-05 0 2.52662e-05 -1.85546e-05 0 0 3.71333e-08 0 -2.43331e-08 3.77826e-08 0 -4.94246e-08 3.95212e-08 0 -7.60416e-08 4.24923e-08 0 -1.05038e-07 4.68925e-08 0 -1.37332e-07 5.2694e-08 0 -1.73964e-07 6.03401e-08 0 -2.16169e-07 6.99914e-08 0 -2.65348e-07 8.1857e-08 0 -3.23208e-07 9.6921e-08 0 -3.91788e-07 1.15185e-07 0 -4.73495e-07 1.37591e-07 0 -5.7135e-07 1.65283e-07 0 -6.8892e-07 1.98606e-07 0 -8.3054e-07 2.39801e-07 0 -1.0016e-06 2.89728e-07 0 -1.20839e-06 3.49494e-07 0 -1.45861e-06 4.23018e-07 0 -1.76132e-06 5.09591e-07 0 -2.12671e-06 6.11295e-07 0 -2.56638e-06 7.27962e-07 0 -3.09158e-06 8.5386e-07 0 -3.71139e-06 9.76085e-07 0 -4.42757e-06 1.0647e-06 0 -5.22421e-06 1.06014e-06 0 -6.04511e-06 8.29402e-07 0 -6.74733e-06 1.25791e-07 0 -6.99687e-06 -1.50572e-06 0 -6.0385e-06 -4.80951e-06 0 -2.25437e-06 -1.06122e-05 0 7.17081e-06 -1.86296e-05 0 2.44228e-05 -2.4983e-05 0 0 4.5124e-08 0 -2.39053e-08 4.59121e-08 0 -4.8553e-08 4.80225e-08 0 -7.46941e-08 5.16288e-08 0 -1.03164e-07 5.69695e-08 0 -1.34861e-07 6.40107e-08 0 -1.70803e-07 7.32901e-08 0 -2.12198e-07 8.50024e-08 0 -2.60414e-07 9.9401e-08 0 -3.17118e-07 1.1768e-07 0 -3.84306e-07 1.39841e-07 0 -4.64329e-07 1.67028e-07 0 -5.60141e-07 2.00631e-07 0 -6.75237e-07 2.41073e-07 0 -8.13869e-07 2.91082e-07 0 -9.81348e-07 3.5172e-07 0 -1.18388e-06 4.2436e-07 0 -1.42918e-06 5.1385e-07 0 -1.72639e-06 6.19429e-07 0 -2.08608e-06 7.43899e-07 0 -2.52074e-06 8.87603e-07 0 -3.04363e-06 1.04431e-06 0 -3.66785e-06 1.20068e-06 0 -4.40361e-06 1.32359e-06 0 -5.25111e-06 1.34687e-06 0 -6.18591e-06 1.12129e-06 0 -7.12352e-06 3.63933e-07 0 -7.82794e-06 -1.46596e-06 0 -7.66325e-06 -5.32042e-06 0 -4.96651e-06 -1.24674e-05 0 3.91154e-06 -2.31208e-05 0 2.30691e-05 -3.23954e-05 0 0 5.29596e-08 0 -2.33959e-08 5.38835e-08 0 -4.75152e-08 5.6357e-08 0 -7.30897e-08 6.05836e-08 0 -1.00933e-07 6.68427e-08 0 -1.3192e-07 7.50942e-08 0 -1.67041e-07 8.5968e-08 0 -2.07471e-07 9.96916e-08 0 -2.5454e-07 1.16562e-07 0 -3.09871e-07 1.37977e-07 0 -3.75402e-07 1.63939e-07 0 -4.53419e-07 1.95789e-07 0 -5.46799e-07 2.35159e-07 0 -6.58946e-07 2.82548e-07 0 -7.94014e-07 3.41166e-07 0 -9.57208e-07 4.12282e-07 0 -1.15465e-06 4.97543e-07 0 -1.39401e-06 6.02753e-07 0 -1.68454e-06 7.27157e-07 0 -2.03715e-06 8.74409e-07 0 -2.46531e-06 1.04564e-06 0 -2.98438e-06 1.23454e-06 0 -3.61184e-06 1.42859e-06 0 -4.36702e-06 1.59333e-06 0 -5.26774e-06 1.65962e-06 0 -6.32498e-06 1.46975e-06 0 -7.5219e-06 7.17222e-07 0 -8.74568e-06 -1.20659e-06 0 -9.5468e-06 -5.45976e-06 0 -8.34526e-06 -1.38798e-05 0 -5.79905e-07 -2.76787e-05 0 2.08979e-05 -4.1192e-05 0 1.33374e-21 6.06137e-08 0 -2.28069e-08 6.16693e-08 0 -4.63154e-08 6.44958e-08 0 -7.12349e-08 6.93254e-08 0 -9.8354e-08 7.64771e-08 0 -1.2852e-07 8.59046e-08 0 -1.62692e-07 9.8327e-08 0 -2.02007e-07 1.14004e-07 0 -2.47753e-07 1.33273e-07 0 -3.01496e-07 1.57732e-07 0 -3.65112e-07 1.87383e-07 0 -4.40812e-07 2.23759e-07 0 -5.3138e-07 2.68725e-07 0 -6.40114e-07 3.22858e-07 0 -7.71052e-07 3.89843e-07 0 -9.2927e-07 4.71158e-07 0 -1.12078e-06 5.68734e-07 0 -1.35318e-06 6.89357e-07 0 -1.63579e-06 8.32338e-07 0 -1.97985e-06 1.00232e-06 0 -2.3998e-06 1.20152e-06 0 -2.91308e-06 1.42396e-06 0 -3.54164e-06 1.65931e-06 0 -4.31416e-06 1.87373e-06 0 -5.26672e-06 1.99909e-06 0 -6.44765e-06 1.87782e-06 0 -7.91435e-06 1.19547e-06 0 -9.70037e-06 -6.97424e-07 0 -1.16224e-05 -5.13747e-06 0 -1.24031e-05 -1.46313e-05 0 -6.70148e-06 -3.21042e-05 0 1.73753e-05 -5.19249e-05 0 0 6.80601e-08 0 -2.21418e-08 6.92433e-08 0 -4.49605e-08 7.24112e-08 0 -6.91404e-08 7.7824e-08 0 -9.54418e-08 8.58386e-08 0 -1.24682e-07 9.64029e-08 0 -1.57783e-07 1.10322e-07 0 -1.9584e-07 1.27886e-07 0 -2.40091e-07 1.49472e-07 0 -2.92043e-07 1.76869e-07 0 -3.53498e-07 2.1008e-07 0 -4.26583e-07 2.50823e-07 0 -5.13974e-07 3.0119e-07 0 -6.18852e-07 3.61835e-07 0 -7.45116e-07 4.36908e-07 0 -8.97689e-07 5.28095e-07 0 -1.08244e-06 6.37625e-07 0 -1.30688e-06 7.73286e-07 0 -1.58032e-06 9.34512e-07 0 -1.91429e-06 1.12707e-06 0 -2.32411e-06 1.35456e-06 0 -2.82919e-06 1.61178e-06 0 -3.45579e-06 1.89191e-06 0 -4.24168e-06 2.16373e-06 0 -5.24087e-06 2.36418e-06 0 -6.53907e-06 2.34509e-06 0 -8.27064e-06 1.80196e-06 0 -1.06326e-05 8.13756e-08 0 -1.37887e-05 -4.26795e-06 0 -1.70765e-05 -1.44352e-05 0 -1.49209e-05 -3.59653e-05 0 1.15955e-05 -6.53697e-05 0 0 7.52738e-08 0 -2.14013e-08 7.65797e-08 0 -4.34521e-08 8.00762e-08 0 -6.68088e-08 8.60499e-08 0 -9.22003e-08 9.48945e-08 0 -1.20409e-07 1.06552e-07 0 -1.52319e-07 1.21909e-07 0 -1.88977e-07 1.41285e-07 0 -2.31566e-07 1.65097e-07 0 -2.81526e-07 1.95315e-07 0 -3.40578e-07 2.31942e-07 0 -4.10753e-07 2.76874e-07 0 -4.9461e-07 3.32423e-07 0 -5.95191e-07 3.99318e-07 0 -7.16238e-07 4.82158e-07 0 -8.62497e-07 5.82847e-07 0 -1.03967e-06 7.0391e-07 0 -1.25509e-06 8.54157e-07 0 -1.51805e-06 1.0332e-06 0 -1.84027e-06 1.24806e-06 0 -2.23776e-06 1.504e-06 0 -2.73173e-06 1.79697e-06 0 -3.35227e-06 2.12497e-06 0 -4.1455e-06 2.46131e-06 0 -5.182e-06 2.75195e-06 0 -6.58264e-06 2.86734e-06 0 -8.55665e-06 2.53226e-06 0 -1.1471e-05 1.1345e-06 0 -1.59039e-05 -2.78559e-06 0 -2.2197e-05 -1.29486e-05 0 -2.58551e-05 -3.84117e-05 0 1.69346e-06 -8.26141e-05 0 2.71409e-21 8.22306e-08 0 -2.05894e-08 8.3654e-08 0 -4.17984e-08 8.74647e-08 0 -6.42527e-08 9.39751e-08 0 -8.86472e-08 1.03613e-07 0 -1.15727e-07 1.16315e-07 0 -1.46331e-07 1.33047e-07 0 -1.81457e-07 1.54154e-07 0 -2.22226e-07 1.80089e-07 0 -2.70005e-07 2.12997e-07 0 -3.26426e-07 2.52882e-07 0 -3.93413e-07 3.01807e-07 0 -4.73396e-07 3.62295e-07 0 -5.69263e-07 4.35147e-07 0 -6.84579e-07 5.25401e-07 0 -8.23884e-07 6.35171e-07 0 -9.92662e-07 7.67288e-07 0 -1.19806e-06 9.31587e-07 0 -1.44923e-06 1.12792e-06 0 -1.75796e-06 1.36465e-06 0 -2.1408e-06 1.64895e-06 0 -2.62033e-06 1.97832e-06 0 -3.22991e-06 2.35668e-06 0 -4.02271e-06 2.76361e-06 0 -5.08361e-06 3.15766e-06 0 -6.56416e-06 3.43658e-06 0 -8.74075e-06 3.37343e-06 0 -1.21417e-05 2.44691e-06 0 -1.77856e-05 -6.6636e-07 0 -2.7379e-05 -9.8278e-06 0 -3.98595e-05 -3.7895e-05 0 -1.58902e-05 -0.000105081 0 0 8.89076e-08 0 -1.97095e-08 9.04426e-08 0 -4.00061e-08 9.45521e-08 0 -6.14827e-08 1.01573e-07 0 -8.47969e-08 1.11965e-07 0 -1.10653e-07 1.25659e-07 0 -1.39845e-07 1.43694e-07 0 -1.73312e-07 1.66443e-07 0 -2.12111e-07 1.94393e-07 0 -2.5753e-07 2.29849e-07 0 -3.11102e-07 2.72818e-07 0 -3.74639e-07 3.25523e-07 0 -4.50425e-07 3.90683e-07 0 -5.41182e-07 4.69174e-07 0 -6.50275e-07 5.66448e-07 0 -7.82008e-07 6.84832e-07 0 -9.41617e-07 8.27461e-07 0 -1.13598e-06 1.00519e-06 0 -1.37405e-06 1.21816e-06 0 -1.66752e-06 1.47615e-06 0 -2.0332e-06 1.78845e-06 0 -2.49465e-06 2.15442e-06 0 -3.08762e-06 2.58483e-06 0 -3.87071e-06 3.06695e-06 0 -4.9399e-06 3.57494e-06 0 -6.47085e-06 4.04118e-06 0 -8.7938e-06 4.30392e-06 0 -1.25721e-05 3.98073e-06 0 -1.92283e-05 2.04845e-06 0 -3.20014e-05 -4.85038e-06 0 -5.65066e-05 -3.1886e-05 0 -4.88513e-05 -0.000134097 0 -8.38636e-21 9.52826e-08 0 -1.87649e-08 9.69231e-08 0 -3.80821e-08 1.01315e-07 0 -5.85094e-08 1.08817e-07 0 -8.06645e-08 1.1992e-07 0 -1.05208e-07 1.3455e-07 0 -1.32885e-07 1.53815e-07 0 -1.64573e-07 1.7811e-07 0 -2.01262e-07 2.07954e-07 0 -2.4415e-07 2.45807e-07 0 -2.9467e-07 2.91673e-07 0 -3.54508e-07 3.47927e-07 0 -4.25793e-07 4.17473e-07 0 -5.11064e-07 5.01255e-07 0 -6.13465e-07 6.05121e-07 0 -7.37038e-07 7.31605e-07 0 -8.86723e-07 8.84141e-07 0 -1.06908e-06 1.07459e-06 0 -1.29273e-06 1.30341e-06 0 -1.56912e-06 1.58187e-06 0 -1.91505e-06 1.92149e-06 0 -2.3545e-06 2.32372e-06 0 -2.92463e-06 2.80688e-06 0 -3.68748e-06 3.36701e-06 0 -4.74627e-06 3.99606e-06 0 -6.29248e-06 4.6664e-06 0 -8.69181e-06 5.29435e-06 0 -1.2699e-05 5.675e-06 0 -2.00293e-05 5.23472e-06 0 -3.5232e-05 1.89355e-06 0 -7.31437e-05 -1.71332e-05 0 -0.000115348 -0.000168014 0 -5.57441e-21 1.01335e-07 0 -1.77595e-08 1.03074e-07 0 -3.60346e-08 1.0773e-07 0 -5.53454e-08 1.15683e-07 0 -7.62676e-08 1.27453e-07 0 -9.94163e-08 1.42959e-07 0 -1.25483e-07 1.63373e-07 0 -1.55281e-07 1.89112e-07 0 -1.89726e-07 2.20724e-07 0 -2.29928e-07 2.60811e-07 0 -2.77205e-07 3.09376e-07 0 -3.33114e-07 3.68931e-07 0 -3.99614e-07 4.42555e-07 0 -4.79048e-07 5.31255e-07 0 -5.74321e-07 6.41251e-07 0 -6.89177e-07 7.75274e-07 0 -8.28223e-07 9.37052e-07 0 -9.97623e-07 1.13942e-06 0 -1.20557e-06 1.38318e-06 0 -1.46311e-06 1.68109e-06 0 -1.78664e-06 2.04699e-06 0 -2.20003e-06 2.48458e-06 0 -2.74075e-06 3.02011e-06 0 -3.4721e-06 3.659e-06 0 -4.50022e-06 4.41227e-06 0 -6.02295e-06 5.29524e-06 0 -8.41979e-06 6.30935e-06 0 -1.24803e-05 7.44942e-06 0 -2.00374e-05 8.68596e-06 0 -3.62555e-05 9.82366e-06 0 -8.31098e-05 7.90434e-06 0 -0.00026206 -0.000185156 0 0 1.07045e-07 0 -1.66975e-08 1.08876e-07 0 -3.38718e-08 1.13778e-07 0 -5.20036e-08 1.2215e-07 0 -7.16244e-08 1.34538e-07 0 -9.33008e-08 1.50856e-07 0 -1.17668e-07 1.72335e-07 0 -1.45474e-07 1.99411e-07 0 -1.77554e-07 2.32657e-07 0 -2.14923e-07 2.74806e-07 0 -2.58783e-07 3.25858e-07 0 -3.1055e-07 3.88454e-07 0 -3.72006e-07 4.65829e-07 0 -4.4528e-07 5.5905e-07 0 -5.33018e-07 6.74679e-07 0 -6.38641e-07 8.15637e-07 0 -7.66377e-07 9.8593e-07 0 -9.21927e-07 1.19932e-06 0 -1.11295e-06 1.45696e-06 0 -1.34986e-06 1.77309e-06 0 -1.64839e-06 2.16387e-06 0 -2.03163e-06 2.6353e-06 0 -2.53625e-06 3.22165e-06 0 -3.22452e-06 3.93788e-06 0 -4.20103e-06 4.81426e-06 0 -5.66016e-06 5.9094e-06 0 -7.97225e-06 7.31016e-06 0 -1.19001e-05 9.21226e-06 0 -1.9189e-05 1.21397e-05 0 -3.46348e-05 1.78914e-05 0 -7.78704e-05 3.71729e-05 0 -0.000665142 -7.44975e-05 0 0 1.12395e-07 0 -1.5583e-08 1.14311e-07 0 -3.16024e-08 1.19439e-07 0 -4.84976e-08 1.28196e-07 0 -6.67537e-08 1.41152e-07 0 -8.68868e-08 1.58216e-07 0 -1.09474e-07 1.8067e-07 0 -1.35192e-07 2.0897e-07 0 -1.64797e-07 2.43711e-07 0 -1.99201e-07 2.87741e-07 0 -2.39485e-07 3.4106e-07 0 -2.86916e-07 4.06421e-07 0 -3.4309e-07 4.87202e-07 0 -4.0991e-07 5.84524e-07 0 -4.89743e-07 7.05261e-07 0 -5.85658e-07 8.52506e-07 0 -7.01464e-07 1.03053e-06 0 -8.42329e-07 1.25396e-06 0 -1.01526e-06 1.52429e-06 0 -1.22988e-06 1.85719e-06 0 -1.50086e-06 2.27107e-06 0 -1.84996e-06 2.77419e-06 0 -2.31188e-06 3.40861e-06 0 -2.94566e-06 4.19854e-06 0 -3.84998e-06 5.19269e-06 0 -5.20631e-06 6.49051e-06 0 -7.35401e-06 8.25785e-06 0 -1.09713e-05 1.08709e-05 0 -1.75284e-05 1.53264e-05 0 -3.05948e-05 2.49335e-05 0 -5.86345e-05 5.65144e-05 0 0.0134149 -0.00288631 0 </DataArray> 
</PointData> 
<Points> 
<DataArray type="Float32" NumberOfComponents="3"> 