<?xml version="1.0"?> 
<VTKFile type="StructuredGrid" version="0.1"> 
<StructuredGrid WholeExtent="0 31 0 31 0 0"> 
<Piece Extent="0 31 0 31 0 0"> 
<PointData>
<DataArray type="Float32" Name="B" format="ascii" NumberOfComponents="3"> 
0.000816389 0.00335995 0 0.0003066 0.000141225 0 0.000161067 8.07571e-05 0 0.000108984 6.10357e-05 0 8.26183e-05 5.03136e-05 0 6.67249e-05 4.29251e-05 0 5.59965e-05 3.71866e-05 0 4.81406e-05 3.24662e-05 0 4.20327e-05 2.8488e-05 0 3.70666e-05 2.50672e-05 0 3.29033e-05 2.21137e-05 0 2.93305e-05 1.95914e-05 0 2.62154e-05 1.73859e-05 0 2.34681e-05 1.54884e-05 0 2.10228e-05 1.38453e-05 0 1.8832e-05 1.24053e-05 0 1.68579e-05 1.11752e-05 0 1.50699e-05 1.00973e-05 0 1.34433e-05 9.15908e-06 0 1.19564e-05 8.35288e-06 0 1.0591e-05 7.64684e-06 0 9.33137e-06 7.04109e-06 0 8.163e-06 6.51982e-06 0 7.07352e-06 6.06872e-06 0 6.05148e-06 5.69371e-06 0 5.08642e-06 5.37602e-06 0 4.16898e-06 5.11438e-06 0 3.29012e-06 4.90858e-06 0 2.44156e-06 4.74842e-06 0 1.61546e-06 4.63784e-06 0 8.04039e-07 4.57219e-06 0 0 4.5475e-06 0 -5.60607e-05 0.000359984 0 0.000113061 0.000232949 0 0.000107913 0.000132288 0 8.61818e-05 8.92382e-05 0 6.97342e-05 6.75066e-05 0 5.80723e-05 5.44416e-05 0 4.954e-05 4.55002e-05 0 4.30149e-05 3.88349e-05 0 3.78156e-05 3.36044e-05 0 3.35262e-05 2.9313e-05 0 2.98947e-05 2.57252e-05 0 2.67551e-05 2.27307e-05 0 2.40003e-05 2.01449e-05 0 2.15565e-05 1.79402e-05 0 1.93691e-05 1.60411e-05 0 1.7399e-05 1.43814e-05 0 1.56145e-05 1.29661e-05 0 1.39905e-05 1.17265e-05 0 1.25062e-05 1.06474e-05 0 1.11435e-05 9.71963e-06 0 9.88735e-06 8.90664e-06 0 8.72416e-06 8.20853e-06 0 7.64167e-06 7.60727e-06 0 6.62922e-06 7.08655e-06 0 5.67687e-06 6.65328e-06 0 4.77548e-06 6.286e-06 0 3.9168e-06 5.98333e-06 0 3.0928e-06 5.74511e-06 0 2.29611e-06 5.55966e-06 0 1.51967e-06 5.43156e-06 0 7.56499e-07 5.3555e-06 0 0 5.32689e-06 0 -4.45883e-05 0.000204766 0 2.64576e-05 0.000181022 0 5.41275e-05 0.000134541 0 5.67052e-05 9.96735e-05 0 5.21043e-05 7.71251e-05 0 4.6404e-05 6.21899e-05 0 4.11522e-05 5.16774e-05 0 3.6609e-05 4.38498e-05 0 3.2713e-05 3.77785e-05 0 2.93455e-05 3.28601e-05 0 2.64026e-05 2.87938e-05 0 2.38007e-05 2.54309e-05 0 2.14785e-05 2.25426e-05 0 1.93903e-05 2.00894e-05 0 1.75003e-05 1.79808e-05 0 1.57814e-05 1.61394e-05 0 1.42115e-05 1.45692e-05 0 1.27721e-05 1.31933e-05 0 1.14477e-05 1.19945e-05 0 1.02247e-05 1.09627e-05 0 9.09115e-06 1.00575e-05 0 8.03642e-06 9.27927e-06 0 7.05062e-06 8.60823e-06 0 6.12503e-06 8.02649e-06 0 5.25141e-06 7.54192e-06 0 4.42207e-06 7.1308e-06 0 3.62998e-06 6.79175e-06 0 2.86826e-06 6.52472e-06 0 2.13051e-06 6.31673e-06 0 1.41059e-06 6.17301e-06 0 7.02352e-07 6.08765e-06 0 0 6.05554e-06 0 -3.83029e-05 0.000147901 0 -1.5611e-06 0.000140968 0 2.22121e-05 0.00011988 0 3.24403e-05 9.7639e-05 0 3.49721e-05 7.95108e-05 0 3.4125e-05 6.57405e-05 0 3.20177e-05 5.52901e-05 0 2.95519e-05 4.7196e-05 0 2.70845e-05 4.0794e-05 0 2.47456e-05 3.55626e-05 0 2.2573e-05 3.12201e-05 0 2.05694e-05 2.76218e-05 0 1.87251e-05 2.45284e-05 0 1.7027e-05 2.18982e-05 0 1.54614e-05 1.96346e-05 0 1.40157e-05 1.76555e-05 0 1.26785e-05 1.59648e-05 0 1.14392e-05 1.4481e-05 0 1.02882e-05 1.31859e-05 0 9.21672e-06 1.20691e-05 0 8.21644e-06 1.1088e-05 0 7.27984e-06 1.0243e-05 0 6.39959e-06 9.51328e-06 0 5.56903e-06 8.8799e-06 0 4.78173e-06 8.35158e-06 0 4.03157e-06 7.90291e-06 0 3.31282e-06 7.53255e-06 0 2.61981e-06 7.24062e-06 0 1.94719e-06 7.01312e-06 0 1.28979e-06 6.85583e-06 0 6.42375e-07 6.76238e-06 0 -1.15131e-19 6.72722e-06 0 -3.4979e-05 0.000118308 0 -1.28857e-05 0.000115413 0 4.59797e-06 0.000104566 0 1.54008e-05 9.07238e-05 0 2.08332e-05 7.74164e-05 0 2.29163e-05 6.59999e-05 0 2.31592e-05 5.65952e-05 0 2.2462e-05 4.89128e-05 0 2.13142e-05 4.26253e-05 0 1.99741e-05 3.73797e-05 0 1.85723e-05 3.29653e-05 0 1.71781e-05 2.92708e-05 0 1.58256e-05 2.60755e-05 0 1.45313e-05 2.33445e-05 0 1.33027e-05 2.09845e-05 0 1.21418e-05 1.89141e-05 0 1.10478e-05 1.71394e-05 0 1.00181e-05 1.55776e-05 0 9.0494e-06 1.4211e-05 0 8.13755e-06 1.30295e-05 0 7.27822e-06 1.19893e-05 0 6.46692e-06 1.10915e-05 0 5.69896e-06 1.03149e-05 0 4.96983e-06 9.6397e-06 0 4.27494e-06 9.07561e-06 0 3.60975e-06 8.59601e-06 0 2.96991e-06 8.1997e-06 0 2.35099e-06 7.88701e-06 0 1.74874e-06 7.64318e-06 0 1.15896e-06 7.4745e-06 0 5.77402e-07 7.37426e-06 0 0 7.33654e-06 0 -3.34083e-05 0.000100102 0 -1.86448e-05 9.82985e-05 0 -5.72448e-06 9.18724e-05 0 3.80067e-06 8.28673e-05 0 9.93531e-06 7.32451e-05 0 1.34448e-05 6.41894e-05 0 1.51759e-05 5.61726e-05 0 1.57864e-05 4.92668e-05 0 1.57185e-05 4.33932e-05 0 1.52532e-05 3.8363e-05 0 1.45592e-05 3.40486e-05 0 1.37424e-05 3.0383e-05 0 1.28661e-05 2.71824e-05 0 1.1969e-05 2.44237e-05 0 1.10757e-05 2.20243e-05 0 1.02005e-05 1.9909e-05 0 9.35228e-06 1.80865e-05 0 8.53586e-06 1.64768e-05 0 7.75349e-06 1.50634e-05 0 7.00572e-06 1.38375e-05 0 6.29189e-06 1.27554e-05 0 5.61051e-06 1.18192e-05 0 4.95946e-06 1.10075e-05 0 4.33633e-06 1.03005e-05 0 3.73836e-06 9.70881e-06 0 3.16258e-06 9.20506e-06 0 2.60602e-06 8.7883e-06 0 2.06548e-06 8.45912e-06 0 1.53781e-06 8.20224e-06 0 1.01984e-06 8.02443e-06 0 5.08297e-07 7.91871e-06 0 0 7.87893e-06 0 -3.29851e-05 8.76218e-05 0 -2.22759e-05 8.60628e-05 0 -1.23732e-05 8.17146e-05 0 -4.29748e-06 7.54712e-05 0 1.65924e-06 6.83863e-05 0 5.712e-06 6.1276e-05 0 8.27488e-06 5.46129e-05 0 9.76121e-06 4.85998e-05 0 1.05041e-05 4.32928e-05 0 1.07491e-05 3.86229e-05 0 1.06628e-05 3.4532e-05 0 1.03624e-05 3.09943e-05 0 9.92477e-06 2.78691e-05 0 9.40181e-06 2.5147e-05 0 8.82962e-06 2.27599e-05 0 8.23179e-06 2.06423e-05 0 7.62468e-06 1.88062e-05 0 7.01934e-06 1.71772e-05 0 6.42286e-06 1.5741e-05 0 5.83989e-06 1.44904e-05 0 5.27308e-06 1.33832e-05 0 4.72371e-06 1.24225e-05 0 4.19207e-06 1.15874e-05 0 3.67769e-06 1.08587e-05 0 3.17956e-06 1.02475e-05 0 2.69626e-06 9.72632e-06 0 2.22609e-06 9.29461e-06 0 1.76711e-06 8.95322e-06 0 1.31723e-06 8.68659e-06 0 8.74286e-07 8.50191e-06 0 4.35968e-07 8.39206e-06 0 6.32911e-19 8.35071e-06 0 -3.33356e-05 7.8295e-05 0 -2.49947e-05 7.67491e-05 0 -1.70625e-05 7.34734e-05 0 -1.0193e-05 6.88657e-05 0 -4.68549e-06 6.34909e-05 0 -5.3594e-07 5.78701e-05 0 2.43431e-06 5.23767e-05 0 4.46265e-06 4.72275e-05 0 5.77611e-06 4.25321e-05 0 6.56555e-06 3.82931e-05 0 6.97506e-06 3.45008e-05 0 7.11542e-06 3.11604e-05 0 7.06552e-06 2.81716e-05 0 6.88225e-06 2.55378e-05 0 6.60779e-06 2.32066e-05 0 6.27142e-06 2.11236e-05 0 5.89478e-06 1.93045e-05 0 5.49348e-06 1.76823e-05 0 5.07843e-06 1.62453e-05 0 4.65768e-06 1.49885e-05 0 4.23667e-06 1.38721e-05 0 3.81908e-06 1.29001e-05 0 3.40733e-06 1.2053e-05 0 3.00274e-06 1.13121e-05 0 2.6059e-06 1.06892e-05 0 2.21679e-06 1.01573e-05 0 1.83496e-06 9.71604e-06 0 1.45962e-06 9.36664e-06 0 1.08972e-06 9.09351e-06 0 7.24076e-07 8.90419e-06 0 3.61302e-07 8.79152e-06 0 0 8.74911e-06 0 -3.41759e-05 7.07858e-05 0 -2.72547e-05 6.92404e-05 0 -2.06101e-05 6.65932e-05 0 -1.46546e-05 6.30158e-05 0 -9.62376e-06 5.88133e-05 0 -5.57769e-06 5.431e-05 0 -2.45135e-06 4.9776e-05 0 -1.15634e-07 4.53983e-05 0 1.57588e-06 4.12951e-05 0 2.76202e-06 3.75052e-05 0 3.55791e-06 3.40471e-05 0 4.05946e-06 3.09457e-05 0 4.33978e-06 2.8135e-05 0 4.45474e-06 2.56276e-05 0 4.44807e-06 2.33865e-05 0 4.35157e-06 2.13685e-05 0 4.18981e-06 1.95924e-05 0 3.98135e-06 1.79995e-05 0 3.7398e-06 1.65813e-05 0 3.47571e-06 1.53349e-05 0 3.19675e-06 1.42238e-05 0 2.90856e-06 1.3253e-05 0 2.61534e-06 1.24043e-05 0 2.31995e-06 1.16603e-05 0 2.0244e-06 1.10332e-05 0 1.72993e-06 1.04968e-05 0 1.43724e-06 1.00511e-05 0 1.1466e-06 9.69774e-06 0 8.57928e-07 9.42123e-06 0 5.70939e-07 9.22942e-06 0 2.85153e-07 9.11522e-06 0 0 9.07221e-06 0 -3.52482e-05 6.43527e-05 0 -2.92304e-05 6.28745e-05 0 -2.3462e-05 6.06639e-05 0 -1.81927e-05 5.77916e-05 0 -1.35888e-05 5.44254e-05 0 -9.71841e-06 5.07674e-05 0 -6.56787e-06 4.70069e-05 0 -4.07077e-06 4.32923e-05 0 -2.13613e-06 3.97309e-05 0 -6.67065e-07 3.63756e-05 0 4.2411e-07 3.32592e-05 0 1.21597e-06 3.04165e-05 0 1.77224e-06 2.78079e-05 0 2.14434e-06 2.54527e-05 0 2.37435e-06 2.33264e-05 0 2.49426e-06 2.13966e-05 0 2.52971e-06 1.96843e-05 0 2.50081e-06 1.81396e-05 0 2.42279e-06 1.67569e-05 0 2.30795e-06 1.55354e-05 0 2.16557e-06 1.44424e-05 0 2.00281e-06 1.34837e-05 0 1.82532e-06 1.2643e-05 0 1.63725e-06 1.19042e-05 0 1.44179e-06 1.12798e-05 0 1.24132e-06 1.07448e-05 0 1.03752e-06 1.02994e-05 0 8.31635e-07 9.94584e-06 0 6.24487e-07 9.6689e-06 0 4.16621e-07 9.47663e-06 0 2.08388e-07 9.3621e-06 0 0 9.31895e-06 0 -3.63628e-05 5.86021e-05 0 -3.09562e-05 5.72714e-05 0 -2.58066e-05 5.54157e-05 0 -2.10571e-05 5.30676e-05 0 -1.68164e-05 5.03257e-05 0 -1.31411e-05 4.73199e-05 0 -1.00372e-05 4.41831e-05 0 -7.47243e-06 4.10293e-05 0 -5.3914e-06 3.79492e-05 0 -3.72819e-06 3.49977e-05 0 -2.41801e-06 3.22127e-05 0 -1.3988e-06 2.96327e-05 0 -6.17247e-07 2.72372e-05 0 -2.82425e-08 2.5049e-05 0 4.06814e-07 2.30541e-05 0 7.18388e-07 2.12293e-05 0 9.31745e-07 1.95967e-05 0 1.06735e-06 1.8115e-05 0 1.14119e-06 1.67814e-05 0 1.16656e-06 1.55972e-05 0 1.15379e-06 1.45332e-05 0 1.11112e-06 1.35963e-05 0 1.04529e-06 1.27721e-05 0 9.61478e-07 1.20458e-05 0 8.63857e-07 1.14304e-05 0 7.55743e-07 1.0902e-05 0 6.3969e-07 1.04615e-05 0 5.17789e-07 1.01112e-05 0 3.91659e-07 9.83654e-06 0 2.62607e-07 9.64569e-06 0 1.31744e-07 9.53194e-06 0 0 9.48909e-06 0 -3.73625e-05 5.33326e-05 0 -3.24065e-05 5.22092e-05 0 -2.77133e-05 5.06704e-05 0 -2.33634e-05 4.87418e-05 0 -1.94258e-05 4.6489e-05 0 -1.59422e-05 4.40005e-05 0 -1.29232e-05 4.13721e-05 0 -1.03532e-05 3.86912e-05 0 -8.1979e-06 3.6032e-05 0 -6.41238e-06 3.34466e-05 0 -4.94921e-06 3.09729e-05 0 -3.7603e-06 2.86489e-05 0 -2.80226e-06 2.64674e-05 0 -2.03675e-06 2.44526e-05 0 -1.42969e-06 2.25984e-05 0 -9.53219e-07 2.08892e-05 0 -5.83518e-07 1.93475e-05 0 -3.00719e-07 1.79401e-05 0 -8.88689e-08 1.66662e-05 0 6.56274e-08 1.5529e-05 0 1.73632e-07 1.45032e-05 0 2.44031e-07 1.35963e-05 0 2.84298e-07 1.27958e-05 0 3.00325e-07 1.20885e-05 0 2.97052e-07 1.14875e-05 0 2.7854e-07 1.09705e-05 0 2.48055e-07 1.05387e-05 0 2.08409e-07 1.01948e-05 0 1.61904e-07 9.92494e-06 0 1.10514e-07 9.73723e-06 0 5.60229e-08 9.6253e-06 0 0 9.58311e-06 0 -3.81838e-05 4.84623e-05 0 -3.36157e-05 4.75715e-05 0 -2.93011e-05 4.63222e-05 0 -2.52855e-05 4.47441e-05 0 -2.16124e-05 4.28882e-05 0 -1.83111e-05 4.08199e-05 0 -1.53924e-05 3.86111e-05 0 -1.28496e-05 3.63298e-05 0 -1.0662e-05 3.40367e-05 0 -8.79919e-06 3.17786e-05 0 -7.22701e-06 2.95913e-05 0 -5.90885e-06 2.75102e-05 0 -4.81011e-06 2.55369e-05 0 -3.89895e-06 2.36956e-05 0 -3.14601e-06 2.1986e-05 0 -2.52651e-06 2.03982e-05 0 -2.0186e-06 1.89548e-05 0 -1.60356e-06 1.76294e-05 0 -1.266e-06 1.64231e-05 0 -9.92458e-07 1.53405e-05 0 -7.71931e-07 1.436e-05 0 -5.95214e-07 1.34897e-05 0 -4.54383e-07 1.2719e-05 0 -3.43038e-07 1.20362e-05 0 -2.55676e-07 1.14544e-05 0 -1.87649e-07 1.09529e-05 0 -1.3511e-07 1.05333e-05 0 -9.46424e-08 1.01986e-05 0 -6.33582e-08 9.93564e-06 0 -3.87015e-08 9.75259e-06 0 -1.82945e-08 9.64338e-06 0 0 9.6022e-06 0 -3.8779e-05 4.39616e-05 0 -3.45632e-05 4.32971e-05 0 -3.05757e-05 4.23074e-05 0 -2.68471e-05 4.10271e-05 0 -2.34069e-05 3.95005e-05 0 -2.02766e-05 3.77795e-05 0 -1.74662e-05 3.59208e-05 0 -1.49734e-05 3.39789e-05 0 -1.27857e-05 3.20032e-05 0 -1.08826e-05 3.00356e-05 0 -9.23947e-06 2.81085e-05 0 -7.82871e-06 2.62537e-05 0 -6.62299e-06 2.44789e-05 0 -5.59629e-06 2.28068e-05 0 -4.7238e-06 2.12412e-05 0 -3.98391e-06 1.97769e-05 0 -3.35708e-06 1.84357e-05 0 -2.82614e-06 1.71971e-05 0 -2.3766e-06 1.60638e-05 0 -1.99552e-06 1.50415e-05 0 -1.67212e-06 1.41119e-05 0 -1.39715e-06 1.32835e-05 0 -1.16252e-06 1.25475e-05 0 -9.6153e-07 1.18936e-05 0 -7.88318e-07 1.13349e-05 0 -6.37814e-07 1.08524e-05 0 -5.0573e-07 1.04479e-05 0 -3.88171e-07 1.01248e-05 0 -2.8177e-07 9.87073e-06 0 -1.83485e-07 9.69368e-06 0 -9.04366e-08 9.58798e-06 0 0 9.54812e-06 0 -3.91704e-05 3.9814e-05 0 -3.52829e-05 3.93491e-05 0 -3.15903e-05 3.85848e-05 0 -2.81178e-05 3.75575e-05 0 -2.48883e-05 3.6307e-05 0 -2.19192e-05 3.48768e-05 0 -1.92194e-05 3.33131e-05 0 -1.67897e-05 3.16607e-05 0 -1.46227e-05 2.99605e-05 0 -1.27049e-05 2.82497e-05 0 -1.10185e-05 2.65569e-05 0 -9.54286e-06 2.49106e-05 0 -8.25668e-06 2.33218e-05 0 -7.13892e-06 2.18117e-05 0 -6.16892e-06 2.03866e-05 0 -5.32818e-06 1.90449e-05 0 -4.5995e-06 1.78071e-05 0 -3.96741e-06 1.66577e-05 0 -3.4186e-06 1.56006e-05 0 -2.94088e-06 1.46422e-05 0 -2.52391e-06 1.37675e-05 0 -2.15865e-06 1.29849e-05 0 -1.83702e-06 1.22873e-05 0 -1.55223e-06 1.1666e-05 0 -1.2982e-06 1.11336e-05 0 -1.06959e-06 1.06729e-05 0 -8.61783e-07 1.02861e-05 0 -6.70531e-07 9.97662e-06 0 -4.92081e-07 9.73296e-06 0 -3.22998e-07 9.56303e-06 0 -1.59982e-07 9.46153e-06 0 -7.16759e-20 9.42324e-06 0 -3.94026e-05 3.60011e-05 0 -3.58214e-05 3.57011e-05 0 -3.23999e-05 3.51265e-05 0 -2.91616e-05 3.4312e-05 0 -2.61266e-05 3.32932e-05 0 -2.331e-05 3.21075e-05 0 -2.07206e-05 3.07937e-05 0 -1.8361e-05 2.9389e-05 0 -1.62277e-05 2.7928e-05 0 -1.4312e-05 2.64434e-05 0 -1.26016e-05 2.49607e-05 0 -1.10813e-05 2.35047e-05 0 -9.7345e-06 2.20885e-05 0 -8.54462e-06 2.07314e-05 0 -7.49464e-06 1.94412e-05 0 -6.56894e-06 1.82189e-05 0 -5.75263e-06 1.70837e-05 0 -5.032e-06 1.6024e-05 0 -4.39496e-06 1.50447e-05 0 -3.83027e-06 1.41525e-05 0 -3.32814e-06 1.33352e-05 0 -2.87991e-06 1.26012e-05 0 -2.47767e-06 1.19449e-05 0 -2.11464e-06 1.13588e-05 0 -1.78468e-06 1.08552e-05 0 -1.48227e-06 1.04187e-05 0 -1.2026e-06 1.00515e-05 0 -9.41125e-07 9.75728e-06 0 -6.93813e-07 9.52539e-06 0 -4.56905e-07 9.36353e-06 0 -2.26759e-07 9.2668e-06 0 1.11581e-19 9.2303e-06 0 -3.94856e-05 3.24977e-05 0 -3.61817e-05 3.2328e-05 0 -3.30048e-05 3.19088e-05 0 -2.99782e-05 3.1271e-05 0 -2.71206e-05 3.04462e-05 0 -2.44463e-05 2.94664e-05 0 -2.19646e-05 2.83646e-05 0 -1.96793e-05 2.71725e-05 0 -1.75897e-05 2.59193e-05 0 -1.56903e-05 2.46338e-05 0 -1.3973e-05 2.33386e-05 0 -1.24264e-05 2.20553e-05 0 -1.1038e-05 2.0798e-05 0 -9.79468e-06 1.95839e-05 0 -8.68247e-06 1.84217e-05 0 -7.68833e-06 1.73144e-05 0 -6.79952e-06 1.62793e-05 0 -6.00403e-06 1.53084e-05 0 -5.29104e-06 1.44069e-05 0 -4.6503e-06 1.35819e-05 0 -4.07273e-06 1.28234e-05 0 -3.55014e-06 1.21398e-05 0 -3.07491e-06 1.15266e-05 0 -2.64043e-06 1.09777e-05 0 -2.24058e-06 1.05049e-05 0 -1.86982e-06 1.00942e-05 0 -1.52321e-06 9.74824e-06 0 -1.19604e-06 9.47058e-06 0 -8.84056e-07 9.25154e-06 0 -5.83281e-07 9.09852e-06 0 -2.89809e-07 9.00701e-06 0 0 8.97248e-06 0 -3.94756e-05 2.92747e-05 0 -3.64233e-05 2.92044e-05 0 -3.34696e-05 2.89097e-05 0 -3.06368e-05 2.84171e-05 0 -2.79432e-05 2.77539e-05 0 -2.54028e-05 2.69473e-05 0 -2.30249e-05 2.60257e-05 0 -2.08148e-05 2.50161e-05 0 -1.87736e-05 2.39433e-05 0 -1.68987e-05 2.28329e-05 0 -1.51847e-05 2.17049e-05 0 -1.36237e-05 2.05776e-05 0 -1.22062e-05 1.94657e-05 0 -1.09221e-05 1.83843e-05 0 -9.76004e-06 1.73427e-05 0 -8.70933e-06 1.63448e-05 0 -7.75914e-06 1.54063e-05 0 -6.89905e-06 1.45221e-05 0 -6.11951e-06 1.36974e-05 0 -5.41127e-06 1.29394e-05 0 -4.76598e-06 1.22402e-05 0 -4.17599e-06 1.16079e-05 0 -3.63406e-06 1.1039e-05 0 -3.13381e-06 1.05286e-05 0 -2.66924e-06 1.00878e-05 0 -2.23482e-06 9.70428e-06 0 -1.82559e-06 9.38067e-06 0 -1.43672e-06 9.1206e-06 0 -1.06384e-06 8.91522e-06 0 -7.02782e-07 8.77163e-06 0 -3.49451e-07 8.68572e-06 0 0 8.6533e-06 0 -3.93944e-05 2.63026e-05 0 -3.65672e-05 2.63059e-05 0 -3.38144e-05 2.6109e-05 0 -3.11576e-05 2.57342e-05 0 -2.86144e-05 2.52045e-05 0 -2.61984e-05 2.45433e-05 0 -2.39194e-05 2.37747e-05 0 -2.17836e-05 2.29218e-05 0 -1.97934e-05 2.20057e-05 0 -1.79485e-05 2.10492e-05 0 -1.62457e-05 2.00696e-05 0 -1.46796e-05 1.9083e-05 0 -1.32434e-05 1.81036e-05 0 -1.19293e-05 1.71448e-05 0 -1.07283e-05 1.62157e-05 0 -9.63164e-06 1.53212e-05 0 -8.63023e-06 1.44753e-05 0 -7.71514e-06 1.36748e-05 0 -6.87799e-06 1.29252e-05 0 -6.1105e-06 1.22333e-05 0 -5.4051e-06 1.15931e-05 0 -4.75467e-06 1.10122e-05 0 -4.15243e-06 1.04883e-05 0 -3.59225e-06 1.0017e-05 0 -3.06832e-06 9.60915e-06 0 -2.57522e-06 9.25365e-06 0 -2.10798e-06 8.95323e-06 0 -1.66175e-06 8.71146e-06 0 -1.23208e-06 8.52037e-06 0 -8.1468e-07 8.38666e-06 0 -4.05319e-07 8.30662e-06 0 0 8.27641e-06 0 -3.92606e-05 2.3552e-05 0 -3.66308e-05 2.36078e-05 0 -3.4056e-05 2.34864e-05 0 -3.15564e-05 2.32062e-05 0 -2.9149e-05 2.27864e-05 0 -2.6847e-05 2.22468e-05 0 -2.46605e-05 2.16079e-05 0 -2.25961e-05 2.08895e-05 0 -2.06577e-05 2.01095e-05 0 -1.88462e-05 1.92882e-05 0 -1.71603e-05 1.84406e-05 0 -1.55966e-05 1.75804e-05 0 -1.41504e-05 1.67215e-05 0 -1.28156e-05 1.58754e-05 0 -1.15853e-05 1.50511e-05 0 -1.04523e-05 1.42537e-05 0 -9.40921e-06 1.34957e-05 0 -8.44824e-06 1.27756e-05 0 -7.56215e-06 1.20986e-05 0 -6.7436e-06 1.14715e-05 0 -5.98571e-06 1.08893e-05 0 -5.28197e-06 1.03596e-05 0 -4.62603e-06 9.88059e-06 0 -4.01208e-06 9.44881e-06 0 -3.43455e-06 9.07426e-06 0 -2.88814e-06 8.74728e-06 0 -2.36795e-06 8.47058e-06 0 -1.86916e-06 8.24761e-06 0 -1.38728e-06 8.07121e-06 0 -9.17977e-07 7.9477e-06 0 -4.56912e-07 7.87373e-06 0 0 7.8458e-06 0 -3.90978e-05 2.09959e-05 0 -3.66432e-05 2.10873e-05 0 -3.42275e-05 2.1023e-05 0 -3.18697e-05 2.08178e-05 0 -2.95857e-05 2.04878e-05 0 -2.73885e-05 2.00496e-05 0 -2.52882e-05 1.95206e-05 0 -2.32919e-05 1.89176e-05 0 -2.14043e-05 1.82559e-05 0 -1.96275e-05 1.75533e-05 0 -1.79616e-05 1.68229e-05 0 -1.64049e-05 1.60763e-05 0 -1.49542e-05 1.53268e-05 0 -1.3605e-05 1.45841e-05 0 -1.23522e-05 1.38569e-05 0 -1.119e-05 1.31504e-05 0 -1.01121e-05 1.24756e-05 0 -9.11218e-06 1.18322e-05 0 -8.18382e-06 1.12252e-05 0 -7.32059e-06 1.06609e-05 0 -6.51632e-06 1.01356e-05 0 -5.76504e-06 9.6563e-06 0 -5.06084e-06 9.22179e-06 0 -4.39827e-06 8.82936e-06 0 -3.77199e-06 8.48825e-06 0 -3.17686e-06 8.19002e-06 0 -2.60811e-06 7.9373e-06 0 -2.06095e-06 7.73342e-06 0 -1.53091e-06 7.57199e-06 0 -1.01361e-06 7.45888e-06 0 -5.04695e-07 7.39111e-06 0 0 7.36551e-06 0 -3.89167e-05 1.86097e-05 0 -3.66141e-05 1.87234e-05 0 -3.43376e-05 1.87009e-05 0 -3.21047e-05 1.85544e-05 0 -2.99306e-05 1.82974e-05 0 -2.78278e-05 1.79434e-05 0 -2.58061e-05 1.75073e-05 0 -2.38732e-05 1.70033e-05 0 -2.20341e-05 1.64444e-05 0 -2.0292e-05 1.58461e-05 0 -1.86481e-05 1.52198e-05 0 -1.71017e-05 1.45754e-05 0 -1.56511e-05 1.3925e-05 0 -1.42932e-05 1.32773e-05 0 -1.3024e-05 1.264e-05 0 -1.18391e-05 1.20184e-05 0 -1.07332e-05 1.14221e-05 0 -9.70101e-06 1.08516e-05 0 -8.73708e-06 1.03116e-05 0 -7.83572e-06 9.80793e-06 0 -6.99138e-06 9.33798e-06 0 -6.19864e-06 8.90802e-06 0 -5.45202e-06 8.51738e-06 0 -4.7464e-06 8.16394e-06 0 -4.07671e-06 7.85612e-06 0 -3.43798e-06 7.58663e-06 0 -2.82558e-06 7.35797e-06 0 -2.2348e-06 7.1733e-06 0 -1.6612e-06 7.02697e-06 0 -1.10042e-06 6.92437e-06 0 -5.48081e-07 6.86287e-06 0 0 6.83964e-06 0 -3.87295e-05 1.63706e-05 0 -3.65587e-05 1.64957e-05 0 -3.44038e-05 1.65028e-05 0 -3.22808e-05 1.64018e-05 0 -3.02041e-05 1.62035e-05 0 -2.81856e-05 1.59194e-05 0 -2.62352e-05 1.55618e-05 0 -2.43604e-05 1.51429e-05 0 -2.25668e-05 1.46735e-05 0 -2.08583e-05 1.41671e-05 0 -1.92368e-05 1.36334e-05 0 -1.77028e-05 1.30809e-05 0 -1.62554e-05 1.25207e-05 0 -1.48927e-05 1.19599e-05 0 -1.36117e-05 1.14058e-05 0 -1.24091e-05 1.08634e-05 0 -1.12806e-05 1.0341e-05 0 -1.02217e-05 9.8397e-06 0 -9.22784e-06 9.36378e-06 0 -8.2939e-06 8.9186e-06 0 -7.41498e-06 8.50223e-06 0 -6.58613e-06 8.12039e-06 0 -5.80231e-06 7.77276e-06 0 -5.05869e-06 7.45772e-06 0 -4.35047e-06 7.18285e-06 0 -3.67289e-06 6.94191e-06 0 -3.02143e-06 6.73725e-06 0 -2.39151e-06 6.57178e-06 0 -1.77872e-06 6.44058e-06 0 -1.17876e-06 6.34853e-06 0 -5.87246e-07 6.29334e-06 0 0 6.27248e-06 0 -3.85442e-05 1.42586e-05 0 -3.64882e-05 1.43867e-05 0 -3.44396e-05 1.44133e-05 0 -3.24135e-05 1.43465e-05 0 -3.04231e-05 1.41953e-05 0 -2.84799e-05 1.3969e-05 0 -2.65936e-05 1.36778e-05 0 -2.47718e-05 1.3332e-05 0 -2.30204e-05 1.29407e-05 0 -2.13436e-05 1.25154e-05 0 -1.97442e-05 1.20644e-05 0 -1.82233e-05 1.15948e-05 0 -1.67809e-05 1.11165e-05 0 -1.54161e-05 1.06357e-05 0 -1.41268e-05 1.01587e-05 0 -1.29103e-05 9.6903e-06 0 -1.17634e-05 9.23751e-06 0 -1.06823e-05 8.80178e-06 0 -9.66298e-06 8.38703e-06 0 -8.70111e-06 7.99805e-06 0 -7.79225e-06 7.63347e-06 0 -6.9319e-06 7.29843e-06 0 -6.1154e-06 6.99284e-06 0 -5.33824e-06 6.71548e-06 0 -4.59585e-06 6.47311e-06 0 -3.88367e-06 6.26041e-06 0 -3.19734e-06 6.07955e-06 0 -2.53236e-06 5.93319e-06 0 -1.88442e-06 5.81707e-06 0 -1.24924e-06 5.73555e-06 0 -6.22494e-07 5.68666e-06 0 0 5.66818e-06 0 -3.83691e-05 1.22551e-05 0 -3.64092e-05 1.23793e-05 0 -3.445e-05 1.24175e-05 0 -3.25057e-05 1.2376e-05 0 -3.05888e-05 1.22621e-05 0 -2.87102e-05 1.20835e-05 0 -2.68794e-05 1.18486e-05 0 -2.5104e-05 1.15659e-05 0 -2.339e-05 1.1243e-05 0 -2.17421e-05 1.08895e-05 0 -2.01634e-05 1.05126e-05 0 -1.86557e-05 1.01181e-05 0 -1.72196e-05 9.71467e-06 0 -1.58549e-05 9.30746e-06 0 -1.45602e-05 8.90217e-06 0 -1.33336e-05 8.50294e-06 0 -1.21725e-05 8.11582e-06 0 -1.10737e-05 7.74235e-06 0 -1.00338e-05 7.38603e-06 0 -9.04901e-06 7.05105e-06 0 -8.1153e-06 6.73652e-06 0 -7.22858e-06 6.44692e-06 0 -6.38453e-06 6.18236e-06 0 -5.57892e-06 5.9419e-06 0 -4.80741e-06 5.73149e-06 0 -4.06563e-06 5.54664e-06 0 -3.34934e-06 5.38932e-06 0 -2.65417e-06 5.26191e-06 0 -1.97588e-06 5.16076e-06 0 -1.31027e-06 5.08973e-06 0 -6.53017e-07 5.04711e-06 0 0 5.031e-06 0 -3.82077e-05 1.03432e-05 0 -3.63294e-05 1.04582e-05 0 -3.44466e-05 1.05014e-05 0 -3.25724e-05 1.04778e-05 0 -3.07188e-05 1.03934e-05 0 -2.88962e-05 1.02542e-05 0 -2.71138e-05 1.00672e-05 0 -2.53791e-05 9.83927e-06 0 -2.36983e-05 9.57658e-06 0 -2.20763e-05 9.28725e-06 0 -2.05166e-05 8.97715e-06 0 -1.90214e-05 8.651e-06 0 -1.7592e-05 8.31631e-06 0 -1.62286e-05 7.97729e-06 0 -1.49304e-05 7.63884e-06 0 -1.36961e-05 7.3046e-06 0 -1.25236e-05 6.97959e-06 0 -1.14104e-05 6.66537e-06 0 -1.03534e-05 6.36495e-06 0 -9.34939e-06 6.08196e-06 0 -8.39468e-06 5.81581e-06 0 -7.48553e-06 5.57034e-06 0 -6.61793e-06 5.34578e-06 0 -5.7879e-06 5.14145e-06 0 -4.99129e-06 4.96242e-06 0 -4.22391e-06 4.80501e-06 0 -3.48166e-06 4.67093e-06 0 -2.76027e-06 4.56227e-06 0 -2.05559e-06 4.47596e-06 0 -1.36346e-06 4.41532e-06 0 -6.79631e-07 4.37893e-06 0 0 4.36517e-06 0 -3.80647e-05 8.50777e-06 0 -3.62539e-05 8.60928e-06 0 -3.44344e-05 8.6523e-06 0 -3.26186e-05 8.64083e-06 0 -3.08179e-05 8.5794e-06 0 -2.90422e-05 8.47295e-06 0 -2.73006e-05 8.32695e-06 0 -2.56005e-05 8.14685e-06 0 -2.39482e-05 7.93768e-06 0 -2.23487e-05 7.70599e-06 0 -2.08058e-05 7.45655e-06 0 -1.9322e-05 7.19313e-06 0 -1.78991e-05 6.92198e-06 0 -1.65376e-05 6.6465e-06 0 -1.52373e-05 6.37076e-06 0 -1.39974e-05 6.09785e-06 0 -1.28161e-05 5.83184e-06 0 -1.16914e-05 5.5742e-06 0 -1.06207e-05 5.32744e-06 0 -9.60099e-06 5.09458e-06 0 -8.62904e-06 4.87529e-06 0 -7.70138e-06 4.67276e-06 0 -6.81424e-06 4.48725e-06 0 -5.96384e-06 4.31829e-06 0 -5.14625e-06 4.17009e-06 0 -4.35741e-06 4.03969e-06 0 -3.59334e-06 3.92855e-06 0 -2.84987e-06 3.83841e-06 0 -2.12293e-06 3.76679e-06 0 -1.40842e-06 3.71645e-06 0 -7.02126e-07 3.68623e-06 0 0 3.67481e-06 0 -3.7945e-05 6.73412e-06 0 -3.61875e-05 6.81891e-06 0 -3.4418e-05 6.85779e-06 0 -3.26486e-05 6.85378e-06 0 -3.08899e-05 6.81034e-06 0 -2.91519e-05 6.73125e-06 0 -2.74431e-05 6.62073e-06 0 -2.5771e-05 6.48299e-06 0 -2.41419e-05 6.32192e-06 0 -2.25609e-05 6.14265e-06 0 -2.10319e-05 5.94891e-06 0 -1.95579e-05 5.7436e-06 0 -1.81408e-05 5.53173e-06 0 -1.67815e-05 5.31593e-06 0 -1.54801e-05 5.09946e-06 0 -1.42362e-05 4.88483e-06 0 -1.30484e-05 4.67521e-06 0 -1.1915e-05 4.47187e-06 0 -1.08337e-05 4.27685e-06 0 -9.80185e-06 4.09255e-06 0 -8.8164e-06 3.91879e-06 0 -7.87415e-06 3.75813e-06 0 -6.97153e-06 3.61083e-06 0 -6.10497e-06 3.47655e-06 0 -5.27065e-06 3.35867e-06 0 -4.46466e-06 3.25489e-06 0 -3.68311e-06 3.16638e-06 0 -2.92194e-06 3.09457e-06 0 -2.17711e-06 3.03748e-06 0 -1.44459e-06 2.99735e-06 0 -7.20233e-07 2.97326e-06 0 0 2.96415e-06 0 -3.7848e-05 5.00898e-06 0 -3.61319e-05 5.0746e-06 0 -3.44016e-05 5.10629e-06 0 -3.26684e-05 5.10622e-06 0 -3.09428e-05 5.0769e-06 0 -2.92344e-05 5.02105e-06 0 -2.75515e-05 4.94175e-06 0 -2.59016e-05 4.84209e-06 0 -2.42909e-05 4.72488e-06 0 -2.27247e-05 4.59394e-06 0 -2.12071e-05 4.45199e-06 0 -1.97411e-05 4.30115e-06 0 -1.83288e-05 4.14518e-06 0 -1.69716e-05 3.986e-06 0 -1.56697e-05 3.82605e-06 0 -1.4423e-05 3.66723e-06 0 -1.32304e-05 3.51189e-06 0 -1.20904e-05 3.36102e-06 0 -1.1001e-05 3.21616e-06 0 -9.95972e-06 3.07911e-06 0 -8.9638e-06 2.94979e-06 0 -8.01018e-06 2.8301e-06 0 -7.09548e-06 2.72028e-06 0 -6.21625e-06 2.62011e-06 0 -5.3688e-06 2.53212e-06 0 -4.54932e-06 2.45461e-06 0 -3.75401e-06 2.38847e-06 0 -2.97886e-06 2.33479e-06 0 -2.21992e-06 2.29211e-06 0 -1.47319e-06 2.2621e-06 0 -7.34546e-07 2.24408e-06 0 0 2.23726e-06 0 -3.77786e-05 3.31975e-06 0 -3.60912e-05 3.36443e-06 0 -3.43881e-05 3.38673e-06 0 -3.268e-05 3.38805e-06 0 -3.09774e-05 3.37002e-06 0 -2.92896e-05 3.33441e-06 0 -2.76248e-05 3.28323e-06 0 -2.59905e-05 3.21849e-06 0 -2.43928e-05 3.14204e-06 0 -2.28371e-05 3.05639e-06 0 -2.13275e-05 2.96334e-06 0 -1.98673e-05 2.86426e-06 0 -1.84587e-05 2.76166e-06 0 -1.7103e-05 2.6568e-06 0 -1.5801e-05 2.55131e-06 0 -1.45525e-05 2.44646e-06 0 -1.33567e-05 2.34379e-06 0 -1.22123e-05 2.24399e-06 0 -1.11174e-05 2.14809e-06 0 -1.00697e-05 2.05729e-06 0 -9.06652e-06 1.97155e-06 0 -8.10505e-06 1.89215e-06 0 -7.18198e-06 1.81926e-06 0 -6.29395e-06 1.75274e-06 0 -5.43737e-06 1.69428e-06 0 -4.60849e-06 1.64276e-06 0 -3.80358e-06 1.59879e-06 0 -3.01868e-06 1.56309e-06 0 -2.24987e-06 1.53471e-06 0 -1.4932e-06 1.51474e-06 0 -7.44561e-07 1.50275e-06 0 0 1.49822e-06 0 -3.77365e-05 1.65398e-06 0 -3.60662e-05 1.6766e-06 0 -3.43792e-05 1.6881e-06 0 -3.26861e-05 1.68917e-06 0 -3.09973e-05 1.68061e-06 0 -2.93217e-05 1.66329e-06 0 -2.76678e-05 1.6382e-06 0 -2.60428e-05 1.60634e-06 0 -2.44529e-05 1.56863e-06 0 -2.29036e-05 1.5263e-06 0 -2.13988e-05 1.48025e-06 0 -1.99421e-05 1.43116e-06 0 -1.85357e-05 1.38028e-06 0 -1.71812e-05 1.32823e-06 0 -1.58791e-05 1.27583e-06 0 -1.46296e-05 1.22371e-06 0 -1.3432e-05 1.17265e-06 0 -1.22849e-05 1.12299e-06 0 -1.11868e-05 1.07524e-06 0 -1.01352e-05 1.03001e-06 0 -9.12785e-06 9.87286e-07 0 -8.16172e-06 9.47706e-07 0 -7.23367e-06 9.11358e-07 0 -6.3404e-06 8.78177e-07 0 -5.47837e-06 8.49009e-07 0 -4.64388e-06 8.233e-07 0 -3.83324e-06 8.01354e-07 0 -3.04251e-06 7.83533e-07 0 -2.26779e-06 7.69359e-07 0 -1.50517e-06 7.59389e-07 0 -7.50556e-07 7.53401e-07 0 0 7.51137e-07 0 -3.77205e-05 -0 0 -3.60567e-05 7.05234e-19 0 -3.43757e-05 -0 0 -3.26883e-05 -0 0 -3.10046e-05 -0 0 -2.93337e-05 -6.45455e-19 0 -2.76838e-05 -0 0 -2.60623e-05 -0 0 -2.44755e-05 -0 0 -2.29285e-05 -2.08658e-19 0 -2.14256e-05 -2.44454e-19 0 -1.99702e-05 -0 0 -1.85647e-05 -0 0 -1.72105e-05 1.68311e-19 0 -1.59085e-05 1.21005e-19 0 -1.46587e-05 3.98207e-21 0 -1.34603e-05 -0 0 -1.23123e-05 -0 0 -1.12129e-05 1.2641e-19 0 -1.016e-05 -0 0 -9.15098e-06 -9.94357e-20 0 -8.1831e-06 -0 0 -7.25317e-06 -0 0 -6.35793e-06 -0 0 -5.49384e-06 1.86552e-20 0 -4.65724e-06 -1.51818e-20 0 -3.84443e-06 -0 0 -3.0515e-06 -0 0 -2.27456e-06 -0 0 -1.50969e-06 -0 0 -7.52819e-07 -0 0 0 -0 0 </DataArray> 
</PointData> 
<Points> 
<DataArray type="Float32" NumberOfComponents="3"> 