<?xml version="1.0"?> 
<VTKFile type="StructuredGrid" version="0.1"> 
<StructuredGrid WholeExtent="0 31 0 31 0 0"> 
<Piece Extent="0 31 0 31 0 0"> 
<PointData>
<DataArray type="Float32" Name="B" format="ascii" NumberOfComponents="3"> 
0 -0.0464463 0 -0.0114096 -0.0140532 0 -0.0108353 -0.0108689 0 -0.00866368 -0.00806576 0 -0.00856966 -0.00670671 0 -0.00775927 -0.00561772 0 -0.00757789 -0.00482804 0 -0.00724057 -0.00416855 0 -0.00708444 -0.00360599 0 -0.00690809 -0.00311191 0 -0.0067893 -0.00266577 0 -0.00667845 -0.00225948 0 -0.00659239 -0.00188266 0 -0.00651904 -0.00153029 0 -0.00646184 -0.00119594 0 -0.00641785 -0.000875009 0 -0.00638762 -0.000562217 0 -0.00637056 -0.000252788 0 -0.00636636 5.86301e-05 0 -0.00637541 0.000377399 0 -0.00639604 0.000709978 0 -0.00643086 0.00106301 0 -0.00647315 0.00144574 0 -0.00653468 0.0018677 0 -0.00658898 0.00234449 0 -0.00668509 0.00289477 0 -0.00672014 0.00354779 0 -0.0068866 0.00436635 0 -0.00679526 0.00540609 0 -0.00712522 0.00703305 0 -0.00670932 0.00938736 0 0.00241 0.0221685 0 0 -0.0191557 0 -0.00623395 -0.0148415 0 -0.00734166 -0.0109484 0 -0.00746521 -0.0085785 0 -0.00723997 -0.00700904 0 -0.00706836 -0.00588506 0 -0.00687544 -0.00502231 0 -0.00673602 -0.00432223 0 -0.00660742 -0.00373037 0 -0.00650533 -0.00321344 0 -0.00641494 -0.00275147 0 -0.00633957 -0.00233088 0 -0.00627477 -0.00194245 0 -0.00622102 -0.00157898 0 -0.00617698 -0.00123449 0 -0.00614258 -0.000903617 0 -0.00611733 -0.000581279 0 -0.00610096 -0.000262472 0 -0.00609309 5.795e-05 0 -0.00609302 0.000385418 0 -0.00610008 0.000725936 0 -0.00611253 0.00108629 0 -0.0061293 0.00147459 0 -0.0061456 0.00190074 0 -0.00616033 0.00237779 0 -0.00615872 0.00292337 0 -0.00614057 0.00356402 0 -0.00605314 0.00434012 0 -0.00588583 0.00532339 0 -0.00539526 0.00662741 0 -0.00418879 0.00839813 0 -0.000847643 0.00950679 0 0 -0.0135373 0 -0.00343592 -0.0124139 0 -0.00523177 -0.0102641 0 -0.00592113 -0.00843709 0 -0.00616924 -0.00703531 0 -0.00622696 -0.00595842 0 -0.00621876 -0.00510317 0 -0.00618011 -0.00439899 0 -0.0061333 -0.00380016 0 -0.0060833 -0.00327596 0 -0.00603526 -0.00280676 0 -0.00599048 -0.00237911 0 -0.00595049 -0.00198389 0 -0.00591541 -0.00161385 0 -0.00588547 -0.00126302 0 -0.0058606 -0.000925982 0 -0.00584065 -0.000597722 0 -0.00582531 -0.00027332 0 -0.00581402 5.21628e-05 0 -0.00580587 0.000383914 0 -0.00579945 0.000727492 0 -0.00579273 0.00108916 0 -0.00578247 0.00147604 0 -0.00576426 0.00189674 0 -0.00573018 0.00236161 0 -0.0056695 0.00288408 0 -0.00555954 0.00348114 0 -0.00536688 0.00417476 0 -0.00501231 0.00498871 0 -0.00436409 0.00591707 0 -0.00315004 0.00680817 0 -0.00132245 0.00695742 0 0 -0.0110249 0 -0.00223833 -0.0104361 0 -0.00380627 -0.00925684 0 -0.00471288 -0.00796457 0 -0.00519309 -0.00682694 0 -0.00544482 -0.00587229 0 -0.00557245 -0.00507539 0 -0.00563444 -0.00440025 0 -0.00565846 -0.00381594 0 -0.00566089 -0.00329889 0 -0.00565174 -0.00283183 0 -0.00563781 -0.0024038 0 -0.00562192 -0.00200691 0 -0.00560568 -0.00163471 0 -0.00558976 -0.00128144 0 -0.00557456 -0.000941925 0 -0.00556013 -0.000611316 0 -0.00554621 -0.000284949 0 -0.00553218 4.18286e-05 0 -0.00551689 0.000373764 0 -0.00549861 0.000715891 0 -0.00547469 0.0010736 0 -0.0054413 0.00145292 0 -0.00539265 0.00186044 0 -0.00532028 0.00230367 0 -0.00521062 0.00279036 0 -0.00504249 0.00332781 0 -0.00477931 0.0039197 0 -0.00436354 0.00455612 0 -0.00370965 0.0051905 0 -0.00274995 0.00566045 0 -0.00157216 0.00576995 0 0 -0.0092556 0 -0.00160214 -0.00899097 0 -0.00289921 -0.00826146 0 -0.00379918 -0.00736634 0 -0.00438112 -0.00647721 0 -0.0047456 -0.00567018 0 -0.00497343 -0.00495909 0 -0.00511449 -0.00433519 0 -0.00519934 -0.00378326 0 -0.00524701 -0.0032857 0 -0.00527293 -0.00282861 0 -0.00528737 -0.00240567 0 -0.00529479 -0.0020119 0 -0.00529677 -0.00164168 0 -0.00529465 -0.00128979 0 -0.00528906 -0.000951338 0 -0.00528034 -0.000621804 0 -0.00526831 -0.000296859 0 -0.00525233 2.77211e-05 0 -0.00523119 0.000356187 0 -0.00520292 0.000692871 0 -0.00516462 0.00104229 0 -0.0051121 0.0014091 0 -0.00503934 0.00179808 0 -0.00493779 0.00221365 0 -0.00479503 0.00265908 0 -0.00459303 0.0031336 0 -0.00430318 0.0036275 0 -0.00388499 0.00411809 0 -0.00330062 0.00455514 0 -0.00254364 0.00485012 0 -0.00169427 0.00486931 0 0 -0.00804858 0 -0.00122945 -0.00785683 0 -0.00229532 -0.00738711 0 -0.00312352 -0.00674842 0 -0.0037238 -0.00606221 0 -0.00414466 -0.0053954 0 -0.00443547 -0.00477813 0 -0.00463483 -0.00421711 0 -0.00476777 -0.00371081 0 -0.00484693 -0.00324443 0 -0.00489745 -0.00279997 0 -0.00493931 -0.00238619 0 -0.00496814 -0.00199956 0 -0.00498777 -0.00163528 0 -0.0049988 -0.0012883 0 -0.00500266 -0.000954229 0 -0.00499973 -0.000628923 0 -0.00499005 -0.000308505 0 -0.00497302 1.07762e-05 0 -0.00494743 0.000332579 0 -0.00491128 0.000660531 0 -0.00486163 0.000998189 0 -0.00479429 0.001349 0 -0.00470363 0.00171601 0 -0.00458172 0.00210143 0 -0.00441894 0.00250539 0 -0.00420241 0.00292382 0 -0.00392121 0.00333613 0 -0.00353254 0.00371208 0 -0.00302596 0.0040276 0 -0.00241893 0.00422334 0 -0.00176763 0.0042624 0 0 -0.00707027 0 -0.000985851 -0.00695718 0 -0.00187718 -0.00662806 0 -0.00261802 -0.00616159 0 -0.00319857 -0.00562837 0 -0.00363765 -0.00508207 0 -0.00396347 -0.00455481 0 -0.0042024 -0.00405867 0 -0.00437422 -0.00360575 0 -0.00449238 -0.00318003 0 -0.00457697 -0.00274726 0 -0.00464367 -0.0023468 0 -0.00469332 -0.0019708 0 -0.0047291 -0.00161626 0 -0.00475267 -0.00127732 0 -0.00476553 -0.00095072 0 -0.00476841 -0.00063246 0 -0.00476149 -0.000319325 0 -0.0047443 -8.02794e-06 0 -0.00471571 0.000304456 0 -0.00467382 0.000621033 0 -0.00461582 0.00094441 0 -0.00453786 0.00127689 0 -0.00443484 0.00162026 0 -0.00430018 0.0019751 0 -0.00412613 0.00234013 0 -0.00390414 0.00271288 0 -0.00362558 0.00306277 0 -0.00326805 0.00334865 0 -0.00283001 0.00358498 0 -0.00233031 0.00373111 0 -0.00180726 0.00375522 0 0 -0.00629805 0 -0.000816829 -0.00621009 0 -0.00157476 -0.0059728 0 -0.00223336 -0.00562073 0 -0.00277806 -0.00520157 0 -0.00321354 -0.00475376 0 -0.00355462 -0.00430596 0 -0.00381835 -0.00387216 0 -0.00402011 -0.0034688 0 -0.00417297 -0.00308004 0 -0.00428953 -0.0026709 0 -0.00437954 -0.00228822 0 -0.00444806 -0.00192721 0 -0.0044986 -0.00158537 0 -0.00453365 -0.00125755 0 -0.00455496 -0.000940995 0 -0.00456353 -0.000632304 0 -0.00455971 -0.000328786 0 -0.00454319 -2.77268e-05 0 -0.00451298 0.000273298 0 -0.00446737 0.00057652 0 -0.00440385 0.00088385 0 -0.004319 0.00119671 0 -0.00420844 0.00151586 0 -0.0040668 0.00184093 0 -0.00388798 0.00216995 0 -0.00366557 0.00250024 0 -0.00339303 0.00279825 0 -0.00306414 0.00302492 0 -0.00268169 0.00320992 0 -0.00226043 0.0033243 0 -0.0018265 0.00335735 0 0 -0.00564228 0 -0.000693563 -0.00558076 0 -0.00134802 -0.00540093 0 -0.00193462 -0.00512881 0 -0.00243872 -0.00479414 0 -0.002859 -0.0044249 0 -0.00320234 -0.00404465 0 -0.00347954 -0.00366643 0 -0.00370193 -0.00330804 0 -0.00387985 -0.00295495 0 -0.00402088 -0.00257336 0 -0.00413096 -0.00221289 0 -0.00421575 -0.0018702 0 -0.00427926 -0.00154393 0 -0.00432452 -0.00122969 0 -0.00435353 -0.000925444 0 -0.00436754 -0.000628401 0 -0.00436704 -0.000336447 0 -0.0043519 -4.74302e-05 0 -0.00432132 0.000240496 0 -0.00427384 0.00052894 0 -0.00420729 0.000819147 0 -0.00411878 0.00111181 0 -0.00400464 0.00140695 0 -0.00386057 0.00170357 0 -0.00368172 0.00199937 0 -0.0034636 0.002292 0 -0.00320286 0.002549 0 -0.00290097 0.00273467 0 -0.00256302 0.00288594 0 -0.00220065 0.00298258 0 -0.0018315 0.00301495 0 0 -0.00508668 0 -0.000599905 -0.0050375 0 -0.00117301 -0.00489814 0 -0.00169781 -0.00468251 0 -0.00216192 -0.00441121 0 -0.00256132 -0.00410404 0 -0.00289875 -0.0037798 0 -0.00318081 -0.0034494 0 -0.00341636 -0.00313021 0 -0.00361292 -0.00281032 0 -0.00377323 -0.00245861 0 -0.00389967 -0.00212353 0 -0.00399759 -0.00180184 0 -0.00407195 -0.00149337 0 -0.00412591 -0.00119468 0 -0.00416176 -0.000904543 0 -0.00418082 -0.000620813 0 -0.00418377 -0.000341958 0 -0.00417059 -6.63655e-05 0 -0.00414071 0.000207272 0 -0.00409293 0.000480018 0 -0.00402549 0.000752553 0 -0.00393599 0.00102499 0 -0.00382152 0.00129682 0 -0.00367853 0.00156657 0 -0.00350328 0.00183175 0 -0.00329164 0.00209078 0 -0.00304355 0.00231497 0 -0.00276491 0.00247253 0 -0.00246315 0.00260226 0 -0.00214608 0.00268753 0 -0.00182582 0.00272467 0 0 -0.00460079 0 -0.000526813 -0.00456279 0 -0.00103429 -0.00445151 0 -0.00150665 -0.00427732 0 -0.00193329 -0.004054 0 -0.00230964 -0.00379598 0 -0.00263599 -0.0035175 0 -0.00291636 -0.00322782 0 -0.0031581 -0.0029399 0 -0.00337341 -0.00264718 0 -0.0035535 -0.00233059 0 -0.00369014 -0.00202325 0 -0.00379839 -0.00172452 0 -0.00388091 -0.00143525 0 -0.00394212 -0.00115358 0 -0.00398376 -0.000878859 0 -0.00400744 -0.0006097 0 -0.0040138 -0.000345076 0 -0.00400303 -8.39004e-05 0 -0.00397472 0.000174661 0 -0.00392796 0.000431202 0 -0.00386135 0.000685939 0 -0.00377308 0.000938553 0 -0.00366073 0.00118811 0 -0.0035219 0.00143277 0 -0.00335289 0.00166968 0 -0.00315043 0.00189608 0 -0.00290554 0.00209158 0 -0.00264622 0.0022346 0 -0.00237481 0.00235056 0 -0.00209427 0.00242954 0 -0.00181226 0.00246895 0 0 -0.00417324 0 -0.000468152 -0.00414208 0 -0.000922111 -0.00405161 0 -0.00134965 -0.00390835 0 -0.00174219 -0.00372197 0 -0.00209505 -0.00350315 0 -0.0024073 -0.00326207 0 -0.00268092 -0.00300727 0 -0.00292054 -0.00274488 0 -0.0031311 -0.00247442 0 -0.00330919 -0.00219534 0 -0.00345215 -0.00191577 0 -0.00356612 -0.00164075 0 -0.00365491 -0.00137126 0 -0.00372155 -0.0011075 0 -0.00376805 -0.000849025 0 -0.00379577 -0.000595299 0 -0.00380547 -0.000345665 0 -0.00379739 -9.95485e-05 0 -0.00377132 0.000143494 0 -0.0037266 0.000383662 0 -0.00366222 0.0006208 0 -0.0035768 0.00085429 0 -0.00346867 0.00108287 0 -0.00333597 0.0013045 0 -0.00317663 0.00151598 0 -0.0029884 0.00171198 0 -0.00277127 0.00188203 0 -0.00253776 0.0020192 0 -0.00229395 0.00212569 0 -0.00204348 0.00220079 0 -0.00179239 0.00224335 0 0 -0.00379115 0 -0.000420244 -0.00376567 0 -0.000829664 -0.00369074 0 -0.00121884 -0.00357115 0 -0.00158062 -0.00341376 0 -0.00191064 -0.00322638 0 -0.00220719 -0.00301671 0 -0.00247079 -0.00279135 0 -0.00270339 -0.00255508 0 -0.00290681 -0.00231023 0 -0.00308063 -0.00205873 0 -0.00322481 -0.00180507 0 -0.00334193 -0.00155259 0 -0.00343467 -0.00130314 0 -0.00350535 -0.00105745 0 -0.0035557 -0.000815732 0 -0.00358693 -0.00057788 0 -0.00359978 -0.000343692 0 -0.00359455 -0.000112962 0 -0.0035712 0.000114404 0 -0.00352929 0.000338293 0 -0.00346815 0.000558285 0 -0.00338683 0.000773533 0 -0.00328425 0.000982644 0 -0.0031593 0.0011835 0 -0.00301104 0.00137299 0 -0.00283928 0.00154666 0 -0.002646 0.00169872 0 -0.00243722 0.00182482 0 -0.00221814 0.00192425 0 -0.00199334 0.0019963 0 -0.00176782 0.00204073 0 0 -0.00344723 0 -0.000380387 -0.00342582 0 -0.000752383 -0.00336292 0 -0.00110845 -0.00326184 0 -0.00144268 -0.00312756 0 -0.00175105 -0.00296588 0 -0.00203147 -0.00278267 0 -0.00228343 -0.00258318 0 -0.00250745 -0.00237153 0 -0.0027041 -0.00215075 0 -0.00287374 -0.0019237 0 -0.00301701 -0.00169324 0 -0.00313523 -0.00146213 0 -0.00323023 -0.00123218 0 -0.00330368 -0.00100447 0 -0.003357 -0.000779578 0 -0.0033912 -0.000557775 0 -0.00340697 -0.000339189 0 -0.00340466 -0.000123926 0 -0.00338432 8.78348e-05 0 -0.00334575 0.000295745 0 -0.00328853 0.000499193 0 -0.00321212 0.000697214 0 -0.00311592 0.000888381 0 -0.00299945 0.0010707 0 -0.0028626 0.00124147 0 -0.00270602 0.00139728 0 -0.00253203 0.00153444 0 -0.00234414 0.00165019 0 -0.00214666 0.00174293 0 -0.00194374 0.00181215 0 -0.00173971 0.00185799 0 0 -0.00313484 0 -0.000346824 -0.00311675 0 -0.000686957 -0.00306331 0 -0.00101433 -0.002977 0 -0.00132395 -0.00286148 0 -0.00161218 -0.00272113 0 -0.00187677 -0.00256048 0 -0.00211662 -0.00238377 0 -0.00233148 -0.00219466 0 -0.00252146 -0.0019962 0 -0.00268678 -0.00179104 0 -0.00282794 -0.00158181 0 -0.00294592 -0.00137073 0 -0.0030419 -0.00115952 0 -0.00311711 -0.000949389 0 -0.00317263 -0.000741141 0 -0.00320931 -0.000535302 0 -0.00322774 -0.000332254 0 -0.00322831 -0.000132335 0 -0.00321114 6.40671e-05 0 -0.00317621 0.000256435 0 -0.00312334 0.00044404 0 -0.00305229 0.000625869 0 -0.00296285 0.000800549 0 -0.00285501 0.000966292 0 -0.00272912 0.00112087 0 -0.00258623 0.00126173 0 -0.00242824 0.0013863 0 -0.00225811 0.00149245 0 -0.00207917 0.00157897 0 -0.00189499 0.00164531 0 -0.00170919 0.00169165 0 0 -0.00284928 0 -0.00031823 -0.00283379 0 -0.000631035 -0.002788 0 -0.000933399 -0.0027137 0 -0.00122109 -0.00261368 0 -0.00149082 -0.00249126 0 -0.00174032 -0.00235002 0 -0.00196822 -0.00219343 0 -0.00217382 -0.00202463 0 -0.00235687 -0.00184644 0 -0.00251741 -0.00166138 0 -0.00265579 -0.00147168 0 -0.00277259 -0.00127936 0 -0.00286865 -0.00108602 0 -0.00294482 -0.000892898 0 -0.00300191 -0.000700918 0 -0.00304061 -0.000510774 0 -0.00306146 -0.000323025 0 -0.00306479 -0.000138175 0 -0.00305084 4.32408e-05 0 -0.00301969 0.000220594 0 -0.00297134 0.000393093 0 -0.00290581 0.000559731 0 -0.00282318 0.000719234 0 -0.00272373 0.00087005 0 -0.00260808 0.00101036 0 -0.00247738 0.0011382 0 -0.00233344 0.00125168 0 -0.00217857 0.00134925 0 -0.00201556 0.00142989 0 -0.00184742 0.00149321 0 -0.00167718 0.00153941 0 0 -0.00258657 0 -0.000293678 -0.00257323 0 -0.000582861 -0.00253371 0 -0.00086336 -0.00246938 0 -0.00113152 -0.00238234 0 -0.00138441 -0.0022752 0 -0.00161981 -0.0021508 0 -0.00183624 -0.00201199 0 -0.00203276 -0.00186148 0 -0.00220888 -0.00170175 0 -0.00236445 -0.00153506 0 -0.00249957 -0.00136345 0 -0.00261461 -0.0011887 0 -0.00271008 -0.00101233 0 -0.0027866 -0.000835543 0 -0.00284476 -0.000659331 0 -0.00288511 -0.000484482 0 -0.00290809 -0.000311668 0 -0.00291405 -0.000141504 0 -0.00290325 2.53822e-05 0 -0.00287587 0.000188296 0 -0.00283206 0.000346425 0 -0.002772 0.000498802 0 -0.00269599 0.000644274 0 -0.00260448 0.000781506 0 -0.00249825 0.000909018 0 -0.00237846 0.00102528 0 -0.0022467 0.00112884 0 -0.00210502 0.00121854 0 -0.00195573 0.00129361 0 -0.00180137 0.00135376 0 -0.0016445 0.00139916 0 0 -0.00234357 0 -0.000272456 -0.00233201 0 -0.000541131 -0.00229774 0 -0.000802458 -0.00224178 0 -0.00105327 -0.0021658 0 -0.00129092 -0.00207183 0 -0.00151332 -0.00196215 0 -0.00171893 -0.00183914 0 -0.00190672 -0.00170508 0 -0.00207601 -0.00156214 0 -0.00222649 -0.00141234 0 -0.0023581 -0.00125749 0 -0.00247096 -0.00109921 0 -0.00256541 -0.000938904 0 -0.00264183 -0.000777746 0 -0.00270066 -0.000616729 0 -0.00274232 -0.000456691 0 -0.00276718 -0.000298364 0 -0.00277558 -0.000142431 0 -0.0027678 1.04294e-05 0 -0.00274408 0.000159495 0 -0.00270468 0.000303964 0 -0.0026499 0.000442926 0 -0.00258017 0.000575351 0 -0.00249605 0.000700098 0 -0.00239839 0.000815951 0 -0.00228832 0.000921696 0 -0.00216729 0.00101622 0 -0.00203707 0.00109864 0 -0.00189965 0.00116835 0 -0.00175717 0.00122517 0 -0.00161181 0.00126927 0 0 -0.0021176 0 -0.000254037 -0.00210757 0 -0.000504841 -0.00207774 0 -0.000749339 -0.00202895 0 -0.000984751 -0.00196249 0 -0.00120869 -0.00187999 0 -0.0014192 -0.0017833 0 -0.00161477 -0.00167438 0 -0.00179429 -0.00155518 0 -0.00195701 -0.00142757 0 -0.00210245 -0.00129331 0 -0.00223041 -0.00115403 0 -0.00234088 -0.00101119 0 -0.002434 -0.000866084 0 -0.00251 -0.00071983 0 -0.00256918 -0.000573398 0 -0.00261187 -0.000427636 0 -0.00263839 -0.000283302 0 -0.00264902 -0.000141105 0 -0.00264407 -1.74417e-06 0 -0.00262383 0.00013406 0 -0.00258862 0.000265535 0 -0.00253883 0.00039184 0 -0.00247495 0.000512062 0 -0.00239763 0.000625224 0 -0.00230771 0.000730322 0 -0.00220628 0.000826384 0 -0.00209466 0.000912539 0 -0.00197442 0.000988095 0 -0.00184728 0.00105262 0 -0.00171507 0.00110596 0 -0.00157966 0.00114831 0 0 -0.00190645 0 -0.000238011 -0.00189771 0 -0.000473218 -0.00187173 0 -0.000702938 -0.00182915 0 -0.00092471 -0.001771 0 -0.00113637 -0.00169859 0 -0.0013361 -0.00161344 0 -0.00152244 -0.00151718 0 -0.00169425 -0.00141144 0 -0.00185071 -0.00129785 0 -0.00199127 -0.00117795 0 -0.0021156 -0.00105316 0 -0.00222355 -0.000924818 0 -0.00231515 -0.00079409 0 -0.00239051 -0.00066203 0 -0.00244981 -0.000529565 0 -0.00249331 -0.000397527 0 -0.00252124 -0.000266668 0 -0.0025339 -0.000137699 0 -0.00253158 -1.131e-05 0 -0.00251458 0.000111797 0 -0.00248329 0.000230896 0 -0.00243812 0.000345218 0 -0.00237963 0.000453956 0 -0.00230848 0.000556276 0 -0.00222551 0.000651343 0 -0.00213174 0.000738371 0 -0.0020284 0.000816667 0 -0.00191685 0.000885696 0 -0.00179863 0.000945124 0 -0.00167531 0.000994864 0 -0.00154852 0.00103508 0 0 -0.00170818 0 -0.000224057 -0.00170058 0 -0.000445651 -0.00167795 0 -0.00066241 -0.00164081 0 -0.000872134 -0.00158999 0 -0.00107286 -0.00152656 0 -0.00126288 -0.00145175 0 -0.00144081 -0.00136693 0 -0.00160551 -0.00127347 0 -0.00175612 -0.00117276 0 -0.00189203 -0.00106615 0 -0.00201282 -0.000954902 0 -0.00211826 -0.000840181 0 -0.00220825 -0.000723063 0 -0.00228282 -0.000604515 0 -0.00234207 -0.000485412 0 -0.00238617 -0.000366545 0 -0.00241533 -0.000248644 0 -0.0024298 -0.000132397 0 -0.00242986 -1.84684e-05 0 -0.00241585 9.24762e-05 0 -0.00238816 0.000199762 0 -0.00234723 0.000302695 0 -0.00229363 0.000400566 0 -0.00222803 0.00049266 0 -0.00215126 0.000578282 0 -0.00206426 0.000656789 0 -0.00196817 0.000727626 0 -0.00186421 0.000790374 0 -0.00175372 0.00084478 0 -0.00163811 0.000890788 0 -0.00151878 0.000928549 0 0 -0.00152112 0 -0.000211923 -0.00151452 0 -0.000421654 -0.00149486 0 -0.000627076 -0.00146255 0 -0.000826201 -0.00141828 0 -0.00101723 -0.0013629 0 -0.00119859 -0.00129743 0 -0.00136893 -0.00122301 0 -0.00152714 -0.00114081 0 -0.00167236 -0.00105201 0 -0.00180392 -0.000957762 0 -0.00192135 -0.000859177 0 -0.00202433 -0.000757294 0 -0.0021127 -0.000653074 0 -0.0021864 -0.0005474 0 -0.00224546 -0.000441078 0 -0.00229001 -0.00033485 0 -0.00232021 -0.000229404 0 -0.00233628 -0.00012539 0 -0.0023385 -2.34359e-05 0 -0.00232719 7.5841e-05 0 -0.00230275 0.000171823 0 -0.00226565 0.000263891 0 -0.00221645 0.000351421 0 -0.00215581 0.000433805 0 -0.00208452 0.000510459 0 -0.00200349 0.000580855 0 -0.00191373 0.000644546 0 -0.00181636 0.000701201 0 -0.00171258 0.000750627 0 -0.00160364 0.000792791 0 -0.00149076 0.000827829 0 0 -0.00134379 0 -0.000201406 -0.00133808 0 -0.00040084 -0.00132108 0 -0.000596387 -0.00129311 0 -0.00078624 -0.00125473 0 -0.000968741 -0.00120665 0 -0.00114241 -0.0011497 0 -0.00130597 -0.00108482 0 -0.00145835 -0.001013 0 -0.00159866 -0.000935248 0 -0.00172621 -0.00085255 0 -0.0018405 -0.000765868 0 -0.00194114 -0.000676116 0 -0.00202792 -0.000584146 0 -0.00210073 -0.000490753 0 -0.00215953 -0.00039667 0 -0.0022044 -0.000302577 0 -0.00223547 -0.000209109 0 -0.00225294 -0.000116869 0 -0.00225707 -2.64364e-05 0 -0.00224818 6.16259e-05 0 -0.00222666 0.000146761 0 -0.00219298 0.00022842 0 -0.00214769 0.000306062 0 -0.00209143 0.000379165 0 -0.00202497 0.000447243 0 -0.00194914 0.000509858 0 -0.00186488 0.000566651 0 -0.00177323 0.000617357 0 -0.00167524 0.000661827 0 -0.00157205 0.000700046 0 -0.00146475 0.000732132 0 0 -0.00117487 0 -0.000192344 -0.00116997 0 -0.000382893 -0.00115537 0 -0.000569898 -0.00113135 0 -0.000751699 -0.00109834 0 -0.000926758 -0.00105692 0 -0.00109369 -0.00100779 0 -0.00125126 -0.00095173 0 -0.00139844 -0.000889555 0 -0.00153434 -0.000822116 0 -0.00165827 -0.000750258 0 -0.00176968 -0.000674809 0 -0.00186816 -0.000596559 0 -0.00195343 -0.000516258 0 -0.00202535 -0.000434608 0 -0.00208384 -0.000352264 0 -0.00212894 -0.000269839 0 -0.00216074 -0.000187909 0 -0.00217942 -0.00010702 0 -0.00218522 -2.76942e-05 0 -0.00217846 4.95619e-05 0 -0.00215951 0.000124255 0 -0.00212884 0.000195902 0 -0.00208699 0.00026404 0 -0.00203457 0.000328224 0 -0.0019723 0.000388047 0 -0.00190098 0.00044315 0 -0.00182148 0.00049324 0 -0.00173474 0.000538107 0 -0.00164173 0.000577635 0 -0.00154347 0.000611819 0 -0.00144095 0.000640761 0 0 -0.00101316 0 -0.000184605 -0.001009 0 -0.000367558 -0.00099661 0 -0.000547247 -0.000976199 0 -0.000722129 -0.000948128 0 -0.000890767 -0.00091287 0 -0.00105185 -0.000870992 0 -0.00120421 -0.000823132 0 -0.00134683 -0.000769974 0 -0.00147884 -0.000712227 0 -0.00159955 -0.000650603 0 -0.00170837 -0.000585803 0 -0.00180488 -0.000518505 0 -0.00188877 -0.000449356 0 -0.00195985 -0.000378967 0 -0.00201801 -0.000307913 0 -0.00206325 -0.000236735 0 -0.00209565 -0.000165943 0 -0.00211536 -9.60202e-05 0 -0.00212261 -2.74299e-05 0 -0.0021177 3.93825e-05 0 -0.00210099 0.000103986 0 -0.00207294 0.000165967 0 -0.00203406 0.000224926 0 -0.00198495 0.000280492 0 -0.0019263 0.000332326 0 -0.00185885 0.000380134 0 -0.00178341 0.000423678 0 -0.00170086 0.00046279 0 -0.00161209 0.000497382 0 -0.00151802 0.000527453 0 -0.00141956 0.000553091 0 0 -0.000857578 0 -0.000178084 -0.000854105 0 -0.000354631 -0.000843751 0 -0.000528137 -0.00082669 0 -0.000697159 -0.000803209 0 -0.000860342 -0.000773689 0 -0.00101644 -0.000738589 0 -0.00116433 -0.000698428 0 -0.00130302 -0.000653765 0 -0.00143167 -0.000605185 0 -0.00154957 -0.000553278 0 -0.00165612 -0.000498629 0 -0.00175089 -0.000441807 0 -0.00183354 -0.000383361 0 -0.00190384 -0.000323811 0 -0.00196167 -0.000263651 0 -0.002007 -0.000203345 0 -0.00203989 -0.000143335 0 -0.00206047 -8.40396e-05 0 -0.00206895 -2.58578e-05 0 -0.00206561 3.08272e-05 0 -0.00205081 8.56478e-05 0 -0.00202499 0.000138253 0 -0.00198865 0.000188309 0 -0.00194236 0.000235507 0 -0.00188676 0.00027957 0 -0.00182258 0.000320258 0 -0.00175057 0.00035738 0 -0.00167154 0.000390804 0 -0.00158633 0.00042046 0 -0.00149579 0.000446352 0 -0.00140075 0.000468553 0 0 -0.000707108 0 -0.000172695 -0.000704276 0 -0.000343945 -0.00069583 0 -0.000512332 -0.000681908 0 -0.000676491 -0.000662735 0 -0.000835135 -0.000638614 0 -0.000987072 -0.000609909 0 -0.00113122 -0.000577033 0 -0.00126661 -0.000540436 0 -0.00139242 -0.000500588 0 -0.00150793 -0.000457966 0 -0.00161255 -0.000413048 0 -0.00170581 -0.0003663 0 -0.00178738 -0.000318174 0 -0.001857 -0.000269101 0 -0.00191453 -0.000219492 0 -0.00195991 -0.000169735 0 -0.00199319 -0.000120201 0 -0.00201447 -7.12388e-05 0 -0.00202397 -2.31843e-05 0 -0.00202194 2.36434e-05 0 -0.00200874 6.89393e-05 0 -0.00198478 0.000112414 0 -0.00195055 0.000153794 0 -0.0019066 0.00019283 0 -0.00185355 0.000229298 0 -0.00179207 0.000263007 0 -0.00172289 0.000293806 0 -0.00164677 0.000321592 0 -0.00156449 0.000346312 0 -0.00147685 0.000367969 0 -0.00138463 0.000386624 0 0 -0.000560809 0 -0.000168371 -0.000558582 0 -0.000335368 -0.000551941 0 -0.00049964 -0.000540991 0 -0.000659886 -0.000525904 0 -0.000814869 -0.000506913 0 -0.000963441 -0.000484296 0 -0.00110455 -0.000458375 0 -0.00123726 -0.000429497 0 -0.00136075 -0.000398027 0 -0.0014743 -0.00036434 0 -0.00157732 -0.000328809 0 -0.00166935 -0.000291803 0 -0.00175001 -0.00025368 0 -0.00181905 -0.000214783 0 -0.00187631 -0.000175439 0 -0.00192172 -0.00013596 0 -0.0019553 -9.66435e-05 0 -0.00197715 -5.77699e-05 0 -0.00198746 -1.96079e-05 0 -0.0019865 1.75868e-05 0 -0.00197458 5.35711e-05 0 -0.00195213 8.81152e-05 0 -0.0019196 0.000121005 0 -0.00187753 0.000152043 0 -0.00182653 0.000181057 0 -0.00176723 0.000207899 0 -0.00170032 0.000232452 0 -0.00162653 0.000254639 0 -0.0015466 0.000274419 0 -0.00146128 0.000291797 0 -0.00137131 0.00030682 0 0 -0.000417787 0 -0.000165059 -0.00041614 0 -0.000328798 -0.000411225 0 -0.000489915 -0.000403119 0 -0.000647155 -0.000391947 0 -0.000799323 -0.000377878 0 -0.000945303 -0.000361115 0 -0.00108407 -0.000341892 0 -0.0012147 -0.000320463 0 -0.00133639 -0.000297096 0 -0.00144841 -0.000272067 0 -0.00155019 -0.000245653 0 -0.00164125 -0.000218126 0 -0.0017212 -0.000189754 0 -0.00178978 -0.000160791 0 -0.00184681 -0.000131483 0 -0.00189223 -0.000102065 0 -0.00192603 -7.27592e-05 0 -0.00194831 -4.37768e-05 0 -0.00195925 -1.53195e-05 0 -0.0019591 1.24208e-05 0 -0.00194818 3.92625e-05 0 -0.00192688 6.50345e-05 0 -0.00189566 8.95777e-05 0 -0.00185505 0.000112747 0 -0.00180561 0.000134416 0 -0.00174797 0.000154475 0 -0.0016828 0.000172841 0 -0.00161079 0.000189458 0 -0.00153266 0.000204296 0 -0.00144911 0.00021736 0 -0.00136087 0.000228683 0 0 -0.000277192 0 -0.000162721 -0.000276104 0 -0.000324157 -0.000272858 0 -0.000483045 -0.000267504 0 -0.000638159 -0.000260123 0 -0.000788333 -0.000250826 0 -0.000932475 -0.000239744 0 -0.00106958 -0.000227031 0 -0.00119873 -0.000212853 0 -0.00131913 -0.000197386 0 -0.00143007 -0.000180812 0 -0.00153095 -0.000163313 0 -0.00162131 -0.00014507 0 -0.00170074 -0.000126259 0 -0.00176899 -0.000107051 0 -0.00182586 -8.7608e-05 0 -0.00187128 -6.80869e-05 0 -0.00190523 -4.8636e-05 0 -0.00192782 -2.93967e-05 0 -0.0019392 -1.05034e-05 0 -0.00193963 7.91615e-06 0 -0.0019294 2.57411e-05 0 -0.00190892 4.2858e-05 0 -0.00187863 5.91616e-05 0 -0.00183904 7.45566e-05 0 -0.00179071 8.89589e-05 0 -0.00173426 0.000102298 0 -0.00167031 0.00011452 0 -0.00159956 0.000125586 0 -0.00152269 0.00013548 0 -0.0014404 0.000144203 0 -0.00135337 0.000151779 0 0 -0.000138198 0 -0.000161329 -0.000137657 0 -0.000321394 -0.000136043 0 -0.000478953 -0.000133381 0 -0.000632799 -0.000129711 0 -0.000781785 -0.000125086 0 -0.000924829 -0.000119573 0 -0.00106094 -0.000113247 0 -0.00118921 -0.00010619 0 -0.00130883 -9.84896e-05 0 -0.00141912 -9.0236e-05 0 -0.00151947 -8.15197e-05 0 -0.0016094 -7.24305e-05 0 -0.00168853 -6.30563e-05 0 -0.00175657 -5.34821e-05 0 -0.00181334 -4.37893e-05 0 -0.00185875 -3.40561e-05 0 -0.0018928 -2.43566e-05 0 -0.00191556 -1.47616e-05 0 -0.00192721 -5.33843e-06 0 -0.00192798 3.84917e-06 0 -0.00191817 1.27408e-05 0 -0.00189818 2.128e-05 0 -0.00186845 2.94144e-05 0 -0.00182947 3.70965e-05 0 -0.0017818 4.42849e-05 0 -0.00172604 5.09445e-05 0 -0.00166283 5.70485e-05 0 -0.00159282 6.25785e-05 0 -0.0015167 6.75258e-05 0 -0.00143516 7.18917e-05 0 -0.00134885 7.56873e-05 0 0 -0 0 -0.000160866 -6.93936e-19 0 -0.000320476 -1.13873e-18 0 -0.000477594 -0 0 -0.000631019 -4.26571e-20 0 -0.000779609 -4.02181e-18 0 -0.000922289 -2.43543e-18 0 -0.00105807 -0 0 -0.00118604 -0 0 -0.00130541 -0 0 -0.00141548 -0 0 -0.00151565 -0 0 -0.00160544 -0 0 -0.00168446 1.20275e-18 0 -0.00175244 1.06397e-17 0 -0.00180917 1.95681e-18 0 -0.00185458 -0 0 -0.00188866 -0 0 -0.00191149 2.61665e-18 0 -0.00192322 1.1514e-17 0 -0.0019241 9.83653e-19 0 -0.00191444 -0 0 -0.00189461 -0 0 -0.00186506 -0 0 -0.00182628 -0 0 -0.00177883 -0 0 -0.0017233 -0 0 -0.00166033 -0 0 -0.00159058 -0 0 -0.00151471 -0 0 -0.00143341 -0 0 -0.00134735 -0 0 </DataArray> 
</PointData> 
<Points> 
<DataArray type="Float32" NumberOfComponents="3"> 