<?xml version="1.0"?> 
<VTKFile type="StructuredGrid" version="0.1"> 
<StructuredGrid WholeExtent="0 31 0 31 0 0"> 
<Piece Extent="0 31 0 31 0 0"> 
<PointData>
<DataArray type="Float32" Name="B" format="ascii" NumberOfComponents="3"> 
0 -0 0 -0.000343115 -0 0 -0.000682258 -0 0 -0.0010136 -0 0 -0.00133361 -0 0 -0.00163911 -0 0 -0.00192739 -0 0 -0.00219622 -0 0 -0.00244382 -0 0 -0.00266888 -0 0 -0.00287047 -0 0 -0.00304803 -0 0 -0.00320128 -0 0 -0.0033302 -0 0 -0.00343493 -0 0 -0.00351579 -0 0 -0.00357315 -0 0 -0.00360747 -0 0 -0.00361928 -0 0 -0.00360912 -0 0 -0.00357763 -0 0 -0.00352551 -0 0 -0.00345359 -0 0 -0.00336284 -0 0 -0.00325444 -0 0 -0.00312975 -0 0 -0.00299042 -0 0 -0.00283829 -0 0 -0.0026754 -0 0 -0.00250397 -0 0 -0.00232627 -0 0 -0.00214459 -0 0 0 0.000196572 0 -0.000343766 0.000195427 0 -0.000683536 0.000192036 0 -0.00101546 0.000186525 0 -0.00133599 0.000179087 0 -0.00164193 0.000169964 0 -0.00193058 0.000159425 0 -0.00219969 0.000147743 0 -0.00244751 0.000135184 0 -0.00267272 0.000121991 0 -0.0028744 0.000108378 0 -0.003052 9.45334e-05 0 -0.00320526 8.06093e-05 0 -0.00333415 6.6728e-05 0 -0.00343883 5.29813e-05 0 -0.00351962 3.9435e-05 0 -0.00357691 2.61344e-05 0 -0.00361115 1.31124e-05 0 -0.00362286 3.9667e-07 0 -0.00361261 -1.19824e-05 0 -0.003581 -2.39842e-05 0 -0.00352875 -3.55524e-05 0 -0.00345667 -4.66106e-05 0 -0.00336573 -5.70607e-05 0 -0.0032571 -6.67848e-05 0 -0.00313215 -7.56511e-05 0 -0.00299252 -8.35238e-05 0 -0.00284004 -9.02764e-05 0 -0.0026768 -9.58052e-05 0 -0.00250499 -0.000100042 0 -0.00232692 -0.000102963 0 -0.00214488 -0.000104593 0 0 0.000393894 0 -0.000345728 0.00039159 0 -0.000687385 0.000384767 0 -0.00102106 0.000373681 0 -0.00134314 0.000358725 0 -0.00165042 0.000340391 0 -0.00194016 0.000319222 0 -0.00221014 0.000295773 0 -0.0024586 0.000270575 0 -0.00268425 0.000244117 0 -0.0028862 0.000216832 0 -0.00306393 0.000189092 0 -0.0032172 0.000161203 0 -0.003346 0.000133411 0 -0.00345054 0.000105896 0 -0.00353114 7.87892e-05 0 -0.00358819 5.21778e-05 0 -0.00362219 2.6125e-05 0 -0.00363363 6.83753e-07 0 -0.00362306 -2.40873e-05 0 -0.00359111 -4.81092e-05 0 -0.00353846 -7.12705e-05 0 -0.00346591 -9.34191e-05 0 -0.0033744 -0.000114358 0 -0.00326509 -0.00013385 0 -0.00313935 -0.000151627 0 -0.00299881 -0.000167414 0 -0.00284533 -0.000180954 0 -0.00268099 -0.000192034 0 -0.00250806 -0.000200515 0 -0.00232886 -0.00020635 0 -0.00214574 -0.000209585 0 0 0.000592727 0 -0.000349025 0.000589234 0 -0.000693852 0.000578896 0 -0.00103046 0.000562104 0 -0.00135514 0.000539469 0 -0.00166464 0.000511744 0 -0.00195621 0.000479763 0 -0.00222762 0.000444371 0 -0.00247715 0.000406375 0 -0.00270353 0.000366511 0 -0.00290593 0.000325432 0 -0.00308386 0.000283695 0 -0.00323713 0.000241764 0 -0.00336579 0.000200001 0 -0.00347007 0.000158677 0 -0.00355034 0.00011798 0 -0.00360702 7.80383e-05 0 -0.00364059 3.89381e-05 0 -0.00365157 7.52752e-07 0 -0.00364051 -3.64357e-05 0 -0.00360799 -7.25137e-05 0 -0.00355468 -0.000107318 0 -0.00348134 -0.000140621 0 -0.0033889 -0.000172127 0 -0.00327846 -0.000201474 0 -0.0031514 -0.000228253 0 -0.00300933 -0.00025204 0 -0.00285416 -0.000272436 0 -0.002688 -0.000289114 0 -0.00251317 -0.000301857 0 -0.00233207 -0.000310588 0 -0.00214713 -0.000315379 0 0 0.000793851 0 -0.000353699 0.000789123 0 -0.000703016 0.000775138 0 -0.00104376 0.000752441 0 -0.00137212 0.000721876 0 -0.00168475 0.000684487 0 -0.00197887 0.000641417 0 -0.00225227 0.000593818 0 -0.00250327 0.000542781 0 -0.00273066 0.000489299 0 -0.00293366 0.000434242 0 -0.00311185 0.000378359 0 -0.0032651 0.000322267 0 -0.00339354 0.000266446 0 -0.00349745 0.000211251 0 -0.00357724 0.000156924 0 -0.00363338 0.000103623 0 -0.00366637 5.14529e-05 0 -0.00367672 4.97389e-07 0 -0.00366497 -4.91448e-05 0 -0.00363167 -9.73318e-05 0 -0.00357745 -0.000143852 0 -0.00350302 -0.000188407 0 -0.00340927 -0.000230599 0 -0.00329727 -0.000269936 0 -0.00316835 -0.000305858 0 -0.00302415 -0.000337777 0 -0.00286658 -0.000365137 0 -0.00269784 -0.000387484 0 -0.00252033 -0.000404514 0 -0.00233655 -0.000416117 0 -0.00214902 -0.000422388 0 0 0.000998074 0 -0.000359811 0.000992049 0 -0.000714991 0.000974236 0 -0.00106113 0.000945355 0 -0.00139425 0.000906516 0 -0.00171091 0.000859085 0 -0.00200831 0.000804547 0 -0.00228425 0.000744383 0 -0.00253711 0.000679983 0 -0.00276576 0.000612595 0 -0.0029695 0.000543318 0 -0.00314798 0.000473087 0 -0.00330118 0.000402675 0 -0.0034293 0.000332681 0 -0.00353271 0.000263537 0 -0.00361187 0.000195531 0 -0.00366731 0.000128839 0 -0.00369954 6.35714e-05 0 -0.00370909 -1.85189e-07 0 -0.00369646 -6.23265e-05 0 -0.00366218 -0.000122691 0 -0.00360681 -0.000181025 0 -0.00353103 -0.000236962 0 -0.00343562 -0.00029 0 -0.00332162 -0.000339512 0 -0.00319031 -0.000384771 0 -0.00304334 -0.000425005 0 -0.00288266 -0.000459481 0 -0.00271055 -0.000487597 0 -0.00252953 -0.000508951 0 -0.00234224 -0.000523393 0 -0.00215133 -0.000531042 0 0 0.00120625 0 -0.000367444 0.00119884 0 -0.000729933 0.00117696 0 -0.00108278 0.00114153 0 -0.00142178 0.00109397 0 -0.00174339 0.001036 0 -0.00204478 0.00096951 0 -0.00232378 0.000896327 0 -0.00257887 0.000818154 0 -0.00280901 0.000736504 0 -0.00301359 0.000652699 0 -0.00319239 0.000567868 0 -0.00334546 0.000482941 0 -0.00347314 0.000398634 0 -0.00357588 0.000315448 0 -0.00365425 0.000233705 0 -0.00370881 0.000153588 0 -0.00374012 7.51973e-05 0 -0.00374869 -1.39308e-06 0 -0.00373502 -7.60851e-05 0 -0.00369957 -0.000148708 0 -0.00364285 -0.000218977 0 -0.00356544 -0.000286458 0 -0.00346805 -0.000350549 0 -0.00335162 -0.000410476 0 -0.0032174 -0.000465326 0 -0.00306701 -0.000514117 0 -0.00290247 -0.00055591 0 -0.00272618 -0.000589927 0 -0.00254078 -0.000615655 0 -0.00234911 -0.000632897 0 -0.00215398 -0.000641792 0 0 0.00141928 0 -0.000376706 0.00141038 0 -0.000748042 0.00138413 0 -0.00110896 0.00134168 0 -0.00145501 0.00128482 0 -0.00178251 0.00121571 0 -0.00208858 0.00113665 0 -0.00237115 0.00104989 0 -0.00262879 0.000957453 0 -0.00286062 0.00086111 0 -0.00306613 0.000762407 0 -0.0032452 0.000662672 0 -0.00339805 0.000562997 0 -0.00352512 0.000464213 0 -0.00362702 0.000366884 0 -0.0037044 0.000271346 0 -0.0037579 0.000177772 0 -0.00378812 8.62364e-05 0 -0.00379557 -3.21817e-06 0 -0.0037807 -9.05151e-05 0 -0.00374392 -0.000175489 0 -0.00368566 -0.000257832 0 -0.00360639 -0.000337055 0 -0.00350671 -0.000412452 0 -0.00338745 -0.000483094 0 -0.00324979 -0.00054786 0 -0.00309532 -0.000605521 0 -0.00292614 -0.000654887 0 -0.00274478 -0.000694975 0 -0.00255409 -0.000725141 0 -0.0023571 -0.000745136 0 -0.00215685 -0.000755118 0 0 0.00163814 0 -0.000387732 0.00162763 0 -0.000769574 0.0015966 0 -0.00114003 0.00154654 0 -0.00149434 0.00147967 0 -0.00182864 0.00139865 0 -0.00214007 0.00130631 0 -0.00242667 0.0012053 0 -0.00268717 0.00109802 0 -0.00292082 0.000986478 0 -0.00312729 0.000872444 0 -0.00330658 0.000757446 0 -0.00345904 0.000642753 0 -0.00358531 0.000529309 0 -0.00368615 0.000417727 0 -0.00376233 0.000308342 0 -0.00381459 0.00020129 0 -0.00384355 9.6597e-05 0 -0.00384972 -5.74447e-06 0 -0.00383351 -0.000105699 0 -0.00379528 -0.000203121 0 -0.00373532 -0.000297698 0 -0.003654 -0.000388893 0 -0.00355176 -0.0004759 0 -0.00342929 -0.000557627 0 -0.00328767 -0.000632716 0 -0.00312844 -0.000699641 0 -0.0029538 -0.000756905 0 -0.00276643 -0.000803278 0 -0.00256946 -0.000837964 0 -0.00236614 -0.000860657 0 -0.00215981 -0.000871534 0 0 0.00186391 0 -0.000400696 0.0018516 0 -0.00079485 0.00181532 0 -0.00117641 0.00175692 0 -0.00154023 0.00167915 0 -0.00188228 0.00158529 0 -0.00219971 0.00147877 0 -0.00249073 0.00136275 0 -0.00275431 0.00123996 0 -0.00298994 0.00111266 0 -0.00319738 0.000982786 0 -0.00337675 0.000852108 0 -0.00352862 0.000722088 0 -0.00365383 0.000593787 0 -0.00375335 0.000467847 0 -0.0038281 0.000344572 0 -0.00387891 0.000224037 0 -0.00390644 0.000106191 0 -0.0039112 -9.0463e-06 0 -0.00389355 -0.000121702 0 -0.00385375 -0.000231675 0 -0.003792 -0.00033866 0 -0.00370847 -0.000442087 0 -0.00360345 -0.000541062 0 -0.00347744 -0.000634321 0 -0.00333134 -0.000720239 0 -0.00316666 -0.000796927 0 -0.00298562 -0.000862497 0 -0.00279124 -0.000915413 0 -0.00258689 -0.00095472 0 -0.00237617 -0.000980051 0 -0.0021627 -0.0009916 0 0 0.00209777 0 -0.000415816 0.00208344 0 -0.000824271 0.0020413 0 -0.00121863 0.00197363 0 -0.00159327 0.00188388 0 -0.00194399 0.00177607 0 -0.002268 0.00165432 0 -0.00256376 0.0015224 0 -0.00283061 0.00138337 0 -0.00306824 0.00123966 0 -0.00327656 0.00109338 0 -0.00345585 0.00094654 0 -0.00360684 0.000800846 0 -0.00373068 0.00065748 0 -0.00382857 0.000517087 0 -0.00390162 0.000379903 0 -0.00395076 0.000245905 0 -0.00397669 0.000114936 0 -0.00397992 -1.31862e-05 0 -0.00396075 -0.000138575 0 -0.00391934 -0.000261194 0 -0.00385572 -0.00038077 0 -0.0037699 -0.000496723 0 -0.00366195 -0.000608077 0 -0.00353211 -0.000713403 0 -0.00338106 -0.000810774 0 -0.00321015 -0.000897855 0 -0.00302182 -0.000972238 0 -0.00281929 -0.00103202 0 -0.00260641 -0.00107606 0 -0.0023871 -0.00110396 0 -0.00216533 -0.00111593 0 0 0.00234103 0 -0.000433362 0.00232442 0 -0.000858337 0.00227565 0 -0.00126733 0.00219759 0 -0.00165418 0.00209451 0 -0.00201447 0.00197137 0 -0.00234554 0.00183317 0 -0.00264625 0.00168434 0 -0.00291643 0.0015283 0 -0.0031562 0.00136752 0 -0.00336543 0.00120415 0 -0.00354435 0.00104058 0 -0.00369409 0.000878823 0 -0.00381615 0.000720189 0 -0.00391205 0.00056527 0 -0.0039831 0.000414189 0 -0.00403033 0.000266782 0 -0.00405451 0.000122753 0 -0.00405611 -1.8213e-05 0 -0.00403537 -0.000156344 0 -0.00399232 -0.000291694 0 -0.00392684 -0.000424051 0 -0.00383873 -0.000552842 0 -0.00372776 -0.000677043 0 -0.00359389 -0.000795065 0 -0.00343743 -0.000904666 0 -0.00325956 -0.00100295 0 -0.00306266 -0.0010868 0 -0.00285074 -0.00115377 0 -0.00262803 -0.00120269 0 -0.00239883 -0.0012331 0 -0.00216747 -0.00124519 0 0 0.0025952 0 -0.000453678 0.00257597 0 -0.000897673 0.00251961 0 -0.00132333 0.00242974 0 -0.00172383 0.00231168 0 -0.00209454 0.00217157 0 -0.00243303 0.00201546 0 -0.00273871 0.00184859 0 -0.00301219 0.00167476 0 -0.00325395 0.00149619 0 -0.00346383 0.00131498 0 -0.00364206 0.00113398 0 -0.00379001 0.000955759 0 -0.0039098 0.000781666 0 -0.00400328 0.000612191 0 -0.00407199 0.00044727 0 -0.00411708 0.000286557 0 -0.00413934 0.000129573 0 -0.00413923 -2.41587e-05 0 -0.00411691 -0.000175012 0 -0.00407227 -0.00032316 0 -0.00400501 -0.000468478 0 -0.00391466 -0.000610441 0 -0.00380071 -0.000748001 0 -0.0036627 -0.000879452 0 -0.00350053 -0.00100224 0 -0.00331483 -0.00111278 0 -0.00310842 -0.00120687 0 -0.0028857 -0.00128147 0 -0.00265178 -0.00133538 0 -0.00241125 -0.00136825 0 -0.00216888 -0.00138015 0 0 0.00286202 0 -0.000477195 0.00283974 0 -0.000943063 0.00277457 0 -0.00138764 0.00267112 0 -0.00180329 0.00253606 0 -0.00218521 0.00237697 0 -0.00253128 0.00220121 0 -0.0028417 0.00201504 0 -0.00311822 0.00182277 0 -0.00336257 0.00162589 0 -0.00357355 0.0014257 0 -0.0037504 0.00122645 0 -0.00389594 0.00103131 0 -0.00401281 0.000841618 0 -0.00410338 0.000657612 0 -0.00416937 0.000478975 0 -0.00421206 0.000305113 0 -0.00423225 0.000135335 0 -0.00423039 -3.10371e-05 0 -0.00420652 -0.000194551 0 -0.0041604 -0.000355534 0 -0.0040915 -0.000513983 0 -0.0039991 -0.000669453 0 -0.00388231 -0.000820925 0 -0.00374025 -0.000966629 0 -0.00357212 -0.00110378 0 -0.00337787 -0.00122805 0 -0.00315953 -0.0013335 0 -0.0029243 -0.00141591 0 -0.00267768 -0.00147496 0 -0.0024243 -0.00151028 0 -0.00216929 -0.00152166 0 0 0.00314351 0 -0.00050446 0.00311761 0 -0.000995497 0.00304211 0 -0.00146148 0.00292286 0 -0.00189387 0.00276828 0 -0.00228766 0.00258776 0 -0.00264124 0.00239029 0 -0.00295575 0.00218338 0 -0.00323471 0.00197224 0 -0.00348113 0.00175655 0 -0.00369254 0.00153608 0 -0.00386732 0.00131747 0 -0.00400941 0.00110506 0 -0.00412266 0.000899686 0 -0.00420971 0.000701276 0 -0.00427259 0.000509112 0 -0.0043126 0.000322339 0 -0.00433061 0.000139988 0 -0.00432696 -3.88401e-05 0 -0.00430163 -0.000214906 0 -0.00425419 -0.00038872 0 -0.00418392 -0.000560438 0 -0.00408974 -0.000729746 0 -0.00397044 -0.000895694 0 -0.00382453 -0.00105655 0 -0.00365063 -0.00120945 0 -0.00344704 -0.00134945 0 -0.00321595 -0.00146759 0 -0.00296657 -0.00155799 0 -0.00270587 -0.00162228 0 -0.00243786 -0.00166017 0 -0.00216837 -0.00167074 0 0 0.00344205 0 -0.000536181 0.00341183 0 -0.00105622 0.00332402 0 -0.00154644 0.00318617 0 -0.00199717 0.00300897 0 -0.00240336 0.002804 0 -0.00276402 0.00258245 0 -0.00308149 0.00235277 0 -0.00336128 0.00212321 0 -0.00361305 0.00189006 0 -0.00382795 0.00164541 0 -0.00399795 0.00140649 0 -0.00413592 0.0011764 0 -0.00424442 0.000955504 0 -0.00432744 0.000742872 0 -0.00438671 0.000537498 0 -0.0044238 0.000338119 0 -0.00443948 0.000143498 0 -0.00443408 -4.75369e-05 0 -0.00440742 -0.000235982 0 -0.00435892 -0.000422572 0 -0.00428758 -0.000607661 0 -0.00419209 -0.000791104 0 -0.00407065 -0.000972092 0 -0.00392157 -0.00114901 0 -0.00374207 -0.00131911 0 -0.00352978 -0.00147823 0 -0.00327808 -0.00161192 0 -0.00301259 -0.00170815 0 -0.0027364 -0.00177834 0 -0.00245203 -0.00181901 0 -0.00216579 -0.00182848 0 0 0.0037605 0 -0.000573261 0.00372503 0 -0.00112685 0.00362239 0 -0.00164445 0.00346235 0 -0.00211517 0.0032587 0 -0.00253403 0.00302558 0 -0.002901 0.00277715 0 -0.00321975 0.00252211 0 -0.00349723 0.00227407 0 -0.00374437 0.00202498 0 -0.00395343 0.00175211 0 -0.0041172 0.00149267 0 -0.00424912 0.00124466 0 -0.0043521 0.00100865 0 -0.0044303 0.000782072 0 -0.00448555 0.000563937 0 -0.00451944 0.00035234 0 -0.0045327 0.000145846 0 -0.00452559 -5.70702e-05 0 -0.00449779 -0.000257652 0 -0.00444856 -0.000456894 0 -0.00437662 -0.000655402 0 -0.00428032 -0.000853224 0 -0.00415746 -0.00104979 0 -0.00400578 -0.00124362 0 -0.00382192 -0.00143224 0 -0.00360283 -0.0016137 0 -0.00334125 -0.00176636 0 -0.00306249 -0.00186649 0 -0.00276985 -0.00194415 0 -0.00246677 -0.00198811 0 -0.00216118 -0.00199622 0 0 0.00410236 0 -0.000616892 0.00406042 0 -0.00120944 0.00393961 0 -0.00175798 0.00375285 0 -0.0022503 0.0035179 0 -0.00268178 0.00325235 0 -0.00305381 0.00297329 0 -0.00337171 0.00269057 0 -0.0036433 0.00242077 0 -0.00387546 0.00215225 0 -0.00406905 0.00185436 0 -0.00422496 0.00157457 0 -0.0043488 0.00130933 0 -0.00444542 0.00105852 0 -0.004518 0.000818607 0 -0.00456881 0.000588198 0 -0.00459923 0.000364922 0 -0.00461 0.000147024 0 -0.00460127 -6.73523e-05 0 -0.0045726 -0.000279744 0 -0.00452303 -0.000491441 0 -0.00445105 -0.000703332 0 -0.00435461 -0.000915738 0 -0.00423119 -0.00112834 0 -0.00407772 -0.00133989 0 -0.00389096 -0.00154812 0 -0.00366716 -0.00175187 0 -0.0034066 -0.00192387 0 -0.00311734 -0.00203377 0 -0.00280695 -0.00212063 0 -0.00248231 -0.00216916 0 -0.00215413 -0.00217584 0 0 0.00447195 0 -0.000668657 0.00442187 0 -0.00130668 0.0042785 0 -0.00189015 0.00405916 0 -0.00240551 0.00378687 0 -0.00284909 0.00348371 0 -0.00322436 0.00316977 0 -0.00353887 0.00285653 0 -0.00380167 0.00256124 0 -0.00402109 0.00227009 0 -0.00420146 0.00195033 0 -0.00434626 0.00165118 0 -0.00446103 0.00136964 0 -0.00454999 0.00110467 0 -0.00461634 0.000852131 0 -0.00466221 0.000610089 0 -0.00468894 0.000375774 0 -0.00469718 0.00014705 0 -0.00468697 -7.82683e-05 0 -0.00465774 -0.000302049 0 -0.00460833 -0.000525907 0 -0.00453696 -0.000751062 0 -0.00444125 -0.000978165 0 -0.00431817 -0.0012072 0 -0.00416419 -0.00143717 0 -0.00397537 -0.00166595 0 -0.00374816 -0.00189184 0 -0.00348111 -0.00208428 0 -0.00317924 -0.00221031 0 -0.00284876 -0.00230929 0 -0.00249916 -0.00236416 0 -0.00214416 -0.00236941 0 0 0.00487467 0 -0.000730695 0.00481421 0 -0.00142212 0.00464236 0 -0.00204495 0.00438277 0 -0.00258443 0.00406566 0 -0.00303883 0.00371869 0 -0.00341482 0.00336524 0 -0.00372287 0.0030181 0 -0.00397414 0.00269461 0 -0.00417839 0.0023796 0 -0.00434345 0.00203879 0 -0.00447558 0.00172165 0 -0.00457975 0.00142482 0 -0.00466009 0.00114662 0 -0.00471949 0.000882302 0 -0.00475999 0.00062943 0 -0.0047828 0.000384821 0 -0.0047885 0.000145965 0 -0.004777 -8.96735e-05 0 -0.00474759 -0.000324315 0 -0.00469892 -0.000559933 0 -0.00462895 -0.000798126 0 -0.00453494 -0.00103993 0 -0.0044134 -0.00128571 0 -0.00426015 -0.00153476 0 -0.00407063 -0.00178507 0 -0.00384037 -0.0020344 0 -0.0035669 -0.00225018 0 -0.00325058 -0.00239695 0 -0.00289703 -0.00251217 0 -0.00251783 -0.0025757 0 -0.00213067 -0.00257957 0 0 0.00531756 0 -0.000805945 0.0052435 0 -0.00156052 0.00503505 0 -0.00222744 0.00472514 0 -0.00279143 0.00435387 0 -0.00325431 0.00395583 0 -0.00362747 0.0035578 0 -0.00392537 0.0031734 0 -0.00416182 0.00281941 0 -0.00434897 0.00247968 0 -0.0044973 0.00211875 0 -0.00461487 0.00178504 0 -0.00470721 0.00147421 0 -0.00477794 0.0011839 0 -0.00482976 0.000908816 0 -0.00486448 0.000646047 0 -0.00488321 0.000392011 0 -0.0048864 0.000143831 0 -0.00487383 -0.000101392 0 -0.00484468 -0.000346247 0 -0.00479741 -0.000593102 0 -0.00472974 -0.00084398 0 -0.00463858 -0.00110037 0 -0.00451992 -0.0013631 0 -0.00436895 -0.00163186 0 -0.00418016 -0.00190481 0 -0.00394794 -0.00217945 0 -0.00366689 -0.00242221 0 -0.00333431 -0.00259514 0 -0.00295391 -0.00273174 0 -0.00253922 -0.00280713 0 -0.00211296 -0.00280981 0 0 0.00580963 0 -0.000898592 0.00571749 0 -0.00172836 0.00546105 0 -0.0024442 0.0050874 0 -0.00303178 0.00465033 0 -0.00349919 0.0041929 0 -0.00386466 0.00374502 0 -0.00414786 0.00332023 0 -0.0043656 0.00293375 0 -0.00453177 0.00256867 0 -0.00466027 0.0021891 0 -0.00476174 0.00184052 0 -0.00484098 0.00151721 0 -0.00490127 0.00121609 0 -0.0049449 0.000931391 0 -0.0049735 0.000659785 0 -0.004988 0.000397314 0 -0.00498873 0.000140732 0 -0.00497538 -0.000113219 0 -0.00494698 -0.000367513 0 -0.00490185 -0.000624942 0 -0.00483749 -0.000888001 0 -0.00475047 -0.00115872 0 -0.00463631 -0.00143846 0 -0.0044894 -0.00172748 0 -0.00430325 -0.00202425 0 -0.00407073 -0.00232639 0 -0.00378395 -0.00260046 0 -0.00343403 -0.00280645 0 -0.00302234 -0.00297115 0 -0.00256458 -0.00306286 0 -0.00208999 -0.00306465 0 0 0.00636348 0 -0.00101466 0.00624619 0 -0.0019346 0.00592548 0 -0.00270365 0.00546999 0 -0.00331172 0.00495278 0 -0.00377737 0.00442666 0 -0.00412859 0.00392378 0 -0.0043916 0.00345598 0 -0.00458621 0.00303538 0 -0.00472711 0.0026449 0 -0.00483256 0.00224855 0 -0.00491644 0.00188738 0 -0.00498157 0.00155325 0 -0.00503065 0.0012428 0 -0.00506558 0.000949765 0 -0.00508773 0.00067052 0 -0.00509791 0.000400713 0 -0.00509628 0.000136776 0 -0.00508246 -0.000124924 0 -0.00505536 -0.000387745 0 -0.00501318 -0.000654928 0 -0.00495325 -0.000929495 0 -0.00487184 -0.00121407 0 -0.00476398 -0.00151075 0 -0.00462331 -0.00182044 0 -0.00444207 -0.0021422 0 -0.00421184 -0.00247406 0 -0.00392209 -0.00278469 0 -0.00355444 -0.00303237 0 -0.00310632 -0.00323432 0 -0.00259574 -0.00334862 0 -0.00206048 -0.00335021 0 0 0.0069956 0 -0.00116331 0.00684305 0 -0.00219189 0.00643383 0 -0.00301671 0.00587204 0 -0.00363846 0.00525717 0 -0.0040928 0.00465259 0 -0.0044211 0.00408999 0 -0.00465736 0.00357804 0 -0.00482467 0.00312141 0 -0.00493422 0.00270356 0 -0.00501175 0.00229641 0 -0.00507801 0.00192482 0 -0.00512778 0.00158198 0 -0.00516521 0.00126364 0 -0.00519089 0.000963754 0 -0.0052064 0.000678131 0 -0.00521216 0.000402227 0 -0.00520832 0.000132083 0 -0.00519436 -0.000136252 0 -0.00516915 -0.000406545 0 -0.00513079 -0.000682497 0 -0.0050765 -0.000967689 0 -0.00500229 -0.00126545 0 -0.00490288 -0.00157871 0 -0.00477084 -0.00190933 0 -0.00459763 -0.00225725 0 -0.00437199 -0.00261982 0 -0.00408684 -0.00297134 0 -0.00370168 -0.00327493 0 -0.00321155 -0.00352584 0 -0.00263543 -0.00367227 0 -0.00202239 -0.00367467 0 0 0.00773201 0 -0.00135874 0.00752577 0 -0.00251846 0.00699161 0 -0.00339726 0.00629002 0 -0.00401996 0.00555692 0 -0.00444908 0.00486432 0 -0.00474329 0.00423883 0 -0.00494514 0.00368306 0 -0.00508145 0.00319107 0 -0.00516643 0.00274647 0 -0.00522342 0.00233248 0 -0.00527043 0.00195251 0 -0.00530484 0.00160299 0 -0.0053298 0.00127833 0 -0.00534598 0.000973166 0 -0.00535458 0.000682545 0 -0.00535593 0.000401881 0 -0.00535003 0.000126796 0 -0.0053363 -0.000146936 0 -0.00531359 -0.000423493 0 -0.00527996 -0.000707043 0 -0.00523258 -0.00100175 0 -0.00516736 -0.00131176 0 -0.00507864 -0.00164092 0 -0.00495841 -0.00199243 0 -0.00479633 -0.0023676 0 -0.00457824 -0.00276333 0 -0.00428852 -0.00316185 0 -0.00388361 -0.00353534 0 -0.00334597 -0.00385137 0 -0.00268822 -0.0040442 0 -0.00197307 -0.00405036 0 0 0.00860709 0 -0.00162439 0.00831959 0 -0.00294078 0.00760229 0 -0.0038626 0.0067159 0 -0.00446436 0.00584183 0 -0.00484878 0.00505331 0 -0.00509508 0.00436468 0 -0.00525379 0.00376698 0 -0.00535472 0.00324469 0 -0.0054168 0.00277954 0 -0.0054559 0.00235669 0 -0.00548281 0.00197044 0 -0.00550153 0.00161577 0 -0.00551348 0.00128674 0 -0.00551992 0.000977803 0 -0.00552145 0.000683736 0 -0.0055184 0.000399708 0 -0.00551061 0.000121075 0 -0.0054975 -0.000156698 0 -0.0054779 -0.000438159 0 -0.00544992 -0.00072794 0 -0.00541076 -0.00103083 0 -0.00535638 -0.00135177 0 -0.00528088 -0.00169579 0 -0.00517597 -0.00206764 0 -0.00502942 -0.00247081 0 -0.00482385 -0.00290486 0 -0.00453076 -0.00335982 0 -0.00410957 -0.00381293 0 -0.00352152 -0.00421703 0 -0.00276168 -0.00447946 0 -0.00190795 -0.00449295 0 0 0.00968729 0 -0.00200114 0.00925729 0 -0.00349753 0.00826433 0 -0.00443305 0.0071337 0 -0.0049786 0.00609686 0 -0.00529252 0.00520896 0 -0.00547473 0.00446067 0 -0.00558084 0.00382614 0 -0.00564093 0.00327975 0 -0.00567212 0.00279944 0 -0.00568699 0.00236881 0 -0.00569389 0.00197808 0 -0.00569592 0.00162017 0 -0.00569472 0.00128863 0 -0.00569109 0.000977591 0 -0.0056855 0.00068166 0 -0.00567807 0.000395776 0 -0.00566861 0.000115074 0 -0.00565649 -0.000165261 0 -0.0056406 -0.000450112 0 -0.00561917 -0.000744564 0 -0.00558956 -0.00105401 0 -0.00554786 -0.00138424 0 -0.00548835 -0.00174154 0 -0.0054025 -0.00213252 0 -0.00527739 -0.00256357 0 -0.00509251 -0.00303913 0 -0.00481473 -0.00355783 0 -0.00439098 -0.00410455 0 -0.00375636 -0.00462818 0 -0.0028697 -0.00499839 0 -0.00182047 -0.00503331 0 0 0.0110655 0 -0.00256344 0.0103875 0 -0.00424472 0.00896019 0 -0.00512911 0.00751536 0 -0.00556629 0.00630115 0 -0.00577759 0.00531862 0 -0.00587842 0.00451961 0 -0.00592245 0.00385663 0 -0.00593637 0.00329344 0 -0.0059336 0.00280339 0 -0.00592255 0.00236797 0 -0.00590819 0.00197502 0 -0.00589318 0.00161597 0 -0.0058785 0.00128383 0 -0.00586468 0.000972461 0 -0.00585192 0.000676308 0 -0.00584019 0.000390155 0 -0.00582924 0.000108949 0 -0.00581846 -0.000172354 0 -0.00580686 -0.000458944 0 -0.00579284 -0.000756307 0 -0.00577402 -0.00107041 0 -0.00574685 -0.00140789 0 -0.00570604 -0.00177629 0 -0.00564341 -0.00218424 0 -0.00554616 -0.00264162 0 -0.00539266 -0.00315891 0 -0.00514602 -0.00374551 0 -0.0047415 -0.00440101 0 -0.00407826 -0.00508561 0 -0.00303913 -0.00563354 0 -0.0016976 -0.00570971 0 0 0.0129855 0 -0.00346505 0.0117587 0 -0.00525205 0.00964016 0 -0.00596759 0.0078147 0 -0.00622252 0.00642848 0 -0.00629741 0.00536868 0 -0.00629935 0.00453447 0 -0.00627366 0.00385493 0 -0.00623705 0.0032835 0 -0.00619733 0.00278977 0 -0.0061582 0.00235336 0 -0.00612198 0.00196095 0 -0.00608955 0.00160302 0 -0.00606128 0.00127227 0 -0.00603719 0.000962373 0 -0.00601726 0.000667699 0 -0.00600132 0.000382918 0 -0.00598906 0.000102851 0 -0.00597996 -0.000177734 0 -0.00597315 -0.000464271 0 -0.0059673 -0.000762613 0 -0.00596041 -0.00107921 0 -0.00594948 -0.00142149 0 -0.00592993 -0.00179815 0 -0.00589464 -0.00221989 0 -0.00583196 -0.00270003 0 -0.00572167 -0.00325585 0 -0.0055269 -0.00390951 0 -0.00517609 -0.00468386 0 -0.00452638 -0.00557964 0 -0.00332962 -0.00642559 0 -0.00151697 -0.00662978 0 0 0.0159627 0 -0.0050048 0.0133968 0 -0.00659366 0.0101757 0 -0.00694482 0.00796931 0 -0.00693157 0.00644923 0 -0.00683936 0.00534639 0 -0.00672827 0.00449979 0 -0.00662821 0.00381835 0 -0.00653858 0.00324866 0 -0.00646098 0.00275762 0 -0.0063932 0.00232457 0 -0.00633478 0.00193565 0 -0.00628487 0.00158126 0 -0.00624297 0.00125391 0 -0.00620864 0.000947332 0 -0.00618158 0.00065586 0 -0.00616152 0.000374142 0 -0.00614814 9.69134e-05 0 -0.00614098 -0.000181181 0 -0.0061394 -0.000465773 0 -0.00614236 -0.000762981 0 -0.00614838 -0.00107969 0 -0.00615511 -0.00142392 0 -0.00615913 -0.00180542 0 -0.00615482 -0.00223657 0 -0.00613301 -0.00273393 0 -0.00607756 -0.00332111 0 -0.0059561 -0.00403311 0 -0.00570429 -0.00492463 0 -0.00515205 -0.00606619 0 -0.00386906 -0.0074362 0 -0.00121705 -0.00797711 0 0 0.022396 0 -0.00776592 0.0149297 0 -0.00827384 0.0103517 0 -0.00802435 0.00790329 0 -0.00765737 0.00633911 0 -0.00738945 0.00524196 0 -0.00715023 0.00441294 0 -0.00698118 0.00374566 0 -0.00683492 0.00318876 0 -0.00672214 0.00270664 0 -0.00662458 0.0022816 0 -0.00654494 0.00189911 0 -0.00647733 0.00155073 0 -0.00642214 0.00122877 0 -0.00637757 0.000927378 0 -0.00634353 0.000640836 0 -0.00631943 0.000363899 0 -0.00630505 9.12456e-05 0 -0.00630009 -0.00018252 0 -0.00630398 -0.000463187 0 -0.00631639 -0.000757012 0 -0.00633573 -0.00107126 0 -0.00636184 -0.00141424 0 -0.00639007 -0.00179666 0 -0.00642169 -0.0022318 0 -0.00644209 -0.00273893 0 -0.00645777 -0.00334637 0 -0.00641821 -0.00409845 0 -0.00633246 -0.00508484 0 -0.00597794 -0.00644728 0 -0.00496933 -0.00862706 0 -0.000571485 -0.010719 0 0 0.0458919 0 -0.0112146 0.0134226 0 -0.0109781 0.01026 0 -0.00859818 0.00746132 0 -0.00864702 0.00611702 0 -0.00776812 0.00504462 0 -0.00763558 0.00427517 0 -0.00728179 0.00363936 0 -0.00714385 0.00310317 0 -0.00696654 0.00263848 0 -0.00685624 0.00222408 0 -0.00674824 0.00185197 0 -0.00666727 0.00151134 0 -0.00659718 0.0011971 0 -0.00654345 0.000902496 0 -0.00650212 0.000622727 0 -0.00647422 0.000352219 0 -0.006459 8.59622e-05 0 -0.00645611 -0.000181671 0 -0.00646629 -0.000456263 0 -0.00648718 -0.000744542 0 -0.0065229 -0.00105331 0 -0.00656394 -0.0013921 0 -0.00662763 -0.00177045 0 -0.00667713 -0.00220424 0 -0.00678134 -0.00271196 0 -0.00680068 -0.00332298 0 -0.00699572 -0.0040998 0 -0.00685419 -0.00509686 0 -0.00726937 -0.00668089 0 -0.00675792 -0.00897748 0 0.00234256 -0.0216242 0 </DataArray> 
</PointData> 
<Points> 
<DataArray type="Float32" NumberOfComponents="3"> 