<?xml version="1.0"?> 
<VTKFile type="StructuredGrid" version="0.1"> 
<StructuredGrid WholeExtent="0 95 0 95 0 0"> 
<Piece Extent="0 95 0 95 0 0"> 
<PointData>
<DataArray type="Float32" Name="B" format="ascii" NumberOfComponents="3"> 
-7.74254e-06 -4.46071e-05 0 -9.84374e-06 -4.22861e-05 0 -1.10105e-05 -3.99651e-05 0 -1.12433e-05 -3.76824e-05 0 -1.10195e-05 -3.65882e-05 0 -1.07617e-05 -3.5494e-05 0 -1.04699e-05 -3.44117e-05 0 -1.01447e-05 -3.35079e-05 0 -9.78636e-06 -3.26042e-05 0 -9.39522e-06 -3.1717e-05 0 -8.99845e-06 -3.09901e-05 0 -8.61511e-06 -3.02632e-05 0 -8.24519e-06 -2.95472e-05 0 -7.88568e-06 -2.89075e-05 0 -7.53471e-06 -2.82678e-05 0 -7.19232e-06 -2.764e-05 0 -6.86134e-06 -2.70768e-05 0 -6.54333e-06 -2.65135e-05 0 -6.23827e-06 -2.59611e-05 0 -5.94519e-06 -2.54551e-05 0 -5.6636e-06 -2.49492e-05 0 -5.3935e-06 -2.44542e-05 0 -5.13459e-06 -2.39979e-05 0 -4.88675e-06 -2.35417e-05 0 -4.64993e-06 -2.30961e-05 0 -4.42335e-06 -2.26823e-05 0 -4.20667e-06 -2.22685e-05 0 -3.99985e-06 -2.18653e-05 0 -3.8022e-06 -2.14893e-05 0 -3.61346e-06 -2.11132e-05 0 -3.43357e-06 -2.07477e-05 0 -3.2618e-06 -2.04053e-05 0 -3.09791e-06 -2.0063e-05 0 -2.94184e-06 -1.97311e-05 0 -2.79293e-06 -1.94192e-05 0 -2.65096e-06 -1.91073e-05 0 -2.51588e-06 -1.88057e-05 0 -2.38706e-06 -1.85215e-05 0 -2.26434e-06 -1.82373e-05 0 -2.14765e-06 -1.79634e-05 0 -2.03642e-06 -1.77045e-05 0 -1.93052e-06 -1.74456e-05 0 -1.82988e-06 -1.71969e-05 0 -1.734e-06 -1.69612e-05 0 -1.64277e-06 -1.67256e-05 0 -1.55611e-06 -1.64999e-05 0 -1.47358e-06 -1.62857e-05 0 -1.39509e-06 -1.60714e-05 0 -1.32058e-06 -1.5867e-05 0 -1.24964e-06 -1.56726e-05 0 -1.18221e-06 -1.54781e-05 0 -1.11822e-06 -1.52933e-05 0 -1.05732e-06 -1.51171e-05 0 -9.99459e-07 -1.49409e-05 0 -9.44569e-07 -1.47743e-05 0 -8.92345e-07 -1.46152e-05 0 -8.42745e-07 -1.4456e-05 0 -7.95707e-07 -1.43063e-05 0 -7.50962e-07 -1.4163e-05 0 -7.0848e-07 -1.40197e-05 0 -6.68198e-07 -1.38857e-05 0 -6.29884e-07 -1.37573e-05 0 -5.93514e-07 -1.36289e-05 0 -5.59028e-07 -1.35096e-05 0 -5.26224e-07 -1.33951e-05 0 -4.95085e-07 -1.32806e-05 0 -4.65553e-07 -1.31751e-05 0 -4.37451e-07 -1.30738e-05 0 -4.10768e-07 -1.29724e-05 0 -3.85447e-07 -1.288e-05 0 -3.61335e-07 -1.27911e-05 0 -3.38424e-07 -1.27022e-05 0 -3.16659e-07 -1.26221e-05 0 -2.95907e-07 -1.2545e-05 0 -2.76163e-07 -1.24679e-05 0 -2.57373e-07 -1.23997e-05 0 -2.39421e-07 -1.23339e-05 0 -2.22304e-07 -1.22681e-05 0 -2.0597e-07 -1.22111e-05 0 -1.90318e-07 -1.21562e-05 0 -1.75344e-07 -1.21012e-05 0 -1.60999e-07 -1.20551e-05 0 -1.47192e-07 -1.20107e-05 0 -1.33923e-07 -1.19662e-05 0 -1.21141e-07 -1.19307e-05 0 -1.08766e-07 -1.18964e-05 0 -9.67984e-08 -1.18621e-05 0 -8.5187e-08 -1.18369e-05 0 -7.38607e-08 -1.18125e-05 0 -6.2819e-08 -1.17882e-05 0 -5.20107e-08 -1.17731e-05 0 -4.13711e-08 -1.17585e-05 0 -3.08998e-08 -1.1744e-05 0 -2.05441e-08 -1.17389e-05 0 -1.02442e-08 -1.17341e-05 0 0 -1.17292e-05 0 -7.55274e-06 -4.14899e-05 0 -8.85192e-06 -4.03027e-05 0 -9.57379e-06 -3.91155e-05 0 -9.71861e-06 -3.79331e-05 0 -9.56774e-06 -3.68994e-05 0 -9.37015e-06 -3.58658e-05 0 -9.12588e-06 -3.48431e-05 0 -8.84609e-06 -3.39842e-05 0 -8.53954e-06 -3.31252e-05 0 -8.20639e-06 -3.22773e-05 0 -7.86605e-06 -3.15355e-05 0 -7.53218e-06 -3.07937e-05 0 -7.20476e-06 -3.00632e-05 0 -6.88421e-06 -2.94117e-05 0 -6.57079e-06 -2.87602e-05 0 -6.26452e-06 -2.81197e-05 0 -5.96773e-06 -2.75387e-05 0 -5.68171e-06 -2.69577e-05 0 -5.40645e-06 -2.63876e-05 0 -5.14166e-06 -2.58654e-05 0 -4.88718e-06 -2.53431e-05 0 -4.643e-06 -2.48318e-05 0 -4.40892e-06 -2.43598e-05 0 -4.18484e-06 -2.38877e-05 0 -3.97074e-06 -2.34267e-05 0 -3.766e-06 -2.29986e-05 0 -3.57037e-06 -2.25706e-05 0 -3.38381e-06 -2.21536e-05 0 -3.20571e-06 -2.17647e-05 0 -3.03583e-06 -2.13758e-05 0 -2.87413e-06 -2.09978e-05 0 -2.71996e-06 -2.06441e-05 0 -2.5731e-06 -2.02903e-05 0 -2.43349e-06 -1.99475e-05 0 -2.30053e-06 -1.96255e-05 0 -2.17401e-06 -1.93036e-05 0 -2.05389e-06 -1.89925e-05 0 -1.93959e-06 -1.86995e-05 0 -1.83094e-06 -1.84064e-05 0 -1.7279e-06 -1.81241e-05 0 -1.62993e-06 -1.78575e-05 0 -1.53691e-06 -1.75909e-05 0 -1.44876e-06 -1.73349e-05 0 -1.36503e-06 -1.70926e-05 0 -1.2856e-06 -1.68502e-05 0 -1.21042e-06 -1.66183e-05 0 -1.13905e-06 -1.63982e-05 0 -1.07142e-06 -1.61781e-05 0 -1.00747e-06 -1.59683e-05 0 -9.46815e-07 -1.57687e-05 0 -8.894e-07 -1.55692e-05 0 -8.3516e-07 -1.53797e-05 0 -7.83766e-07 -1.51992e-05 0 -7.35169e-07 -1.50186e-05 0 -6.89309e-07 -1.4848e-05 0 -6.45897e-07 -1.4685e-05 0 -6.04895e-07 -1.45221e-05 0 -5.66245e-07 -1.43689e-05 0 -5.29696e-07 -1.42224e-05 0 -4.95219e-07 -1.40758e-05 0 -4.62757e-07 -1.39389e-05 0 -4.32093e-07 -1.38076e-05 0 -4.03204e-07 -1.36764e-05 0 -3.76036e-07 -1.35546e-05 0 -3.504e-07 -1.34377e-05 0 -3.2628e-07 -1.33208e-05 0 -3.03623e-07 -1.32132e-05 0 -2.82265e-07 -1.31099e-05 0 -2.62196e-07 -1.30065e-05 0 -2.43364e-07 -1.29122e-05 0 -2.25627e-07 -1.28216e-05 0 -2.08978e-07 -1.2731e-05 0 -1.93366e-07 -1.26494e-05 0 -1.78671e-07 -1.25709e-05 0 -1.64886e-07 -1.24924e-05 0 -1.51962e-07 -1.24228e-05 0 -1.39795e-07 -1.23559e-05 0 -1.2838e-07 -1.22889e-05 0 -1.1767e-07 -1.22309e-05 0 -1.07573e-07 -1.2175e-05 0 -9.80874e-08 -1.21191e-05 0 -8.91663e-08 -1.20722e-05 0 -8.07292e-08 -1.2027e-05 0 -7.27743e-08 -1.19817e-05 0 -6.52567e-08 -1.19456e-05 0 -5.81045e-08 -1.19107e-05 0 -5.13169e-08 -1.18759e-05 0 -4.48487e-08 -1.18502e-05 0 -3.86358e-08 -1.18255e-05 0 -3.26777e-08 -1.18008e-05 0 -2.69286e-08 -1.17854e-05 0 -2.13304e-08 -1.17706e-05 0 -1.58829e-08 -1.17558e-05 0 -1.05387e-08 -1.17506e-05 0 -5.24443e-09 -1.17457e-05 0 0 -1.17408e-05 0 -7.36294e-06 -3.98436e-05 0 -7.8601e-06 -3.92545e-05 0 -8.13708e-06 -3.86654e-05 0 -8.19396e-06 -3.80649e-05 0 -8.11599e-06 -3.71109e-05 0 -7.97859e-06 -3.61568e-05 0 -7.78185e-06 -3.5211e-05 0 -7.54752e-06 -3.43875e-05 0 -7.29272e-06 -3.3564e-05 0 -7.01755e-06 -3.27477e-05 0 -6.73366e-06 -3.20014e-05 0 -6.44924e-06 -3.12552e-05 0 -6.16434e-06 -3.05196e-05 0 -5.88275e-06 -2.98585e-05 0 -5.60687e-06 -2.91974e-05 0 -5.33673e-06 -2.85465e-05 0 -5.07413e-06 -2.7951e-05 0 -4.8201e-06 -2.73554e-05 0 -4.57464e-06 -2.67709e-05 0 -4.33813e-06 -2.62341e-05 0 -4.11075e-06 -2.56972e-05 0 -3.8925e-06 -2.51714e-05 0 -3.68325e-06 -2.46852e-05 0 -3.48294e-06 -2.41989e-05 0 -3.29155e-06 -2.37239e-05 0 -3.10865e-06 -2.32828e-05 0 -2.93407e-06 -2.28417e-05 0 -2.76777e-06 -2.2412e-05 0 -2.60921e-06 -2.20113e-05 0 -2.4582e-06 -2.16105e-05 0 -2.3147e-06 -2.12212e-05 0 -2.17813e-06 -2.08569e-05 0 -2.04829e-06 -2.04926e-05 0 -1.92515e-06 -2.01396e-05 0 -1.80813e-06 -1.98084e-05 0 -1.69706e-06 -1.94771e-05 0 -1.5919e-06 -1.91571e-05 0 -1.49211e-06 -1.88559e-05 0 -1.39755e-06 -1.85548e-05 0 -1.30816e-06 -1.82647e-05 0 -1.22344e-06 -1.7991e-05 0 -1.14329e-06 -1.77173e-05 0 -1.06765e-06 -1.74545e-05 0 -9.96058e-07 -1.7206e-05 0 -9.28436e-07 -1.69574e-05 0 -8.64721e-07 -1.67197e-05 0 -8.04516e-07 -1.64942e-05 0 -7.47747e-07 -1.62687e-05 0 -6.94354e-07 -1.60539e-05 0 -6.43988e-07 -1.58497e-05 0 -5.96588e-07 -1.56455e-05 0 -5.52099e-07 -1.54517e-05 0 -5.10211e-07 -1.52671e-05 0 -4.7088e-07 -1.50825e-05 0 -4.34049e-07 -1.49082e-05 0 -3.99449e-07 -1.47418e-05 0 -3.67045e-07 -1.45754e-05 0 -3.36784e-07 -1.44191e-05 0 -3.0843e-07 -1.42696e-05 0 -2.81959e-07 -1.41201e-05 0 -2.57317e-07 -1.39804e-05 0 -2.34302e-07 -1.38466e-05 0 -2.12894e-07 -1.37129e-05 0 -1.93043e-07 -1.35888e-05 0 -1.74575e-07 -1.34697e-05 0 -1.57474e-07 -1.33507e-05 0 -1.41692e-07 -1.32411e-05 0 -1.27079e-07 -1.31359e-05 0 -1.13624e-07 -1.30307e-05 0 -1.0128e-07 -1.29348e-05 0 -8.99186e-08 -1.28427e-05 0 -7.95317e-08 -1.27505e-05 0 -7.00741e-08 -1.26676e-05 0 -6.14347e-08 -1.25877e-05 0 -5.36084e-08 -1.25079e-05 0 -4.65516e-08 -1.24373e-05 0 -4.01682e-08 -1.23692e-05 0 -3.44549e-08 -1.23012e-05 0 -2.93695e-08 -1.22423e-05 0 -2.48288e-08 -1.21855e-05 0 -2.08306e-08 -1.21288e-05 0 -1.73339e-08 -1.20812e-05 0 -1.42661e-08 -1.20353e-05 0 -1.16257e-08 -1.19893e-05 0 -9.37253e-09 -1.19527e-05 0 -7.44268e-09 -1.19173e-05 0 -5.83528e-09 -1.18819e-05 0 -4.51034e-09 -1.18559e-05 0 -3.41087e-09 -1.18308e-05 0 -2.53643e-09 -1.18057e-05 0 -1.84656e-09 -1.17901e-05 0 -1.2898e-09 -1.17751e-05 0 -8.6597e-10 -1.17601e-05 0 -5.33322e-10 -1.17548e-05 0 -2.44679e-10 -1.17499e-05 0 0 -1.17449e-05 0 -7.14877e-06 -3.96674e-05 0 -6.86989e-06 -3.9141e-05 0 -6.71527e-06 -3.86146e-05 0 -6.68482e-06 -3.8078e-05 0 -6.67513e-06 -3.72226e-05 0 -6.5947e-06 -3.63672e-05 0 -6.44365e-06 -3.55154e-05 0 -6.25353e-06 -3.47179e-05 0 -6.0492e-06 -3.39204e-05 0 -5.83067e-06 -3.31282e-05 0 -5.60208e-06 -3.2388e-05 0 -5.36631e-06 -3.16478e-05 0 -5.12344e-06 -3.09165e-05 0 -4.8805e-06 -3.02479e-05 0 -4.64189e-06 -2.95793e-05 0 -4.40763e-06 -2.89203e-05 0 -4.17904e-06 -2.83136e-05 0 -3.95688e-06 -2.77069e-05 0 -3.74116e-06 -2.71109e-05 0 -3.5329e-06 -2.65612e-05 0 -3.33261e-06 -2.60115e-05 0 -3.14029e-06 -2.5473e-05 0 -2.95588e-06 -2.49741e-05 0 -2.77936e-06 -2.44752e-05 0 -2.61072e-06 -2.39878e-05 0 -2.4497e-06 -2.35349e-05 0 -2.29621e-06 -2.30819e-05 0 -2.15022e-06 -2.26406e-05 0 -2.01125e-06 -2.2229e-05 0 -1.87916e-06 -2.18175e-05 0 -1.75391e-06 -2.14177e-05 0 -1.63498e-06 -2.10437e-05 0 -1.52222e-06 -2.06697e-05 0 -1.41559e-06 -2.03075e-05 0 -1.31457e-06 -1.99677e-05 0 -1.21901e-06 -1.96278e-05 0 -1.12885e-06 -1.92997e-05 0 -1.04363e-06 -1.8991e-05 0 -9.63186e-07 -1.86823e-05 0 -8.87488e-07 -1.83851e-05 0 -8.16074e-07 -1.81048e-05 0 -7.48837e-07 -1.78246e-05 0 -6.85724e-07 -1.75557e-05 0 -6.26321e-07 -1.73014e-05 0 -5.70543e-07 -1.70471e-05 0 -5.18333e-07 -1.6804e-05 0 -4.69324e-07 -1.65736e-05 0 -4.23446e-07 -1.63432e-05 0 -3.80644e-07 -1.61238e-05 0 -3.40593e-07 -1.59154e-05 0 -3.03238e-07 -1.57069e-05 0 -2.68525e-07 -1.55092e-05 0 -2.36169e-07 -1.5321e-05 0 -2.06129e-07 -1.51328e-05 0 -1.7835e-07 -1.49551e-05 0 -1.52584e-07 -1.47855e-05 0 -1.28801e-07 -1.4616e-05 0 -1.06948e-07 -1.44568e-05 0 -8.68096e-08 -1.43046e-05 0 -6.83628e-08 -1.41524e-05 0 -5.1558e-08 -1.40103e-05 0 -3.62096e-08 -1.38743e-05 0 -2.22998e-08 -1.37382e-05 0 -9.78147e-09 -1.36121e-05 0 1.5049e-09 -1.34911e-05 0 1.15722e-08 -1.33701e-05 0 2.04657e-08 -1.32588e-05 0 2.83219e-08 -1.3152e-05 0 3.51502e-08 -1.30451e-05 0 4.09936e-08 -1.29478e-05 0 4.5969e-08 -1.28542e-05 0 5.0083e-08 -1.27607e-05 0 5.33767e-08 -1.26766e-05 0 5.59502e-08 -1.25956e-05 0 5.78081e-08 -1.25146e-05 0 5.89894e-08 -1.2443e-05 0 5.958e-08 -1.2374e-05 0 5.95832e-08 -1.2305e-05 0 5.90363e-08 -1.22453e-05 0 5.80134e-08 -1.21878e-05 0 5.65165e-08 -1.21303e-05 0 5.45818e-08 -1.2082e-05 0 5.22734e-08 -1.20355e-05 0 4.95927e-08 -1.1989e-05 0 4.65748e-08 -1.19519e-05 0 4.3276e-08 -1.1916e-05 0 3.9697e-08 -1.18802e-05 0 3.58728e-08 -1.18538e-05 0 3.18529e-08 -1.18284e-05 0 2.76379e-08 -1.1803e-05 0 2.3263e-08 -1.17872e-05 0 1.87727e-08 -1.17721e-05 0 1.41673e-08 -1.17569e-05 0 9.48293e-09 -1.17516e-05 0 4.76049e-09 -1.17465e-05 0 0 -1.17415e-05 0 -6.17925e-06 -4.01384e-05 0 -5.92983e-06 -3.94625e-05 0 -5.75562e-06 -3.87865e-05 0 -5.65656e-06 -3.81074e-05 0 -5.5721e-06 -3.73343e-05 0 -5.44867e-06 -3.65612e-05 0 -5.28631e-06 -3.57877e-05 0 -5.10165e-06 -3.50077e-05 0 -4.90777e-06 -3.42278e-05 0 -4.70467e-06 -3.34523e-05 0 -4.49582e-06 -3.272e-05 0 -4.28361e-06 -3.19877e-05 0 -4.0681e-06 -3.12625e-05 0 -3.85393e-06 -3.05875e-05 0 -3.64398e-06 -2.99125e-05 0 -3.43828e-06 -2.92467e-05 0 -3.23807e-06 -2.86305e-05 0 -3.04401e-06 -2.80144e-05 0 -2.85614e-06 -2.74085e-05 0 -2.67517e-06 -2.68474e-05 0 -2.50145e-06 -2.62863e-05 0 -2.335e-06 -2.57364e-05 0 -2.17578e-06 -2.52262e-05 0 -2.02376e-06 -2.4716e-05 0 -1.87894e-06 -2.42174e-05 0 -1.74105e-06 -2.37537e-05 0 -1.61001e-06 -2.32899e-05 0 -1.48577e-06 -2.28381e-05 0 -1.36792e-06 -2.24167e-05 0 -1.25631e-06 -2.19953e-05 0 -1.1509e-06 -2.1586e-05 0 -1.05123e-06 -2.12032e-05 0 -9.57138e-07 -2.08205e-05 0 -8.68595e-07 -2.04498e-05 0 -7.85122e-07 -2.01021e-05 0 -7.06579e-07 -1.97545e-05 0 -6.32922e-07 -1.94189e-05 0 -5.63698e-07 -1.91034e-05 0 -4.98785e-07 -1.87879e-05 0 -4.38138e-07 -1.84843e-05 0 -3.81337e-07 -1.8198e-05 0 -3.28281e-07 -1.79118e-05 0 -2.78921e-07 -1.76373e-05 0 -2.32878e-07 -1.73779e-05 0 -1.90071e-07 -1.71185e-05 0 -1.50449e-07 -1.68706e-05 0 -1.13675e-07 -1.66358e-05 0 -7.96848e-08 -1.64009e-05 0 -4.84278e-08 -1.61774e-05 0 -1.96058e-08 -1.59651e-05 0 6.83073e-09 -1.57529e-05 0 3.09311e-08 -1.55516e-05 0 5.29558e-08 -1.53601e-05 0 7.29431e-08 -1.51687e-05 0 9.09408e-08 -1.4988e-05 0 1.07175e-07 -1.48156e-05 0 1.21674e-07 -1.46433e-05 0 1.34485e-07 -1.44816e-05 0 1.45802e-07 -1.4327e-05 0 1.55647e-07 -1.41725e-05 0 1.64064e-07 -1.40282e-05 0 1.71219e-07 -1.38901e-05 0 1.7713e-07 -1.37521e-05 0 1.81837e-07 -1.36241e-05 0 1.85484e-07 -1.35014e-05 0 1.88082e-07 -1.33787e-05 0 1.89671e-07 -1.32659e-05 0 1.90373e-07 -1.31577e-05 0 1.90195e-07 -1.30494e-05 0 1.89176e-07 -1.29508e-05 0 1.87419e-07 -1.2856e-05 0 1.84928e-07 -1.27613e-05 0 1.81742e-07 -1.26761e-05 0 1.77946e-07 -1.25942e-05 0 1.73544e-07 -1.25122e-05 0 1.68572e-07 -1.24397e-05 0 1.63102e-07 -1.23699e-05 0 1.57138e-07 -1.23001e-05 0 1.50712e-07 -1.22398e-05 0 1.43888e-07 -1.21816e-05 0 1.36666e-07 -1.21234e-05 0 1.29079e-07 -1.20746e-05 0 1.2118e-07 -1.20276e-05 0 1.12971e-07 -1.19806e-05 0 1.04481e-07 -1.1943e-05 0 9.57581e-08 -1.19068e-05 0 8.68023e-08 -1.18706e-05 0 7.7643e-08 -1.1844e-05 0 6.83217e-08 -1.18183e-05 0 5.88388e-08 -1.17926e-05 0 4.92235e-08 -1.17767e-05 0 3.95129e-08 -1.17613e-05 0 2.97072e-08 -1.1746e-05 0 1.98362e-08 -1.17406e-05 0 9.93383e-09 -1.17355e-05 0 0 -1.17304e-05 0 -5.20972e-06 -4.05285e-05 0 -4.98977e-06 -3.97765e-05 0 -4.79597e-06 -3.90245e-05 0 -4.6283e-06 -3.82729e-05 0 -4.46907e-06 -3.75344e-05 0 -4.30263e-06 -3.67959e-05 0 -4.12898e-06 -3.60555e-05 0 -3.94978e-06 -3.52857e-05 0 -3.76634e-06 -3.45159e-05 0 -3.57868e-06 -3.37498e-05 0 -3.38955e-06 -3.30196e-05 0 -3.2009e-06 -3.22894e-05 0 -3.01276e-06 -3.15654e-05 0 -2.82735e-06 -3.08841e-05 0 -2.64607e-06 -3.02028e-05 0 -2.46894e-06 -2.95302e-05 0 -2.29709e-06 -2.8905e-05 0 -2.13114e-06 -2.82798e-05 0 -1.97112e-06 -2.76647e-05 0 -1.81743e-06 -2.70932e-05 0 -1.6703e-06 -2.65218e-05 0 -1.52972e-06 -2.59615e-05 0 -1.39567e-06 -2.5441e-05 0 -1.26816e-06 -2.49205e-05 0 -1.14715e-06 -2.44117e-05 0 -1.0324e-06 -2.39383e-05 0 -9.23801e-07 -2.34648e-05 0 -8.21322e-07 -2.30035e-05 0 -7.24586e-07 -2.25732e-05 0 -6.33452e-07 -2.2143e-05 0 -5.47891e-07 -2.17251e-05 0 -4.67472e-07 -2.13343e-05 0 -3.92054e-07 -2.09436e-05 0 -3.216e-07 -2.05653e-05 0 -2.55676e-07 -2.02107e-05 0 -1.94152e-07 -1.98561e-05 0 -1.36989e-07 -1.95138e-05 0 -8.377e-08 -1.91922e-05 0 -3.43843e-08 -1.88705e-05 0 1.12109e-08 -1.85611e-05 0 5.34005e-08 -1.82696e-05 0 9.22758e-08 -1.79781e-05 0 1.27882e-07 -1.76986e-05 0 1.60566e-07 -1.74347e-05 0 1.90401e-07 -1.71707e-05 0 2.17434e-07 -1.69185e-05 0 2.41973e-07 -1.66798e-05 0 2.64076e-07 -1.6441e-05 0 2.83788e-07 -1.62139e-05 0 3.01381e-07 -1.59983e-05 0 3.16899e-07 -1.57826e-05 0 3.30387e-07 -1.55783e-05 0 3.42081e-07 -1.5384e-05 0 3.52015e-07 -1.51897e-05 0 3.60231e-07 -1.50064e-05 0 3.66934e-07 -1.48316e-05 0 3.72149e-07 -1.46569e-05 0 3.75918e-07 -1.44929e-05 0 3.78414e-07 -1.43363e-05 0 3.79656e-07 -1.41797e-05 0 3.79685e-07 -1.40337e-05 0 3.78648e-07 -1.38939e-05 0 3.76559e-07 -1.37541e-05 0 3.73456e-07 -1.36246e-05 0 3.69463e-07 -1.35004e-05 0 3.64592e-07 -1.33763e-05 0 3.58877e-07 -1.32622e-05 0 3.52424e-07 -1.31527e-05 0 3.4524e-07 -1.30432e-05 0 3.37359e-07 -1.29436e-05 0 3.28868e-07 -1.28479e-05 0 3.19774e-07 -1.27521e-05 0 3.10107e-07 -1.26661e-05 0 2.99941e-07 -1.25833e-05 0 2.8928e-07 -1.25005e-05 0 2.78154e-07 -1.24273e-05 0 2.66624e-07 -1.23569e-05 0 2.54693e-07 -1.22864e-05 0 2.42388e-07 -1.22255e-05 0 2.29762e-07 -1.21667e-05 0 2.16816e-07 -1.2108e-05 0 2.03576e-07 -1.20588e-05 0 1.90087e-07 -1.20114e-05 0 1.7635e-07 -1.19639e-05 0 1.62388e-07 -1.1926e-05 0 1.4824e-07 -1.18895e-05 0 1.33908e-07 -1.1853e-05 0 1.19413e-07 -1.18261e-05 0 1.0479e-07 -1.18002e-05 0 9.00397e-08 -1.17744e-05 0 7.51841e-08 -1.17583e-05 0 6.02532e-08 -1.17428e-05 0 4.52471e-08 -1.17274e-05 0 3.01895e-08 -1.17219e-05 0 1.51072e-08 -1.17168e-05 0 0 -1.17116e-05 0 -4.2315e-06 -4.08379e-05 0 -4.03602e-06 -4.00832e-05 0 -3.8222e-06 -3.93286e-05 0 -3.59005e-06 -3.8574e-05 0 -3.36119e-06 -3.78226e-05 0 -3.15477e-06 -3.70713e-05 0 -2.97075e-06 -3.63189e-05 0 -2.79701e-06 -3.55517e-05 0 -2.62402e-06 -3.47845e-05 0 -2.45179e-06 -3.40204e-05 0 -2.28234e-06 -3.32867e-05 0 -2.11706e-06 -3.25529e-05 0 -1.95596e-06 -3.1825e-05 0 -1.799e-06 -3.11376e-05 0 -1.64615e-06 -3.04501e-05 0 -1.49743e-06 -2.97711e-05 0 -1.35383e-06 -2.91372e-05 0 -1.2159e-06 -2.85033e-05 0 -1.08364e-06 -2.78794e-05 0 -9.57199e-07 -2.72987e-05 0 -8.36631e-07 -2.67179e-05 0 -7.21939e-07 -2.61483e-05 0 -6.13109e-07 -2.56185e-05 0 -5.10133e-07 -2.50887e-05 0 -4.12999e-07 -2.45709e-05 0 -3.2144e-07 -2.40887e-05 0 -2.35347e-07 -2.36065e-05 0 -1.54699e-07 -2.31367e-05 0 -7.91505e-08 -2.26985e-05 0 -8.57239e-09 -2.22603e-05 0 5.70621e-08 -2.18348e-05 0 1.18149e-07 -2.1437e-05 0 1.74819e-07 -2.10392e-05 0 2.27105e-07 -2.06541e-05 0 2.75404e-07 -2.02933e-05 0 3.19833e-07 -1.99325e-05 0 3.60429e-07 -1.95843e-05 0 3.97571e-07 -1.92573e-05 0 4.31361e-07 -1.89303e-05 0 4.61838e-07 -1.86158e-05 0 4.89351e-07 -1.83196e-05 0 5.13983e-07 -1.80235e-05 0 5.35776e-07 -1.77396e-05 0 5.55043e-07 -1.74717e-05 0 5.71852e-07 -1.72037e-05 0 5.86244e-07 -1.69479e-05 0 5.98497e-07 -1.67057e-05 0 6.08665e-07 -1.64636e-05 0 6.16786e-07 -1.62333e-05 0 6.23106e-07 -1.60148e-05 0 6.27665e-07 -1.57963e-05 0 6.30501e-07 -1.55893e-05 0 6.31826e-07 -1.53926e-05 0 6.3167e-07 -1.51958e-05 0 6.30072e-07 -1.50103e-05 0 6.27212e-07 -1.48335e-05 0 6.23112e-07 -1.46567e-05 0 6.17809e-07 -1.44909e-05 0 6.11456e-07 -1.43326e-05 0 6.04071e-07 -1.41743e-05 0 5.95687e-07 -1.40267e-05 0 5.86433e-07 -1.38855e-05 0 5.76323e-07 -1.37442e-05 0 5.65388e-07 -1.36135e-05 0 5.53737e-07 -1.34881e-05 0 5.41377e-07 -1.33628e-05 0 5.2834e-07 -1.32477e-05 0 5.14716e-07 -1.31372e-05 0 5.00511e-07 -1.30267e-05 0 4.85752e-07 -1.29262e-05 0 4.70514e-07 -1.28297e-05 0 4.54802e-07 -1.27331e-05 0 4.38642e-07 -1.26464e-05 0 4.22095e-07 -1.25629e-05 0 4.05164e-07 -1.24795e-05 0 3.87873e-07 -1.24058e-05 0 3.70272e-07 -1.23348e-05 0 3.52365e-07 -1.22637e-05 0 3.34172e-07 -1.22024e-05 0 3.15735e-07 -1.21432e-05 0 2.97057e-07 -1.20841e-05 0 2.78157e-07 -1.20345e-05 0 2.5907e-07 -1.19868e-05 0 2.39797e-07 -1.1939e-05 0 2.20356e-07 -1.19009e-05 0 2.00778e-07 -1.18641e-05 0 1.81062e-07 -1.18274e-05 0 1.61227e-07 -1.18003e-05 0 1.41297e-07 -1.17742e-05 0 1.21272e-07 -1.17482e-05 0 1.01171e-07 -1.1732e-05 0 8.10142e-08 -1.17164e-05 0 6.08026e-08 -1.17009e-05 0 4.05532e-08 -1.16954e-05 0 2.02856e-08 -1.16902e-05 0 0 -1.16851e-05 0 -3.12294e-06 -4.11641e-05 0 -2.87706e-06 -4.0419e-05 0 -2.63674e-06 -3.9674e-05 0 -2.40199e-06 -3.89277e-05 0 -2.18068e-06 -3.81442e-05 0 -1.97974e-06 -3.73607e-05 0 -1.79915e-06 -3.6578e-05 0 -1.63079e-06 -3.58058e-05 0 -1.46828e-06 -3.50337e-05 0 -1.31161e-06 -3.42644e-05 0 -1.16086e-06 -3.3523e-05 0 -1.01607e-06 -3.27817e-05 0 -8.77239e-07 -3.20462e-05 0 -7.43961e-07 -3.13517e-05 0 -6.15989e-07 -3.06572e-05 0 -4.93328e-07 -2.99709e-05 0 -3.7627e-07 -2.93284e-05 0 -2.64982e-07 -2.8686e-05 0 -1.5946e-07 -2.80534e-05 0 -5.96074e-08 -2.74641e-05 0 3.46241e-08 -2.68747e-05 0 1.23241e-07 -2.62965e-05 0 2.06425e-07 -2.57583e-05 0 2.8426e-07 -2.52201e-05 0 3.56758e-07 -2.4694e-05 0 4.24241e-07 -2.42041e-05 0 4.86839e-07 -2.37141e-05 0 5.44573e-07 -2.32368e-05 0 5.97808e-07 -2.27916e-05 0 6.46676e-07 -2.23464e-05 0 6.91205e-07 -2.19141e-05 0 7.31778e-07 -2.15101e-05 0 7.68523e-07 -2.11062e-05 0 8.01469e-07 -2.07152e-05 0 8.30991e-07 -2.0349e-05 0 8.57198e-07 -1.99828e-05 0 8.80125e-07 -1.96295e-05 0 9.0012e-07 -1.92978e-05 0 9.17276e-07 -1.89662e-05 0 9.31629e-07 -1.86473e-05 0 9.43497e-07 -1.83472e-05 0 9.52953e-07 -1.8047e-05 0 9.60036e-07 -1.77595e-05 0 9.65026e-07 -1.74882e-05 0 9.67984e-07 -1.72169e-05 0 9.68947e-07 -1.69579e-05 0 9.6816e-07 -1.67129e-05 0 9.65672e-07 -1.64679e-05 0 9.61517e-07 -1.6235e-05 0 9.55909e-07 -1.60141e-05 0 9.48884e-07 -1.57933e-05 0 9.40476e-07 -1.55841e-05 0 9.30868e-07 -1.53854e-05 0 9.20087e-07 -1.51866e-05 0 9.08165e-07 -1.49993e-05 0 8.95258e-07 -1.48209e-05 0 8.81384e-07 -1.46424e-05 0 8.66576e-07 -1.44751e-05 0 8.50963e-07 -1.43155e-05 0 8.34559e-07 -1.41558e-05 0 8.17393e-07 -1.40069e-05 0 7.99573e-07 -1.38646e-05 0 7.8111e-07 -1.37222e-05 0 7.6203e-07 -1.35905e-05 0 7.42423e-07 -1.34642e-05 0 7.22296e-07 -1.3338e-05 0 7.01672e-07 -1.32221e-05 0 6.80626e-07 -1.31108e-05 0 6.59162e-07 -1.29996e-05 0 6.37302e-07 -1.28985e-05 0 6.15105e-07 -1.28013e-05 0 5.92576e-07 -1.27041e-05 0 5.69734e-07 -1.26169e-05 0 5.46626e-07 -1.2533e-05 0 5.23256e-07 -1.2449e-05 0 4.9964e-07 -1.23749e-05 0 4.75818e-07 -1.23035e-05 0 4.5179e-07 -1.22321e-05 0 4.27573e-07 -1.21704e-05 0 4.03197e-07 -1.2111e-05 0 3.78664e-07 -1.20515e-05 0 3.53986e-07 -1.20017e-05 0 3.2919e-07 -1.19537e-05 0 3.04275e-07 -1.19058e-05 0 2.79254e-07 -1.18674e-05 0 2.54148e-07 -1.18305e-05 0 2.28955e-07 -1.17936e-05 0 2.03688e-07 -1.17664e-05 0 1.78363e-07 -1.17402e-05 0 1.52981e-07 -1.17141e-05 0 1.27551e-07 -1.16978e-05 0 1.02088e-07 -1.16822e-05 0 7.6591e-08 -1.16666e-05 0 5.10716e-08 -1.16611e-05 0 2.55413e-08 -1.16559e-05 0 0 -1.16507e-05 0 -2.01438e-06 -4.15838e-05 0 -1.71809e-06 -4.08125e-05 0 -1.45128e-06 -4.00412e-05 0 -1.21394e-06 -3.92685e-05 0 -1.00016e-06 -3.8456e-05 0 -8.04701e-07 -3.76435e-05 0 -6.27546e-07 -3.68327e-05 0 -4.64574e-07 -3.6048e-05 0 -3.12543e-07 -3.52633e-05 0 -1.71438e-07 -3.44816e-05 0 -3.93907e-08 -3.373e-05 0 8.49123e-08 -3.29784e-05 0 2.01481e-07 -3.22328e-05 0 3.11074e-07 -3.15294e-05 0 4.14168e-07 -3.08261e-05 0 5.10772e-07 -3.01309e-05 0 6.01286e-07 -2.94797e-05 0 6.85933e-07 -2.88285e-05 0 7.64724e-07 -2.81874e-05 0 8.37984e-07 -2.75898e-05 0 9.05879e-07 -2.69922e-05 0 9.68422e-07 -2.64059e-05 0 1.02596e-06 -2.586e-05 0 1.07865e-06 -2.53142e-05 0 1.12652e-06 -2.47806e-05 0 1.16992e-06 -2.42838e-05 0 1.20903e-06 -2.3787e-05 0 1.24385e-06 -2.3303e-05 0 1.27477e-06 -2.28517e-05 0 1.30192e-06 -2.24004e-05 0 1.32535e-06 -2.19622e-05 0 1.34541e-06 -2.1553e-05 0 1.36223e-06 -2.11437e-05 0 1.37583e-06 -2.07477e-05 0 1.38658e-06 -2.03769e-05 0 1.39456e-06 -2.00061e-05 0 1.39982e-06 -1.96486e-05 0 1.40267e-06 -1.9313e-05 0 1.40319e-06 -1.89775e-05 0 1.40142e-06 -1.8655e-05 0 1.39764e-06 -1.83516e-05 0 1.39192e-06 -1.80482e-05 0 1.3843e-06 -1.77577e-05 0 1.37501e-06 -1.74836e-05 0 1.36412e-06 -1.72096e-05 0 1.35165e-06 -1.69481e-05 0 1.33782e-06 -1.67008e-05 0 1.32268e-06 -1.64536e-05 0 1.30625e-06 -1.62186e-05 0 1.28871e-06 -1.59958e-05 0 1.2701e-06 -1.57731e-05 0 1.25045e-06 -1.55623e-05 0 1.22991e-06 -1.5362e-05 0 1.2085e-06 -1.51617e-05 0 1.18626e-06 -1.4973e-05 0 1.1633e-06 -1.47933e-05 0 1.13966e-06 -1.46137e-05 0 1.11534e-06 -1.44453e-05 0 1.09047e-06 -1.42846e-05 0 1.06505e-06 -1.41239e-05 0 1.0391e-06 -1.39742e-05 0 1.01271e-06 -1.3831e-05 0 9.85897e-07 -1.36879e-05 0 9.58673e-07 -1.35554e-05 0 9.3111e-07 -1.34285e-05 0 9.03214e-07 -1.33016e-05 0 8.75004e-07 -1.31852e-05 0 8.46535e-07 -1.30734e-05 0 8.17813e-07 -1.29617e-05 0 7.88852e-07 -1.28601e-05 0 7.59697e-07 -1.27626e-05 0 7.3035e-07 -1.2665e-05 0 7.00826e-07 -1.25775e-05 0 6.71158e-07 -1.24932e-05 0 6.41348e-07 -1.2409e-05 0 6.11408e-07 -1.23346e-05 0 5.81363e-07 -1.2263e-05 0 5.51215e-07 -1.21914e-05 0 5.20974e-07 -1.21295e-05 0 4.90659e-07 -1.20699e-05 0 4.6027e-07 -1.20102e-05 0 4.29816e-07 -1.19603e-05 0 3.9931e-07 -1.19122e-05 0 3.68754e-07 -1.18641e-05 0 3.38153e-07 -1.18257e-05 0 3.07517e-07 -1.17887e-05 0 2.76848e-07 -1.17516e-05 0 2.4615e-07 -1.17244e-05 0 2.1543e-07 -1.16982e-05 0 1.84689e-07 -1.1672e-05 0 1.53931e-07 -1.16557e-05 0 1.23161e-07 -1.164e-05 0 9.23795e-08 -1.16244e-05 0 6.159e-08 -1.16188e-05 0 3.07969e-08 -1.16136e-05 0 0 -1.16084e-05 0 -8.77191e-07 -4.20965e-05 0 -5.38069e-07 -4.12632e-05 0 -2.49413e-07 -4.043e-05 0 -1.12088e-08 -3.95965e-05 0 1.94386e-07 -3.8758e-05 0 3.83159e-07 -3.79195e-05 0 5.55112e-07 -3.70831e-05 0 7.10923e-07 -3.62782e-05 0 8.51127e-07 -3.54733e-05 0 9.7575e-07 -3.46721e-05 0 1.08839e-06 -3.39075e-05 0 1.19159e-06 -3.31429e-05 0 1.28534e-06 -3.23847e-05 0 1.37079e-06 -3.16707e-05 0 1.44864e-06 -3.09567e-05 0 1.51891e-06 -3.02512e-05 0 1.58266e-06 -2.95911e-05 0 1.64045e-06 -2.89311e-05 0 1.69232e-06 -2.82813e-05 0 1.73881e-06 -2.76758e-05 0 1.78021e-06 -2.70703e-05 0 1.81653e-06 -2.64764e-05 0 1.84828e-06 -2.59237e-05 0 1.8757e-06 -2.53709e-05 0 1.89879e-06 -2.48307e-05 0 1.91799e-06 -2.43278e-05 0 1.93348e-06 -2.3825e-05 0 1.94527e-06 -2.33352e-05 0 1.95376e-06 -2.28787e-05 0 1.95909e-06 -2.24223e-05 0 1.9613e-06 -2.19792e-05 0 1.96075e-06 -2.15655e-05 0 1.95754e-06 -2.11518e-05 0 1.95171e-06 -2.07516e-05 0 1.94359e-06 -2.03771e-05 0 1.93326e-06 -2.00026e-05 0 1.92077e-06 -1.96415e-05 0 1.90639e-06 -1.93029e-05 0 1.8902e-06 -1.89642e-05 0 1.87223e-06 -1.86389e-05 0 1.85274e-06 -1.83329e-05 0 1.83178e-06 -1.8027e-05 0 1.80938e-06 -1.77341e-05 0 1.78576e-06 -1.74579e-05 0 1.76096e-06 -1.71818e-05 0 1.73501e-06 -1.69184e-05 0 1.70809e-06 -1.66694e-05 0 1.68025e-06 -1.64205e-05 0 1.65149e-06 -1.6184e-05 0 1.62199e-06 -1.59599e-05 0 1.59176e-06 -1.57358e-05 0 1.56082e-06 -1.55238e-05 0 1.52932e-06 -1.53224e-05 0 1.49725e-06 -1.51211e-05 0 1.46465e-06 -1.49315e-05 0 1.43162e-06 -1.4751e-05 0 1.39818e-06 -1.45705e-05 0 1.36433e-06 -1.44013e-05 0 1.33018e-06 -1.424e-05 0 1.29572e-06 -1.40787e-05 0 1.26097e-06 -1.39284e-05 0 1.226e-06 -1.37848e-05 0 1.19081e-06 -1.36412e-05 0 1.15543e-06 -1.35083e-05 0 1.11989e-06 -1.3381e-05 0 1.08422e-06 -1.32538e-05 0 1.04841e-06 -1.3137e-05 0 1.01251e-06 -1.3025e-05 0 9.76518e-07 -1.2913e-05 0 9.40447e-07 -1.28113e-05 0 9.04325e-07 -1.27135e-05 0 8.68154e-07 -1.26158e-05 0 8.31942e-07 -1.25281e-05 0 7.95708e-07 -1.24437e-05 0 7.59453e-07 -1.23594e-05 0 7.23184e-07 -1.22849e-05 0 6.86914e-07 -1.22132e-05 0 6.50643e-07 -1.21415e-05 0 6.14375e-07 -1.20796e-05 0 5.78118e-07 -1.20199e-05 0 5.41872e-07 -1.19602e-05 0 5.05639e-07 -1.19103e-05 0 4.69423e-07 -1.18622e-05 0 4.33224e-07 -1.1814e-05 0 3.97043e-07 -1.17756e-05 0 3.60879e-07 -1.17386e-05 0 3.24733e-07 -1.17015e-05 0 2.88604e-07 -1.16743e-05 0 2.5249e-07 -1.16481e-05 0 2.16391e-07 -1.16218e-05 0 1.80305e-07 -1.16055e-05 0 1.4423e-07 -1.15899e-05 0 1.08164e-07 -1.15742e-05 0 7.21061e-08 -1.15687e-05 0 3.60513e-08 -1.15635e-05 0 0 -1.15583e-05 0 5.36735e-07 -4.26175e-05 0 8.45457e-07 -4.1714e-05 0 1.11102e-06 -4.08105e-05 0 1.33343e-06 -3.99081e-05 0 1.52457e-06 -3.90415e-05 0 1.69497e-06 -3.81748e-05 0 1.84464e-06 -3.73105e-05 0 1.97613e-06 -3.64818e-05 0 2.09149e-06 -3.5653e-05 0 2.19073e-06 -3.48289e-05 0 2.2772e-06 -3.40494e-05 0 2.35324e-06 -3.32699e-05 0 2.41888e-06 -3.24972e-05 0 2.47572e-06 -3.17717e-05 0 2.52479e-06 -3.10462e-05 0 2.56611e-06 -3.03295e-05 0 2.60089e-06 -2.96606e-05 0 2.62982e-06 -2.89917e-05 0 2.65291e-06 -2.83333e-05 0 2.67094e-06 -2.77205e-05 0 2.68427e-06 -2.71077e-05 0 2.69294e-06 -2.65067e-05 0 2.69755e-06 -2.59479e-05 0 2.69836e-06 -2.53891e-05 0 2.69542e-06 -2.4843e-05 0 2.68918e-06 -2.4335e-05 0 2.67985e-06 -2.38271e-05 0 2.66746e-06 -2.33324e-05 0 2.6524e-06 -2.28717e-05 0 2.63484e-06 -2.2411e-05 0 2.61479e-06 -2.19639e-05 0 2.59262e-06 -2.15467e-05 0 2.56842e-06 -2.11295e-05 0 2.54223e-06 -2.0726e-05 0 2.51434e-06 -2.03486e-05 0 2.48486e-06 -1.99713e-05 0 2.45379e-06 -1.96076e-05 0 2.42141e-06 -1.92667e-05 0 2.38777e-06 -1.89257e-05 0 2.3529e-06 -1.85983e-05 0 2.31703e-06 -1.82905e-05 0 2.28019e-06 -1.79827e-05 0 2.24242e-06 -1.76882e-05 0 2.20389e-06 -1.74106e-05 0 2.16464e-06 -1.7133e-05 0 2.1247e-06 -1.68684e-05 0 2.08422e-06 -1.66184e-05 0 2.04322e-06 -1.63683e-05 0 2.00172e-06 -1.61309e-05 0 1.95984e-06 -1.5906e-05 0 1.91761e-06 -1.56811e-05 0 1.87505e-06 -1.54684e-05 0 1.83224e-06 -1.52664e-05 0 1.78921e-06 -1.50645e-05 0 1.74597e-06 -1.48744e-05 0 1.7026e-06 -1.46935e-05 0 1.6591e-06 -1.45125e-05 0 1.6155e-06 -1.43431e-05 0 1.57184e-06 -1.41815e-05 0 1.52814e-06 -1.40199e-05 0 1.4844e-06 -1.38695e-05 0 1.44068e-06 -1.37257e-05 0 1.39696e-06 -1.35819e-05 0 1.35327e-06 -1.34489e-05 0 1.30963e-06 -1.33216e-05 0 1.26605e-06 -1.31943e-05 0 1.22253e-06 -1.30775e-05 0 1.1791e-06 -1.29655e-05 0 1.13575e-06 -1.28535e-05 0 1.09248e-06 -1.27518e-05 0 1.04932e-06 -1.26541e-05 0 1.00625e-06 -1.25564e-05 0 9.6329e-07 -1.24687e-05 0 9.20436e-07 -1.23844e-05 0 8.77689e-07 -1.23002e-05 0 8.35049e-07 -1.22258e-05 0 7.92517e-07 -1.21541e-05 0 7.50092e-07 -1.20825e-05 0 7.07771e-07 -1.20207e-05 0 6.65551e-07 -1.19611e-05 0 6.2343e-07 -1.19015e-05 0 5.81406e-07 -1.18516e-05 0 5.39469e-07 -1.18036e-05 0 4.97621e-07 -1.17555e-05 0 4.55855e-07 -1.17172e-05 0 4.14161e-07 -1.16802e-05 0 3.7254e-07 -1.16432e-05 0 3.30983e-07 -1.1616e-05 0 2.8948e-07 -1.15899e-05 0 2.48031e-07 -1.15637e-05 0 2.06626e-07 -1.15474e-05 0 1.65254e-07 -1.15318e-05 0 1.23915e-07 -1.15162e-05 0 8.25989e-08 -1.15107e-05 0 4.12939e-08 -1.15055e-05 0 0 -1.15003e-05 0 1.95066e-06 -4.30874e-05 0 2.22898e-06 -4.21247e-05 0 2.47145e-06 -4.11619e-05 0 2.67806e-06 -4.02011e-05 0 2.85476e-06 -3.93003e-05 0 3.00679e-06 -3.83996e-05 0 3.13416e-06 -3.75018e-05 0 3.24135e-06 -3.66485e-05 0 3.33185e-06 -3.57951e-05 0 3.40571e-06 -3.49471e-05 0 3.466e-06 -3.41513e-05 0 3.51489e-06 -3.33554e-05 0 3.55241e-06 -3.25669e-05 0 3.58066e-06 -3.18296e-05 0 3.60095e-06 -3.10923e-05 0 3.61331e-06 -3.03643e-05 0 3.61913e-06 -2.96867e-05 0 3.61918e-06 -2.90091e-05 0 3.6135e-06 -2.83424e-05 0 3.60306e-06 -2.77228e-05 0 3.58833e-06 -2.71033e-05 0 3.56935e-06 -2.64959e-05 0 3.54681e-06 -2.59318e-05 0 3.52103e-06 -2.53677e-05 0 3.49204e-06 -2.48166e-05 0 3.46036e-06 -2.43045e-05 0 3.42622e-06 -2.37924e-05 0 3.38965e-06 -2.32938e-05 0 3.35105e-06 -2.28298e-05 0 3.31059e-06 -2.23658e-05 0 3.26829e-06 -2.19156e-05 0 3.22448e-06 -2.14959e-05 0 3.1793e-06 -2.10761e-05 0 3.13274e-06 -2.06703e-05 0 3.0851e-06 -2.0291e-05 0 3.03645e-06 -1.99117e-05 0 2.98682e-06 -1.95463e-05 0 2.93643e-06 -1.92039e-05 0 2.88534e-06 -1.88615e-05 0 2.83358e-06 -1.85327e-05 0 2.78131e-06 -1.82239e-05 0 2.728