<?xml version="1.0"?> 
<VTKFile type="StructuredGrid" version="0.1"> 
<StructuredGrid WholeExtent="0 95 0 95 0 0"> 
<Piece Extent="0 95 0 95 0 0"> 
<PointData>
<DataArray type="Float32" Name="B" format="ascii" NumberOfComponents="3"> 
0 7.24647e-05 0 -1.2861e-06 7.24174e-05 0 -2.57588e-06 7.23701e-05 0 -3.86936e-06 7.23193e-05 0 -5.17065e-06 7.21626e-05 0 -6.48342e-06 7.20059e-05 0 -7.80767e-06 7.184e-05 0 -9.14323e-06 7.15345e-05 0 -1.049e-05 7.12291e-05 0 -1.1848e-05 7.09043e-05 0 -1.32172e-05 7.03928e-05 0 -1.45977e-05 6.98813e-05 0 -1.59893e-05 6.93374e-05 0 -1.73785e-05 6.85669e-05 0 -1.87568e-05 6.77965e-05 0 -2.01243e-05 6.69805e-05 0 -2.14767e-05 6.59187e-05 0 -2.28117e-05 6.48569e-05 0 -2.41291e-05 6.37424e-05 0 -2.54152e-05 6.23992e-05 0 -2.66632e-05 6.1056e-05 0 -2.78728e-05 5.96608e-05 0 -2.90358e-05 5.80797e-05 0 -3.01486e-05 5.64986e-05 0 -3.12111e-05 5.48738e-05 0 -3.22201e-05 5.31178e-05 0 -3.31746e-05 5.13617e-05 0 -3.40744e-05 4.95742e-05 0 -3.49194e-05 4.7706e-05 0 -3.57094e-05 4.58378e-05 0 -3.64445e-05 4.39508e-05 0 -3.71274e-05 4.20221e-05 0 -3.77589e-05 4.00934e-05 0 -3.83392e-05 3.81568e-05 0 -3.88716e-05 3.6205e-05 0 -3.93572e-05 3.42531e-05 0 -3.97962e-05 3.23015e-05 0 -4.01923e-05 3.03502e-05 0 -4.05462e-05 2.8399e-05 0 -4.08585e-05 2.64534e-05 0 -4.11319e-05 2.4516e-05 0 -4.13674e-05 2.25787e-05 0 -4.1565e-05 2.06499e-05 0 -4.17272e-05 1.87321e-05 0 -4.18542e-05 1.68143e-05 0 -4.19464e-05 1.49062e-05 0 -4.20049e-05 1.3009e-05 0 -4.203e-05 1.11119e-05 0 -4.20218e-05 9.22452e-06 0 -4.19804e-05 7.34692e-06 0 -4.1906e-05 5.46932e-06 0 -4.17983e-05 3.60162e-06 0 -4.16567e-05 1.74265e-06 0 -4.1481e-05 -1.16314e-07 0 -4.12709e-05 -1.96391e-06 0 -4.10247e-05 -3.80266e-06 0 -4.07422e-05 -5.64141e-06 0 -4.04229e-05 -7.46428e-06 0 -4.00643e-05 -9.27628e-06 0 -3.96663e-05 -1.10883e-05 0 -3.9228e-05 -1.28746e-05 0 -3.87466e-05 -1.46455e-05 0 -3.82219e-05 -1.64165e-05 0 -3.76532e-05 -1.8144e-05 0 -3.7038e-05 -1.98489e-05 0 -3.63762e-05 -2.15537e-05 0 -3.5667e-05 -2.31866e-05 0 -3.49092e-05 -2.47868e-05 0 -3.41024e-05 -2.6387e-05 0 -3.32473e-05 -2.78744e-05 0 -3.23456e-05 -2.93176e-05 0 -3.13972e-05 -3.07608e-05 0 -3.0404e-05 -3.20386e-05 0 -2.93699e-05 -3.32612e-05 0 -2.82952e-05 -3.44838e-05 0 -2.71848e-05 -3.5487e-05 0 -2.60492e-05 -3.64288e-05 0 -2.48889e-05 -3.73706e-05 0 -2.37106e-05 -3.80485e-05 0 -2.25279e-05 -3.86656e-05 0 -2.13411e-05 -3.92826e-05 0 -2.01565e-05 -3.96329e-05 0 -1.89853e-05 -3.99337e-05 0 -1.78278e-05 -4.02345e-05 0 -1.66861e-05 -4.02777e-05 0 -1.55635e-05 -4.0284e-05 0 -1.44601e-05 -4.02904e-05 0 -1.33975e-05 -4.01728e-05 0 -1.24064e-05 -4.00423e-05 0 -1.14871e-05 -3.99119e-05 0 -1.05795e-05 -3.96108e-05 0 -9.60734e-06 -3.92984e-05 0 -8.57043e-06 -3.8986e-05 0 -7.7532e-06 -3.95894e-05 0 -7.47714e-06 -4.02223e-05 0 -7.74254e-06 -4.08552e-05 0 0 7.37616e-05 0 -1.31253e-06 7.37191e-05 0 -2.63099e-06 7.36766e-05 0 -3.95539e-06 7.3631e-05 0 -5.29131e-06 7.34882e-05 0 -6.64369e-06 7.33455e-05 0 -8.01252e-06 7.31936e-05 0 -9.40004e-06 7.2904e-05 0 -1.0808e-05 7.26144e-05 0 -1.22364e-05 7.23053e-05 0 -1.36829e-05 7.18076e-05 0 -1.51459e-05 7.131e-05 0 -1.66252e-05 7.07775e-05 0 -1.81104e-05 7.00013e-05 0 -1.9595e-05 6.9225e-05 0 -2.10785e-05 6.84011e-05 0 -2.25475e-05 6.73196e-05 0 -2.39945e-05 6.6238e-05 0 -2.54189e-05 6.50997e-05 0 -2.68061e-05 6.37151e-05 0 -2.81486e-05 6.23306e-05 0 -2.94462e-05 6.08911e-05 0 -3.06895e-05 5.92557e-05 0 -3.18744e-05 5.76203e-05 0 -3.30007e-05 5.594e-05 0 -3.40652e-05 5.41251e-05 0 -3.50666e-05 5.23102e-05 0 -3.60049e-05 5.0464e-05 0 -3.68814e-05 4.85377e-05 0 -3.76966e-05 4.66113e-05 0 -3.84508e-05 4.46675e-05 0 -3.91477e-05 4.26852e-05 0 -3.97888e-05 4.07029e-05 0 -4.03743e-05 3.87144e-05 0 -4.0909e-05 3.67144e-05 0 -4.13942e-05 3.47144e-05 0 -4.18303e-05 3.27167e-05 0 -4.22219e-05 3.07227e-05 0 -4.25701e-05 2.87287e-05 0 -4.28753e-05 2.67422e-05 0 -4.31412e-05 2.47666e-05 0 -4.33687e-05 2.2791e-05 0 -4.35581e-05 2.08254e-05 0 -4.3712e-05 1.88726e-05 0 -4.38309e-05 1.69198e-05 0 -4.39152e-05 1.49775e-05 0 -4.39661e-05 1.30472e-05 0 -4.39841e-05 1.11168e-05 0 -4.39691e-05 9.19641e-06 0 -4.39214e-05 7.28593e-06 0 -4.3841e-05 5.37544e-06 0 -4.37277e-05 3.47425e-06 0 -4.35805e-05 1.58126e-06 0 -4.33994e-05 -3.11733e-07 0 -4.31839e-05 -2.19477e-06 0 -4.29318e-05 -4.07007e-06 0 -4.26429e-05 -5.94537e-06 0 -4.23164e-05 -7.80697e-06 0 -4.19494e-05 -9.6592e-06 0 -4.15414e-05 -1.15114e-05 0 -4.10915e-05 -1.33408e-05 0 -4.05958e-05 -1.51564e-05 0 -4.0054e-05 -1.6972e-05 0 -3.9465e-05 -1.87471e-05 0 -3.88249e-05 -2.0501e-05 0 -3.81336e-05 -2.22549e-05 0 -3.73899e-05 -2.39389e-05 0 -3.6591e-05 -2.55912e-05 0 -3.57368e-05 -2.72436e-05 0 -3.48272e-05 -2.87822e-05 0 -3.38624e-05 -3.02764e-05 0 -3.28422e-05 -3.17705e-05 0 -3.17686e-05 -3.30945e-05 0 -3.06462e-05 -3.43618e-05 0 -2.94751e-05 -3.5629e-05 0 -2.82608e-05 -3.66639e-05 0 -2.70146e-05 -3.76337e-05 0 -2.57371e-05 -3.86035e-05 0 -2.44362e-05 -3.92913e-05 0 -2.31277e-05 -3.9914e-05 0 -2.1812e-05 -4.05367e-05 0 -2.04999e-05 -4.08723e-05 0 -1.92105e-05 -4.11547e-05 0 -1.79443e-05 -4.14372e-05 0 -1.67053e-05 -4.14549e-05 0 -1.54999e-05 -4.14348e-05 0 -1.43283e-05 -4.14147e-05 0 -1.32074e-05 -4.12281e-05 0 -1.21612e-05 -4.10243e-05 0 -1.119e-05 -4.08205e-05 0 -1.02622e-05 -4.05438e-05 0 -9.33763e-06 -4.02622e-05 0 -8.41617e-06 -3.99806e-05 0 -7.69824e-06 -4.01143e-05 0 -7.41036e-06 -4.02614e-05 0 -7.55274e-06 -4.04084e-05 0 0 7.50838e-05 0 -1.33896e-06 7.50484e-05 0 -2.68611e-06 7.50129e-05 0 -4.04143e-06 7.49747e-05 0 -5.41197e-06 7.48509e-05 0 -6.80395e-06 7.47271e-05 0 -8.21738e-06 7.45946e-05 0 -9.65686e-06 7.433e-05 0 -1.1126e-05 7.40655e-05 0 -1.26248e-05 7.37809e-05 0 -1.41486e-05 7.33023e-05 0 -1.56941e-05 7.28237e-05 0 -1.72612e-05 7.23085e-05 0 -1.88424e-05 7.15367e-05 0 -2.04331e-05 7.07648e-05 0 -2.20327e-05 6.99407e-05 0 -2.36184e-05 6.88347e-05 0 -2.51772e-05 6.77286e-05 0 -2.67087e-05 6.65614e-05 0 -2.81969e-05 6.51289e-05 0 -2.9634e-05 6.36964e-05 0 -3.10195e-05 6.22059e-05 0 -3.23431e-05 6.05079e-05 0 -3.36001e-05 5.881e-05 0 -3.47904e-05 5.7066e-05 0 -3.59104e-05 5.51837e-05 0 -3.69587e-05 5.33013e-05 0 -3.79354e-05 5.13885e-05 0 -3.88435e-05 4.93977e-05 0 -3.96839e-05 4.74069e-05 0 -4.0457e-05 4.54006e-05 0 -4.1168e-05 4.33601e-05 0 -4.18186e-05 4.13197e-05 0 -4.24094e-05 3.92756e-05 0 -4.29464e-05 3.72248e-05 0 -4.34312e-05 3.5174e-05 0 -4.38645e-05 3.3128e-05 0 -4.42516e-05 3.109e-05 0 -4.4594e-05 2.9052e-05 0 -4.48922e-05 2.70236e-05 0 -4.51505e-05 2.50094e-05 0 -4.537e-05 2.29952e-05 0 -4.55511e-05 2.09926e-05 0 -4.56967e-05 1.90049e-05 0 -4.58076e-05 1.70173e-05 0 -4.5884e-05 1.50412e-05 0 -4.59274e-05 1.3078e-05 0 -4.59382e-05 1.11148e-05 0 -4.59165e-05 9.16176e-06 0 -4.58624e-05 7.21877e-06 0 -4.5776e-05 5.27577e-06 0 -4.56571e-05 3.34131e-06 0 -4.55044e-05 1.41438e-06 0 -4.53178e-05 -5.12556e-07 0 -4.50968e-05 -2.43129e-06 0 -4.48388e-05 -4.34364e-06 0 -4.45435e-05 -6.25599e-06 0 -4.421e-05 -8.1574e-06 0 -4.38345e-05 -1.00513e-05 0 -4.34166e-05 -1.19452e-05 0 -4.2955e-05 -1.38199e-05 0 -4.2445e-05 -1.5683e-05 0 -4.18861e-05 -1.75461e-05 0 -4.12767e-05 -1.93728e-05 0 -4.06118e-05 -2.11803e-05 0 -3.9891e-05 -2.29878e-05 0 -3.91127e-05 -2.4729e-05 0 -3.82729e-05 -2.64399e-05 0 -3.73712e-05 -2.81508e-05 0 -3.64071e-05 -2.97488e-05 0 -3.53791e-05 -3.13026e-05 0 -3.42871e-05 -3.28565e-05 0 -3.31332e-05 -3.42348e-05 0 -3.19224e-05 -3.55546e-05 0 -3.06551e-05 -3.68745e-05 0 -2.93368e-05 -3.7948e-05 0 -2.798e-05 -3.89525e-05 0 -2.65853e-05 -3.9957e-05 0 -2.51617e-05 -4.06584e-05 0 -2.37274e-05 -4.12898e-05 0 -2.22828e-05 -4.19212e-05 0 -2.08432e-05 -4.22347e-05 0 -1.94357e-05 -4.24892e-05 0 -1.80608e-05 -4.27438e-05 0 -1.67245e-05 -4.27221e-05 0 -1.54363e-05 -4.2661e-05 0 -1.41965e-05 -4.25999e-05 0 -1.30172e-05 -4.23401e-05 0 -1.1916e-05 -4.20597e-05 0 -1.0893e-05 -4.17793e-05 0 -9.94494e-06 -4.14631e-05 0 -9.06792e-06 -4.11445e-05 0 -8.26191e-06 -4.08259e-05 0 -7.64328e-06 -4.05954e-05 0 -7.34359e-06 -4.03678e-05 0 -7.36294e-06 -4.01402e-05 0 0 7.64314e-05 0 -1.3648e-06 7.64052e-05 0 -2.74002e-06 7.63791e-05 0 -4.12566e-06 7.63506e-05 0 -5.53029e-06 7.62507e-05 0 -6.96146e-06 7.61509e-05 0 -8.4192e-06 7.60429e-05 0 -9.91044e-06 7.58126e-05 0 -1.14406e-05 7.55824e-05 0 -1.30097e-05 7.53311e-05 0 -1.4611e-05 7.48769e-05 0 -1.62396e-05 7.44227e-05 0 -1.78956e-05 7.39305e-05 0 -1.95738e-05 7.31732e-05 0 -2.12713e-05 7.24158e-05 0 -2.29872e-05 7.15993e-05 0 -2.46898e-05 7.0464e-05 0 -2.6361e-05 6.93287e-05 0 -2.80005e-05 6.81275e-05 0 -2.95909e-05 6.66405e-05 0 -3.11233e-05 6.51535e-05 0 -3.25975e-05 6.36049e-05 0 -3.40019e-05 6.18363e-05 0 -3.53313e-05 6.00677e-05 0 -3.65856e-05 5.82517e-05 0 -3.7761e-05 5.62934e-05 0 -3.88561e-05 5.43351e-05 0 -3.98712e-05 5.23477e-05 0 -4.08106e-05 5.02861e-05 0 -4.16759e-05 4.82245e-05 0 -4.24677e-05 4.61499e-05 0 -4.31924e-05 4.40469e-05 0 -4.38524e-05 4.19438e-05 0 -4.44481e-05 3.98404e-05 0 -4.4987e-05 3.77362e-05 0 -4.54712e-05 3.5632e-05 0 -4.59013e-05 3.35356e-05 0 -4.62837e-05 3.14522e-05 0 -4.66201e-05 2.93688e-05 0 -4.6911e-05 2.72977e-05 0 -4.71616e-05 2.52444e-05 0 -4.7373e-05 2.31912e-05 0 -4.75456e-05 2.11515e-05 0 -4.76829e-05 1.91291e-05 0 -4.77856e-05 1.71068e-05 0 -4.78539e-05 1.5097e-05 0 -4.78898e-05 1.31015e-05 0 -4.78935e-05 1.11059e-05 0 -4.7865e-05 9.12056e-06 0 -4.78046e-05 7.14544e-06 0 -4.77122e-05 5.17032e-06 0 -4.75877e-05 3.20281e-06 0 -4.74296e-05 1.24201e-06 0 -4.72376e-05 -7.18781e-07 0 -4.70113e-05 -2.67345e-06 0 -4.67475e-05 -4.62336e-06 0 -4.6446e-05 -6.57327e-06 0 -4.61056e-05 -8.51555e-06 0 -4.57219e-05 -1.04526e-05 0 -4.52942e-05 -1.23897e-05 0 -4.48212e-05 -1.4312e-05 0 -4.42971e-05 -1.62253e-05 0 -4.37214e-05 -1.81387e-05 0 -4.3092e-05 -2.00209e-05 0 -4.24025e-05 -2.18868e-05 0 -4.16524e-05 -2.37526e-05 0 -4.08398e-05 -2.55567e-05 0 -3.99592e-05 -2.73327e-05 0 -3.90103e-05 -2.91087e-05 0 -3.79918e-05 -3.07742e-05 0 -3.69007e-05 -3.23964e-05 0 -3.57368e-05 -3.40185e-05 0 -3.45024e-05 -3.54594e-05 0 -3.32029e-05 -3.68399e-05 0 -3.18385e-05 -3.82204e-05 0 -3.04155e-05 -3.93394e-05 0 -2.89472e-05 -4.03852e-05 0 -2.74342e-05 -4.1431e-05 0 -2.58869e-05 -4.21497e-05 0 -2.4326e-05 -4.27929e-05 0 -2.2752e-05 -4.34362e-05 0 -2.11845e-05 -4.372e-05 0 -1.9658e-05 -4.39372e-05 0 -1.81733e-05 -4.41544e-05 0 -1.67384e-05 -4.40795e-05 0 -1.53664e-05 -4.39628e-05 0 -1.40574e-05 -4.38461e-05 0 -1.28192e-05 -4.35087e-05 0 -1.16626e-05 -4.31485e-05 0 -1.05879e-05 -4.27884e-05 0 -9.61905e-06 -4.23688e-05 0 -8.78685e-06 -4.19453e-05 0 -8.09138e-06 -4.15218e-05 0 -7.56709e-06 -4.10328e-05 0 -7.25287e-06 -4.05417e-05 0 -7.14877e-06 -4.00507e-05 0 0 7.7794e-05 0 -1.37202e-06 7.77794e-05 0 -2.75665e-06 7.77647e-05 0 -4.15391e-06 7.77484e-05 0 -5.57598e-06 7.76796e-05 0 -7.03364e-06 7.76108e-05 0 -8.52693e-06 7.75347e-05 0 -1.00636e-05 7.73487e-05 0 -1.16498e-05 7.71627e-05 0 -1.32854e-05 7.6955e-05 0 -1.49695e-05 7.65384e-05 0 -1.67014e-05 7.61217e-05 0 -1.84808e-05 7.56646e-05 0 -2.02882e-05 7.49247e-05 0 -2.21113e-05 7.41848e-05 0 -2.39497e-05 7.33786e-05 0 -2.57774e-05 7.2215e-05 0 -2.75798e-05 7.10514e-05 0 -2.93563e-05 6.98154e-05 0 -3.10786e-05 6.82653e-05 0 -3.27328e-05 6.67153e-05 0 -3.43181e-05 6.50994e-05 0 -3.58199e-05 6.32481e-05 0 -3.72313e-05 6.13968e-05 0 -3.85525e-05 5.94974e-05 0 -3.97828e-05 5.74534e-05 0 -4.0922e-05 5.54094e-05 0 -4.19705e-05 5.33385e-05 0 -4.29347e-05 5.11989e-05 0 -4.3817e-05 4.90593e-05 0 -4.46179e-05 4.69102e-05 0 -4.53467e-05 4.47401e-05 0 -4.60062e-05 4.25701e-05 0 -4.65973e-05 4.04035e-05 0 -4.71288e-05 3.82435e-05 0 -4.76034e-05 3.60835e-05 0 -4.80219e-05 3.39348e-05 0 -4.83917e-05 3.18052e-05 0 -4.87149e-05 2.96755e-05 0 -4.89921e-05 2.7561e-05 0 -4.9229e-05 2.54687e-05 0 -4.94271e-05 2.33764e-05 0 -4.95869e-05 2.12998e-05 0 -4.9712e-05 1.92433e-05 0 -4.98035e-05 1.71868e-05 0 -4.98616e-05 1.51441e-05 0 -4.98882e-05 1.31169e-05 0 -4.98837e-05 1.10897e-05 0 -4.98483e-05 9.07287e-06 0 -4.97819e-05 7.06637e-06 0 -4.96848e-05 5.05987e-06 0 -4.95564e-05 3.05991e-06 0 -4.93954e-05 1.06571e-06 0 -4.92013e-05 -9.2848e-07 0 -4.89735e-05 -2.91897e-06 0 -4.87085e-05 -4.90658e-06 0 -4.84059e-05 -6.89418e-06 0 -4.80644e-05 -8.87807e-06 0 -4.76789e-05 -1.08594e-05 0 -4.72486e-05 -1.28408e-05 0 -4.67718e-05 -1.48127e-05 0 -4.62416e-05 -1.6779e-05 0 -4.56572e-05 -1.87452e-05 0 -4.50163e-05 -2.0687e-05 0 -4.43107e-05 -2.26158e-05 0 -4.35398e-05 -2.45446e-05 0 -4.2701e-05 -2.64182e-05 0 -4.17861e-05 -2.82667e-05 0 -4.07946e-05 -3.01152e-05 0 -3.97246e-05 -3.18573e-05 0 -3.85712e-05 -3.35578e-05 0 -3.73339e-05 -3.52583e-05 0 -3.60137e-05 -3.67732e-05 0 -3.4613e-05 -3.82263e-05 0 -3.31319e-05 -3.96794e-05 0 -3.15782e-05 -4.08533e-05 0 -2.99688e-05 -4.1949e-05 0 -2.83043e-05 -4.30447e-05 0 -2.66006e-05 -4.37809e-05 0 -2.48891e-05 -4.44341e-05 0 -2.31706e-05 -4.50874e-05 0 -2.14618e-05 -4.53384e-05 0 -1.9792e-05 -4.5515e-05 0 -1.81619e-05 -4.56915e-05 0 -1.65884e-05 -4.55472e-05 0 -1.50985e-05 -4.5357e-05 0 -1.36925e-05 -4.51668e-05 0 -1.23758e-05 -4.47415e-05 0 -1.11563e-05 -4.42918e-05 0 -1.0034e-05 -4.38422e-05 0 -9.02586e-06 -4.32893e-05 0 -8.15339e-06 -4.27295e-05 0 -7.41667e-06 -4.21697e-05 0 -6.83255e-06 -4.14916e-05 0 -6.42007e-06 -4.08096e-05 0 -6.17925e-06 -4.01277e-05 0 0 7.91628e-05 0 -1.37924e-06 7.91619e-05 0 -2.77329e-06 7.91609e-05 0 -4.18216e-06 7.91591e-05 0 -5.62167e-06 7.91305e-05 0 -7.10583e-06 7.91018e-05 0 -8.63467e-06 7.90667e-05 0 -1.02168e-05 7.89355e-05 0 -1.18589e-05 7.88042e-05 0 -1.35611e-05 7.86516e-05 0 -1.53281e-05 7.82929e-05 0 -1.71632e-05 7.79342e-05 0 -1.9066e-05 7.75296e-05 0 -2.10025e-05 7.68037e-05 0 -2.29514e-05 7.60778e-05 0 -2.49122e-05 7.528e-05 0 -2.6865e-05 7.40942e-05 0 -2.87987e-05 7.29084e-05 0 -3.0712e-05 7.16405e-05 0 -3.25664e-05 7.0017e-05 0 -3.43422e-05 6.83935e-05 0 -3.60387e-05 6.66988e-05 0 -3.76379e-05 6.47496e-05 0 -3.91314e-05 6.28004e-05 0 -4.05194e-05 6.08033e-05 0 -4.18045e-05 5.86629e-05 0 -4.29879e-05 5.65225e-05 0 -4.40698e-05 5.43581e-05 0 -4.50589e-05 5.21326e-05 0 -4.59581e-05 4.99071e-05 0 -4.67682e-05 4.76766e-05 0 -4.75009e-05 4.54351e-05 0 -4.816e-05 4.31937e-05 0 -4.87464e-05 4.09603e-05 0 -4.92706e-05 3.87423e-05 0 -4.97357e-05 3.65243e-05 0 -5.01425e-05 3.43218e-05 0 -5.04997e-05 3.21452e-05 0 -5.08096e-05 2.99686e-05 0 -5.10731e-05 2.78105e-05 0 -5.12965e-05 2.56795e-05 0 -5.14813e-05 2.35485e-05 0 -5.16281e-05 2.14356e-05 0 -5.17412e-05 1.93458e-05 0 -5.18214e-05 1.7256e-05 0 -5.18692e-05 1.51813e-05 0 -5.18866e-05 1.31236e-05 0 -5.1874e-05 1.1066e-05 0 -5.18315e-05 9.01872e-06 0 -5.17593e-05 6.98193e-06 0 -5.16573e-05 4.94514e-06 0 -5.15252e-05 2.91366e-06 0 -5.13612e-05 8.86856e-07 0 -5.11649e-05 -1.13995e-06 0 -5.09356e-05 -3.16581e-06 0 -5.06694e-05 -5.19094e-06 0 -5.03658e-05 -7.21608e-06 0 -5.00232e-05 -9.24199e-06 0 -4.96359e-05 -1.12684e-05 0 -4.9203e-05 -1.32949e-05 0 -4.87224e-05 -1.53183e-05 0 -4.8186e-05 -1.734e-05 0 -4.7593e-05 -1.93616e-05 0 -4.69406e-05 -2.13667e-05 0 -4.62189e-05 -2.33632e-05 0 -4.54273e-05 -2.53597e-05 0 -4.45622e-05 -2.73099e-05 0 -4.3613e-05 -2.92391e-05 0 -4.25789e-05 -3.11683e-05 0 -4.14575e-05 -3.29973e-05 0 -4.02416e-05 -3.47872e-05 0 -3.89309e-05 -3.6577e-05 0 -3.7525e-05 -3.81804e-05 0 -3.60232e-05 -3.97217e-05 0 -3.44254e-05 -4.12629e-05 0 -3.27409e-05 -4.25032e-05 0 -3.09903e-05 -4.36591e-05 0 -2.91743e-05 -4.48151e-05 0 -2.73142e-05 -4.55657e-05 0 -2.54522e-05 -4.62229e-05 0 -2.35892e-05 -4.68801e-05 0 -2.1739e-05 -4.70991e-05 0 -1.9926e-05 -4.7237e-05 0 -1.81506e-05 -4.7375e-05 0 -1.64384e-05 -4.71432e-05 0 -1.48306e-05 -4.68587e-05 0 -1.33275e-05 -4.65742e-05 0 -1.19325e-05 -4.60449e-05 0 -1.065e-05 -4.54903e-05 0 -9.48017e-06 -4.49358e-05 0 -8.43268e-06 -4.42495e-05 0 -7.51993e-06 -4.35545e-05 0 -6.74195e-06 -4.28595e-05 0 -6.098e-06 -4.20294e-05 0 -5.58726e-06 -4.1195e-05 0 -5.20972e-06 -4.03606e-05 0 0 8.05376e-05 0 -1.38413e-06 8.05526e-05 0 -2.78541e-06 8.05676e-05 0 -4.20385e-06 8.05827e-05 0 -5.65883e-06 8.06032e-05 0 -7.16748e-06 8.06237e-05 0 -8.72985e-06 8.06388e-05 0 -1.03559e-05 8.05729e-05 0 -1.20535e-05 8.0507e-05 0 -1.38226e-05 8.04209e-05 0 -1.56731e-05 8.01405e-05 0 -1.76116e-05 7.986e-05 0 -1.96375e-05 7.95253e-05 0 -2.17051e-05 7.88102e-05 0 -2.37856e-05 7.80951e-05 0 -2.58787e-05 7.73039e-05 0 -2.79664e-05 7.61018e-05 0 -3.00388e-05 7.48997e-05 0 -3.20944e-05 7.36029e-05 0 -3.40846e-05 7.18956e-05 0 -3.59844e-05 7.01883e-05 0 -3.77932e-05 6.84033e-05 0 -3.94902e-05 6.63408e-05 0 -4.1066e-05 6.42783e-05 0 -4.25208e-05 6.21695e-05 0 -4.38604e-05 5.99219e-05 0 -4.50871e-05 5.76742e-05 0 -4.62014e-05 5.54064e-05 0 -4.7214e-05 5.30871e-05 0 -4.81289e-05 5.07678e-05 0 -4.8947e-05 4.84491e-05 0 -4.96825e-05 4.61319e-05 0 -5.03401e-05 4.38147e-05 0 -5.09208e-05 4.15109e-05 0 -5.14367e-05 3.92327e-05 0 -5.18912e-05 3.69544e-05 0 -5.22855e-05 3.46965e-05 0 -5.26294e-05 3.24723e-05 0 -5.29254e-05 3.02482e-05 0 -5.31745e-05 2.80463e-05 0 -5.33837e-05 2.58769e-05 0 -5.35548e-05 2.37075e-05 0 -5.36884e-05 2.15588e-05 0 -5.3789e-05 1.94366e-05 0 -5.38578e-05 1.73145e-05 0 -5.3895e-05 1.52088e-05 0 -5.39031e-05 1.31217e-05 0 -5.38823e-05 1.10346e-05 0 -5.38328e-05 8.95812e-06 0 -5.37547e-05 6.89212e-06 0 -5.3648e-05 4.82613e-06 0 -5.35123e-05 2.76406e-06 0 -5.33456e-05 7.05444e-07 0 -5.31474e-05 -1.35317e-06 0 -5.29171e-05 -3.41396e-06 0 -5.265e-05 -5.47645e-06 0 -5.23458e-05 -7.53893e-06 0 -5.20028e-05 -9.60728e-06 0 -5.16143e-05 -1.16797e-05 0 -5.11795e-05 -1.3752e-05 0 -5.06959e-05 -1.58288e-05 0 -5.01542e-05 -1.79083e-05 0 -4.95536e-05 -1.99878e-05 0 -4.88906e-05 -2.20603e-05 0 -4.81539e-05 -2.4129e-05 0 -4.73426e-05 -2.61978e-05 0 -4.64523e-05 -2.82318e-05 0 -4.54699e-05 -3.02499e-05 0 -4.43944e-05 -3.22681e-05 0 -4.32225e-05 -3.41942e-05 0 -4.19449e-05 -3.60844e-05 0 -4.0561e-05 -3.79746e-05 0 -3.90693e-05 -3.96809e-05 0 -3.74659e-05 -4.1326e-05 0 -3.57506e-05 -4.2971e-05 0 -3.39341e-05 -4.42891e-05 0 -3.20397e-05 -4.55157e-05 0 -3.00682e-05 -4.67422e-05 0 -2.8046e-05 -4.75044e-05 0 -2.60255e-05 -4.81595e-05 0 -2.40078e-05 -4.88145e-05 0 -2.20061e-05 -4.90023e-05 0 -2.00433e-05 -4.91036e-05 0 -1.81198e-05 -4.92048e-05 0 -1.62685e-05 -4.88677e-05 0 -1.45418e-05 -4.84679e-05 0 -1.29402e-05 -4.80682e-05 0 -1.14652e-05 -4.74191e-05 0 -1.01188e-05 -4.67442e-05 0 -8.9009e-06 -4.60692e-05 0 -7.81407e-06 -4.52496e-05 0 -6.86141e-06 -4.44202e-05 0 -6.04292e-06 -4.35909e-05 0 -5.34147e-06 -4.26462e-05 0 -4.73767e-06 -4.16977e-05 0 -4.2315e-06 -4.07493e-05 0 0 8.1897e-05 0 -1.354e-06 8.19314e-05 0 -2.72971e-06 8.19658e-05 0 -4.12716e-06 8.20016e-05 0 -5.56792e-06 8.20801e-05 0 -7.07109e-06 8.21587e-05 0 -8.63673e-06 8.22335e-05 0 -1.02844e-05 8.2252e-05 0 -1.20295e-05 8.22705e-05 0 -1.38721e-05 8.22699e-05 0 -1.58145e-05 8.20843e-05 0 -1.78585e-05 8.18987e-05 0 -2.00037e-05 8.16522e-05 0 -2.22324e-05 8.09797e-05 0 -2.45335e-05 8.03072e-05 0 -2.69055e-05 7.95472e-05 0 -2.92744e-05 7.8315e-05 0 -3.15984e-05 7.70829e-05 0 -3.38763e-05 7.57417e-05 0 -3.60578e-05 7.39284e-05 0 -3.81176e-05 7.21151e-05 0 -4.00553e-05 7.02186e-05 0 -4.18578e-05 6.8025e-05 0 -4.35193e-05 6.58314e-05 0 -4.50402e-05 6.35939e-05 0 -4.64281e-05 6.12249e-05 0 -4.76862e-05 5.88559e-05 0 -4.88155e-05 5.64724e-05 0 -4.98332e-05 5.40515e-05 0 -5.07457e-05 5.16307e-05 0 -5.15542e-05 4.92174e-05 0 -5.22753e-05 4.68203e-05 0 -5.29146e-05 4.44233e-05 0 -5.34733e-05 4.20459e-05 0 -5.39657e-05 3.97059e-05 0 -5.4396e-05 3.7366e-05 0 -5.47652e-05 3.50517e-05 0 -5.50843e-05 3.27801e-05 0 -5.53562e-05 3.05084e-05 0 -5.55818e-05 2.82631e-05 0 -5.57689e-05 2.60563e-05 0 -5.59193e-05 2.38495e-05 0 -5.60337e-05 2.16662e-05 0 -5.6117e-05 1.95132e-05 0 -5.61704e-05 1.73601e-05 0 -5.61942e-05 1.5225e-05 0 -5.61909e-05 1.31102e-05 0 -5.61609e-05 1.09954e-05 0 -5.61042e-05 8.89124e-06 0 -5.6021e-05 6.79768e-06 0 -5.59113e-05 4.70412e-06 0 -5.57746e-05 2.61294e-06 0 -5.56086e-05 5.23874e-07 0 -5.54131e-05 -1.5652e-06 0 -5.51871e-05 -3.65987e-06 0 -5.49258e-05 -5.75889e-06 0 -5.46286e-05 -7.85792e-06 0 -5.42937e-05 -9.9685e-06 0 -5.39137e-05 -1.2087e-05 0 -5.34877e-05 -1.42055e-05 0 -5.30129e-05 -1.63368e-05 0 -5.24791e-05 -1.84759e-05 0 -5.1885e-05 -2.06149e-05 0 -5.12267e-05 -2.27583e-05 0 -5.04906e-05 -2.49038e-05 0 -4.96756e-05 -2.70494e-05 0 -4.87765e-05 -2.9174e-05 0 -4.77775e-05 -3.12892e-05 0 -4.66774e-05 -3.34043e-05 0 -4.54705e-05 -3.54404e-05 0 -4.41409e-05 -3.74455e-05 0 -4.26876e-05 -3.94506e-05 0 -4.11082e-05 -4.12772e-05 0 -3.93969e-05 -4.30444e-05 0 -3.75534e-05 -4.48115e-05 0 -3.55847e-05 -4.6229e-05 0 -3.35064e-05 -4.75486e-05 0 -3.1319e-05 -4.88682e-05 0 -2.90497e-05 -4.96576e-05 0 -2.67519e-05 -5.03246e-05 0 -2.44272e-05 -5.09917e-05 0 -2.21202e-05 -5.11233e-05 0 -1.99098e-05 -5.11558e-05 0 -1.77976e-05 -5.11883e-05 0 -1.57991e-05 -5.07272e-05 0 -1.39386e-05 -5.01957e-05 0 -1.22165e-05 -4.96641e-05 0 -1.06387e-05 -4.88753e-05 0 -9.21324e-06 -4.80598e-05 0 -7.94028e-06 -4.72444e-05 0 -6.814e-06 -4.62877e-05 0 -5.82701e-06 -4.53217e-05 0 -4.9793e-06 -4.43556e-05 0 -4.25501e-06 -4.33082e-05 0 -3.63623e-06 -4.22582e-05 0 -3.12294e-06 -4.12082e-05 0 0 8.32239e-05 0 -1.32387e-06 8.32823e-05 0 -2.67402e-06 8.33407e-05 0 -4.05047e-06 8.34018e-05 0 -5.47701e-06 8.35472e-05 0 -6.97469e-06 8.36925e-05 0 -8.54361e-06 8.38368e-05 0 -1.02129e-05 8.39657e-05 0 -1.20056e-05 8.40946e-05 0 -1.39216e-05 8.42042e-05 0 -1.59559e-05 8.41268e-05 0 -1.81053e-05 8.40495e-05 0 -2.03699e-05 8.39104e-05 0 -2.27597e-05 8.334e-05 0 -2.52814e-05 8.27696e-05 0 -2.79324e-05 8.20864e-05 0 -3.05824e-05 8.07947e-05 0 -3.31581e-05 7.95029e-05 0 -3.56581e-05 7.80876e-05 0 -3.8031e-05 7.61369e-05 0 -4.02508e-05 7.41862e-05 0 -4.23173e-05 7.21494e-05 0 -4.42254e-05 6.98048e-05 0 -4.59726e-05 6.74603e-05 0 -4.75595e-05 6.50751e-05 0 -4.89957e-05 6.25679e-05 0 -5.02853e-05 6.00607e-05 0 -5.14296e-05 5.75471e-05 0 -5.24525e-05 5.50174e-05 0 -5.33626e-05 5.24876e-05 0 -5.41614e-05 4.99731e-05 0 -5.48681e-05 4.74924e-05 0 -5.54891e-05 4.50116e-05 0 -5.60258e-05 4.25578e-05 0 -5.64948e-05 4.01553e-05 0 -5.69007e-05 3.77529e-05 0 -5.72449e-05 3.53819e-05 0 -5.75393e-05 3.30633e-05 0 -5.77871e-05 3.07448e-05 0 -5.79891e-05 2.8457e-05 0 -5.8154e-05 2.62143e-05 0 -5.82837e-05 2.39716e-05 0 -5.83789e-05 2.17555e-05 0 -5.8445e-05 1.95734e-05 0 -5.8483e-05 1.73913e-05 0 -5.84934e-05 1.52288e-05 0 -5.84787e-05 1.30884e-05 0 -5.84394e-05 1.0948e-05 0 -5.83756e-05 8.81824e-06 0 -5.82873e-05 6.69917e-06 0 -5.81745e-05 4.5801e-06 0 -5.80368e-05 2.46175e-06 0 -5.78717e-05 3.4403e-07 0 -5.76788e-05 -1.77369e-06 0 -5.74571e-05 -3.90072e-06 0 -5.72015e-05 -6.03499e-06 0 -5.69113e-05 -8.16926e-06 0 -5.65846e-05 -1.03214e-05 0 -5.62131e-05 -1.24857e-05 0 -5.57959e-05 -1.465e-05 0 -5.533e-05 -1.68365e-05 0 -5.48039e-05 -1.90363e-05 0 -5.42164e-05 -2.12361e-05 0 -5.35628e-05 -2.34535e-05 0 -5.28274e-05 -2.56801e-05 0 -5.20087e-05 -2.79067e-05 0 -5.11007e-05 -3.01289e-05 0 -5.00851e-05 -3.2349e-05 0 -4.89604e-05 -3.45692e-05 0 -4.77185e-05 -3.67299e-05 0 -4.63368e-05 -3.88673e-05 0 -4.48141e-05 -4.10048e-05 0 -4.31472e-05 -4.29713e-05 0 -4.1328e-05 -4.48808e-05 0 -3.93562e-05 -4.67903e-05 0 -3.72353e-05 -4.83367e-05 0 -3.49731e-05 -4.97814e-05 0 -3.25698e-05 -5.1226e-05 0 -3.00533e-05 -5.2073e-05 0 -2.74784e-05 -5.27819e-05 0 -2.48466e-05 -5.34909e-05 0 -2.22342e-05 -5.35213e-05 0 -1.97763e-05 -5.34261e-05 0 -1.74754e-05 -5.33309e-05 0 -1.53296e-05 -5.2727e-05 0 -1.33354e-05 -5.20505e-05 0 -1.14929e-05 -5.13739e-05 0 -9.81218e-06 -5.04224e-05 0 -8.30773e-06 -4.94426e-05 0 -6.97967e-06 -4.84627e-05 0 -5.81393e-06 -4.73628e-05 0 -4.79262e-06 -4.62549e-05 0 -3.91568e-06 -4.5147e-05 0 -3.16855e-06 -4.39892e-05 0 -2.53479e-06 -4.28298e-05 0 -2.01438e-06 -4.16704e-05 0 0 8.45182e-05 0 -1.28874e-06 8.46052e-05 0 -2.60794e-06 8.46921e-05 0 -3.95764e-06 8.47832e-05 0 -5.36447e-06 8.50041e-05 0 -6.85199e-06 8.5225e-05 0 -8.42035e-06 8.54486e-05 0 -1.01071e-05 8.57138e-05 0 -1.19418e-05 8.59789e-05 0 -1.39244e-05 8.62234e-05 0 -1.60481e-05 8.62681e-05 0 -1.83082e-05 8.63129e-05 0 -2.07051e-05 8.63008e-05 0 -2.32661e-05 8.58915e-05 0 -2.60082e-05 8.54821e-05 0 -2.89281e-05 8.49209e-05 0 -3.18503e-05 8.35405e-05 0 -3.4676e-05 8.21601e-05 0 -3.74035e-05 8.0641e-05 0 -3.99748e-05 7.85214e-05 0 -4.23603e-05 7.64019e-05 0 -4.45601e-05 7.41957e-05 0 -4.65757e-05 7.16803e-05 0 -4.84077e-05 6.91649e-05 0 -5.00567e-05 6.66128e-05 0 -5.15369e-05 6.39506e-05 0 -5.28542e-05 6.12883e-05 0 -5.40103e-05 5.86306e-05 0 -5.50351e-05 5.59844e-05 0 -5.59396e-05 5.33382e-05 0 -5.67255e-05 5.07163e-05 0 -5.74148e-05 4.81479e-05 0 -5.80149e-05 4.55796e-05 0 -5.85274e-05 4.30465e-05 0 -5.89708e-05 4.05807e-05 0 -5.93506e-05 3.8115e-05 0 -5.9668e-05 3.5687e-05 0 -5.99362e-05 3.33221e-05 0 -6.01584e-05 3.09572e-05 0 -6.03358e-05 2.8628e-05 0 -6.04775e-05 2.63509e-05 0 -6.05857e-05 2.40738e-05 0 -6.06611e-05 2.18264e-05 0 -6.07093e-05 1.96172e-05 0 -6.07314e-05 1.74081e-05 0 -6.0728e-05 1.52201e-05 0 -6.07017e-05 1.30562e-05 0 -6.06531e-05 1.08923e-05 0 -6.05821e-05 8.73911e-06 0 -6.04888e-05 6.5966e-06 0 -6.03732e-05 4.45409e-06 0 -6.02348e-05 2.31049e-06 0 -6.0071e-05 1.65936e-07 0 -5.98813e-05 -1.97862e-06 0 -5.96647e-05 -4.13648e-06 0 -5.94156e-05 -6.30469e-06 0 -5.91333e-05 -8.47289e-06 0 -5.88158e-05 -1.06658e-05 0 -5.84541e-05 -1.28756e-05 0 -5.80472e-05 -1.50854e-05 0 -5.75918e-05 -1.73277e-05 0 -5.70753e-05 -1.95894e-05 0 -5.64964e-05 -2.18512e-05 0 -5.58498e-05 -2.41459e-05 0 -5.51175e-05 -2.64578e-05 0 -5.4298e-05 -2.87698e-05 0 -5.33843e-05 -3.10962e-05 0 -5.2355e-05 -3.34293e-05 0 -5.12088e-05 -3.57624e-05 0 -4.99351e-05 -3.80625e-05 0 -4.8505e-05 -4.03497e-05 0 -4.69169e-05 -4.26369e-05 0 -4.51659e-05 -4.4763e-05 0 -4.32395e-05 -4.68354e-05 0 -4.11371e-05 -4.89078e-05 0 -3.88593e-05 -5.06125e-05 0 -3.64071e-05 -5.22144e-05 0 -3.37805e-05 -5.38162e-05 0 -3.10109e-05 -5.47506e-05 0 -2.816e-05 -5.55311e-05 0 -2.52294e-05 -5.63115e-05 0 -2.23208e-05 -5.61961e-05 0 -1.96145e-05 -5.59148e-05 0 -1.71142e-05 -5.56336e-05 0 -1.48069e-05 -5.48676e-05 0 -1.26725e-05 -5.40325e-05 0 -1.07107e-05 -5.31973e-05 0 -8.93236e-06 -5.20603e-05 0 -7.35283e-06 -5.08922e-05 0 -5.97225e-06 -4.9724e-05 0 -4.76926e-06 -4.84746e-05 0 -3.71672e-06 -4.72198e-05 0 -2.81452e-06 -4.59649e-05 0 -2.04853e-06 -4.4689e-05 0 -1.40276e-06 -4.34123e-05 0 -8.77191e-07 -4.21356e-05 0 0 8.57498e-05 0 -1.20525e-06 8.58675e-05 0 -2.4415e-06 8.59852e-05 0 -3.70877e-06 8.61089e-05 0 -5.04276e-06 8.64193e-05 0 -6.47503e-06 8.67296e-05 0 -8.00572e-06 8.70468e-05 0 -9.66926e-06 8.74659e-05 0 -1.14927e-05 8.7885e-05 0 -1.34765e-05 8.82864e-05 0 -1.56641e-05 8.85165e-05 0 -1.80861e-05 8.87466e-05 0 -2.07416e-05 8.89165e-05 0 -2.35694e-05 8.86645e-05 0 -2.65307e-05 8.84125e-05 0 -2.96234e-05 8.79728e-05 0 -3.27318e-05 8.65193e-05 0 -3.57909e-05 8.50659e-05 0 -3.87974e-05 8.34487e-05 0 -4.16336e-05 8.11212e-05 0 -4.42398e-05 7.87938e-05 0 -4.6616e-05 7.63795e-05 0 -4.87586e-05 7.36547e-05 0 -5.0666e-05 7.09299e-05 0 -5.23403e-05 6.81786e-05 0 -5.3823e-05 6.53478e-05 0 -5.51315e-05 6.25169e-05 0 -5.62673e-05 5.9703e-05 0 -5.72633e-05 5.69327e-05 0 -5.81313e-05 5.41624e-05 0 -5.88731e-05 5.14273e-05 0 -5.95164e-05 4.87696e-05 0 -6.00703e-05 4.61119e-05 0 -6.05364e-05 4.34986e-05 0 -6.09341e-05 4.09698e-05 0 -6.12695e-05 3.8441e-05 0 -6.15438e-05 3.5957e-05 0 -6.1771e-05 3.35475e-05 0 -6.1955e-05 3.11381e-05 0 -6.20968e-05 2.87693e-05 0 -6.22057e-05 2.64602e-05 0 -6.22842e-05 2.4151e-05 0 -6.23328e-05 2.1875e-05 0 -6.23574e-05 1.96415e-05 0 -6.23593e-05 1.74079e-05 0 -6.23389e-05 1.51973e-05 0 -6.22988e-05 1.30127e-05 0 -6.22397e-05 1.08281e-05 0 -6.21615e-05 8.65416e-06 0 -6.20642e-05 6.49096e-06 0 -6.19478e-05 4.32776e-06 0 -6.18119e-05 2.16158e-06 0 -6.16536e-05 -7.24517e-09 0 -6.14727e-05 -2.17607e-06 0 -6.12678e-05 -4.36242e-06 0 -6.10332e-05 -6.56241e-06 0 -6.07682e-05 -8.7624e-06 0 -6.04706e-05 -1.09944e-05 0 -6.01312e-05 -1.32482e-05 0 -5.97488e-05 -1.5502e-05 0 -5.93199e-05 -1.77996e-05 0 -5.88306e-05 -2.01233e-05 0 -5.82797e-05 -2.24471e-05 0 -5.76615e-05 -2.48206e-05 0 -5.69568e-05 -2.72201e-05 0 -5.61641e-05 -2.96196e-05 0 -5.52747e-05 -3.20568e-05 0 -5.42616e-05 -3.45111e-05 0 -5.31231e-05 -3.69654e-05 0 -5.18477e-05 -3.94175e-05 0 -5.04038e-05 -4.18687e-05 0 -4.87899e-05 -4.43199e-05 0 -4.69893e-05 -4.66386e-05 0 -4.49622e-05 -4.89133e-05 0 -4.27066e-05 -5.11879e-05 0 -4.02252e-05 -5.30908e-05 0 -3.7524e-05 -5.48896e-05 0 -3.46031e-05 -5.66884e-05 0 -3.15239e-05 -5.77059e-05 0 -2.84076e-05 -5.8543e-05 0 -2.52576e-05 -5.93801e-05 0 -2.21416e-05 -5.91207e-05 0 -1.918e-05 -5.86581e-05 0 -1.63751e-05 -5.81956e-05 0 -1.37697e-05 -5.7214e-05 0 -1.14319e-05 -5.61583e-05 0 -9.36267e-06 -5.51025e-05 0 -7.53725e-06 -5.37603e-05 0 -5.92058e-06 -5.23884e-05 0 -4.51237e-06 -5.10166e-05 0 -3.29349e-06 -4.96066e-05 0 -2.23959e-06 -4.81942e-05 0 -1.35058e-06 -4.67817e-05 0 -6.04135e-07 -4.53858e-05 0 2.49614e-08 -4.39903e-05 0 5.36735e-07 -4.25949e-05 0 0 8.68977e-05 0 -1.12177e-06 8.70467e-05 0 -2.27506e-06 8.71956e-05 0 -3.45991e-06 8.73529e-05 0 -4.72105e-06 8.77704e-05 0 -6.09807e-06 8.81878e-05 0 -7.59109e-06 8.86157e-05 0 -9.23142e-06 8.92008e-05 0 -1.10437e-05 8.97858e-05 0 -1.30286e-05 9.03642e-05 0 -1.52801e-05 9.08777e-05 0 -1.78639e-05 9.13912e-05 0 -2.07781e-05 9.18228e-05 0 -2.38727e-05 9.16805e-05 0 -2.70532e-05 9.15383e-05 0 -3.03187e-05 9.11872e-05 0 -3.36133e-05 8.9708e-05 0 -3.69057e-05 8.82288e-05 0 -4.01912e-05 8.65433e-05 0 -4.32924e-05 8.39639e-05 0 -4.61193e-05 8.13844e-05 0 -4.86718e-05 7.8716e-05 0 -5.09415e-05 7.57304e-05 0 -5.29244e-05 7.27447e-05 0 -5.46238e-05 6.97527e-05 0 -5.61091e-05 6.67418e-05 0 -5.74087e-05 6.37308e-05 0 -5.85244e-05 6.07505e-05 0 -5.94915e-05 5.78483e-05 0 -6.03229e-05 5.49461e-05 0 -6.10208e-05 5.20924e-05 0 -6.16181e-05 4.93451e-05 0 -6.21257e-05 4.65979e-05 0 -6.25453e-05 4.39045e-05 0 -6.28975e-05 4.13139e-05 0 -6.31884e-05 3.87232e-05 0 -6.34195e-05 3.61848e-05 0 -6.36059e-05 3.37334e-05 0 -6.37516e-05 3.12819e-05 0 -6.38577e-05 2.88765e-05 0 -6.39339e-05 2.65383e-05 0 -6.39826e-05 2.42001e-05 0 -6.40045e-05 2.18984e-05 0 -6.400