<?xml version="1.0"?> 
<VTKFile type="StructuredGrid" version="0.1"> 
<StructuredGrid WholeExtent="0 31 0 31 0 0"> 
<Piece Extent="0 31 0 31 0 0"> 
<PointData>
<DataArray type="Float32" Name="B" format="ascii" NumberOfComponents="3"> 
0.000274547 -0.000126957 0 8.03619e-05 -4.82123e-05 0 6.57714e-05 -4.00095e-05 0 5.68086e-05 -3.47576e-05 0 5.00789e-05 -3.06491e-05 0 4.45993e-05 -2.72092e-05 0 3.99504e-05 -2.42466e-05 0 3.59126e-05 -2.16638e-05 0 3.23548e-05 -1.94048e-05 0 2.91896e-05 -1.74108e-05 0 2.63562e-05 -1.56499e-05 0 2.38068e-05 -1.41112e-05 0 2.15043e-05 -1.27399e-05 0 1.94183e-05 -1.15349e-05 0 1.75224e-05 -1.04705e-05 0 1.57947e-05 -9.52091e-06 0 1.42158e-05 -8.693e-06 0 1.27685e-05 -7.95562e-06 0 1.14379e-05 -7.3033e-06 0 1.02105e-05 -6.73353e-06 0 9.07408e-06 -6.22799e-06 0 8.01789e-06 -5.78834e-06 0 7.03174e-06 -5.40556e-06 0 6.10669e-06 -5.07105e-06 0 5.23429e-06 -4.79008e-06 0 4.40668e-06 -4.55028e-06 0 3.61671e-06 -4.35146e-06 0 2.85737e-06 -4.19411e-06 0 2.12221e-06 -4.07115e-06 0 1.40499e-06 -3.98595e-06 0 6.99533e-07 -3.93525e-06 0 0 -3.91617e-06 0 0.000119748 -2.37722e-05 0 8.29669e-05 -4.09008e-05 0 6.75487e-05 -3.6316e-05 0 5.82065e-05 -3.21746e-05 0 5.12533e-05 -2.86143e-05 0 4.56135e-05 -2.55126e-05 0 4.08364e-05 -2.27879e-05 0 3.66907e-05 -2.03866e-05 0 3.30398e-05 -1.82732e-05 0 2.97934e-05 -1.6401e-05 0 2.6889e-05 -1.47441e-05 0 2.42772e-05 -1.32943e-05 0 2.19198e-05 -1.20014e-05 0 1.97855e-05 -1.08649e-05 0 1.7847e-05 -9.86086e-06 0 1.60817e-05 -8.96508e-06 0 1.44694e-05 -8.18415e-06 0 1.29925e-05 -7.48869e-06 0 1.16355e-05 -6.87355e-06 0 1.03843e-05 -6.33634e-06 0 9.22655e-06 -5.85976e-06 0 8.15101e-06 -5.44537e-06 0 7.14726e-06 -5.08462e-06 0 6.20607e-06 -4.76943e-06 0 5.31877e-06 -4.50471e-06 0 4.4773e-06 -4.27881e-06 0 3.67432e-06 -4.09152e-06 0 2.90267e-06 -3.94331e-06 0 2.15572e-06 -3.82751e-06 0 1.42712e-06 -3.74726e-06 0 7.10533e-07 -3.69952e-06 0 0 -3.68155e-06 0 0.000103965 -1.94407e-05 0 8.32925e-05 -3.39861e-05 0 6.87547e-05 -3.25472e-05 0 5.93572e-05 -2.95272e-05 0 5.22871e-05 -2.65291e-05 0 4.65338e-05 -2.37742e-05 0 4.16533e-05 -2.12933e-05 0 3.74144e-05 -1.90781e-05 0 3.36801e-05 -1.71139e-05 0 3.03595e-05 -1.53669e-05 0 2.73892e-05 -1.3817e-05 0 2.47193e-05 -1.24586e-05 0 2.23106e-05 -1.12464e-05 0 2.0131e-05 -1.01803e-05 0 1.81525e-05 -9.23828e-06 0 1.63518e-05 -8.39781e-06 0 1.47081e-05 -7.66512e-06 0 1.32032e-05 -7.0127e-06 0 1.18213e-05 -6.43569e-06 0 1.05478e-05 -5.93186e-06 0 9.3699e-06 -5.48496e-06 0 8.27617e-06 -5.09643e-06 0 7.25584e-06 -4.75825e-06 0 6.29947e-06 -4.4628e-06 0 5.39816e-06 -4.21469e-06 0 4.54365e-06 -4.00299e-06 0 3.72845e-06 -3.8275e-06 0 2.94523e-06 -3.68863e-06 0 2.18721e-06 -3.58013e-06 0 1.44791e-06 -3.50495e-06 0 7.20867e-07 -3.46022e-06 0 0 -3.44339e-06 0 9.59517e-05 -1.68023e-05 0 8.23041e-05 -2.82931e-05 0 6.94409e-05 -2.8884e-05 0 6.02645e-05 -2.68697e-05 0 5.31796e-05 -2.44157e-05 0 4.73591e-05 -2.20051e-05 0 4.23998e-05 -1.9769e-05 0 3.80825e-05 -1.77421e-05 0 3.42746e-05 -1.59298e-05 0 3.08869e-05 -1.43105e-05 0 2.78563e-05 -1.287e-05 0 2.51325e-05 -1.16054e-05 0 2.2676e-05 -1.04758e-05 0 2.04542e-05 -9.48196e-06 0 1.84383e-05 -8.60356e-06 0 1.66044e-05 -7.81979e-06 0 1.49314e-05 -7.13656e-06 0 1.34003e-05 -6.52821e-06 0 1.19951e-05 -5.99023e-06 0 1.07006e-05 -5.52055e-06 0 9.50394e-06 -5.10399e-06 0 8.39317e-06 -4.74189e-06 0 7.35734e-06 -4.42676e-06 0 6.38676e-06 -4.15147e-06 0 5.47235e-06 -3.92033e-06 0 4.60566e-06 -3.72312e-06 0 3.77903e-06 -3.55964e-06 0 2.98499e-06 -3.4303e-06 0 2.21662e-06 -3.32925e-06 0 1.46733e-06 -3.25923e-06 0 7.30521e-07 -3.21758e-06 0 0 -3.2019e-06 0 9.08451e-05 -1.47696e-05 0 8.08409e-05 -2.37911e-05 0 6.97184e-05 -2.54456e-05 0 6.09488e-05 -2.42493e-05 0 5.39355e-05 -2.22948e-05 0 4.80906e-05 -2.02158e-05 0 4.30758e-05 -1.82212e-05 0 3.86945e-05 -1.63826e-05 0 3.48227e-05 -1.47236e-05 0 3.13749e-05 -1.32339e-05 0 2.82893e-05 -1.19048e-05 0 2.5516e-05 -1.07359e-05 0 2.30155e-05 -9.69086e-06 0 2.07545e-05 -8.77086e-06 0 1.87039e-05 -7.95754e-06 0 1.68392e-05 -7.23176e-06 0 1.51389e-05 -6.59908e-06 0 1.35835e-05 -6.03577e-06 0 1.21565e-05 -5.53768e-06 0 1.08427e-05 -5.10287e-06 0 9.62846e-06 -4.71728e-06 0 8.50185e-06 -4.38214e-06 0 7.45161e-06 -4.0905e-06 0 6.46783e-06 -3.83576e-06 0 5.54124e-06 -3.6219e-06 0 4.66323e-06 -3.43945e-06 0 3.82599e-06 -3.28822e-06 0 3.0219e-06 -3.16858e-06 0 2.24393e-06 -3.07511e-06 0 1.48536e-06 -3.01035e-06 0 7.39482e-07 -2.97182e-06 0 0 -2.95732e-06 0 8.72472e-05 -1.30469e-05 0 7.93292e-05 -2.01889e-05 0 6.97115e-05 -2.22838e-05 0 6.14406e-05 -2.17007e-05 0 5.45641e-05 -2.01841e-05 0 4.87309e-05 -1.84158e-05 0 4.3682e-05 -1.66556e-05 0 3.92501e-05 -1.50034e-05 0 3.53237e-05 -1.3498e-05 0 3.18227e-05 -1.21391e-05 0 2.86875e-05 -1.09231e-05 0 2.58693e-05 -9.85145e-06 0 2.33284e-05 -8.89262e-06 0 2.10314e-05 -8.04797e-06 0 1.89488e-05 -7.30105e-06 0 1.70558e-05 -6.63445e-06 0 1.53302e-05 -6.05335e-06 0 1.37524e-05 -5.53598e-06 0 1.23054e-05 -5.07855e-06 0 1.09736e-05 -4.67927e-06 0 9.74324e-06 -4.32523e-06 0 8.60203e-06 -4.01755e-06 0 7.53848e-06 -3.74983e-06 0 6.54254e-06 -3.51601e-06 0 5.60472e-06 -3.31972e-06 0 4.71628e-06 -3.15228e-06 0 3.86925e-06 -3.0135e-06 0 3.05591e-06 -2.90372e-06 0 2.26909e-06 -2.81795e-06 0 1.50197e-06 -2.75853e-06 0 7.47738e-07 -2.72318e-06 0 0 -2.70987e-06 0 8.45647e-05 -1.15106e-05 0 7.7937e-05 -1.72202e-05 0 6.95292e-05 -1.94005e-05 0 6.17764e-05 -1.92452e-05 0 5.50781e-05 -1.80975e-05 0 4.92852e-05 -1.66136e-05 0 4.42202e-05 -1.50773e-05 0 3.97499e-05 -1.36079e-05 0 3.57777e-05 -1.22554e-05 0 3.223e-05 -1.10281e-05 0 2.90507e-05 -9.92631e-06 0 2.61918e-05 -8.9535e-06 0 2.36143e-05 -8.08224e-06 0 2.12845e-05 -7.31428e-06 0 1.91727e-05 -6.63497e-06 0 1.72538e-05 -6.02863e-06 0 1.55052e-05 -5.50003e-06 0 1.39068e-05 -5.02944e-06 0 1.24415e-05 -4.61338e-06 0 1.10933e-05 -4.25025e-06 0 9.84816e-06 -3.92829e-06 0 8.69358e-06 -3.64851e-06 0 7.61787e-06 -3.4051e-06 0 6.6108e-06 -3.19253e-06 0 5.66272e-06 -3.0141e-06 0 4.76474e-06 -2.86189e-06 0 3.90878e-06 -2.73575e-06 0 3.08697e-06 -2.63597e-06 0 2.29207e-06 -2.55802e-06 0 1.51714e-06 -2.50402e-06 0 7.55278e-07 -2.47189e-06 0 0 -2.4598e-06 0 8.2499e-05 -1.00974e-05 0 7.67164e-05 -1.46935e-05 0 6.92525e-05 -1.67709e-05 0 6.19916e-05 -1.68922e-05 0 5.54917e-05 -1.60447e-05 0 4.97591e-05 -1.48158e-05 0 4.46929e-05 -1.3491e-05 0 4.01948e-05 -1.21993e-05 0 3.61846e-05 -1.09984e-05 0 3.25967e-05 -9.90283e-06 0 2.93783e-05 -8.91617e-06 0 2.64832e-05 -8.04333e-06 0 2.38727e-05 -7.26088e-06 0 2.15134e-05 -6.57078e-06 0 1.93753e-05 -5.96015e-06 0 1.74329e-05 -5.41505e-06 0 1.56634e-05 -4.93981e-06 0 1.40465e-05 -4.51673e-06 0 1.25647e-05 -4.1427e-06 0 1.12016e-05 -3.81628e-06 0 9.94304e-06 -3.52689e-06 0 8.77637e-06 -3.27544e-06 0 7.68966e-06 -3.05668e-06 0 6.67252e-06 -2.86566e-06 0 5.71516e-06 -2.70533e-06 0 4.80855e-06 -2.56858e-06 0 3.94451e-06 -2.45525e-06 0 3.11505e-06 -2.3656e-06 0 2.31284e-06 -2.29557e-06 0 1.53085e-06 -2.24706e-06 0 7.62094e-07 -2.2182e-06 0 0 -2.20734e-06 0 8.0883e-05 -8.77013e-06 0 7.56762e-05 -1.2479e-05 0 6.89372e-05 -1.43593e-05 0 6.21167e-05 -1.46418e-05 0 5.58186e-05 -1.4031e-05 0 5.01583e-05 -1.30272e-05 0 4.51019e-05 -1.19002e-05 0 4.05849e-05 -1.07806e-05 0 3.65441e-05 -9.72928e-06 0 3.2922e-05 -8.76512e-06 0 2.96696e-05 -7.8942e-06 0 2.67426e-05 -7.12229e-06 0 2.4103e-05 -6.4297e-06 0 2.17174e-05 -5.81849e-06 0 1.95559e-05 -5.27751e-06 0 1.75926e-05 -4.79451e-06 0 1.58046e-05 -4.37339e-06 0 1.41711e-05 -3.9985e-06 0 1.26744e-05 -3.66708e-06 0 1.12981e-05 -3.37787e-06 0 1.00276e-05 -3.12148e-06 0 8.85016e-06 -2.89873e-06 0 7.75365e-06 -2.70495e-06 0 6.72752e-06 -2.53575e-06 0 5.76189e-06 -2.39375e-06 0 4.84759e-06 -2.27263e-06 0 3.97634e-06 -2.17227e-06 0 3.14007e-06 -2.09288e-06 0 2.33135e-06 -2.03087e-06 0 1.54307e-06 -1.98791e-06 0 7.68166e-07 -1.96236e-06 0 0 -1.95274e-06 0 7.96008e-05 -7.50534e-06 0 7.48023e-05 -1.04883e-05 0 6.86208e-05 -1.21284e-05 0 6.21803e-05 -1.24875e-05 0 5.60744e-05 -1.20585e-05 0 5.04912e-05 -1.12509e-05 0 4.54517e-05 -1.03079e-05 0 4.0923e-05 -9.3541e-06 0 3.68577e-05 -8.45002e-06 0 3.32068e-05 -7.61676e-06 0 2.99252e-05 -6.86192e-06 0 2.69705e-05 -6.19172e-06 0 2.43055e-05 -5.58986e-06 0 2.18969e-05 -5.05843e-06 0 1.97148e-05 -4.58792e-06 0 1.77331e-05 -4.16779e-06 0 1.59287e-05 -3.80148e-06 0 1.42807e-05 -3.47536e-06 0 1.2771e-05 -3.18708e-06 0 1.1383e-05 -2.93552e-06 0 1.0102e-05 -2.71252e-06 0 8.91508e-06 -2.51879e-06 0 7.80993e-06 -2.35028e-06 0 6.7759e-06 -2.20314e-06 0 5.80299e-06 -2.07967e-06 0 4.88193e-06 -1.97436e-06 0 4.00434e-06 -1.88709e-06 0 3.16208e-06 -1.81807e-06 0 2.34762e-06 -1.76416e-06 0 1.55381e-06 -1.72681e-06 0 7.73506e-07 -1.7046e-06 0 0 -1.69623e-06 0 7.85883e-05 -6.28688e-06 0 7.40832e-05 -8.66016e-06 0 6.83261e-05 -1.00437e-05 0 6.22026e-05 -1.04192e-05 0 5.62706e-05 -1.01261e-05 0 5.07632e-05 -9.48859e-06 0 4.57447e-05 -8.71623e-06 0 4.12095e-05 -7.92192e-06 0 3.71252e-05 -7.16251e-06 0 3.34507e-05 -6.45942e-06 0 3.01446e-05 -5.82083e-06 0 2.71663e-05 -5.25292e-06 0 2.44795e-05 -4.74253e-06 0 2.20513e-05 -4.29163e-06 0 1.98514e-05 -3.89232e-06 0 1.7854e-05 -3.53572e-06 0 1.60355e-05 -3.22477e-06 0 1.4375e-05 -2.94796e-06 0 1.28541e-05 -2.70326e-06 0 1.1456e-05 -2.48974e-06 0 1.0166e-05 -2.30048e-06 0 8.9709e-06 -2.13606e-06 0 7.85832e-06 -1.99305e-06 0 6.8175e-06 -1.86819e-06 0 5.83832e-06 -1.76341e-06 0 4.91145e-06 -1.67406e-06 0 4.02841e-06 -1.60002e-06 0 3.18099e-06 -1.54145e-06 0 2.36162e-06 -1.49571e-06 0 1.56305e-06 -1.46402e-06 0 7.78096e-07 -1.44518e-06 0 0 -1.43808e-06 0 7.77979e-05 -5.10305e-06 0 7.35051e-05 -6.95071e-06 0 6.80676e-05 -8.07456e-06 0 6.22e-05 -8.42462e-06 0 5.6418e-05 -8.23042e-06 0 5.09802e-05 -7.74031e-06 0 4.59839e-05 -7.12639e-06 0 4.14459e-05 -6.48568e-06 0 3.73473e-05 -5.86843e-06 0 3.36537e-05 -5.29469e-06 0 3.03275e-05 -4.77237e-06 0 2.73298e-05 -4.30721e-06 0 2.46249e-05 -3.88887e-06 0 2.21802e-05 -3.51912e-06 0 1.99656e-05 -3.19161e-06 0 1.79551e-05 -2.89909e-06 0 1.61248e-05 -2.64401e-06 0 1.44538e-05 -2.41693e-06 0 1.29235e-05 -2.21619e-06 0 1.1517e-05 -2.04105e-06 0 1.02195e-05 -1.8858e-06 0 9.01756e-06 -1.75094e-06 0 7.89877e-06 -1.63365e-06 0 6.85227e-06 -1.53125e-06 0 5.86786e-06 -1.44532e-06 0 4.93612e-06 -1.37204e-06 0 4.04852e-06 -1.31132e-06 0 3.1968e-06 -1.2633e-06 0 2.37331e-06 -1.22579e-06 0 1.57076e-06 -1.1998e-06 0 7.81932e-07 -1.18435e-06 0 0 -1.17853e-06 0 7.71971e-05 -3.94492e-06 0 7.30563e-05 -5.32742e-06 0 6.78542e-05 -6.19434e-06 0 6.21852e-05 -6.49034e-06 0 5.65255e-05 -6.36666e-06 0 5.11474e-05 -6.00505e-06 0 4.61717e-05 -5.53904e-06 0 4.16335e-05 -5.04665e-06 0 3.75243e-05 -4.56927e-06 0 3.3816e-05 -4.12404e-06 0 3.0474e-05 -3.71795e-06 0 2.74608e-05 -3.35586e-06 0 2.47415e-05 -3.03003e-06 0 2.22837e-05 -2.74194e-06 0 2.00573e-05 -2.48671e-06 0 1.80361e-05 -2.25873e-06 0 1.61965e-05 -2.05992e-06 0 1.4517e-05 -1.88292e-06 0 1.29792e-05 -1.72647e-06 0 1.1566e-05 -1.58997e-06 0 1.02624e-05 -1.46898e-06 0 9.05498e-06 -1.36388e-06 0 7.93121e-06 -1.27247e-06 0 6.88015e-06 -1.19267e-06 0 5.89154e-06 -1.12571e-06 0 4.9559e-06 -1.06861e-06 0 4.06465e-06 -1.02129e-06 0 3.20947e-06 -9.83875e-07 0 2.38268e-06 -9.54648e-07 0 1.57695e-06 -9.34403e-07 0 7.85008e-07 -9.2236e-07 0 0 -9.17827e-07 0 7.67633e-05 -2.80536e-06 0 7.27274e-05 -3.76516e-06 0 6.76908e-05 -4.37981e-06 0 6.21669e-05 -4.60281e-06 0 5.66002e-05 -4.52866e-06 0 5.1269e-05 -4.28085e-06 0 4.63106e-05 -3.95424e-06 0 4.17732e-05 -3.60582e-06 0 3.76567e-05 -3.26633e-06 0 3.39377e-05 -2.9489e-06 0 3.05839e-05 -2.65893e-06 0 2.75592e-05 -2.40015e-06 0 2.48291e-05 -2.16717e-06 0 2.23614e-05 -1.96113e-06 0 2.01261e-05 -1.77855e-06 0 1.80971e-05 -1.61546e-06 0 1.62503e-05 -1.47323e-06 0 1.45645e-05 -1.3466e-06 0 1.30211e-05 -1.23468e-06 0 1.16028e-05 -1.13702e-06 0 1.02947e-05 -1.05047e-06 0 9.08311e-06 -9.75287e-07 0 7.9556e-06 -9.09901e-07 0 6.90111e-06 -8.52818e-07 0 5.90934e-06 -8.04922e-07 0 4.97077e-06 -7.64077e-07 0 4.07678e-06 -7.30235e-07 0 3.219e-06 -7.03471e-07 0 2.38973e-06 -6.82567e-07 0 1.5816e-06 -6.68086e-07 0 7.87319e-07 -6.59473e-07 0 0 -6.56231e-07 0 7.64815e-05 -1.67837e-06 0 7.25116e-05 -2.24358e-06 0 6.75805e-05 -2.61036e-06 0 6.21516e-05 -2.74847e-06 0 5.66472e-05 -2.70952e-06 0 5.13484e-05 -2.56502e-06 0 4.64023e-05 -2.37159e-06 0 4.18659e-05 -2.16388e-06 0 3.77449e-05 -1.96081e-06 0 3.40189e-05 -1.77059e-06 0 3.06573e-05 -1.59666e-06 0 2.7625e-05 -1.44133e-06 0 2.48876e-05 -1.30145e-06 0 2.24134e-05 -1.17772e-06 0 2.01722e-05 -1.06806e-06 0 1.81378e-05 -9.70108e-07 0 1.62863e-05 -8.8468e-07 0 1.45963e-05 -8.08627e-07 0 1.30491e-05 -7.41401e-07 0 1.16274e-05 -6.82748e-07 0 1.03162e-05 -6.30763e-07 0 9.10191e-06 -5.85608e-07 0 7.9719e-06 -5.46338e-07 0 6.91512e-06 -5.12056e-07 0 5.92124e-06 -4.83291e-07 0 4.98071e-06 -4.58761e-07 0 4.08488e-06 -4.38437e-07 0 3.22537e-06 -4.22364e-07 0 2.39444e-06 -4.0981e-07 0 1.58471e-06 -4.01114e-07 0 7.88864e-07 -3.95942e-07 0 0 -3.93995e-07 0 7.63423e-05 -5.58661e-07 0 7.24044e-05 -7.45324e-07 0 6.75248e-05 -8.67235e-07 0 6.21429e-05 -9.13962e-07 0 5.66699e-05 -9.01887e-07 0 5.13876e-05 -8.54418e-07 0 4.6448e-05 -7.90365e-07 0 4.19123e-05 -7.21353e-07 0 3.7789e-05 -6.53768e-07 0 3.40596e-05 -5.90404e-07 0 3.06942e-05 -5.32434e-07 0 2.7658e-05 -4.80649e-07 0 2.4917e-05 -4.34008e-07 0 2.24395e-05 -3.92746e-07 0 2.01953e-05 -3.56177e-07 0 1.81582e-05 -3.23508e-07 0 1.63044e-05 -2.95017e-07 0 1.46122e-05 -2.69653e-07 0 1.30631e-05 -2.47233e-07 0 1.16398e-05 -2.27672e-07 0 1.0327e-05 -2.10334e-07 0 9.11136e-06 -1.95276e-07 0 7.98008e-06 -1.82179e-07 0 6.92215e-06 -1.70746e-07 0 5.92721e-06 -1.61153e-07 0 4.9857e-06 -1.52973e-07 0 4.08895e-06 -1.46195e-07 0 3.22857e-06 -1.40835e-07 0 2.3968e-06 -1.36649e-07 0 1.58627e-06 -1.33749e-07 0 7.8964e-07 -1.32024e-07 0 0 -1.31374e-07 0 7.63423e-05 5.58661e-07 0 7.24044e-05 7.45324e-07 0 6.75248e-05 8.67235e-07 0 6.21429e-05 9.13962e-07 0 5.66699e-05 9.01887e-07 0 5.13876e-05 8.54418e-07 0 4.6448e-05 7.90365e-07 0 4.19123e-05 7.21353e-07 0 3.7789e-05 6.53768e-07 0 3.40596e-05 5.90404e-07 0 3.06942e-05 5.32434e-07 0 2.7658e-05 4.80649e-07 0 2.4917e-05 4.34008e-07 0 2.24395e-05 3.92746e-07 0 2.01953e-05 3.56177e-07 0 1.81582e-05 3.23508e-07 0 1.63044e-05 2.95017e-07 0 1.46122e-05 2.69653e-07 0 1.30631e-05 2.47233e-07 0 1.16398e-05 2.27672e-07 0 1.0327e-05 2.10334e-07 0 9.11136e-06 1.95276e-07 0 7.98008e-06 1.82179e-07 0 6.92215e-06 1.70746e-07 0 5.92721e-06 1.61153e-07 0 4.9857e-06 1.52973e-07 0 4.08895e-06 1.46195e-07 0 3.22857e-06 1.40835e-07 0 2.3968e-06 1.36649e-07 0 1.58627e-06 1.33749e-07 0 7.8964e-07 1.32024e-07 0 0 1.31374e-07 0 7.64815e-05 1.67837e-06 0 7.25116e-05 2.24358e-06 0 6.75805e-05 2.61036e-06 0 6.21516e-05 2.74847e-06 0 5.66472e-05 2.70952e-06 0 5.13484e-05 2.56502e-06 0 4.64023e-05 2.37159e-06 0 4.18659e-05 2.16388e-06 0 3.77449e-05 1.96081e-06 0 3.40189e-05 1.77059e-06 0 3.06573e-05 1.59666e-06 0 2.7625e-05 1.44133e-06 0 2.48876e-05 1.30145e-06 0 2.24134e-05 1.17772e-06 0 2.01722e-05 1.06806e-06 0 1.81378e-05 9.70108e-07 0 1.62863e-05 8.8468e-07 0 1.45963e-05 8.08627e-07 0 1.30491e-05 7.41401e-07 0 1.16274e-05 6.82748e-07 0 1.03162e-05 6.30763e-07 0 9.10191e-06 5.85608e-07 0 7.9719e-06 5.46338e-07 0 6.91512e-06 5.12056e-07 0 5.92124e-06 4.83291e-07 0 4.98071e-06 4.58761e-07 0 4.08488e-06 4.38437e-07 0 3.22537e-06 4.22364e-07 0 2.39444e-06 4.0981e-07 0 1.58471e-06 4.01114e-07 0 7.88864e-07 3.95942e-07 0 0 3.93995e-07 0 7.67633e-05 2.80536e-06 0 7.27274e-05 3.76516e-06 0 6.76908e-05 4.37981e-06 0 6.21669e-05 4.60281e-06 0 5.66002e-05 4.52866e-06 0 5.1269e-05 4.28085e-06 0 4.63106e-05 3.95424e-06 0 4.17732e-05 3.60582e-06 0 3.76567e-05 3.26633e-06 0 3.39377e-05 2.9489e-06 0 3.05839e-05 2.65893e-06 0 2.75592e-05 2.40015e-06 0 2.48291e-05 2.16717e-06 0 2.23614e-05 1.96113e-06 0 2.01261e-05 1.77855e-06 0 1.80971e-05 1.61546e-06 0 1.62503e-05 1.47323e-06 0 1.45645e-05 1.3466e-06 0 1.30211e-05 1.23468e-06 0 1.16028e-05 1.13702e-06 0 1.02947e-05 1.05047e-06 0 9.08311e-06 9.75287e-07 0 7.9556e-06 9.09901e-07 0 6.90111e-06 8.52818e-07 0 5.90934e-06 8.04922e-07 0 4.97077e-06 7.64077e-07 0 4.07678e-06 7.30235e-07 0 3.219e-06 7.03471e-07 0 2.38973e-06 6.82567e-07 0 1.5816e-06 6.68086e-07 0 7.87319e-07 6.59473e-07 0 0 6.56231e-07 0 7.71971e-05 3.94492e-06 0 7.30563e-05 5.32742e-06 0 6.78542e-05 6.19434e-06 0 6.21852e-05 6.49034e-06 0 5.65255e-05 6.36666e-06 0 5.11474e-05 6.00505e-06 0 4.61717e-05 5.53904e-06 0 4.16335e-05 5.04665e-06 0 3.75243e-05 4.56927e-06 0 3.3816e-05 4.12404e-06 0 3.0474e-05 3.71795e-06 0 2.74608e-05 3.35586e-06 0 2.47415e-05 3.03003e-06 0 2.22837e-05 2.74194e-06 0 2.00573e-05 2.48671e-06 0 1.80361e-05 2.25873e-06 0 1.61965e-05 2.05992e-06 0 1.4517e-05 1.88292e-06 0 1.29792e-05 1.72647e-06 0 1.1566e-05 1.58997e-06 0 1.02624e-05 1.46898e-06 0 9.05498e-06 1.36388e-06 0 7.93121e-06 1.27247e-06 0 6.88015e-06 1.19267e-06 0 5.89154e-06 1.12571e-06 0 4.9559e-06 1.06861e-06 0 4.06465e-06 1.02129e-06 0 3.20947e-06 9.83875e-07 0 2.38268e-06 9.54648e-07 0 1.57695e-06 9.34403e-07 0 7.85008e-07 9.2236e-07 0 0 9.17827e-07 0 7.77979e-05 5.10305e-06 0 7.35051e-05 6.95071e-06 0 6.80676e-05 8.07456e-06 0 6.22e-05 8.42462e-06 0 5.6418e-05 8.23042e-06 0 5.09802e-05 7.74031e-06 0 4.59839e-05 7.12639e-06 0 4.14459e-05 6.48568e-06 0 3.73473e-05 5.86843e-06 0 3.36537e-05 5.29469e-06 0 3.03275e-05 4.77237e-06 0 2.73298e-05 4.30721e-06 0 2.46249e-05 3.88887e-06 0 2.21802e-05 3.51912e-06 0 1.99656e-05 3.19161e-06 0 1.79551e-05 2.89909e-06 0 1.61248e-05 2.64401e-06 0 1.44538e-05 2.41693e-06 0 1.29235e-05 2.21619e-06 0 1.1517e-05 2.04105e-06 0 1.02195e-05 1.8858e-06 0 9.01756e-06 1.75094e-06 0 7.89877e-06 1.63365e-06 0 6.85227e-06 1.53125e-06 0 5.86786e-06 1.44532e-06 0 4.93612e-06 1.37204e-06 0 4.04852e-06 1.31132e-06 0 3.1968e-06 1.2633e-06 0 2.37331e-06 1.22579e-06 0 1.57076e-06 1.1998e-06 0 7.81932e-07 1.18435e-06 0 0 1.17853e-06 0 7.85883e-05 6.28688e-06 0 7.40832e-05 8.66016e-06 0 6.83261e-05 1.00437e-05 0 6.22026e-05 1.04192e-05 0 5.62706e-05 1.01261e-05 0 5.07632e-05 9.48859e-06 0 4.57447e-05 8.71623e-06 0 4.12095e-05 7.92192e-06 0 3.71252e-05 7.16251e-06 0 3.34507e-05 6.45942e-06 0 3.01446e-05 5.82083e-06 0 2.71663e-05 5.25292e-06 0 2.44795e-05 4.74253e-06 0 2.20513e-05 4.29163e-06 0 1.98514e-05 3.89232e-06 0 1.7854e-05 3.53572e-06 0 1.60355e-05 3.22477e-06 0 1.4375e-05 2.94796e-06 0 1.28541e-05 2.70326e-06 0 1.1456e-05 2.48974e-06 0 1.0166e-05 2.30048e-06 0 8.9709e-06 2.13606e-06 0 7.85832e-06 1.99305e-06 0 6.8175e-06 1.86819e-06 0 5.83832e-06 1.76341e-06 0 4.91145e-06 1.67406e-06 0 4.02841e-06 1.60002e-06 0 3.18099e-06 1.54145e-06 0 2.36162e-06 1.49571e-06 0 1.56305e-06 1.46402e-06 0 7.78096e-07 1.44518e-06 0 0 1.43808e-06 0 7.96008e-05 7.50534e-06 0 7.48023e-05 1.04883e-05 0 6.86208e-05 1.21284e-05 0 6.21803e-05 1.24875e-05 0 5.60744e-05 1.20585e-05 0 5.04912e-05 1.12509e-05 0 4.54517e-05 1.03079e-05 0 4.0923e-05 9.3541e-06 0 3.68577e-05 8.45002e-06 0 3.32068e-05 7.61676e-06 0 2.99252e-05 6.86192e-06 0 2.69705e-05 6.19172e-06 0 2.43055e-05 5.58986e-06 0 2.18969e-05 5.05843e-06 0 1.97148e-05 4.58792e-06 0 1.77331e-05 4.16779e-06 0 1.59287e-05 3.80148e-06 0 1.42807e-05 3.47536e-06 0 1.2771e-05 3.18708e-06 0 1.1383e-05 2.93552e-06 0 1.0102e-05 2.71252e-06 0 8.91508e-06 2.51879e-06 0 7.80993e-06 2.35028e-06 0 6.7759e-06 2.20314e-06 0 5.80299e-06 2.07967e-06 0 4.88193e-06 1.97436e-06 0 4.00434e-06 1.88709e-06 0 3.16208e-06 1.81807e-06 0 2.34762e-06 1.76416e-06 0 1.55381e-06 1.72681e-06 0 7.73506e-07 1.7046e-06 0 0 1.69623e-06 0 8.0883e-05 8.77013e-06 0 7.56762e-05 1.2479e-05 0 6.89372e-05 1.43593e-05 0 6.21167e-05 1.46418e-05 0 5.58186e-05 1.4031e-05 0 5.01583e-05 1.30272e-05 0 4.51019e-05 1.19002e-05 0 4.05849e-05 1.07806e-05 0 3.65441e-05 9.72928e-06 0 3.2922e-05 8.76512e-06 0 2.96696e-05 7.8942e-06 0 2.67426e-05 7.12229e-06 0 2.4103e-05 6.4297e-06 0 2.17174e-05 5.81849e-06 0 1.95559e-05 5.27751e-06 0 1.75926e-05 4.79451e-06 0 1.58046e-05 4.37339e-06 0 1.41711e-05 3.9985e-06 0 1.26744e-05 3.66708e-06 0 1.12981e-05 3.37787e-06 0 1.00276e-05 3.12148e-06 0 8.85016e-06 2.89873e-06 0 7.75365e-06 2.70495e-06 0 6.72752e-06 2.53575e-06 0 5.76189e-06 2.39375e-06 0 4.84759e-06 2.27263e-06 0 3.97634e-06 2.17227e-06 0 3.14007e-06 2.09288e-06 0 2.33135e-06 2.03087e-06 0 1.54307e-06 1.98791e-06 0 7.68166e-07 1.96236e-06 0 0 1.95274e-06 0 8.2499e-05 1.00974e-05 0 7.67164e-05 1.46935e-05 0 6.92525e-05 1.67709e-05 0 6.19916e-05 1.68922e-05 0 5.54917e-05 1.60447e-05 0 4.97591e-05 1.48158e-05 0 4.46929e-05 1.3491e-05 0 4.01948e-05 1.21993e-05 0 3.61846e-05 1.09984e-05 0 3.25967e-05 9.90283e-06 0 2.93783e-05 8.91617e-06 0 2.64832e-05 8.04333e-06 0 2.38727e-05 7.26088e-06 0 2.15134e-05 6.57078e-06 0 1.93753e-05 5.96015e-06 0 1.74329e-05 5.41505e-06 0 1.56634e-05 4.93981e-06 0 1.40465e-05 4.51673e-06 0 1.25647e-05 4.1427e-06 0 1.12016e-05 3.81628e-06 0 9.94304e-06 3.52689e-06 0 8.77637e-06 3.27544e-06 0 7.68966e-06 3.05668e-06 0 6.67252e-06 2.86566e-06 0 5.71516e-06 2.70533e-06 0 4.80855e-06 2.56858e-06 0 3.94451e-06 2.45525e-06 0 3.11505e-06 2.3656e-06 0 2.31284e-06 2.29557e-06 0 1.53085e-06 2.24706e-06 0 7.62094e-07 2.2182e-06 0 0 2.20734e-06 0 8.45647e-05 1.15106e-05 0 7.7937e-05 1.72202e-05 0 6.95292e-05 1.94005e-05 0 6.17764e-05 1.92452e-05 0 5.50781e-05 1.80975e-05 0 4.92852e-05 1.66136e-05 0 4.42202e-05 1.50773e-05 0 3.97499e-05 1.36079e-05 0 3.57777e-05 1.22554e-05 0 3.223e-05 1.10281e-05 0 2.90507e-05 9.92631e-06 0 2.61918e-05 8.9535e-06 0 2.36143e-05 8.08224e-06 0 2.12845e-05 7.31428e-06 0 1.91727e-05 6.63497e-06 0 1.72538e-05 6.02863e-06 0 1.55052e-05 5.50003e-06 0 1.39068e-05 5.02944e-06 0 1.24415e-05 4.61338e-06 0 1.10933e-05 4.25025e-06 0 9.84816e-06 3.92829e-06 0 8.69358e-06 3.64851e-06 0 7.61787e-06 3.4051e-06 0 6.6108e-06 3.19253e-06 0 5.66272e-06 3.0141e-06 0 4.76474e-06 2.86189e-06 0 3.90878e-06 2.73575e-06 0 3.08697e-06 2.63597e-06 0 2.29207e-06 2.55802e-06 0 1.51714e-06 2.50402e-06 0 7.55278e-07 2.47189e-06 0 0 2.4598e-06 0 8.72472e-05 1.30469e-05 0 7.93292e-05 2.01889e-05 0 6.97115e-05 2.22838e-05 0 6.14406e-05 2.17007e-05 0 5.45641e-05 2.01841e-05 0 4.87309e-05 1.84158e-05 0 4.3682e-05 1.66556e-05 0 3.92501e-05 1.50034e-05 0 3.53237e-05 1.3498e-05 0 3.18227e-05 1.21391e-05 0 2.86875e-05 1.09231e-05 0 2.58693e-05 9.85145e-06 0 2.33284e-05 8.89262e-06 0 2.10314e-05 8.04797e-06 0 1.89488e-05 7.30105e-06 0 1.70558e-05 6.63445e-06 0 1.53302e-05 6.05335e-06 0 1.37524e-05 5.53598e-06 0 1.23054e-05 5.07855e-06 0 1.09736e-05 4.67927e-06 0 9.74324e-06 4.32523e-06 0 8.60203e-06 4.01755e-06 0 7.53848e-06 3.74983e-06 0 6.54254e-06 3.51601e-06 0 5.60472e-06 3.31972e-06 0 4.71628e-06 3.15228e-06 0 3.86925e-06 3.0135e-06 0 3.05591e-06 2.90372e-06 0 2.26909e-06 2.81795e-06 0 1.50197e-06 2.75853e-06 0 7.47738e-07 2.72318e-06 0 0 2.70987e-06 0 9.08451e-05 1.47696e-05 0 8.08409e-05 2.37911e-05 0 6.97184e-05 2.54456e-05 0 6.09488e-05 2.42493e-05 0 5.39355e-05 2.22948e-05 0 4.80906e-05 2.02158e-05 0 4.30758e-05 1.82212e-05 0 3.86945e-05 1.63826e-05 0 3.48227e-05 1.47236e-05 0 3.13749e-05 1.32339e-05 0 2.82893e-05 1.19048e-05 0 2.5516e-05 1.07359e-05 0 2.30155e-05 9.69086e-06 0 2.07545e-05 8.77086e-06 0 1.87039e-05 7.95754e-06 0 1.68392e-05 7.23176e-06 0 1.51389e-05 6.59908e-06 0 1.35835e-05 6.03577e-06 0 1.21565e-05 5.53768e-06 0 1.08427e-05 5.10287e-06 0 9.62846e-06 4.71728e-06 0 8.50185e-06 4.38214e-06 0 7.45161e-06 4.0905e-06 0 6.46783e-06 3.83576e-06 0 5.54124e-06 3.6219e-06 0 4.66323e-06 3.43945e-06 0 3.82599e-06 3.28822e-06 0 3.0219e-06 3.16858e-06 0 2.24393e-06 3.07511e-06 0 1.48536e-06 3.01035e-06 0 7.39482e-07 2.97182e-06 0 0 2.95732e-06 0 9.59517e-05 1.68023e-05 0 8.23041e-05 2.82931e-05 0 6.94409e-05 2.8884e-05 0 6.02645e-05 2.68697e-05 0 5.31796e-05 2.44157e-05 0 4.73591e-05 2.20051e-05 0 4.23998e-05 1.9769e-05 0 3.80825e-05 1.77421e-05 0 3.42746e-05 1.59298e-05 0 3.08869e-05 1.43105e-05 0 2.78563e-05 1.287e-05 0 2.51325e-05 1.16054e-05 0 2.2676e-05 1.04758e-05 0 2.04542e-05 9.48196e-06 0 1.84383e-05 8.60356e-06 0 1.66044e-05 7.81979e-06 0 1.49314e-05 7.13656e-06 0 1.34003e-05 6.52821e-06 0 1.19951e-05 5.99023e-06 0 1.07006e-05 5.52055e-06 0 9.50394e-06 5.10399e-06 0 8.39317e-06 4.74189e-06 0 7.35734e-06 4.42676e-06 0 6.38676e-06 4.15147e-06 0 5.47235e-06 3.92033e-06 0 4.60566e-06 3.72312e-06 0 3.77903e-06 3.55964e-06 0 2.98499e-06 3.4303e-06 0 2.21662e-06 3.32925e-06 0 1.46733e-06 3.25923e-06 0 7.30521e-07 3.21758e-06 0 0 3.2019e-06 0 0.000103965 1.94407e-05 0 8.32925e-05 3.39861e-05 0 6.87547e-05 3.25472e-05 0 5.93572e-05 2.95272e-05 0 5.22871e-05 2.65291e-05 0 4.65338e-05 2.37742e-05 0 4.16533e-05 2.12933e-05 0 3.74144e-05 1.90781e-05 0 3.36801e-05 1.71139e-05 0 3.03595e-05 1.53669e-05 0 2.73892e-05 1.3817e-05 0 2.47193e-05 1.24586e-05 0 2.23106e-05 1.12464e-05 0 2.0131e-05 1.01803e-05 0 1.81525e-05 9.23828e-06 0 1.63518e-05 8.39781e-06 0 1.47081e-05 7.66512e-06 0 1.32032e-05 7.0127e-06 0 1.18213e-05 6.43569e-06 0 1.05478e-05 5.93186e-06 0 9.3699e-06 5.48496e-06 0 8.27617e-06 5.09643e-06 0 7.25584e-06 4.75825e-06 0 6.29947e-06 4.4628e-06 0 5.39816e-06 4.21469e-06 0 4.54365e-06 4.00299e-06 0 3.72845e-06 3.8275e-06 0 2.94523e-06 3.68863e-06 0 2.18721e-06 3.58013e-06 0 1.44791e-06 3.50495e-06 0 7.20867e-07 3.46022e-06 0 0 3.44339e-06 0 0.000119748 2.37722e-05 0 8.29669e-05 4.09008e-05 0 6.75487e-05 3.6316e-05 0 5.82065e-05 3.21746e-05 0 5.12533e-05 2.86143e-05 0 4.56135e-05 2.55126e-05 0 4.08364e-05 2.27879e-05 0 3.66907e-05 2.03866e-05 0 3.30398e-05 1.82732e-05 0 2.97934e-05 1.6401e-05 0 2.6889e-05 1.47441e-05 0 2.42772e-05 1.32943e-05 0 2.19198e-05 1.20014e-05 0 1.97855e-05 1.08649e-05 0 1.7847e-05 9.86086e-06 0 1.60817e-05 8.96508e-06 0 1.44694e-05 8.18415e-06 0 1.29925e-05 7.48869e-06 0 1.16355e-05 6.87355e-06 0 1.03843e-05 6.33634e-06 0 9.22655e-06 5.85976e-06 0 8.15101e-06 5.44537e-06 0 7.14726e-06 5.08462e-06 0 6.20607e-06 4.76943e-06 0 5.31877e-06 4.50471e-06 0 4.4773e-06 4.27881e-06 0 3.67432e-06 4.09152e-06 0 2.90267e-06 3.94331e-06 0 2.15572e-06 3.82751e-06 0 1.42712e-06 3.74726e-06 0 7.10533e-07 3.69952e-06 0 0 3.68155e-06 0 0.000274547 0.000126957 0 8.03619e-05 4.82123e-05 0 6.57714e-05 4.00095e-05 0 5.68086e-05 3.47576e-05 0 5.00789e-05 3.06491e-05 0 4.45993e-05 2.72092e-05 0 3.99504e-05 2.42466e-05 0 3.59126e-05 2.16638e-05 0 3.23548e-05 1.94048e-05 0 2.91896e-05 1.74108e-05 0 2.63562e-05 1.56499e-05 0 2.38068e-05 1.41112e-05 0 2.15043e-05 1.27399e-05 0 1.94183e-05 1.15349e-05 0 1.75224e-05 1.04705e-05 0 1.57947e-05 9.52091e-06 0 1.42158e-05 8.693e-06 0 1.27685e-05 7.95562e-06 0 1.14379e-05 7.3033e-06 0 1.02105e-05 6.73353e-06 0 9.07408e-06 6.22799e-06 0 8.01789e-06 5.78834e-06 0 7.03174e-06 5.40556e-06 0 6.10669e-06 5.07105e-06 0 5.23429e-06 4.79008e-06 0 4.40668e-06 4.55028e-06 0 3.61671e-06 4.35146e-06 0 2.85737e-06 4.19411e-06 0 2.12221e-06 4.07115e-06 0 1.40499e-06 3.98595e-06 0 6.99533e-07 3.93525e-06 0 0 3.91617e-06 0 </DataArray> 
</PointData> 
<Points> 
<DataArray type="Float32" NumberOfComponents="3"> 