<?xml version="1.0"?> 
<VTKFile type="StructuredGrid" version="0.1"> 
<StructuredGrid WholeExtent="0 31 0 31 0 0"> 
<Piece Extent="0 31 0 31 0 0"> 
<PointData>
<DataArray type="Float32" Name="u" format="ascii" NumberOfComponents="3"> 
0 0 0 4.28294e-05 3.48801e-05 0 7.2945e-05 5.07607e-05 0 0.000101812 6.03117e-05 0 0.000130785 6.59533e-05 0 0.000160325 6.92687e-05 0 0.000190458 7.10617e-05 0 0.000221179 7.1953e-05 0 0.000252364 7.23024e-05 0 0.00028392 7.23616e-05 0 0.000315743 7.22778e-05 0 0.000347755 7.21402e-05 0 0.000379891 7.19963e-05 0 0.000412107 7.18689e-05 0 0.000444371 7.17662e-05 0 0.000476661 7.16886e-05 0 0.000508964 7.16327e-05 0 0.000541273 7.1594e-05 0 0.000573582 7.15682e-05 0 0.00060589 7.15512e-05 0 0.000638195 7.15403e-05 0 0.000670497 7.1533e-05 0 0.000702797 7.15278e-05 0 0.000735093 7.15238e-05 0 0.000767387 7.15202e-05 0 0.000799678 7.15167e-05 0 0.000831967 7.15131e-05 0 0.000864253 7.15093e-05 0 0.000896538 7.15054e-05 0 0.00092882 7.15013e-05 0 0.000961101 7.14969e-05 0 0.000993381 7.14918e-05 0 0 0 0 3.68083e-05 3.01176e-05 0 6.90639e-05 4.64296e-05 0 9.94176e-05 5.61284e-05 0 0.000129314 6.17195e-05 0 0.000159451 6.49639e-05 0 0.000189989 6.66894e-05 0 0.000220942 6.75077e-05 0 0.000252277 6.78072e-05 0 0.000283909 6.78222e-05 0 0.000315772 6.771e-05 0 0.000347797 6.7551e-05 0 0.000379935 6.73939e-05 0 0.000412146 6.72578e-05 0 0.000444402 6.71502e-05 0 0.000476684 6.70698e-05 0 0.00050898 6.70126e-05 0 0.000541283 6.69736e-05 0 0.000573587 6.69477e-05 0 0.000605891 6.69311e-05 0 0.000638193 6.69205e-05 0 0.000670493 6.69136e-05 0 0.00070279 6.69088e-05 0 0.000735085 6.69052e-05 0 0.000767377 6.6902e-05 0 0.000799668 6.68988e-05 0 0.000831956 6.68956e-05 0 0.000864242 6.68922e-05 0 0.000896526 6.68886e-05 0 0.000928808 6.68848e-05 0 0.000961089 6.68806e-05 0 0.000993368 6.68761e-05 0 0 0 0 3.28071e-05 2.56163e-05 0 6.58312e-05 4.21016e-05 0 9.7052e-05 5.17722e-05 0 0.000127794 5.7412e-05 0 0.000158466 6.05887e-05 0 0.000189399 6.2269e-05 0 0.000220608 6.30339e-05 0 0.000252105 6.32899e-05 0 0.000283837 6.32722e-05 0 0.000315756 6.31344e-05 0 0.00034781 6.29587e-05 0 0.000379959 6.27897e-05 0 0.000412173 6.26466e-05 0 0.000444426 6.25345e-05 0 0.000476704 6.24517e-05 0 0.000508995 6.23933e-05 0 0.000541292 6.23537e-05 0 0.000573592 6.23279e-05 0 0.000605893 6.23114e-05 0 0.000638192 6.23011e-05 0 0.000670489 6.22945e-05 0 0.000702784 6.22901e-05 0 0.000735078 6.22868e-05 0 0.000767369 6.22839e-05 0 0.000799658 6.22811e-05 0 0.000831946 6.22782e-05 0 0.000864231 6.22751e-05 0 0.000896515 6.22718e-05 0 0.000928797 6.22682e-05 0 0.000961078 6.22644e-05 0 0.000993357 6.22602e-05 0 0 0 0 3.04248e-05 2.18883e-05 0 6.31252e-05 3.77984e-05 0 9.4921e-05 4.7396e-05 0 0.000126258 5.30206e-05 0 0.000157434 5.61633e-05 0 0.000188726 5.77981e-05 0 0.000220198 5.85268e-05 0 0.000251868 5.87477e-05 0 0.000283714 5.87054e-05 0 0.000315701 5.85483e-05 0 0.000347796 5.83597e-05 0 0.000379966 5.8182e-05 0 0.000412188 5.80333e-05 0 0.000444443 5.7918e-05 0 0.000476719 5.78334e-05 0 0.000509007 5.77742e-05 0 0.000541301 5.77343e-05 0 0.000573598 5.77084e-05 0 0.000605895 5.76922e-05 0 0.000638191 5.76821e-05 0 0.000670486 5.76758e-05 0 0.00070278 5.76717e-05 0 0.000735072 5.76687e-05 0 0.000767362 5.76661e-05 0 0.00079965 5.76636e-05 0 0.000831937 5.76609e-05 0 0.000864222 5.76581e-05 0 0.000896506 5.76551e-05 0 0.000928788 5.76518e-05 0 0.000961068 5.76482e-05 0 0.000993347 5.76443e-05 0 0 0 0 2.89829e-05 1.88381e-05 0 6.09853e-05 3.36721e-05 0 9.30356e-05 4.30453e-05 0 0.000124786 4.85884e-05 0 0.000156387 5.16911e-05 0 0.000188009 5.32837e-05 0 0.000219734 5.39832e-05 0 0.000251583 5.41783e-05 0 0.00028355 5.41185e-05 0 0.000315616 5.39485e-05 0 0.000347759 5.37517e-05 0 0.000379956 5.35687e-05 0 0.000412192 5.34169e-05 0 0.000444454 5.32998e-05 0 0.000476731 5.32144e-05 0 0.000509018 5.31549e-05 0 0.000541309 5.3115e-05 0 0.000573603 5.30893e-05 0 0.000605897 5.30733e-05 0 0.000638191 5.30634e-05 0 0.000670484 5.30574e-05 0 0.000702776 5.30535e-05 0 0.000735066 5.30507e-05 0 0.000767355 5.30484e-05 0 0.000799643 5.30461e-05 0 0.000831929 5.30437e-05 0 0.000864214 5.30412e-05 0 0.000896497 5.30384e-05 0 0.000928779 5.30353e-05 0 0.000961059 5.3032e-05 0 0.000993338 5.30284e-05 0 0 0 0 2.80701e-05 1.62888e-05 0 5.93476e-05 2.98029e-05 0 9.14008e-05 3.87605e-05 0 0.000123424 4.41503e-05 0 0.000155359 4.71825e-05 0 0.000187278 4.87319e-05 0 0.000219239 4.94033e-05 0 0.000251265 4.95807e-05 0 0.000283357 4.95095e-05 0 0.000315508 4.93332e-05 0 0.000347704 4.91328e-05 0 0.000379934 4.89484e-05 0 0.000412188 4.87962e-05 0 0.000444459 4.86793e-05 0 0.000476739 4.85942e-05 0 0.000509026 4.85351e-05 0 0.000541316 4.84957e-05 0 0.000573608 4.84704e-05 0 0.0006059 4.84546e-05 0 0.000638192 4.84451e-05 0 0.000670483 4.84393e-05 0 0.000702773 4.84356e-05 0 0.000735062 4.8433e-05 0 0.00076735 4.84309e-05 0 0.000799637 4.84288e-05 0 0.000831922 4.84266e-05 0 0.000864207 4.84243e-05 0 0.00089649 4.84217e-05 0 0.000928771 4.84189e-05 0 0.000961052 4.84158e-05 0 0.000993331 4.84124e-05 0 0 0 0 2.74682e-05 1.41e-05 0 5.81055e-05 2.62022e-05 0 9.00156e-05 3.45773e-05 0 0.000122192 3.97295e-05 0 0.000154381 4.26527e-05 0 0.000186556 4.41476e-05 0 0.000218734 4.47904e-05 0 0.000250929 4.49543e-05 0 0.000283146 4.48778e-05 0 0.000315382 4.47009e-05 0 0.000347636 4.45021e-05 0 0.000379902 4.43201e-05 0 0.000412177 4.41704e-05 0 0.000444459 4.40556e-05 0 0.000476744 4.39724e-05 0 0.000509033 4.39146e-05 0 0.000541322 4.38761e-05 0 0.000573612 4.38515e-05 0 0.000605902 4.38362e-05 0 0.000638192 4.38269e-05 0 0.000670482 4.38214e-05 0 0.00070277 4.38179e-05 0 0.000735058 4.38155e-05 0 0.000767345 4.38135e-05 0 0.000799631 4.38116e-05 0 0.000831916 4.38096e-05 0 0.0008642 4.38075e-05 0 0.000896483 4.38051e-05 0 0.000928765 4.38025e-05 0 0.000961045 4.37996e-05 0 0.000993324 4.37965e-05 0 0 0 0 2.7056e-05 1.2169e-05 0 5.71651e-05 2.28506e-05 0 8.88613e-05 3.05152e-05 0 0.0001211 3.53444e-05 0 0.000153475 3.81144e-05 0 0.000185864 3.95374e-05 0 0.000218236 4.01473e-05 0 0.00025059 4.03002e-05 0 0.000282925 4.02232e-05 0 0.000315247 4.00511e-05 0 0.000347559 3.98588e-05 0 0.000379862 3.96832e-05 0 0.00041216 3.9539e-05 0 0.000444455 3.94286e-05 0 0.000476747 3.93486e-05 0 0.000509037 3.92931e-05 0 0.000541327 3.92562e-05 0 0.000573616 3.92325e-05 0 0.000605905 3.92179e-05 0 0.000638193 3.9209e-05 0 0.000670481 3.92037e-05 0 0.000702769 3.92004e-05 0 0.000735055 3.91982e-05 0 0.000767342 3.91963e-05 0 0.000799627 3.91946e-05 0 0.000831911 3.91927e-05 0 0.000864195 3.91907e-05 0 0.000896477 3.91885e-05 0 0.000928759 3.91861e-05 0 0.000961039 3.91834e-05 0 0.000993318 3.91805e-05 0 0 0 0 2.67656e-05 1.04259e-05 0 5.64508e-05 1.97153e-05 0 8.79132e-05 2.65805e-05 0 0.00012015 3.10071e-05 0 0.000152655 3.35781e-05 0 0.000185218 3.49076e-05 0 0.00021776 3.54779e-05 0 0.000250258 3.56202e-05 0 0.000282706 3.55467e-05 0 0.00031511 3.53842e-05 0 0.000347478 3.52029e-05 0 0.000379819 3.50375e-05 0 0.00041214 3.49018e-05 0 0.000444448 3.47979e-05 0 0.000476747 3.47226e-05 0 0.000509041 3.46704e-05 0 0.000541331 3.46357e-05 0 0.00057362 3.46134e-05 0 0.000605907 3.45996e-05 0 0.000638194 3.45913e-05 0 0.000670481 3.45863e-05 0 0.000702767 3.45832e-05 0 0.000735053 3.4581e-05 0 0.000767338 3.45793e-05 0 0.000799623 3.45776e-05 0 0.000831907 3.45759e-05 0 0.00086419 3.4574e-05 0 0.000896472 3.4572e-05 0 0.000928754 3.45698e-05 0 0.000961034 3.45673e-05 0 0.000993313 3.45646e-05 0 0 0 0 2.65566e-05 8.82126e-06 0 5.59071e-05 1.67614e-05 0 8.71441e-05 2.27688e-05 0 0.000119341 2.67244e-05 0 0.00015193 2.90515e-05 0 0.000184632 3.02641e-05 0 0.00021732 3.07861e-05 0 0.000249945 3.09168e-05 0 0.000282495 3.08497e-05 0 0.000314975 3.07008e-05 0 0.000347397 3.05347e-05 0 0.000379774 3.03831e-05 0 0.000412118 3.02587e-05 0 0.000444439 3.01635e-05 0 0.000476746 3.00945e-05 0 0.000509043 3.00466e-05 0 0.000541334 3.00147e-05 0 0.000573623 2.99942e-05 0 0.000605909 2.99814e-05 0 0.000638195 2.99737e-05 0 0.000670481 2.9969e-05 0 0.000702766 2.9966e-05 0 0.000735051 2.9964e-05 0 0.000767336 2.99623e-05 0 0.00079962 2.99608e-05 0 0.000831903 2.99591e-05 0 0.000864186 2.99574e-05 0 0.000896468 2.99555e-05 0 0.00092875 2.99535e-05 0 0.00096103 2.99512e-05 0 0.000993309 2.99487e-05 0 0 0 0 2.64044e-05 7.32028e-06 0 5.5494e-05 1.39558e-05 0 8.65293e-05 1.90691e-05 0 0.000118665 2.24975e-05 0 0.000151307 2.45395e-05 0 0.000184116 2.56118e-05 0 0.000216924 2.60758e-05 0 0.00024966 2.61929e-05 0 0.0002823 2.6134e-05 0 0.000314849 2.60022e-05 0 0.00034732 2.5855e-05 0 0.00037973 2.57206e-05 0 0.000412095 2.56102e-05 0 0.00044443 2.55256e-05 0 0.000476743 2.54642e-05 0 0.000509044 2.54215e-05 0 0.000541337 2.5393e-05 0 0.000573625 2.53747e-05 0 0.000605911 2.53632e-05 0 0.000638196 2.53561e-05 0 0.000670481 2.53518e-05 0 0.000702765 2.53491e-05 0 0.00073505 2.53471e-05 0 0.000767334 2.53455e-05 0 0.000799617 2.5344e-05 0 0.0008319 2.53425e-05 0 0.000864183 2.53408e-05 0 0.000896465 2.53391e-05 0 0.000928746 2.53372e-05 0 0.000961026 2.53351e-05 0 0.000993305 2.53328e-05 0 0 0 0 2.62935e-05 5.89705e-06 0 5.51829e-05 1.12687e-05 0 8.60474e-05 1.54667e-05 0 0.000118117 1.83238e-05 0 0.000150787 2.00445e-05 0 0.000183677 2.09547e-05 0 0.000216583 2.13505e-05 0 0.000249411 2.14513e-05 0 0.000282128 2.1402e-05 0 0.000314736 2.12902e-05 0 0.00034725 2.1165e-05 0 0.00037969 2.10506e-05 0 0.000412074 2.09565e-05 0 0.00044442 2.08844e-05 0 0.000476741 2.08319e-05 0 0.000509045 2.07953e-05 0 0.000541339 2.07708e-05 0 0.000573627 2.07549e-05 0 0.000605913 2.07449e-05 0 0.000638197 2.07387e-05 0 0.000670481 2.07348e-05 0 0.000702765 2.07322e-05 0 0.000735048 2.07303e-05 0 0.000767332 2.07288e-05 0 0.000799615 2.07273e-05 0 0.000831898 2.07258e-05 0 0.00086418 2.07243e-05 0 0.000896462 2.07226e-05 0 0.000928743 2.07209e-05 0 0.000961023 2.0719e-05 0 0.000993303 2.07169e-05 0 0 0 0 2.62138e-05 4.53171e-06 0 5.49535e-05 8.67358e-06 0 8.56813e-05 1.19446e-05 0 0.000117689 1.41973e-05 0 0.000150371 1.55665e-05 0 0.00018332 1.62953e-05 0 0.000216303 1.66137e-05 0 0.000249204 1.66955e-05 0 0.000281985 1.66563e-05 0 0.000314641 1.65668e-05 0 0.000347191 1.64662e-05 0 0.000379655 1.63742e-05 0 0.000412056 1.62984e-05 0 0.000444412 1.62402e-05 0 0.000476738 1.61978e-05 0 0.000509045 1.61681e-05 0 0.00054134 1.61481e-05 0 0.000573629 1.6135e-05 0 0.000605914 1.61266e-05 0 0.000638198 1.61213e-05 0 0.000670481 1.61178e-05 0 0.000702764 1.61155e-05 0 0.000735048 1.61137e-05 0 0.000767331 1.61121e-05 0 0.000799614 1.61107e-05 0 0.000831896 1.61093e-05 0 0.000864178 1.61078e-05 0 0.00089646 1.61062e-05 0 0.000928741 1.61046e-05 0 0.000961021 1.61029e-05 0 0.0009933 1.6101e-05 0 0 0 0 2.61588e-05 3.20823e-06 0 5.4792e-05 6.1471e-06 0 8.54176e-05 8.48531e-06 0 0.000117374 1.01096e-05 0 0.000150061 1.11038e-05 0 0.000183051 1.16355e-05 0 0.000216088 1.18685e-05 0 0.000249045 1.19285e-05 0 0.000281873 1.18998e-05 0 0.000314567 1.18342e-05 0 0.000347144 1.17603e-05 0 0.000379627 1.16926e-05 0 0.000412041 1.16368e-05 0 0.000444405 1.15937e-05 0 0.000476735 1.15622e-05 0 0.000509045 1.154e-05 0 0.000541341 1.15249e-05 0 0.00057363 1.15148e-05 0 0.000605915 1.15082e-05 0 0.000638199 1.15039e-05 0 0.000670482 1.15009e-05 0 0.000702764 1.14988e-05 0 0.000735047 1.14971e-05 0 0.00076733 1.14956e-05 0 0.000799613 1.14941e-05 0 0.000831895 1.14927e-05 0 0.000864177 1.14913e-05 0 0.000896459 1.14899e-05 0 0.00092874 1.14884e-05 0 0.00096102 1.14868e-05 0 0.000993299 1.14852e-05 0 0 0 0 2.61241e-05 1.91314e-06 0 5.46891e-05 3.66804e-06 0 8.52469e-05 5.07077e-06 0 0.000117167 6.05061e-06 0 0.000149854 6.65298e-06 0 0.000182869 6.97592e-06 0 0.000215943 7.11743e-06 0 0.000248937 7.15352e-06 0 0.000281797 7.1355e-06 0 0.000314516 7.09486e-06 0 0.000347112 7.04917e-06 0 0.000379608 7.0072e-06 0 0.00041203 6.97243e-06 0 0.0004444 6.94546e-06 0 0.000476733 6.92552e-06 0 0.000509045 6.91128e-06 0 0.000541342 6.90135e-06 0 0.000573631 6.89453e-06 0 0.000605916 6.88984e-06 0 0.000638199 6.88653e-06 0 0.000670482 6.88408e-06 0 0.000702764 6.88215e-06 0 0.000735047 6.88051e-06 0 0.000767329 6.87902e-06 0 0.000799612 6.8776e-06 0 0.000831894 6.87622e-06 0 0.000864176 6.87485e-06 0 0.000896458 6.87349e-06 0 0.000928739 6.87214e-06 0 0.000961019 6.87077e-06 0 0.000993298 6.86935e-06 0 0 0 0 2.61074e-05 6.34502e-07 0 5.4639e-05 1.21679e-06 0 8.51631e-05 1.68304e-06 0 0.000117064 2.00924e-06 0 0.000149751 2.20974e-06 0 0.000182778 2.3168e-06 0 0.00021587 2.36302e-06 0 0.000248882 2.37383e-06 0 0.000281758 2.36647e-06 0 0.00031449 2.35149e-06 0 0.000347095 2.33483e-06 0 0.000379598 2.31943e-06 0 0.000412025 2.30646e-06 0 0.000444397 2.29612e-06 0 0.000476733 2.28817e-06 0 0.000509044 2.28215e-06 0 0.000541342 2.27761e-06 0 0.000573631 2.27413e-06 0 0.000605917 2.2714e-06 0 0.0006382 2.26917e-06 0 0.000670482 2.26726e-06 0 0.000702764 2.26556e-06 0 0.000735047 2.26399e-06 0 0.000767329 2.2625e-06 0 0.000799612 2.26109e-06 0 0.000831894 2.25972e-06 0 0.000864176 2.2584e-06 0 0.000896458 2.25713e-06 0 0.000928738 2.2559e-06 0 0.000961019 2.2547e-06 0 0.000993298 2.25352e-06 0 0 0 0 2.61074e-05 -6.38737e-07 0 5.4639e-05 -1.22528e-06 0 8.51631e-05 -1.69577e-06 0 0.000117064 -2.0262e-06 0 0.000149751 -2.2309e-06 0 0.000182778 -2.34213e-06 0 0.00021587 -2.3925e-06 0 0.000248882 -2.40743e-06 0 0.000281758 -2.40415e-06 0 0.00031449 -2.39323e-06 0 0.000347095 -2.38058e-06 0 0.000379598 -2.36913e-06 0 0.000412025 -2.36007e-06 0 0.000444397 -2.35359e-06 0 0.000476733 -2.34942e-06 0 0.000509045 -2.34712e-06 0 0.000541342 -2.34621e-06 0 0.000573632 -2.3463e-06 0 0.000605917 -2.34704e-06 0 0.0006382 -2.34819e-06 0 0.000670482 -2.34956e-06 0 0.000702765 -2.35103e-06 0 0.000735047 -2.35253e-06 0 0.00076733 -2.354e-06 0 0.000799612 -2.35542e-06 0 0.000831894 -2.35677e-06 0 0.000864176 -2.35804e-06 0 0.000896458 -2.35923e-06 0 0.000928739 -2.36033e-06 0 0.000961019 -2.36136e-06 0 0.000993298 -2.36231e-06 0 0 0 0 2.61241e-05 -1.91737e-06 0 5.46891e-05 -3.67652e-06 0 8.5247e-05 -5.0835e-06 0 0.000117167 -6.06757e-06 0 0.000149854 -6.67414e-06 0 0.000182869 -7.00126e-06 0 0.000215943 -7.14691e-06 0 0.000248937 -7.18712e-06 0 0.000281797 -7.17319e-06 0 0.000314516 -7.13659e-06 0 0.000347112 -7.09492e-06 0 0.000379608 -7.05691e-06 0 0.00041203 -7.02605e-06 0 0.0004444 -7.00293e-06 0 0.000476734 -6.98678e-06 0 0.000509045 -6.97625e-06 0 0.000541342 -6.96997e-06 0 0.000573631 -6.9667e-06 0 0.000605917 -6.96548e-06 0 0.0006382 -6.96555e-06 0 0.000670482 -6.96639e-06 0 0.000702765 -6.96763e-06 0 0.000735047 -6.96906e-06 0 0.00076733 -6.97053e-06 0 0.000799613 -6.97194e-06 0 0.000831895 -6.97328e-06 0 0.000864177 -6.9745e-06 0 0.000896459 -6.9756e-06 0 0.00092874 -6.97657e-06 0 0.00096102 -6.97742e-06 0 0.000993299 -6.97814e-06 0 0 0 0 2.61588e-05 -3.21247e-06 0 5.47921e-05 -6.15559e-06 0 8.54177e-05 -8.49805e-06 0 0.000117374 -1.01266e-05 0 0.000150061 -1.1125e-05 0 0.000183051 -1.16608e-05 0 0.000216088 -1.1898e-05 0 0.000249045 -1.19621e-05 0 0.000281873 -1.19375e-05 0 0.000314567 -1.18759e-05 0 0.000347144 -1.18061e-05 0 0.000379628 -1.17423e-05 0 0.000412041 -1.16904e-05 0 0.000444405 -1.16512e-05 0 0.000476736 -1.16235e-05 0 0.000509045 -1.1605e-05 0 0.000541342 -1.15935e-05 0 0.000573631 -1.1587e-05 0 0.000605916 -1.15839e-05 0 0.0006382 -1.15829e-05 0 0.000670483 -1.15832e-05 0 0.000702765 -1.15843e-05 0 0.000735048 -1.15856e-05 0 0.000767331 -1.15871e-05 0 0.000799614 -1.15885e-05 0 0.000831896 -1.15898e-05 0 0.000864179 -1.1591e-05 0 0.00089646 -1.1592e-05 0 0.000928741 -1.15928e-05 0 0.000961021 -1.15935e-05 0 0.000993301 -1.1594e-05 0 0 0 0 2.62139e-05 -4.53595e-06 0 5.49536e-05 -8.68208e-06 0 8.56814e-05 -1.19574e-05 0 0.000117689 -1.42143e-05 0 0.000150372 -1.55877e-05 0 0.000183321 -1.63207e-05 0 0.000216303 -1.66432e-05 0 0.000249205 -1.67291e-05 0 0.000281985 -1.6694e-05 0 0.000314642 -1.66085e-05 0 0.000347191 -1.6512e-05 0 0.000379655 -1.64239e-05 0 0.000412056 -1.63521e-05 0 0.000444412 -1.62977e-05 0 0.000476738 -1.6259e-05 0 0.000509046 -1.62331e-05 0 0.000541341 -1.62167e-05 0 0.00057363 -1.62072e-05 0 0.000605915 -1.62023e-05 0 0.000638199 -1.62003e-05 0 0.000670483 -1.62002e-05 0 0.000702766 -1.6201e-05 0 0.000735049 -1.62022e-05 0 0.000767332 -1.62037e-05 0 0.000799615 -1.62051e-05 0 0.000831898 -1.62064e-05 0 0.000864181 -1.62075e-05 0 0.000896462 -1.62084e-05 0 0.000928743 -1.62091e-05 0 0.000961024 -1.62096e-05 0 0.000993303 -1.62098e-05 0 0 0 0 2.62936e-05 -5.90131e-06 0 5.51829e-05 -1.12772e-05 0 8.60476e-05 -1.54794e-05 0 0.000118117 -1.83408e-05 0 0.000150787 -2.00657e-05 0 0.000183677 -2.098e-05 0 0.000216583 -2.138e-05 0 0.000249411 -2.1485e-05 0 0.000282129 -2.14397e-05 0 0.000314737 -2.1332e-05 0 0.000347251 -2.12108e-05 0 0.00037969 -2.11003e-05 0 0.000412075 -2.10102e-05 0 0.000444421 -2.09419e-05 0 0.000476742 -2.08932e-05 0 0.000509046 -2.08603e-05 0 0.00054134 -2.08395e-05 0 0.000573629 -2.08272e-05 0 0.000605914 -2.08206e-05 0 0.000638199 -2.08178e-05 0 0.000670483 -2.08171e-05 0 0.000702767 -2.08177e-05 0 0.00073505 -2.0819e-05 0 0.000767334 -2.08203e-05 0 0.000799618 -2.08217e-05 0 0.000831901 -2.0823e-05 0 0.000864183 -2.0824e-05 0 0.000896465 -2.08248e-05 0 0.000928746 -2.08254e-05 0 0.000961027 -2.08257e-05 0 0.000993306 -2.08257e-05 0 0 0 0 2.64045e-05 -7.32454e-06 0 5.54941e-05 -1.39643e-05 0 8.65295e-05 -1.90819e-05 0 0.000118666 -2.25145e-05 0 0.000151307 -2.45607e-05 0 0.000184116 -2.56372e-05 0 0.000216925 -2.61053e-05 0 0.00024966 -2.62265e-05 0 0.000282301 -2.61717e-05 0 0.00031485 -2.6044e-05 0 0.00034732 -2.59008e-05 0 0.000379731 -2.57703e-05 0 0.000412096 -2.56638e-05 0 0.000444431 -2.55831e-05 0 0.000476745 -2.55255e-05 0 0.000509045 -2.54866e-05 0 0.000541338 -2.54617e-05 0 0.000573627 -2.54469e-05 0 0.000605913 -2.54389e-05 0 0.000638198 -2.54352e-05 0 0.000670483 -2.54342e-05 0 0.000702768 -2.54346e-05 0 0.000735052 -2.54357e-05 0 0.000767336 -2.54371e-05 0 0.00079962 -2.54384e-05 0 0.000831904 -2.54396e-05 0 0.000864186 -2.54406e-05 0 0.000896468 -2.54413e-05 0 0.00092875 -2.54417e-05 0 0.00096103 -2.54418e-05 0 0.00099331 -2.54416e-05 0 0 0 0 2.65567e-05 -8.82553e-06 0 5.59072e-05 -1.67699e-05 0 8.71443e-05 -2.27816e-05 0 0.000119341 -2.67413e-05 0 0.00015193 -2.90727e-05 0 0.000184632 -3.02895e-05 0 0.00021732 -3.08157e-05 0 0.000249945 -3.09505e-05 0 0.000282495 -3.08874e-05 0 0.000314976 -3.07426e-05 0 0.000347398 -3.05805e-05 0 0.000379775 -3.04329e-05 0 0.000412119 -3.03124e-05 0 0.00044444 -3.02211e-05 0 0.000476747 -3.01558e-05 0 0.000509044 -3.01116e-05 0 0.000541336 -3.00834e-05 0 0.000573625 -3.00664e-05 0 0.000605911 -3.00572e-05 0 0.000638198 -3.00528e-05 0 0.000670483 -3.00514e-05 0 0.000702769 -3.00516e-05 0 0.000735054 -3.00527e-05 0 0.000767339 -3.0054e-05 0 0.000799623 -3.00552e-05 0 0.000831907 -3.00563e-05 0 0.00086419 -3.00572e-05 0 0.000896473 -3.00578e-05 0 0.000928754 -3.0058e-05 0 0.000961034 -3.00579e-05 0 0.000993314 -3.00575e-05 0 0 0 0 2.67657e-05 -1.04302e-05 0 5.64509e-05 -1.97238e-05 0 8.79134e-05 -2.65933e-05 0 0.00012015 -3.10242e-05 0 0.000152655 -3.35993e-05 0 0.000185218 -3.4933e-05 0 0.000217761 -3.55075e-05 0 0.000250258 -3.56539e-05 0 0.000282706 -3.55845e-05 0 0.00031511 -3.5426e-05 0 0.000347479 -3.52487e-05 0 0.00037982 -3.50873e-05 0 0.000412141 -3.49555e-05 0 0.000444449 -3.48555e-05 0 0.000476749 -3.4784e-05 0 0.000509042 -3.47355e-05 0 0.000541333 -3.47044e-05 0 0.000573622 -3.46857e-05 0 0.00060591 -3.46754e-05 0 0.000638197 -3.46705e-05 0 0.000670484 -3.46687e-05 0 0.00070277 -3.46688e-05 0 0.000735056 -3.46697e-05 0 0.000767342 -3.46709e-05 0 0.000799627 -3.46721e-05 0 0.000831911 -3.46731e-05 0 0.000864195 -3.46739e-05 0 0.000896477 -3.46743e-05 0 0.000928759 -3.46744e-05 0 0.000961039 -3.46741e-05 0 0.000993319 -3.46735e-05 0 0 0 0 2.70561e-05 -1.21733e-05 0 5.71652e-05 -2.28591e-05 0 8.88615e-05 -3.0528e-05 0 0.0001211 -3.53615e-05 0 0.000153475 -3.81356e-05 0 0.000185864 -3.95628e-05 0 0.000218237 -4.01768e-05 0 0.00025059 -4.03339e-05 0 0.000282926 -4.0261e-05 0 0.000315248 -4.0093e-05 0 0.00034756 -3.99046e-05 0 0.000379863 -3.9733e-05 0 0.000412162 -3.95927e-05 0 0.000444456 -3.94862e-05 0 0.000476748 -3.941e-05 0 0.000509039 -3.93582e-05 0 0.000541329 -3.93249e-05 0 0.000573618 -3.93049e-05 0 0.000605907 -3.92937e-05 0 0.000638196 -3.92883e-05 0 0.000670484 -3.92862e-05 0 0.000702772 -3.92861e-05 0 0.000735059 -3.92869e-05 0 0.000767346 -3.92881e-05 0 0.000799631 -3.92891e-05 0 0.000831916 -3.929e-05 0 0.0008642 -3.92906e-05 0 0.000896483 -3.92909e-05 0 0.000928765 -3.92908e-05 0 0.000961045 -3.92903e-05 0 0.000993325 -3.92894e-05 0 0 0 0 2.74683e-05 -1.41043e-05 0 5.81056e-05 -2.62107e-05 0 9.00158e-05 -3.45901e-05 0 0.000122192 -3.97465e-05 0 0.000154381 -4.26739e-05 0 0.000186556 -4.4173e-05 0 0.000218735 -4.48199e-05 0 0.00025093 -4.4988e-05 0 0.000283146 -4.49155e-05 0 0.000315383 -4.47427e-05 0 0.000347637 -4.4548e-05 0 0.000379903 -4.43699e-05 0 0.000412178 -4.42241e-05 0 0.00044446 -4.41133e-05 0 0.000476746 -4.40338e-05 0 0.000509035 -4.39798e-05 0 0.000541324 -4.3945e-05 0 0.000573615 -4.39239e-05 0 0.000605905 -4.39121e-05 0 0.000638195 -4.39062e-05 0 0.000670485 -4.3904e-05 0 0.000702774 -4.39037e-05 0 0.000735063 -4.39043e-05 0 0.00076735 -4.39053e-05 0 0.000799637 -4.39063e-05 0 0.000831922 -4.3907e-05 0 0.000864206 -4.39074e-05 0 0.000896489 -4.39075e-05 0 0.000928771 -4.39072e-05 0 0.000961052 -4.39065e-05 0 0.000993331 -4.39054e-05 0 0 0 0 2.80701e-05 -1.62931e-05 0 5.93477e-05 -2.98115e-05 0 9.1401e-05 -3.87733e-05 0 0.000123425 -4.41674e-05 0 0.000155359 -4.72037e-05 0 0.000187278 -4.87573e-05 0 0.00021924 -4.94329e-05 0 0.000251266 -4.96145e-05 0 0.000283358 -4.95473e-05 0 0.000315508 -4.93751e-05 0 0.000347705 -4.91787e-05 0 0.000379935 -4.89983e-05 0 0.00041219 -4.885e-05 0 0.00044446 -4.87369e-05 0 0.000476741 -4.86557e-05 0 0.000509028 -4.86003e-05 0 0.000541319 -4.85646e-05 0 0.00057361 -4.85428e-05 0 0.000605903 -4.85306e-05 0 0.000638195 -4.85244e-05 0 0.000670487 -4.85219e-05 0 0.000702777 -4.85214e-05 0 0.000735067 -4.85219e-05 0 0.000767355 -4.85227e-05 0 0.000799642 -4.85235e-05 0 0.000831928 -4.85241e-05 0 0.000864213 -4.85243e-05 0 0.000896497 -4.85242e-05 0 0.000928779 -4.85237e-05 0 0.000961059 -4.85227e-05 0 0.000993339 -4.85214e-05 0 0 0 0 2.89829e-05 -1.88424e-05 0 6.09854e-05 -3.36807e-05 0 9.30357e-05 -4.30582e-05 0 0.000124787 -4.86055e-05 0 0.000156387 -5.17124e-05 0 0.00018801 -5.33091e-05 0 0.000219735 -5.40128e-05 0 0.000251583 -5.42121e-05 0 0.000283551 -5.41563e-05 0 0.000315617 -5.39905e-05 0 0.00034776 -5.37976e-05 0 0.000379958 -5.36186e-05 0 0.000412194 -5.34708e-05 0 0.000444456 -5.33576e-05 0 0.000476733 -5.3276e-05 0 0.00050902 -5.32201e-05 0 0.000541312 -5.3184e-05 0 0.000573606 -5.31618e-05 0 0.000605901 -5.31493e-05 0 0.000638195 -5.31428e-05 0 0.000670488 -5.31401e-05 0 0.000702781 -5.31394e-05 0 0.000735071 -5.31397e-05 0 0.000767361 -5.31403e-05 0 0.000799649 -5.31409e-05 0 0.000831936 -5.31412e-05 0 0.000864221 -5.31413e-05 0 0.000896505 -5.31409e-05 0 0.000928787 -5.31402e-05 0 0.000961068 -5.3139e-05 0 0.000993347 -5.31375e-05 0 0 0 0 3.04248e-05 -2.18927e-05 0 6.31253e-05 -3.7807e-05 0 9.49211e-05 -4.74088e-05 0 0.000126258 -5.30377e-05 0 0.000157434 -5.61846e-05 0 0.000188727 -5.78235e-05 0 0.000220198 -5.85564e-05 0 0.000251869 -5.87814e-05 0 0.000283715 -5.87433e-05 0 0.000315702 -5.85902e-05 0 0.000347797 -5.84057e-05 0 0.000379967 -5.8232e-05 0 0.000412189 -5.80872e-05 0 0.000444445 -5.79758e-05 0 0.000476721 -5.7895e-05 0 0.00050901 -5.78395e-05 0 0.000541304 -5.78033e-05 0 0.000573601 -5.7781e-05 0 0.000605898 -5.77682e-05 0 0.000638195 -5.77616e-05 0 0.000670491 -5.77586e-05 0 0.000702785 -5.77577e-05 0 0.000735077 -5.77577e-05 0 0.000767368 -5.77581e-05 0 0.000799657 -5.77584e-05 0 0.000831944 -5.77585e-05 0 0.00086423 -5.77583e-05 0 0.000896514 -5.77577e-05 0 0.000928796 -5.77567e-05 0 0.000961077 -5.77553e-05 0 0.000993357 -5.77534e-05 0 0 0 0 3.28071e-05 -2.56206e-05 0 6.58312e-05 -4.21102e-05 0 9.70521e-05 -5.17851e-05 0 0.000127794 -5.74291e-05 0 0.000158466 -6.061e-05 0 0.000189399 -6.22945e-05 0 0.000220608 -6.30636e-05 0 0.000252106 -6.33236e-05 0 0.000283838 -6.33101e-05 0 0.000315756 -6.31764e-05 0 0.000347811 -6.30047e-05 0 0.000379961 -6.28397e-05 0 0.000412174 -6.27005e-05 0 0.000444428 -6.25923e-05 0 0.000476706 -6.25133e-05 0 0.000508997 -6.24587e-05 0 0.000541295 -6.24228e-05 0 0.000573596 -6.24005e-05 0 0.000605896 -6.23875e-05 0 0.000638196 -6.23806e-05 0 0.000670494 -6.23774e-05 0 0.00070279 -6.23762e-05 0 0.000735083 -6.2376e-05 0 0.000767375 -6.2376e-05 0 0.000799665 -6.23761e-05 0 0.000831953 -6.23759e-05 0 0.00086424 -6.23754e-05 0 0.000896524 -6.23745e-05 0 0.000928807 -6.23733e-05 0 0.000961088 -6.23716e-05 0 0.000993367 -6.23694e-05 0 0 0 0 3.68082e-05 -3.01219e-05 0 6.90639e-05 -4.64382e-05 0 9.94175e-05 -5.61413e-05 0 0.000129314 -6.17366e-05 0 0.000159451 -6.49852e-05 0 0.000189989 -6.67149e-05 0 0.000220943 -6.75373e-05 0 0.000252278 -6.7841e-05 0 0.00028391 -6.78601e-05 0 0.000315773 -6.7752e-05 0 0.000347798 -6.7597e-05 0 0.000379937 -6.74439e-05 0 0.000412148 -6.73118e-05 0 0.000444404 -6.72081e-05 0 0.000476686 -6.71315e-05 0 0.000508983 -6.70781e-05 0 0.000541286 -6.70427e-05 0 0.000573591 -6.70204e-05 0 0.000605895 -6.70073e-05 0 0.000638197 -6.70001e-05 0 0.000670498 -6.69965e-05 0 0.000702796 -6.6995e-05 0 0.000735091 -6.69944e-05 0 0.000767384 -6.69942e-05 0 0.000799675 -6.69939e-05 0 0.000831964 -6.69934e-05 0 0.000864251 -6.69926e-05 0 0.000896536 -6.69915e-05 0 0.000928819 -6.69899e-05 0 0.0009611 -6.69879e-05 0 0.000993379 -6.69853e-05 0 0 0 0 4.28293e-05 -3.48844e-05 0 7.29448e-05 -5.07694e-05 0 0.000101812 -6.03246e-05 0 0.000130785 -6.59704e-05 0 0.000160325 -6.929e-05 0 0.000190458 -7.10872e-05 0 0.000221179 -7.19827e-05 0 0.000252364 -7.23363e-05 0 0.000283921 -7.23995e-05 0 0.000315744 -7.23198e-05 0 0.000347756 -7.21863e-05 0 0.000379892 -7.20464e-05 0 0.000412109 -7.1923e-05 0 0.000444373 -7.18242e-05 0 0.000476663 -7.17503e-05 0 0.000508967 -7.16982e-05 0 0.000541276 -7.16632e-05 0 0.000573586 -7.16409e-05 0 0.000605894 -7.16275e-05 0 0.0006382 -7.162e-05 0 0.000670503 -7.1616e-05 0 0.000702803 -7.16141e-05 0 0.0007351 -7.16131e-05 0 0.000767394 -7.16125e-05 0 0.000799686 -7.16119e-05 0 0.000831976 -7.1611e-05 0 0.000864263 -7.16099e-05 0 0.000896548 -7.16084e-05 0 0.000928832 -7.16066e-05 0 0.000961113 -7.16043e-05 0 0.000993394 -7.16011e-05 0 </DataArray> 
</PointData> 
<Points> 
<DataArray type="Float32" NumberOfComponents="3"> 