<?xml version="1.0"?> 
<VTKFile type="StructuredGrid" version="0.1"> 
<StructuredGrid WholeExtent="0 95 0 95 0 0"> 
<Piece Extent="0 95 0 95 0 0"> 
<PointData>
<DataArray type="Float32" Name="B" format="ascii" NumberOfComponents="3"> 
0 -0 0 -1.24795e-07 -0 0 -2.49502e-07 -0 0 -3.74121e-07 -0 0 -4.98558e-07 -0 0 -6.22731e-07 -0 0 -7.4664e-07 -0 0 -8.70187e-07 -0 0 -9.93298e-07 -0 0 -1.11597e-06 -0 0 -1.2381e-06 -0 0 -1.35963e-06 -0 0 -1.48055e-06 -0 0 -1.60075e-06 -0 0 -1.72019e-06 -0 0 -1.83885e-06 -0 0 -1.95663e-06 -0 0 -2.07348e-06 -0 0 -2.18939e-06 -0 0 -2.30427e-06 -0 0 -2.41807e-06 -0 0 -2.53077e-06 -0 0 -2.64229e-06 -0 0 -2.75258e-06 -0 0 -2.86164e-06 -0 0 -2.96937e-06 -0 0 -3.07574e-06 -0 0 -3.18073e-06 -0 0 -3.28427e-06 -0 0 -3.38632e-06 -0 0 -3.48687e-06 -0 0 -3.58584e-06 -0 0 -3.68321e-06 -0 0 -3.77896e-06 -0 0 -3.87303e-06 -0 0 -3.96539e-06 -0 0 -4.05603e-06 -0 0 -4.14488e-06 -0 0 -4.23193e-06 -0 0 -4.31717e-06 -0 0 -4.40054e-06 -0 0 -4.48203e-06 -0 0 -4.56162e-06 -0 0 -4.63926e-06 -0 0 -4.71494e-06 -0 0 -4.78866e-06 -0 0 -4.86037e-06 -0 0 -4.93006e-06 -0 0 -4.99772e-06 -0 0 -5.06332e-06 -0 0 -5.12685e-06 -0 0 -5.18829e-06 -0 0 -5.24763e-06 -0 0 -5.30486e-06 -0 0 -5.35996e-06 -0 0 -5.41292e-06 -0 0 -5.46373e-06 -0 0 -5.51239e-06 -0 0 -5.55887e-06 -0 0 -5.60317e-06 -0 0 -5.64529e-06 -0 0 -5.68522e-06 -0 0 -5.72295e-06 -0 0 -5.75847e-06 -0 0 -5.79178e-06 -0 0 -5.82287e-06 -0 0 -5.85174e-06 -0 0 -5.87838e-06 -0 0 -5.9028e-06 -0 0 -5.92498e-06 -0 0 -5.94491e-06 -0 0 -5.96261e-06 -0 0 -5.97806e-06 -0 0 -5.99127e-06 -0 0 -6.00222e-06 -0 0 -6.01092e-06 -0 0 -6.01736e-06 -0 0 -6.02154e-06 -0 0 -6.02347e-06 -0 0 -6.02313e-06 -0 0 -6.02052e-06 -0 0 -6.01565e-06 -0 0 -6.00851e-06 -0 0 -5.9991e-06 -0 0 -5.98742e-06 -0 0 -5.97348e-06 -0 0 -5.95726e-06 -0 0 -5.93878e-06 -0 0 -5.91803e-06 -0 0 -5.89501e-06 -0 0 -5.86973e-06 -0 0 -5.8422e-06 -0 0 -5.8124e-06 -0 0 -5.78036e-06 -0 0 -5.74607e-06 -0 0 -5.70955e-06 -0 0 0 8.32392e-08 0 -1.24834e-07 8.31804e-08 0 -2.4958e-07 8.31216e-08 0 -3.74238e-07 8.30591e-08 0 -4.98714e-07 8.28831e-08 0 -6.22926e-07 8.27071e-08 0 -7.46874e-07 8.25238e-08 0 -8.7046e-07 8.2232e-08 0 -9.93608e-07 8.19402e-08 0 -1.11632e-06 8.16378e-08 0 -1.23849e-06 8.12325e-08 0 -1.36005e-06 8.08272e-08 0 -1.48101e-06 8.04081e-08 0 -1.60125e-06 7.98924e-08 0 -1.72072e-06 7.93768e-08 0 -1.83941e-06 7.88445e-08 0 -1.95723e-06 7.82225e-08 0 -2.07412e-06 7.76004e-08 0 -2.19007e-06 7.69594e-08 0 -2.30498e-06 7.62357e-08 0 -2.41881e-06 7.5512e-08 0 -2.53154e-06 7.47673e-08 0 -2.6431e-06 7.39474e-08 0 -2.75342e-06 7.31274e-08 0 -2.8625e-06 7.2285e-08 0 -2.97026e-06 7.13748e-08 0 -3.07666e-06 7.04647e-08 0 -3.18168e-06 6.9531e-08 0 -3.28525e-06 6.85371e-08 0 -3.38732e-06 6.75433e-08 0 -3.4879e-06 6.65254e-08 0 -3.58689e-06 6.54547e-08 0 -3.68429e-06 6.4384e-08 0 -3.78006e-06 6.32894e-08 0 -3.87415e-06 6.2149e-08 0 -3.96653e-06 6.10086e-08 0 -4.05719e-06 5.98449e-08 0 -4.14607e-06 5.86421e-08 0 -4.23314e-06 5.74393e-08 0 -4.3184e-06 5.62142e-08 0 -4.40179e-06 5.49564e-08 0 -4.48329e-06 5.36986e-08 0 -4.56289e-06 5.24198e-08 0 -4.64055e-06 5.1114e-08 0 -4.71625e-06 4.98083e-08 0 -4.78998e-06 4.84833e-08 0 -4.8617e-06 4.71366e-08 0 -4.9314e-06 4.57899e-08 0 -4.99908e-06 4.44259e-08 0 -5.06469e-06 4.30447e-08 0 -5.12822e-06 4.16634e-08 0 -5.18968e-06 4.0267e-08 0 -5.24903e-06 3.88573e-08 0 -5.30626e-06 3.74475e-08 0 -5.36137e-06 3.60247e-08 0 -5.41434e-06 3.45918e-08 0 -5.46516e-06 3.31589e-08 0 -5.51382e-06 3.1715e-08 0 -5.5603e-06 3.02635e-08 0 -5.60461e-06 2.8812e-08 0 -5.64674e-06 2.73514e-08 0 -5.68667e-06 2.58853e-08 0 -5.7244e-06 2.44192e-08 0 -5.75993e-06 2.29455e-08 0 -5.79324e-06 2.14678e-08 0 -5.82434e-06 1.99901e-08 0 -5.85321e-06 1.85061e-08 0 -5.87986e-06 1.70192e-08 0 -5.90427e-06 1.55324e-08 0 -5.92645e-06 1.40402e-08 0 -5.94639e-06 1.25459e-08 0 -5.96409e-06 1.10516e-08 0 -5.97955e-06 9.55273e-09 0 -5.99275e-06 8.05232e-09 0 -6.00371e-06 6.5519e-09 0 -6.01241e-06 5.04751e-09 0 -6.01885e-06 3.542e-09 0 -6.02304e-06 2.03648e-09 0 -6.02496e-06 5.27679e-10 0 -6.02462e-06 -9.81886e-10 0 -6.02201e-06 -2.49145e-09 0 -6.01714e-06 -4.0033e-09 0 -6.01001e-06 -5.51558e-09 0 -6.0006e-06 -7.02786e-09 0 -5.98892e-06 -8.54082e-09 0 -5.97498e-06 -1.00539e-08 0 -5.95876e-06 -1.1567e-08 0 -5.94028e-06 -1.30782e-08 0 -5.91952e-06 -1.45893e-08 0 -5.89651e-06 -1.61003e-08 0 -5.87123e-06 -1.7606e-08 0 -5.84369e-06 -1.91113e-08 0 -5.81389e-06 -2.06166e-08 0 -5.78184e-06 -2.21112e-08 0 -5.74755e-06 -2.36055e-08 0 -5.71102e-06 -2.50997e-08 0 0 1.66505e-07 0 -1.24874e-07 1.66387e-07 0 -2.49659e-07 1.66269e-07 0 -3.74356e-07 1.66144e-07 0 -4.98871e-07 1.65792e-07 0 -6.23122e-07 1.6544e-07 0 -7.47108e-07 1.65073e-07 0 -8.70732e-07 1.6449e-07 0 -9.93919e-07 1.63906e-07 0 -1.11667e-06 1.63301e-07 0 -1.23888e-06 1.6249e-07 0 -1.36048e-06 1.61679e-07 0 -1.48147e-06 1.60841e-07 0 -1.60175e-06 1.59809e-07 0 -1.72125e-06 1.58777e-07 0 -1.83998e-06 1.57713e-07 0 -1.95784e-06 1.56468e-07 0 -2.07476e-06 1.55224e-07 0 -2.19074e-06 1.53941e-07 0 -2.30568e-06 1.52493e-07 0 -2.41954e-06 1.51046e-07 0 -2.53231e-06 1.49556e-07 0 -2.6439e-06 1.47916e-07 0 -2.75425e-06 1.46275e-07 0 -2.86337e-06 1.4459e-07 0 -2.97116e-06 1.42769e-07 0 -3.07758e-06 1.40948e-07 0 -3.18263e-06 1.3908e-07 0 -3.28622e-06 1.37092e-07 0 -3.38832e-06 1.35104e-07 0 -3.48893e-06 1.33068e-07 0 -3.58795e-06 1.30926e-07 0 -3.68536e-06 1.28784e-07 0 -3.78117e-06 1.26594e-07 0 -3.87528e-06 1.24313e-07 0 -3.96768e-06 1.22031e-07 0 -4.05836e-06 1.19703e-07 0 -4.14726e-06 1.17297e-07 0 -4.23435e-06 1.14891e-07 0 -4.31963e-06 1.1244e-07 0 -4.40303e-06 1.09924e-07 0 -4.48455e-06 1.07408e-07 0 -4.56417e-06 1.0485e-07 0 -4.64184e-06 1.02238e-07 0 -4.71755e-06 9.9626e-08 0 -4.7913e-06 9.69756e-08 0 -4.86304e-06 9.42816e-08 0 -4.93275e-06 9.15877e-08 0 -5.00043e-06 8.88592e-08 0 -5.06605e-06 8.60963e-08 0 -5.1296e-06 8.33334e-08 0 -5.19107e-06 8.05402e-08 0 -5.25042e-06 7.77203e-08 0 -5.30766e-06 7.49004e-08 0 -5.36278e-06 7.20544e-08 0 -5.41576e-06 6.91882e-08 0 -5.46658e-06 6.6322e-08 0 -5.51525e-06 6.34339e-08 0 -5.56174e-06 6.05307e-08 0 -5.60606e-06 5.76274e-08 0 -5.64819e-06 5.47059e-08 0 -5.68812e-06 5.17734e-08 0 -5.72586e-06 4.8841e-08 0 -5.76139e-06 4.58933e-08 0 -5.7947e-06 4.29378e-08 0 -5.8258e-06 3.99823e-08 0 -5.85468e-06 3.70141e-08 0 -5.88133e-06 3.40403e-08 0 -5.90575e-06 3.10664e-08 0 -5.92793e-06 2.80819e-08 0 -5.94787e-06 2.50933e-08 0 -5.96557e-06 2.21046e-08 0 -5.98103e-06 1.91068e-08 0 -5.99424e-06 1.61059e-08 0 -6.00519e-06 1.3105e-08 0 -6.0139e-06 1.00961e-08 0 -6.02034e-06 7.08499e-09 0 -6.02453e-06 4.07389e-09 0 -6.02645e-06 1.05618e-09 0 -6.02611e-06 -1.96304e-09 0 -6.02351e-06 -4.98227e-09 0 -6.01864e-06 -8.00611e-09 0 -6.0115e-06 -1.10308e-08 0 -6.0021e-06 -1.40555e-08 0 -5.99042e-06 -1.70816e-08 0 -5.97647e-06 -2.0108e-08 0 -5.96026e-06 -2.31343e-08 0 -5.94177e-06 -2.61571e-08 0 -5.92102e-06 -2.91795e-08 0 -5.898e-06 -3.22019e-08 0 -5.87272e-06 -3.52135e-08 0 -5.84517e-06 -3.82245e-08 0 -5.81537e-06 -4.12355e-08 0 -5.78332e-06 -4.42252e-08 0 -5.74903e-06 -4.72142e-08 0 -5.71249e-06 -5.02032e-08 0 0 2.49796e-07 0 -1.24915e-07 2.4962e-07 0 -2.49742e-07 2.49443e-07 0 -3.7448e-07 2.49255e-07 0 -4.99037e-07 2.48727e-07 0 -6.23329e-07 2.48199e-07 0 -7.47357e-07 2.47649e-07 0 -8.71022e-07 2.46773e-07 0 -9.94249e-07 2.45897e-07 0 -1.11704e-06 2.44989e-07 0 -1.23929e-06 2.43772e-07 0 -1.36093e-06 2.42556e-07 0 -1.48196e-06 2.41298e-07 0 -1.60228e-06 2.3975e-07 0 -1.72182e-06 2.38202e-07 0 -1.84059e-06 2.36604e-07 0 -1.95848e-06 2.34737e-07 0 -2.07543e-06 2.3287e-07 0 -2.19145e-06 2.30946e-07 0 -2.30644e-06 2.28773e-07 0 -2.42033e-06 2.26601e-07 0 -2.53313e-06 2.24366e-07 0 -2.64475e-06 2.21905e-07 0 -2.75514e-06 2.19444e-07 0 -2.86429e-06 2.16915e-07 0 -2.97211e-06 2.14183e-07 0 -3.07856e-06 2.11451e-07 0 -3.18364e-06 2.08648e-07 0 -3.28726e-06 2.05665e-07 0 -3.38939e-06 2.02682e-07 0 -3.49002e-06 1.99627e-07 0 -3.58907e-06 1.96413e-07 0 -3.68651e-06 1.932e-07 0 -3.78234e-06 1.89914e-07 0 -3.87647e-06 1.86491e-07 0 -3.9689e-06 1.83068e-07 0 -4.0596e-06 1.79576e-07 0 -4.14852e-06 1.75966e-07 0 -4.23563e-06 1.72356e-07 0 -4.32093e-06 1.68679e-07 0 -4.40435e-06 1.64904e-07 0 -4.48588e-06 1.61129e-07 0 -4.56552e-06 1.57291e-07 0 -4.64321e-06 1.53372e-07 0 -4.71894e-06 1.49453e-07 0 -4.7927e-06 1.45477e-07 0 -4.86445e-06 1.41435e-07 0 -4.93418e-06 1.37393e-07 0 -5.00188e-06 1.333e-07 0 -5.06751e-06 1.29155e-07 0 -5.13106e-06 1.2501e-07 0 -5.19254e-06 1.20819e-07 0 -5.25191e-06 1.16589e-07 0 -5.30916e-06 1.12359e-07 0 -5.36428e-06 1.08089e-07 0 -5.41726e-06 1.03789e-07 0 -5.46809e-06 9.94894e-08 0 -5.51677e-06 9.51567e-08 0 -5.56327e-06 9.08014e-08 0 -5.60759e-06 8.64462e-08 0 -5.64973e-06 8.20635e-08 0 -5.68966e-06 7.76645e-08 0 -5.7274e-06 7.32654e-08 0 -5.76294e-06 6.88437e-08 0 -5.79626e-06 6.44101e-08 0 -5.82736e-06 5.99765e-08 0 -5.85624e-06 5.55241e-08 0 -5.88289e-06 5.10631e-08 0 -5.90731e-06 4.66022e-08 0 -5.9295e-06 4.21253e-08 0 -5.94944e-06 3.76421e-08 0 -5.96715e-06 3.3159e-08 0 -5.98261e-06 2.86621e-08 0 -5.99582e-06 2.41606e-08 0 -6.00677e-06 1.96592e-08 0 -6.01548e-06 1.51457e-08 0 -6.02192e-06 1.0629e-08 0 -6.02611e-06 6.11221e-09 0 -6.02804e-06 1.58552e-09 0 -6.0277e-06 -2.94348e-09 0 -6.0251e-06 -7.47247e-09 0 -6.02023e-06 -1.20084e-08 0 -6.01309e-06 -1.65457e-08 0 -6.00369e-06 -2.10829e-08 0 -5.99201e-06 -2.56224e-08 0 -5.97806e-06 -3.01622e-08 0 -5.96185e-06 -3.47021e-08 0 -5.94336e-06 -3.92366e-08 0 -5.92261e-06 -4.37707e-08 0 -5.89959e-06 -4.83047e-08 0 -5.8743e-06 -5.28228e-08 0 -5.84676e-06 -5.73398e-08 0 -5.81695e-06 -6.18568e-08 0 -5.78489e-06 -6.6342e-08 0 -5.7506e-06 -7.08262e-08 0 -5.71405e-06 -7.53104e-08 0 0 3.33142e-07 0 -1.25033e-07 3.32906e-07 0 -2.49977e-07 3.32671e-07 0 -3.74833e-07 3.3242e-07 0 -4.99507e-07 3.31716e-07 0 -6.23916e-07 3.31011e-07 0 -7.48059e-07 3.30277e-07 0 -8.71841e-07 3.29109e-07 0 -9.95182e-07 3.2794e-07 0 -1.11808e-06 3.26729e-07 0 -1.24045e-06 3.25106e-07 0 -1.3622e-06 3.23484e-07 0 -1.48334e-06 3.21805e-07 0 -1.60377e-06 3.19741e-07 0 -1.72342e-06 3.17676e-07 0 -1.8423e-06 3.15545e-07 0 -1.96029e-06 3.13054e-07 0 -2.07735e-06 3.10563e-07 0 -2.19347e-06 3.07997e-07 0 -2.30856e-06 3.05099e-07 0 -2.42255e-06 3.02201e-07 0 -2.53545e-06 2.9922e-07 0 -2.64716e-06 2.95937e-07 0 -2.75764e-06 2.92654e-07 0 -2.86688e-06 2.89281e-07 0 -2.97479e-06 2.85637e-07 0 -3.08133e-06 2.81993e-07 0 -3.1865e-06 2.78254e-07 0 -3.2902e-06 2.74275e-07 0 -3.39241e-06 2.70296e-07 0 -3.49311e-06 2.66221e-07 0 -3.59224e-06 2.61935e-07 0 -3.68975e-06 2.57648e-07 0 -3.78565e-06 2.53266e-07 0 -3.87985e-06 2.487e-07 0 -3.97234e-06 2.44135e-07 0 -4.06311e-06 2.39476e-07 0 -4.15209e-06 2.34661e-07 0 -4.23925e-06 2.29846e-07 0 -4.32461e-06 2.24942e-07 0 -4.40808e-06 2.19907e-07 0 -4.48967e-06 2.14872e-07 0 -4.56935e-06 2.09753e-07 0 -4.64709e-06 2.04526e-07 0 -4.72286e-06 1.99299e-07 0 -4.79666e-06 1.93996e-07 0 -4.86845e-06 1.88606e-07 0 -4.93821e-06 1.83215e-07 0 -5.00595e-06 1.77756e-07 0 -5.07161e-06 1.72228e-07 0 -5.1352e-06 1.667e-07 0 -5.1967e-06 1.61111e-07 0 -5.25609e-06 1.55469e-07 0 -5.31337e-06 1.49828e-07 0 -5.36852e-06 1.44134e-07 0 -5.42152e-06 1.384e-07 0 -5.47237e-06 1.32666e-07 0 -5.52106e-06 1.26888e-07 0 -5.56758e-06 1.2108e-07 0 -5.61192e-06 1.15272e-07 0 -5.65407e-06 1.09428e-07 0 -5.69402e-06 1.03561e-07 0 -5.73177e-06 9.76952e-08 0 -5.76732e-06 9.1799e-08 0 -5.80065e-06 8.5887e-08 0 -5.83176e-06 7.9975e-08 0 -5.86065e-06 7.4038e-08 0 -5.88731e-06 6.80897e-08 0 -5.91174e-06 6.21413e-08 0 -5.93393e-06 5.61718e-08 0 -5.95388e-06 5.0194e-08 0 -5.97159e-06 4.42162e-08 0 -5.98706e-06 3.82201e-08 0 -6.00027e-06 3.22179e-08 0 -6.01123e-06 2.62157e-08 0 -6.01994e-06 2.01976e-08 0 -6.0264e-06 1.4175e-08 0 -6.03059e-06 8.15245e-09 0 -6.03252e-06 2.11657e-09 0 -6.03218e-06 -3.92238e-09 0 -6.02958e-06 -9.96133e-09 0 -6.02472e-06 -1.60097e-08 0 -6.01758e-06 -2.20598e-08 0 -6.00818e-06 -2.81099e-08 0 -5.9965e-06 -3.41632e-08 0 -5.98256e-06 -4.02169e-08 0 -5.96634e-06 -4.62706e-08 0 -5.94785e-06 -5.23175e-08 0 -5.92709e-06 -5.83638e-08 0 -5.90407e-06 -6.441e-08 0 -5.87877e-06 -7.04352e-08 0 -5.85122e-06 -7.64591e-08 0 -5.82141e-06 -8.24829e-08 0 -5.78934e-06 -8.84646e-08 0 -5.75503e-06 -9.4445e-08 0 -5.71847e-06 -1.00425e-07 0 0 4.16566e-07 0 -1.25151e-07 4.16271e-07 0 -2.50213e-07 4.15977e-07 0 -3.75186e-07 4.15664e-07 0 -4.99977e-07 4.14782e-07 0 -6.24503e-07 4.13901e-07 0 -7.48762e-07 4.12983e-07 0 -8.72659e-07 4.11522e-07 0 -9.96116e-07 4.1006e-07 0 -1.11913e-06 4.08545e-07 0 -1.24161e-06 4.06516e-07 0 -1.36347e-06 4.04486e-07 0 -1.48472e-06 4.02387e-07 0 -1.60526e-06 3.99804e-07 0 -1.72502e-06 3.97222e-07 0 -1.844e-06 3.94556e-07 0 -1.96211e-06 3.91441e-07 0 -2.07927e-06 3.88326e-07 0 -2.19549e-06 3.85115e-07 0 -2.31068e-06 3.81491e-07 0 -2.42477e-06 3.77867e-07 0 -2.53777e-06 3.74137e-07 0 -2.64957e-06 3.70031e-07 0 -2.76014e-06 3.65925e-07 0 -2.86948e-06 3.61707e-07 0 -2.97747e-06 3.57149e-07 0 -3.0841e-06 3.52591e-07 0 -3.18935e-06 3.47916e-07 0 -3.29314e-06 3.42939e-07 0 -3.39542e-06 3.37963e-07 0 -3.49621e-06 3.32866e-07 0 -3.59541e-06 3.27505e-07 0 -3.69299e-06 3.22144e-07 0 -3.78896e-06 3.16663e-07 0 -3.88323e-06 3.10953e-07 0 -3.97579e-06 3.05244e-07 0 -4.06662e-06 2.99417e-07 0 -4.15565e-06 2.93396e-07 0 -4.24288e-06 2.87374e-07 0 -4.32829e-06 2.81241e-07 0 -4.41182e-06 2.74944e-07 0 -4.49345e-06 2.68647e-07 0 -4.57318e-06 2.62246e-07 0 -4.65097e-06 2.5571e-07 0 -4.72678e-06 2.49174e-07 0 -4.80062e-06 2.42542e-07 0 -4.87245e-06 2.35801e-07 0 -4.94225e-06 2.29061e-07 0 -5.01002e-06 2.22234e-07 0 -5.07571e-06 2.15322e-07 0 -5.13933e-06 2.08409e-07 0 -5.20086e-06 2.01421e-07 0 -5.26028e-06 1.94367e-07 0 -5.31758e-06 1.87313e-07 0 -5.37276e-06 1.80193e-07 0 -5.42578e-06 1.73024e-07 0 -5.47665e-06 1.65854e-07 0 -5.52536e-06 1.5863e-07 0 -5.57189e-06 1.51369e-07 0 -5.61624e-06 1.44107e-07 0 -5.65841e-06 1.36801e-07 0 -5.69838e-06 1.29467e-07 0 -5.73614e-06 1.22133e-07 0 -5.7717e-06 1.14762e-07 0 -5.80504e-06 1.07371e-07 0 -5.83616e-06 9.99797e-08 0 -5.86506e-06 9.25577e-08 0 -5.89172e-06 8.51216e-08 0 -5.91616e-06 7.76855e-08 0 -5.93836e-06 7.0223e-08 0 -5.95832e-06 6.27503e-08 0 -5.97604e-06 5.52775e-08 0 -5.99151e-06 4.7782e-08 0 -6.00473e-06 4.02789e-08 0 -6.0157e-06 3.27758e-08 0 -6.02441e-06 2.52527e-08 0 -6.03087e-06 1.77241e-08 0 -6.03506e-06 1.01955e-08 0 -6.037e-06 2.65014e-09 0 -6.03667e-06 -4.89906e-09 0 -6.03407e-06 -1.24483e-08 0 -6.02921e-06 -2.00094e-08 0 -6.02207e-06 -2.75728e-08 0 -6.01267e-06 -3.51362e-08 0 -6.001e-06 -4.27038e-08 0 -5.98705e-06 -5.0272e-08 0 -5.97083e-06 -5.78402e-08 0 -5.95234e-06 -6.54004e-08 0 -5.93158e-06 -7.29597e-08 0 -5.90855e-06 -8.0519e-08 0 -5.88325e-06 -8.80525e-08 0 -5.85569e-06 -9.55842e-08 0 -5.82586e-06 -1.03116e-07 0 -5.79379e-06 -1.10596e-07 0 -5.75946e-06 -1.18073e-07 0 -5.72289e-06 -1.25551e-07 0 0 5.00069e-07 0 -1.25273e-07 4.99715e-07 0 -2.50458e-07 4.99361e-07 0 -3.75554e-07 4.98985e-07 0 -5.00467e-07 4.97927e-07 0 -6.25114e-07 4.96868e-07 0 -7.49495e-07 4.95766e-07 0 -8.73512e-07 4.94011e-07 0 -9.97088e-07 4.92256e-07 0 -1.12022e-06 4.90437e-07 0 -1.24282e-06 4.88e-07 0 -1.3648e-06 4.85562e-07 0 -1.48616e-06 4.83042e-07 0 -1.60682e-06 4.7994e-07 0 -1.72669e-06 4.76839e-07 0 -1.84578e-06 4.73638e-07 0 -1.964e-06 4.69897e-07 0 -2.08127e-06 4.66157e-07 0 -2.1976e-06 4.62301e-07 0 -2.31289e-06 4.57949e-07 0 -2.42708e-06 4.53598e-07 0 -2.54018e-06 4.49119e-07 0 -2.65209e-06 4.44189e-07 0 -2.76275e-06 4.39258e-07 0 -2.87218e-06 4.34192e-07 0 -2.98027e-06 4.2872e-07 0 -3.08699e-06 4.23247e-07 0 -3.19232e-06 4.17633e-07 0 -3.29619e-06 4.11657e-07 0 -3.39857e-06 4.05682e-07 0 -3.49943e-06 3.99562e-07 0 -3.59871e-06 3.93124e-07 0 -3.69637e-06 3.86687e-07 0 -3.79241e-06 3.80106e-07 0 -3.88675e-06 3.73251e-07 0 -3.97937e-06 3.66395e-07 0 -4.07027e-06 3.59399e-07 0 -4.15937e-06 3.5217e-07 0 -4.24665e-06 3.4494e-07 0 -4.33212e-06 3.37576e-07 0 -4.4157e-06 3.30016e-07 0 -4.49739e-06 3.22456e-07 0 -4.57718e-06 3.1477e-07 0 -4.655e-06 3.06923e-07 0 -4.73086e-06 2.99077e-07 0 -4.80475e-06 2.91115e-07 0 -4.87662e-06 2.83022e-07 0 -4.94645e-06 2.7493e-07 0 -5.01426e-06 2.66735e-07 0 -5.07999e-06 2.58437e-07 0 -5.14364e-06 2.50138e-07 0 -5.2052e-06 2.4175e-07 0 -5.26465e-06 2.33282e-07 0 -5.32197e-06 2.24813e-07 0 -5.37717e-06 2.16268e-07 0 -5.43021e-06 2.07662e-07 0 -5.4811e-06 1.99056e-07 0 -5.52983e-06 1.90385e-07 0 -5.57638e-06 1.81669e-07 0 -5.62075e-06 1.72953e-07 0 -5.66293e-06 1.64183e-07 0 -5.70291e-06 1.55381e-07 0 -5.74069e-06 1.46578e-07 0 -5.77626e-06 1.37731e-07 0 -5.80961e-06 1.28861e-07 0 -5.84074e-06 1.19991e-07 0 -5.86965e-06 1.11083e-07 0 -5.89632e-06 1.02159e-07 0 -5.92077e-06 9.32346e-08 0 -5.94298e-06 8.42789e-08 0 -5.96294e-06 7.5311e-08 0 -5.98067e-06 6.6343e-08 0 -5.99614e-06 5.73478e-08 0 -6.00937e-06 4.83435e-08 0 -6.02034e-06 3.93392e-08 0 -6.02906e-06 3.0311e-08 0 -6.03552e-06 2.12762e-08 0 -6.03972e-06 1.22413e-08 0 -6.04166e-06 3.18623e-09 0 -6.04134e-06 -5.8735e-09 0 -6.03874e-06 -1.49332e-08 0 -6.03388e-06 -2.40076e-08 0 -6.02675e-06 -3.30847e-08 0 -6.01735e-06 -4.21617e-08 0 -6.00568e-06 -5.12443e-08 0 -5.99173e-06 -6.03276e-08 0 -5.97551e-06 -6.9411e-08 0 -5.95702e-06 -7.84852e-08 0 -5.93625e-06 -8.75584e-08 0 -5.91321e-06 -9.66316e-08 0 -5.88791e-06 -1.05674e-07 0 -5.86034e-06 -1.14715e-07 0 -5.83051e-06 -1.23756e-07 0 -5.79842e-06 -1.32735e-07 0 -5.76408e-06 -1.41712e-07 0 -5.72749e-06 -1.50689e-07 0 0 5.83679e-07 0 -1.2547e-07 5.83266e-07 0 -2.50851e-07 5.82853e-07 0 -3.76143e-07 5.82414e-07 0 -5.01252e-07 5.81178e-07 0 -6.26094e-07 5.79942e-07 0 -7.50669e-07 5.78656e-07 0 -8.74879e-07 5.76606e-07 0 -9.98647e-07 5.74557e-07 0 -1.12197e-06 5.72433e-07 0 -1.24475e-06 5.69587e-07 0 -1.36692e-06 5.66741e-07 0 -1.48848e-06 5.63798e-07 0 -1.60931e-06 5.60177e-07 0 -1.72937e-06 5.56556e-07 0 -1.84864e-06 5.52818e-07 0 -1.96703e-06 5.4845e-07 0 -2.08447e-06 5.44082e-07 0 -2.20097e-06 5.39581e-07 0 -2.31643e-06 5.34499e-07 0 -2.43079e-06 5.29418e-07 0 -2.54405e-06 5.24189e-07 0 -2.65611e-06 5.18432e-07 0 -2.76694e-06 5.12675e-07 0 -2.87651e-06 5.06761e-07 0 -2.98475e-06 5.00371e-07 0 -3.09161e-06 4.93981e-07 0 -3.19709e-06 4.87426e-07 0 -3.3011e-06 4.80449e-07 0 -3.4036e-06 4.73472e-07 0 -3.5046e-06 4.66327e-07 0 -3.604e-06 4.58812e-07 0 -3.70178e-06 4.51296e-07 0 -3.79794e-06 4.43613e-07 0 -3.89239e-06 4.35609e-07 0 -3.98512e-06 4.27606e-07 0 -4.07612e-06 4.19438e-07 0 -4.16532e-06 4.10998e-07 0 -4.25271e-06 4.02557e-07 0 -4.33826e-06 3.93961e-07 0 -4.42194e-06 3.85135e-07 0 -4.50371e-06 3.7631e-07 0 -4.58357e-06 3.67338e-07 0 -4.66148e-06 3.58178e-07 0 -4.73741e-06 3.49018e-07 0 -4.81136e-06 3.39724e-07 0 -4.88329e-06 3.30278e-07 0 -4.95319e-06 3.20832e-07 0 -5.02105e-06 3.11266e-07 0 -5.08683e-06 3.0158e-07 0 -5.15053e-06 2.91894e-07 0 -5.21214e-06 2.82103e-07 0 -5.27163e-06 2.7222e-07 0 -5.329e-06 2.62336e-07 0 -5.38423e-06 2.52362e-07 0 -5.43732e-06 2.42318e-07 0 -5.48824e-06 2.32274e-07 0 -5.537e-06 2.22155e-07 0 -5.58358e-06 2.11984e-07 0 -5.62797e-06 2.01812e-07 0 -5.67017e-06 1.91578e-07 0 -5.71018e-06 1.81306e-07 0 -5.74797e-06 1.71034e-07 0 -5.78356e-06 1.60711e-07 0 -5.81693e-06 1.5036e-07 0 -5.84807e-06 1.4001e-07 0 -5.877e-06 1.29616e-07 0 -5.90369e-06 1.19203e-07 0 -5.92814e-06 1.0879e-07 0 -5.95036e-06 9.83412e-08 0 -5.97034e-06 8.78776e-08 0 -5.98808e-06 7.74141e-08 0 -6.00356e-06 6.69189e-08 0 -6.0168e-06 5.64132e-08 0 -6.02778e-06 4.59074e-08 0 -6.03651e-06 3.53738e-08 0 -6.04298e-06 2.48324e-08 0 -6.04719e-06 1.4291e-08 0 -6.04913e-06 3.72584e-09 0 -6.04881e-06 -6.84479e-09 0 -6.04622e-06 -1.74154e-08 0 -6.04137e-06 -2.80035e-08 0 -6.03424e-06 -3.85948e-08 0 -6.02484e-06 -4.91861e-08 0 -6.01317e-06 -5.97844e-08 0 -5.99922e-06 -7.03837e-08 0 -5.983e-06 -8.09831e-08 0 -5.9645e-06 -9.15724e-08 0 -5.94373e-06 -1.02161e-07 0 -5.92069e-06 -1.12749e-07 0 -5.89537e-06 -1.23303e-07 0 -5.86779e-06 -1.33854e-07 0 -5.83794e-06 -1.44406e-07 0 -5.80583e-06 -1.54886e-07 0 -5.77147e-06 -1.65363e-07 0 -5.73486e-06 -1.75841e-07 0 0 6.67422e-07 0 -1.25667e-07 6.66949e-07 0 -2.51245e-07 6.66476e-07 0 -3.76733e-07 6.65974e-07 0 -5.02037e-07 6.6456e-07 0 -6.27074e-07 6.63146e-07 0 -7.51843e-07 6.61674e-07 0 -8.76246e-07 6.5933e-07 0 -1.00021e-06 6.56986e-07 0 -1.12372e-06 6.54556e-07 0 -1.24669e-06 6.513e-07 0 -1.36905e-06 6.48044e-07 0 -1.49079e-06 6.44677e-07 0 -1.61181e-06 6.40534e-07 0 -1.73204e-06 6.36392e-07 0 -1.85149e-06 6.32116e-07 0 -1.97006e-06 6.27119e-07 0 -2.08767e-06 6.22123e-07 0 -2.20435e-06 6.16973e-07 0 -2.31997e-06 6.1116e-07 0 -2.4345e-06 6.05347e-07 0 -2.54792e-06 5.99365e-07 0 -2.66014e-06 5.9278e-07 0 -2.77112e-06 5.86195e-07 0 -2.88085e-06 5.79429e-07 0 -2.98923e-06 5.72119e-07 0 -3.09624e-06 5.6481e-07 0 -3.20186e-06 5.57312e-07 0 -3.306e-06 5.49331e-07 0 -3.40864e-06 5.41351e-07 0 -3.50976e-06 5.33177e-07 0 -3.60929e-06 5.24581e-07 0 -3.70719e-06 5.15984e-07 0 -3.80347e-06 5.07196e-07 0 -3.89803e-06 4.98041e-07 0 -3.99087e-06 4.88887e-07 0 -4.08198e-06 4.79545e-07 0 -4.17128e-06 4.69891e-07 0 -4.25876e-06 4.60238e-07 0 -4.34441e-06 4.50405e-07 0 -4.42817e-06 4.40312e-07 0 -4.51002e-06 4.30218e-07 0 -4.58997e-06 4.19957e-07 0 -4.66795e-06 4.09481e-07 0 -4.74395e-06 3.99006e-07 0 -4.81797e-06 3.88377e-07 0 -4.88997e-06 3.77575e-07 0 -4.95993e-06 3.66773e-07 0 -5.02784e-06 3.55834e-07 0 -5.09368e-06 3.44758e-07 0 -5.15743e-06 3.33682e-07 0 -5.21909e-06 3.22487e-07 0 -5.27862e-06 3.11186e-07 0 -5.33603e-06 2.99885e-07 0 -5.3913e-06 2.88481e-07 0 -5.44442e-06 2.76997e-07 0 -5.49537e-06 2.65514e-07 0 -5.54416e-06 2.53945e-07 0 -5.59077e-06 2.42316e-07 0 -5.63519e-06 2.30688e-07 0 -5.67742e-06 2.18988e-07 0 -5.71744e-06 2.07246e-07 0 -5.75526e-06 1.95503e-07 0 -5.79086e-06 1.83702e-07 0 -5.82425e-06 1.71871e-07 0 -5.85541e-06 1.60039e-07 0 -5.88435e-06 1.48159e-07 0 -5.91105e-06 1.36257e-07 0 -5.93552e-06 1.24355e-07 0 -5.95775e-06 1.12411e-07 0 -5.97774e-06 1.00451e-07 0 -5.99548e-06 8.84919e-08 0 -6.01098e-06 7.64964e-08 0 -6.02423e-06 6.44889e-08 0 -6.03522e-06 5.24814e-08 0 -6.04395e-06 4.0442e-08 0 -6.05043e-06 2.83937e-08 0 -6.05465e-06 1.63454e-08 0 -6.0566e-06 4.26977e-09 0 -6.05628e-06 -7.81221e-09 0 -6.0537e-06 -1.98942e-08 0 -6.04885e-06 -3.19966e-08 0 -6.04173e-06 -4.41029e-08 0 -6.03233e-06 -5.62091e-08 0 -6.02066e-06 -6.83241e-08 0 -6.00671e-06 -8.04404e-08 0 -5.99049e-06 -9.25566e-08 0 -5.97199e-06 -1.04663e-07 0 -5.95121e-06 -1.16767e-07 0 -5.92816e-06 -1.28872e-07 0 -5.90284e-06 -1.40939e-07 0 -5.87524e-06 -1.53002e-07 0 -5.84538e-06 -1.65066e-07 0 -5.81325e-06 -1.7705e-07 0 -5.77887e-06 -1.89031e-07 0 -5.74223e-06 -2.01011e-07 0 0 7.51295e-07 0 -1.25871e-07 7.50763e-07 0 -2.51653e-07 7.50231e-07 0 -3.77345e-07 7.49665e-07 0 -5.02852e-07 7.48073e-07 0 -6.28091e-07 7.4648e-07 0 -7.53062e-07 7.44822e-07 0 -8.77666e-07 7.42182e-07 0 -1.00182e-06 7.39542e-07 0 -1.12554e-06 7.36805e-07 0 -1.2487e-06 7.33138e-07 0 -1.37125e-06 7.29471e-07 0 -1.49318e-06 7.25679e-07 0 -1.61439e-06 7.21014e-07 0 -1.73482e-06 7.16348e-07 0 -1.85445e-06 7.11533e-07 0 -1.9732e-06 7.05905e-07 0 -2.091e-06 7.00278e-07 0 -2.20785e-06 6.94478e-07 0 -2.32365e-06 6.87932e-07 0 -2.43834e-06 6.81386e-07 0 -2.55193e-06 6.74649e-07 0 -2.66432e-06 6.67233e-07 0 -2.77546e-06 6.59817e-07 0 -2.88535e-06 6.52197e-07 0 -2.99389e-06 6.43965e-07 0 -3.10104e-06 6.35734e-07 0 -3.20681e-06 6.2729e-07 0 -3.31109e-06 6.18303e-07 0 -3.41387e-06 6.09316e-07 0 -3.51512e-06 6.00112e-07 0 -3.61478e-06 5.90432e-07 0 -3.71281e-06 5.80752e-07 0 -3.8092e-06 5.70856e-07 0 -3.90389e-06 5.60547e-07 0 -3.99684e-06 5.50239e-07 0 -4.08805e-06 5.3972e-07 0 -4.17746e-06 5.28851e-07 0 -4.26504e-06 5.17981e-07 0 -4.35078e-06 5.0691e-07 0 -4.43463e-06 4.95545e-07 0 -4.51658e-06 4.84181e-07 0 -4.5966e-06 4.72628e-07 0 -4.67466e-06 4.60834e-07 0 -4.75074e-06 4.4904e-07 0 -4.82483e-06 4.37074e-07 0 -4.8969e-06 4.24914e-07 0 -4.96692e-06 4.12753e-07 0 -5.03489e-06 4.00439e-07 0 -5.10079e-06 3.87971e-07 0 -5.16459e-06 3.75503e-07 0 -5.22629e-06 3.62901e-07 0 -5.28587e-06 3.5018e-07 0 -5.34332e-06 3.3746e-07 0 -5.39863e-06 3.24624e-07 0 -5.45179e-06 3.11699e-07 0 -5.50278e-06 2.98774e-07 0 -5.5516e-06 2.85753e-07 0 -5.59823e-06 2.72667e-07 0 -5.64268e-06 2.5958e-07 0 -5.68493e-06 2.46413e-07 0 -5.72498e-06 2.33199e-07 0 -5.76281e-06 2.19985e-07 0 -5.79844e-06 2.06706e-07 0 -5.83184e-06 1.93392e-07 0 -5.86302e-06 1.80079e-07 0 -5.89197e-06 1.66711e-07 0 -5.91869e-06 1.53319e-07 0 -5.94317e-06 1.39927e-07 0 -5.96542e-06 1.26489e-07 0 -5.98542e-06 1.13033e-07 0 -6.00317e-06 9.95765e-08 0 -6.01868e-06 8.60803e-08 0 -6.03193e-06 7.25707e-08 0 -6.04293e-06 5.90611e-08 0 -6.05168e-06 4.55156e-08 0 -6.05816e-06 3.19601e-08 0 -6.06239e-06 1.84046e-08 0 -6.06435e-06 4.81802e-09 0 -6.06404e-06 -8.77575e-09 0 -6.06146e-06 -2.23695e-08 0 -6.05662e-06 -3.5987e-08 0 -6.0495e-06 -4.96088e-08 0 -6.0401e-06 -6.32306e-08 0 -6.02843e-06 -7.68632e-08 0 -6.01449e-06 -9.04975e-08 0 -5.99826e-06 -1.04132e-07 0 -5.97976e-06 -1.17755e-07 0 -5.95898e-06 -1.31378e-07 0 -5.93592e-06 -1.45001e-07 0 -5.91058e-06 -1.58582e-07 0 -5.88298e-06 -1.7216e-07 0 -5.8531e-06 -1.85738e-07 0 -5.82095e-06 -1.99227e-07 0 -5.78654e-06 -2.12714e-07 0 -5.74987e-06 -2.262e-07 0 0 8.35332e-07 0 -1.26148e-07 8.34739e-07 0 -2.52205e-07 8.34147e-07 0 -3.78173e-07 8.33518e-07 0 -5.03955e-07 8.31747e-07 0 -6.29468e-07 8.29975e-07 0 -7.54712e-07 8.2813e-07 0 -8.79587e-07 8.25193e-07 0 -1.00401e-06 8.22256e-07 0 -1.128e-06 8.19211e-07 0 -1.25143e-06 8.15132e-07 0 -1.37424e-06 8.11052e-07 0 -1.49643e-06 8.06833e-07 0 -1.6179e-06 8.01643e-07 0 -1.73858e-06 7.96453e-07 0 -1.85846e-06 7.91096e-07 0 -1.97746e-06 7.84836e-07 0 -2.0955e-06 7.78576e-07 0 -2.21259e-06 7.72124e-07 0 -2.32862e-06 7.64841e-07 0 -2.44355e-06 7.57559e-07 0 -2.55737e-06 7.50065e-07 0 -2.66998e-06 7.41815e-07 0 -2.78133e-06 7.33565e-07 0 -2.89143e-06 7.25089e-07 0 -3.00018e-06 7.15932e-07 0 -3.10754e-06 7.06776e-07 0 -3.2135e-06 6.97383e-07 0 -3.31798e-06 6.87387e-07 0 -3.42094e-06 6.7739e-07 0 -3.52238e-06 6.67152e-07 0 -3.62221e-06 6.56385e-07 0 -3.72041e-06 6.45617e-07 0 -3.81697e-06 6.3461e-07 0 -3.91181e-06 6.23145e-07 0 -4.00491e-06 6.11679e-07 0 -4.09627e-06 5.9998e-07 0 -4.18582e-06 5.87891e-07 0 -4.27353e-06 5.75801e-07 0 -4.35941e-06 5.63489e-07 0 -4.44338e-06 5.5085e-07 0 -4.52544e-06 5.38211e-07 0 -4.60558e-06 5.25364e-07 0 -4.68374e-06 5.12248e-07 0 -4.75992e-06 4.99132e-07 0 -4.83411e-06 4.85826e-07 0 -4.90626e-06 4.72304e-07 0 -4.97637e-06 4.58782e-07 0 -5.04442e-06 4.45089e-07 0 -5.11039e-06 4.31226e-07 0 -5.17426e-06 4.17363e-07 0 -5.23603e-06 4.03352e-07 0 -5.29567e-06 3.89209e-07 0 -5.35318e-06 3.75067e-07 0 -5.40854e-06 3.60797e-07 0 -5.46174e-06 3.46429e-07 0 -5.51278e-06 3.3206e-07 0 -5.56164e-06 3.17586e-07 0 -5.60831e-06 3.03039e-07 0 -5.65279e-06 2.88492e-07 0 -5.69508e-06 2.73857e-07 0 -5.73515e-06 2.5917e-07 0 -5.77302e-06 2.44482e-07 0 -5.80867e-06 2.29723e-07 0 -5.84209e-06 2.14927e-07 0 -5.87329e-06 2.0013e-07 0 -5.90227e-06 1.85274e-07 0 -5.929e-06 1.70392e-07 0 -5.9535e-06 1.55509e-07 0 -5.97576e-06 1.40575e-07 0 -5.99578e-06 1.25622e-07 0 -6.01355e-06 1.10669e-07 0 -6.02907e-06 9.5672e-08 0 -6.04234e-06 8.06599e-08 0 -6.05335e-06 6.56478e-08 0 -6.06211e-06 5.05959e-08 0 -6.0686e-06 3.55328e-08 0 -6.07284e-06 2.04698e-08 0 -6.0748e-06 5.37177e-09 0 -6.07451e-06 -9.7343e-09 0 -6.07194e-06 -2.48404e-08 0 -6.0671e-06 -3.99735e-08 0 -6.05998e-06 -5.51117e-08 0 -6.0506e-06 -7.02499e-08 0 -6.03893e-06 -8.54014e-08 0 -6.02498e-06 -1.00555e-07 0 -6.00876e-06 -1.15708e-07 0 -5.99025e-06 -1.30852e-07 0 -5.96946e-06 -1.45994e-07 0 -5.9464e-06 -1.61136e-07 0 -5.92105e-06 -1.76234e-07 0 -5.89343e-06 -1.91329e-07 0 -5.86352e-06 -2.06424e-07 0 -5.83135e-06 -2.21421e-07 0 -5.79692e-06 -2.36416e-07 0 -5.76021e-06 -2.51411e-07 0 0 9.19552e-07 0 -1.26424e-07 9.189e-07 0 -2.52758e-07 9.18248e-07 0 -3.79001e-07 9.17555e-07 0 -5.05058e-07 9.15603e-07 0 -6.30845e-07 9.13651e-07 0 -7.56361e-07 9.1162e-07 0 -8.81507e-07 9.08384e-07 0 -1.00621e-06 9.05148e-07 0 -1.13045e-06 9.01795e-07 0 -1.25415e-06 8.97301e-07 0 -1.37723e-06 8.92807e-07 0 -1.49968e-06 8.8816e-07 0 -1.6214e-06 8.82444e-07 0 -1.74233e-06 8.76727e-07 0 -1.86247e-06 8.70825e-07 0 -1.98171e-06 8.6393e-07 0 -2.1e-06 8.57034e-07 0 -2.21733e-06 8.49928e-07 0 -2.3336e-06 8.41906e-07 0 -2.44876e-06 8.33885e-07 0 -2.5628e-06 8.2563e-07 0 -2.67563e-06 8.16544e-07 0 -2.78721e-06 8.07457e-07 0 -2.89752e-06 7.98121e-07 0 -3.00648e-06 7.88036e-07 0 -3.11404e-06 7.77951e-07 0 -3.2202e-06 7.67606e-07 0 -3.32487e-06 7.56596e-07 0 -3.42801e-06 7.45586e-07 0 -3.52963e-06 7.34311e-07 0 -3.62964e-06 7.22452e-07 0 -3.72801e-06 7.10594e-07 0 -3.82473e-06 6.98472e-07 0 -3.91973e-06 6.85845e-07 0 -4.01299e-06 6.73219e-07 0 -4.10449e-06 6.60335e-07 0 -4.19418e-06 6.47023e-07 0 -4.28203e-06 6.3371e-07 0 -4.36803e-06 6.20152e-07 0 -4.45213e-06 6.06235e-07 0 -4.5343e-06 5.92318e-07 0 -4.61455e-06 5.78172e-07 0 -4.69282e-06 5.63731e-07 0 -4.7691e-06 5.4929e-07 0 -4.84339e-06 5.3464e-07 0 -4.91563e-06 5.19752e-07 0 -4.98582e-06 5.04865e-07 0 -5.05395e-06 4.89791e-07 0 -5.11999e-06 4.7453e-07 0 -5.18394e-06 4.59269e-07 0 -5.24577e-06 4.43845e-07 0 -5.30547e-06 4.28277e-07 0 -5.36303e-06 4.1271e-07 0 -5.41845e-06 3.97003e-07 0 -5.4717e-06 3.81189e-07 0 -5.52278e-06 3.65375e-07 0 -5.57168e-06 3.49445e-07 0 -5.61839e-06 3.33435e-07 0 -5.66291e-06 3.17426e-07 0 -5.70523e-06 3.01321e-07 0 -5.74533e-06 2.85159e-07 0 -5.78322e-06 2.68997e-07 0 -5.8189e-06 2.52757e-07 0 -5.85235e-06 2.36476e-07 0 -5.88357e-06 2.20196e-07 0 -5.91256e-06 2.03851e-07 0 -5.93932e-06 1.87476e-07 0 -5.96383e-06 1.71102e-07 0 -5.98611e-06 1.54673e-07 0 -6.00614e-06 1.38222e-07 0 -6.02392e-06 1.21771e-07 0 -6.03946e-06 1.05273e-07 0 -6.05274e-06 8.87576e-08 0 -6.06376e-06 7.22426e-08 0 -6.07253e-06 5.56838e-08 0 -6.07904e-06 3.91128e-08 0 -6.08328e-06 2.25417e-08 0 -6.08526e-06 5.93181e-09 0 -6.08497e-06 -1.06871e-08 0 -6.08241e-06 -2.7306e-08 0 -6.07758e-06 -4.39557e-08 0 -6.07047e-06 -6.06112e-08 0 -6.06109e-06 -7.72666e-08 0 -6.04942e-06 -9.39381e-08 0 -6.03548e-06 -1.10612e-07 0 -6