<?xml version="1.0"?> 
<VTKFile type="StructuredGrid" version="0.1"> 
<StructuredGrid WholeExtent="0 95 0 95 0 0"> 
<Piece Extent="0 95 0 95 0 0"> 
<PointData>
<DataArray type="Float32" Name="B" format="ascii" NumberOfComponents="3"> 
-5.70955e-06 -0 0 -5.68396e-06 -0 0 -5.65738e-06 -0 0 -5.62982e-06 -0 0 -5.60127e-06 -0 0 -5.57175e-06 -0 0 -5.54125e-06 -0 0 -5.50978e-06 -0 0 -5.47735e-06 -0 0 -5.44395e-06 -0 0 -5.40959e-06 -0 0 -5.37428e-06 -0 0 -5.33802e-06 -0 0 -5.30082e-06 -0 0 -5.26268e-06 -0 0 -5.22362e-06 -0 0 -5.18362e-06 -0 0 -5.14272e-06 -0 0 -5.1009e-06 -0 0 -5.05818e-06 -0 0 -5.01456e-06 -0 0 -4.97006e-06 -0 0 -4.92468e-06 -0 0 -4.87842e-06 -0 0 -4.83131e-06 -0 0 -4.78334e-06 -0 0 -4.73453e-06 -0 0 -4.68487e-06 -0 0 -4.6344e-06 -0 0 -4.58312e-06 -0 0 -4.53102e-06 -0 0 -4.47814e-06 -0 0 -4.42447e-06 -0 0 -4.37002e-06 -0 0 -4.31482e-06 -0 0 -4.25886e-06 -0 0 -4.20216e-06 -0 0 -4.14474e-06 -0 0 -4.08661e-06 -0 0 -4.02776e-06 -0 0 -3.96823e-06 -0 0 -3.90801e-06 -0 0 -3.84713e-06 -0 0 -3.78559e-06 -0 0 -3.72341e-06 -0 0 -3.6606e-06 -0 0 -3.59718e-06 -0 0 -3.53315e-06 -0 0 -3.46852e-06 -0 0 -3.40332e-06 -0 0 -3.33756e-06 -0 0 -3.27123e-06 -0 0 -3.20437e-06 -0 0 -3.13699e-06 -0 0 -3.06908e-06 -0 0 -3.00069e-06 -0 0 -2.9318e-06 -0 0 -2.86243e-06 -0 0 -2.79261e-06 -0 0 -2.72234e-06 -0 0 -2.65163e-06 -0 0 -2.5805e-06 -0 0 -2.50896e-06 -0 0 -2.43702e-06 -0 0 -2.3647e-06 -0 0 -2.29201e-06 -0 0 -2.21896e-06 -0 0 -2.14556e-06 -0 0 -2.07184e-06 -0 0 -1.99778e-06 -0 0 -1.92343e-06 -0 0 -1.84878e-06 -0 0 -1.77384e-06 -0 0 -1.69864e-06 -0 0 -1.62318e-06 -0 0 -1.54747e-06 -0 0 -1.47153e-06 -0 0 -1.39536e-06 -0 0 -1.31898e-06 -0 0 -1.24242e-06 -0 0 -1.16566e-06 -0 0 -1.08873e-06 -0 0 -1.01164e-06 -0 0 -9.34392e-07 -0 0 -8.57008e-07 -0 0 -7.79503e-07 -0 0 -7.0188e-07 -0 0 -6.2415e-07 -0 0 -5.46335e-07 -0 0 -4.68435e-07 -0 0 -3.90465e-07 -0 0 -3.12444e-07 -0 0 -2.34372e-07 -0 0 -1.56265e-07 -0 0 -7.81411e-08 -0 0 0 -0 0 -5.71102e-06 -2.50979e-08 0 -5.68543e-06 -2.60849e-08 0 -5.65885e-06 -2.7072e-08 0 -5.63128e-06 -2.80587e-08 0 -5.60273e-06 -2.90362e-08 0 -5.5732e-06 -3.00137e-08 0 -5.54269e-06 -3.09904e-08 0 -5.51122e-06 -3.1956e-08 0 -5.47878e-06 -3.29216e-08 0 -5.44537e-06 -3.38858e-08 0 -5.411e-06 -3.48371e-08 0 -5.37569e-06 -3.57884e-08 0 -5.33942e-06 -3.67376e-08 0 -5.30221e-06 -3.76721e-08 0 -5.26407e-06 -3.86067e-08 0 -5.22499e-06 -3.95381e-08 0 -5.18499e-06 -4.04533e-08 0 -5.14407e-06 -4.13685e-08 0 -5.10224e-06 -4.22796e-08 0 -5.05951e-06 -4.31729e-08 0 -5.01588e-06 -4.40662e-08 0 -4.97136e-06 -4.49542e-08 0 -4.92597e-06 -4.58231e-08 0 -4.8797e-06 -4.66921e-08 0 -4.83257e-06 -4.75543e-08 0 -4.78459e-06 -4.83965e-08 0 -4.73577e-06 -4.92387e-08 0 -4.6861e-06 -5.00727e-08 0 -4.63561e-06 -5.08859e-08 0 -4.58431e-06 -5.16991e-08 0 -4.5322e-06 -5.25026e-08 0 -4.4793e-06 -5.32848e-08 0 -4.42562e-06 -5.40669e-08 0 -4.37115e-06 -5.48377e-08 0 -4.31593e-06 -5.5587e-08 0 -4.25996e-06 -5.63363e-08 0 -4.20324e-06 -5.70726e-08 0 -4.1458e-06 -5.77874e-08 0 -4.08765e-06 -5.85021e-08 0 -4.02879e-06 -5.92024e-08 0 -3.96923e-06 -5.98813e-08 0 -3.909e-06 -6.05603e-08 0 -3.8481e-06 -6.12231e-08 0 -3.78655e-06 -6.18651e-08 0 -3.72435e-06 -6.25072e-08 0 -3.66152e-06 -6.31315e-08 0 -3.59807e-06 -6.37358e-08 0 -3.53403e-06 -6.43402e-08 0 -3.46938e-06 -6.49253e-08 0 -3.40416e-06 -6.54913e-08 0 -3.33838e-06 -6.60574e-08 0 -3.27203e-06 -6.66028e-08 0 -3.20516e-06 -6.71302e-08 0 -3.13775e-06 -6.76576e-08 0 -3.06983e-06 -6.81631e-08 0 -3.00141e-06 -6.86517e-08 0 -2.9325e-06 -6.91403e-08 0 -2.86312e-06 -6.96059e-08 0 -2.79328e-06 -7.00557e-08 0 -2.72299e-06 -7.05055e-08 0 -2.65225e-06 -7.09313e-08 0 -2.58111e-06 -7.13426e-08 0 -2.50955e-06 -7.17539e-08 0 -2.43759e-06 -7.21402e-08 0 -2.36525e-06 -7.25133e-08 0 -2.29254e-06 -7.28864e-08 0 -2.21947e-06 -7.32336e-08 0 -2.14606e-06 -7.3569e-08 0 -2.07231e-06 -7.39043e-08 0 -1.99824e-06 -7.42129e-08 0 -1.92387e-06 -7.4511e-08 0 -1.8492e-06 -7.48091e-08 0 -1.77424e-06 -7.50796e-08 0 -1.69902e-06 -7.5341e-08 0 -1.62354e-06 -7.56024e-08 0 -1.54781e-06 -7.58354e-08 0 -1.47186e-06 -7.60606e-08 0 -1.39567e-06 -7.62858e-08 0 -1.31928e-06 -7.6482e-08 0 -1.24269e-06 -7.66715e-08 0 -1.16592e-06 -7.6861e-08 0 -1.08897e-06 -7.70208e-08 0 -1.01186e-06 -7.71751e-08 0 -9.34598e-07 -7.73294e-08 0 -8.57196e-07 -7.74533e-08 0 -7.79674e-07 -7.75728e-08 0 -7.02033e-07 -7.76924e-08 0 -6.24286e-07 -7.77807e-08 0 -5.46455e-07 -7.78659e-08 0 -4.68538e-07 -7.7951e-08 0 -3.9055e-07 -7.80041e-08 0 -3.12512e-07 -7.80551e-08 0 -2.34423e-07 -7.81061e-08 0 -1.56299e-07 -7.81241e-08 0 -7.8158e-08 -7.81411e-08 0 0 -7.8158e-08 0 -5.71249e-06 -5.01996e-08 0 -5.68689e-06 -5.2174e-08 0 -5.66031e-06 -5.41484e-08 0 -5.63274e-06 -5.61222e-08 0 -5.60418e-06 -5.80776e-08 0 -5.57465e-06 -6.00329e-08 0 -5.54414e-06 -6.19868e-08 0 -5.51265e-06 -6.39183e-08 0 -5.48021e-06 -6.58499e-08 0 -5.44679e-06 -6.77788e-08 0 -5.41242e-06 -6.96818e-08 0 -5.37709e-06 -7.15848e-08 0 -5.34082e-06 -7.34837e-08 0 -5.3036e-06 -7.53531e-08 0 -5.26545e-06 -7.72226e-08 0 -5.22636e-06 -7.9086e-08 0 -5.18635e-06 -8.09168e-08 0 -5.14542e-06 -8.27476e-08 0 -5.10358e-06 -8.45702e-08 0 -5.06084e-06 -8.63573e-08 0 -5.0172e-06 -8.81443e-08 0 -4.97267e-06 -8.99207e-08 0 -4.92726e-06 -9.1659e-08 0 -4.88098e-06 -9.33973e-08 0 -4.83384e-06 -9.51222e-08 0 -4.78584e-06 -9.68069e-08 0 -4.737e-06 -9.84917e-08 0 -4.68732e-06 -1.0016e-07 0 -4.63682e-06 -1.01787e-07 0 -4.58551e-06 -1.03414e-07 0 -4.53338e-06 -1.05021e-07 0 -4.48046e-06 -1.06585e-07 0 -4.42676e-06 -1.0815e-07 0 -4.37228e-06 -1.09692e-07 0 -4.31704e-06 -1.11191e-07 0 -4.26106e-06 -1.1269e-07 0 -4.20432e-06 -1.14162e-07 0 -4.14687e-06 -1.15592e-07 0 -4.0887e-06 -1.17022e-07 0 -4.02981e-06 -1.18423e-07 0 -3.97024e-06 -1.19781e-07 0 -3.91e-06 -1.21139e-07 0 -3.84907e-06 -1.22465e-07 0 -3.7875e-06 -1.23749e-07 0 -3.72529e-06 -1.25033e-07 0 -3.66243e-06 -1.26282e-07 0 -3.59897e-06 -1.27491e-07 0 -3.5349e-06 -1.28699e-07 0 -3.47024e-06 -1.2987e-07 0 -3.405e-06 -1.31002e-07 0 -3.3392e-06 -1.32134e-07 0 -3.27283e-06 -1.33225e-07 0 -3.20594e-06 -1.3428e-07 0 -3.13851e-06 -1.35335e-07 0 -3.07057e-06 -1.36346e-07 0 -3.00213e-06 -1.37323e-07 0 -2.93321e-06 -1.383e-07 0 -2.8638e-06 -1.39231e-07 0 -2.79394e-06 -1.40131e-07 0 -2.72363e-06 -1.4103e-07 0 -2.65288e-06 -1.41882e-07 0 -2.58172e-06 -1.42704e-07 0 -2.51014e-06 -1.43527e-07 0 -2.43816e-06 -1.44299e-07 0 -2.3658e-06 -1.45046e-07 0 -2.29307e-06 -1.45792e-07 0 -2.21998e-06 -1.46486e-07 0 -2.14655e-06 -1.47157e-07 0 -2.07279e-06 -1.47827e-07 0 -1.9987e-06 -1.48444e-07 0 -1.92431e-06 -1.4904e-07 0 -1.84962e-06 -1.49637e-07 0 -1.77465e-06 -1.50178e-07 0 -1.69941e-06 -1.507e-07 0 -1.62391e-06 -1.51223e-07 0 -1.54816e-06 -1.51689e-07 0 -1.47218e-06 -1.52139e-07 0 -1.39598e-06 -1.52589e-07 0 -1.31957e-06 -1.52982e-07 0 -1.24297e-06 -1.53361e-07 0 -1.16618e-06 -1.5374e-07 0 -1.08921e-06 -1.54059e-07 0 -1.01208e-06 -1.54368e-07 0 -9.34803e-07 -1.54676e-07 0 -8.57384e-07 -1.54924e-07 0 -7.79845e-07 -1.55163e-07 0 -7.02186e-07 -1.55402e-07 0 -6.24423e-07 -1.55579e-07 0 -5.46574e-07 -1.55749e-07 0 -4.6864e-07 -1.55919e-07 0 -3.90635e-07 -1.56025e-07 0 -3.1258e-07 -1.56127e-07 0 -2.34474e-07 -1.56229e-07 0 -1.56333e-07 -1.56265e-07 0 -7.8175e-08 -1.56299e-07 0 0 -1.56333e-07 0 -5.71405e-06 -7.5305e-08 0 -5.68845e-06 -7.82671e-08 0 -5.66186e-06 -8.12293e-08 0 -5.63428e-06 -8.41906e-08 0 -5.60572e-06 -8.71242e-08 0 -5.57619e-06 -9.00577e-08 0 -5.54567e-06 -9.29891e-08 0 -5.51418e-06 -9.5887e-08 0 -5.48172e-06 -9.8785e-08 0 -5.4483e-06 -1.01679e-07 0 -5.41392e-06 -1.04534e-07 0 -5.37859e-06 -1.07389e-07 0 -5.3423e-06 -1.10238e-07 0 -5.30508e-06 -1.13043e-07 0 -5.26691e-06 -1.15848e-07 0 -5.22782e-06 -1.18644e-07 0 -5.18779e-06 -1.21391e-07 0 -5.14686e-06 -1.24137e-07 0 -5.105e-06 -1.26872e-07 0 -5.06225e-06 -1.29553e-07 0 -5.0186e-06 -1.32234e-07 0 -4.97406e-06 -1.34899e-07 0 -4.92864e-06 -1.37507e-07 0 -4.88234e-06 -1.40116e-07 0 -4.83519e-06 -1.42703e-07 0 -4.78717e-06 -1.45231e-07 0 -4.73832e-06 -1.47759e-07 0 -4.68863e-06 -1.50262e-07 0 -4.63811e-06 -1.52703e-07 0 -4.58678e-06 -1.55143e-07 0 -4.53463e-06 -1.57555e-07 0 -4.4817e-06 -1.59902e-07 0 -4.42798e-06 -1.62249e-07 0 -4.37348e-06 -1.64563e-07 0 -4.31823e-06 -1.66811e-07 0 -4.26222e-06 -1.6906e-07 0 -4.20547e-06 -1.7127e-07 0 -4.148e-06 -1.73415e-07 0 -4.08981e-06 -1.7556e-07 0 -4.0309e-06 -1.77661e-07 0 -3.97132e-06 -1.79698e-07 0 -3.91105e-06 -1.81736e-07 0 -3.8501e-06 -1.83725e-07 0 -3.78851e-06 -1.85651e-07 0 -3.72628e-06 -1.87578e-07 0 -3.66341e-06 -1.89451e-07 0 -3.59992e-06 -1.91265e-07 0 -3.53584e-06 -1.93078e-07 0 -3.47115e-06 -1.94834e-07 0 -3.40589e-06 -1.96532e-07 0 -3.34007e-06 -1.9823e-07 0 -3.27368e-06 -1.99867e-07 0 -3.20677e-06 -2.01449e-07 0 -3.13933e-06 -2.03031e-07 0 -3.07136e-06 -2.04548e-07 0 -3.0029e-06 -2.06013e-07 0 -2.93396e-06 -2.07479e-07 0 -2.86453e-06 -2.08876e-07 0 -2.79465e-06 -2.10225e-07 0 -2.72432e-06 -2.11574e-07 0 -2.65355e-06 -2.12852e-07 0 -2.58236e-06 -2.14085e-07 0 -2.51076e-06 -2.15319e-07 0 -2.43876e-06 -2.16478e-07 0 -2.36639e-06 -2.17597e-07 0 -2.29364e-06 -2.18716e-07 0 -2.22053e-06 -2.19757e-07 0 -2.14708e-06 -2.20763e-07 0 -2.07329e-06 -2.21769e-07 0 -1.99918e-06 -2.22694e-07 0 -1.92477e-06 -2.23588e-07 0 -1.85007e-06 -2.24482e-07 0 -1.77507e-06 -2.25294e-07 0 -1.69981e-06 -2.26078e-07 0 -1.6243e-06 -2.26861e-07 0 -1.54853e-06 -2.2756e-07 0 -1.47253e-06 -2.28236e-07 0 -1.39632e-06 -2.28911e-07 0 -1.31988e-06 -2.29499e-07 0 -1.24326e-06 -2.30067e-07 0 -1.16645e-06 -2.30636e-07 0 -1.08946e-06 -2.31115e-07 0 -1.01232e-06 -2.31578e-07 0 -9.35021e-07 -2.3204e-07 0 -8.57584e-07 -2.32412e-07 0 -7.80026e-07 -2.3277e-07 0 -7.0235e-07 -2.33129e-07 0 -6.24567e-07 -2.33394e-07 0 -5.467e-07 -2.33649e-07 0 -4.68748e-07 -2.33904e-07 0 -3.90726e-07 -2.34064e-07 0 -3.12652e-07 -2.34216e-07 0 -2.34528e-07 -2.34369e-07 0 -1.56369e-07 -2.34423e-07 0 -7.81931e-08 -2.34474e-07 0 0 -2.34525e-07 0 -5.71847e-06 -1.00418e-07 0 -5.69286e-06 -1.04369e-07 0 -5.66625e-06 -1.08319e-07 0 -5.63866e-06 -1.12269e-07 0 -5.61009e-06 -1.16181e-07 0 -5.58053e-06 -1.20094e-07 0 -5.55e-06 -1.24004e-07 0 -5.51849e-06 -1.27869e-07 0 -5.48602e-06 -1.31734e-07 0 -5.45257e-06 -1.35594e-07 0 -5.41817e-06 -1.39402e-07 0 -5.38281e-06 -1.4321e-07 0 -5.3465e-06 -1.4701e-07 0 -5.30925e-06 -1.50751e-07 0 -5.27106e-06 -1.54492e-07 0 -5.23193e-06 -1.58221e-07 0 -5.19188e-06 -1.61885e-07 0 -5.15091e-06 -1.65549e-07 0 -5.10903e-06 -1.69196e-07 0 -5.06624e-06 -1.72772e-07 0 -5.02256e-06 -1.76349e-07 0 -4.97798e-06 -1.79904e-07 0 -4.93252e-06 -1.83382e-07 0 -4.88619e-06 -1.86861e-07 0 -4.83899e-06 -1.90313e-07 0 -4.79094e-06 -1.93684e-07 0 -4.74204e-06 -1.97055e-07 0 -4.6923e-06 -2.00394e-07 0 -4.64174e-06 -2.03649e-07 0 -4.59036e-06 -2.06905e-07 0 -4.53817e-06 -2.10121e-07 0 -4.48519e-06 -2.13252e-07 0 -4.43143e-06 -2.16382e-07 0 -4.37688e-06 -2.19468e-07 0 -4.32157e-06 -2.22467e-07 0 -4.26552e-06 -2.25466e-07 0 -4.20871e-06 -2.28413e-07 0 -4.15119e-06 -2.31274e-07 0 -4.09294e-06 -2.34134e-07 0 -4.03399e-06 -2.36937e-07 0 -3.97434e-06 -2.39654e-07 0 -3.91402e-06 -2.42371e-07 0 -3.85302e-06 -2.45023e-07 0 -3.79138e-06 -2.47592e-07 0 -3.72909e-06 -2.50162e-07 0 -3.66616e-06 -2.5266e-07 0 -3.60262e-06 -2.55078e-07 0 -3.53847e-06 -2.57496e-07 0 -3.47373e-06 -2.59837e-07 0 -3.40841e-06 -2.62101e-07 0 -3.34253e-06 -2.64366e-07 0 -3.27609e-06 -2.66548e-07 0 -3.20911e-06 -2.68658e-07 0 -3.14161e-06 -2.70767e-07 0 -3.07359e-06 -2.7279e-07 0 -3.00507e-06 -2.74744e-07 0 -2.93607e-06 -2.76698e-07 0 -2.86658e-06 -2.7856e-07 0 -2.79665e-06 -2.80359e-07 0 -2.72626e-06 -2.82158e-07 0 -2.65543e-06 -2.83861e-07 0 -2.58418e-06 -2.85506e-07 0 -2.51253e-06 -2.87151e-07 0 -2.44047e-06 -2.88695e-07 0 -2.36804e-06 -2.90187e-07 0 -2.29523e-06 -2.91679e-07 0 -2.22207e-06 -2.93067e-07 0 -2.14856e-06 -2.94408e-07 0 -2.07472e-06 -2.95749e-07 0 -2.00055e-06 -2.96983e-07 0 -1.92609e-06 -2.98175e-07 0 -1.85133e-06 -2.99366e-07 0 -1.77628e-06 -3.00448e-07 0 -1.70096e-06 -3.01493e-07 0 -1.62539e-06 -3.02537e-07 0 -1.54957e-06 -3.03469e-07 0 -1.47352e-06 -3.04369e-07 0 -1.39725e-06 -3.05269e-07 0 -1.32076e-06 -3.06053e-07 0 -1.24409e-06 -3.06811e-07 0 -1.16722e-06 -3.07568e-07 0 -1.09018e-06 -3.08207e-07 0 -1.01299e-06 -3.08824e-07 0 -9.35637e-07 -3.0944e-07 0 -8.58147e-07 -3.09935e-07 0 -7.80538e-07 -3.10413e-07 0 -7.0281e-07 -3.10891e-07 0 -6.24976e-07 -3.11244e-07 0 -5.47057e-07 -3.11584e-07 0 -4.69054e-07 -3.11925e-07 0 -3.9098e-07 -3.12137e-07 0 -3.12856e-07 -3.12341e-07 0 -2.34681e-07 -3.12544e-07 0 -1.56471e-07 -3.12616e-07 0 -7.82439e-08 -3.12684e-07 0 0 -3.12752e-07 0 -5.72289e-06 -1.25542e-07 0 -5.69726e-06 -1.30483e-07 0 -5.67065e-06 -1.35423e-07 0 -5.64304e-06 -1.40361e-07 0 -5.61445e-06 -1.45254e-07 0 -5.58488e-06 -1.50147e-07 0 -5.55433e-06 -1.55036e-07 0 -5.5228e-06 -1.5987e-07 0 -5.49031e-06 -1.64703e-07 0 -5.45684e-06 -1.6953e-07 0 -5.42242e-06 -1.74293e-07 0 -5.38704e-06 -1.79055e-07 0 -5.3507e-06 -1.83807e-07 0 -5.31343e-06 -1.88486e-07 0 -5.27521e-06 -1.93165e-07 0 -5.23605e-06 -1.97828e-07 0 -5.19597e-06 -2.0241e-07 0 -5.15497e-06 -2.06992e-07 0 -5.11305e-06 -2.11554e-07 0 -5.07023e-06 -2.16026e-07 0 -5.02651e-06 -2.20499e-07 0 -4.9819e-06 -2.24945e-07 0 -4.9364e-06 -2.29295e-07 0 -4.89003e-06 -2.33645e-07 0 -4.84279e-06 -2.37962e-07 0 -4.7947e-06 -2.42179e-07 0 -4.74576e-06 -2.46395e-07 0 -4.69598e-06 -2.5057e-07 0 -4.64537e-06 -2.54641e-07 0 -4.59395e-06 -2.58712e-07 0 -4.54172e-06 -2.62734e-07 0 -4.48869e-06 -2.66649e-07 0 -4.43487e-06 -2.70564e-07 0 -4.38028e-06 -2.74423e-07 0 -4.32492e-06 -2.78173e-07 0 -4.26881e-06 -2.81923e-07 0 -4.21196e-06 -2.85608e-07 0 -4.15438e-06 -2.89185e-07 0 -4.09608e-06 -2.92762e-07 0 -4.03707e-06 -2.96266e-07 0 -3.97737e-06 -2.99664e-07 0 -3.917e-06 -3.03061e-07 0 -3.85594e-06 -3.06377e-07 0 -3.79424e-06 -3.09589e-07 0 -3.73189e-06 -3.12802e-07 0 -3.66891e-06 -3.15925e-07 0 -3.60531e-06 -3.18948e-07 0 -3.54111e-06 -3.21971e-07 0 -3.47631e-06 -3.24898e-07 0 -3.41093e-06 -3.27729e-07 0 -3.34499e-06 -3.3056e-07 0 -3.27849e-06 -3.33288e-07 0 -3.21146e-06 -3.35925e-07 0 -3.1439e-06 -3.38562e-07 0 -3.07582e-06 -3.4109e-07 0 -3.00725e-06 -3.43533e-07 0 -2.93818e-06 -3.45975e-07 0 -2.86864e-06 -3.48303e-07 0 -2.79864e-06 -3.50552e-07 0 -2.7282e-06 -3.528e-07 0 -2.65731e-06 -3.54928e-07 0 -2.58601e-06 -3.56984e-07 0 -2.5143e-06 -3.5904e-07 0 -2.44218e-06 -3.6097e-07 0 -2.36969e-06 -3.62835e-07 0 -2.29683e-06 -3.64699e-07 0 -2.2236e-06 -3.66434e-07 0 -2.15004e-06 -3.6811e-07 0 -2.07614e-06 -3.69785e-07 0 -2.00192e-06 -3.71327e-07 0 -1.9274e-06 -3.72816e-07 0 -1.85258e-06 -3.74305e-07 0 -1.77748e-06 -3.75657e-07 0 -1.70211e-06 -3.76962e-07 0 -1.62648e-06 -3.78268e-07 0 -1.55061e-06 -3.79432e-07 0 -1.47451e-06 -3.80556e-07 0 -1.39818e-06 -3.81681e-07 0 -1.32164e-06 -3.82661e-07 0 -1.24491e-06 -3.83607e-07 0 -1.168e-06 -3.84553e-07 0 -1.0909e-06 -3.85351e-07 0 -1.01365e-06 -3.86122e-07 0 -9.36253e-07 -3.86892e-07 0 -8.58711e-07 -3.87511e-07 0 -7.8105e-07 -3.88108e-07 0 -7.0327e-07 -3.88705e-07 0 -6.25384e-07 -3.89146e-07 0 -5.47414e-07 -3.89571e-07 0 -4.6936e-07 -3.89996e-07 0 -3.91235e-07 -3.90261e-07 0 -3.1306e-07 -3.90516e-07 0 -2.34834e-07 -3.9077e-07 0 -1.56573e-07 -3.9086e-07 0 -7.82948e-08 -3.90945e-07 0 0 -3.9103e-07 0 -5.72749e-06 -1.50678e-07 0 -5.70185e-06 -1.56609e-07 0 -5.67522e-06 -1.62539e-07 0 -5.6476e-06 -1.68468e-07 0 -5.619e-06 -1.74342e-07 0 -5.58941e-06 -1.80217e-07 0 -5.55884e-06 -1.86086e-07 0 -5.52729e-06 -1.9189e-07 0 -5.49478e-06 -1.97693e-07 0 -5.46129e-06 -2.03488e-07 0 -5.42684e-06 -2.09206e-07 0 -5.39144e-06 -2.14924e-07 0 -5.35508e-06 -2.2063e-07 0 -5.31777e-06 -2.26247e-07 0 -5.27953e-06 -2.31865e-07 0 -5.24034e-06 -2.37464e-07 0 -5.20023e-06 -2.42966e-07 0 -5.1592e-06 -2.48467e-07 0 -5.11725e-06 -2.53944e-07 0 -5.07439e-06 -2.59314e-07 0 -5.03063e-06 -2.64684e-07 0 -4.98598e-06 -2.70022e-07 0 -4.94045e-06 -2.75246e-07 0 -4.89404e-06 -2.80469e-07 0 -4.84676e-06 -2.85652e-07 0 -4.79862e-06 -2.90715e-07 0 -4.74964e-06 -2.95777e-07 0 -4.69981e-06 -3.0079e-07 0 -4.64916e-06 -3.05678e-07 0 -4.59769e-06 -3.10565e-07 0 -4.5454e-06 -3.15394e-07 0 -4.49233e-06 -3.20095e-07 0 -4.43846e-06 -3.24795e-07 0 -4.38381e-06 -3.29427e-07 0 -4.32841e-06 -3.33929e-07 0 -4.27225e-06 -3.38431e-07 0 -4.21534e-06 -3.42855e-07 0 -4.1577e-06 -3.4715e-07 0 -4.09935e-06 -3.51444e-07 0 -4.04028e-06 -3.5565e-07 0 -3.98053e-06 -3.59728e-07 0 -3.9201e-06 -3.63806e-07 0 -3.85898e-06 -3.67787e-07 0 -3.79722e-06 -3.71643e-07 0 -3.73482e-06 -3.75498e-07 0 -3.67177e-06 -3.79247e-07 0 -3.60811e-06 -3.82876e-07 0 -3.54385e-06 -3.86504e-07 0 -3.47899e-06 -3.90017e-07 0 -3.41356e-06 -3.93414e-07 0 -3.34756e-06 -3.96812e-07 0 -3.281e-06 -4.00086e-07 0 -3.2139e-06 -4.0325e-07 0 -3.14628e-06 -4.06415e-07 0 -3.07814e-06 -4.09448e-07 0 -3.00951e-06 -4.1238e-07 0 -2.94038e-06 -4.15311e-07 0 -2.87078e-06 -4.18104e-07 0 -2.80072e-06 -4.20802e-07 0 -2.73022e-06 -4.235e-07 0 -2.65927e-06 -4.26053e-07 0 -2.58791e-06 -4.2852e-07 0 -2.51613e-06 -4.30986e-07 0 -2.44396e-06 -4.33302e-07 0 -2.37141e-06 -4.35539e-07 0 -2.29849e-06 -4.37776e-07 0 -2.2252e-06 -4.39857e-07 0 -2.15158e-06 -4.41867e-07 0 -2.07763e-06 -4.43877e-07 0 -2.00335e-06 -4.45727e-07 0 -1.92877e-06 -4.47513e-07 0 -1.85389e-06 -4.49299e-07 0 -1.77873e-06 -4.5092e-07 0 -1.70331e-06 -4.52486e-07 0 -1.62762e-06 -4.54052e-07 0 -1.55169e-06 -4.55449e-07 0 -1.47553e-06 -4.56798e-07 0 -1.39915e-06 -4.58146e-07 0 -1.32256e-06 -4.59321e-07 0 -1.24577e-06 -4.60456e-07 0 -1.1688e-06 -4.61591e-07 0 -1.09165e-06 -4.62549e-07 0 -1.01435e-06 -4.63473e-07 0 -9.36894e-07 -4.64397e-07 0 -8.59298e-07 -4.65139e-07 0 -7.81583e-07 -4.65855e-07 0 -7.03749e-07 -4.6657e-07 0 -6.2581e-07 -4.67099e-07 0 -5.47786e-07 -4.67609e-07 0 -4.69678e-07 -4.68119e-07 0 -3.915e-07 -4.68437e-07 0 -3.13272e-07 -4.68742e-07 0 -2.34993e-07 -4.69047e-07 0 -1.56679e-07 -4.69155e-07 0 -7.83478e-08 -4.69257e-07 0 0 -4.69359e-07 0 -5.73486e-06 -1.75829e-07 0 -5.7092e-06 -1.82751e-07 0 -5.68255e-06 -1.89674e-07 0 -5.65491e-06 -1.96595e-07 0 -5.62628e-06 -2.03452e-07 0 -5.59666e-06 -2.10309e-07 0 -5.56607e-06 -2.17161e-07 0 -5.53449e-06 -2.23935e-07 0 -5.50194e-06 -2.3071e-07 0 -5.46842e-06 -2.37476e-07 0 -5.43394e-06 -2.44151e-07 0 -5.3985e-06 -2.50826e-07 0 -5.36209e-06 -2.57487e-07 0 -5.32475e-06 -2.64045e-07 0 -5.28645e-06 -2.70604e-07 0 -5.24722e-06 -2.77141e-07 0 -5.20706e-06 -2.83563e-07 0 -5.16598e-06 -2.89986e-07 0 -5.12397e-06 -2.9638e-07 0 -5.08106e-06 -3.0265e-07 0 -5.03724e-06 -3.08919e-07 0 -4.99253e-06 -3.15151e-07 0 -4.94693e-06 -3.21249e-07 0 -4.90046e-06 -3.27347e-07 0 -4.85311e-06 -3.33398e-07 0 -4.8049e-06 -3.39308e-07 0 -4.75585e-06 -3.45218e-07 0 -4.70595e-06 -3.51071e-07 0 -4.65522e-06 -3.56776e-07 0 -4.60368e-06 -3.62482e-07 0 -4.55132e-06 -3.68119e-07 0 -4.49816e-06 -3.73606e-07 0 -4.44421e-06 -3.79093e-07 0 -4.38948e-06 -3.845e-07 0 -4.33399e-06 -3.89756e-07 0 -4.27774e-06 -3.95011e-07 0 -4.22075e-06 -4.00175e-07 0 -4.16303e-06 -4.05187e-07 0 -4.10458e-06 -4.10199e-07 0 -4.04543e-06 -4.15109e-07 0 -3.98558e-06 -4.19868e-07 0 -3.92506e-06 -4.24628e-07 0 -3.86385e-06 -4.29274e-07 0 -3.802e-06 -4.33773e-07 0 -3.7395e-06 -4.38273e-07 0 -3.67636e-06 -4.42648e-07 0 -3.61261e-06 -4.46882e-07 0 -3.54825e-06 -4.51116e-07 0 -3.48329e-06 -4.55215e-07 0 -3.41776e-06 -4.59179e-07 0 -3.35166e-06 -4.63144e-07 0 -3.285e-06 -4.66963e-07 0 -3.21781e-06 -4.70656e-07 0 -3.1501e-06 -4.74348e-07 0 -3.08186e-06 -4.77887e-07 0 -3.01313e-06 -4.81307e-07 0 -2.9439e-06 -4.84726e-07 0 -2.8742e-06 -4.87985e-07 0 -2.80405e-06 -4.91132e-07 0 -2.73345e-06 -4.9428e-07 0 -2.6624e-06 -4.97258e-07 0 -2.59094e-06 -5.00135e-07 0 -2.51907e-06 -5.03012e-07 0 -2.4468e-06 -5.05713e-07 0 -2.37416e-06 -5.08322e-07 0 -2.30114e-06 -5.10931e-07 0 -2.22776e-06 -5.13358e-07 0 -2.15405e-06 -5.15702e-07 0 -2.08e-06 -5.18047e-07 0 -2.00563e-06 -5.20203e-07 0 -1.93096e-06 -5.22286e-07 0 -1.85599e-06 -5.24369e-07 0 -1.78073e-06 -5.2626e-07 0 -1.70522e-06 -5.28086e-07 0 -1.62945e-06 -5.29912e-07 0 -1.55342e-06 -5.3154e-07 0 -1.47717e-06 -5.33113e-07 0 -1.4007e-06 -5.34685e-07 0 -1.32402e-06 -5.36055e-07 0 -1.24715e-06 -5.37379e-07 0 -1.17009e-06 -5.38702e-07 0 -1.09285e-06 -5.39818e-07 0 -1.01546e-06 -5.40895e-07 0 -9.37918e-07 -5.41973e-07 0 -8.60235e-07 -5.42838e-07 0 -7.82434e-07 -5.43672e-07 0 -7.04514e-07 -5.44507e-07 0 -6.26489e-07 -5.45123e-07 0 -5.4838e-07 -5.45718e-07 0 -4.70187e-07 -5.46312e-07 0 -3.91924e-07 -5.46683e-07 0 -3.13611e-07 -5.47038e-07 0 -2.35247e-07 -5.47394e-07 0 -1.56848e-07 -5.4752e-07 0 -7.84324e-08 -5.47639e-07 0 0 -5.47757e-07 0 -5.74223e-06 -2.00997e-07 0 -5.71655e-06 -2.08914e-07 0 -5.68988e-06 -2.16831e-07 0 -5.66222e-06 -2.24745e-07 0 -5.63356e-06 -2.32587e-07 0 -5.60392e-06 -2.40429e-07 0 -5.57329e-06 -2.48265e-07 0 -5.54169e-06 -2.56013e-07 0 -5.50911e-06 -2.63761e-07 0 -5.47555e-06 -2.71499e-07 0 -5.44103e-06 -2.79133e-07 0 -5.40555e-06 -2.86768e-07 0 -5.36911e-06 -2.94386e-07 0 -5.33172e-06 -3.01888e-07 0 -5.29338e-06 -3.09389e-07 0 -5.2541e-06 -3.16866e-07 0 -5.21389e-06 -3.24212e-07 0 -5.17275e-06 -3.31558e-07 0 -5.13069e-06 -3.38872e-07 0 -5.08772e-06 -3.46043e-07 0 -5.04385e-06 -3.53214e-07 0 -4.99907e-06 -3.60342e-07 0 -4.95341e-06 -3.67316e-07 0 -4.90688e-06 -3.74291e-07 0 -4.85946e-06 -3.81212e-07 0 -4.81119e-06 -3.87972e-07 0 -4.76206e-06 -3.94731e-07 0 -4.71209e-06 -4.01425e-07 0 -4.66129e-06 -4.0795e-07 0 -4.60967e-06 -4.14476e-07 0 -4.55723e-06 -4.20923e-07 0 -4.50399e-06 -4.27198e-07 0 -4.44996e-06 -4.33473e-07 0 -4.39515e-06 -4.39657e-07 0 -4.33957e-06 -4.45667e-07 0 -4.28324e-06 -4.51676e-07 0 -4.22616e-06 -4.57581e-07 0 -4.16835e-06 -4.63313e-07 0 -4.10982e-06 -4.69044e-07 0 -4.05057e-06 -4.74658e-07 0 -3.99064e-06 -4.801e-07 0 -3.93002e-06 -4.85542e-07 0 -3.86872e-06 -4.90854e-07 0 -3.80677e-06 -4.95998e-07 0 -3.74418e-06 -5.01142e-07 0 -3.68094e-06 -5.06144e-07 0 -3.6171e-06 -5.10984e-07 0 -3.55264e-06 -5.15824e-07 0 -3.48759e-06 -5.2051e-07 0 -3.42196e-06 -5.25041e-07 0 -3.35577e-06 -5.29573e-07 0 -3.28901e-06 -5.33939e-07 0 -3.22172e-06 -5.38159e-07 0 -3.15391e-06 -5.42379e-07 0 -3.08557e-06 -5.46423e-07 0 -3.01674e-06 -5.50331e-07 0 -2.94743e-06 -5.54239e-07 0 -2.87763e-06 -5.57963e-07 0 -2.80738e-06 -5.61559e-07 0 -2.73668e-06 -5.65156e-07 0 -2.66553e-06 -5.68559e-07 0 -2.59398e-06 -5.71846e-07 0 -2.52202e-06 -5.75133e-07 0 -2.44965e-06 -5.78219e-07 0 -2.37691e-06 -5.812e-07 0 -2.3038e-06 -5.84181e-07 0 -2.23033e-06 -5.86953e-07 0 -2.15652e-06 -5.89631e-07 0 -2.08237e-06 -5.92309e-07 0 -2.00791e-06 -5.94773e-07 0 -1.93314e-06 -5.97152e-07 0 -1.85808e-06 -5.99531e-07 0 -1.78274e-06 -6.0169e-07 0 -1.70713e-06 -6.03776e-07 0 -1.63127e-06 -6.05862e-07 0 -1.55515e-06 -6.07721e-07 0 -1.47881e-06 -6.09517e-07 0 -1.40225e-06 -6.11313e-07 0 -1.32548e-06 -6.12878e-07 0 -1.24852e-06 -6.14389e-07 0 -1.17137e-06 -6.159e-07 0 -1.09405e-06 -6.17175e-07 0 -1.01657e-06 -6.18405e-07 0 -9.38942e-07 -6.19635e-07 0 -8.61172e-07 -6.20623e-07 0 -7.83285e-07 -6.21576e-07 0 -7.05279e-07 -6.22529e-07 0 -6.27169e-07 -6.23233e-07 0 -5.48974e-07 -6.23912e-07 0 -4.70696e-07 -6.2459e-07 0 -3.92348e-07 -6.25013e-07 0 -3.13949e-07 -6.2542e-07 0 -2.35501e-07 -6.25826e-07 0 -1.57017e-07 -6.2597e-07 0 -7.8517e-08 -6.26105e-07 0 0 -6.2624e-07 0 -5.74987e-06 -2.26185e-07 0 -5.72418e-06 -2.35097e-07 0 -5.69749e-06 -2.44009e-07 0 -5.6698e-06 -2.52919e-07 0 -5.64112e-06 -2.61747e-07 0 -5.61145e-06 -2.70576e-07 0 -5.58079e-06 -2.79398e-07 0 -5.54916e-06 -2.88122e-07 0 -5.51654e-06 -2.96846e-07 0 -5.48295e-06 -3.05557e-07 0 -5.44839e-06 -3.14154e-07 0 -5.41287e-06 -3.2275e-07 0 -5.37639e-06 -3.31328e-07 0 -5.33895e-06 -3.39774e-07 0 -5.30057e-06 -3.4822e-07 0 -5.26124e-06 -3.56639e-07 0 -5.22097e-06 -3.64911e-07 0 -5.17978e-06 -3.73183e-07 0 -5.13767e-06 -3.81419e-07 0 -5.09464e-06 -3.89493e-07 0 -5.0507e-06 -3.97567e-07 0 -5.00587e-06 -4.05594e-07 0 -4.96014e-06 -4.13447e-07 0 -4.91354e-06 -4.21301e-07 0 -4.86605e-06 -4.29094e-07 0 -4.81771e-06 -4.36705e-07 0 -4.76851e-06 -4.44316e-07 0 -4.71846e-06 -4.51852e-07 0 -4.66759e-06 -4.59199e-07 0 -4.61588e-06 -4.66547e-07 0 -4.56336e-06 -4.73806e-07 0 -4.51004e-06 -4.8087e-07 0 -4.45593e-06 -4.87935e-07 0 -4.40103e-06 -4.94897e-07 0 -4.34537e-06 -5.01662e-07 0 -4.28895e-06 -5.08428e-07 0 -4.23178e-06 -5.15075e-07 0 -4.17387e-06 -5.21527e-07 0 -4.11525e-06 -5.27978e-07 0 -4.05591e-06 -5.34297e-07 0 -3.99588e-06 -5.40423e-07 0 -3.93517e-06 -5.46548e-07 0 -3.87377e-06 -5.52527e-07 0 -3.81173e-06 -5.58317e-07 0 -3.74904e-06 -5.64106e-07 0 -3.6857e-06 -5.69735e-07 0 -3.62176e-06 -5.75182e-07 0 -3.5572e-06 -5.80629e-07 0 -3.49205e-06 -5.85901e-07 0 -3.42632e-06 -5.91e-07 0 -3.36003e-06 -5.96099e-07 0 -3.29317e-06 -6.01011e-07 0 -3.22578e-06 -6.05759e-07 0 -3.15787e-06 -6.10507e-07 0 -3.08943e-06 -6.15057e-07 0 -3.0205e-06 -6.19454e-07 0 -2.95108e-06 -6.2385e-07 0 -2.88118e-06 -6.28038e-07 0 -2.81083e-06 -6.32083e-07 0 -2.74003e-06 -6.36129e-07 0 -2.66878e-06 -6.39957e-07 0 -2.59713e-06 -6.43654e-07 0 -2.52507e-06 -6.47351e-07 0 -2.4526e-06 -6.50821e-07 0 -2.37976e-06 -6.54173e-07 0 -2.30655e-06 -6.57525e-07 0 -2.23298e-06 -6.60643e-07 0 -2.15907e-06 -6.63654e-07 0 -2.08483e-06 -6.66665e-07 0 -2.01027e-06 -6.69435e-07 0 -1.93541e-06 -6.7211e-07 0 -1.86026e-06 -6.74786e-07 0 -1.78482e-06 -6.77213e-07 0 -1.70911e-06 -6.79558e-07 0 -1.63315e-06 -6.81902e-07 0 -1.55695e-06 -6.83992e-07 0 -1.48052e-06 -6.86012e-07 0 -1.40386e-06 -6.88031e-07 0 -1.327e-06 -6.89789e-07 0 -1.24995e-06 -6.91488e-07 0 -1.17271e-06 -6.93187e-07 0 -1.09529e-06 -6.94619e-07 0 -1.01772e-06 -6.96002e-07 0 -9.40004e-07 -6.97385e-07 0 -8.62145e-07 -6.98495e-07 0 -7.84168e-07 -6.99566e-07 0 -7.06072e-07 -7.00637e-07 0 -6.27873e-07 -7.01428e-07 0 -5.4959e-07 -7.02191e-07 0 -4.71223e-07 -7.02954e-07 0 -3.92787e-07 -7.03429e-07 0 -3.14301e-07 -7.03886e-07 0 -2.35764e-07 -7.04342e-07 0 -1.57193e-07 -7.04504e-07 0 -7.86047e-08 -7.04656e-07 0 0 -7.04808e-07 0 -5.76021e-06 -2.51394e-07 0 -5.73449e-06 -2.61304e-07 0 -5.70777e-06 -2.71214e-07 0 -5.68005e-06 -2.81121e-07 0 -5.65134e-06 -2.90939e-07 0 -5.62163e-06 -3.00757e-07 0 -5.59094e-06 -3.10568e-07 0 -5.55926e-06 -3.2027e-07 0 -5.5266e-06 -3.29971e-07 0 -5.49296e-06 -3.3966e-07 0 -5.45835e-06 -3.49221e-07 0 -5.42277e-06 -3.58781e-07 0 -5.38623e-06 -3.68321e-07 0 -5.34873e-06 -3.77715e-07 0 -5.31029e-06 -3.87109e-07 0 -5.27089e-06 -3.96473e-07 0 -5.23056e-06 -4.05674e-07 0 -5.1893e-06 -4.14874e-07 0 -5.1471e-06 -4.24034e-07 0 -5.104e-06 -4.33014e-07 0 -5.05998e-06 -4.41995e-07 0 -5.01506e-06 -4.50922e-07 0 -4.96924e-06 -4.59657e-07 0 -4.92255e-06 -4.68392e-07 0 -4.87497e-06 -4.7706e-07 0 -4.82653e-06 -4.85524e-07 0 -4.77723e-06 -4.93989e-07 0 -4.72708e-06 -5.02371e-07 0 -4.6761e-06 -5.10542e-07 0 -4.62429e-06 -5.18713e-07 0 -4.57166e-06 -5.26786e-07 0 -4.51823e-06 -5.34642e-07 0 -4.464e-06 -5.42499e-07 0 -4.40899e-06 -5.5024e-07 0 -4.3532e-06 -5.57763e-07 0 -4.29666e-06 -5.65286e-07 0 -4.23937e-06 -5.72678e-07 0 -4.18134e-06 -5.79851e-07 0 -4.1226e-06 -5.87024e-07 0 -4.06313e-06 -5.9405e-07 0 -4.00297e-06 -6.0086e-07 0 -3.94212e-06 -6.0767e-07 0 -3.8806e-06 -6.14316e-07 0 -3.81842e-06 -6.20752e-07 0 -3.7556e-06 -6.27188e-07 0 -3.69213e-06 -6.33445e-07 0 -3.62805e-06 -6.39499e-07 0 -3.56336e-06 -6.45553e-07 0 -3.49807e-06 -6.51413e-07 0 -3.43221e-06 -6.57079e-07 0 -3.36578e-06 -6.62745e-07 0 -3.29878e-06 -6.68204e-07 0 -3.23126e-06 -6.7348e-07 0 -3.1632e-06 -6.78756e-07 0 -3.09463e-06 -6.83812e-07 0 -3.02556e-06 -6.88696e-07 0 -2.95601e-06 -6.93581e-07 0 -2.88597e-06 -6.98234e-07 0 -2.81548e-06 -7.02728e-07 0 -2.74454e-06 -7.07222e-07 0 -2.67317e-06 -7.11474e-07 0 -2.60138e-06 -7.1558e-07 0 -2.52918e-06 -7.19687e-07 0 -2.45658e-06 -7.23541e-07 0 -2.38361e-06 -7.27264e-07 0 -2.31026e-06 -7.30987e-07 0 -2.23656e-06 -7.34449e-07 0 -2.16252e-06 -7.37793e-07 0 -2.08815e-06 -7.41137e-07 0 -2.01346e-06 -7.44212e-07 0 -1.93847e-06 -7.47183e-07 0 -1.86318e-06 -7.50153e-07 0 -1.78761e-06 -7.52848e-07 0 -1.71179e-06 -7.55451e-07 0 -1.6357e-06 -7.58055e-07 0 -1.55936e-06 -7.60375e-07 0 -1.48281e-06 -7.62617e-07 0 -1.40603e-06 -7.64858e-07 0 -1.32904e-06 -7.6681e-07 0 -1.25186e-06 -7.68696e-07 0 -1.1745e-06 -7.70582e-07 0 -1.09696e-06 -7.72171e-07 0 -1.01927e-06 -7.73706e-07 0 -9.41433e-07 -7.75241e-07 0 -8.63453e-07 -7.76473e-07 0 -7.85355e-07 -7.77662e-07 0 -7.0714e-07 -7.78851e-07 0 -6.28822e-07 -7.79729e-07 0 -5.50419e-07 -7.80576e-07 0 -4.71933e-07 -7.81422e-07 0 -3.93378e-07 -7.8195e-07 0 -3.14773e-07 -7.82457e-07 0 -2.36118e-07 -7.82963e-07 0 -1.57429e-07 -7.83143e-07 0 -7.87227e-08 -7.83311e-07 0 0 -7.8348e-07 0 -5.77055e-06 -2.76628e-07 0 -5.7448e-06 -2.87538e-07 0 -5.71806e-06 -2.98449e-07 0 -5.6903e-06 -3.09356e-07 0 -5.66156e-06 -3.20166e-07 0 -5.63182e-06 -3.30976e-07 0 -5.60108e-06 -3.41778e-07 0 -5.56936e-06 -3.52461e-07 0 -5.53666e-06 -3.63144e-07 0 -5.50297e-06 -3.73812e-07 0 -5.46831e-06 -3.8434e-07 0 -5.43268e-06 -3.94868e-07 0 -5.39608e-06 -4.05374e-07 0 -5.35852e-06 -4.15719e-07 0 -5.32001e-06 -4.26063e-07 0 -5.28055e-06 -4.36375e-07 0 -5.24014e-06 -4.46507e-07 0 -5.19881e-06 -4.56639e-07 0 -5.15654e-06 -4.66726e-07 0 -5.11335e-06 -4.76616e-07 0 -5.06925e-06 -4.86506e-07 0 -5.02425e-06 -4.96337e-07 0 -4.97835e-06 -5.05957e-07 0 -4.93156e-06 -5.15576e-07 0 -4.88389e-06 -5.25121e-07 0 -4.83535e-06 -5.34442e-07 0 -4.78595e-06 -5.43763e-07 0 -4.7357e-06 -5.52993e-07 0 -4.68461e-06 -5.61991e-07 0 -4.6327e-06 -5.70988e-07 0 -4.57995e-06 -5.79877e-07 0 -4.52641e-06 -5.88527e-07 0 -4.47207e-06 -5.97178e-07 0 -4.41694e-06 -6.05702e-07 0 -4.36104e-06 -6.13984e-07 0 -4.30438e-06 -6.22266e-07 0 -4.24696e-06 -6.30404e-07 0 -4.18881e-06 -6.383e-07 0 -4.12994e-06 -6.46197e-07 0 -4.07034e-06 -6.5393e-07 0 -4.01006e-06 -6.61426e-07 0 -3.94908e-06 -6.68921e-07 0 -3.88743e-06 -6.76237e-07 0 -3.82512e-06 -6.8332e-07 0 -3.76216e-06 -6.90403e-07 0 -3.69856e-06 -6.97288e-07 0 -3.63434e-06 -7.0395e-07 0 -3.56952e-06 -7.10612e-07 0 -3.50409e-06 -7.1706e-07 0 -3.43809e-06 -7.23294e-07 0 -3.37153e-06 -7.29529e-07 0 -3.3044e-06 -7.35534e-07 0 -3.23673e-06 -7.41338e-07 0 -3.16854e-06 -7.47142e-07 0 -3.09983e-06 -7.52703e-07 0 -3.0