<?xml version="1.0"?> 
<VTKFile type="StructuredGrid" version="0.1"> 
<StructuredGrid WholeExtent="0 95 0 95 0 0"> 
<Piece Extent="0 95 0 95 0 0"> 
<PointData>
<DataArray type="Float32" Name="B" format="ascii" NumberOfComponents="3"> 
0 1.09559e-05 0 -8.64694e-07 1.09458e-05 0 -1.72835e-06 1.09356e-05 0 -2.59097e-06 1.09248e-05 0 -3.45147e-06 1.08945e-05 0 -4.30886e-06 1.08641e-05 0 -5.16316e-06 1.08325e-05 0 -6.01323e-06 1.07822e-05 0 -6.85817e-06 1.0732e-05 0 -7.69798e-06 1.06799e-05 0 -8.53151e-06 1.06102e-05 0 -9.35794e-06 1.05405e-05 0 -1.01773e-05 1.04685e-05 0 -1.09883e-05 1.03801e-05 0 -1.17904e-05 1.02917e-05 0 -1.25834e-05 1.02006e-05 0 -1.33663e-05 1.00944e-05 0 -1.41385e-05 9.98816e-06 0 -1.48998e-05 9.87881e-06 0 -1.56491e-05 9.75582e-06 0 -1.6386e-05 9.63284e-06 0 -1.71104e-05 9.50646e-06 0 -1.78212e-05 9.36793e-06 0 -1.85181e-05 9.2294e-06 0 -1.92008e-05 9.08733e-06 0 -1.98685e-05 8.93463e-06 0 -2.05208e-05 8.78193e-06 0 -2.11576e-05 8.62566e-06 0 -2.17781e-05 8.4603e-06 0 -2.23819e-05 8.29494e-06 0 -2.29691e-05 8.12613e-06 0 -2.35387e-05 7.94973e-06 0 -2.40907e-05 7.77334e-06 0 -2.46249e-05 7.59375e-06 0 -2.51407e-05 7.40807e-06 0 -2.5638e-05 7.22239e-06 0 -2.61166e-05 7.0339e-06 0 -2.65761e-05 6.84075e-06 0 -2.70164e-05 6.6476e-06 0 -2.74374e-05 6.45218e-06 0 -2.78388e-05 6.25345e-06 0 -2.82205e-05 6.05472e-06 0 -2.85825e-05 5.8544e-06 0 -2.89246e-05 5.65204e-06 0 -2.92467e-05 5.44968e-06 0 -2.95489e-05 5.24654e-06 0 -2.98311e-05 5.04252e-06 0 -3.00933e-05 4.8385e-06 0 -3.03356e-05 4.63466e-06 0 -3.0558e-05 4.43098e-06 0 -3.07606e-05 4.22731e-06 0 -3.09434e-05 4.02489e-06 0 -3.11067e-05 3.82357e-06 0 -3.12506e-05 3.62225e-06 0 -3.13752e-05 3.4234e-06 0 -3.14809e-05 3.22645e-06 0 -3.15677e-05 3.0295e-06 0 -3.16357e-05 2.83635e-06 0 -3.16857e-05 2.6458e-06 0 -3.17175e-05 2.45525e-06 0 -3.17315e-05 2.26996e-06 0 -3.17283e-05 2.08783e-06 0 -3.17081e-05 1.9057e-06 0 -3.16711e-05 1.7305e-06 0 -3.16179e-05 1.55893e-06 0 -3.15487e-05 1.38736e-06 0 -3.14639e-05 1.22446e-06 0 -3.13648e-05 1.06549e-06 0 -3.12513e-05 9.06515e-07 0 -3.11238e-05 7.58619e-07 0 -3.09825e-05 6.15057e-07 0 -3.08275e-05 4.71495e-07 0 -3.06599e-05 3.4082e-07 0 -3.04828e-05 2.14441e-07 0 -3.02962e-05 8.80622e-08 0 -3.00989e-05 -2.01053e-08 0 -2.98882e-05 -1.23174e-07 0 -2.96639e-05 -2.26242e-07 0 -2.94319e-05 -3.11582e-07 0 -2.92035e-05 -3.92832e-07 0 -2.89792e-05 -4.74081e-07 0 -2.87467e-05 -5.16393e-07 0 -2.84845e-05 -5.51494e-07 0 -2.8192e-05 -5.86596e-07 0 -2.79061e-05 -6.0513e-07 0 -2.76851e-05 -6.21298e-07 0 -2.75299e-05 -6.37466e-07 0 -2.73503e-05 -5.10732e-07 0 -2.70181e-05 -3.69215e-07 0 -2.65322e-05 -2.27698e-07 0 -2.61549e-05 -1.15217e-07 0 -2.62193e-05 -4.6706e-09 0 -2.67265e-05 1.05875e-07 0 -2.64866e-05 1.65251e-06 0 -2.41548e-05 3.24548e-06 0 -1.97299e-05 4.83844e-06 0 0 1.12458e-05 0 -8.73621e-07 1.12353e-05 0 -1.74619e-06 1.12248e-05 0 -2.61771e-06 1.12137e-05 0 -3.48707e-06 1.11823e-05 0 -4.35329e-06 1.11509e-05 0 -5.21636e-06 1.11182e-05 0 -6.07514e-06 1.10662e-05 0 -6.92873e-06 1.10142e-05 0 -7.77711e-06 1.09603e-05 0 -8.61911e-06 1.08883e-05 0 -9.45391e-06 1.08162e-05 0 -1.02815e-05 1.07417e-05 0 -1.11007e-05 1.06503e-05 0 -1.19108e-05 1.05589e-05 0 -1.27117e-05 1.04646e-05 0 -1.35024e-05 1.03548e-05 0 -1.42821e-05 1.0245e-05 0 -1.50508e-05 1.01319e-05 0 -1.58074e-05 1.00047e-05 0 -1.65514e-05 9.87756e-06 0 -1.72826e-05 9.74688e-06 0 -1.80001e-05 9.60364e-06 0 -1.87034e-05 9.4604e-06 0 -1.93925e-05 9.3135e-06 0 -2.00662e-05 9.15562e-06 0 -2.07244e-05 8.99774e-06 0 -2.13668e-05 8.83618e-06 0 -2.19926e-05 8.66523e-06 0 -2.26016e-05 8.49427e-06 0 -2.31936e-05 8.31976e-06 0 -2.37679e-05 8.13742e-06 0 -2.43242e-05 7.95508e-06 0 -2.48625e-05 7.76945e-06 0 -2.53822e-05 7.57753e-06 0 -2.5883e-05 7.38561e-06 0 -2.63649e-05 7.19081e-06 0 -2.68275e-05 6.9912e-06 0 -2.72705e-05 6.79159e-06 0 -2.7694e-05 6.58965e-06 0 -2.80975e-05 6.3843e-06 0 -2.84811e-05 6.17896e-06 0 -2.88447e-05 5.97199e-06 0 -2.91881e-05 5.76293e-06 0 -2.95112e-05 5.55387e-06 0 -2.98141e-05 5.34403e-06 0 -3.00967e-05 5.1333e-06 0 -3.0359e-05 4.92257e-06 0 -3.06011e-05 4.71204e-06 0 -3.0823e-05 4.50171e-06 0 -3.10249e-05 4.29138e-06 0 -3.12066e-05 4.08237e-06 0 -3.13686e-05 3.87453e-06 0 -3.15108e-05 3.66668e-06 0 -3.16334e-05 3.4614e-06 0 -3.17368e-05 3.25812e-06 0 -3.18211e-05 3.05484e-06 0 -3.18863e-05 2.85551e-06 0 -3.1933e-05 2.65888e-06 0 -3.19614e-05 2.46225e-06 0 -3.19716e-05 2.2711e-06 0 -3.19644e-05 2.08323e-06 0 -3.19398e-05 1.89536e-06 0 -3.1898e-05 1.71465e-06 0 -3.18399e-05 1.53769e-06 0 -3.17654e-05 1.36073e-06 0 -3.16751e-05 1.19281e-06 0 -3.15699e-05 1.02901e-06 0 -3.14499e-05 8.65201e-07 0 -3.13155e-05 7.12645e-07 0 -3.11671e-05 5.64492e-07 0 -3.1005e-05 4.16338e-07 0 -3.08299e-05 2.81998e-07 0 -3.0644e-05 1.52262e-07 0 -3.04475e-05 2.25254e-08 0 -3.02397e-05 -8.97619e-08 0 -3.00195e-05 -1.97164e-07 0 -2.97868e-05 -3.04565e-07 0 -2.95453e-05 -3.90377e-07 0 -2.93021e-05 -4.71207e-07 0 -2.90575e-05 -5.52037e-07 0 -2.88042e-05 -6.0155e-07 0 -2.85297e-05 -6.45264e-07 0 -2.82337e-05 -6.88978e-07 0 -2.79381e-05 -6.93781e-07 0 -2.76779e-05 -6.93025e-07 0 -2.74536e-05 -6.9227e-07 0 -2.72084e-05 -6.02576e-07 0 -2.68617e-05 -5.03681e-07 0 -2.64129e-05 -4.04786e-07 0 -2.60128e-05 -1.88081e-07 0 -2.58533e-05 3.64782e-08 0 -2.5935e-05 2.61037e-07 0 -2.54298e-05 1.22727e-06 0 -2.34017e-05 2.21743e-06 0 -1.98499e-05 3.20758e-06 0 0 1.15387e-05 0 -8.82549e-07 1.15278e-05 0 -1.76403e-06 1.1517e-05 0 -2.64445e-06 1.15054e-05 0 -3.52267e-06 1.1473e-05 0 -4.39771e-06 1.14405e-05 0 -5.26957e-06 1.14067e-05 0 -6.13706e-06 1.1353e-05 0 -6.99928e-06 1.12993e-05 0 -7.85623e-06 1.12436e-05 0 -8.7067e-06 1.11691e-05 0 -9.54988e-06 1.10947e-05 0 -1.03857e-05 1.10177e-05 0 -1.12131e-05 1.09232e-05 0 -1.20312e-05 1.08288e-05 0 -1.284e-05 1.07313e-05 0 -1.36384e-05 1.06178e-05 0 -1.44257e-05 1.05043e-05 0 -1.52018e-05 1.03874e-05 0 -1.59657e-05 1.0256e-05 0 -1.67167e-05 1.01246e-05 0 -1.74548e-05 9.98955e-06 0 -1.8179e-05 9.84154e-06 0 -1.88888e-05 9.69352e-06 0 -1.95841e-05 9.54173e-06 0 -2.02639e-05 9.37859e-06 0 -2.09279e-05 9.21546e-06 0 -2.15759e-05 9.04853e-06 0 -2.22072e-05 8.8719e-06 0 -2.28212e-05 8.69527e-06 0 -2.34181e-05 8.51498e-06 0 -2.3997e-05 8.32661e-06 0 -2.45577e-05 8.13824e-06 0 -2.51002e-05 7.94647e-06 0 -2.56237e-05 7.74823e-06 0 -2.6128e-05 7.54998e-06 0 -2.66133e-05 7.34877e-06 0 -2.70788e-05 7.1426e-06 0 -2.75246e-05 6.93644e-06 0 -2.79505e-05 6.72789e-06 0 -2.83563e-05 6.51583e-06 0 -2.87417e-05 6.30378e-06 0 -2.91069e-05 6.09007e-06 0 -2.94516e-05 5.87421e-06 0 -2.97757e-05 5.65835e-06 0 -3.00793e-05 5.44171e-06 0 -3.03623e-05 5.22417e-06 0 -3.06248e-05 5.00663e-06 0 -3.08667e-05 4.78932e-06 0 -3.10881e-05 4.57223e-06 0 -3.12892e-05 4.35515e-06 0 -3.14699e-05 4.13945e-06 0 -3.16305e-05 3.92498e-06 0 -3.1771e-05 3.7105e-06 0 -3.18917e-05 3.4987e-06 0 -3.19928e-05 3.28899e-06 0 -3.20745e-05 3.07927e-06 0 -3.21368e-05 2.87366e-06 0 -3.21804e-05 2.67086e-06 0 -3.22053e-05 2.46805e-06 0 -3.22118e-05 2.27093e-06 0 -3.22005e-05 2.07721e-06 0 -3.21715e-05 1.88349e-06 0 -3.2125e-05 1.69718e-06 0 -3.20619e-05 1.51474e-06 0 -3.19821e-05 1.33229e-06 0 -3.18862e-05 1.15923e-06 0 -3.17749e-05 9.90434e-07 0 -3.16485e-05 8.21635e-07 0 -3.15071e-05 6.64352e-07 0 -3.13518e-05 5.11575e-07 0 -3.11826e-05 3.58797e-07 0 -3.09999e-05 2.20469e-07 0 -3.08053e-05 8.69574e-08 0 -3.05988e-05 -4.65545e-08 0 -3.03804e-05 -1.62763e-07 0 -3.01507e-05 -2.74127e-07 0 -2.99097e-05 -3.85491e-07 0 -2.96588e-05 -4.73198e-07 0 -2.94008e-05 -5.55447e-07 0 -2.91358e-05 -6.37696e-07 0 -2.88617e-05 -6.92246e-07 0 -2.85749e-05 -7.41667e-07 0 -2.82754e-05 -7.91089e-07 0 -2.79702e-05 -7.90521e-07 0 -2.76708e-05 -7.82813e-07 0 -2.73773e-05 -7.75104e-07 0 -2.70665e-05 -7.07828e-07 0 -2.67053e-05 -6.34389e-07 0 -2.62935e-05 -5.60951e-07 0 -2.58707e-05 -3.01961e-07 0 -2.54873e-05 -3.06018e-08 0 -2.51436e-05 2.40758e-07 0 -2.4373e-05 8.08356e-07 0 -2.26486e-05 1.38551e-06 0 -1.99699e-05 1.96266e-06 0 0 1.18345e-05 0 -8.91505e-07 1.18233e-05 0 -1.78193e-06 1.18121e-05 0 -2.67127e-06 1.18002e-05 0 -3.55839e-06 1.17667e-05 0 -4.44228e-06 1.17332e-05 0 -5.32293e-06 1.16983e-05 0 -6.19917e-06 1.16427e-05 0 -7.07006e-06 1.15872e-05 0 -7.9356e-06 1.15297e-05 0 -8.79457e-06 1.14528e-05 0 -9.64614e-06 1.13759e-05 0 -1.04903e-05 1.12964e-05 0 -1.13258e-05 1.11988e-05 0 -1.2152e-05 1.11012e-05 0 -1.29687e-05 1.10006e-05 0 -1.37748e-05 1.08834e-05 0 -1.45697e-05 1.07661e-05 0 -1.53533e-05 1.06454e-05 0 -1.61244e-05 1.05097e-05 0 -1.68825e-05 1.0374e-05 0 -1.76276e-05 1.02345e-05 0 -1.83585e-05 1.00816e-05 0 -1.90748e-05 9.92877e-06 0 -1.97764e-05 9.77201e-06 0 -2.04623e-05 9.60355e-06 0 -2.11321e-05 9.43509e-06 0 -2.17857e-05 9.26271e-06 0 -2.24223e-05 9.08033e-06 0 -2.30416e-05 8.89794e-06 0 -2.36433e-05 8.71178e-06 0 -2.42269e-05 8.51729e-06 0 -2.4792e-05 8.3228e-06 0 -2.53385e-05 8.12482e-06 0 -2.58659e-05 7.92016e-06 0 -2.63738e-05 7.7155e-06 0 -2.68624e-05 7.50778e-06 0 -2.7331e-05 7.29497e-06 0 -2.77795e-05 7.08216e-06 0 -2.82079e-05 6.8669e-06 0 -2.86158e-05 6.64804e-06 0 -2.90031e-05 6.42918e-06 0 -2.93699e-05 6.20862e-06 0 -2.97159e-05 5.98587e-06 0 -3.0041e-05 5.76312e-06 0 -3.03453e-05 5.53958e-06 0 -3.06288e-05 5.31513e-06 0 -3.08913e-05 5.09068e-06 0 -3.1133e-05 4.86648e-06 0 -3.1354e-05 4.64255e-06 0 -3.15543e-05 4.41861e-06 0 -3.17339e-05 4.19612e-06 0 -3.18931e-05 3.97492e-06 0 -3.2032e-05 3.75372e-06 0 -3.21507e-05 3.5353e-06 0 -3.22495e-05 3.31905e-06 0 -3.23286e-05 3.1028e-06 0 -3.23881e-05 2.89081e-06 0 -3.24285e-05 2.68173e-06 0 -3.245e-05 2.47265e-06 0 -3.24527e-05 2.26945e-06 0 -3.24372e-05 2.06978e-06 0 -3.24038e-05 1.87011e-06 0 -3.23526e-05 1.67809e-06 0 -3.22845e-05 1.49008e-06 0 -3.21995e-05 1.30206e-06 0 -3.20979e-05 1.12372e-06 0 -3.19806e-05 9.49768e-07 0 -3.18476e-05 7.75818e-07 0 -3.16993e-05 6.13739e-07 0 -3.1537e-05 4.56306e-07 0 -3.13606e-05 2.98872e-07 0 -3.11704e-05 1.56235e-07 0 -3.09671e-05 1.85286e-08 0 -3.07505e-05 -1.19177e-07 0 -3.05217e-05 -2.39109e-07 0 -3.02824e-05 -3.54064e-07 0 -3.0033e-05 -4.69019e-07 0 -2.97725e-05 -5.60046e-07 0 -2.94997e-05 -6.45551e-07 0 -2.92146e-05 -7.31055e-07 0 -2.89199e-05 -7.88481e-07 0 -2.86207e-05 -8.40707e-07 0 -2.8317e-05 -8.92932e-07 0 -2.80018e-05 -8.95351e-07 0 -2.76637e-05 -8.90655e-07 0 -2.73025e-05 -8.85958e-07 0 -2.69273e-05 -8.26487e-07 0 -2.65509e-05 -7.6135e-07 0 -2.61733e-05 -6.96213e-07 0 -2.57268e-05 -4.56845e-07 0 -2.51254e-05 -2.05862e-07 0 -2.43687e-05 4.51211e-08 0 -2.3342e-05 3.95781e-07 0 -2.19153e-05 7.49657e-07 0 -2.00885e-05 1.10353e-06 0 0 1.21335e-05 0 -9.01326e-07 1.2122e-05 0 -1.80155e-06 1.21104e-05 0 -2.70068e-06 1.20981e-05 0 -3.59756e-06 1.20635e-05 0 -4.49115e-06 1.20289e-05 0 -5.38146e-06 1.19928e-05 0 -6.26728e-06 1.19355e-05 0 -7.14768e-06 1.18782e-05 0 -8.02263e-06 1.18189e-05 0 -8.89093e-06 1.17394e-05 0 -9.7517e-06 1.166e-05 0 -1.06049e-05 1.1578e-05 0 -1.14494e-05 1.14772e-05 0 -1.22844e-05 1.13765e-05 0 -1.31098e-05 1.12726e-05 0 -1.39244e-05 1.11516e-05 0 -1.47276e-05 1.10306e-05 0 -1.55193e-05 1.0906e-05 0 -1.62984e-05 1.07659e-05 0 -1.70643e-05 1.06258e-05 0 -1.78169e-05 1.04818e-05 0 -1.85552e-05 1.0324e-05 0 -1.92786e-05 1.01663e-05 0 -1.99871e-05 1.00045e-05 0 -2.06796e-05 9.83059e-06 0 -2.13558e-05 9.65672e-06 0 -2.20156e-05 9.47881e-06 0 -2.26581e-05 9.29059e-06 0 -2.32829e-05 9.10237e-06 0 -2.389e-05 8.91025e-06 0 -2.44787e-05 8.70955e-06 0 -2.50485e-05 8.50885e-06 0 -2.55995e-05 8.30456e-06 0 -2.61311e-05 8.09339e-06 0 -2.66429e-05 7.88221e-06 0 -2.71351e-05 7.6679e-06 0 -2.76069e-05 7.44834e-06 0 -2.80584e-05 7.22879e-06 0 -2.84895e-05 7.00671e-06 0 -2.88997e-05 6.78095e-06 0 -2.92891e-05 6.55518e-06 0 -2.96575e-05 6.32768e-06 0 -3.00049e-05 6.09793e-06 0 -3.03311e-05 5.86818e-06 0 -3.06362e-05 5.63763e-06 0 -3.092e-05 5.40617e-06 0 -3.11826e-05 5.1747e-06 0 -3.14241e-05 4.94352e-06 0 -3.16445e-05 4.71263e-06 0 -3.18439e-05 4.48173e-06 0 -3.20222e-05 4.25236e-06 0 -3.21799e-05 4.02432e-06 0 -3.23169e-05 3.79628e-06 0 -3.24334e-05 3.57114e-06 0 -3.25297e-05 3.34825e-06 0 -3.26059e-05 3.12536e-06 0 -3.26622e-05 2.90689e-06 0 -3.26991e-05 2.69143e-06 0 -3.27167e-05 2.47598e-06 0 -3.27152e-05 2.2666e-06 0 -3.26953e-05 2.06086e-06 0 -3.26571e-05 1.85513e-06 0 -3.26007e-05 1.6573e-06 0 -3.25271e-05 1.46361e-06 0 -3.24362e-05 1.26992e-06 0 -3.23285e-05 1.08617e-06 0 -3.22046e-05 9.06932e-07 0 -3.20647e-05 7.27697e-07 0 -3.19092e-05 5.60712e-07 0 -3.17391e-05 3.9852e-07 0 -3.15545e-05 2.36328e-07 0 -3.13557e-05 8.91646e-08 0 -3.11433e-05 -5.29893e-08 0 -3.09174e-05 -1.95143e-07 0 -3.06786e-05 -3.18869e-07 0 -3.04284e-05 -4.37436e-07 0 -3.01669e-05 -5.56002e-07 0 -2.98936e-05 -6.51066e-07 0 -2.96078e-05 -7.40705e-07 0 -2.93096e-05 -8.30345e-07 0 -2.90005e-05 -8.90183e-07 0 -2.86833e-05 -9.44501e-07 0 -2.83579e-05 -9.9882e-07 0 -2.80191e-05 -1.00805e-06 0 -2.76585e-05 -1.01085e-06 0 -2.72761e-05 -1.01364e-06 0 -2.68745e-05 -9.57327e-07 0 -2.64578e-05 -8.94901e-07 0 -2.6026e-05 -8.32474e-07 0 -2.55251e-05 -6.39064e-07 0 -2.48867e-05 -4.36922e-07 0 -2.41104e-05 -2.34779e-07 0 -2.31123e-05 -1.41556e-09 0 -2.17973e-05 2.32955e-07 0 -2.01653e-05 4.67325e-07 0 0 1.24358e-05 0 -9.11147e-07 1.24238e-05 0 -1.82118e-06 1.24119e-05 0 -2.7301e-06 1.23992e-05 0 -3.63672e-06 1.23635e-05 0 -4.54002e-06 1.23278e-05 0 -5.43998e-06 1.22906e-05 0 -6.33539e-06 1.22315e-05 0 -7.22529e-06 1.21724e-05 0 -8.10967e-06 1.21111e-05 0 -8.98728e-06 1.20292e-05 0 -9.85726e-06 1.19472e-05 0 -1.07196e-05 1.18625e-05 0 -1.1573e-05 1.17586e-05 0 -1.24168e-05 1.16547e-05 0 -1.32509e-05 1.15475e-05 0 -1.4074e-05 1.14226e-05 0 -1.48855e-05 1.12978e-05 0 -1.56854e-05 1.11692e-05 0 -1.64725e-05 1.10247e-05 0 -1.72461e-05 1.08801e-05 0 -1.80063e-05 1.07316e-05 0 -1.87519e-05 1.05688e-05 0 -1.94824e-05 1.04061e-05 0 -2.01977e-05 1.02392e-05 0 -2.08969e-05 1.00598e-05 0 -2.15795e-05 9.88044e-06 0 -2.22455e-05 9.69692e-06 0 -2.28938e-05 9.50277e-06 0 -2.35243e-05 9.30862e-06 0 -2.41367e-05 9.11045e-06 0 -2.47304e-05 8.90345e-06 0 -2.5305e-05 8.69645e-06 0 -2.58606e-05 8.48574e-06 0 -2.63963e-05 8.26796e-06 0 -2.6912e-05 8.05017e-06 0 -2.74077e-05 7.82916e-06 0 -2.78829e-05 7.60275e-06 0 -2.83373e-05 7.37635e-06 0 -2.8771e-05 7.14736e-06 0 -2.91836e-05 6.91458e-06 0 -2.9575e-05 6.6818e-06 0 -2.99452e-05 6.44724e-06 0 -3.02939e-05 6.21039e-06 0 -3.06212e-05 5.97354e-06 0 -3.0927e-05 5.73588e-06 0 -3.12112e-05 5.49729e-06 0 -3.1474e-05 5.2587e-06 0 -3.17152e-05 5.02043e-06 0 -3.1935e-05 4.78247e-06 0 -3.21335e-05 4.5445e-06 0 -3.23106e-05 4.30813e-06 0 -3.24667e-05 4.07315e-06 0 -3.26018e-05 3.83817e-06 0 -3.27161e-05 3.6062e-06 0 -3.28098e-05 3.37656e-06 0 -3.28832e-05 3.14692e-06 0 -3.29363e-05 2.92185e-06 0 -3.29697e-05 2.69991e-06 0 -3.29835e-05 2.47797e-06 0 -3.29778e-05 2.2623e-06 0 -3.29534e-05 2.05039e-06 0 -3.29104e-05 1.83849e-06 0 -3.28488e-05 1.63473e-06 0 -3.27697e-05 1.43525e-06 0 -3.2673e-05 1.23576e-06 0 -3.2559e-05 1.04649e-06 0 -3.24286e-05 8.61859e-07 0 -3.22818e-05 6.77229e-07 0 -3.21191e-05 5.05187e-07 0 -3.19413e-05 3.38072e-07 0 -3.17484e-05 1.70956e-07 0 -3.15409e-05 1.9145e-08 0 -3.13195e-05 -1.27565e-07 0 -3.10843e-05 -2.74275e-07 0 -3.08356e-05 -4.02106e-07 0 -3.05744e-05 -5.2465e-07 0 -3.03008e-05 -6.47193e-07 0 -3.00147e-05 -7.46387e-07 0 -2.9716e-05 -8.40193e-07 0 -2.94047e-05 -9.33998e-07 0 -2.90812e-05 -9.97288e-07 0 -2.87459e-05 -1.05493e-06 0 -2.83988e-05 -1.11257e-06 0 -2.80364e-05 -1.12844e-06 0 -2.76534e-05 -1.13834e-06 0 -2.72496e-05 -1.14824e-06 0 -2.68216e-05 -1.09926e-06 0 -2.63646e-05 -1.04419e-06 0 -2.58787e-05 -9.89115e-07 0 -2.53235e-05 -8.36522e-07 0 -2.4648e-05 -6.77428e-07 0 -2.38521e-05 -5.18333e-07 0 -2.28826e-05 -3.75237e-07 0 -2.16792e-05 -2.32658e-07 0 -2.02421e-05 -9.00779e-08 0 0 1.27413e-05 0 -9.21027e-07 1.2729e-05 0 -1.84092e-06 1.27167e-05 0 -2.75969e-06 1.27036e-05 0 -3.67613e-06 1.26668e-05 0 -4.58918e-06 1.26299e-05 0 -5.49886e-06 1.25916e-05 0 -6.40391e-06 1.25306e-05 0 -7.30336e-06 1.24697e-05 0 -8.19722e-06 1.24065e-05 0 -9.08421e-06 1.2322e-05 0 -9.96345e-06 1.22375e-05 0 -1.08349e-05 1.21501e-05 0 -1.16974e-05 1.2043e-05 0 -1.255e-05 1.19358e-05 0 -1.33928e-05 1.18253e-05 0 -1.42245e-05 1.16965e-05 0 -1.50444e-05 1.15677e-05 0 -1.58525e-05 1.14352e-05 0 -1.66475e-05 1.12861e-05 0 -1.7429e-05 1.11371e-05 0 -1.81968e-05 1.09839e-05 0 -1.89497e-05 1.08161e-05 0 -1.96874e-05 1.06482e-05 0 -2.04097e-05 1.04761e-05 0 -2.11155e-05 1.02912e-05 0 -2.18046e-05 1.01062e-05 0 -2.24767e-05 9.91703e-06 0 -2.3131e-05 9.71686e-06 0 -2.3767e-05 9.51669e-06 0 -2.43849e-05 9.31238e-06 0 -2.49837e-05 9.09899e-06 0 -2.55631e-05 8.88559e-06 0 -2.61231e-05 8.66837e-06 0 -2.6663e-05 8.44388e-06 0 -2.71827e-05 8.21938e-06 0 -2.7682e-05 7.99156e-06 0 -2.81605e-05 7.75821e-06 0 -2.86179e-05 7.52485e-06 0 -2.90543e-05 7.28884e-06 0 -2.94692e-05 7.04894e-06 0 -2.98627e-05 6.80905e-06 0 -3.02345e-05 6.56733e-06 0 -3.05847e-05 6.32326e-06 0 -3.0913e-05 6.0792e-06 0 -3.12195e-05 5.83431e-06 0 -3.15041e-05 5.58849e-06 0 -3.17669e-05 5.34268e-06 0 -3.20079e-05 5.0972e-06 0 -3.22272e-05 4.85206e-06 0 -3.24247e-05 4.60692e-06 0 -3.26006e-05 4.36343e-06 0 -3.27552e-05 4.1214e-06 0 -3.28884e-05 3.87937e-06 0 -3.30004e-05 3.64046e-06 0 -3.30916e-05 3.40397e-06 0 -3.31621e-05 3.16747e-06 0 -3.3212e-05 2.9357e-06 0 -3.32419e-05 2.70716e-06 0 -3.32518e-05 2.47862e-06 0 -3.32419e-05 2.25655e-06 0 -3.3213e-05 2.03837e-06 0 -3.31651e-05 1.82018e-06 0 -3.30984e-05 1.61039e-06 0 -3.30137e-05 1.40499e-06 0 -3.29111e-05 1.19959e-06 0 -3.27909e-05 1.00468e-06 0 -3.26539e-05 8.14549e-07 0 -3.25002e-05 6.24413e-07 0 -3.23302e-05 4.47166e-07 0 -3.21446e-05 2.74962e-07 0 -3.19435e-05 1.02758e-07 0 -3.17272e-05 -5.38245e-08 0 -3.14968e-05 -2.05199e-07 0 -3.12522e-05 -3.56574e-07 0 -3.09936e-05 -4.88818e-07 0 -3.07214e-05 -6.15705e-07 0 -3.04358e-05 -7.42592e-07 0 -3.01368e-05 -8.46011e-07 0 -2.98251e-05 -9.44013e-07 0 -2.95008e-05 -1.04202e-06 0 -2.91628e-05 -1.1098e-06 0 -2.88096e-05 -1.17198e-06 0 -2.8441e-05 -1.23417e-06 0 -2.80555e-05 -1.2565e-06 0 -2.76501e-05 -1.27313e-06 0 -2.7225e-05 -1.28976e-06 0 -2.67709e-05 -1.25228e-06 0 -2.62748e-05 -1.20919e-06 0 -2.57368e-05 -1.16611e-06 0 -2.51297e-05 -1.0492e-06 0 -2.44191e-05 -9.27362e-07 0 -2.36051e-05 -8.05528e-07 0 -2.2664e-05 -7.257e-07 0 -2.15693e-05 -6.47228e-07 0 -2.0321e-05 -5.68755e-07 0 0 1.30503e-05 0 -9.31784e-07 1.30376e-05 0 -1.86242e-06 1.30249e-05 0 -2.7919e-06 1.30114e-05 0 -3.71902e-06 1.29735e-05 0 -4.64271e-06 1.29355e-05 0 -5.56296e-06 1.2896e-05 0 -6.47851e-06 1.28331e-05 0 -7.38837e-06 1.27703e-05 0 -8.29254e-06 1.27051e-05 0 -9.18973e-06 1.2618e-05 0 -1.0079e-05 1.25309e-05 0 -1.09605e-05 1.24409e-05 0 -1.18327e-05 1.23304e-05 0 -1.2695e-05 1.222e-05 0 -1.35473e-05 1.2106e-05 0 -1.43883e-05 1.19733e-05 0 -1.52173e-05 1.18406e-05 0 -1.60343e-05 1.17039e-05 0 -1.68381e-05 1.15503e-05 0 -1.7628e-05 1.13967e-05 0 -1.8404e-05 1.12388e-05 0 -1.9165e-05 1.10658e-05 0 -1.99105e-05 1.08928e-05 0 -2.06403e-05 1.07154e-05 0 -2.13534e-05 1.05249e-05 0 -2.20494e-05 1.03343e-05 0 -2.27282e-05 1.01392e-05 0 -2.33889e-05 9.93296e-06 0 -2.40311e-05 9.72668e-06 0 -2.46548e-05 9.51614e-06 0 -2.52591e-05 9.29624e-06 0 -2.58437e-05 9.07634e-06 0 -2.64086e-05 8.85252e-06 0 -2.69531e-05 8.62121e-06 0 -2.7477e-05 8.3899e-06 0 -2.79802e-05 8.15517e-06 0 -2.84622e-05 7.91475e-06 0 -2.89229e-05 7.67434e-06 0 -2.93621e-05 7.43119e-06 0 -2.97796e-05 7.18406e-06 0 -3.01752e-05 6.93693e-06 0 -3.05489e-05 6.68794e-06 0 -3.09005e-05 6.43655e-06 0 -3.12299e-05 6.18516e-06 0 -3.15372e-05 5.93294e-06 0 -3.18222e-05 5.67977e-06 0 -3.20851e-05 5.42661e-06 0 -3.23257e-05 5.17381e-06 0 -3.25443e-05 4.92138e-06 0 -3.27408e-05 4.66895e-06 0 -3.29153e-05 4.41824e-06 0 -3.30681e-05 4.16904e-06 0 -3.31992e-05 3.91985e-06 0 -3.33088e-05 3.67388e-06 0 -3.33972e-05 3.43042e-06 0 -3.34645e-05 3.18696e-06 0 -3.35109e-05 2.94837e-06 0 -3.35369e-05 2.71312e-06 0 -3.35426e-05 2.47787e-06 0 -3.35282e-05 2.24929e-06 0 -3.34944e-05 2.02471e-06 0 -3.34412e-05 1.80013e-06 0 -3.33688e-05 1.58418e-06 0 -3.32782e-05 1.37275e-06 0 -3.31693e-05 1.16132e-06 0 -3.30424e-05 9.60662e-07 0 -3.28983e-05 7.649e-07 0 -3.27372e-05 5.69138e-07 0 -3.25593e-05 3.86547e-07 0 -3.23655e-05 2.09109e-07 0 -3.21558e-05 3.16717e-08 0 -3.19305e-05 -1.29826e-07 0 -3.16905e-05 -2.8601e-07 0 -3.14359e-05 -4.42195e-07 0 -3.11667e-05 -5.79082e-07 0 -3.08834e-05 -7.10567e-07 0 -3.05862e-05 -8.42052e-07 0 -3.0275e-05 -9.49904e-07 0 -2.99501e-05 -1.0523e-06 0 -2.96115e-05 -1.1547e-06 0 -2.92584e-05 -1.22758e-06 0 -2.88893e-05 -1.29498e-06 0 -2.85042e-05 -1.36239e-06 0 -2.81008e-05 -1.39144e-06 0 -2.76757e-05 -1.41501e-06 0 -2.72288e-05 -1.43857e-06 0 -2.67522e-05 -1.41429e-06 0 -2.62346e-05 -1.38505e-06 0 -2.5676e-05 -1.35581e-06 0 -2.50533e-05 -1.27055e-06 0 -2.43372e-05 -1.18156e-06 0 -2.35275e-05 -1.09256e-06 0 -2.2613e-05 -1.05758e-06 0 -2.15807e-05 -1.02435e-06 0 -2.04305e-05 -9.91114e-07 0 0 1.33629e-05 0 -9.42541e-07 1.33498e-05 0 -1.88391e-06 1.33367e-05 0 -2.82412e-06 1.33228e-05 0 -3.76192e-06 1.32837e-05 0 -4.69624e-06 1.32446e-05 0 -5.62706e-06 1.32039e-05 0 -6.5531e-06 1.31391e-05 0 -7.47337e-06 1.30743e-05 0 -8.38786e-06 1.30072e-05 0 -9.29526e-06 1.29175e-05 0 -1.01947e-05 1.28277e-05 0 -1.1086e-05 1.2735e-05 0 -1.19681e-05 1.26211e-05 0 -1.284e-05 1.25073e-05 0 -1.37018e-05 1.23899e-05 0 -1.45521e-05 1.22532e-05 0 -1.53902e-05 1.21164e-05 0 -1.62161e-05 1.19756e-05 0 -1.70286e-05 1.18174e-05 0 -1.7827e-05 1.16591e-05 0 -1.86113e-05 1.14964e-05 0 -1.93804e-05 1.13182e-05 0 -2.01336e-05 1.114e-05 0 -2.08709e-05 1.09572e-05 0 -2.15913e-05 1.07609e-05 0 -2.22943e-05 1.05645e-05 0 -2.29798e-05 1.03637e-05 0 -2.36469e-05 1.01512e-05 0 -2.42952e-05 9.93866e-06 0 -2.49247e-05 9.72179e-06 0 -2.55345e-05 9.49529e-06 0 -2.61243e-05 9.26878e-06 0 -2.66941e-05 9.03824e-06 0 -2.72432e-05 8.8e-06 0 -2.77713e-05 8.56176e-06 0 -2.82784e-05 8.32002e-06 0 -2.87639e-05 8.07243e-06 0 -2.92278e-05 7.82483e-06 0 -2.96699e-05 7.57444e-06 0 -3.00899e-05 7.31997e-06 0 -3.04877e-05 7.06549e-06 0 -3.08632e-05 6.80911e-06 0 -3.12163e-05 6.55027e-06 0 -3.15468e-05 6.29143e-06 0 -3.18548e-05 6.03176e-06 0 -3.21403e-05 5.77113e-06 0 -3.24032e-05 5.5105e-06 0 -3.26435e-05 5.25026e-06 0 -3.28614e-05 4.99042e-06 0 -3.30569e-05 4.73058e-06 0 -3.323e-05 4.47252e-06 0 -3.33811e-05 4.21605e-06 0 -3.35101e-05 3.95957e-06 0 -3.36172e-05 3.70643e-06 0 -3.37028e-05 3.45588e-06 0 -3.3767e-05 3.20533e-06 0 -3.38098e-05 2.95981e-06 0 -3.3832e-05 2.71773e-06 0 -3.38335e-05 2.47565e-06 0 -3.38145e-05 2.24044e-06 0 -3.37757e-05 2.00935e-06 0 -3.37173e-05 1.77827e-06 0 -3.36393e-05 1.55604e-06 0 -3.35427e-05 1.33846e-06 0 -3.34275e-05 1.12088e-06 0 -3.32939e-05 9.14347e-07 0 -3.31427e-05 7.12832e-07 0 -3.29742e-05 5.11316e-07 0 -3.27885e-05 3.23252e-07 0 -3.25864e-05 1.40452e-07 0 -3.23681e-05 -4.23477e-08 0 -3.21338e-05 -2.08924e-07 0 -3.18843e-05 -3.70092e-07 0 -3.16195e-05 -5.3126e-07 0 -3.13398e-05 -6.7296e-07 0 -3.10454e-05 -8.09209e-07 0 -3.07366e-05 -9.45457e-07 0 -3.04131e-05 -1.05804e-06 0 -3.0075e-05 -1.16516e-06 0 -2.97222e-05 -1.27229e-06 0 -2.9354e-05 -1.35052e-06 0 -2.8969e-05 -1.4234e-06 0 -2.85673e-05 -1.49628e-06 0 -2.81461e-05 -1.53264e-06 0 -2.77012e-05 -1.5638e-06 0 -2.72326e-05 -1.59495e-06 0 -2.67336e-05 -1.58363e-06 0 -2.61945e-05 -1.56792e-06 0 -2.56152e-05 -1.55222e-06 0 -2.49769e-05 -1.49545e-06 0 -2.42552e-05 -1.43595e-06 0 -2.345e-05 -1.37645e-06 0 -2.2562e-05 -1.37465e-06 0 -2.1592e-05 -1.37472e-06 0 -2.05401e-05 -1.37478e-06 0 0 1.36791e-05 0 -9.5339e-07 1.36656e-05 0 -1.90559e-06 1.36521e-05 0 -2.85661e-06 1.36378e-05 0 -3.80519e-06 1.35975e-05 0 -4.75022e-06 1.35572e-05 0 -5.6917e-06 1.35153e-05 0 -6.62834e-06 1.34486e-05 0 -7.5591e-06 1.33819e-05 0 -8.48399e-06 1.33127e-05 0 -9.40168e-06 1.32203e-05 0 -1.03112e-05 1.31279e-05 0 -1.12127e-05 1.30323e-05 0 -1.21046e-05 1.29151e-05 0 -1.29863e-05 1.27979e-05 0 -1.38576e-05 1.26769e-05 0 -1.47173e-05 1.25361e-05 0 -1.55646e-05 1.23953e-05 0 -1.63995e-05 1.22503e-05 0 -1.72208e-05 1.20873e-05 0 -1.80278e-05 1.19243e-05 0 -1.88204e-05 1.17568e-05 0 -1.95975e-05 1.15732e-05 0 -2.03586e-05 1.13897e-05 0 -2.11035e-05 1.12015e-05 0 -2.18312e-05 1.09993e-05 0 -2.25412e-05 1.07971e-05 0 -2.32335e-05 1.05903e-05 0 -2.39071e-05 1.03714e-05 0 -2.45616e-05 1.01526e-05 0 -2.51969e-05 9.92933e-06 0 -2.58123e-05 9.69611e-06 0 -2.64073e-05 9.4629e-06 0 -2.6982e-05 9.22554e-06 0 -2.75357e-05 8.98026e-06 0 -2.8068e-05 8.73499e-06 0 -2.85791e-05 8.48611e-06 0 -2.90682e-05 8.23123e-06 0 -2.95353e-05 7.97634e-06 0 -2.99803e-05 7.71859e-06 0 -3.04029e-05 7.45665e-06 0 -3.08028e-05 7.19471e-06 0 -3.11802e-05 6.93082e-06 0 -3.15347e-05 6.66442e-06 0 -3.18664e-05 6.39802e-06 0 -3.21752e-05 6.13077e-06 0 -3.2461e-05 5.86255e-06 0 -3.27239e-05 5.59434e-06 0 -3.29639e-05 5.32655e-06 0 -3.31812e-05 5.05917e-06 0 -3.33756e-05 4.7918e-06 0 -3.35473e-05 4.52629e-06 0 -3.36966e-05 4.26241e-06 0 -3.38235e-05 3.99853e-06 0 -3.39282e-05 3.73809e-06 0 -3.40109e-05 3.48034e-06 0 -3.40719e-05 3.22259e-06 0 -3.41112e-05 2.97002e-06 0 -3.41295e-05 2.721e-06 0 -3.41267e-05 2.47197e-06 0 -3.41031e-05 2.23002e-06 0 -3.40594e-05 1.9923e-06 0 -3.39956e-05 1.75459e-06 0 -3.3912e-05 1.52597e-06 0 -3.38094e-05 1.30213e-06 0 -3.36878e-05 1.07828e-06 0 -3.35474e-05 8.6574e-07 0 -3.33892e-05 6.58343e-07 0 -3.32132e-05 4.50946e-07 0 -3.30196e-05 2.57282e-07 0 -3.28093e-05 6.899e-08 0 -3.25823e-05 -1.19301e-07 0 -3.23389e-05 -2.91119e-07 0 -3.20798e-05 -4.57445e-07 0 -3.1805e-05 -6.23771e-07 0 -3.15146e-05 -7.7045e-07 0 -3.12092e-05 -9.11629e-07 0 -3.08887e-05 -1.05281e-06 0 -3.0553e-05 -1.17042e-06 0 -3.02017e-05 -1.2826e-06 0 -2.98348e-05 -1.39478e-06 0 -2.94516e-05 -1.47862e-06 0 -2.90509e-05 -1.55722e-06 0 -2.86327e-05 -1.63582e-06 0 -2.81939e-05 -1.68011e-06 0 -2.77297e-05 -1.71949e-06 0 -2.72401e-05 -1.75888e-06 0 -2.67193e-05 -1.76031e-06 0 -2.61595e-05 -1.7578e-06 0 -2.55606e-05 -1.7553e-06 0 -2.49075e-05 -1.72388e-06 0 -2.41811e-05 -1.69052e-06 0 -2.33814e-05 -1.65717e-06 0 -2.25198e-05 -1.67692e-06 0 -2.16093e-05 -1.69839e-06 0 -2.065e-05 -1.71986e-06 0 0 1.3999e-05 0 -9.65127e-07 1.39852e-05 0 -1.92905e-06 1.39713e-05 0 -2.89176e-06 1.39565e-05 0 -3.852e-06 1.3915e-05 0 -4.80863e-06 1.38736e-05 0 -5.76164e-06 1.38304e-05 0 -6.70973e-06 1.37617e-05 0 -7.65185e-06 1.3693e-05 0 -8.588e-06 1.36219e-05 0 -9.51682e-06 1.35267e-05 0 -1.04374e-05 1.34315e-05 0 -1.13496e-05 1.33332e-05 0 -1.22523e-05 1.32125e-05 0 -1.31445e-05 1.30918e-05 0 -1.40261e-05 1.29673e-05 0 -1.4896e-05 1.28223e-05 0 -1.57532e-05 1.26773e-05 0 -1.65979e-05 1.2528e-05 0 -1.74286e-05 1.23602e-05 0 -1.82449e-05 1.21924e-05 0 -1.90465e-05 1.202e-05 0 -1.98324e-05 1.1831e-05 0 -2.06019e-05 1.16421e-05 0 -2.1355e-05 1.14484e-05 0 -2.20906e-05 1.12402e-05 0 -2.28082e-05 1.10321e-05 0 -2.35078e-05 1.08191e-05 0 -2.41883e-05 1.05939e-05 0 -2.48495e-05 1.03687e-05 0 -2.54912e-05 1.01389e-05 0 -2.61125e-05 9.89882e-06 0 -2.67132e-05 9.65878e-06 0 -2.72932e-05 9.41449e-06 0 -2.78518e-05 9.16206e-06 0 -2.83887e-05 8.90963e-06 0 -2.8904e-05 8.6535e-06 0 -2.9397e-05 8.39121e-06 0 -2.98675e-05 8.12892e-06 0 -3.03156e-05 7.86369e-06 0 -3.07409e-05 7.59415e-06 0 -3.11432e-05 7.32462e-06 0 -3.15225e-05 7.0531e-06 0 -3.18786e-05 6.77901e-06 0 -3.22114e-05 6.50492e-06 0 -3.2521e-05 6.22998e-06 0 -3.28072e-05 5.95405e-06 0 -3.30702e-05 5.67813e-06 0 -3.33098e-05 5.40265e-06 0 -3.35262e-05 5.12762e-06 0 -3.37195e-05 4.8526e-06 0 -3.38897e-05 4.57949e-06 0 -3.4037e-05 4.30809e-06 0 -3.41616e-05 4.03668e-06 0 -3.42635e-05 3.76883e-06 0 -3.43432e-05 3.50375e-06 0 -3.44007e-05 3.23867e-06 0 -3.44362e-05 2.97893e-06 0 -3.44503e-05 2.72284e-06 0 -3.44429e-05 2.46676e-06 0 -3.44144e-05 2.21793e-06 0 -3.43653e-05 1.97347e-06 0 -3.42959e-05 1.72901e-06 0 -3.42062e-05 1.49388e-06 0 -3.40971e-05 1.26364e-06 0 -3.39687e-05 1.03341e-06 0 -3.38212e-05 8.14746e-07 0 -3.36554e-05 6.01343e-07 0 -3.34714e-05 3.8794e-07 0 -3.32696e-05 1.88544e-07 0 -3.30506e-05 -5.3695e-09 0 -3.28145e-05 -1.99283e-07 0 -3.25617e-05 -3.76488e-07 0 -3.22927e-05 -5.48123e-07 0 -3.20075e-05 -7.19758e-07 0 -3.17064e-05 -8.71582e-07 0 -3.13897e-05 -1.01786e-06 0 -3.10575e-05 -1.16414e-06 0 -3.07096e-05 -1.287e-06 0 -3.03456e-05 -1.40446e-06 0 -2.99655e-05 -1.52191e-06 0 -2.95686e-05 -1.6116e-06 0 -2.91536e-05 -1.69615e-06 0 -2.87203e-05 -1.7807e-06 0 -2.82662e-05 -1.83312e-06 0 -2.7787e-05 -1.88095e-06 0 -2.72826e-05 -1.92878e-06 0 -2.67478e-05 -1.94261e-06 0 -2.61753e-05 -1.95293e-06 0 -2.55651e-05 -1.96324e-06 0 -2.4906e-05 -1.95389e-06 0 -2.41842e-05 -1.94322e-06 0 -2.33997e-05 -1.93256e-06 0 -2.25624e-05 -1.9676e-06 0 -2.16837e-05 -2.00412e-06 0 -2.07635e-05 -2.04063e-06 0 0 1.43229e-05 0 -9.76865e-07 1.43086e-05 0 -1.9525e-06 1.42943e-05 0 -2.92692e-06 1.42792e-05 0 -3.89881e-06 1.42365e-05 0 -4.86703e-06 1.41938e-05 0 -5.83158e-06 1.41493e-05 0 -6.79113e-06 1.40786e-05 0 -7.7446e-06 1.4008e-05 0 -8.692e-06 1.39347e-05 0 -9.63195e-06 1.38368e-05 0 -1.05635e-05 1.37388e-05 0 -1.14866e-05 1.36376e-05 0 -1.24e-05 1.35134e-05 0 -1.33027e-05 1.33892e-05 0 -1.41947e-05 1.3261e-05 0 -1.50747e-05 1.31118e-05 0 -1.59418e-05 1.29626e-05 0 -1.67962e-05 1.2809e-05 0 -1.76365e-05 1.26363e-05 0 -1.8462e-05 1.24636e-05 0 -1.92726e-05 1.22861e-05 0 -2.00672e-05 1.20917e-05 0 -2.08452e-05 1.18973e-05 0 -2.16065e-05 1.16979e-05 0 -2.235e-05 1.14837e-05 0 -2.30752e-05 1.12695e-05 0 -2.37821e-05 1.10504e-05 0 -2.44696e-05 1.08187e-05 0 -2.51374e-05 1.05869e-05 0 -2.57854e-05 1.03504e-05 0 -2.64128e-05 1.01035e-05 0 -2.70191e-05 9.85649e-06 0 -2.76044e-05 9.60514e-06 0 -2.81679e-05 9.34544e-06 0 -2.87094e-05 9.08573e-06 0 -2.92289e-05 8.82223e-06 0 -2.97257e-05 8.55241e-06 0 -3.01997e-05 8.28258e-06 0 -3.06509e-05 8.00974e-06 0 -3.10789e-05 7.7325e-06 0 -3.14835e-05 7.45525e-06 0 -3.18648e-05 7.17597e-06 0 -3.22224e-05 6.89406e-06 0 -3.25564e-05 6.61216e-06 0 -3.28668e-05 6.32938e-06 0 -3.31534e-05 6.04561e-06 0 -3.34164e-05 5.76185e-06 0 -3.36556e-05 5.47856e-06 0 -3.38713e-05 5.19575e-06 0 -3.40634e-05 4.91294e-06 0 -3.4232e-05 4.63212e-06 0 -