<?xml version="1.0"?> 
<VTKFile type="StructuredGrid" version="0.1"> 
<StructuredGrid WholeExtent="0 31 0 31 0 0"> 
<Piece Extent="0 31 0 31 0 0"> 
<PointData>
<DataArray type="Float32" Name="B" format="ascii" NumberOfComponents="3"> 
-7.18272e-05 1.36715e-05 0 -0.000162946 1.49138e-07 0 -0.00017707 -1.02132e-06 0 -0.000186604 -1.49437e-06 0 -0.00021143 -1.71258e-06 0 -0.000232037 -1.82136e-06 0 -0.000256696 -1.8145e-06 0 -0.000278868 -1.71872e-06 0 -0.000300292 -1.55238e-06 0 -0.000318822 -1.3481e-06 0 -0.000334856 -1.12637e-06 0 -0.000347902 -9.04672e-07 0 -0.000358196 -6.89353e-07 0 -0.000365747 -4.83796e-07 0 -0.000370717 -2.86412e-07 0 -0.000373173 -9.48635e-08 0 -0.000373173 9.48635e-08 0 -0.000370717 2.86412e-07 0 -0.000365747 4.83796e-07 0 -0.000358196 6.89353e-07 0 -0.000347902 9.04672e-07 0 -0.000334856 1.12637e-06 0 -0.000318822 1.3481e-06 0 -0.000300292 1.55238e-06 0 -0.000278868 1.71872e-06 0 -0.000256696 1.8145e-06 0 -0.000232037 1.82136e-06 0 -0.00021143 1.71258e-06 0 -0.000186604 1.49437e-06 0 -0.00017707 1.02132e-06 0 -0.000162946 -1.49138e-07 0 -7.18272e-05 -1.36715e-05 0 -1.37766e-05 2.57908e-05 0 1.0143e-05 -2.2533e-06 0 1.17865e-05 4.60623e-07 0 1.16453e-05 -1.28244e-07 0 1.36269e-05 3.78944e-08 0 1.46925e-05 -4.14749e-09 0 1.6359e-05 -1.80397e-09 0 1.76892e-05 6.47283e-09 0 1.90682e-05 -3.01221e-09 0 2.02198e-05 4.01598e-09 0 2.12403e-05 -1.24123e-09 0 2.20616e-05 1.79774e-09 0 2.27159e-05 -3.68656e-10 0 2.3194e-05 7.16398e-10 0 2.35101e-05 -1.49017e-10 0 2.36659e-05 2.67413e-10 0 2.36659e-05 -2.67413e-10 0 2.35101e-05 1.49017e-10 0 2.3194e-05 -7.16398e-10 0 2.27159e-05 3.68656e-10 0 2.20616e-05 -1.79774e-09 0 2.12403e-05 1.24123e-09 0 2.02198e-05 -4.01598e-09 0 1.90682e-05 3.01221e-09 0 1.76892e-05 -6.47283e-09 0 1.6359e-05 1.80397e-09 0 1.46925e-05 4.14749e-09 0 1.36269e-05 -3.78944e-08 0 1.16453e-05 1.28244e-07 0 1.17865e-05 -4.60623e-07 0 1.0143e-05 2.2533e-06 0 -1.37766e-05 -2.57908e-05 0 -2.37968e-06 1.74251e-05 0 -1.93818e-06 -1.44704e-06 0 -1.88164e-06 3.12922e-07 0 -2.17601e-06 -5.79148e-08 0 -2.3377e-06 5.30294e-08 0 -2.62721e-06 2.73182e-08 0 -2.8648e-06 2.90872e-08 0 -3.12778e-06 3.26735e-08 0 -3.35473e-06 2.41567e-08 0 -3.56525e-06 2.52645e-08 0 -3.74067e-06 1.83681e-08 0 -3.88737e-06 1.65814e-08 0 -4.00154e-06 1.16095e-08 0 -4.08631e-06 8.78179e-09 0 -4.14175e-06 4.85566e-09 0 -4.16933e-06 1.80577e-09 0 -4.16933e-06 -1.80577e-09 0 -4.14175e-06 -4.85566e-09 0 -4.08631e-06 -8.78179e-09 0 -4.00154e-06 -1.16095e-08 0 -3.88737e-06 -1.65814e-08 0 -3.74067e-06 -1.83681e-08 0 -3.56525e-06 -2.52645e-08 0 -3.35473e-06 -2.41567e-08 0 -3.12778e-06 -3.26735e-08 0 -2.8648e-06 -2.90872e-08 0 -2.62721e-06 -2.73182e-08 0 -2.3377e-06 -5.30294e-08 0 -2.17601e-06 5.79148e-08 0 -1.88164e-06 -3.12922e-07 0 -1.93818e-06 1.44704e-06 0 -2.37968e-06 -1.74251e-05 0 -1.98262e-06 1.13383e-05 0 4.75903e-07 -9.80147e-07 0 6.44515e-07 1.90409e-07 0 5.59457e-07 -7.15086e-08 0 7.04739e-07 -1.3136e-09 0 7.33506e-07 -2.07336e-08 0 8.30867e-07 -1.97008e-08 0 8.90773e-07 -1.50619e-08 0 9.64024e-07 -1.75293e-08 0 1.02013e-06 -1.23255e-08 0 1.07261e-06 -1.23407e-08 0 1.11354e-06 -8.69333e-09 0 1.14682e-06 -7.39868e-09 0 1.17083e-06 -4.76637e-09 0 1.18685e-06 -3.07654e-09 0 1.1947e-06 -8.79187e-10 0 1.1947e-06 8.79187e-10 0 1.18685e-06 3.07654e-09 0 1.17083e-06 4.76637e-09 0 1.14682e-06 7.39868e-09 0 1.11354e-06 8.69333e-09 0 1.07261e-06 1.23407e-08 0 1.02013e-06 1.23255e-08 0 9.64024e-07 1.75293e-08 0 8.90773e-07 1.50619e-08 0 8.30867e-07 1.97008e-08 0 7.33506e-07 2.07336e-08 0 7.04739e-07 1.3136e-09 0 5.59457e-07 7.15086e-08 0 6.44515e-07 -1.90409e-07 0 4.75903e-07 9.80147e-07 0 -1.98262e-06 -1.13383e-05 0 -1.18817e-06 1.00473e-05 0 -2.02232e-07 -8.36092e-07 0 -1.35761e-07 1.7594e-07 0 -2.19496e-07 -4.05725e-08 0 -2.01303e-07 2.24462e-08 0 -2.45912e-07 7.10624e-09 0 -2.58018e-07 8.13653e-09 0 -2.87258e-07 1.06625e-08 0 -3.05363e-07 6.50506e-09 0 -3.26033e-07 8.10979e-09 0 -3.41363e-07 5.16987e-09 0 -3.55138e-07 5.19861e-09 0 -3.65386e-07 3.35912e-09 0 -3.73216e-07 2.7206e-09 0 -3.78235e-07 1.41004e-09 0 -3.80768e-07 5.81204e-10 0 -3.80768e-07 -5.81204e-10 0 -3.78235e-07 -1.41004e-09 0 -3.73216e-07 -2.7206e-09 0 -3.65386e-07 -3.35912e-09 0 -3.55138e-07 -5.19861e-09 0 -3.41363e-07 -5.16987e-09 0 -3.26033e-07 -8.10979e-09 0 -3.05363e-07 -6.50506e-09 0 -2.87258e-07 -1.06625e-08 0 -2.58018e-07 -8.13653e-09 0 -2.45912e-07 -7.10624e-09 0 -2.01303e-07 -2.24462e-08 0 -2.19496e-07 4.05725e-08 0 -1.35761e-07 -1.7594e-07 0 -2.02232e-07 8.36092e-07 0 -1.18817e-06 -1.00473e-05 0 -9.14722e-07 7.66212e-06 0 2.08838e-08 -6.52944e-07 0 8.54696e-08 1.30841e-07 0 3.20158e-08 -4.14453e-08 0 7.17739e-08 6.23696e-09 0 5.97274e-08 -6.3267e-09 0 7.63432e-08 -5.58838e-09 0 7.75516e-08 -2.94128e-09 0 8.63137e-08 -5.20263e-09 0 9.01939e-08 -2.60049e-09 0 9.54669e-08 -3.49287e-09 0 9.88135e-08 -1.99642e-09 0 1.01924e-07 -2.01989e-09 0 1.03981e-07 -1.13555e-09 0 1.05438e-07 -8.36781e-10 0 1.06119e-07 -1.85915e-10 0 1.06119e-07 1.85915e-10 0 1.05438e-07 8.36781e-10 0 1.03981e-07 1.13555e-09 0 1.01924e-07 2.01989e-09 0 9.88135e-08 1.99642e-09 0 9.54669e-08 3.49287e-09 0 9.01939e-08 2.60049e-09 0 8.63137e-08 5.20263e-09 0 7.75516e-08 2.94128e-09 0 7.63432e-08 5.58838e-09 0 5.97274e-08 6.3267e-09 0 7.17739e-08 -6.23696e-09 0 3.20158e-08 4.14453e-08 0 8.54696e-08 -1.30841e-07 0 2.08838e-08 6.52944e-07 0 -9.14722e-07 -7.66212e-06 0 -7.23742e-07 6.62834e-06 0 -2.68477e-08 -5.54647e-07 0 1.94395e-08 1.14534e-07 0 -2.42471e-08 -3.01673e-08 0 -2.28667e-10 1.11412e-08 0 -1.49919e-08 7.57638e-10 0 -8.75063e-09 1.42978e-09 0 -1.37192e-08 3.32381e-09 0 -1.26577e-08 9.02364e-10 0 -1.45844e-08 2.41326e-09 0 -1.47668e-08 9.34124e-10 0 -1.56381e-08 1.44141e-09 0 -1.59593e-08 6.91641e-10 0 -1.6366e-08 7.25579e-10 0 -1.65537e-08 2.94532e-10 0 -1.66755e-08 1.73748e-10 0 -1.66755e-08 -1.73748e-10 0 -1.65537e-08 -2.94532e-10 0 -1.6366e-08 -7.25579e-10 0 -1.59593e-08 -6.91641e-10 0 -1.56381e-08 -1.44141e-09 0 -1.47668e-08 -9.34124e-10 0 -1.45844e-08 -2.41326e-09 0 -1.26577e-08 -9.02364e-10 0 -1.37192e-08 -3.32381e-09 0 -8.75063e-09 -1.42978e-09 0 -1.49919e-08 -7.57638e-10 0 -2.28667e-10 -1.11412e-08 0 -2.42471e-08 3.01673e-08 0 1.94395e-08 -1.14534e-07 0 -2.68477e-08 5.54647e-07 0 -7.23742e-07 -6.62834e-06 0 -5.84418e-07 5.39166e-06 0 -1.97932e-08 -4.55962e-07 0 1.88193e-08 9.25323e-08 0 -1.73619e-08 -2.71571e-08 0 3.23229e-09 6.41398e-09 0 -8.60189e-09 -2.25662e-09 0 -2.81864e-09 -1.72317e-09 0 -6.45676e-09 -3.70012e-12 0 -5.09116e-09 -1.75838e-09 0 -6.30265e-09 -1.91003e-10 0 -6.12432e-09 -1.06779e-09 0 -6.59473e-09 -2.93027e-10 0 -6.66695e-09 -5.65649e-10 0 -6.8673e-09 -2.00433e-10 0 -6.93427e-09 -2.31817e-10 0 -6.99231e-09 -1.36609e-11 0 -6.99231e-09 1.36609e-11 0 -6.93427e-09 2.31817e-10 0 -6.8673e-09 2.00433e-10 0 -6.66695e-09 5.65649e-10 0 -6.59473e-09 2.93027e-10 0 -6.12432e-09 1.06779e-09 0 -6.30265e-09 1.91003e-10 0 -5.09116e-09 1.75838e-09 0 -6.45676e-09 3.70012e-12 0 -2.81864e-09 1.72317e-09 0 -8.60189e-09 2.25662e-09 0 3.23229e-09 -6.41398e-09 0 -1.73619e-08 2.71571e-08 0 1.88193e-08 -9.25323e-08 0 -1.97932e-08 4.55962e-07 0 -5.84418e-07 -5.39166e-06 0 -5.11145e-07 4.55645e-06 0 -9.44111e-09 -3.82349e-07 0 2.37682e-08 7.83647e-08 0 -6.34249e-09 -2.16563e-08 0 1.19008e-08 6.68313e-09 0 2.71733e-09 -5.2814e-10 0 8.47879e-09 -6.82242e-11 0 6.25183e-09 1.29463e-09 0 8.20341e-09 -2.85815e-10 0 7.90355e-09 8.7343e-10 0 8.68302e-09 -2.13135e-11 0 8.81337e-09 4.57962e-10 0 9.17253e-09 6.64117e-11 0 9.31708e-09 2.11788e-10 0 9.46812e-09 3.1739e-11 0 9.52256e-09 6.31349e-11 0 9.52256e-09 -6.31349e-11 0 9.46812e-09 -3.1739e-11 0 9.31708e-09 -2.11788e-10 0 9.17253e-09 -6.64117e-11 0 8.81337e-09 -4.57962e-10 0 8.68302e-09 2.13135e-11 0 7.90355e-09 -8.7343e-10 0 8.20341e-09 2.85815e-10 0 6.25183e-09 -1.29463e-09 0 8.47879e-09 6.82242e-11 0 2.71733e-09 5.2814e-10 0 1.19008e-08 -6.68313e-09 0 -6.34249e-09 2.16563e-08 0 2.37682e-08 -7.83647e-08 0 -9.44111e-09 3.82349e-07 0 -5.11145e-07 -4.55645e-06 0 -4.38064e-07 3.7367e-06 0 -1.53561e-08 -3.14902e-07 0 1.32408e-08 6.41816e-08 0 -1.36634e-08 -1.83373e-08 0 1.49775e-09 4.91476e-09 0 -7.38408e-09 -1.0511e-09 0 -3.217e-09 -6.77157e-10 0 -6.02378e-09 4.79462e-10 0 -5.11584e-09 -7.72532e-10 0 -6.10226e-09 2.51113e-10 0 -6.04559e-09 -4.13517e-10 0 -6.45431e-09 5.78018e-11 0 -6.55473e-09 -1.90727e-10 0 -6.73707e-09 1.80226e-12 0 -6.80886e-09 -7.659e-11 0 -6.86274e-09 1.80613e-11 0 -6.86274e-09 -1.80613e-11 0 -6.80886e-09 7.659e-11 0 -6.73707e-09 -1.80226e-12 0 -6.55473e-09 1.90727e-10 0 -6.45431e-09 -5.78018e-11 0 -6.04559e-09 4.13517e-10 0 -6.10226e-09 -2.51113e-10 0 -5.11584e-09 7.72532e-10 0 -6.02378e-09 -4.79462e-10 0 -3.217e-09 6.77157e-10 0 -7.38408e-09 1.0511e-09 0 1.49775e-09 -4.91476e-09 0 -1.36634e-08 1.83373e-08 0 1.32408e-08 -6.41816e-08 0 -1.53561e-08 3.14902e-07 0 -4.38064e-07 -3.7367e-06 0 -3.9968e-07 3.05708e-06 0 -8.99786e-09 -2.56802e-07 0 1.68996e-08 5.24985e-08 0 -6.81222e-09 -1.47338e-08 0 7.28874e-09 4.26847e-09 0 -9.79257e-11 -5.86431e-10 0 4.21013e-09 -2.78104e-10 0 2.26845e-09 6.4935e-10 0 3.61123e-09 -3.92515e-10 0 3.20988e-09 4.11628e-10 0 3.67612e-09 -1.61723e-10 0 3.65833e-09 1.88651e-10 0 3.84444e-09 -4.65423e-11 0 3.887e-09 7.81068e-11 0 3.95861e-09 -1.67763e-11 0 3.97805e-09 2.9792e-11 0 3.97805e-09 -2.9792e-11 0 3.95861e-09 1.67763e-11 0 3.887e-09 -7.81068e-11 0 3.84444e-09 4.65423e-11 0 3.65833e-09 -1.88651e-10 0 3.67612e-09 1.61723e-10 0 3.20988e-09 -4.11628e-10 0 3.61123e-09 3.92515e-10 0 2.26845e-09 -6.4935e-10 0 4.21013e-09 2.78104e-10 0 -9.79257e-11 5.86431e-10 0 7.28874e-09 -4.26847e-09 0 -6.81222e-09 1.47338e-08 0 1.68996e-08 -5.24985e-08 0 -8.99786e-09 2.56802e-07 0 -3.9968e-07 -3.05708e-06 0 -3.61566e-07 2.41971e-06 0 -1.08974e-08 -2.036e-07 0 1.26234e-08 4.15518e-08 0 -9.28679e-09 -1.17729e-08 0 3.33069e-09 3.27467e-09 0 -3.73994e-09 -5.78723e-10 0 -1.13435e-10 -3.3535e-10 0 -2.20386e-09 4.06031e-10 0 -1.26656e-09 -4.11045e-10 0 -1.89969e-09 2.38959e-10 0 -1.70311e-09 -2.0234e-10 0 -1.91267e-09 8.95858e-11 0 -1.89601e-09 -8.30904e-11 0 -1.97182e-09 2.93698e-11 0 -1.98217e-09 -3.26925e-11 0 -2.00219e-09 1.72073e-11 0 -2.00219e-09 -1.72073e-11 0 -1.98217e-09 3.26925e-11 0 -1.97182e-09 -2.93698e-11 0 -1.89601e-09 8.30904e-11 0 -1.91267e-09 -8.95858e-11 0 -1.70311e-09 2.0234e-10 0 -1.89969e-09 -2.38959e-10 0 -1.26656e-09 4.11045e-10 0 -2.20386e-09 -4.06031e-10 0 -1.13435e-10 3.3535e-10 0 -3.73994e-09 5.78723e-10 0 3.33069e-09 -3.27467e-09 0 -9.28679e-09 1.17729e-08 0 1.26234e-08 -4.15518e-08 0 -1.08974e-08 2.036e-07 0 -3.61566e-07 -2.41971e-06 0 -3.40108e-07 1.84061e-06 0 -8.83132e-09 -1.54661e-07 0 1.31677e-08 3.15922e-08 0 -7.1399e-09 -8.90701e-09 0 4.74554e-09 2.53122e-09 0 -1.69254e-09 -3.94755e-10 0 1.83218e-09 -2.09039e-10 0 3.35912e-11 3.51497e-10 0 1.04391e-09 -2.72386e-10 0 5.81105e-10 2.16347e-10 0 8.74219e-10 -1.2397e-10 0 7.72277e-10 9.21009e-11 0 8.62106e-10 -4.45158e-11 0 8.47283e-10 3.54122e-11 0 8.74579e-10 -1.70048e-11 0 8.74381e-10 1.5651e-11 0 8.74381e-10 -1.5651e-11 0 8.74579e-10 1.70048e-11 0 8.47283e-10 -3.54122e-11 0 8.62106e-10 4.45158e-11 0 7.72277e-10 -9.21009e-11 0 8.74219e-10 1.2397e-10 0 5.81105e-10 -2.16347e-10 0 1.04391e-09 2.72386e-10 0 3.35912e-11 -3.51497e-10 0 1.83218e-09 2.09039e-10 0 -1.69254e-09 3.94755e-10 0 4.74554e-09 -2.53122e-09 0 -7.1399e-09 8.90701e-09 0 1.31677e-08 -3.15922e-08 0 -8.83132e-09 1.54661e-07 0 -3.40108e-07 -1.84061e-06 0 -3.216e-07 1.29106e-06 0 -8.96305e-09 -1.08562e-07 0 1.18998e-08 2.21643e-08 0 -7.44523e-09 -6.26482e-09 0 3.801e-09 1.76095e-09 0 -2.37763e-09 -2.93296e-10 0 9.1531e-10 -1.63153e-10 0 -8.5333e-10 2.31095e-10 0 5.21571e-11 -2.05636e-10 0 -4.39241e-10 1.39113e-10 0 -2.05781e-10 -9.79059e-11 0 -3.41392e-10 5.57753e-11 0 -2.87134e-10 -3.81129e-11 0 -3.24748e-10 1.9997e-11 0 -3.14454e-10 -1.48372e-11 0 -3.2248e-10 1.00246e-11 0 -3.2248e-10 -1.00246e-11 0 -3.14454e-10 1.48372e-11 0 -3.24748e-10 -1.9997e-11 0 -2.87134e-10 3.81129e-11 0 -3.41392e-10 -5.57753e-11 0 -2.05781e-10 9.79059e-11 0 -4.39241e-10 -1.39113e-10 0 5.21571e-11 2.05636e-10 0 -8.5333e-10 -2.31095e-10 0 9.1531e-10 1.63153e-10 0 -2.37763e-09 2.93296e-10 0 3.801e-09 -1.76095e-09 0 -7.44523e-09 6.26482e-09 0 1.18998e-08 -2.21643e-08 0 -8.96305e-09 1.08562e-07 0 -3.216e-07 -1.29106e-06 0 -3.11785e-07 7.6629e-07 0 -8.44471e-09 -6.43892e-08 0 1.17219e-08 1.31495e-08 0 -6.94575e-09 -3.71203e-09 0 3.92901e-09 1.04926e-09 0 -2.01898e-09 -1.69157e-10 0 1.17738e-09 -9.1797e-11 0 -5.12215e-10 1.41761e-10 0 3.78926e-10 -1.17535e-10 0 -7.89609e-11 8.64277e-11 0 1.61235e-10 -5.46649e-11 0 4.33738e-11 3.58637e-11 0 1.06417e-10 -2.04274e-11 0 7.82925e-11 1.34035e-11 0 9.37196e-11 -7.87227e-12 0 8.8739e-11 6.25138e-12 0 8.8739e-11 -6.25138e-12 0 9.37196e-11 7.87227e-12 0 7.82925e-11 -1.34035e-11 0 1.06417e-10 2.04274e-11 0 4.33738e-11 -3.58637e-11 0 1.61235e-10 5.46649e-11 0 -7.89609e-11 -8.64277e-11 0 3.78926e-10 1.17535e-10 0 -5.12215e-10 -1.41761e-10 0 1.17738e-09 9.1797e-11 0 -2.01898e-09 1.69157e-10 0 3.92901e-09 -1.04926e-09 0 -6.94575e-09 3.71203e-09 0 1.17219e-08 -1.31495e-08 0 -8.44471e-09 6.43892e-08 0 -3.11785e-07 -7.6629e-07 0 -3.06225e-07 2.53861e-07 0 -8.36499e-09 -2.13496e-08 0 1.14617e-08 4.35889e-09 0 -6.90231e-09 -1.23134e-09 0 3.7915e-09 3.46979e-10 0 -2.06236e-09 -5.69361e-11 0 1.07873e-09 -3.13395e-11 0 -5.86604e-10 4.6127e-11 0 2.86598e-10 -3.98278e-11 0 -1.67384e-10 2.78638e-11 0 6.54659e-11 -1.8837e-11 0 -5.36468e-11 1.129e-11 0 5.66999e-12 -7.25324e-12 0 -2.41196e-11 4.09765e-12 0 -1.03953e-11 -2.82029e-12 0 -1.60328e-11 2.00292e-12 0 -1.60328e-11 -2.00292e-12 0 -1.03953e-11 2.82029e-12 0 -2.41196e-11 -4.09765e-12 0 5.66999e-12 7.25324e-12 0 -5.36468e-11 -1.129e-11 0 6.54659e-11 1.8837e-11 0 -1.67384e-10 -2.78638e-11 0 2.86598e-10 3.98278e-11 0 -5.86604e-10 -4.6127e-11 0 1.07873e-09 3.13395e-11 0 -2.06236e-09 5.69361e-11 0 3.7915e-09 -3.46979e-10 0 -6.90231e-09 1.23134e-09 0 1.14617e-08 -4.35889e-09 0 -8.36499e-09 2.13496e-08 0 -3.06225e-07 -2.53861e-07 0 -3.06225e-07 -2.53861e-07 0 -8.36499e-09 2.13496e-08 0 1.14617e-08 -4.35889e-09 0 -6.90231e-09 1.23134e-09 0 3.7915e-09 -3.46979e-10 0 -2.06236e-09 5.69361e-11 0 1.07873e-09 3.13395e-11 0 -5.86604e-10 -4.6127e-11 0 2.86598e-10 3.98278e-11 0 -1.67384e-10 -2.78638e-11 0 6.54659e-11 1.8837e-11 0 -5.36468e-11 -1.129e-11 0 5.66999e-12 7.25324e-12 0 -2.41196e-11 -4.09765e-12 0 -1.03953e-11 2.82029e-12 0 -1.60328e-11 -2.00292e-12 0 -1.60328e-11 2.00292e-12 0 -1.03953e-11 -2.82029e-12 0 -2.41196e-11 4.09765e-12 0 5.66999e-12 -7.25324e-12 0 -5.36468e-11 1.129e-11 0 6.54659e-11 -1.8837e-11 0 -1.67384e-10 2.78638e-11 0 2.86598e-10 -3.98278e-11 0 -5.86604e-10 4.6127e-11 0 1.07873e-09 -3.13395e-11 0 -2.06236e-09 -5.69361e-11 0 3.7915e-09 3.46979e-10 0 -6.90231e-09 -1.23134e-09 0 1.14617e-08 4.35889e-09 0 -8.36499e-09 -2.13496e-08 0 -3.06225e-07 2.53861e-07 0 -3.11785e-07 -7.6629e-07 0 -8.44471e-09 6.43892e-08 0 1.17219e-08 -1.31495e-08 0 -6.94575e-09 3.71203e-09 0 3.92901e-09 -1.04926e-09 0 -2.01898e-09 1.69157e-10 0 1.17738e-09 9.1797e-11 0 -5.12215e-10 -1.41761e-10 0 3.78926e-10 1.17535e-10 0 -7.89609e-11 -8.64277e-11 0 1.61235e-10 5.46649e-11 0 4.33738e-11 -3.58637e-11 0 1.06417e-10 2.04274e-11 0 7.82925e-11 -1.34035e-11 0 9.37196e-11 7.87227e-12 0 8.8739e-11 -6.25138e-12 0 8.8739e-11 6.25138e-12 0 9.37196e-11 -7.87227e-12 0 7.82925e-11 1.34035e-11 0 1.06417e-10 -2.04274e-11 0 4.33738e-11 3.58637e-11 0 1.61235e-10 -5.46649e-11 0 -7.89609e-11 8.64277e-11 0 3.78926e-10 -1.17535e-10 0 -5.12215e-10 1.41761e-10 0 1.17738e-09 -9.1797e-11 0 -2.01898e-09 -1.69157e-10 0 3.92901e-09 1.04926e-09 0 -6.94575e-09 -3.71203e-09 0 1.17219e-08 1.31495e-08 0 -8.44471e-09 -6.43892e-08 0 -3.11785e-07 7.6629e-07 0 -3.216e-07 -1.29106e-06 0 -8.96305e-09 1.08562e-07 0 1.18998e-08 -2.21643e-08 0 -7.44523e-09 6.26482e-09 0 3.801e-09 -1.76095e-09 0 -2.37763e-09 2.93296e-10 0 9.1531e-10 1.63153e-10 0 -8.5333e-10 -2.31095e-10 0 5.21571e-11 2.05636e-10 0 -4.39241e-10 -1.39113e-10 0 -2.05781e-10 9.79059e-11 0 -3.41392e-10 -5.57753e-11 0 -2.87134e-10 3.81129e-11 0 -3.24748e-10 -1.9997e-11 0 -3.14454e-10 1.48372e-11 0 -3.2248e-10 -1.00246e-11 0 -3.2248e-10 1.00246e-11 0 -3.14454e-10 -1.48372e-11 0 -3.24748e-10 1.9997e-11 0 -2.87134e-10 -3.81129e-11 0 -3.41392e-10 5.57753e-11 0 -2.05781e-10 -9.79059e-11 0 -4.39241e-10 1.39113e-10 0 5.21571e-11 -2.05636e-10 0 -8.5333e-10 2.31095e-10 0 9.1531e-10 -1.63153e-10 0 -2.37763e-09 -2.93296e-10 0 3.801e-09 1.76095e-09 0 -7.44523e-09 -6.26482e-09 0 1.18998e-08 2.21643e-08 0 -8.96305e-09 -1.08562e-07 0 -3.216e-07 1.29106e-06 0 -3.40108e-07 -1.84061e-06 0 -8.83132e-09 1.54661e-07 0 1.31677e-08 -3.15922e-08 0 -7.1399e-09 8.90701e-09 0 4.74554e-09 -2.53122e-09 0 -1.69254e-09 3.94755e-10 0 1.83218e-09 2.09039e-10 0 3.35912e-11 -3.51497e-10 0 1.04391e-09 2.72386e-10 0 5.81105e-10 -2.16347e-10 0 8.74219e-10 1.2397e-10 0 7.72277e-10 -9.21009e-11 0 8.62106e-10 4.45158e-11 0 8.47283e-10 -3.54122e-11 0 8.74579e-10 1.70048e-11 0 8.74381e-10 -1.5651e-11 0 8.74381e-10 1.5651e-11 0 8.74579e-10 -1.70048e-11 0 8.47283e-10 3.54122e-11 0 8.62106e-10 -4.45158e-11 0 7.72277e-10 9.21009e-11 0 8.74219e-10 -1.2397e-10 0 5.81105e-10 2.16347e-10 0 1.04391e-09 -2.72386e-10 0 3.35912e-11 3.51497e-10 0 1.83218e-09 -2.09039e-10 0 -1.69254e-09 -3.94755e-10 0 4.74554e-09 2.53122e-09 0 -7.1399e-09 -8.90701e-09 0 1.31677e-08 3.15922e-08 0 -8.83132e-09 -1.54661e-07 0 -3.40108e-07 1.84061e-06 0 -3.61566e-07 -2.41971e-06 0 -1.08974e-08 2.036e-07 0 1.26234e-08 -4.15518e-08 0 -9.28679e-09 1.17729e-08 0 3.33069e-09 -3.27467e-09 0 -3.73994e-09 5.78723e-10 0 -1.13435e-10 3.3535e-10 0 -2.20386e-09 -4.06031e-10 0 -1.26656e-09 4.11045e-10 0 -1.89969e-09 -2.38959e-10 0 -1.70311e-09 2.0234e-10 0 -1.91267e-09 -8.95858e-11 0 -1.89601e-09 8.30904e-11 0 -1.97182e-09 -2.93698e-11 0 -1.98217e-09 3.26925e-11 0 -2.00219e-09 -1.72073e-11 0 -2.00219e-09 1.72073e-11 0 -1.98217e-09 -3.26925e-11 0 -1.97182e-09 2.93698e-11 0 -1.89601e-09 -8.30904e-11 0 -1.91267e-09 8.95858e-11 0 -1.70311e-09 -2.0234e-10 0 -1.89969e-09 2.38959e-10 0 -1.26656e-09 -4.11045e-10 0 -2.20386e-09 4.06031e-10 0 -1.13435e-10 -3.3535e-10 0 -3.73994e-09 -5.78723e-10 0 3.33069e-09 3.27467e-09 0 -9.28679e-09 -1.17729e-08 0 1.26234e-08 4.15518e-08 0 -1.08974e-08 -2.036e-07 0 -3.61566e-07 2.41971e-06 0 -3.9968e-07 -3.05708e-06 0 -8.99786e-09 2.56802e-07 0 1.68996e-08 -5.24985e-08 0 -6.81222e-09 1.47338e-08 0 7.28874e-09 -4.26847e-09 0 -9.79257e-11 5.86431e-10 0 4.21013e-09 2.78104e-10 0 2.26845e-09 -6.4935e-10 0 3.61123e-09 3.92515e-10 0 3.20988e-09 -4.11628e-10 0 3.67612e-09 1.61723e-10 0 3.65833e-09 -1.88651e-10 0 3.84444e-09 4.65423e-11 0 3.887e-09 -7.81068e-11 0 3.95861e-09 1.67763e-11 0 3.97805e-09 -2.9792e-11 0 3.97805e-09 2.9792e-11 0 3.95861e-09 -1.67763e-11 0 3.887e-09 7.81068e-11 0 3.84444e-09 -4.65423e-11 0 3.65833e-09 1.88651e-10 0 3.67612e-09 -1.61723e-10 0 3.20988e-09 4.11628e-10 0 3.61123e-09 -3.92515e-10 0 2.26845e-09 6.4935e-10 0 4.21013e-09 -2.78104e-10 0 -9.79257e-11 -5.86431e-10 0 7.28874e-09 4.26847e-09 0 -6.81222e-09 -1.47338e-08 0 1.68996e-08 5.24985e-08 0 -8.99786e-09 -2.56802e-07 0 -3.9968e-07 3.05708e-06 0 -4.38064e-07 -3.7367e-06 0 -1.53561e-08 3.14902e-07 0 1.32408e-08 -6.41816e-08 0 -1.36634e-08 1.83373e-08 0 1.49775e-09 -4.91476e-09 0 -7.38408e-09 1.0511e-09 0 -3.217e-09 6.77157e-10 0 -6.02378e-09 -4.79462e-10 0 -5.11584e-09 7.72532e-10 0 -6.10226e-09 -2.51113e-10 0 -6.04559e-09 4.13517e-10 0 -6.45431e-09 -5.78018e-11 0 -6.55473e-09 1.90727e-10 0 -6.73707e-09 -1.80226e-12 0 -6.80886e-09 7.659e-11 0 -6.86274e-09 -1.80613e-11 0 -6.86274e-09 1.80613e-11 0 -6.80886e-09 -7.659e-11 0 -6.73707e-09 1.80226e-12 0 -6.55473e-09 -1.90727e-10 0 -6.45431e-09 5.78018e-11 0 -6.04559e-09 -4.13517e-10 0 -6.10226e-09 2.51113e-10 0 -5.11584e-09 -7.72532e-10 0 -6.02378e-09 4.79462e-10 0 -3.217e-09 -6.77157e-10 0 -7.38408e-09 -1.0511e-09 0 1.49775e-09 4.91476e-09 0 -1.36634e-08 -1.83373e-08 0 1.32408e-08 6.41816e-08 0 -1.53561e-08 -3.14902e-07 0 -4.38064e-07 3.7367e-06 0 -5.11145e-07 -4.55645e-06 0 -9.44111e-09 3.82349e-07 0 2.37682e-08 -7.83647e-08 0 -6.34249e-09 2.16563e-08 0 1.19008e-08 -6.68313e-09 0 2.71733e-09 5.2814e-10 0 8.47879e-09 6.82242e-11 0 6.25183e-09 -1.29463e-09 0 8.20341e-09 2.85815e-10 0 7.90355e-09 -8.7343e-10 0 8.68302e-09 2.13135e-11 0 8.81337e-09 -4.57962e-10 0 9.17253e-09 -6.64117e-11 0 9.31708e-09 -2.11788e-10 0 9.46812e-09 -3.1739e-11 0 9.52256e-09 -6.31349e-11 0 9.52256e-09 6.31349e-11 0 9.46812e-09 3.1739e-11 0 9.31708e-09 2.11788e-10 0 9.17253e-09 6.64117e-11 0 8.81337e-09 4.57962e-10 0 8.68302e-09 -2.13135e-11 0 7.90355e-09 8.7343e-10 0 8.20341e-09 -2.85815e-10 0 6.25183e-09 1.29463e-09 0 8.47879e-09 -6.82242e-11 0 2.71733e-09 -5.2814e-10 0 1.19008e-08 6.68313e-09 0 -6.34249e-09 -2.16563e-08 0 2.37682e-08 7.83647e-08 0 -9.44111e-09 -3.82349e-07 0 -5.11145e-07 4.55645e-06 0 -5.84418e-07 -5.39166e-06 0 -1.97932e-08 4.55962e-07 0 1.88193e-08 -9.25323e-08 0 -1.73619e-08 2.71571e-08 0 3.23229e-09 -6.41398e-09 0 -8.60189e-09 2.25662e-09 0 -2.81864e-09 1.72317e-09 0 -6.45676e-09 3.70012e-12 0 -5.09116e-09 1.75838e-09 0 -6.30265e-09 1.91003e-10 0 -6.12432e-09 1.06779e-09 0 -6.59473e-09 2.93027e-10 0 -6.66695e-09 5.65649e-10 0 -6.8673e-09 2.00433e-10 0 -6.93427e-09 2.31817e-10 0 -6.99231e-09 1.36609e-11 0 -6.99231e-09 -1.36609e-11 0 -6.93427e-09 -2.31817e-10 0 -6.8673e-09 -2.00433e-10 0 -6.66695e-09 -5.65649e-10 0 -6.59473e-09 -2.93027e-10 0 -6.12432e-09 -1.06779e-09 0 -6.30265e-09 -1.91003e-10 0 -5.09116e-09 -1.75838e-09 0 -6.45676e-09 -3.70012e-12 0 -2.81864e-09 -1.72317e-09 0 -8.60189e-09 -2.25662e-09 0 3.23229e-09 6.41398e-09 0 -1.73619e-08 -2.71571e-08 0 1.88193e-08 9.25323e-08 0 -1.97932e-08 -4.55962e-07 0 -5.84418e-07 5.39166e-06 0 -7.23742e-07 -6.62834e-06 0 -2.68477e-08 5.54647e-07 0 1.94395e-08 -1.14534e-07 0 -2.42471e-08 3.01673e-08 0 -2.28667e-10 -1.11412e-08 0 -1.49919e-08 -7.57638e-10 0 -8.75063e-09 -1.42978e-09 0 -1.37192e-08 -3.32381e-09 0 -1.26577e-08 -9.02364e-10 0 -1.45844e-08 -2.41326e-09 0 -1.47668e-08 -9.34124e-10 0 -1.56381e-08 -1.44141e-09 0 -1.59593e-08 -6.91641e-10 0 -1.6366e-08 -7.25579e-10 0 -1.65537e-08 -2.94532e-10 0 -1.66755e-08 -1.73748e-10 0 -1.66755e-08 1.73748e-10 0 -1.65537e-08 2.94532e-10 0 -1.6366e-08 7.25579e-10 0 -1.59593e-08 6.91641e-10 0 -1.56381e-08 1.44141e-09 0 -1.47668e-08 9.34124e-10 0 -1.45844e-08 2.41326e-09 0 -1.26577e-08 9.02364e-10 0 -1.37192e-08 3.32381e-09 0 -8.75063e-09 1.42978e-09 0 -1.49919e-08 7.57638e-10 0 -2.28667e-10 1.11412e-08 0 -2.42471e-08 -3.01673e-08 0 1.94395e-08 1.14534e-07 0 -2.68477e-08 -5.54647e-07 0 -7.23742e-07 6.62834e-06 0 -9.14722e-07 -7.66212e-06 0 2.08838e-08 6.52944e-07 0 8.54696e-08 -1.30841e-07 0 3.20158e-08 4.14453e-08 0 7.17739e-08 -6.23696e-09 0 5.97274e-08 6.3267e-09 0 7.63432e-08 5.58838e-09 0 7.75516e-08 2.94128e-09 0 8.63137e-08 5.20263e-09 0 9.01939e-08 2.60049e-09 0 9.54669e-08 3.49287e-09 0 9.88135e-08 1.99642e-09 0 1.01924e-07 2.01989e-09 0 1.03981e-07 1.13555e-09 0 1.05438e-07 8.36781e-10 0 1.06119e-07 1.85915e-10 0 1.06119e-07 -1.85915e-10 0 1.05438e-07 -8.36781e-10 0 1.03981e-07 -1.13555e-09 0 1.01924e-07 -2.01989e-09 0 9.88135e-08 -1.99642e-09 0 9.54669e-08 -3.49287e-09 0 9.01939e-08 -2.60049e-09 0 8.63137e-08 -5.20263e-09 0 7.75516e-08 -2.94128e-09 0 7.63432e-08 -5.58838e-09 0 5.97274e-08 -6.3267e-09 0 7.17739e-08 6.23696e-09 0 3.20158e-08 -4.14453e-08 0 8.54696e-08 1.30841e-07 0 2.08838e-08 -6.52944e-07 0 -9.14722e-07 7.66212e-06 0 -1.18817e-06 -1.00473e-05 0 -2.02232e-07 8.36092e-07 0 -1.35761e-07 -1.7594e-07 0 -2.19496e-07 4.05725e-08 0 -2.01303e-07 -2.24462e-08 0 -2.45912e-07 -7.10624e-09 0 -2.58018e-07 -8.13653e-09 0 -2.87258e-07 -1.06625e-08 0 -3.05363e-07 -6.50506e-09 0 -3.26033e-07 -8.10979e-09 0 -3.41363e-07 -5.16987e-09 0 -3.55138e-07 -5.19861e-09 0 -3.65386e-07 -3.35912e-09 0 -3.73216e-07 -2.7206e-09 0 -3.78235e-07 -1.41004e-09 0 -3.80768e-07 -5.81204e-10 0 -3.80768e-07 5.81204e-10 0 -3.78235e-07 1.41004e-09 0 -3.73216e-07 2.7206e-09 0 -3.65386e-07 3.35912e-09 0 -3.55138e-07 5.19861e-09 0 -3.41363e-07 5.16987e-09 0 -3.26033e-07 8.10979e-09 0 -3.05363e-07 6.50506e-09 0 -2.87258e-07 1.06625e-08 0 -2.58018e-07 8.13653e-09 0 -2.45912e-07 7.10624e-09 0 -2.01303e-07 2.24462e-08 0 -2.19496e-07 -4.05725e-08 0 -1.35761e-07 1.7594e-07 0 -2.02232e-07 -8.36092e-07 0 -1.18817e-06 1.00473e-05 0 -1.98262e-06 -1.13383e-05 0 4.75903e-07 9.80147e-07 0 6.44515e-07 -1.90409e-07 0 5.59457e-07 7.15086e-08 0 7.04739e-07 1.3136e-09 0 7.33506e-07 2.07336e-08 0 8.30867e-07 1.97008e-08 0 8.90773e-07 1.50619e-08 0 9.64024e-07 1.75293e-08 0 1.02013e-06 1.23255e-08 0 1.07261e-06 1.23407e-08 0 1.11354e-06 8.69333e-09 0 1.14682e-06 7.39868e-09 0 1.17083e-06 4.76637e-09 0 1.18685e-06 3.07654e-09 0 1.1947e-06 8.79187e-10 0 1.1947e-06 -8.79187e-10 0 1.18685e-06 -3.07654e-09 0 1.17083e-06 -4.76637e-09 0 1.14682e-06 -7.39868e-09 0 1.11354e-06 -8.69333e-09 0 1.07261e-06 -1.23407e-08 0 1.02013e-06 -1.23255e-08 0 9.64024e-07 -1.75293e-08 0 8.90773e-07 -1.50619e-08 0 8.30867e-07 -1.97008e-08 0 7.33506e-07 -2.07336e-08 0 7.04739e-07 -1.3136e-09 0 5.59457e-07 -7.15086e-08 0 6.44515e-07 1.90409e-07 0 4.75903e-07 -9.80147e-07 0 -1.98262e-06 1.13383e-05 0 -2.37968e-06 -1.74251e-05 0 -1.93818e-06 1.44704e-06 0 -1.88164e-06 -3.12922e-07 0 -2.17601e-06 5.79148e-08 0 -2.3377e-06 -5.30294e-08 0 -2.62721e-06 -2.73182e-08 0 -2.8648e-06 -2.90872e-08 0 -3.12778e-06 -3.26735e-08 0 -3.35473e-06 -2.41567e-08 0 -3.56525e-06 -2.52645e-08 0 -3.74067e-06 -1.83681e-08 0 -3.88737e-06 -1.65814e-08 0 -4.00154e-06 -1.16095e-08 0 -4.08631e-06 -8.78179e-09 0 -4.14175e-06 -4.85566e-09 0 -4.16933e-06 -1.80577e-09 0 -4.16933e-06 1.80577e-09 0 -4.14175e-06 4.85566e-09 0 -4.08631e-06 8.78179e-09 0 -4.00154e-06 1.16095e-08 0 -3.88737e-06 1.65814e-08 0 -3.74067e-06 1.83681e-08 0 -3.56525e-06 2.52645e-08 0 -3.35473e-06 2.41567e-08 0 -3.12778e-06 3.26735e-08 0 -2.8648e-06 2.90872e-08 0 -2.62721e-06 2.73182e-08 0 -2.3377e-06 5.30294e-08 0 -2.17601e-06 -5.79148e-08 0 -1.88164e-06 3.12922e-07 0 -1.93818e-06 -1.44704e-06 0 -2.37968e-06 1.74251e-05 0 -1.37766e-05 -2.57908e-05 0 1.0143e-05 2.2533e-06 0 1.17865e-05 -4.60623e-07 0 1.16453e-05 1.28244e-07 0 1.36269e-05 -3.78944e-08 0 1.46925e-05 4.14749e-09 0 1.6359e-05 1.80397e-09 0 1.76892e-05 -6.47283e-09 0 1.90682e-05 3.01221e-09 0 2.02198e-05 -4.01598e-09 0 2.12403e-05 1.24123e-09 0 2.20616e-05 -1.79774e-09 0 2.27159e-05 3.68656e-10 0 2.3194e-05 -7.16398e-10 0 2.35101e-05 1.49017e-10 0 2.36659e-05 -2.67413e-10 0 2.36659e-05 2.67413e-10 0 2.35101e-05 -1.49017e-10 0 2.3194e-05 7.16398e-10 0 2.27159e-05 -3.68656e-10 0 2.20616e-05 1.79774e-09 0 2.12403e-05 -1.24123e-09 0 2.02198e-05 4.01598e-09 0 1.90682e-05 -3.01221e-09 0 1.76892e-05 6.47283e-09 0 1.6359e-05 -1.80397e-09 0 1.46925e-05 -4.14749e-09 0 1.36269e-05 3.78944e-08 0 1.16453e-05 -1.28244e-07 0 1.17865e-05 4.60623e-07 0 1.0143e-05 -2.2533e-06 0 -1.37766e-05 2.57908e-05 0 -7.18272e-05 -1.36715e-05 0 -0.000162946 -1.49138e-07 0 -0.00017707 1.02132e-06 0 -0.000186604 1.49437e-06 0 -0.00021143 1.71258e-06 0 -0.000232037 1.82136e-06 0 -0.000256696 1.8145e-06 0 -0.000278868 1.71872e-06 0 -0.000300292 1.55238e-06 0 -0.000318822 1.3481e-06 0 -0.000334856 1.12637e-06 0 -0.000347902 9.04672e-07 0 -0.000358196 6.89353e-07 0 -0.000365747 4.83796e-07 0 -0.000370717 2.86412e-07 0 -0.000373173 9.48635e-08 0 -0.000373173 -9.48635e-08 0 -0.000370717 -2.86412e-07 0 -0.000365747 -4.83796e-07 0 -0.000358196 -6.89353e-07 0 -0.000347902 -9.04672e-07 0 -0.000334856 -1.12637e-06 0 -0.000318822 -1.3481e-06 0 -0.000300292 -1.55238e-06 0 -0.000278868 -1.71872e-06 0 -0.000256696 -1.8145e-06 0 -0.000232037 -1.82136e-06 0 -0.00021143 -1.71258e-06 0 -0.000186604 -1.49437e-06 0 -0.00017707 -1.02132e-06 0 -0.000162946 1.49138e-07 0 -7.18272e-05 1.36715e-05 0 </DataArray> 
</PointData> 
<Points> 
<DataArray type="Float32" NumberOfComponents="3"> 