<?xml version="1.0"?> 
<VTKFile type="StructuredGrid" version="0.1"> 
<StructuredGrid WholeExtent="0 31 0 31 0 0"> 
<Piece Extent="0 31 0 31 0 0"> 
<PointData>
<DataArray type="Float32" Name="B" format="ascii" NumberOfComponents="3"> 
-3.6755e-06 -0 0 -3.45113e-06 -0 0 -3.23117e-06 -0 0 -3.01707e-06 -0 0 -2.81001e-06 -0 0 -2.61092e-06 -0 0 -2.42048e-06 -0 0 -2.23915e-06 -0 0 -2.06718e-06 -0 0 -1.90468e-06 -0 0 -1.75158e-06 -0 0 -1.60769e-06 -0 0 -1.47275e-06 -0 0 -1.34638e-06 -0 0 -1.22818e-06 -0 0 -1.11768e-06 -0 0 -1.01441e-06 -0 0 -9.17866e-07 -0 0 -8.27532e-07 -0 0 -7.42903e-07 -0 0 -6.63473e-07 -0 0 -5.88749e-07 -0 0 -5.18246e-07 -0 0 -4.51492e-07 -0 0 -3.8803e-07 -0 0 -3.27415e-07 -0 0 -2.69214e-07 -0 0 -2.13007e-07 -0 0 -1.58382e-07 -0 0 -1.04936e-07 -0 0 -5.22729e-08 -0 0 0 -0 0 -3.67413e-06 -2.26342e-07 0 -3.4489e-06 -2.22692e-07 0 -3.22822e-06 -2.17466e-07 0 -3.01353e-06 -2.10928e-07 0 -2.80601e-06 -2.0334e-07 0 -2.60658e-06 -1.94954e-07 0 -2.41591e-06 -1.86004e-07 0 -2.23445e-06 -1.76702e-07 0 -2.06244e-06 -1.67234e-07 0 -1.89997e-06 -1.5776e-07 0 -1.74696e-06 -1.48415e-07 0 -1.60322e-06 -1.39308e-07 0 -1.46845e-06 -1.30526e-07 0 -1.34229e-06 -1.22137e-07 0 -1.22432e-06 -1.14189e-07 0 -1.11407e-06 -1.06716e-07 0 -1.01105e-06 -9.97396e-08 0 -9.1476e-07 -9.32707e-08 0 -8.2468e-07 -8.73127e-08 0 -7.40303e-07 -8.18627e-08 0 -6.61122e-07 -7.69134e-08 0 -5.86639e-07 -7.24544e-08 0 -5.16372e-07 -6.84735e-08 0 -4.49847e-07 -6.49572e-08 0 -3.86608e-07 -6.18923e-08 0 -3.26209e-07 -5.92657e-08 0 -2.68218e-07 -5.70654e-08 0 -2.12216e-07 -5.52806e-08 0 -1.57793e-07 -5.39023e-08 0 -1.04545e-07 -5.29231e-08 0 -5.20779e-08 -5.23377e-08 0 0 -5.2143e-08 0 -3.66988e-06 -4.54523e-07 0 -3.44208e-06 -4.46963e-07 0 -3.21923e-06 -4.36244e-07 0 -3.00277e-06 -4.22903e-07 0 -2.79388e-06 -4.07475e-07 0 -2.59344e-06 -3.90468e-07 0 -2.4021e-06 -3.72357e-07 0 -2.22026e-06 -3.53566e-07 0 -2.04814e-06 -3.34469e-07 0 -1.88578e-06 -3.15387e-07 0 -1.73306e-06 -2.96587e-07 0 -1.58975e-06 -2.78287e-07 0 -1.45554e-06 -2.60658e-07 0 -1.33001e-06 -2.43831e-07 0 -1.21274e-06 -2.27901e-07 0 -1.10322e-06 -2.12934e-07 0 -1.00096e-06 -1.9897e-07 0 -9.0544e-07 -1.86029e-07 0 -8.16128e-07 -1.74117e-07 0 -7.32509e-07 -1.63224e-07 0 -6.54073e-07 -1.53336e-07 0 -5.80318e-07 -1.44431e-07 0 -5.10757e-07 -1.36482e-07 0 -4.4492e-07 -1.29463e-07 0 -3.82347e-07 -1.23346e-07 0 -3.22596e-07 -1.18105e-07 0 -2.65236e-07 -1.13716e-07 0 -2.09849e-07 -1.10155e-07 0 -1.56028e-07 -1.07406e-07 0 -1.03374e-07 -1.05453e-07 0 -5.14942e-08 -1.04285e-07 0 0 -1.03897e-07 0 -3.66237e-06 -6.86403e-07 0 -3.43027e-06 -6.74399e-07 0 -3.2038e-06 -6.57643e-07 0 -2.98441e-06 -6.36962e-07 0 -2.77325e-06 -6.13181e-07 0 -2.57116e-06 -5.87081e-07 0 -2.37874e-06 -5.59381e-07 0 -2.19633e-06 -5.30726e-07 0 -2.02407e-06 -5.01681e-07 0 -1.86193e-06 -4.72724e-07 0 -1.70973e-06 -4.44252e-07 0 -1.56719e-06 -4.16588e-07 0 -1.43392e-06 -3.89981e-07 0 -1.30948e-06 -3.64622e-07 0 -1.19339e-06 -3.40647e-07 0 -1.08512e-06 -3.18146e-07 0 -9.8414e-07 -2.97175e-07 0 -8.89908e-07 -2.77758e-07 0 -8.01883e-07 -2.59898e-07 0 -7.19536e-07 -2.4358e-07 0 -6.42344e-07 -2.28776e-07 0 -5.69803e-07 -2.1545e-07 0 -5.01423e-07 -2.03561e-07 0 -4.36729e-07 -1.93067e-07 0 -3.75267e-07 -1.83925e-07 0 -3.16593e-07 -1.76094e-07 0 -2.60281e-07 -1.69537e-07 0 -2.05918e-07 -1.64219e-07 0 -1.53099e-07 -1.60114e-07 0 -1.0143e-07 -1.57197e-07 0 -5.05249e-08 -1.55454e-07 0 0 -1.54874e-07 0 -3.65094e-06 -9.23875e-07 0 -3.41278e-06 -9.066e-07 0 -3.18124e-06 -8.82962e-07 0 -2.95778e-06 -8.54114e-07 0 -2.7435e-06 -8.21196e-07 0 -2.53919e-06 -7.8528e-07 0 -2.34534e-06 -7.47345e-07 0 -2.16221e-06 -7.08264e-07 0 -1.98985e-06 -6.68791e-07 0 -1.82811e-06 -6.29561e-07 0 -1.67674e-06 -5.91099e-07 0 -1.53534e-06 -5.5382e-07 0 -1.40346e-06 -5.18048e-07 0 -1.2806e-06 -4.84022e-07 0 -1.16621e-06 -4.51911e-07 0 -1.05973e-06 -4.21823e-07 0 -9.60568e-07 -3.93821e-07 0 -8.68168e-07 -3.67928e-07 0 -7.81965e-07 -3.44137e-07 0 -7.01408e-07 -3.22421e-07 0 -6.25968e-07 -3.02737e-07 0 -5.55131e-07 -2.85031e-07 0 -4.88403e-07 -2.69246e-07 0 -4.25312e-07 -2.5532e-07 0 -3.654e-07 -2.43194e-07 0 -3.0823e-07 -2.3281e-07 0 -2.53381e-07 -2.24119e-07 0 -2.00443e-07 -2.17072e-07 0 -1.49019e-07 -2.11633e-07 0 -9.87236e-08 -2.0777e-07 0 -4.91755e-08 -2.05461e-07 0 0 -2.04693e-07 0 -3.63463e-06 -1.16889e-06 0 -3.3886e-06 -1.14518e-06 0 -3.15055e-06 -1.11349e-06 0 -2.92191e-06 -1.07533e-06 0 -2.70373e-06 -1.03219e-06 0 -2.4967e-06 -9.85479e-07 0 -2.30118e-06 -9.36437e-07 0 -2.11731e-06 -8.86175e-07 0 -1.94498e-06 -8.35638e-07 0 -1.78393e-06 -7.85615e-07 0 -1.63375e-06 -7.36745e-07 0 -1.49395e-06 -6.89532e-07 0 -1.36399e-06 -6.44357e-07 0 -1.24325e-06 -6.01498e-07 0 -1.13114e-06 -5.61143e-07 0 -1.027e-06 -5.23409e-07 0 -9.3024e-07 -4.88354e-07 0 -8.40236e-07 -4.55991e-07 0 -7.56401e-07 -4.26298e-07 0 -6.78168e-07 -3.99228e-07 0 -6.04992e-07 -3.74718e-07 0 -5.36352e-07 -3.52692e-07 0 -4.71752e-07 -3.33071e-07 0 -4.10716e-07 -3.15773e-07 0 -3.52794e-07 -3.0072e-07 0 -2.9755e-07 -2.87837e-07 0 -2.44571e-07 -2.77056e-07 0 -1.93455e-07 -2.6832e-07 0 -1.43814e-07 -2.61578e-07 0 -9.52702e-08 -2.5679e-07 0 -4.74539e-08 -2.53929e-07 0 0 -2.52978e-07 0 -3.61211e-06 -1.42345e-06 0 -3.35637e-06 -1.39177e-06 0 -3.11038e-06 -1.35046e-06 0 -2.87553e-06 -1.3015e-06 0 -2.65277e-06 -1.24675e-06 0 -2.44264e-06 -1.18798e-06 0 -2.24535e-06 -1.12672e-06 0 -2.06084e-06 -1.06433e-06 0 -1.88882e-06 -1.00195e-06 0 -1.72884e-06 -9.40492e-07 0 -1.58036e-06 -8.80715e-07 0 -1.44273e-06 -8.23189e-07 0 -1.31528e-06 -7.68336e-07 0 -1.19729e-06 -7.16457e-07 0 -1.08807e-06 -6.67744e-07 0 -9.86915e-07 -6.22307e-07 0 -8.93155e-07 -5.80189e-07 0 -8.06137e-07 -5.41379e-07 0 -7.2524e-07 -5.05832e-07 0 -6.49875e-07 -4.73474e-07 0 -5.79484e-07 -4.44213e-07 0 -5.13538e-07 -4.17948e-07 0 -4.51538e-07 -3.94573e-07 0 -3.93012e-07 -3.73983e-07 0 -3.37511e-07 -3.56077e-07 0 -2.84609e-07 -3.40761e-07 0 -2.339e-07 -3.27952e-07 0 -1.84993e-07 -3.17575e-07 0 -1.37512e-07 -3.09569e-07 0 -9.10904e-08 -3.03886e-07 0 -4.53704e-08 -3.0049e-07 0 0 -2.9936e-07 0 -3.58163e-06 -1.68966e-06 0 -3.3143e-06 -1.64799e-06 0 -3.05899e-06 -1.59509e-06 0 -2.817e-06 -1.53341e-06 0 -2.58912e-06 -1.46532e-06 0 -2.3757e-06 -1.39293e-06 0 -2.17671e-06 -1.31811e-06 0 -1.99185e-06 -1.24246e-06 0 -1.82058e-06 -1.16729e-06 0 -1.66226e-06 -1.09366e-06 0 -1.51611e-06 -1.02241e-06 0 -1.38133e-06 -9.54149e-07 0 -1.25709e-06 -8.89325e-07 0 -1.14256e-06 -8.28235e-07 0 -1.03694e-06 -7.71058e-07 0 -9.39439e-07 -7.17879e-07 0 -8.49332e-07 -6.68708e-07 0 -7.65921e-07 -6.23501e-07 0 -6.88552e-07 -5.82176e-07 0 -6.16614e-07 -5.44622e-07 0 -5.49536e-07 -5.10712e-07 0 -4.86783e-07 -4.80314e-07 0 -4.27855e-07 -4.53291e-07 0 -3.72285e-07 -4.29509e-07 0 -3.19631e-07 -4.08845e-07 0 -2.69478e-07 -3.91181e-07 0 -2.21429e-07 -3.76417e-07 0 -1.75109e-07 -3.64461e-07 0 -1.30152e-07 -3.5524e-07 0 -8.62096e-08 -3.48696e-07 0 -4.29378e-08 -3.44786e-07 0 0 -3.43486e-07 0 -3.54094e-06 -1.96969e-06 0 -3.26013e-06 -1.91547e-06 0 -2.99418e-06 -1.84846e-06 0 -2.74427e-06 -1.77172e-06 0 -2.51095e-06 -1.68813e-06 0 -2.29428e-06 -1.60026e-06 0 -2.09391e-06 -1.51028e-06 0 -1.90922e-06 -1.42005e-06 0 -1.7394e-06 -1.33105e-06 0 -1.58349e-06 -1.24443e-06 0 -1.44049e-06 -1.16108e-06 0 -1.3094e-06 -1.08165e-06 0 -1.1892e-06 -1.00656e-06 0 -1.07894e-06 -9.36084e-07 0 -9.77683e-07 -8.70363e-07 0 -8.84578e-07 -8.09433e-07 0 -7.98821e-07 -7.53256e-07 0 -7.1967e-07 -7.01737e-07 0 -6.4644e-07 -6.54745e-07 0 -5.785e-07 -6.12122e-07 0 -5.15268e-07 -5.73701e-07 0 -4.56206e-07 -5.39306e-07 0 -4.0082e-07 -5.08768e-07 0 -3.48646e-07 -4.81921e-07 0 -2.99255e-07 -4.58614e-07 0 -2.52245e-07 -4.38706e-07 0 -2.07234e-07 -4.22075e-07 0 -1.63861e-07 -4.08614e-07 0 -1.2178e-07 -3.98237e-07 0 -8.06589e-08 -3.90874e-07 0 -4.01716e-08 -3.86476e-07 0 0 -3.85014e-07 0 -3.48715e-06 -2.26578e-06 0 -3.19098e-06 -2.19575e-06 0 -2.91323e-06 -2.1115e-06 0 -2.65487e-06 -2.01682e-06 0 -2.41607e-06 -1.91518e-06 0 -2.19651e-06 -1.80962e-06 0 -1.9954e-06 -1.70266e-06 0 -1.81172e-06 -1.59637e-06 0 -1.64428e-06 -1.49237e-06 0 -1.49179e-06 -1.39188e-06 0 -1.35298e-06 -1.29581e-06 0 -1.22658e-06 -1.20478e-06 0 -1.1114e-06 -1.11916e-06 0 -1.00631e-06 -1.03916e-06 0 -9.1029e-07 -9.64863e-07 0 -8.22379e-07 -8.96226e-07 0 -7.41714e-07 -8.3314e-07 0 -6.67508e-07 -7.75444e-07 0 -5.99047e-07 -7.22942e-07 0 -5.35685e-07 -6.75422e-07 0 -4.76835e-07 -6.32662e-07 0 -4.21962e-07 -5.94444e-07 0 -3.70576e-07 -5.60555e-07 0 -3.22228e-07 -5.30796e-07 0 -2.76503e-07 -5.04985e-07 0 -2.33015e-07 -4.82956e-07 0 -1.91402e-07 -4.64565e-07 0 -1.51323e-07 -4.49688e-07 0 -1.12451e-07 -4.38223e-07 0 -7.44748e-08 -4.30091e-07 0 -3.70902e-08 -4.25234e-07 0 0 -4.23619e-07 0 -3.41657e-06 -2.58021e-06 0 -3.10323e-06 -2.49027e-06 0 -2.8128e-06 -2.38491e-06 0 -2.54579e-06 -2.26879e-06 0 -2.3019e-06 -2.14609e-06 0 -2.08022e-06 -2.0203e-06 0 -1.87944e-06 -1.8943e-06 0 -1.69798e-06 -1.77033e-06 0 -1.5342e-06 -1.65011e-06 0 -1.38643e-06 -1.53488e-06 0 -1.25306e-06 -1.42548e-06 0 -1.13255e-06 -1.32245e-06 0 -1.0235e-06 -1.2261e-06 0 -9.24638e-07 -1.13653e-06 0 -8.34799e-07 -1.05369e-06 0 -7.52948e-07 -9.77459e-07 0 -6.7816e-07 -9.07628e-07 0 -6.09611e-07 -8.43952e-07 0 -5.46565e-07 -7.86157e-07 0 -4.88368e-07 -7.33961e-07 0 -4.34434e-07 -6.87084e-07 0 -3.84237e-07 -6.45254e-07 0 -3.373e-07 -6.08214e-07 0 -2.93192e-07 -5.75727e-07 0 -2.51519e-07 -5.47578e-07 0 -2.11914e-07 -5.23573e-07 0 -1.7404e-07 -5.03546e-07 0 -1.37579e-07 -4.87354e-07 0 -1.02228e-07 -4.7488e-07 0 -6.77001e-08 -4.66036e-07 0 -3.3715e-08 -4.60755e-07 0 0 -4.58999e-07 0 -3.32448e-06 -2.91523e-06 0 -2.99242e-06 -2.80019e-06 0 -2.68878e-06 -2.66898e-06 0 -2.41348e-06 -2.52726e-06 0 -2.16546e-06 -2.37996e-06 0 -1.94302e-06 -2.2311e-06 0 -1.74412e-06 -2.08381e-06 0 -1.56656e-06 -1.94047e-06 0 -1.40813e-06 -1.80281e-06 0 -1.2667e-06 -1.67198e-06 0 -1.14028e-06 -1.54872e-06 0 -1.02708e-06 -1.43343e-06 0 -9.25448e-07 -1.32625e-06 0 -8.3396e-07 -1.22713e-06 0 -7.51339e-07 -1.1359e-06 0 -6.76472e-07 -1.05228e-06 0 -6.08383e-07 -9.7596e-07 0 -5.46223e-07 -9.06577e-07 0 -4.89245e-07 -8.43772e-07 0 -4.36798e-07 -7.87183e-07 0 -3.88305e-07 -7.36461e-07 0 -3.43258e-07 -6.91276e-07 0 -3.01201e-07 -6.51324e-07 0 -2.61728e-07 -6.16325e-07 0 -2.24469e-07 -5.8603e-07 0 -1.89086e-07 -5.60216e-07 0 -1.55269e-07 -5.38695e-07 0 -1.22726e-07 -5.21304e-07 0 -9.11846e-08 -5.07913e-07 0 -6.03832e-08 -4.98421e-07 0 -3.00703e-08 -4.92754e-07 0 0 -4.9087e-07 0 -3.20488e-06 -3.2729e-06 0 -2.85294e-06 -3.12626e-06 0 -2.53628e-06 -2.96339e-06 0 -2.2538e-06 -2.79115e-06 0 -2.00336e-06 -2.61526e-06 0 -1.78224e-06 -2.44019e-06 0 -1.58746e-06 -2.26926e-06 0 -1.41603e-06 -2.10486e-06 0 -1.26508e-06 -1.94859e-06 0 -1.13198e-06 -1.80145e-06 0 -1.01434e-06 -1.66395e-06 0 -9.10053e-07 -1.53627e-06 0 -8.17285e-07 -1.41832e-06 0 -7.34441e-07 -1.30984e-06 0 -6.6015e-07 -1.21048e-06 0 -5.93237e-07 -1.11981e-06 0 -5.32697e-07 -1.03735e-06 0 -4.77667e-07 -9.62626e-07 0 -4.27409e-07 -8.95174e-07 0 -3.81284e-07 -8.34541e-07 0 -3.38741e-07 -7.80304e-07 0 -2.99295e-07 -7.32072e-07 0 -2.62526e-07 -6.89486e-07 0 -2.28055e-07 -6.52225e-07 0 -1.95547e-07 -6.20004e-07 0 -1.64696e-07 -5.92573e-07 0 -1.35225e-07 -5.69718e-07 0 -1.06874e-07 -5.5126e-07 0 -7.94024e-08 -5.37053e-07 0 -5.2579e-08 -5.26985e-07 0 -2.61833e-08 -5.20976e-07 0 0 -5.18978e-07 0 -3.05009e-06 -3.6549e-06 0 -2.67792e-06 -3.46847e-06 0 -2.34943e-06 -3.26694e-06 0 -2.06198e-06 -3.05848e-06 0 -1.81191e-06 -2.84957e-06 0 -1.59512e-06 -2.64497e-06 0 -1.40748e-06 -2.44805e-06 0 -1.24505e-06 -2.26101e-06 0 -1.10424e-06 -2.08518e-06 0 -9.81842e-07 -1.92123e-06 0 -8.7508e-07 -1.76933e-06 0 -7.81556e-07 -1.62935e-06 0 -6.99236e-07 -1.50088e-06 0 -6.26401e-07 -1.38343e-06 0 -5.6161e-07 -1.27638e-06 0 -5.03654e-07 -1.17912e-06 0 -4.5152e-07 -1.091e-06 0 -4.04358e-07 -1.01141e-06 0 -3.61454e-07 -9.39761e-07 0 -3.22202e-07 -8.75508e-07 0 -2.86087e-07 -8.18149e-07 0 -2.52666e-07 -7.67226e-07 0 -2.21557e-07 -7.22328e-07 0 -1.92425e-07 -6.83091e-07 0 -1.64971e-07 -6.49194e-07 0 -1.38931e-07 -6.2036e-07 0 -1.14064e-07 -5.96351e-07 0 -9.01464e-08 -5.7697e-07 0 -6.6973e-08 -5.62059e-07 0 -4.4348e-08 -5.51495e-07 0 -2.20843e-08 -5.45191e-07 0 0 -5.43096e-07 0 -2.85027e-06 -4.06199e-06 0 -2.45891e-06 -3.82559e-06 0 -2.12138e-06 -3.5771e-06 0 -1.83272e-06 -3.326e-06 0 -1.58717e-06 -3.07932e-06 0 -1.37889e-06 -2.84189e-06 0 -1.20234e-06 -2.6168e-06 0 -1.05252e-06 -2.40583e-06 0 -9.25041e-07 -2.20981e-06 0 -8.1614e-07 -2.02889e-06 0 -7.22645e-07 -1.86277e-06 0 -6.4191e-07 -1.71087e-06 0 -5.71747e-07 -1.57243e-06 0 -5.10358e-07 -1.44659e-06 0 -4.56269e-07 -1.3325e-06 0 -4.08276e-07 -1.22928e-06 0 -3.65393e-07 -1.13613e-06 0 -3.2681e-07 -1.05226e-06 0 -2.91861e-07 -9.76959e-07 0 -2.59995e-07 -9.09591e-07 0 -2.30748e-07 -8.49566e-07 0 -2.03734e-07 -7.96363e-07 0 -1.78619e-07 -7.49518e-07 0 -1.5512e-07 -7.08625e-07 0 -1.32986e-07 -6.73329e-07 0 -1.11997e-07 -6.43327e-07 0 -9.19541e-08 -6.18361e-07 0 -7.26764e-08 -5.98217e-07 0 -5.39965e-08 -5.82725e-07 0 -3.57566e-08 -5.71751e-07 0 -1.78065e-08 -5.65204e-07 0 0 -5.63028e-07 0 -2.59298e-06 -4.49338e-06 0 -2.18578e-06 -4.19446e-06 0 -1.84433e-06 -3.88943e-06 0 -1.56032e-06 -3.58873e-06 0 -1.32522e-06 -3.29955e-06 0 -1.13102e-06 -3.02627e-06 0 -9.70587e-07 -2.77128e-06 0 -8.37761e-07 -2.5356e-06 0 -7.27366e-07 -2.31927e-06 0 -6.35121e-07 -2.1217e-06 0 -5.57527e-07 -1.94197e-06 0 -4.91757e-07 -1.77893e-06 0 -4.35539e-07 -1.63136e-06 0 -3.87059e-07 -1.49802e-06 0 -3.44869e-07 -1.37774e-06 0 -3.07818e-07 -1.2694e-06 0 -2.74989e-07 -1.17198e-06 0 -2.45647e-07 -1.08454e-06 0 -2.19202e-07 -1.00624e-06 0 -1.95179e-07 -9.36341e-07 0 -1.73188e-07 -8.74172e-07 0 -1.52908e-07 -8.19151e-07 0 -1.34073e-07 -7.70765e-07 0 -1.16455e-07 -7.28569e-07 0 -9.98604e-08 -6.92178e-07 0 -8.41195e-08 -6.61266e-07 0 -6.90816e-08 -6.35556e-07 0 -5.46104e-08 -6.1482e-07 0 -4.0581e-08 -5.98877e-07 0 -2.68764e-08 -5.87587e-07 0 -1.33853e-08 -5.80852e-07 0 0 -5.78613e-07 0 -2.26255e-06 -4.94519e-06 0 -1.84667e-06 -4.56894e-06 0 -1.50984e-06 -4.1968e-06 0 -1.23912e-06 -3.83953e-06 0 -1.02253e-06 -3.50355e-06 0 -8.49564e-07 -3.19211e-06 0 -7.11389e-07 -2.90631e-06 0 -6.0072e-07 -2.64593e-06 0 -5.11676e-07 -2.40989e-06 0 -4.39563e-07 -2.19665e-06 0 -3.8068e-07 -2.00446e-06 0 -3.32129e-07 -1.83152e-06 0 -2.91656e-07 -1.67605e-06 0 -2.57518e-07 -1.53641e-06 0 -2.28369e-07 -1.41106e-06 0 -2.0317e-07 -1.29862e-06 0 -1.81122e-07 -1.19786e-06 0 -1.61605e-07 -1.10769e-06 0 -1.44137e-07 -1.02714e-06 0 -1.28343e-07 -9.55371e-07 0 -1.13925e-07 -8.91643e-07 0 -1.00646e-07 -8.35315e-07 0 -8.83135e-08 -7.85832e-07 0 -7.67705e-08 -7.42716e-07 0 -6.58842e-08 -7.05558e-07 0 -5.55415e-08 -6.74011e-07 0 -4.56441e-08 -6.47783e-07 0 -3.6104e-08 -6.26638e-07 0 -2.68418e-08 -6.10383e-07 0 -1.77832e-08 -5.98874e-07 0 -8.85847e-09 -5.9201e-07 0 0 -5.89728e-07 0 -1.84017e-06 -5.40898e-06 0 -1.42848e-06 -4.93843e-06 0 -1.10939e-06 -4.48856e-06 0 -8.64059e-07 -4.06852e-06 0 -6.7648e-07 -3.68268e-06 0 -5.33587e-07 -3.33207e-06 0 -4.24919e-07 -3.01579e-06 0 -3.42257e-07 -2.73184e-06 0 -2.7922e-07 -2.47767e-06 0 -2.30912e-07 -2.25054e-06 0 -1.93609e-07 -2.04772e-06 0 -1.64507e-07 -1.86665e-06 0 -1.41505e-07 -1.70496e-06 0 -1.23041e-07 -1.56053e-06 0 -1.07958e-07 -1.43149e-06 0 -9.54025e-08 -1.31618e-06 0 -8.47473e-08 -1.21318e-06 0 -7.55302e-08 -1.12124e-06 0 -6.74114e-08 -1.03928e-06 0 -6.014e-08 -9.66377e-07 0 -5.35299e-08 -9.01727e-07 0 -4.74416e-08 -8.44646e-07 0 -4.17697e-08 -7.94544e-07 0 -3.64327e-08 -7.50917e-07 0 -3.13667e-08 -7.13337e-07 0 -2.65202e-08 -6.81444e-07 0 -2.18504e-08 -6.54938e-07 0 -1.73209e-08 -6.33571e-07 0 -1.28994e-08 -6.1715e-07 0 -8.55672e-09 -6.05525e-07 0 -4.26561e-09 -5.98591e-07 0 0 -5.96286e-07 0 -1.30424e-06 -5.86755e-06 0 -9.18064e-07 -5.28631e-06 0 -6.35717e-07 -4.74959e-06 0 -4.31731e-07 -4.26283e-06 0 -2.86201e-07 -3.82627e-06 0 -1.83758e-07 -3.43754e-06 0 -1.12755e-07 -3.09286e-06 0 -6.44176e-08 -2.78794e-06 0 -3.22333e-08 -2.51842e-06 0 -1.14074e-08 -2.28013e-06 0 1.54353e-09 -2.06927e-06 0 9.12484e-09 -1.88243e-06 0 1.31161e-08 -1.71664e-06 0 1.47672e-08 -1.5693e-06 0 1.49439e-08 -1.43821e-06 0 1.42376e-08 -1.32148e-06 0 1.30454e-08 -1.21747e-06 0 1.16277e-08 -1.12483e-06 0 1.01508e-08 -1.04239e-06 0 8.71606e-09 -9.69146e-07 0 7.38108e-09 -9.04261e-07 0 6.17455e-09 -8.47013e-07 0 5.10628e-09 -7.96793e-07 0 4.17415e-09 -7.53081e-07 0 3.36884e-09 -7.15439e-07 0 2.6769e-09 -6.83501e-07 0 2.08271e-09 -6.5696e-07 0 1.5698e-09 -6.35568e-07 0 1.12146e-09 -6.19128e-07 0 7.21161e-10 -6.0749e-07 0 3.52668e-10 -6.00549e-07 0 0 -5.98242e-07 0 -6.34055e-07 -6.29405e-06 0 -3.04872e-07 -5.58808e-06 0 -8.4574e-08 -4.95996e-06 0 5.825e-08 -4.40648e-06 0 1.46565e-07 -3.92184e-06 0 1.97016e-07 -3.49886e-06 0 2.21705e-07 -3.13016e-06 0 2.29284e-07 -2.80869e-06 0 2.25895e-07 -2.52799e-06 0 2.15808e-07 -2.28237e-06 0 2.01946e-07 -2.06686e-06 0 1.86259e-07 -1.87724e-06 0 1.70014e-07 -1.70991e-06 0 1.54004e-07 -1.56189e-06 0 1.38696e-07 -1.43064e-06 0 1.24341e-07 -1.31407e-06 0 1.11048e-07 -1.21044e-06 0 9.88343e-08 -1.11826e-06 0 8.76638e-08 -1.03632e-06 0 7.74676e-08 -9.63579e-07 0 6.81605e-08 -8.99174e-07 0 5.96506e-08 -8.42369e-07 0 5.18449e-08 -7.92547e-07 0 4.46535e-08 -7.49187e-07 0 3.79907e-08 -7.11849e-07 0 3.17761e-08 -6.80169e-07 0 2.59346e-08 -6.53841e-07 0 2.0396e-08 -6.32621e-07 0 1.50943e-08 -6.16312e-07 0 9.96729e-09 -6.04766e-07 0 4.95515e-09 -5.9788e-07 0 0 -5.95591e-07 0 1.85734e-07 -6.64371e-06 0 4.15284e-07 -5.81167e-06 0 5.42565e-07 -5.09507e-06 0 6.01757e-07 -4.48114e-06 0 6.16403e-07 -3.95571e-06 0 6.03002e-07 -3.50596e-06 0 5.72846e-07 -3.12034e-06 0 5.3365e-07 -2.78878e-06 0 4.90495e-07 -2.50263e-06 0 4.4664e-07 -2.25462e-06 0 4.04059e-07 -2.03869e-06 0 3.63872e-07 -1.84984e-06 0 3.26624e-07 -1.68398e-06 0 2.92503e-07 -1.53776e-06 0 2.61473e-07 -1.40844e-06 0 2.33369e-07 -1.29379e-06 0 2.07962e-07 -1.19198e-06 0 1.84993e-07 -1.10149e-06 0 1.642e-07 -1.02107e-06 0 1.45329e-07 -9.49702e-07 0 1.28143e-07 -8.86505e-07 0 1.12423e-07 -8.30758e-07 0 9.79702e-08 -7.81854e-07 0 8.46052e-08 -7.39282e-07 0 7.21653e-08 -7.02613e-07 0 6.0503e-08 -6.71493e-07 0 4.94843e-08 -6.45625e-07 0 3.89858e-08 -6.2477e-07 0 2.88931e-08 -6.0874e-07 0 1.90988e-08 -5.9739e-07 0 9.50079e-09 -5.9062e-07 0 0 -5.8837e-07 0 1.15351e-06 -6.86701e-06 0 1.23515e-06 -5.91792e-06 0 1.23621e-06 -5.12788e-06 0 1.18854e-06 -4.4674e-06 0 1.1135e-06 -3.91415e-06 0 1.02511e-06 -3.44918e-06 0 9.3261e-07 -3.05671e-06 0 8.41665e-07 -2.72367e-06 0 7.55591e-07 -2.43932e-06 0 6.76053e-07 -2.19496e-06 0 6.03688e-07 -1.98358e-06 0 5.38485e-07 -1.79958e-06 0 4.80073e-07 -1.63851e-06 0 4.27892e-07 -1.49681e-06 0 3.81312e-07 -1.37164e-06 0 3.39695e-07 -1.26073e-06 0 3.02436e-07 -1.16223e-06 0 2.68977e-07 -1.07467e-06 0 2.38817e-07 -9.96818e-07 0 2.11509e-07 -9.27673e-07 0 1.86663e-07 -8.66406e-07 0 1.63931e-07 -8.12322e-07 0 1.43011e-07 -7.64843e-07 0 1.23634e-07 -7.23484e-07 0 1.05564e-07 -6.8784e-07 0 8.85884e-08 -6.57573e-07 0 7.25153e-08 -6.32403e-07 0 5.71709e-08 -6.12103e-07 0 4.23942e-08 -5.96494e-07 0 2.80348e-08 -5.8544e-07 0 1.39495e-08 -5.78846e-07 0 0 -5.76654e-07 0 2.24699e-06 -6.89303e-06 0 2.13287e-06 -5.86888e-06 0 1.97667e-06 -5.03141e-06 0 1.80166e-06 -4.34713e-06 0 1.62307e-06 -3.7848e-06 0 1.45081e-06 -3.32033e-06 0 1.2904e-06 -2.93404e-06 0 1.14456e-06 -2.61021e-06 0 1.01397e-06 -2.33632e-06 0 8.98193e-07 -2.10255e-06 0 7.96095e-07 -1.90127e-06 0 7.0628e-07 -1.72655e-06 0 6.27278e-07 -1.57379e-06 0 5.57679e-07 -1.43942e-06 0 4.96193e-07 -1.32066e-06 0 4.41674e-07 -1.2153e-06 0 3.93121e-07 -1.12161e-06 0 3.49673e-07 -1.03818e-06 0 3.10589e-07 -9.63883e-07 0 2.75237e-07 -8.97792e-07 0 2.43074e-07 -8.39141e-07 0 2.13633e-07 -7.87296e-07 0 1.86513e-07 -7.41725e-07 0 1.61362e-07 -7.01984e-07 0 1.37873e-07 -6.67701e-07 0 1.15774e-07 -6.38564e-07 0 9.482e-08 -6.14318e-07 0 7.479e-08 -5.94752e-07 0 5.54794e-08 -5.79701e-07 0 3.66974e-08 -5.69038e-07 0 1.82627e-08 -5.62675e-07 0 0 -5.6056e-07 0 3.41349e-06 -6.69341e-06 0 3.0709e-06 -5.62853e-06 0 2.73495e-06 -4.78425e-06 0 2.41723e-06 -4.10558e-06 0 2.12572e-06 -3.55841e-06 0 1.86411e-06 -3.11391e-06 0 1.63334e-06 -2.74946e-06 0 1.43198e-06 -2.44725e-06 0 1.25746e-06 -2.19354e-06 0 1.1066e-06 -1.97795e-06 0 9.76213e-07 -1.79263e-06 0 8.63273e-07 -1.63173e-06 0 7.65102e-07 -1.49081e-06 0 6.79379e-07 -1.36653e-06 0 6.04133e-07 -1.25634e-06 0 5.37708e-07 -1.15827e-06 0 4.78722e-07 -1.07076e-06 0 4.26022e-07 -9.92591e-07 0 3.78646e-07 -9.2277e-07 0 3.35789e-07 -8.60491e-07 0 2.96774e-07 -8.05089e-07 0 2.61025e-07 -7.56009e-07 0 2.28053e-07 -7.12789e-07 0 1.97433e-07 -6.75036e-07 0 1.68796e-07 -6.42423e-07 0 1.41817e-07 -6.14674e-07 0 1.16204e-07 -5.9156e-07 0 9.16919e-08 -5.72893e-07 0 6.80377e-08 -5.58525e-07 0 4.50139e-08 -5.48342e-07 0 2.24043e-08 -5.42263e-07 0 0 -5.40242e-07 0 4.58958e-06 -6.19301e-06 0 4.00153e-06 -5.18194e-06 0 3.47394e-06 -4.37096e-06 0 3.00624e-06 -3.73417e-06 0 2.5978e-06 -3.23015e-06 0 2.24629e-06 -2.82826e-06 0 1.94661e-06 -2.50333e-06 0 1.69251e-06 -2.23631e-06 0 1.47726e-06 -2.01309e-06 0 1.29459e-06 -1.82338e-06 0 1.13893e-06 -1.65983e-06 0 1.00556e-06 -1.51709e-06 0 8.90538e-07 -1.39131e-06 0 7.90656e-07 -1.27964e-06 0 7.03298e-07 -1.17998e-06 0 6.26343e-07 -1.09072e-06 0 5.58069e-07 -1.01062e-06 0 4.97073e-07 -9.38685e-07 0 4.42205e-07 -8.74139e-07 0 3.92517e-07 -8.16332e-07 0 3.4722e-07 -7.64728e-07 0 3.05652e-07 -7.18877e-07 0 2.67249e-07 -6.78395e-07 0 2.31528e-07 -6.42958e-07 0 1.98068e-07 -6.1229e-07 0 1.665e-07 -5.86156e-07 0 1.3649e-07 -5.64361e-07 0 1.07738e-07 -5.46742e-07 0 7.99675e-08 -5.3317e-07 0 5.29174e-08 -5.23545e-07 0 2.63412e-08 -5.17799e-07 0 0 -5.15888e-07 0 5.69943e-06 -5.47896e-06 0 4.8728e-06 -4.51203e-06 0 4.15345e-06 -3.789e-06 0 3.53524e-06 -3.22997e-06 0 3.01269e-06 -2.8011e-06 0 2.57632e-06 -2.46659e-06 0 2.21433e-06 -2.2001e-06 0 1.91423e-06 -1.98224e-06 0 1.66462e-06 -1.79956e-06 0 1.45571e-06 -1.64302e-06 0 1.27951e-06 -1.50644e-06 0 1.12961e-06 -1.38567e-06 0 1.00094e-06 -1.27781e-06 0 8.8949e-07 -1.18084e-06 0 7.92125e-07 -1.09329e-06 0 7.06349e-07 -1.01406e-06 0 6.3018e-07 -9.42329e-07 0 5.62029e-07 -8.77417e-07 0 5.0061e-07 -8.18786e-07 0 4.44875e-07 -7.65985e-07 0 3.93955e-07 -7.18628e-07 0 3.47126e-07 -6.76383e-07 0 3.03773e-07 -6.38964e-07 0 2.63369e-07 -6.06118e-07 0 2.25456e-07 -5.77628e-07 0 1.89628e-07 -5.53305e-07 0 1.55522e-07 -5.3299e-07 0 1.22807e-07 -5.16548e-07 0 9.11784e-08 -5.03872e-07 0 6.03483e-08 -4.94876e-07 0 3.00438e-08 -4.89503e-07 0 0 -4.87716e-07 0 6.68802e-06 -4.39575e-06 0 5.63856e-06 -3.64582e-06 0 4.73141e-06 -3.03509e-06 0 3.96801e-06 -2.59861e-06 0 3.34087e-06 -2.27848e-06 0 2.83197e-06 -2.03826e-06 0 2.42032e-06 -1.84926e-06 0 2.08577e-06 -1.69362e-06 0 1.81157e-06 -1.56042e-06 0 1.58439e-06 -1.44299e-06 0 1.39402e-06 -1.33748e-06 0 1.23262e-06 -1.24147e-06 0 1.09424e-06 -1.15352e-06 0 9.74353e-07 -1.07267e-06 0 8.69448e-07 -9.98307e-07 0 7.76814e-07 -9.29947e-07 0 6.94323e-07 -8.67239e-07 0 6.2029e-07 -8.09882e-07 0 5.53363e-07 -7.57616e-07 0 4.9244e-07 -7.10202e-07 0 4.36618e-07 -6.67422e-07 0 3.85138e-07 -6.29072e-07 0 3.37359e-07 -5.94965e-07 0 2.9273e-07 -5.64927e-07 0 2.50766e-07 -5.38803e-07 0 2.1104e-07 -5.16452e-07 0 1.73167e-07 -4.97751e-07 0 1.36794e-07 -4.82594e-07 0 1.01593e-07 -4.70896e-07 0 6.72551e-08 -4.62589e-07 0 3.34864e-08 -4.57624e-07 0 0 -4.55973e-07 0 7.54131e-06 -3.30868e-06 0 6.26238e-06 -2.54363e-06 0 5.16276e-06 -2.12191e-06 0 4.26353e-06 -1.84839e-06 0 3.54987e-06 -1.67899e-06 0 2.99086e-06 -1.56017e-06 0 2.54968e-06 -1.46614e-06 0 2.1976e-06 -1.38338e-06 0 1.91197e-06 -1.30583e-06 0 1.6767e-06 -1.23135e-06 0 1.47985e-06 -1.15912e-06 0 1.31282e-06 -1.08931e-06 0 1.16924e-06 -1.02216e-06 0 1.04436e-06 -9.5807e-07 0 9.34595e-07 -8.97328e-07 0 8.37207e-07 -8.40189e-07 0 7.50063e-07 -7.86802e-07 0 6.71489e-07 -7.37262e-07 0 6.00141e-07 -6.91596e-07 0 5.3493e-07 -6.49788e-07 0 4.74956e-07 -6.11787e-07 0 4.19464e-07 -5.7752e-07 0 3.67808e-07 -5.46898e-07 0 3.19433e-07 -5.19826e-07 0 2.73845e-07 -4.96209e-07 0 2.30606e-07 -4.75951e-07 0 1.89317e-07 -4.58969e-07 0 1.49611e-07 -4.45185e-07 0 1.11145e-07 -4.34533e-07 0 7.35946e-08 -4.26963e-07 0 3.66475e-08 -4.22436e-07 0 0 -4.2093e-07 0 8.21821e-06 -1.57553e-06 0 6.70799e-06 -1.26383e-06 0 5.39089e-06 -1.02879e-06 0 4.3666e-06 -1.00528e-06 0 3.60626e-06 -1.03066e-06 0 3.03204e-06 -1.05987e-06 0 2.59176e-06 -1.073e-06 0 2.24368e-06 -1.06829e-06 0 1.9629e-06 -1.04862e-06 0 1.73102e-06 -1.01742e-06 0 1.53625e-06 -9.78461e-07 0 1.36984e-06 -9.34442e-07 0 1.22573e-06 -8.87763e-07 0 1.09938e-06 -8.40085e-07 0 9.87468e-07 -7.92745e-07 0 8.87427e-07 -7.46659e-07 0 7.9729e-07 -7.02512e-07 0 7.15502e-07 -6.60759e-07 0 6.40814e-07 -6.21713e-07 0 5.72208e-07 -5.85563e-07 0 5.08832e-07 -5.52417e-07 0 4.49966e-07 -5.22322e-07 0 3.94989e-07 -4.95281e-07 0 3.43356e-07 -4.71272e-07 0 2.94581e-07 -4.50254e-07 0 2.48226e-07 -4.32178e-07 0 2.03887e-07 -4.16991e-07 0 1.61191e-07 -4.04644e-07 0 1.19785e-07 -3.95091e-07 0 7.93322e-08 -3.88296e-07 0 3.95096e-08 -3.8423e-07 0 0 -3.82877e-07 0 9.04959e-06 -3.02314e-07 0 6.92226e-06 4.54198e-07 0 5.28619e-06 2.11568e-07 0 4.21587e-06 -1.12074e-07 0 3.47215e-06 -3.87718e-07 0 2.94624e-06 -5.77092e-07 0 2.54161e-06 -6.9819e-07 0 2.2249e-06 -7.68602e-07 0 1.96521e-06 -8.02547e-07 0 1.74911e-06 -8.11386e-07 0 1.56454e-06 -8.02607e-07 0 1.40487e-06 -7.82235e-07 0 1.2646e-06 -7.54235e-07 0 1.14012e-06 -7.21736e-07 0 1.02855e-06 -6.86844e-07 0 9.27813e-07 -6.51166e-07 0 8.36216e-07 -6.15795e-07 0 7.5245e-07 -5.81533e-07 0 6.75434e-07 -5.48918e-07 0 6.04275e-07 -5.18324e-07 0 5.38213e-07 -4.8999e-07 0 4.76592e-07 -4.64064e-07 0 4.18836e-07 -4.4063e-07 0 3.64429e-07 -4.19726e-07 0 3.12905e-07 -4.01358e-07 0 2.63834e-07 -3.85515e-07 0 2.16819e-07 -3.72175e-07 0 1.71484e-07 -3.61311e-07 0 1.27472e-07 -3.52894e-07 0 8.44412e-08 -3.46901e-07 0 4.20592e-08 -3.43313e-07 0 0 -3.42119e-07 0 9.68751e-06 2.86194e-06 0 6.46148e-06 2.72289e-06 0 4.67527e-06 1.53863e-06 0 3.69668e-06 6.93845e-07 0 3.16314e-06 1.68928e-07 0 2.72733e-06 -1.63301e-07 0 2.41524e-06 -3.73725e-07 0 2.14596e-06 -5.04217e-07 0 1.9272e-06 -5.81561e-07 0 1.73501e-06 -6.22277e-07 0 1.56886e-06 -6.38306e-07 0 1.42046e-06 -6.37332e-07 0 1.28797e-06 -6.25152e-07 0 1.16798e-06 -6.05631e-07 0 1.05893e-06 -5.81683e-07 0 9.59095e-07 -5.55295e-07 0 8.6736e-07 -5.27938e-07 0 7.82675e-07 -5.00625e-07 0 7.04221e-07 -4.74084e-07 0 6.31261e-07 -4.4881e-07 0 5.63165e-07 -4.25143e-07 0 4.99363e-07 -4.03307e-07 0 4.39341e-07 -3.83445e-07 0 3.82626e-07 -3.65639e-07 0 3.28779e-07 -3.49935e-07 0 2.77391e-07 -3.36349e-07 0 2.28073e-07 -3.24884e-07 0 1.80455e-07 -3.1553e-07 0 1.3418e-07 -3.08274e-07 0 8.89027e-08 -3.03102e-07 0 4.42867e-08 -3.00004e-07 0 0 -2.98973e-07 0 2.33485e-05 2.63965e-05 0 3.74767e-06 4.34264e-06 0 2.85263e-06 2.48901e-06 0 3.15988e-06 1.15816e-06 0 2.56104e-06 5.51496e-07 0 2.49762e-06 1.30512e-07 0 2.19115e-06 -1.26509e-07 0 2.04622e-06 -2.91177e-07 0 1.8483e-06 -3.96736e-07 0 1.70251e-06 -4.56989e-07 0 1.55187e-06 -4.90817e-07 0 1.42206e-06 -5.03256e-07 0 1.29802e-06 -5.03287e-07 0 1.18537e-06 -4.93786e-07 0 1.0799e-06 -4.78884e-07 0 9.82398e-07 -4.60313e-07 0 8.91422e-07 -4.39992e-07 0 8.06703e-07 -4.18907e-07 0 7.27512e-07 -3.97958e-07 0 6.53396e-07 -3.77667e-07 0 5.83829e-07 -3.58452e-07 0 5.18361e-07 -3.40567e-07 0 4.56543e-07 -3.24196e-07 0 3.97957e-07 -3.09447e-07 0 3.42199e-07 -2.9639e-07 0 2.88882e-07 -2.85062e-07 0 2.37631e-07 -2.75481e-07 0 1.88085e-07 -2.6765e-07 0 1.39891e-07 -2.61569e-07 0 9.27039e-08 -2.57231e-07 0 4.61854e-08 -2.5463e-07 0 0 -2.53764e-07 0 </DataArray> 
</PointData> 
<Points> 
<DataArray type="Float32" NumberOfComponents="3"> 