<?xml version="1.0"?> 
<VTKFile type="StructuredGrid" version="0.1"> 
<StructuredGrid WholeExtent="0 31 0 31 0 0"> 
<Piece Extent="0 31 0 31 0 0"> 
<PointData>
<DataArray type="Float32" Name="B" format="ascii" NumberOfComponents="3"> 
6.6437e-05 1.953e-05 0 5.41892e-05 -1.39092e-06 0 5.69214e-05 2.9126e-07 0 6.16967e-05 -9.97022e-08 0 6.91742e-05 6.53906e-09 0 7.66209e-05 -2.36334e-08 0 8.47367e-05 -2.08698e-08 0 9.23394e-05 -1.17027e-08 0 9.94858e-05 -1.23864e-08 0 0.000105734 -2.65446e-09 0 0.000111077 -2.04694e-09 0 0.000115431 2.38218e-09 0 0.000118847 2.08547e-09 0 0.000121352 2.82592e-09 0 0.000122996 1.59328e-09 0 0.000123808 7.79393e-10 0 0.000123808 -7.79393e-10 0 0.000122996 -1.59328e-09 0 0.000121352 -2.82592e-09 0 0.000118847 -2.08547e-09 0 0.000115431 -2.38218e-09 0 0.000111077 2.04694e-09 0 0.000105734 2.65446e-09 0 9.94858e-05 1.23864e-08 0 9.23394e-05 1.17027e-08 0 8.47367e-05 2.08698e-08 0 7.66209e-05 2.36334e-08 0 6.91742e-05 -6.53906e-09 0 6.16967e-05 9.97022e-08 0 5.69214e-05 -2.9126e-07 0 5.41892e-05 1.39092e-06 0 6.6437e-05 -1.953e-05 0 4.15507e-05 5.27694e-06 0 5.01314e-05 -1.46013e-06 0 5.51233e-05 -4.92818e-06 0 6.13655e-05 -6.58254e-06 0 6.86375e-05 -7.55691e-06 0 7.66203e-05 -7.99569e-06 0 8.47934e-05 -7.96921e-06 0 9.26733e-05 -7.51161e-06 0 9.98885e-05 -6.75068e-06 0 0.000106215 -5.82485e-06 0 0.000111554 -4.84337e-06 0 0.0001159 -3.87174e-06 0 0.00011929 -2.94127e-06 0 0.000121773 -2.05864e-06 0 0.000123399 -1.2172e-06 0 0.000124202 -4.02621e-07 0 0.000124202 4.02621e-07 0 0.000123399 1.2172e-06 0 0.000121773 2.05864e-06 0 0.00011929 2.94127e-06 0 0.0001159 3.87174e-06 0 0.000111554 4.84337e-06 0 0.000106215 5.82485e-06 0 9.98885e-05 6.75068e-06 0 9.26733e-05 7.51161e-06 0 8.47934e-05 7.96921e-06 0 7.66203e-05 7.99569e-06 0 6.86375e-05 7.55691e-06 0 6.13655e-05 6.58254e-06 0 5.51233e-05 4.92818e-06 0 5.01314e-05 1.46013e-06 0 4.15507e-05 -5.27694e-06 0 3.86089e-05 -3.94977e-06 0 4.57529e-05 -7.77171e-06 0 5.24594e-05 -1.11546e-05 0 5.96028e-05 -1.37685e-05 0 6.7611e-05 -1.55777e-05 0 7.6307e-05 -1.64943e-05 0 8.5127e-05 -1.63589e-05 0 9.35894e-05 -1.53118e-05 0 0.000101144 -1.365e-05 0 0.000107612 -1.16941e-05 0 0.000112959 -9.66942e-06 0 0.00011725 -7.7004e-06 0 0.000120561 -5.83479e-06 0 0.000122972 -4.0776e-06 0 0.000124544 -2.40869e-06 0 0.000125319 -7.96465e-07 0 0.000125319 7.96465e-07 0 0.000124544 2.40869e-06 0 0.000122972 4.0776e-06 0 0.000120561 5.83479e-06 0 0.00011725 7.7004e-06 0 0.000112959 9.66942e-06 0 0.000107612 1.16941e-05 0 0.000101144 1.365e-05 0 9.35894e-05 1.53118e-05 0 8.5127e-05 1.63589e-05 0 7.6307e-05 1.64943e-05 0 6.7611e-05 1.55777e-05 0 5.96028e-05 1.37685e-05 0 5.24594e-05 1.11546e-05 0 4.57529e-05 7.77171e-06 0 3.86089e-05 3.94977e-06 0 3.55921e-05 -1.1427e-05 0 4.22113e-05 -1.45637e-05 0 4.9157e-05 -1.8234e-05 0 5.69012e-05 -2.17079e-05 0 6.58101e-05 -2.45309e-05 0 7.5827e-05 -2.60176e-05 0 8.6298e-05 -2.57022e-05 0 9.5767e-05 -2.37291e-05 0 0.000103858 -2.08258e-05 0 0.000110464 -1.76122e-05 0 0.000115758 -1.44288e-05 0 0.000119906 -1.14178e-05 0 0.000123062 -8.61653e-06 0 0.000125338 -6.00612e-06 0 0.000126813 -3.54284e-06 0 0.000127538 -1.17066e-06 0 0.000127538 1.17066e-06 0 0.000126813 3.54284e-06 0 0.000125338 6.00612e-06 0 0.000123062 8.61653e-06 0 0.000119906 1.14178e-05 0 0.000115758 1.44288e-05 0 0.000110464 1.76122e-05 0 0.000103858 2.08258e-05 0 9.5767e-05 2.37291e-05 0 8.6298e-05 2.57022e-05 0 7.5827e-05 2.60176e-05 0 6.58101e-05 2.45309e-05 0 5.69012e-05 2.17079e-05 0 4.9157e-05 1.8234e-05 0 4.22113e-05 1.45637e-05 0 3.55921e-05 1.1427e-05 0 3.25111e-05 -1.71484e-05 0 3.83605e-05 -2.10679e-05 0 4.50337e-05 -2.55151e-05 0 5.29771e-05 -3.02684e-05 0 6.28032e-05 -3.47664e-05 0 7.48673e-05 -3.75937e-05 0 8.74226e-05 -3.67935e-05 0 9.86052e-05 -3.30323e-05 0 0.000107169 -2.82601e-05 0 0.000113767 -2.34698e-05 0 0.000118808 -1.89977e-05 0 0.000122671 -1.49177e-05 0 0.000125556 -1.1203e-05 0 0.000127619 -7.78603e-06 0 0.000128947 -4.58502e-06 0 0.000129599 -1.51393e-06 0 0.000129599 1.51393e-06 0 0.000128947 4.58502e-06 0 0.000127619 7.78603e-06 0 0.000125556 1.1203e-05 0 0.000122671 1.49177e-05 0 0.000118808 1.89977e-05 0 0.000113767 2.34698e-05 0 0.000107169 2.82601e-05 0 9.86052e-05 3.30323e-05 0 8.74226e-05 3.67935e-05 0 7.48673e-05 3.75937e-05 0 6.28032e-05 3.47664e-05 0 5.29771e-05 3.02684e-05 0 4.50337e-05 2.55151e-05 0 3.83605e-05 2.10679e-05 0 3.25111e-05 1.71484e-05 0 2.87274e-05 -2.23737e-05 0 3.37379e-05 -2.69091e-05 0 3.97117e-05 -3.2454e-05 0 4.7129e-05 -3.89995e-05 0 5.71865e-05 -4.63e-05 0 7.27466e-05 -5.37523e-05 0 9.38775e-05 -5.10477e-05 0 0.000106391 -4.31053e-05 0 0.000114988 -3.56166e-05 0 0.000120985 -2.8972e-05 0 0.000125494 -2.31599e-05 0 0.000128834 -1.80462e-05 0 0.000131316 -1.34898e-05 0 0.000133071 -9.34929e-06 0 0.000134201 -5.49741e-06 0 0.000134753 -1.81385e-06 0 0.000134753 1.81385e-06 0 0.000134201 5.49741e-06 0 0.000133071 9.34929e-06 0 0.000131316 1.34898e-05 0 0.000128834 1.80462e-05 0 0.000125494 2.31599e-05 0 0.000120985 2.8972e-05 0 0.000114988 3.56166e-05 0 0.000106391 4.31053e-05 0 9.38775e-05 5.10477e-05 0 7.27466e-05 5.37523e-05 0 5.71865e-05 4.63e-05 0 4.7129e-05 3.89995e-05 0 3.97117e-05 3.2454e-05 0 3.37379e-05 2.69091e-05 0 2.87274e-05 2.23737e-05 0 2.42988e-05 -2.64987e-05 0 2.82376e-05 -3.18113e-05 0 3.29545e-05 -3.83474e-05 0 3.89157e-05 -4.69549e-05 0 4.70491e-05 -5.7009e-05 0 5.91098e-05 -7.40917e-05 0 7.40423e-05 -6.68996e-05 0 8.41767e-05 -5.24849e-05 0 9.09954e-05 -4.20508e-05 0 9.57647e-05 -3.36472e-05 0 9.92648e-05 -2.66112e-05 0 0.000101864 -2.0625e-05 0 0.000103785 -1.53589e-05 0 0.000105149 -1.06277e-05 0 0.000106026 -6.24124e-06 0 0.000106456 -2.0592e-06 0 0.000106456 2.0592e-06 0 0.000106026 6.24124e-06 0 0.000105149 1.06277e-05 0 0.000103785 1.53589e-05 0 0.000101864 2.0625e-05 0 9.92648e-05 2.66112e-05 0 9.57647e-05 3.36472e-05 0 9.09954e-05 4.20508e-05 0 8.41767e-05 5.24849e-05 0 7.40423e-05 6.68996e-05 0 5.91098e-05 7.40917e-05 0 4.70491e-05 5.7009e-05 0 3.89157e-05 4.69549e-05 0 3.29545e-05 3.83474e-05 0 2.82376e-05 3.18113e-05 0 2.42988e-05 2.64987e-05 0 1.93403e-05 -2.96051e-05 0 2.19921e-05 -3.53728e-05 0 2.50282e-05 -4.26572e-05 0 2.86536e-05 -5.24372e-05 0 3.32138e-05 -6.45891e-05 0 3.89595e-05 -8.38901e-05 0 4.52052e-05 -7.59019e-05 0 5.03378e-05 -5.88899e-05 0 5.41528e-05 -4.65615e-05 0 5.69791e-05 -3.6929e-05 0 5.91263e-05 -2.90714e-05 0 6.07727e-05 -2.2469e-05 0 6.20202e-05 -1.67137e-05 0 6.29232e-05 -1.15578e-05 0 6.35123e-05 -6.78704e-06 0 6.38033e-05 -2.23883e-06 0 6.38033e-05 2.23883e-06 0 6.35123e-05 6.78704e-06 0 6.29232e-05 1.15578e-05 0 6.20202e-05 1.67137e-05 0 6.07727e-05 2.2469e-05 0 5.91263e-05 2.90714e-05 0 5.69791e-05 3.6929e-05 0 5.41528e-05 4.65615e-05 0 5.03378e-05 5.88899e-05 0 4.52052e-05 7.59019e-05 0 3.89595e-05 8.38901e-05 0 3.32138e-05 6.45891e-05 0 2.86536e-05 5.24372e-05 0 2.50282e-05 4.26572e-05 0 2.19921e-05 3.53728e-05 0 1.93403e-05 2.96051e-05 0 1.41056e-05 -3.14965e-05 0 1.53844e-05 -3.74045e-05 0 1.65355e-05 -4.48352e-05 0 1.74674e-05 -5.48576e-05 0 1.80366e-05 -6.73114e-05 0 1.81523e-05 -8.70389e-05 0 1.78539e-05 -7.87829e-05 0 1.80038e-05 -6.12432e-05 0 1.83875e-05 -4.84551e-05 0 1.8965e-05 -3.84692e-05 0 1.95855e-05 -3.03234e-05 0 2.01859e-05 -2.34727e-05 0 2.0707e-05 -1.74849e-05 0 2.11211e-05 -1.21058e-05 0 2.14063e-05 -7.11471e-06 0 2.15518e-05 -2.34804e-06 0 2.15518e-05 2.34804e-06 0 2.14063e-05 7.11471e-06 0 2.11211e-05 1.21058e-05 0 2.0707e-05 1.74849e-05 0 2.01859e-05 2.34727e-05 0 1.95855e-05 3.03234e-05 0 1.8965e-05 3.84692e-05 0 1.83875e-05 4.84551e-05 0 1.80038e-05 6.12432e-05 0 1.78539e-05 7.87829e-05 0 1.81523e-05 8.70389e-05 0 1.80366e-05 6.73114e-05 0 1.74674e-05 5.48576e-05 0 1.65355e-05 4.48352e-05 0 1.53844e-05 3.74045e-05 0 1.41056e-05 3.14965e-05 0 8.91518e-06 -3.2244e-05 0 8.88704e-06 -3.78691e-05 0 8.27321e-06 -4.48205e-05 0 6.63085e-06 -5.40485e-05 0 3.32629e-06 -6.52408e-05 0 -2.29155e-06 -8.377e-05 0 -8.64805e-06 -7.57803e-05 0 -1.36855e-05 -5.94529e-05 0 -1.65252e-05 -4.76236e-05 0 -1.81116e-05 -3.81948e-05 0 -1.89211e-05 -3.03371e-05 0 -1.93271e-05 -2.36175e-05 0 -1.94974e-05 -1.76663e-05 0 -1.95549e-05 -1.22676e-05 0 -1.95612e-05 -7.22352e-06 0 -1.95563e-05 -2.38617e-06 0 -1.95563e-05 2.38617e-06 0 -1.95612e-05 7.22352e-06 0 -1.95549e-05 1.22676e-05 0 -1.94974e-05 1.76663e-05 0 -1.93271e-05 2.36175e-05 0 -1.89211e-05 3.03371e-05 0 -1.81116e-05 3.81948e-05 0 -1.65252e-05 4.76236e-05 0 -1.36855e-05 5.94529e-05 0 -8.64805e-06 7.57803e-05 0 -2.29155e-06 8.377e-05 0 3.32629e-06 6.52408e-05 0 6.63085e-06 5.40485e-05 0 8.27321e-06 4.48205e-05 0 8.88704e-06 3.78691e-05 0 8.91518e-06 3.2244e-05 0 4.06166e-06 -3.19256e-05 0 2.9804e-06 -3.69586e-05 0 9.46343e-07 -4.29535e-05 0 -2.54156e-06 -5.04423e-05 0 -8.75428e-06 -5.89071e-05 0 -2.08888e-05 -7.15059e-05 0 -3.94031e-05 -6.58939e-05 0 -4.85411e-05 -5.40122e-05 0 -5.39517e-05 -4.44916e-05 0 -5.70346e-05 -3.63612e-05 0 -5.90207e-05 -2.92641e-05 0 -6.02262e-05 -2.29924e-05 0 -6.09929e-05 -1.73124e-05 0 -6.14525e-05 -1.20755e-05 0 -6.17163e-05 -7.13061e-06 0 -6.18345e-05 -2.35862e-06 0 -6.18345e-05 2.35862e-06 0 -6.17163e-05 7.13061e-06 0 -6.14525e-05 1.20755e-05 0 -6.09929e-05 1.73124e-05 0 -6.02262e-05 2.29924e-05 0 -5.90207e-05 2.92641e-05 0 -5.70346e-05 3.63612e-05 0 -5.39517e-05 4.44916e-05 0 -4.85411e-05 5.40122e-05 0 -3.94031e-05 6.58939e-05 0 -2.08888e-05 7.15059e-05 0 -8.75428e-06 5.89071e-05 0 -2.54156e-06 5.04423e-05 0 9.46343e-07 4.29535e-05 0 2.9804e-06 3.69586e-05 0 4.06166e-06 3.19256e-05 0 -2.33447e-07 -3.07691e-05 0 -2.06866e-06 -3.50314e-05 0 -4.91433e-06 -3.98786e-05 0 -9.31293e-06 -4.51836e-05 0 -1.61114e-05 -5.07062e-05 0 -2.65618e-05 -5.43626e-05 0 -3.91337e-05 -5.26666e-05 0 -4.82521e-05 -4.67552e-05 0 -5.42095e-05 -4.0005e-05 0 -5.81566e-05 -3.34725e-05 0 -6.07978e-05 -2.73982e-05 0 -6.2581e-05 -2.17669e-05 0 -6.37719e-05 -1.65278e-05 0 -6.45467e-05 -1.15897e-05 0 -6.5011e-05 -6.86878e-06 0 -6.52288e-05 -2.27521e-06 0 -6.52288e-05 2.27521e-06 0 -6.5011e-05 6.86878e-06 0 -6.45467e-05 1.15897e-05 0 -6.37719e-05 1.65278e-05 0 -6.2581e-05 2.17669e-05 0 -6.07978e-05 2.73982e-05 0 -5.81566e-05 3.34725e-05 0 -5.42095e-05 4.0005e-05 0 -4.82521e-05 4.67552e-05 0 -3.91337e-05 5.26666e-05 0 -2.65618e-05 5.43626e-05 0 -1.61114e-05 5.07062e-05 0 -9.31293e-06 4.51836e-05 0 -4.91433e-06 3.98786e-05 0 -2.06866e-06 3.50314e-05 0 -2.33447e-07 3.07691e-05 0 -3.86668e-06 -2.90941e-05 0 -6.11922e-06 -3.25346e-05 0 -9.30307e-06 -3.61923e-05 0 -1.37402e-05 -3.9847e-05 0 -1.97773e-05 -4.29229e-05 0 -2.74545e-05 -4.45427e-05 0 -3.58302e-05 -4.33556e-05 0 -4.30023e-05 -3.98571e-05 0 -4.85226e-05 -3.51814e-05 0 -5.25638e-05 -3.01233e-05 0 -5.54823e-05 -2.50634e-05 0 -5.75618e-05 -2.01563e-05 0 -5.9019e-05 -1.54361e-05 0 -6.00005e-05 -1.08902e-05 0 -6.06058e-05 -6.47811e-06 0 -6.08942e-05 -2.14999e-06 0 -6.08942e-05 2.14999e-06 0 -6.06058e-05 6.47811e-06 0 -6.00005e-05 1.08902e-05 0 -5.9019e-05 1.54361e-05 0 -5.75618e-05 2.01563e-05 0 -5.54823e-05 2.50634e-05 0 -5.25638e-05 3.01233e-05 0 -4.85226e-05 3.51814e-05 0 -4.30023e-05 3.98571e-05 0 -3.58302e-05 4.33556e-05 0 -2.74545e-05 4.45427e-05 0 -1.97773e-05 4.29229e-05 0 -1.37402e-05 3.9847e-05 0 -9.30307e-06 3.61923e-05 0 -6.11922e-06 3.25346e-05 0 -3.86668e-06 2.90941e-05 0 -6.83599e-06 -2.70875e-05 0 -9.25749e-06 -2.97925e-05 0 -1.2439e-05 -3.24895e-05 0 -1.65406e-05 -3.49313e-05 0 -2.16287e-05 -3.67436e-05 0 -2.75209e-05 -3.73302e-05 0 -3.35961e-05 -3.64421e-05 0 -3.92809e-05 -3.40703e-05 0 -4.4039e-05 -3.0674e-05 0 -4.78199e-05 -2.67316e-05 0 -5.07169e-05 -2.25642e-05 0 -5.28859e-05 -1.83476e-05 0 -5.44616e-05 -1.41682e-05 0 -5.55543e-05 -1.00541e-05 0 -5.62414e-05 -6.00338e-06 0 -5.65729e-05 -1.99599e-06 0 -5.65729e-05 1.99599e-06 0 -5.62414e-05 6.00338e-06 0 -5.55543e-05 1.00541e-05 0 -5.44616e-05 1.41682e-05 0 -5.28859e-05 1.83476e-05 0 -5.07169e-05 2.25642e-05 0 -4.78199e-05 2.67316e-05 0 -4.4039e-05 3.0674e-05 0 -3.92809e-05 3.40703e-05 0 -3.35961e-05 3.64421e-05 0 -2.75209e-05 3.73302e-05 0 -2.16287e-05 3.67436e-05 0 -1.65406e-05 3.49313e-05 0 -1.2439e-05 3.24895e-05 0 -9.25749e-06 2.97925e-05 0 -6.83599e-06 2.70875e-05 0 -9.20779e-06 -2.49523e-05 0 -1.16326e-05 -2.70417e-05 0 -1.4649e-05 -2.90037e-05 0 -1.83093e-05 -3.06478e-05 0 -2.25887e-05 -3.17034e-05 0 -2.73169e-05 -3.19316e-05 0 -3.21993e-05 -3.11022e-05 0 -3.678e-05 -2.92854e-05 0 -4.08305e-05 -2.66808e-05 0 -4.4214e-05 -2.35442e-05 0 -4.69363e-05 -2.00967e-05 0 -4.90525e-05 -1.64941e-05 0 -5.06391e-05 -1.28292e-05 0 -5.17647e-05 -9.15235e-06 0 -5.24845e-05 -5.4837e-06 0 -5.28352e-05 -1.82634e-06 0 -5.28352e-05 1.82634e-06 0 -5.24845e-05 5.4837e-06 0 -5.17647e-05 9.15235e-06 0 -5.06391e-05 1.28292e-05 0 -4.90525e-05 1.64941e-05 0 -4.69363e-05 2.00967e-05 0 -4.4214e-05 2.35442e-05 0 -4.08305e-05 2.66808e-05 0 -3.678e-05 2.92854e-05 0 -3.21993e-05 3.11022e-05 0 -2.73169e-05 3.19316e-05 0 -2.25887e-05 3.17034e-05 0 -1.83093e-05 3.06478e-05 0 -1.4649e-05 2.90037e-05 0 -1.16326e-05 2.70417e-05 0 -9.20779e-06 2.49523e-05 0 -1.10757e-05 -2.28033e-05 0 -1.3414e-05 -2.44047e-05 0 -1.61983e-05 -2.58296e-05 0 -1.94365e-05 -2.69336e-05 0 -2.30736e-05 -2.75546e-05 0 -2.69769e-05 -2.75234e-05 0 -3.09246e-05 -2.67751e-05 0 -3.47273e-05 -2.53027e-05 0 -3.81708e-05 -2.32121e-05 0 -4.11527e-05 -2.06538e-05 0 -4.36314e-05 -1.77752e-05 0 -4.5618e-05 -1.46948e-05 0 -4.7144e-05 -1.14979e-05 0 -4.82479e-05 -8.23924e-06 0 -4.89632e-05 -4.95134e-06 0 -4.93146e-05 -1.65146e-06 0 -4.93146e-05 1.65146e-06 0 -4.89632e-05 4.95134e-06 0 -4.82479e-05 8.23924e-06 0 -4.7144e-05 1.14979e-05 0 -4.5618e-05 1.46948e-05 0 -4.36314e-05 1.77752e-05 0 -4.11527e-05 2.06538e-05 0 -3.81708e-05 2.32121e-05 0 -3.47273e-05 2.53027e-05 0 -3.09246e-05 2.67751e-05 0 -2.69769e-05 2.75234e-05 0 -2.30736e-05 2.75546e-05 0 -1.94365e-05 2.69336e-05 0 -1.61983e-05 2.58296e-05 0 -1.3414e-05 2.44047e-05 0 -1.10757e-05 2.28033e-05 0 -1.25349e-05 -2.07161e-05 0 -1.47425e-05 -2.19375e-05 0 -1.72856e-05 -2.29697e-05 0 -2.01486e-05 -2.37104e-05 0 -2.32775e-05 -2.4048e-05 0 -2.65714e-05 -2.38958e-05 0 -2.99017e-05 -2.31902e-05 0 -3.31006e-05 -2.1943e-05 0 -3.60524e-05 -2.02097e-05 0 -3.86628e-05 -1.80792e-05 0 -4.08859e-05 -1.56489e-05 0 -4.27068e-05 -1.30071e-05 0 -4.41329e-05 -1.02244e-05 0 -4.51802e-05 -7.35298e-06 0 -4.58665e-05 -4.42947e-06 0 -4.62058e-05 -1.47922e-06 0 -4.62058e-05 1.47922e-06 0 -4.58665e-05 4.42947e-06 0 -4.51802e-05 7.35298e-06 0 -4.41329e-05 1.02244e-05 0 -4.27068e-05 1.30071e-05 0 -4.08859e-05 1.56489e-05 0 -3.86628e-05 1.80792e-05 0 -3.60524e-05 2.02097e-05 0 -3.31006e-05 2.1943e-05 0 -2.99017e-05 2.31902e-05 0 -2.65714e-05 2.38958e-05 0 -2.32775e-05 2.4048e-05 0 -2.01486e-05 2.37104e-05 0 -1.72856e-05 2.29697e-05 0 -1.47425e-05 2.19375e-05 0 -1.25349e-05 2.07161e-05 0 -1.36695e-05 -1.87261e-05 0 -1.57316e-05 -1.96555e-05 0 -1.80449e-05 -2.04013e-05 0 -2.05876e-05 -2.08895e-05 0 -2.33101e-05 -2.10474e-05 0 -2.61365e-05 -2.08125e-05 0 -2.89658e-05 -2.01561e-05 0 -3.17042e-05 -1.90758e-05 0 -3.42515e-05 -1.76058e-05 0 -3.65379e-05 -1.58022e-05 0 -3.85161e-05 -1.37311e-05 0 -4.01631e-05 -1.14571e-05 0 -4.14714e-05 -9.03696e-06 0 -4.24436e-05 -6.51686e-06 0 -4.30863e-05 -3.93325e-06 0 -4.34057e-05 -1.31478e-06 0 -4.34057e-05 1.31478e-06 0 -4.30863e-05 3.93325e-06 0 -4.24436e-05 6.51686e-06 0 -4.14714e-05 9.03696e-06 0 -4.01631e-05 1.14571e-05 0 -3.85161e-05 1.37311e-05 0 -3.65379e-05 1.58022e-05 0 -3.42515e-05 1.76058e-05 0 -3.17042e-05 1.90758e-05 0 -2.89658e-05 2.01561e-05 0 -2.61365e-05 2.08125e-05 0 -2.33101e-05 2.10474e-05 0 -2.05876e-05 2.08895e-05 0 -1.80449e-05 2.04013e-05 0 -1.57316e-05 1.96555e-05 0 -1.36695e-05 1.87261e-05 0 -1.4549e-05 -1.68499e-05 0 -1.64654e-05 -1.7555e-05 0 -1.8571e-05 -1.80903e-05 0 -2.08414e-05 -1.84026e-05 0 -2.3235e-05 -1.84402e-05 0 -2.56926e-05 -1.81645e-05 0 -2.81454e-05 -1.75515e-05 0 -3.05135e-05 -1.6602e-05 0 -3.27306e-05 -1.53368e-05 0 -3.47379e-05 -1.37925e-05 0 -3.64942e-05 -1.20148e-05 0 -3.79729e-05 -1.00516e-05 0 -3.916e-05 -7.94772e-06 0 -4.005e-05 -5.74293e-06 0 -4.06422e-05 -3.47107e-06 0 -4.09378e-05 -1.16113e-06 0 -4.09378e-05 1.16113e-06 0 -4.06422e-05 3.47107e-06 0 -4.005e-05 5.74293e-06 0 -3.916e-05 7.94772e-06 0 -3.79729e-05 1.00516e-05 0 -3.64942e-05 1.20148e-05 0 -3.47379e-05 1.37925e-05 0 -3.27306e-05 1.53368e-05 0 -3.05135e-05 1.6602e-05 0 -2.81454e-05 1.75515e-05 0 -2.56926e-05 1.81645e-05 0 -2.3235e-05 1.84402e-05 0 -2.08414e-05 1.84026e-05 0 -1.8571e-05 1.80903e-05 0 -1.64654e-05 1.7555e-05 0 -1.4549e-05 1.68499e-05 0 -1.52287e-05 -1.50901e-05 0 -1.70075e-05 -1.5623e-05 0 -1.89288e-05 -1.60032e-05 0 -2.09693e-05 -1.61913e-05 0 -2.30937e-05 -1.61511e-05 0 -2.52555e-05 -1.58545e-05 0 -2.73997e-05 -1.52869e-05 0 -2.94715e-05 -1.44469e-05 0 -3.14156e-05 -1.33484e-05 0 -3.31859e-05 -1.20164e-05 0 -3.47459e-05 -1.04835e-05 0 -3.60697e-05 -8.78565e-06 0 -3.71404e-05 -6.95841e-06 0 -3.79484e-05 -5.03521e-06 0 -3.84887e-05 -3.04644e-06 0 -3.87592e-05 -1.01963e-06 0 -3.87592e-05 1.01963e-06 0 -3.84887e-05 3.04644e-06 0 -3.79484e-05 5.03521e-06 0 -3.71404e-05 6.95841e-06 0 -3.60697e-05 8.78565e-06 0 -3.47459e-05 1.04835e-05 0 -3.31859e-05 1.20164e-05 0 -3.14156e-05 1.33484e-05 0 -2.94715e-05 1.44469e-05 0 -2.73997e-05 1.52869e-05 0 -2.52555e-05 1.58545e-05 0 -2.30937e-05 1.61511e-05 0 -2.09693e-05 1.61913e-05 0 -1.89288e-05 1.60032e-05 0 -1.70075e-05 1.5623e-05 0 -1.52287e-05 1.50901e-05 0 -1.57524e-05 -1.34425e-05 0 -1.74051e-05 -1.38433e-05 0 -1.91653e-05 -1.41089e-05 0 -2.10114e-05 -1.42098e-05 0 -2.29135e-05 -1.41198e-05 0 -2.48343e-05 -1.38193e-05 0 -2.67318e-05 -1.3297e-05 0 -2.85607e-05 -1.25523e-05 0 -3.0279e-05 -1.15946e-05 0 -3.18486e-05 -1.04416e-05 0 -3.32381e-05 -9.11719e-06 0 -3.44234e-05 -7.64869e-06 0 -3.53871e-05 -6.06451e-06 0 -3.61177e-05 -4.39257e-06 0 -3.6608e-05 -2.6595e-06 0 -3.6854e-05 -8.90452e-07 0 -3.6854e-05 8.90452e-07 0 -3.6608e-05 2.6595e-06 0 -3.61177e-05 4.39257e-06 0 -3.53871e-05 6.06451e-06 0 -3.44234e-05 7.64869e-06 0 -3.32381e-05 9.11719e-06 0 -3.18486e-05 1.04416e-05 0 -3.0279e-05 1.15946e-05 0 -2.85607e-05 1.25523e-05 0 -2.67318e-05 1.3297e-05 0 -2.48343e-05 1.38193e-05 0 -2.29135e-05 1.41198e-05 0 -2.10114e-05 1.42098e-05 0 -1.91653e-05 1.41089e-05 0 -1.74051e-05 1.38433e-05 0 -1.57524e-05 1.34425e-05 0 -1.61543e-05 -1.18992e-05 0 -1.76939e-05 -1.21987e-05 0 -1.93143e-05 -1.23797e-05 0 -2.09961e-05 -1.24202e-05 0 -2.27138e-05 -1.23009e-05 0 -2.44367e-05 -1.20071e-05 0 -2.61306e-05 -1.15312e-05 0 -2.77603e-05 -1.08723e-05 0 -2.9291e-05 -1.00372e-05 0 -3.06914e-05 -9.0388e-06 0 -3.19345e-05 -7.89513e-06 0 -3.29984e-05 -6.62731e-06 0 -3.38664e-05 -5.25813e-06 0 -3.45265e-05 -3.81082e-06 0 -3.49707e-05 -2.30833e-06 0 -3.51939e-05 -7.73066e-07 0 -3.51939e-05 7.73066e-07 0 -3.49707e-05 2.30833e-06 0 -3.45265e-05 3.81082e-06 0 -3.38664e-05 5.25813e-06 0 -3.29984e-05 6.62731e-06 0 -3.19345e-05 7.89513e-06 0 -3.06914e-05 9.0388e-06 0 -2.9291e-05 1.00372e-05 0 -2.77603e-05 1.08723e-05 0 -2.61306e-05 1.15312e-05 0 -2.44367e-05 1.20071e-05 0 -2.27138e-05 1.23009e-05 0 -2.09961e-05 1.24202e-05 0 -1.93143e-05 1.23797e-05 0 -1.76939e-05 1.21987e-05 0 -1.61543e-05 1.18992e-05 0 -1.64612e-05 -1.04506e-05 0 -1.79009e-05 -1.06724e-05 0 -1.9401e-05 -1.07915e-05 0 -2.09441e-05 -1.07913e-05 0 -2.25082e-05 -1.06573e-05 0 -2.40677e-05 -1.03786e-05 0 -2.55947e-05 -9.94956e-06 0 -2.70598e-05 -9.36964e-06 0 -2.84347e-05 -8.6438e-06 0 -2.96931e-05 -7.78183e-06 0 -3.08115e-05 -6.79749e-06 0 -3.17706e-05 -5.70736e-06 0 -3.25549e-05 -4.52983e-06 0 -3.31525e-05 -3.28414e-06 0 -3.35552e-05 -1.98986e-06 0 -3.37578e-05 -6.66512e-07 0 -3.37578e-05 6.66512e-07 0 -3.35552e-05 1.98986e-06 0 -3.31525e-05 3.28414e-06 0 -3.25549e-05 4.52983e-06 0 -3.17706e-05 5.70736e-06 0 -3.08115e-05 6.79749e-06 0 -2.96931e-05 7.78183e-06 0 -2.84347e-05 8.6438e-06 0 -2.70598e-05 9.36964e-06 0 -2.55947e-05 9.94956e-06 0 -2.40677e-05 1.03786e-05 0 -2.25082e-05 1.06573e-05 0 -2.09441e-05 1.07913e-05 0 -1.9401e-05 1.07915e-05 0 -1.79009e-05 1.06724e-05 0 -1.64612e-05 1.04506e-05 0 -1.66939e-05 -9.08612e-06 0 -1.80466e-05 -9.24863e-06 0 -1.9444e-05 -9.32319e-06 0 -2.08704e-05 -9.29697e-06 0 -2.23067e-05 -9.15902e-06 0 -2.37312e-05 -8.90137e-06 0 -2.51203e-05 -8.5197e-06 0 -2.64496e-05 -8.01372e-06 0 -2.76953e-05 -7.38721e-06 0 -2.8835e-05 -6.64771e-06 0 -2.98483e-05 -5.80592e-06 0 -3.07182e-05 -4.87497e-06 0 -3.14303e-05 -3.86972e-06 0 -3.19736e-05 -2.80605e-06 0 -3.23401e-05 -1.70044e-06 0 -3.25246e-05 -5.69618e-07 0 -3.25246e-05 5.69618e-07 0 -3.23401e-05 1.70044e-06 0 -3.19736e-05 2.80605e-06 0 -3.14303e-05 3.86972e-06 0 -3.07182e-05 4.87497e-06 0 -2.98483e-05 5.80592e-06 0 -2.8835e-05 6.64771e-06 0 -2.76953e-05 7.38721e-06 0 -2.64496e-05 8.01372e-06 0 -2.51203e-05 8.5197e-06 0 -2.37312e-05 8.90137e-06 0 -2.23067e-05 9.15902e-06 0 -2.08704e-05 9.29697e-06 0 -1.9444e-05 9.32319e-06 0 -1.80466e-05 9.24863e-06 0 -1.66939e-05 9.08612e-06 0 -1.68691e-05 -7.79534e-06 0 -1.8147e-05 -7.91287e-06 0 -1.94575e-05 -7.95597e-06 0 -2.07864e-05 -7.91482e-06 0 -2.21168e-05 -7.7811e-06 0 -2.343e-05 -7.54883e-06 0 -2.47058e-05 -7.21483e-06 0 -2.59235e-05 -6.77895e-06 0 -2.70626e-05 -6.24415e-06 0 -2.81037e-05 -5.61629e-06 0 -2.90293e-05 -4.90379e-06 0 -2.98241e-05 -4.11707e-06 0 -3.0475e-05 -3.2681e-06 0 -3.0972e-05 -2.36993e-06 0 -3.13075e-05 -1.43625e-06 0 -3.14765e-05 -4.81137e-07 0 -3.14765e-05 4.81137e-07 0 -3.13075e-05 1.43625e-06 0 -3.0972e-05 2.36993e-06 0 -3.0475e-05 3.2681e-06 0 -2.98241e-05 4.11707e-06 0 -2.90293e-05 4.90379e-06 0 -2.81037e-05 5.61629e-06 0 -2.70626e-05 6.24415e-06 0 -2.59235e-05 6.77895e-06 0 -2.47058e-05 7.21483e-06 0 -2.343e-05 7.54883e-06 0 -2.21168e-05 7.7811e-06 0 -2.07864e-05 7.91482e-06 0 -1.94575e-05 7.95597e-06 0 -1.8147e-05 7.91287e-06 0 -1.68691e-05 7.79534e-06 0 -1.69996e-05 -6.56792e-06 0 -1.82142e-05 -6.65158e-06 0 -1.94521e-05 -6.67331e-06 0 -2.07004e-05 -6.62561e-06 0 -2.19439e-05 -6.50218e-06 0 -2.31661e-05 -6.29855e-06 0 -2.43495e-05 -6.01236e-06 0 -2.5476e-05 -5.64358e-06 0 -2.65279e-05 -5.19456e-06 0 -2.74883e-05 -4.66988e-06 0 -2.83416e-05 -4.07613e-06 0 -2.90741e-05 -3.42158e-06 0 -2.96742e-05 -2.71582e-06 0 -3.01324e-05 -1.96939e-06 0 -3.04419e-05 -1.19352e-06 0 -3.05977e-05 -3.99826e-07 0 -3.05977e-05 3.99826e-07 0 -3.04419e-05 1.19352e-06 0 -3.01324e-05 1.96939e-06 0 -2.96742e-05 2.71582e-06 0 -2.90741e-05 3.42158e-06 0 -2.83416e-05 4.07613e-06 0 -2.74883e-05 4.66988e-06 0 -2.65279e-05 5.19456e-06 0 -2.5476e-05 5.64358e-06 0 -2.43495e-05 6.01236e-06 0 -2.31661e-05 6.29855e-06 0 -2.19439e-05 6.50218e-06 0 -2.07004e-05 6.62561e-06 0 -1.94521e-05 6.67331e-06 0 -1.82142e-05 6.65158e-06 0 -1.69996e-05 6.56792e-06 0 -1.70954e-05 -5.39389e-06 0 -1.82577e-05 -5.45225e-06 0 -1.94362e-05 -5.46032e-06 0 -2.06189e-05 -5.41242e-06 0 -2.17921e-05 -5.30383e-06 0 -2.2941e-05 -5.13122e-06 0 -2.40501e-05 -4.89288e-06 0 -2.51034e-05 -4.58885e-06 0 -2.60851e-05 -4.22097e-06 0 -2.69803e-05 -3.79281e-06 0 -2.7775e-05 -3.30949e-06 0 -2.8457e-05 -2.77747e-06 0 -2.90156e-05 -2.2043e-06 0 -2.94421e-05 -1.59836e-06 0 -2.97301e-05 -9.68636e-07 0 -2.98752e-05 -3.24489e-07 0 -2.98752e-05 3.24489e-07 0 -2.97301e-05 9.68636e-07 0 -2.94421e-05 1.59836e-06 0 -2.90156e-05 2.2043e-06 0 -2.8457e-05 2.77747e-06 0 -2.7775e-05 3.30949e-06 0 -2.69803e-05 3.79281e-06 0 -2.60851e-05 4.22097e-06 0 -2.51034e-05 4.58885e-06 0 -2.40501e-05 4.89288e-06 0 -2.2941e-05 5.13122e-06 0 -2.17921e-05 5.30383e-06 0 -2.06189e-05 5.41242e-06 0 -1.94362e-05 5.46032e-06 0 -1.82577e-05 5.45225e-06 0 -1.70954e-05 5.39389e-06 0 -1.71643e-05 -4.26364e-06 0 -1.82847e-05 -4.30326e-06 0 -1.94158e-05 -4.30349e-06 0 -2.05466e-05 -4.26014e-06 0 -2.16644e-05 -4.16976e-06 0 -2.27558e-05 -4.02991e-06 0 -2.38065e-05 -3.83938e-06 0 -2.48023e-05 -3.59825e-06 0 -2.5729e-05 -3.30794e-06 0 -2.65729e-05 -2.97113e-06 0 -2.73216e-05 -2.59173e-06 0 -2.79636e-05 -2.17465e-06 0 -2.84893e-05 -1.72565e-06 0 -2.88907e-05 -1.25119e-06 0 -2.91616e-05 -7.58213e-07 0 -2.92982e-05 -2.53994e-07 0 -2.92982e-05 2.53994e-07 0 -2.91616e-05 7.58213e-07 0 -2.88907e-05 1.25119e-06 0 -2.84893e-05 1.72565e-06 0 -2.79636e-05 2.17465e-06 0 -2.73216e-05 2.59173e-06 0 -2.65729e-05 2.97113e-06 0 -2.5729e-05 3.30794e-06 0 -2.48023e-05 3.59825e-06 0 -2.38065e-05 3.83938e-06 0 -2.27558e-05 4.02991e-06 0 -2.16644e-05 4.16976e-06 0 -2.05466e-05 4.26014e-06 0 -1.94158e-05 4.30349e-06 0 -1.82847e-05 4.30326e-06 0 -1.71643e-05 4.26364e-06 0 -1.72123e-05 -3.16793e-06 0 -1.83005e-05 -3.19368e-06 0 -1.93957e-05 -3.19038e-06 0 -2.04871e-05 -3.15508e-06 0 -2.15631e-05 -3.08534e-06 0 -2.26111e-05 -2.9795e-06 0 -2.3618e-05 -2.83671e-06 0 -2.45706e-05 -2.65706e-06 0 -2.54558e-05 -2.44158e-06 0 -2.62611e-05 -2.19223e-06 0 -2.6975e-05 -1.9118e-06 0 -2.75868e-05 -1.60385e-06 0 -2.80876e-05 -1.27255e-06 0 -2.84699e-05 -9.22599e-07 0 -2.8728e-05 -5.59064e-07 0 -2.8858e-05 -1.87277e-07 0 -2.8858e-05 1.87277e-07 0 -2.8728e-05 5.59064e-07 0 -2.84699e-05 9.22599e-07 0 -2.80876e-05 1.27255e-06 0 -2.75868e-05 1.60385e-06 0 -2.6975e-05 1.9118e-06 0 -2.62611e-05 2.19223e-06 0 -2.54558e-05 2.44158e-06 0 -2.45706e-05 2.65706e-06 0 -2.3618e-05 2.83671e-06 0 -2.26111e-05 2.9795e-06 0 -2.15631e-05 3.08534e-06 0 -2.04871e-05 3.15508e-06 0 -1.93957e-05 3.19038e-06 0 -1.83005e-05 3.19368e-06 0 -1.72123e-05 3.16793e-06 0 -1.72437e-05 -2.09785e-06 0 -1.83092e-05 -2.11318e-06 0 -1.9379e-05 -2.10938e-06 0 -2.04429e-05 -2.08456e-06 0 -2.14897e-05 -2.03718e-06 0 -2.25074e-05 -1.96618e-06 0 -2.34837e-05 -1.87105e-06 0 -2.44062e-05 -1.75185e-06 0 -2.52626e-05 -1.60925e-06 0 -2.60411e-05 -1.44454e-06 0 -2.67306e-05 -1.25951e-06 0 -2.73214e-05 -1.05648e-06 0 -2.78048e-05 -8.38167e-07 0 -2.81737e-05 -6.07633e-07 0 -2.84227e-05 -3.68191e-07 0 -2.85482e-05 -1.23336e-07 0 -2.85482e-05 1.23336e-07 0 -2.84227e-05 3.68191e-07 0 -2.81737e-05 6.07633e-07 0 -2.78048e-05 8.38167e-07 0 -2.73214e-05 1.05648e-06 0 -2.67306e-05 1.25951e-06 0 -2.60411e-05 1.44454e-06 0 -2.52626e-05 1.60925e-06 0 -2.44062e-05 1.75185e-06 0 -2.34837e-05 1.87105e-06 0 -2.25074e-05 1.96618e-06 0 -2.14897e-05 2.03718e-06 0 -2.04429e-05 2.08456e-06 0 -1.9379e-05 2.10938e-06 0 -1.83092e-05 2.11318e-06 0 -1.72437e-05 2.09785e-06 0 -1.72614e-05 -1.04471e-06 0 -1.83134e-05 -1.05184e-06 0 -1.93682e-05 -1.04947e-06 0 -2.04158e-05 -1.03668e-06 0 -2.14453e-05 -1.01273e-06 0 -2.24451e-05 -9.77106e-07 0 -2.34034e-05 -9.29557e-07 0 -2.43081e-05 -8.70124e-07 0 -2.51475e-05 -7.99141e-07 0 -2.591e-05 -7.17231e-07 0 -2.65853e-05 -6.25288e-07 0 -2.71636e-05 -5.24447e-07 0 -2.76367e-05 -4.16049e-07 0 -2.79977e-05 -3.01604e-07 0 -2.82413e-05 -1.82751e-07 0 -2.83641e-05 -6.12167e-08 0 -2.83641e-05 6.12167e-08 0 -2.82413e-05 1.82751e-07 0 -2.79977e-05 3.01604e-07 0 -2.76367e-05 4.16049e-07 0 -2.71636e-05 5.24447e-07 0 -2.65853e-05 6.25288e-07 0 -2.591e-05 7.17231e-07 0 -2.51475e-05 7.99141e-07 0 -2.43081e-05 8.70124e-07 0 -2.34034e-05 9.29557e-07 0 -2.24451e-05 9.77106e-07 0 -2.14453e-05 1.01273e-06 0 -2.04158e-05 1.03668e-06 0 -1.93682e-05 1.04947e-06 0 -1.83134e-05 1.05184e-06 0 -1.72614e-05 1.04471e-06 0 -1.72671e-05 -0 0 -1.83146e-05 -0 0 -1.93644e-05 -0 0 -2.04066e-05 -0 0 -2.14304e-05 -0 0 -2.24243e-05 -0 0 -2.33766e-05 -0 0 -2.42755e-05 -0 0 -2.51092e-05 -0 0 -2.58665e-05 -0 0 -2.6537e-05 -0 0 -2.71112e-05 -0 0 -2.75809e-05 -0 0 -2.79393e-05 -0 0 -2.81812e-05 -0 0 -2.8303e-05 -0 0 -2.8303e-05 -0 0 -2.81812e-05 -0 0 -2.79393e-05 -0 0 -2.75809e-05 -0 0 -2.71112e-05 -0 0 -2.6537e-05 -0 0 -2.58665e-05 -0 0 -2.51092e-05 -0 0 -2.42755e-05 -0 0 -2.33766e-05 -0 0 -2.24243e-05 -0 0 -2.14304e-05 -0 0 -2.04066e-05 -0 0 -1.93644e-05 -0 0 -1.83146e-05 -0 0 -1.72671e-05 -0 0 </DataArray> 
</PointData> 
<Points> 
<DataArray type="Float32" NumberOfComponents="3"> 