<?xml version="1.0"?> 
<VTKFile type="StructuredGrid" version="0.1"> 
<StructuredGrid WholeExtent="0 31 0 31 0 0"> 
<Piece Extent="0 31 0 31 0 0"> 
<PointData>
<DataArray type="Float32" Name="B" format="ascii" NumberOfComponents="3"> 
-2.27792e-05 -0 0 -2.4157e-05 -0 0 -2.55376e-05 -0 0 -2.69079e-05 -0 0 -2.82538e-05 -0 0 -2.95603e-05 -0 0 -3.08119e-05 -0 0 -3.19931e-05 -0 0 -3.30886e-05 -0 0 -3.40837e-05 -0 0 -3.49645e-05 -0 0 -3.57189e-05 -0 0 -3.63359e-05 -0 0 -3.68067e-05 -0 0 -3.71244e-05 -0 0 -3.72844e-05 -0 0 -3.72844e-05 -0 0 -3.71244e-05 -0 0 -3.68067e-05 -0 0 -3.63359e-05 -0 0 -3.57189e-05 -0 0 -3.49645e-05 -0 0 -3.40837e-05 -0 0 -3.30886e-05 -0 0 -3.19931e-05 -0 0 -3.08119e-05 -0 0 -2.95603e-05 -0 0 -2.82538e-05 -0 0 -2.69079e-05 -0 0 -2.55376e-05 -0 0 -2.4157e-05 -0 0 -2.27792e-05 -0 0 -2.27719e-05 1.37425e-06 0 -2.41556e-05 1.38336e-06 0 -2.55427e-05 1.37999e-06 0 -2.69201e-05 1.36295e-06 0 -2.82734e-05 1.33127e-06 0 -2.95877e-05 1.28426e-06 0 -3.08471e-05 1.22162e-06 0 -3.20361e-05 1.14339e-06 0 -3.31389e-05 1.05002e-06 0 -3.41408e-05 9.42324e-07 0 -3.50279e-05 8.21472e-07 0 -3.57877e-05 6.88955e-07 0 -3.64091e-05 5.46533e-07 0 -3.68834e-05 3.96183e-07 0 -3.72034e-05 2.40054e-07 0 -3.73646e-05 8.04109e-08 0 -3.73646e-05 -8.04109e-08 0 -3.72034e-05 -2.40054e-07 0 -3.68834e-05 -3.96183e-07 0 -3.64091e-05 -5.46533e-07 0 -3.57877e-05 -6.88955e-07 0 -3.50279e-05 -8.21472e-07 0 -3.41408e-05 -9.42324e-07 0 -3.31389e-05 -1.05002e-06 0 -3.20361e-05 -1.14339e-06 0 -3.08471e-05 -1.22162e-06 0 -2.95877e-05 -1.28426e-06 0 -2.82734e-05 -1.33127e-06 0 -2.69201e-05 -1.36295e-06 0 -2.55427e-05 -1.37999e-06 0 -2.41556e-05 -1.38336e-06 0 -2.27719e-05 -1.37425e-06 0 -2.2749e-05 2.75958e-06 0 -2.41505e-05 2.7792e-06 0 -2.55573e-05 2.7737e-06 0 -2.69561e-05 2.7406e-06 0 -2.83321e-05 2.67791e-06 0 -2.96698e-05 2.58423e-06 0 -3.09529e-05 2.45889e-06 0 -3.21651e-05 2.302e-06 0 -3.32903e-05 2.11443e-06 0 -3.43131e-05 1.89785e-06 0 -3.5219e-05 1.65466e-06 0 -3.5995e-05 1.38785e-06 0 -3.663e-05 1.10102e-06 0 -3.71146e-05 7.98165e-07 0 -3.74417e-05 4.83633e-07 0 -3.76065e-05 1.62005e-07 0 -3.76065e-05 -1.62005e-07 0 -3.74417e-05 -4.83633e-07 0 -3.71146e-05 -7.98165e-07 0 -3.663e-05 -1.10102e-06 0 -3.5995e-05 -1.38785e-06 0 -3.5219e-05 -1.65466e-06 0 -3.43131e-05 -1.89785e-06 0 -3.32903e-05 -2.11443e-06 0 -3.21651e-05 -2.302e-06 0 -3.09529e-05 -2.45889e-06 0 -2.96698e-05 -2.58423e-06 0 -2.83321e-05 -2.67791e-06 0 -2.69561e-05 -2.7406e-06 0 -2.55573e-05 -2.7737e-06 0 -2.41505e-05 -2.7792e-06 0 -2.2749e-05 -2.75958e-06 0 -2.27085e-05 4.16717e-06 0 -2.41397e-05 4.20019e-06 0 -2.55798e-05 4.19508e-06 0 -2.70147e-05 4.14796e-06 0 -2.84291e-05 4.05565e-06 0 -2.98065e-05 3.91598e-06 0 -3.11297e-05 3.72785e-06 0 -3.23814e-05 3.4914e-06 0 -3.35444e-05 3.20797e-06 0 -3.46024e-05 2.88012e-06 0 -3.55401e-05 2.51153e-06 0 -3.63438e-05 2.10686e-06 0 -3.70016e-05 1.67159e-06 0 -3.75037e-05 1.21186e-06 0 -3.78427e-05 7.34333e-07 0 -3.80134e-05 2.45987e-07 0 -3.80134e-05 -2.45987e-07 0 -3.78427e-05 -7.34333e-07 0 -3.75037e-05 -1.21186e-06 0 -3.70016e-05 -1.67159e-06 0 -3.63438e-05 -2.10686e-06 0 -3.55401e-05 -2.51153e-06 0 -3.46024e-05 -2.88012e-06 0 -3.35444e-05 -3.20797e-06 0 -3.23814e-05 -3.4914e-06 0 -3.11297e-05 -3.72785e-06 0 -2.98065e-05 -3.91598e-06 0 -2.84291e-05 -4.05565e-06 0 -2.70147e-05 -4.14796e-06 0 -2.55798e-05 -4.19508e-06 0 -2.41397e-05 -4.20019e-06 0 -2.27085e-05 -4.16717e-06 0 -2.26464e-05 5.60841e-06 0 -2.41198e-05 5.65937e-06 0 -2.56072e-05 5.65861e-06 0 -2.70937e-05 5.60064e-06 0 -2.8563e-05 5.48095e-06 0 -2.99973e-05 5.29639e-06 0 -3.1378e-05 5.04536e-06 0 -3.26863e-05 4.72798e-06 0 -3.39037e-05 4.34611e-06 0 -3.50123e-05 3.90329e-06 0 -3.59956e-05 3.40463e-06 0 -3.68389e-05 2.85658e-06 0 -3.75293e-05 2.26669e-06 0 -3.80564e-05 1.64343e-06 0 -3.84123e-05 9.95884e-07 0 -3.85916e-05 3.33608e-07 0 -3.85916e-05 -3.33608e-07 0 -3.84123e-05 -9.95884e-07 0 -3.80564e-05 -1.64343e-06 0 -3.75293e-05 -2.26669e-06 0 -3.68389e-05 -2.85658e-06 0 -3.59956e-05 -3.40463e-06 0 -3.50123e-05 -3.90329e-06 0 -3.39037e-05 -4.34611e-06 0 -3.26863e-05 -4.72798e-06 0 -3.1378e-05 -5.04536e-06 0 -2.99973e-05 -5.29639e-06 0 -2.8563e-05 -5.48095e-06 0 -2.70937e-05 -5.60064e-06 0 -2.56072e-05 -5.65861e-06 0 -2.41198e-05 -5.65937e-06 0 -2.26464e-05 -5.60841e-06 0 -2.2557e-05 7.09505e-06 0 -2.40856e-05 7.17031e-06 0 -2.56351e-05 7.17952e-06 0 -2.71898e-05 7.11527e-06 0 -2.87318e-05 6.97139e-06 0 -3.02415e-05 6.74354e-06 0 -3.16987e-05 6.4295e-06 0 -3.30824e-05 6.02933e-06 0 -3.4372e-05 5.54545e-06 0 -3.55477e-05 4.98254e-06 0 -3.65915e-05 4.34732e-06 0 -3.74871e-05 3.64827e-06 0 -3.82206e-05 2.89528e-06 0 -3.87807e-05 2.09934e-06 0 -3.91589e-05 1.27221e-06 0 -3.93495e-05 4.26181e-07 0 -3.93495e-05 -4.26181e-07 0 -3.91589e-05 -1.27221e-06 0 -3.87807e-05 -2.09934e-06 0 -3.82206e-05 -2.89528e-06 0 -3.74871e-05 -3.64827e-06 0 -3.65915e-05 -4.34732e-06 0 -3.55477e-05 -4.98254e-06 0 -3.4372e-05 -5.54545e-06 0 -3.30824e-05 -6.02933e-06 0 -3.16987e-05 -6.4295e-06 0 -3.02415e-05 -6.74354e-06 0 -2.87318e-05 -6.97139e-06 0 -2.71898e-05 -7.11527e-06 0 -2.56351e-05 -7.17952e-06 0 -2.40856e-05 -7.17031e-06 0 -2.2557e-05 -7.09505e-06 0 -2.24327e-05 8.63922e-06 0 -2.403e-05 8.74734e-06 0 -2.56576e-05 8.77415e-06 0 -2.72983e-05 8.70982e-06 0 -2.89325e-05 8.54615e-06 0 -3.05384e-05 8.27728e-06 0 -3.2093e-05 7.90016e-06 0 -3.35727e-05 7.41476e-06 0 -3.49543e-05 6.82417e-06 0 -3.62155e-05 6.13439e-06 0 -3.7336e-05 5.35409e-06 0 -3.82979e-05 4.49409e-06 0 -3.90858e-05 3.56696e-06 0 -3.96875e-05 2.58652e-06 0 -4.00937e-05 1.56749e-06 0 -4.02984e-05 5.25102e-07 0 -4.02984e-05 -5.25102e-07 0 -4.00937e-05 -1.56749e-06 0 -3.96875e-05 -2.58652e-06 0 -3.90858e-05 -3.56696e-06 0 -3.82979e-05 -4.49409e-06 0 -3.7336e-05 -5.35409e-06 0 -3.62155e-05 -6.13439e-06 0 -3.49543e-05 -6.82417e-06 0 -3.35727e-05 -7.41476e-06 0 -3.2093e-05 -7.90016e-06 0 -3.05384e-05 -8.27728e-06 0 -2.89325e-05 -8.54615e-06 0 -2.72983e-05 -8.70982e-06 0 -2.56576e-05 -8.77415e-06 0 -2.403e-05 -8.74734e-06 0 -2.24327e-05 -8.63922e-06 0 -2.22633e-05 1.02535e-05 0 -2.39437e-05 1.04057e-05 0 -2.56665e-05 1.04602e-05 0 -2.7413e-05 1.04041e-05 0 -2.91612e-05 1.02266e-05 0 -3.08864e-05 9.91979e-06 0 -3.25622e-05 9.47962e-06 0 -3.41614e-05 8.9059e-06 0 -3.56572e-05 8.20251e-06 0 -3.70243e-05 7.37715e-06 0 -3.82397e-05 6.44084e-06 0 -3.92831e-05 5.40725e-06 0 -4.01377e-05 4.29208e-06 0 -4.07902e-05 3.1124e-06 0 -4.12307e-05 1.88617e-06 0 -4.14525e-05 6.31853e-07 0 -4.14525e-05 -6.31853e-07 0 -4.12307e-05 -1.88617e-06 0 -4.07902e-05 -3.1124e-06 0 -4.01377e-05 -4.29208e-06 0 -3.92831e-05 -5.40725e-06 0 -3.82397e-05 -6.44084e-06 0 -3.70243e-05 -7.37715e-06 0 -3.56572e-05 -8.20251e-06 0 -3.41614e-05 -8.9059e-06 0 -3.25622e-05 -9.47962e-06 0 -3.08864e-05 -9.91979e-06 0 -2.91612e-05 -1.02266e-05 0 -2.7413e-05 -1.04041e-05 0 -2.56665e-05 -1.04602e-05 0 -2.39437e-05 -1.04057e-05 0 -2.22633e-05 -1.02535e-05 0 -2.20357e-05 1.19511e-05 0 -2.38143e-05 1.21619e-05 0 -2.56512e-05 1.22572e-05 0 -2.75257e-05 1.22203e-05 0 -2.94127e-05 1.20368e-05 0 -3.12838e-05 1.16964e-05 0 -3.31081e-05 1.11933e-05 0 -3.48537e-05 1.05273e-05 0 -3.64892e-05 9.70337e-06 0 -3.79854e-05 8.73132e-06 0 -3.93158e-05 7.6252e-06 0 -4.04576e-05 6.40223e-06 0 -4.13924e-05 5.08185e-06 0 -4.21056e-05 3.68491e-06 0 -4.25867e-05 2.23298e-06 0 -4.28289e-05 7.48004e-07 0 -4.28289e-05 -7.48004e-07 0 -4.25867e-05 -2.23298e-06 0 -4.21056e-05 -3.68491e-06 0 -4.13924e-05 -5.08185e-06 0 -4.04576e-05 -6.40223e-06 0 -3.93158e-05 -7.6252e-06 0 -3.79854e-05 -8.73132e-06 0 -3.64892e-05 -9.70337e-06 0 -3.48537e-05 -1.05273e-05 0 -3.31081e-05 -1.11933e-05 0 -3.12838e-05 -1.16964e-05 0 -2.94127e-05 -1.20368e-05 0 -2.75257e-05 -1.22203e-05 0 -2.56512e-05 -1.22572e-05 0 -2.38143e-05 -1.21619e-05 0 -2.20357e-05 -1.19511e-05 0 -2.17328e-05 1.37455e-05 0 -2.36258e-05 1.40336e-05 0 -2.55975e-05 1.4187e-05 0 -2.76251e-05 1.41837e-05 0 -2.96797e-05 1.40048e-05 0 -3.17278e-05 1.36364e-05 0 -3.37329e-05 1.30709e-05 0 -3.56564e-05 1.23076e-05 0 -3.74613e-05 1.1353e-05 0 -3.91131e-05 1.02201e-05 0 -4.05812e-05 8.92679e-06 0 -4.184e-05 7.49484e-06 0 -4.28693e-05 5.94831e-06 0 -4.36537e-05 4.31244e-06 0 -4.41823e-05 2.61287e-06 0 -4.44483e-05 8.75184e-07 0 -4.44483e-05 -8.75184e-07 0 -4.41823e-05 -2.61287e-06 0 -4.36537e-05 -4.31244e-06 0 -4.28693e-05 -5.94831e-06 0 -4.184e-05 -7.49484e-06 0 -4.05812e-05 -8.92679e-06 0 -3.91131e-05 -1.02201e-05 0 -3.74613e-05 -1.1353e-05 0 -3.56564e-05 -1.23076e-05 0 -3.37329e-05 -1.30709e-05 0 -3.17278e-05 -1.36364e-05 0 -2.96797e-05 -1.40048e-05 0 -2.76251e-05 -1.41837e-05 0 -2.55975e-05 -1.4187e-05 0 -2.36258e-05 -1.40336e-05 0 -2.17328e-05 -1.37455e-05 0 -2.13333e-05 1.56506e-05 0 -2.33575e-05 1.604e-05 0 -2.54871e-05 1.62739e-05 0 -2.76966e-05 1.63235e-05 0 -2.99526e-05 1.61635e-05 0 -3.22149e-05 1.57748e-05 0 -3.44387e-05 1.51473e-05 0 -3.65779e-05 1.42801e-05 0 -3.8587e-05 1.3182e-05 0 -4.0425e-05 1.18699e-05 0 -4.20564e-05 1.03674e-05 0 -4.34526e-05 8.70221e-06 0 -4.45917e-05 6.90416e-06 0 -4.5458e-05 5.00367e-06 0 -4.60409e-05 3.03084e-06 0 -4.63338e-05 1.01503e-06 0 -4.63338e-05 -1.01503e-06 0 -4.60409e-05 -3.03084e-06 0 -4.5458e-05 -5.00367e-06 0 -4.45917e-05 -6.90416e-06 0 -4.34526e-05 -8.70221e-06 0 -4.20564e-05 -1.03674e-05 0 -4.0425e-05 -1.18699e-05 0 -3.8587e-05 -1.3182e-05 0 -3.65779e-05 -1.42801e-05 0 -3.44387e-05 -1.51473e-05 0 -3.22149e-05 -1.57748e-05 0 -2.99526e-05 -1.61635e-05 0 -2.76966e-05 -1.63235e-05 0 -2.54871e-05 -1.62739e-05 0 -2.33575e-05 -1.604e-05 0 -2.13333e-05 -1.56506e-05 0 -2.08096e-05 1.768e-05 0 -2.29824e-05 1.82018e-05 0 -2.52954e-05 1.85459e-05 0 -2.77204e-05 1.86741e-05 0 -3.02183e-05 1.8552e-05 0 -3.274e-05 1.81539e-05 0 -3.52306e-05 1.74651e-05 0 -3.76307e-05 1.64851e-05 0 -3.98857e-05 1.52258e-05 0 -4.19453e-05 1.37108e-05 0 -4.37686e-05 1.19711e-05 0 -4.53239e-05 1.00425e-05 0 -4.65885e-05 7.96236e-06 0 -4.75472e-05 5.76712e-06 0 -4.81906e-05 3.49169e-06 0 -4.85135e-05 1.16908e-06 0 -4.85135e-05 -1.16908e-06 0 -4.81906e-05 -3.49169e-06 0 -4.75472e-05 -5.76712e-06 0 -4.65885e-05 -7.96236e-06 0 -4.53239e-05 -1.00425e-05 0 -4.37686e-05 -1.19711e-05 0 -4.19453e-05 -1.37108e-05 0 -3.98857e-05 -1.52258e-05 0 -3.76307e-05 -1.64851e-05 0 -3.52306e-05 -1.74651e-05 0 -3.274e-05 -1.81539e-05 0 -3.02183e-05 -1.8552e-05 0 -2.77204e-05 -1.86741e-05 0 -2.52954e-05 -1.85459e-05 0 -2.29824e-05 -1.82018e-05 0 -2.08096e-05 -1.768e-05 0 -2.01268e-05 1.98466e-05 0 -2.24653e-05 2.05409e-05 0 -2.49898e-05 2.10347e-05 0 -2.76699e-05 2.12763e-05 0 -3.04589e-05 2.12187e-05 0 -3.32965e-05 2.08252e-05 0 -3.61103e-05 2.00765e-05 0 -3.88288e-05 1.89711e-05 0 -4.13794e-05 1.7527e-05 0 -4.3702e-05 1.5777e-05 0 -4.57487e-05 1.37638e-05 0 -4.74856e-05 1.15344e-05 0 -4.88906e-05 9.13533e-06 0 -4.99508e-05 6.61041e-06 0 -5.06598e-05 3.99946e-06 0 -5.10148e-05 1.3386e-06 0 -5.10148e-05 -1.3386e-06 0 -5.06598e-05 -3.99946e-06 0 -4.99508e-05 -6.61041e-06 0 -4.88906e-05 -9.13533e-06 0 -4.74856e-05 -1.15344e-05 0 -4.57487e-05 -1.37638e-05 0 -4.3702e-05 -1.5777e-05 0 -4.13794e-05 -1.7527e-05 0 -3.88288e-05 -1.89711e-05 0 -3.61103e-05 -2.00765e-05 0 -3.32965e-05 -2.08252e-05 0 -3.04589e-05 -2.12187e-05 0 -2.76699e-05 -2.12763e-05 0 -2.49898e-05 -2.10347e-05 0 -2.24653e-05 -2.05409e-05 0 -2.01268e-05 -1.98466e-05 0 -1.92402e-05 2.21609e-05 0 -2.17596e-05 2.308e-05 0 -2.4526e-05 2.37762e-05 0 -2.75075e-05 2.41797e-05 0 -3.06495e-05 2.42234e-05 0 -3.38745e-05 2.38565e-05 0 -3.70924e-05 2.30477e-05 0 -4.0199e-05 2.17984e-05 0 -4.31073e-05 2.01355e-05 0 -4.57405e-05 1.81071e-05 0 -4.80445e-05 1.57728e-05 0 -4.99844e-05 1.31953e-05 0 -5.15419e-05 1.04334e-05 0 -5.27098e-05 7.53909e-06 0 -5.34869e-05 4.55671e-06 0 -5.38749e-05 1.5243e-06 0 -5.38749e-05 -1.5243e-06 0 -5.34869e-05 -4.55671e-06 0 -5.27098e-05 -7.53909e-06 0 -5.15419e-05 -1.04334e-05 0 -4.99844e-05 -1.31953e-05 0 -4.80445e-05 -1.57728e-05 0 -4.57405e-05 -1.81071e-05 0 -4.31073e-05 -2.01355e-05 0 -4.0199e-05 -2.17984e-05 0 -3.70924e-05 -2.30477e-05 0 -3.38745e-05 -2.38565e-05 0 -3.06495e-05 -2.42234e-05 0 -2.75075e-05 -2.41797e-05 0 -2.4526e-05 -2.37762e-05 0 -2.17596e-05 -2.308e-05 0 -1.92402e-05 -2.21609e-05 0 -1.80926e-05 2.46283e-05 0 -2.08036e-05 2.58405e-05 0 -2.38427e-05 2.68115e-05 0 -2.71811e-05 2.74445e-05 0 -3.0754e-05 2.76447e-05 0 -3.44621e-05 2.73304e-05 0 -3.8173e-05 2.64643e-05 0 -4.17645e-05 2.50431e-05 0 -4.51052e-05 2.31116e-05 0 -4.8104e-05 2.07432e-05 0 -5.06989e-05 1.80244e-05 0 -5.28595e-05 1.50394e-05 0 -5.4576e-05 1.18627e-05 0 -5.58519e-05 8.5547e-06 0 -5.66953e-05 5.16326e-06 0 -5.71146e-05 1.72594e-06 0 -5.71146e-05 -1.72594e-06 0 -5.66953e-05 -5.16326e-06 0 -5.58519e-05 -8.5547e-06 0 -5.4576e-05 -1.18627e-05 0 -5.28595e-05 -1.50394e-05 0 -5.06989e-05 -1.80244e-05 0 -4.8104e-05 -2.07432e-05 0 -4.51052e-05 -2.31116e-05 0 -4.17645e-05 -2.50431e-05 0 -3.8173e-05 -2.64643e-05 0 -3.44621e-05 -2.73304e-05 0 -3.0754e-05 -2.76447e-05 0 -2.71811e-05 -2.74445e-05 0 -2.38427e-05 -2.68115e-05 0 -2.08036e-05 -2.58405e-05 0 -1.80926e-05 -2.46283e-05 0 -1.66116e-05 2.72458e-05 0 -1.95142e-05 2.88395e-05 0 -2.28549e-05 3.01844e-05 0 -2.66133e-05 3.11469e-05 0 -3.07186e-05 3.15812e-05 0 -3.50386e-05 3.13743e-05 0 -3.94054e-05 3.04431e-05 0 -4.35997e-05 2.88028e-05 0 -4.74702e-05 2.65263e-05 0 -5.08933e-05 2.37296e-05 0 -5.38092e-05 2.054e-05 0 -5.61981e-05 1.7073e-05 0 -5.80694e-05 1.34209e-05 0 -5.94439e-05 9.65208e-06 0 -6.03448e-05 5.8146e-06 0 -6.07902e-05 1.94181e-06 0 -6.07902e-05 -1.94181e-06 0 -6.03448e-05 -5.8146e-06 0 -5.94439e-05 -9.65208e-06 0 -5.80694e-05 -1.34209e-05 0 -5.61981e-05 -1.7073e-05 0 -5.38092e-05 -2.054e-05 0 -5.08933e-05 -2.37296e-05 0 -4.74702e-05 -2.65263e-05 0 -4.35997e-05 -2.88028e-05 0 -3.94054e-05 -3.04431e-05 0 -3.50386e-05 -3.13743e-05 0 -3.07186e-05 -3.15812e-05 0 -2.66133e-05 -3.11469e-05 0 -2.28549e-05 -3.01844e-05 0 -1.95142e-05 -2.88395e-05 0 -1.66116e-05 -2.72458e-05 0 -1.47063e-05 2.99919e-05 0 -1.77814e-05 3.20821e-05 0 -2.1439e-05 3.39398e-05 0 -2.56891e-05 3.53764e-05 0 -3.04599e-05 3.61804e-05 0 -3.55777e-05 3.61308e-05 0 -4.07524e-05 3.51427e-05 0 -4.57369e-05 3.32074e-05 0 -5.0251e-05 3.0463e-05 0 -5.4161e-05 2.71061e-05 0 -5.7412e-05 2.33292e-05 0 -6.00185e-05 1.92875e-05 0 -6.20213e-05 1.50924e-05 0 -6.34705e-05 1.08156e-05 0 -6.44099e-05 6.49982e-06 0 -6.48714e-05 2.16798e-06 0 -6.48714e-05 -2.16798e-06 0 -6.44099e-05 -6.49982e-06 0 -6.34705e-05 -1.08156e-05 0 -6.20213e-05 -1.50924e-05 0 -6.00185e-05 -1.92875e-05 0 -5.7412e-05 -2.33292e-05 0 -5.4161e-05 -2.71061e-05 0 -5.0251e-05 -3.0463e-05 0 -4.57369e-05 -3.32074e-05 0 -4.07524e-05 -3.51427e-05 0 -3.55777e-05 -3.61308e-05 0 -3.04599e-05 -3.61804e-05 0 -2.56891e-05 -3.53764e-05 0 -2.1439e-05 -3.39398e-05 0 -1.77814e-05 -3.20821e-05 0 -1.47063e-05 -2.99919e-05 0 -1.2267e-05 3.28206e-05 0 -1.54571e-05 3.55483e-05 0 -1.94198e-05 3.81074e-05 0 -2.42234e-05 4.02491e-05 0 -2.9835e-05 4.162e-05 0 -3.60319e-05 4.19083e-05 0 -4.24292e-05 4.08135e-05 0 -4.84316e-05 3.84273e-05 0 -5.37402e-05 3.50102e-05 0 -5.81764e-05 3.08964e-05 0 -6.17472e-05 2.63749e-05 0 -6.45244e-05 2.1649e-05 0 -6.66076e-05 1.68404e-05 0 -6.80863e-05 1.20149e-05 0 -6.90321e-05 7.19921e-06 0 -6.94929e-05 2.39777e-06 0 -6.94929e-05 -2.39777e-06 0 -6.90321e-05 -7.19921e-06 0 -6.80863e-05 -1.20149e-05 0 -6.66076e-05 -1.68404e-05 0 -6.45244e-05 -2.1649e-05 0 -6.17472e-05 -2.63749e-05 0 -5.81764e-05 -3.08964e-05 0 -5.37402e-05 -3.50102e-05 0 -4.84316e-05 -3.84273e-05 0 -4.24292e-05 -4.08135e-05 0 -3.60319e-05 -4.19083e-05 0 -2.9835e-05 -4.162e-05 0 -2.42234e-05 -4.02491e-05 0 -1.94198e-05 -3.81074e-05 0 -1.54571e-05 -3.55483e-05 0 -1.2267e-05 -3.28206e-05 0 -9.1691e-06 3.56332e-05 0 -1.23572e-05 3.91654e-05 0 -1.65382e-05 4.26844e-05 0 -2.19204e-05 4.58674e-05 0 -2.85904e-05 4.82259e-05 0 -3.63094e-05 4.89813e-05 0 -4.42666e-05 4.78088e-05 0 -5.17129e-05 4.46966e-05 0 -5.79476e-05 4.02444e-05 0 -6.29049e-05 3.50767e-05 0 -6.67058e-05 2.96128e-05 0 -6.95538e-05 2.40828e-05 0 -7.16242e-05 1.85996e-05 0 -7.3061e-05 1.32002e-05 0 -7.39648e-05 7.88258e-06 0 -7.44011e-05 2.62088e-06 0 -7.44011e-05 -2.62088e-06 0 -7.39648e-05 -7.88258e-06 0 -7.3061e-05 -1.32002e-05 0 -7.16242e-05 -1.85996e-05 0 -6.95538e-05 -2.40828e-05 0 -6.67058e-05 -2.96128e-05 0 -6.29049e-05 -3.50767e-05 0 -5.79476e-05 -4.02444e-05 0 -5.17129e-05 -4.46966e-05 0 -4.42666e-05 -4.78088e-05 0 -3.63094e-05 -4.89813e-05 0 -2.85904e-05 -4.82259e-05 0 -2.19204e-05 -4.58674e-05 0 -1.65382e-05 -4.26844e-05 0 -1.23572e-05 -3.91654e-05 0 -9.1691e-06 -3.56332e-05 0 -5.29004e-06 3.82808e-05 0 -8.26047e-06 4.27738e-05 0 -1.24474e-05 4.75474e-05 0 -1.82706e-05 5.23139e-05 0 -2.61826e-05 5.63216e-05 0 -3.6235e-05 5.84251e-05 0 -4.71983e-05 5.68612e-05 0 -5.65891e-05 5.22767e-05 0 -6.38217e-05 4.61523e-05 0 -6.91213e-05 3.95258e-05 0 -7.29527e-05 3.28943e-05 0 -7.56858e-05 2.64598e-05 0 -7.76032e-05 2.02674e-05 0 -7.88961e-05 1.43009e-05 0 -7.96941e-05 8.50788e-06 0 -8.00746e-05 2.8238e-06 0 -8.00746e-05 -2.8238e-06 0 -7.96941e-05 -8.50788e-06 0 -7.88961e-05 -1.43009e-05 0 -7.76032e-05 -2.02674e-05 0 -7.56858e-05 -2.64598e-05 0 -7.29527e-05 -3.28943e-05 0 -6.91213e-05 -3.95258e-05 0 -6.38217e-05 -4.61523e-05 0 -5.65891e-05 -5.22767e-05 0 -4.71983e-05 -5.68612e-05 0 -3.6235e-05 -5.84251e-05 0 -2.61826e-05 -5.63216e-05 0 -1.82706e-05 -5.23139e-05 0 -1.24474e-05 -4.75474e-05 0 -8.26047e-06 -4.27738e-05 0 -5.29004e-06 -3.82808e-05 0 -5.43395e-07 4.04976e-05 0 -2.97201e-06 4.60652e-05 0 -6.7208e-06 5.23922e-05 0 -1.24973e-05 5.93133e-05 0 -2.14066e-05 6.65146e-05 0 -3.50827e-05 7.1276e-05 0 -5.15274e-05 6.90466e-05 0 -6.34623e-05 6.13106e-05 0 -7.12688e-05 5.2476e-05 0 -7.64485e-05 4.39222e-05 0 -7.99207e-05 3.59635e-05 0 -8.22694e-05 2.85803e-05 0 -8.38411e-05 2.17068e-05 0 -8.48656e-05 1.52244e-05 0 -8.54806e-05 9.02416e-06 0 -8.57693e-05 2.98936e-06 0 -8.57693e-05 -2.98936e-06 0 -8.54806e-05 -9.02416e-06 0 -8.48656e-05 -1.52244e-05 0 -8.38411e-05 -2.17068e-05 0 -8.22694e-05 -2.85803e-05 0 -7.99207e-05 -3.59635e-05 0 -7.64485e-05 -4.39222e-05 0 -7.12688e-05 -5.2476e-05 0 -6.34623e-05 -6.13106e-05 0 -5.15274e-05 -6.90466e-05 0 -3.50827e-05 -7.1276e-05 0 -2.14066e-05 -6.65146e-05 0 -1.24973e-05 -5.93133e-05 0 -6.7208e-06 -5.23922e-05 0 -2.97201e-06 -4.60652e-05 0 -5.43395e-07 -4.04976e-05 0 5.06931e-06 4.20427e-05 0 3.62088e-06 4.86163e-05 0 9.27724e-07 5.64424e-05 0 -3.66389e-06 6.62145e-05 0 -1.18126e-05 7.72565e-05 0 -2.76912e-05 9.36906e-05 0 -5.18972e-05 8.63481e-05 0 -6.38616e-05 7.08166e-05 0 -7.09581e-05 5.83632e-05 0 -7.50133e-05 4.77206e-05 0 -7.76334e-05 3.84233e-05 0 -7.92306e-05 3.02003e-05 0 -8.02509e-05 2.27471e-05 0 -8.08656e-05 1.58702e-05 0 -8.122e-05 9.37303e-06 0 -8.13793e-05 3.10062e-06 0 -8.13793e-05 -3.10062e-06 0 -8.122e-05 -9.37303e-06 0 -8.08656e-05 -1.58702e-05 0 -8.02509e-05 -2.27471e-05 0 -7.92306e-05 -3.02003e-05 0 -7.76334e-05 -3.84233e-05 0 -7.50133e-05 -4.77206e-05 0 -7.09581e-05 -5.83632e-05 0 -6.38616e-05 -7.08166e-05 0 -5.18972e-05 -8.63481e-05 0 -2.76912e-05 -9.36906e-05 0 -1.18126e-05 -7.72565e-05 0 -3.66389e-06 -6.62145e-05 0 9.27724e-07 -5.64424e-05 0 3.62088e-06 -4.86163e-05 0 5.06931e-06 -4.20427e-05 0 1.14119e-05 4.24938e-05 0 1.13344e-05 4.98446e-05 0 1.04908e-05 5.89201e-05 0 8.30394e-06 7.09629e-05 0 3.94706e-06 8.55653e-05 0 -3.42924e-06 0.00010974 0 -1.17689e-05 9.92926e-05 0 -1.8385e-05 7.79557e-05 0 -2.21299e-05 6.2486e-05 0 -2.42356e-05 5.01453e-05 0 -2.53234e-05 3.98512e-05 0 -2.58802e-05 3.10393e-05 0 -2.61244e-05 2.32273e-05 0 -2.62162e-05 1.61343e-05 0 -2.62357e-05 9.50232e-06 0 -2.62349e-05 3.13927e-06 0 -2.62349e-05 -3.13927e-06 0 -2.62357e-05 -9.50232e-06 0 -2.62162e-05 -1.61343e-05 0 -2.61244e-05 -2.32273e-05 0 -2.58802e-05 -3.10393e-05 0 -2.53234e-05 -3.98512e-05 0 -2.42356e-05 -5.01453e-05 0 -2.21299e-05 -6.2486e-05 0 -1.8385e-05 -7.79557e-05 0 -1.17689e-05 -9.92926e-05 0 -3.42924e-06 -0.00010974 0 3.94706e-06 -8.55653e-05 0 8.30394e-06 -7.09629e-05 0 1.04908e-05 -5.89201e-05 0 1.13344e-05 -4.98446e-05 0 1.14119e-05 -4.24938e-05 0 1.81976e-05 4.15656e-05 0 1.98203e-05 4.92818e-05 0 2.12757e-05 5.89844e-05 0 2.24443e-05 7.20646e-05 0 2.31393e-05 8.83137e-05 0 2.32424e-05 0.000114052 0 2.28058e-05 0.000103256 0 2.2956e-05 8.03346e-05 0 2.34138e-05 6.36104e-05 0 2.4128e-05 5.05388e-05 0 2.49027e-05 3.98644e-05 0 2.56561e-05 3.08763e-05 0 2.63115e-05 2.30111e-05 0 2.68332e-05 1.59379e-05 0 2.71928e-05 9.36931e-06 0 2.73763e-05 3.09252e-06 0 2.73763e-05 -3.09252e-06 0 2.71928e-05 -9.36931e-06 0 2.68332e-05 -1.59379e-05 0 2.63115e-05 -2.30111e-05 0 2.56561e-05 -3.08763e-05 0 2.49027e-05 -3.98644e-05 0 2.4128e-05 -5.05388e-05 0 2.34138e-05 -6.36104e-05 0 2.2956e-05 -8.03346e-05 0 2.28058e-05 -0.000103256 0 2.32424e-05 -0.000114052 0 2.31393e-05 -8.83137e-05 0 2.24443e-05 -7.20646e-05 0 2.12757e-05 -5.89844e-05 0 1.98203e-05 -4.92818e-05 0 1.81976e-05 -4.15656e-05 0 2.50414e-05 3.91349e-05 0 2.84514e-05 4.66804e-05 0 3.23619e-05 5.61916e-05 0 3.70413e-05 6.89557e-05 0 4.29408e-05 8.48107e-05 0 5.03876e-05 0.000109992 0 5.84876e-05 9.95445e-05 0 6.5136e-05 7.73101e-05 0 7.0067e-05 6.11828e-05 0 7.37112e-05 4.85684e-05 0 7.64738e-05 3.82651e-05 0 7.85885e-05 2.95956e-05 0 8.01889e-05 2.20278e-05 0 8.13463e-05 1.52394e-05 0 8.2101e-05 8.95172e-06 0 8.24737e-05 2.95335e-06 0 8.24737e-05 -2.95335e-06 0 8.2101e-05 -8.95172e-06 0 8.13463e-05 -1.52394e-05 0 8.01889e-05 -2.20278e-05 0 7.85885e-05 -2.95956e-05 0 7.64738e-05 -3.82651e-05 0 7.37112e-05 -4.85684e-05 0 7.0067e-05 -6.11828e-05 0 6.5136e-05 -7.73101e-05 0 5.84876e-05 -9.95445e-05 0 5.03876e-05 -0.000109992 0 4.29408e-05 -8.48107e-05 0 3.70413e-05 -6.89557e-05 0 3.23619e-05 -5.61916e-05 0 2.84514e-05 -4.66804e-05 0 2.50414e-05 -3.91349e-05 0 3.15286e-05 3.51543e-05 0 3.66102e-05 4.20855e-05 0 4.27087e-05 5.06216e-05 0 5.04322e-05 6.1855e-05 0 6.09907e-05 7.49721e-05 0 7.66749e-05 9.72584e-05 0 9.61076e-05 8.78491e-05 0 0.000109278 6.90032e-05 0 0.000118123 5.53454e-05 0 0.000124296 4.43304e-05 0 0.000128819 3.50938e-05 0 0.000132173 2.72218e-05 0 0.000134649 2.02855e-05 0 0.000136405 1.40441e-05 0 0.000137535 8.2506e-06 0 0.000138088 2.72264e-06 0 0.000138088 -2.72264e-06 0 0.000137535 -8.2506e-06 0 0.000136405 -1.40441e-05 0 0.000134649 -2.02855e-05 0 0.000132173 -2.72218e-05 0 0.000128819 -3.50938e-05 0 0.000124296 -4.43304e-05 0 0.000118123 -5.53454e-05 0 0.000109278 -6.90032e-05 0 9.61076e-05 -8.78491e-05 0 7.66749e-05 -9.72584e-05 0 6.09907e-05 -7.49721e-05 0 5.04322e-05 -6.1855e-05 0 4.27087e-05 -5.06216e-05 0 3.66102e-05 -4.20855e-05 0 3.15286e-05 -3.51543e-05 0 3.7325e-05 2.97983e-05 0 4.37949e-05 3.57525e-05 0 5.15288e-05 4.29886e-05 0 6.11492e-05 5.15307e-05 0 7.42146e-05 6.10548e-05 0 9.44601e-05 7.07713e-05 0 0.000121976 6.72203e-05 0 0.000138242 5.68217e-05 0 0.000149399 4.70049e-05 0 0.000157167 3.82803e-05 0 0.000163001 3.06342e-05 0 0.000167315 2.38934e-05 0 0.000170521 1.78751e-05 0 0.000172785 1.23964e-05 0 0.000174241 7.29221e-06 0 0.000174953 2.40657e-06 0 0.000174953 -2.40657e-06 0 0.000174241 -7.29221e-06 0 0.000172785 -1.23964e-05 0 0.000170521 -1.78751e-05 0 0.000167315 -2.38934e-05 0 0.000163001 -3.06342e-05 0 0.000157167 -3.82803e-05 0 0.000149399 -4.70049e-05 0 0.000138242 -5.68217e-05 0 0.000121976 -6.72203e-05 0 9.44601e-05 -7.07713e-05 0 7.42146e-05 -6.10548e-05 0 6.11492e-05 -5.15307e-05 0 5.15288e-05 -4.29886e-05 0 4.37949e-05 -3.57525e-05 0 3.7325e-05 -2.97983e-05 0 4.22686e-05 2.31259e-05 0 4.98284e-05 2.81915e-05 0 5.84729e-05 3.39944e-05 0 6.87808e-05 4.01963e-05 0 8.15407e-05 4.60671e-05 0 9.72144e-05 4.97506e-05 0 0.000113524 4.86877e-05 0 0.000128041 4.37456e-05 0 0.000139143 3.74701e-05 0 0.000147686 3.11589e-05 0 0.000154206 2.52533e-05 0 0.000159198 1.98522e-05 0 0.000162924 1.49228e-05 0 0.000165587 1.0379e-05 0 0.000167302 6.11499e-06 0 0.000168143 2.01962e-06 0 0.000168143 -2.01962e-06 0 0.000167302 -6.11499e-06 0 0.000165587 -1.0379e-05 0 0.000162924 -1.49228e-05 0 0.000159198 -1.98522e-05 0 0.000154206 -2.52533e-05 0 0.000147686 -3.11589e-05 0 0.000139143 -3.74701e-05 0 0.000128041 -4.37456e-05 0 0.000113524 -4.86877e-05 0 9.72144e-05 -4.97506e-05 0 8.15407e-05 -4.60671e-05 0 6.87808e-05 -4.01963e-05 0 5.84729e-05 -3.39944e-05 0 4.98284e-05 -2.81915e-05 0 4.22686e-05 -2.31259e-05 0 4.63121e-05 1.5638e-05 0 5.48334e-05 1.97851e-05 0 6.38485e-05 2.45438e-05 0 7.39077e-05 2.90831e-05 0 8.54686e-05 3.278e-05 0 9.84584e-05 3.4724e-05 0 0.000112031 3.4298e-05 0 0.000124295 3.16885e-05 0 0.000134765 2.78461e-05 0 0.000143305 2.35833e-05 0 0.000150147 1.93486e-05 0 0.000155504 1.53311e-05 0 0.000159581 1.15826e-05 0 0.00016252 8.08059e-06 0 0.000164425 4.76929e-06 0 0.000165362 1.57638e-06 0 0.000165362 -1.57638e-06 0 0.000164425 -4.76929e-06 0 0.00016252 -8.08059e-06 0 0.000159581 -1.15826e-05 0 0.000155504 -1.53311e-05 0 0.000150147 -1.93486e-05 0 0.000143305 -2.35833e-05 0 0.000134765 -2.78461e-05 0 0.000124295 -3.16885e-05 0 0.000112031 -3.4298e-05 0 9.84584e-05 -3.4724e-05 0 8.54686e-05 -3.278e-05 0 7.39077e-05 -2.90831e-05 0 6.38485e-05 -2.45438e-05 0 5.48334e-05 -1.97851e-05 0 4.63121e-05 -1.5638e-05 0 5.01027e-05 6.27273e-06 0 5.93863e-05 1.09493e-05 0 6.81565e-05 1.53268e-05 0 7.746e-05 1.87727e-05 0 8.78407e-05 2.11776e-05 0 9.90859e-05 2.23953e-05 0 0.000110479 2.22106e-05 0 0.000121406 2.08065e-05 0 0.000131156 1.85749e-05 0 0.000139501 1.59402e-05 0 0.000146402 1.3203e-05 0 0.000151941 1.05308e-05 0 0.000156217 7.99001e-06 0 0.000159331 5.58942e-06 0 0.000161362 3.30402e-06 0 0.000162364 1.09289e-06 0 0.000162364 -1.09289e-06 0 0.000161362 -3.30402e-06 0 0.000159331 -5.58942e-06 0 0.000156217 -7.99001e-06 0 0.000151941 -1.05308e-05 0 0.000146402 -1.3203e-05 0 0.000139501 -1.59402e-05 0 0.000131156 -1.85749e-05 0 0.000121406 -2.08065e-05 0 0.000110479 -2.22106e-05 0 9.90859e-05 -2.23953e-05 0 8.78407e-05 -2.11776e-05 0 7.746e-05 -1.87727e-05 0 6.81565e-05 -1.53268e-05 0 5.93863e-05 -1.09493e-05 0 5.01027e-05 -6.27273e-06 0 5.39719e-05 -5.49824e-06 0 6.49011e-05 2.57447e-06 0 7.16971e-05 7.13962e-06 0 7.98441e-05 9.44829e-06 0 8.92329e-05 1.08161e-05 0 9.95085e-05 1.14349e-05 0 0.000110021 1.13978e-05 0 0.000120153 1.07555e-05 0 0.000129435 9.68372e-06 0 0.000137579 8.3736e-06 0 0.00014446 6.97766e-06 0 0.000150067 5.58874e-06 0 0.000154443 4.25254e-06 0 0.000157653 2.98012e-06 0 0.000159755 1.76351e-06 0 0.000160794 5.83573e-07 0 0.000160794 -5.83573e-07 0 0.000159755 -1.76351e-06 0 0.000157653 -2.98012e-06 0 0.000154443 -4.25254e-06 0 0.000150067 -5.58874e-06 0 0.00014446 -6.97766e-06 0 0.000137579 -8.3736e-06 0 0.000129435 -9.68372e-06 0 0.000120153 -1.07555e-05 0 0.000110021 -1.13978e-05 0 9.95085e-05 -1.14349e-05 0 8.92329e-05 -1.08161e-05 0 7.98441e-05 -9.44829e-06 0 7.16971e-05 -7.13962e-06 0 6.49011e-05 -2.57447e-06 0 5.39719e-05 5.49824e-06 0 7.84389e-05 -2.60978e-05 0 7.07986e-05 1.12581e-06 0 7.41935e-05 4.1049e-07 0 8.05427e-05 1.06306e-06 0 8.99627e-05 1.11206e-06 0 9.95704e-05 1.20959e-06 0 0.000109898 1.20268e-06 0 0.000119654 1.1321e-06 0 0.000128798 1.02414e-06 0 0.000136831 8.82244e-07 0 0.000143704 7.36986e-07 0 0.000149323 5.88388e-07 0 0.000153736 4.48109e-07 0 0.000156978 3.13291e-07 0 0.000159107 1.85541e-07 0 0.00016016 6.12324e-08 0 0.00016016 -6.12324e-08 0 0.000159107 -1.85541e-07 0 0.000156978 -3.13291e-07 0 0.000153736 -4.48109e-07 0 0.000149323 -5.88388e-07 0 0.000143704 -7.36986e-07 0 0.000136831 -8.82244e-07 0 0.000128798 -1.02414e-06 0 0.000119654 -1.1321e-06 0 0.000109898 -1.20268e-06 0 9.95704e-05 -1.20959e-06 0 8.99627e-05 -1.11206e-06 0 8.05427e-05 -1.06306e-06 0 7.41935e-05 -4.1049e-07 0 7.07986e-05 -1.12581e-06 0 7.84389e-05 2.60978e-05 0 </DataArray> 
</PointData> 
<Points> 
<DataArray type="Float32" NumberOfComponents="3"> 