<?xml version="1.0"?> 
<VTKFile type="StructuredGrid" version="0.1"> 
<StructuredGrid WholeExtent="0 31 0 31 0 0"> 
<Piece Extent="0 31 0 31 0 0"> 
<PointData>
<DataArray type="Float32" Name="B" format="ascii" NumberOfComponents="3"> 
3.89299e-06 5.2398e-06 0 1.23641e-05 6.1421e-07 0 1.27519e-05 -9.99287e-07 0 1.39901e-05 -1.2795e-06 0 1.52254e-05 -1.50829e-06 0 1.67608e-05 -1.59347e-06 0 1.82416e-05 -1.5884e-06 0 1.97377e-05 -1.50735e-06 0 2.11081e-05 -1.36084e-06 0 2.23586e-05 -1.18458e-06 0 2.34324e-05 -9.89802e-07 0 2.43316e-05 -7.96383e-07 0 2.50433e-05 -6.06931e-07 0 2.55734e-05 -4.26425e-07 0 2.59233e-05 -2.5242e-07 0 2.60974e-05 -8.36923e-08 0 2.60974e-05 8.36923e-08 0 2.59233e-05 2.5242e-07 0 2.55734e-05 4.26425e-07 0 2.50433e-05 6.06931e-07 0 2.43316e-05 7.96383e-07 0 2.34324e-05 9.89802e-07 0 2.23586e-05 1.18458e-06 0 2.11081e-05 1.36084e-06 0 1.97377e-05 1.50735e-06 0 1.82416e-05 1.5884e-06 0 1.67608e-05 1.59347e-06 0 1.52254e-05 1.50829e-06 0 1.39901e-05 1.2795e-06 0 1.27519e-05 9.99287e-07 0 1.23641e-05 -6.1421e-07 0 3.89299e-06 -5.2398e-06 0 9.05672e-06 -6.76984e-07 0 1.06353e-05 -1.23152e-06 0 1.21435e-05 -2.06878e-06 0 1.35563e-05 -2.64461e-06 0 1.50644e-05 -2.99467e-06 0 1.66783e-05 -3.15611e-06 0 1.83195e-05 -3.14666e-06 0 1.9898e-05 -2.98238e-06 0 2.13495e-05 -2.7042e-06 0 2.26296e-05 -2.35754e-06 0 2.37195e-05 -1.9805e-06 0 2.46143e-05 -1.59785e-06 0 2.53181e-05 -1.22314e-06 0 2.58376e-05 -8.61086e-07 0 2.61794e-05 -5.1111e-07 0 2.6349e-05 -1.69394e-07 0 2.6349e-05 1.69394e-07 0 2.61794e-05 5.1111e-07 0 2.58376e-05 8.61086e-07 0 2.53181e-05 1.22314e-06 0 2.46143e-05 1.59785e-06 0 2.37195e-05 1.9805e-06 0 2.26296e-05 2.35754e-06 0 2.13495e-05 2.7042e-06 0 1.9898e-05 2.98238e-06 0 1.83195e-05 3.14666e-06 0 1.66783e-05 3.15611e-06 0 1.50644e-05 2.99467e-06 0 1.35563e-05 2.64461e-06 0 1.21435e-05 2.06878e-06 0 1.06353e-05 1.23152e-06 0 9.05672e-06 6.76984e-07 0 8.3509e-06 -2.39983e-06 0 9.91345e-06 -2.84494e-06 0 1.14546e-05 -3.55991e-06 0 1.30448e-05 -4.19795e-06 0 1.47613e-05 -4.66605e-06 0 1.6589e-05 -4.90238e-06 0 1.84263e-05 -4.861e-06 0 2.01819e-05 -4.57347e-06 0 2.17438e-05 -4.11288e-06 0 2.30792e-05 -3.55985e-06 0 2.41838e-05 -2.97396e-06 0 2.5072e-05 -2.39048e-06 0 2.57595e-05 -1.82549e-06 0 2.62617e-05 -1.28336e-06 0 2.659e-05 -7.61159e-07 0 2.67522e-05 -2.52191e-07 0 2.67522e-05 2.52191e-07 0 2.659e-05 7.61159e-07 0 2.62617e-05 1.28336e-06 0 2.57595e-05 1.82549e-06 0 2.5072e-05 2.39048e-06 0 2.41838e-05 2.97396e-06 0 2.30792e-05 3.55985e-06 0 2.17438e-05 4.11288e-06 0 2.01819e-05 4.57347e-06 0 1.84263e-05 4.861e-06 0 1.6589e-05 4.90238e-06 0 1.47613e-05 4.66605e-06 0 1.30448e-05 4.19795e-06 0 1.14546e-05 3.55991e-06 0 9.91345e-06 2.84494e-06 0 8.3509e-06 2.39983e-06 0 7.86581e-06 -3.56183e-06 0 9.2054e-06 -4.34352e-06 0 1.071e-05 -5.13165e-06 0 1.23978e-05 -5.92511e-06 0 1.43245e-05 -6.58084e-06 0 1.6479e-05 -6.92226e-06 0 1.87233e-05 -6.83159e-06 0 2.07385e-05 -6.33868e-06 0 2.24484e-05 -5.60996e-06 0 2.38348e-05 -4.79035e-06 0 2.49406e-05 -3.96213e-06 0 2.58043e-05 -3.16251e-06 0 2.64608e-05 -2.40394e-06 0 2.69339e-05 -1.68503e-06 0 2.72408e-05 -9.977e-07 0 2.73918e-05 -3.30298e-07 0 2.73918e-05 3.30298e-07 0 2.72408e-05 9.977e-07 0 2.69339e-05 1.68503e-06 0 2.64608e-05 2.40394e-06 0 2.58043e-05 3.16251e-06 0 2.49406e-05 3.96213e-06 0 2.38348e-05 4.79035e-06 0 2.24484e-05 5.60996e-06 0 2.07385e-05 6.33868e-06 0 1.87233e-05 6.83159e-06 0 1.6479e-05 6.92226e-06 0 1.43245e-05 6.58084e-06 0 1.23978e-05 5.92511e-06 0 1.071e-05 5.13165e-06 0 9.2054e-06 4.34352e-06 0 7.86581e-06 3.56183e-06 0 7.13842e-06 -4.88453e-06 0 8.36195e-06 -5.70434e-06 0 9.78474e-06 -6.7091e-06 0 1.15024e-05 -7.78233e-06 0 1.36394e-05 -8.80071e-06 0 1.62732e-05 -9.43201e-06 0 1.90114e-05 -9.22588e-06 0 2.14375e-05 -8.32995e-06 0 2.32746e-05 -7.18642e-06 0 2.46757e-05 -6.02248e-06 0 2.57364e-05 -4.91749e-06 0 2.65438e-05 -3.89153e-06 0 2.7144e-05 -2.94154e-06 0 2.7572e-05 -2.05463e-06 0 2.78472e-05 -1.21404e-06 0 2.79821e-05 -4.01551e-07 0 2.79821e-05 4.01551e-07 0 2.78472e-05 1.21404e-06 0 2.7572e-05 2.05463e-06 0 2.7144e-05 2.94154e-06 0 2.65438e-05 3.89153e-06 0 2.57364e-05 4.91749e-06 0 2.46757e-05 6.02248e-06 0 2.32746e-05 7.18642e-06 0 2.14375e-05 8.32995e-06 0 1.90114e-05 9.22588e-06 0 1.62732e-05 9.43201e-06 0 1.36394e-05 8.80071e-06 0 1.15024e-05 7.78233e-06 0 9.78474e-06 6.7091e-06 0 8.36195e-06 5.70434e-06 0 7.13842e-06 4.88453e-06 0 6.27481e-06 -5.86865e-06 0 7.31528e-06 -6.94209e-06 0 8.58279e-06 -8.19597e-06 0 1.01803e-05 -9.67644e-06 0 1.23743e-05 -1.13232e-05 0 1.58115e-05 -1.29967e-05 0 2.05087e-05 -1.23561e-05 0 2.32527e-05 -1.05145e-05 0 2.51132e-05 -8.76172e-06 0 2.63914e-05 -7.18724e-06 0 2.73422e-05 -5.79039e-06 0 2.80389e-05 -4.54309e-06 0 2.85535e-05 -3.41553e-06 0 2.89153e-05 -2.37767e-06 0 2.91475e-05 -1.40226e-06 0 2.92607e-05 -4.63374e-07 0 2.92607e-05 4.63374e-07 0 2.91475e-05 1.40226e-06 0 2.89153e-05 2.37767e-06 0 2.85535e-05 3.41553e-06 0 2.80389e-05 4.54309e-06 0 2.73422e-05 5.79039e-06 0 2.63914e-05 7.18724e-06 0 2.51132e-05 8.76172e-06 0 2.32527e-05 1.05145e-05 0 2.05087e-05 1.23561e-05 0 1.58115e-05 1.29967e-05 0 1.23743e-05 1.13232e-05 0 1.01803e-05 9.67644e-06 0 8.58279e-06 8.19597e-06 0 7.31528e-06 6.94209e-06 0 6.27481e-06 5.86865e-06 0 5.25033e-06 -6.7648e-06 0 6.06239e-06 -7.96379e-06 0 7.05211e-06 -9.45068e-06 0 8.3248e-06 -1.13979e-05 0 1.00892e-05 -1.36668e-05 0 1.27424e-05 -1.75209e-05 0 1.60461e-05 -1.58626e-05 0 1.82636e-05 -1.25563e-05 0 1.97331e-05 -1.01411e-05 0 2.07441e-05 -8.17565e-06 0 2.14753e-05 -6.51097e-06 0 2.20115e-05 -5.07655e-06 0 2.24042e-05 -3.79938e-06 0 2.2681e-05 -2.63903e-06 0 2.28584e-05 -1.55387e-06 0 2.29451e-05 -5.13332e-07 0 2.29451e-05 5.13332e-07 0 2.28584e-05 1.55387e-06 0 2.2681e-05 2.63903e-06 0 2.24042e-05 3.79938e-06 0 2.20115e-05 5.07655e-06 0 2.14753e-05 6.51097e-06 0 2.07441e-05 8.17565e-06 0 1.97331e-05 1.01411e-05 0 1.82636e-05 1.25563e-05 0 1.60461e-05 1.58626e-05 0 1.27424e-05 1.75209e-05 0 1.00892e-05 1.36668e-05 0 8.3248e-06 1.13979e-05 0 7.05211e-06 9.45068e-06 0 6.06239e-06 7.96379e-06 0 5.25033e-06 6.7648e-06 0 4.10721e-06 -7.36872e-06 0 4.63865e-06 -8.69799e-06 0 5.25559e-06 -1.0352e-05 0 6.00569e-06 -1.25654e-05 0 6.96741e-06 -1.5309e-05 0 8.19763e-06 -1.96654e-05 0 9.54178e-06 -1.78275e-05 0 1.06355e-05 -1.3935e-05 0 1.14341e-05 -1.1095e-05 0 1.20137e-05 -8.85753e-06 0 1.24461e-05 -7.01454e-06 0 1.27728e-05 -5.44946e-06 0 1.30177e-05 -4.07103e-06 0 1.31937e-05 -2.8244e-06 0 1.33079e-05 -1.66227e-06 0 1.33642e-05 -5.48941e-07 0 1.33642e-05 5.48941e-07 0 1.33079e-05 1.66227e-06 0 1.31937e-05 2.8244e-06 0 1.30177e-05 4.07103e-06 0 1.27728e-05 5.44946e-06 0 1.24461e-05 7.01454e-06 0 1.20137e-05 8.85753e-06 0 1.14341e-05 1.1095e-05 0 1.06355e-05 1.3935e-05 0 9.54178e-06 1.78275e-05 0 8.19763e-06 1.96654e-05 0 6.96741e-06 1.5309e-05 0 6.00569e-06 1.25654e-05 0 5.25559e-06 1.0352e-05 0 4.63865e-06 8.69799e-06 0 4.10721e-06 7.36872e-06 0 2.90646e-06 -7.74576e-06 0 3.13361e-06 -9.09029e-06 0 3.33077e-06 -1.07781e-05 0 3.4775e-06 -1.30457e-05 0 3.54175e-06 -1.58576e-05 0 3.50348e-06 -2.03112e-05 0 3.3724e-06 -1.84139e-05 0 3.34504e-06 -1.44045e-05 0 3.37401e-06 -1.14645e-05 0 3.45154e-06 -9.15248e-06 0 3.54457e-06 -7.25093e-06 0 3.63976e-06 -5.63724e-06 0 3.72443e-06 -4.21442e-06 0 3.79283e-06 -2.92595e-06 0 3.84035e-06 -1.72287e-06 0 3.86472e-06 -5.69125e-07 0 3.86472e-06 5.69125e-07 0 3.84035e-06 1.72287e-06 0 3.79283e-06 2.92595e-06 0 3.72443e-06 4.21442e-06 0 3.63976e-06 5.63724e-06 0 3.54457e-06 7.25093e-06 0 3.45154e-06 9.15248e-06 0 3.37401e-06 1.14645e-05 0 3.34504e-06 1.44045e-05 0 3.3724e-06 1.84139e-05 0 3.50348e-06 2.03112e-05 0 3.54175e-06 1.58576e-05 0 3.4775e-06 1.30457e-05 0 3.33077e-06 1.07781e-05 0 3.13361e-06 9.09029e-06 0 2.90646e-06 7.74576e-06 0 1.7163e-06 -7.85105e-06 0 1.6551e-06 -9.13666e-06 0 1.45898e-06 -1.07138e-05 0 1.02881e-06 -1.2801e-05 0 2.2169e-07 -1.5327e-05 0 -1.10934e-06 -1.95097e-05 0 -2.60656e-06 -1.76744e-05 0 -3.80264e-06 -1.39424e-05 0 -4.49741e-06 -1.12236e-05 0 -4.90395e-06 -9.04275e-06 0 -5.12933e-06 -7.21235e-06 0 -5.25739e-06 -5.63503e-06 0 -5.32552e-06 -4.22776e-06 0 -5.36108e-06 -2.94254e-06 0 -5.3777e-06 -1.73537e-06 0 -5.38422e-06 -5.73699e-07 0 -5.38422e-06 5.73699e-07 0 -5.3777e-06 1.73537e-06 0 -5.36108e-06 2.94254e-06 0 -5.32552e-06 4.22776e-06 0 -5.25739e-06 5.63503e-06 0 -5.12933e-06 7.21235e-06 0 -4.90395e-06 9.04275e-06 0 -4.49741e-06 1.12236e-05 0 -3.80264e-06 1.39424e-05 0 -2.60656e-06 1.76744e-05 0 -1.10934e-06 1.95097e-05 0 2.2169e-07 1.5327e-05 0 1.02881e-06 1.2801e-05 0 1.45898e-06 1.07138e-05 0 1.6551e-06 9.13666e-06 0 1.7163e-06 7.85105e-06 0 6.07039e-07 -7.73115e-06 0 3.12172e-07 -8.87666e-06 0 -1.99962e-07 -1.02362e-05 0 -1.04244e-06 -1.19285e-05 0 -2.50272e-06 -1.38365e-05 0 -5.30478e-06 -1.66757e-05 0 -9.55174e-06 -1.53811e-05 0 -1.16712e-05 -1.26595e-05 0 -1.29428e-05 -1.04674e-05 0 -1.3683e-05 -8.58523e-06 0 -1.41702e-05 -6.93241e-06 0 -1.44752e-05 -5.46243e-06 0 -1.46751e-05 -4.12299e-06 0 -1.47992e-05 -2.88118e-06 0 -1.48725e-05 -1.70353e-06 0 -1.49061e-05 -5.63843e-07 0 -1.49061e-05 5.63843e-07 0 -1.48725e-05 1.70353e-06 0 -1.47992e-05 2.88118e-06 0 -1.46751e-05 4.12299e-06 0 -1.44752e-05 5.46243e-06 0 -1.41702e-05 6.93241e-06 0 -1.3683e-05 8.58523e-06 0 -1.29428e-05 1.04674e-05 0 -1.16712e-05 1.26595e-05 0 -9.55174e-06 1.53811e-05 0 -5.30478e-06 1.66757e-05 0 -2.50272e-06 1.38365e-05 0 -1.04244e-06 1.19285e-05 0 -1.99962e-07 1.02362e-05 0 3.12172e-07 8.87666e-06 0 6.07039e-07 7.73115e-06 0 -3.74453e-07 -7.42129e-06 0 -8.34808e-07 -8.39219e-06 0 -1.52572e-06 -9.49023e-06 0 -2.56934e-06 -1.06872e-05 0 -4.15697e-06 -1.19284e-05 0 -6.57181e-06 -1.27416e-05 0 -9.46629e-06 -1.23363e-05 0 -1.1576e-05 -1.09704e-05 0 -1.29664e-05 -9.40952e-06 0 -1.38978e-05 -7.89342e-06 0 -1.45292e-05 -6.477e-06 0 -1.49616e-05 -5.15731e-06 0 -1.52546e-05 -3.92342e-06 0 -1.54479e-05 -2.75531e-06 0 -1.55651e-05 -1.63463e-06 0 -1.56204e-05 -5.41735e-07 0 -1.56204e-05 5.41735e-07 0 -1.55651e-05 1.63463e-06 0 -1.54479e-05 2.75531e-06 0 -1.52546e-05 3.92342e-06 0 -1.49616e-05 5.15731e-06 0 -1.45292e-05 6.477e-06 0 -1.38978e-05 7.89342e-06 0 -1.29664e-05 9.40952e-06 0 -1.1576e-05 1.09704e-05 0 -9.46629e-06 1.23363e-05 0 -6.57181e-06 1.27416e-05 0 -4.15697e-06 1.19284e-05 0 -2.56934e-06 1.06872e-05 0 -1.52572e-06 9.49023e-06 0 -8.34808e-07 8.39219e-06 0 -3.74453e-07 7.42129e-06 0 -1.20316e-06 -7.00094e-06 0 -1.75411e-06 -7.78308e-06 0 -2.51716e-06 -8.61068e-06 0 -3.56481e-06 -9.43325e-06 0 -4.97511e-06 -1.01202e-05 0 -6.75653e-06 -1.04726e-05 0 -8.69503e-06 -1.01843e-05 0 -1.03589e-05 -9.36758e-06 0 -1.16458e-05 -8.27983e-06 0 -1.25945e-05 -7.10143e-06 0 -1.32851e-05 -5.91901e-06 0 -1.37814e-05 -4.76802e-06 0 -1.41322e-05 -3.65671e-06 0 -1.43704e-05 -2.58277e-06 0 -1.45181e-05 -1.5376e-06 0 -1.45889e-05 -5.10512e-07 0 -1.45889e-05 5.10512e-07 0 -1.45181e-05 1.5376e-06 0 -1.43704e-05 2.58277e-06 0 -1.41322e-05 3.65671e-06 0 -1.37814e-05 4.76802e-06 0 -1.32851e-05 5.91901e-06 0 -1.25945e-05 7.10143e-06 0 -1.16458e-05 8.27983e-06 0 -1.03589e-05 9.36758e-06 0 -8.69503e-06 1.01843e-05 0 -6.75653e-06 1.04726e-05 0 -4.97511e-06 1.01202e-05 0 -3.56481e-06 9.43325e-06 0 -2.51716e-06 8.61068e-06 0 -1.75411e-06 7.78308e-06 0 -1.20316e-06 7.00094e-06 0 -1.88015e-06 -6.50799e-06 0 -2.46552e-06 -7.12263e-06 0 -3.2241e-06 -7.73171e-06 0 -4.1916e-06 -8.27918e-06 0 -5.38259e-06 -8.68008e-06 0 -6.75516e-06 -8.79919e-06 0 -8.16804e-06 -8.58013e-06 0 -9.49071e-06 -8.02091e-06 0 -1.0601e-05 -7.22579e-06 0 -1.14872e-05 -6.30345e-06 0 -1.21697e-05 -5.32694e-06 0 -1.26836e-05 -4.33653e-06 0 -1.3059e-05 -3.35222e-06 0 -1.33206e-05 -2.38083e-06 0 -1.34857e-05 -1.42246e-06 0 -1.35656e-05 -4.73079e-07 0 -1.35656e-05 4.73079e-07 0 -1.34857e-05 1.42246e-06 0 -1.33206e-05 2.38083e-06 0 -1.3059e-05 3.35222e-06 0 -1.26836e-05 4.33653e-06 0 -1.21697e-05 5.32694e-06 0 -1.14872e-05 6.30345e-06 0 -1.0601e-05 7.22579e-06 0 -9.49071e-06 8.02091e-06 0 -8.16804e-06 8.58013e-06 0 -6.75516e-06 8.79919e-06 0 -5.38259e-06 8.68008e-06 0 -4.1916e-06 8.27918e-06 0 -3.2241e-06 7.73171e-06 0 -2.46552e-06 7.12263e-06 0 -1.88015e-06 6.50799e-06 0 -2.42011e-06 -5.98986e-06 0 -3.00309e-06 -6.46375e-06 0 -3.72076e-06 -6.90569e-06 0 -4.58464e-06 -7.27228e-06 0 -5.58866e-06 -7.50207e-06 0 -6.69371e-06 -7.54087e-06 0 -7.83257e-06 -7.33653e-06 0 -8.90145e-06 -6.90504e-06 0 -9.84807e-06 -6.29175e-06 0 -1.0641e-05 -5.5549e-06 0 -1.12812e-05 -4.74486e-06 0 -1.17807e-05 -3.89723e-06 0 -1.21566e-05 -3.03348e-06 0 -1.24242e-05 -2.16537e-06 0 -1.25957e-05 -1.29796e-06 0 -1.26794e-05 -4.32379e-07 0 -1.26794e-05 4.32379e-07 0 -1.25957e-05 1.29796e-06 0 -1.24242e-05 2.16537e-06 0 -1.21566e-05 3.03348e-06 0 -1.17807e-05 3.89723e-06 0 -1.12812e-05 4.74486e-06 0 -1.0641e-05 5.5549e-06 0 -9.84807e-06 6.29175e-06 0 -8.90145e-06 6.90504e-06 0 -7.83257e-06 7.33653e-06 0 -6.69371e-06 7.54087e-06 0 -5.58866e-06 7.50207e-06 0 -4.58464e-06 7.27228e-06 0 -3.72076e-06 6.90569e-06 0 -3.00309e-06 6.46375e-06 0 -2.42011e-06 5.98986e-06 0 -2.84491e-06 -5.47121e-06 0 -3.40537e-06 -5.83383e-06 0 -4.06745e-06 -6.15365e-06 0 -4.8325e-06 -6.39784e-06 0 -5.68771e-06 -6.5296e-06 0 -6.60257e-06 -6.5105e-06 0 -7.52638e-06 -6.32586e-06 0 -8.41584e-06 -5.9742e-06 0 -9.22197e-06 -5.47963e-06 0 -9.92122e-06 -4.87642e-06 0 -1.05038e-05 -4.19825e-06 0 -1.09718e-05 -3.47226e-06 0 -1.13323e-05 -2.7181e-06 0 -1.15936e-05 -1.94852e-06 0 -1.17633e-05 -1.1713e-06 0 -1.18467e-05 -3.90732e-07 0 -1.18467e-05 3.90732e-07 0 -1.17633e-05 1.1713e-06 0 -1.15936e-05 1.94852e-06 0 -1.13323e-05 2.7181e-06 0 -1.09718e-05 3.47226e-06 0 -1.05038e-05 4.19825e-06 0 -9.92122e-06 4.87642e-06 0 -9.22197e-06 5.47963e-06 0 -8.41584e-06 5.9742e-06 0 -7.52638e-06 6.32586e-06 0 -6.60257e-06 6.5105e-06 0 -5.68771e-06 6.5296e-06 0 -4.8325e-06 6.39784e-06 0 -4.06745e-06 6.15365e-06 0 -3.40537e-06 5.83383e-06 0 -2.84491e-06 5.47121e-06 0 -3.17617e-06 -4.96927e-06 0 -3.70454e-06 -5.24514e-06 0 -4.30928e-06 -5.4757e-06 0 -4.98655e-06 -5.63767e-06 0 -5.72376e-06 -5.70568e-06 0 -6.49766e-06 -5.66003e-06 0 -7.27878e-06 -5.48636e-06 0 -8.0287e-06 -5.18737e-06 0 -8.72088e-06 -4.77578e-06 0 -9.33357e-06 -4.2719e-06 0 -9.8561e-06 -3.698e-06 0 -1.02848e-05 -3.07437e-06 0 -1.06211e-05 -2.41724e-06 0 -1.08685e-05 -1.73879e-06 0 -1.10308e-05 -1.04764e-06 0 -1.11111e-05 -3.49894e-07 0 -1.11111e-05 3.49894e-07 0 -1.10308e-05 1.04764e-06 0 -1.08685e-05 1.73879e-06 0 -1.06211e-05 2.41724e-06 0 -1.02848e-05 3.07437e-06 0 -9.8561e-06 3.698e-06 0 -9.33357e-06 4.2719e-06 0 -8.72088e-06 4.77578e-06 0 -8.0287e-06 5.18737e-06 0 -7.27878e-06 5.48636e-06 0 -6.49766e-06 5.66003e-06 0 -5.72376e-06 5.70568e-06 0 -4.98655e-06 5.63767e-06 0 -4.30928e-06 5.4757e-06 0 -3.70454e-06 5.24514e-06 0 -3.17617e-06 4.96927e-06 0 -3.43324e-06 -4.49158e-06 0 -3.92641e-06 -4.70084e-06 0 -4.47677e-06 -4.86638e-06 0 -5.07902e-06 -4.97132e-06 0 -5.72165e-06 -4.99911e-06 0 -6.38715e-06 -4.93558e-06 0 -7.05229e-06 -4.77424e-06 0 -7.69553e-06 -4.51462e-06 0 -8.2938e-06 -4.16453e-06 0 -8.83105e-06 -3.73689e-06 0 -9.29627e-06 -3.24684e-06 0 -9.68398e-06 -2.70921e-06 0 -9.9923e-06 -2.13712e-06 0 -1.02217e-05 -1.54132e-06 0 -1.03734e-05 -9.30349e-07 0 -1.04489e-05 -3.11005e-07 0 -1.04489e-05 3.11005e-07 0 -1.03734e-05 9.30349e-07 0 -1.02217e-05 1.54132e-06 0 -9.9923e-06 2.13712e-06 0 -9.68398e-06 2.70921e-06 0 -9.29627e-06 3.24684e-06 0 -8.83105e-06 3.73689e-06 0 -8.2938e-06 4.16453e-06 0 -7.69553e-06 4.51462e-06 0 -7.05229e-06 4.77424e-06 0 -6.38715e-06 4.93558e-06 0 -5.72165e-06 4.99911e-06 0 -5.07902e-06 4.97132e-06 0 -4.47677e-06 4.86638e-06 0 -3.92641e-06 4.70084e-06 0 -3.43324e-06 4.49158e-06 0 -3.63197e-06 -4.04169e-06 0 -4.09021e-06 -4.19981e-06 0 -4.59144e-06 -4.31761e-06 0 -5.12989e-06 -4.38291e-06 0 -5.69584e-06 -4.38399e-06 0 -6.27561e-06 -4.31206e-06 0 -6.85331e-06 -4.16168e-06 0 -7.41059e-06 -3.93313e-06 0 -7.93213e-06 -3.63118e-06 0 -8.40436e-06 -3.26427e-06 0 -8.8177e-06 -2.84291e-06 0 -9.16591e-06 -2.37813e-06 0 -9.44565e-06 -1.88032e-06 0 -9.65552e-06 -1.35872e-06 0 -9.79525e-06 -8.21239e-07 0 -9.86501e-06 -2.74723e-07 0 -9.86501e-06 2.74723e-07 0 -9.79525e-06 8.21239e-07 0 -9.65552e-06 1.35872e-06 0 -9.44565e-06 1.88032e-06 0 -9.16591e-06 2.37813e-06 0 -8.8177e-06 2.84291e-06 0 -8.40436e-06 3.26427e-06 0 -7.93213e-06 3.63118e-06 0 -7.41059e-06 3.93313e-06 0 -6.85331e-06 4.16168e-06 0 -6.27561e-06 4.31206e-06 0 -5.69584e-06 4.38399e-06 0 -5.12989e-06 4.38291e-06 0 -4.59144e-06 4.31761e-06 0 -4.09021e-06 4.19981e-06 0 -3.63197e-06 4.04169e-06 0 -3.7851e-06 -3.61989e-06 0 -4.21046e-06 -3.73883e-06 0 -4.66813e-06 -3.82153e-06 0 -5.15264e-06 -3.85898e-06 0 -5.6557e-06 -3.84298e-06 0 -6.16657e-06 -3.76713e-06 0 -6.6725e-06 -3.62812e-06 0 -7.16087e-06 -3.42572e-06 0 -7.61886e-06 -3.16313e-06 0 -8.03586e-06 -2.84614e-06 0 -8.40334e-06 -2.48229e-06 0 -8.71527e-06 -2.07985e-06 0 -8.96767e-06 -1.6471e-06 0 -9.15821e-06 -1.19179e-06 0 -9.28567e-06 -7.21048e-07 0 -9.34949e-06 -2.41329e-07 0 -9.34949e-06 2.41329e-07 0 -9.28567e-06 7.21048e-07 0 -9.15821e-06 1.19179e-06 0 -8.96767e-06 1.6471e-06 0 -8.71527e-06 2.07985e-06 0 -8.40334e-06 2.48229e-06 0 -8.03586e-06 2.84614e-06 0 -7.61886e-06 3.16313e-06 0 -7.16087e-06 3.42572e-06 0 -6.6725e-06 3.62812e-06 0 -6.16657e-06 3.76713e-06 0 -5.6557e-06 3.84298e-06 0 -5.15264e-06 3.85898e-06 0 -4.66813e-06 3.82153e-06 0 -4.21046e-06 3.73883e-06 0 -3.7851e-06 3.61989e-06 0 -3.90262e-06 -3.22508e-06 0 -4.29793e-06 -3.31399e-06 0 -4.71754e-06 -3.37082e-06 0 -5.15637e-06 -3.38887e-06 0 -5.60745e-06 -3.36215e-06 0 -6.06206e-06 -3.28621e-06 0 -6.51051e-06 -3.1585e-06 0 -6.94228e-06 -2.97896e-06 0 -7.34769e-06 -2.74975e-06 0 -7.71787e-06 -2.475e-06 0 -8.04554e-06 -2.16024e-06 0 -8.32505e-06 -1.81181e-06 0 -8.55236e-06 -1.43629e-06 0 -8.72471e-06 -1.0402e-06 0 -8.84039e-06 -6.29753e-07 0 -8.89845e-06 -2.10848e-07 0 -8.89845e-06 2.10848e-07 0 -8.84039e-06 6.29753e-07 0 -8.72471e-06 1.0402e-06 0 -8.55236e-06 1.43629e-06 0 -8.32505e-06 1.81181e-06 0 -8.04554e-06 2.16024e-06 0 -7.71787e-06 2.475e-06 0 -7.34769e-06 2.74975e-06 0 -6.94228e-06 2.97896e-06 0 -6.51051e-06 3.1585e-06 0 -6.06206e-06 3.28621e-06 0 -5.60745e-06 3.36215e-06 0 -5.15637e-06 3.38887e-06 0 -4.71754e-06 3.37082e-06 0 -4.29793e-06 3.31399e-06 0 -3.90262e-06 3.22508e-06 0 -3.9924e-06 -2.85526e-06 0 -4.36079e-06 -2.92118e-06 0 -4.74737e-06 -2.95903e-06 0 -5.14758e-06 -2.96376e-06 0 -5.55543e-06 -2.93095e-06 0 -5.96382e-06 -2.85733e-06 0 -6.36473e-06 -2.74111e-06 0 -6.75006e-06 -2.5822e-06 0 -7.11171e-06 -2.38214e-06 0 -7.44241e-06 -2.144e-06 0 -7.73587e-06 -1.87192e-06 0 -7.987e-06 -1.57083e-06 0 -8.19189e-06 -1.24602e-06 0 -8.34772e-06 -9.02914e-07 0 -8.45256e-06 -5.46873e-07 0 -8.50526e-06 -1.83141e-07 0 -8.50526e-06 1.83141e-07 0 -8.45256e-06 5.46873e-07 0 -8.34772e-06 9.02914e-07 0 -8.19189e-06 1.24602e-06 0 -7.987e-06 1.57083e-06 0 -7.73587e-06 1.87192e-06 0 -7.44241e-06 2.144e-06 0 -7.11171e-06 2.38214e-06 0 -6.75006e-06 2.5822e-06 0 -6.36473e-06 2.74111e-06 0 -5.96382e-06 2.85733e-06 0 -5.55543e-06 2.93095e-06 0 -5.14758e-06 2.96376e-06 0 -4.74737e-06 2.95903e-06 0 -4.36079e-06 2.92118e-06 0 -3.9924e-06 2.85526e-06 0 -4.06057e-06 -2.50805e-06 0 -4.4052e-06 -2.55642e-06 0 -4.76336e-06 -2.58047e-06 0 -5.13093e-06 -2.57637e-06 0 -5.50277e-06 -2.54081e-06 0 -5.8729e-06 -2.47136e-06 0 -6.23482e-06 -2.36672e-06 0 -6.58171e-06 -2.22682e-06 0 -6.90699e-06 -2.05283e-06 0 -7.20451e-06 -1.84705e-06 0 -7.46886e-06 -1.61267e-06 0 -7.69549e-06 -1.35358e-06 0 -7.88077e-06 -1.07403e-06 0 -8.02196e-06 -7.78539e-07 0 -8.1171e-06 -4.71664e-07 0 -8.16497e-06 -1.57977e-07 0 -8.16497e-06 1.57977e-07 0 -8.1171e-06 4.71664e-07 0 -8.02196e-06 7.78539e-07 0 -7.88077e-06 1.07403e-06 0 -7.69549e-06 1.35358e-06 0 -7.46886e-06 1.61267e-06 0 -7.20451e-06 1.84705e-06 0 -6.90699e-06 2.05283e-06 0 -6.58171e-06 2.22682e-06 0 -6.23482e-06 2.36672e-06 0 -5.8729e-06 2.47136e-06 0 -5.50277e-06 2.54081e-06 0 -5.13093e-06 2.57637e-06 0 -4.76336e-06 2.58047e-06 0 -4.4052e-06 2.55642e-06 0 -4.06057e-06 2.50805e-06 0 -4.11196e-06 -2.18094e-06 0 -4.43589e-06 -2.21598e-06 0 -4.76977e-06 -2.23018e-06 0 -5.10986e-06 -2.22059e-06 0 -5.4517e-06 -2.18473e-06 0 -5.79021e-06 -2.12078e-06 0 -6.11986e-06 -2.02779e-06 0 -6.43502e-06 -1.90571e-06 0 -6.7301e-06 -1.75546e-06 0 -6.99989e-06 -1.57879e-06 0 -7.23967e-06 -1.37822e-06 0 -7.44543e-06 -1.1568e-06 0 -7.61383e-06 -9.18008e-07 0 -7.74231e-06 -6.65544e-07 0 -7.82897e-06 -4.03263e-07 0 -7.8726e-06 -1.35078e-07 0 -7.8726e-06 1.35078e-07 0 -7.82897e-06 4.03263e-07 0 -7.74231e-06 6.65544e-07 0 -7.61383e-06 9.18008e-07 0 -7.44543e-06 1.1568e-06 0 -7.23967e-06 1.37822e-06 0 -6.99989e-06 1.57879e-06 0 -6.7301e-06 1.75546e-06 0 -6.43502e-06 1.90571e-06 0 -6.11986e-06 2.02779e-06 0 -5.79021e-06 2.12078e-06 0 -5.4517e-06 2.18473e-06 0 -5.10986e-06 2.22059e-06 0 -4.76977e-06 2.23018e-06 0 -4.43589e-06 2.21598e-06 0 -4.11196e-06 2.18094e-06 0 -4.15035e-06 -1.87139e-06 0 -4.4565e-06 -1.89639e-06 0 -4.76982e-06 -1.90374e-06 0 -5.08694e-06 -1.8912e-06 0 -5.40391e-06 -1.85688e-06 0 -5.71632e-06 -1.79942e-06 0 -6.01946e-06 -1.7181e-06 0 -6.30848e-06 -1.61293e-06 0 -6.57863e-06 -1.48462e-06 0 -6.82539e-06 -1.33455e-06 0 -7.04466e-06 -1.16468e-06 0 -7.23286e-06 -9.77455e-07 0 -7.38697e-06 -7.75672e-07 0 -7.50461e-06 -5.62376e-07 0 -7.584e-06 -3.40771e-07 0 -7.62399e-06 -1.14149e-07 0 -7.62399e-06 1.14149e-07 0 -7.584e-06 3.40771e-07 0 -7.50461e-06 5.62376e-07 0 -7.38697e-06 7.75672e-07 0 -7.23286e-06 9.77455e-07 0 -7.04466e-06 1.16468e-06 0 -6.82539e-06 1.33455e-06 0 -6.57863e-06 1.48462e-06 0 -6.30848e-06 1.61293e-06 0 -6.01946e-06 1.7181e-06 0 -5.71632e-06 1.79942e-06 0 -5.40391e-06 1.85688e-06 0 -5.08694e-06 1.8912e-06 0 -4.76982e-06 1.90374e-06 0 -4.4565e-06 1.89639e-06 0 -4.15035e-06 1.87139e-06 0 -4.1787e-06 -1.57695e-06 0 -4.46983e-06 -1.59445e-06 0 -4.76599e-06 -1.59727e-06 0 -5.0641e-06 -1.58369e-06 0 -5.36062e-06 -1.55227e-06 0 -5.65168e-06 -1.50202e-06 0 -5.93316e-06 -1.43239e-06 0 -6.20085e-06 -1.34341e-06 0 -6.4506e-06 -1.23565e-06 0 -6.67847e-06 -1.11018e-06 0 -6.88082e-06 -9.68554e-07 0 -7.05446e-06 -8.12705e-07 0 -7.19667e-06 -6.44876e-07 0 -7.30524e-06 -4.67534e-07 0 -7.37853e-06 -2.83301e-07 0 -7.41545e-06 -9.48987e-08 0 -7.41545e-06 9.48987e-08 0 -7.37853e-06 2.83301e-07 0 -7.30524e-06 4.67534e-07 0 -7.19667e-06 6.44876e-07 0 -7.05446e-06 8.12705e-07 0 -6.88082e-06 9.68554e-07 0 -6.67847e-06 1.11018e-06 0 -6.4506e-06 1.23565e-06 0 -6.20085e-06 1.34341e-06 0 -5.93316e-06 1.43239e-06 0 -5.65168e-06 1.50202e-06 0 -5.36062e-06 1.55227e-06 0 -5.0641e-06 1.58369e-06 0 -4.76599e-06 1.59727e-06 0 -4.46983e-06 1.59445e-06 0 -4.1787e-06 1.57695e-06 0 -4.19934e-06 -1.29523e-06 0 -4.47804e-06 -1.3072e-06 0 -4.76013e-06 -1.30724e-06 0 -5.04278e-06 -1.29407e-06 0 -5.32276e-06 -1.2666e-06 0 -5.59661e-06 -1.22407e-06 0 -5.86066e-06 -1.16612e-06 0 -6.11119e-06 -1.09277e-06 0 -6.34452e-06 -1.00446e-06 0 -6.55713e-06 -9.02034e-07 0 -6.74579e-06 -7.86701e-07 0 -6.9076e-06 -6.59974e-07 0 -7.04009e-06 -5.23619e-07 0 -7.14124e-06 -3.79597e-07 0 -7.20953e-06 -2.30009e-07 0 -7.24393e-06 -7.70465e-08 0 -7.24393e-06 7.70465e-08 0 -7.20953e-06 2.30009e-07 0 -7.14124e-06 3.79597e-07 0 -7.04009e-06 5.23619e-07 0 -6.9076e-06 6.59974e-07 0 -6.74579e-06 7.86701e-07 0 -6.55713e-06 9.02034e-07 0 -6.34452e-06 1.00446e-06 0 -6.11119e-06 1.09277e-06 0 -5.86066e-06 1.16612e-06 0 -5.59661e-06 1.22407e-06 0 -5.32276e-06 1.2666e-06 0 -5.04278e-06 1.29407e-06 0 -4.76013e-06 1.30724e-06 0 -4.47804e-06 1.3072e-06 0 -4.19934e-06 1.29523e-06 0 -4.21405e-06 -1.02393e-06 0 -4.48277e-06 -1.03188e-06 0 -4.75367e-06 -1.03049e-06 0 -5.02407e-06 -1.0188e-06 0 -5.29101e-06 -9.96032e-07 0 -5.55133e-06 -9.61627e-07 0 -5.8017e-06 -9.15319e-07 0 -6.03876e-06 -8.57143e-07 0 -6.25919e-06 -7.8744e-07 0 -6.45981e-06 -7.0685e-07 0 -6.63767e-06 -6.16286e-07 0 -6.79014e-06 -5.16903e-07 0 -6.91493e-06 -4.10052e-07 0 -7.01019e-06 -2.97243e-07 0 -7.0745e-06 -1.801e-07 0 -7.10689e-06 -6.03274e-08 0 -7.10689e-06 6.03274e-08 0 -7.0745e-06 1.801e-07 0 -7.01019e-06 2.97243e-07 0 -6.91493e-06 4.10052e-07 0 -6.79014e-06 5.16903e-07 0 -6.63767e-06 6.16286e-07 0 -6.45981e-06 7.0685e-07 0 -6.25919e-06 7.8744e-07 0 -6.03876e-06 8.57143e-07 0 -5.8017e-06 9.15319e-07 0 -5.55133e-06 9.61627e-07 0 -5.29101e-06 9.96032e-07 0 -5.02407e-06 1.0188e-06 0 -4.75367e-06 1.03049e-06 0 -4.48277e-06 1.03188e-06 0 -4.21405e-06 1.02393e-06 0 -4.2242e-06 -7.60853e-07 0 -4.48529e-06 -7.65903e-07 0 -4.74765e-06 -7.64067e-07 0 -5.00877e-06 -7.54666e-07 0 -5.26586e-06 -7.37148e-07 0 -5.51598e-06 -7.11133e-07 0 -5.75606e-06 -6.7644e-07 0 -5.98299e-06 -6.33098e-07 0 -6.19371e-06 -5.81357e-07 0 -6.38529e-06 -5.21679e-07 0 -6.55501e-06 -4.54724e-07 0 -6.70041e-06 -3.81326e-07 0 -6.81938e-06 -3.02463e-07 0 -6.91018e-06 -2.19236e-07 0 -6.97146e-06 -1.3283e-07 0 -7.00233e-06 -4.44924e-08 0 -7.00233e-06 4.44924e-08 0 -6.97146e-06 1.3283e-07 0 -6.91018e-06 2.19236e-07 0 -6.81938e-06 3.02463e-07 0 -6.70041e-06 3.81326e-07 0 -6.55501e-06 4.54724e-07 0 -6.38529e-06 5.21679e-07 0 -6.19371e-06 5.81357e-07 0 -5.98299e-06 6.33098e-07 0 -5.75606e-06 6.7644e-07 0 -5.51598e-06 7.11133e-07 0 -5.26586e-06 7.37148e-07 0 -5.00877e-06 7.54666e-07 0 -4.74765e-06 7.64067e-07 0 -4.48529e-06 7.65903e-07 0 -4.2242e-06 7.60853e-07 0 -4.23077e-06 -5.03878e-07 0 -4.48647e-06 -5.06823e-07 0 -4.74285e-06 -5.05232e-07 0 -4.99746e-06 -4.98672e-07 0 -5.24767e-06 -4.86793e-07 0 -5.49068e-06 -4.69355e-07 0 -5.72358e-06 -4.46245e-07 0 -5.94344e-06 -4.17486e-07 0 -6.1474e-06 -3.83243e-07 0 -6.33268e-06 -3.43816e-07 0 -6.49671e-06 -2.99631e-07 0 -6.63718e-06 -2.51232e-07 0 -6.75208e-06 -1.99255e-07 0 -6.83975e-06 -1.44418e-07 0 -6.89891e-06 -8.74958e-08 0 -6.92871e-06 -2.9307e-08 0 -6.92871e-06 2.9307e-08 0 -6.89891e-06 8.74958e-08 0 -6.83975e-06 1.44418e-07 0 -6.75208e-06 1.99255e-07 0 -6.63718e-06 2.51232e-07 0 -6.49671e-06 2.99631e-07 0 -6.33268e-06 3.43816e-07 0 -6.1474e-06 3.83243e-07 0 -5.94344e-06 4.17486e-07 0 -5.72358e-06 4.46245e-07 0 -5.49068e-06 4.69355e-07 0 -5.24767e-06 4.86793e-07 0 -4.99746e-06 4.98672e-07 0 -4.74285e-06 5.05232e-07 0 -4.48647e-06 5.06823e-07 0 -4.23077e-06 5.03878e-07 0 -4.23445e-06 -2.50936e-07 0 -4.48695e-06 -2.52284e-07 0 -4.73977e-06 -2.51381e-07 0 -4.99053e-06 -2.48015e-07 0 -5.23667e-06 -2.42017e-07 0 -5.47547e-06 -2.33271e-07 0 -5.70413e-06 -2.21722e-07 0 -5.91983e-06 -2.07383e-07 0 -6.11979e-06 -1.90336e-07 0 -6.30135e-06 -1.70728e-07 0 -6.46203e-06 -1.4877e-07 0 -6.59958e-06 -1.24728e-07 0 -6.71207e-06 -9.89173e-08 0 -6.79789e-06 -7.16912e-08 0 -6.8558e-06 -4.34332e-08 0 -6.88497e-06 -1.45479e-08 0 -6.88497e-06 1.45479e-08 0 -6.8558e-06 4.34332e-08 0 -6.79789e-06 7.16912e-08 0 -6.71207e-06 9.89173e-08 0 -6.59958e-06 1.24728e-07 0 -6.46203e-06 1.4877e-07 0 -6.30135e-06 1.70728e-07 0 -6.11979e-06 1.90336e-07 0 -5.91983e-06 2.07383e-07 0 -5.70413e-06 2.21722e-07 0 -5.47547e-06 2.33271e-07 0 -5.23667e-06 2.42017e-07 0 -4.99053e-06 2.48015e-07 0 -4.73977e-06 2.51381e-07 0 -4.48695e-06 2.52284e-07 0 -4.23445e-06 2.50936e-07 0 -4.23564e-06 -0 0 -4.48707e-06 -0 0 -4.7387e-06 -0 0 -4.98819e-06 -0 0 -5.23298e-06 -0 0 -5.4704e-06 -0 0 -5.69766e-06 -0 0 -5.91198e-06 -0 0 -6.11062e-06 -0 0 -6.29095e-06 -0 0 -6.45052e-06 -0 0 -6.58711e-06 -0 0 -6.6988e-06 -0 0 -6.78401e-06 -0 0 -6.8415e-06 -0 0 -6.87046e-06 -0 0 -6.87046e-06 -0 0 -6.8415e-06 -0 0 -6.78401e-06 -0 0 -6.6988e-06 -0 0 -6.58711e-06 -0 0 -6.45052e-06 -0 0 -6.29095e-06 -0 0 -6.11062e-06 -0 0 -5.91198e-06 -0 0 -5.69766e-06 -0 0 -5.4704e-06 -0 0 -5.23298e-06 -0 0 -4.98819e-06 -0 0 -4.7387e-06 -0 0 -4.48707e-06 -0 0 -4.23564e-06 -0 0 </DataArray> 
</PointData> 
<Points> 
<DataArray type="Float32" NumberOfComponents="3"> 