<?xml version="1.0"?> 
<VTKFile type="StructuredGrid" version="0.1"> 
<StructuredGrid WholeExtent="0 31 0 31 0 0"> 
<Piece Extent="0 31 0 31 0 0"> 
<PointData>
<DataArray type="Float32" Name="B" format="ascii" NumberOfComponents="3"> 
-6.21125e-05 -4.14771e-05 0 -1.46823e-05 -1.05877e-05 0 -1.02396e-05 -5.25092e-06 0 -1.06652e-05 -2.25767e-06 0 -8.49526e-06 -6.57309e-07 0 -8.18546e-06 3.6623e-07 0 -7.11407e-06 9.93627e-07 0 -6.61647e-06 1.37966e-06 0 -5.94431e-06 1.60579e-06 0 -5.46192e-06 1.72142e-06 0 -4.96202e-06 1.7654e-06 0 -4.53797e-06 1.75939e-06 0 -4.13276e-06 1.72189e-06 0 -3.76787e-06 1.6637e-06 0 -3.42689e-06 1.59368e-06 0 -3.11324e-06 1.51734e-06 0 -2.82132e-06 1.43893e-06 0 -2.55038e-06 1.36118e-06 0 -2.29771e-06 1.2861e-06 0 -2.06182e-06 1.21496e-06 0 -1.84085e-06 1.14865e-06 0 -1.6333e-06 1.08771e-06 0 -1.43765e-06 1.03246e-06 0 -1.25251e-06 9.83081e-07 0 -1.07653e-06 9.39637e-07 0 -9.08452e-07 9.02135e-07 0 -7.47046e-07 8.70541e-07 0 -5.91136e-07 8.44802e-07 0 -4.3958e-07 8.2486e-07 0 -2.91264e-07 8.10659e-07 0 -1.45097e-07 8.02157e-07 0 0 7.99326e-07 0 1.44543e-05 -2.83335e-05 0 -1.0141e-05 -1.17986e-05 0 -1.05168e-05 -5.51903e-06 0 -9.01014e-06 -2.6478e-06 0 -8.57559e-06 -9.36154e-07 0 -7.64246e-06 1.11172e-07 0 -7.08943e-06 7.71222e-07 0 -6.43942e-06 1.1827e-06 0 -5.92542e-06 1.42594e-06 0 -5.41454e-06 1.5594e-06 0 -4.9647e-06 1.61586e-06 0 -4.53902e-06 1.62258e-06 0 -4.15008e-06 1.5952e-06 0 -3.78686e-06 1.54677e-06 0 -3.45079e-06 1.48515e-06 0 -3.1377e-06 1.41664e-06 0 -2.84649e-06 1.34521e-06 0 -2.57486e-06 1.27388e-06 0 -2.32125e-06 1.20456e-06 0 -2.08392e-06 1.13865e-06 0 -1.86135e-06 1.07703e-06 0 -1.65202e-06 1.02028e-06 0 -1.45451e-06 9.68754e-07 0 -1.26747e-06 9.22645e-07 0 -1.08958e-06 8.82041e-07 0 -9.19595e-07 8.46967e-07 0 -7.56293e-07 8.17401e-07 0 -5.98504e-07 7.93306e-07 0 -4.45087e-07 7.7463e-07 0 -2.94926e-07 7.61329e-07 0 -1.46925e-07 7.53364e-07 0 0 7.50712e-07 0 1.27871e-06 -1.75505e-05 0 -7.72349e-06 -1.10417e-05 0 -8.71089e-06 -5.65966e-06 0 -8.59779e-06 -2.86424e-06 0 -7.96731e-06 -1.15856e-06 0 -7.45325e-06 -9.9528e-08 0 -6.86748e-06 5.7725e-07 0 -6.3556e-06 1.00215e-06 0 -5.85041e-06 1.2598e-06 0 -5.38889e-06 1.4046e-06 0 -4.9503e-06 1.47257e-06 0 -4.54323e-06 1.48902e-06 0 -4.16097e-06 1.47111e-06 0 -3.8046e-06 1.43109e-06 0 -3.47128e-06 1.37746e-06 0 -3.16013e-06 1.3162e-06 0 -2.86929e-06 1.25151e-06 0 -2.59742e-06 1.18632e-06 0 -2.34294e-06 1.12264e-06 0 -2.10441e-06 1.06185e-06 0 -1.88037e-06 1.00486e-06 0 -1.66942e-06 9.5227e-07 0 -1.47021e-06 9.04444e-07 0 -1.28142e-06 8.61596e-07 0 -1.10176e-06 8.23831e-07 0 -9.29995e-07 7.91185e-07 0 -7.64927e-07 7.63654e-07 0 -6.05387e-07 7.41206e-07 0 -4.50233e-07 7.23804e-07 0 -2.98349e-07 7.11406e-07 0 -1.48633e-07 7.03982e-07 0 0 7.01509e-07 0 1.63638e-06 -1.20188e-05 0 -5.72163e-06 -9.77273e-06 0 -7.63057e-06 -5.54853e-06 0 -7.84134e-06 -2.95926e-06 0 -7.56252e-06 -1.31444e-06 0 -7.15517e-06 -2.67193e-07 0 -6.69877e-06 4.09861e-07 0 -6.23884e-06 8.40507e-07 0 -5.78718e-06 1.10561e-06 0 -5.35216e-06 1.25852e-06 0 -4.93673e-06 1.33474e-06 0 -4.54251e-06 1.35934e-06 0 -4.17006e-06 1.34935e-06 0 -3.81925e-06 1.31696e-06 0 -3.48957e-06 1.27056e-06 0 -3.18017e-06 1.21614e-06 0 -2.89005e-06 1.15785e-06 0 -2.61803e-06 1.0986e-06 0 -2.36287e-06 1.0404e-06 0 -2.12328e-06 9.8463e-07 0 -1.89793e-06 9.32205e-07 0 -1.68553e-06 8.83728e-07 0 -1.48476e-06 8.3958e-07 0 -1.29435e-06 7.99981e-07 0 -1.11305e-06 7.65051e-07 0 -9.39651e-07 7.34836e-07 0 -7.72948e-07 7.09341e-07 0 -6.11783e-07 6.88547e-07 0 -4.55016e-07 6.72421e-07 0 -3.0153e-07 6.60931e-07 0 -1.50222e-07 6.54049e-07 0 0 6.51757e-07 0 7.69913e-07 -1.02142e-05 0 -4.43622e-06 -8.37679e-06 0 -6.62053e-06 -5.27041e-06 0 -7.18543e-06 -2.94519e-06 0 -7.13948e-06 -1.40776e-06 0 -6.87938e-06 -3.94051e-07 0 -6.52063e-06 2.6945e-07 0 -6.12636e-06 6.96817e-07 0 -5.71923e-06 9.63881e-07 0 -5.31476e-06 1.12072e-06 0 -4.91999e-06 1.20264e-06 0 -4.53977e-06 1.23341e-06 0 -4.17654e-06 1.23009e-06 0 -3.83165e-06 1.20434e-06 0 -3.50555e-06 1.16455e-06 0 -3.1981e-06 1.11649e-06 0 -2.90878e-06 1.06428e-06 0 -2.63677e-06 1.01075e-06 0 -2.38107e-06 9.57887e-07 0 -2.14056e-06 9.07034e-07 0 -1.91406e-06 8.59106e-07 0 -1.70033e-06 8.14704e-07 0 -1.49815e-06 7.74208e-07 0 -1.30627e-06 7.37847e-07 0 -1.12348e-06 7.05746e-07 0 -9.48563e-07 6.77962e-07 0 -7.80354e-07 6.54507e-07 0 -6.1769e-07 6.35368e-07 0 -4.59435e-07 6.20523e-07 0 -3.0447e-07 6.09943e-07 0 -1.5169e-07 6.03606e-07 0 0 6.01495e-07 0 6.57566e-07 -8.09871e-06 0 -3.55849e-06 -7.22322e-06 0 -5.7877e-06 -4.85365e-06 0 -6.58361e-06 -2.85291e-06 0 -6.74215e-06 -1.44111e-06 0 -6.61186e-06 -4.83113e-07 0 -6.34725e-06 1.54735e-07 0 -6.01462e-06 5.70991e-07 0 -5.65122e-06 8.33982e-07 0 -5.27609e-06 9.91325e-07 0 -4.90169e-06 1.07604e-06 0 -4.53509e-06 1.11128e-06 0 -4.18098e-06 1.11323e-06 0 -3.84195e-06 1.09328e-06 0 -3.51945e-06 1.05943e-06 0 -3.21402e-06 1.0173e-06 0 -2.92559e-06 9.70852e-07 0 -2.6537e-06 9.22829e-07 0 -2.39758e-06 8.75143e-07 0 -2.15629e-06 8.29109e-07 0 -1.92877e-06 7.85614e-07 0 -1.71386e-06 7.45245e-07 0 -1.5104e-06 7.08377e-07 0 -1.31718e-06 6.7524e-07 0 -1.13302e-06 6.45962e-07 0 -9.5673e-07 6.20607e-07 0 -7.87143e-07 5.99192e-07 0 -6.23107e-07 5.81713e-07 0 -4.63488e-07 5.68151e-07 0 -3.07167e-07 5.58485e-07 0 -1.53037e-07 5.52694e-07 0 0 5.50765e-07 0 4.91383e-07 -6.93067e-06 0 -2.95257e-06 -6.16986e-06 0 -5.09876e-06 -4.38754e-06 0 -6.05469e-06 -2.69136e-06 0 -6.37131e-06 -1.42471e-06 0 -6.36049e-06 -5.37016e-07 0 -6.18008e-06 6.44789e-08 0 -5.90669e-06 4.61842e-07 0 -5.58417e-06 7.15789e-07 0 -5.23744e-06 8.6982e-07 0 -4.88243e-06 9.54914e-07 0 -4.52905e-06 9.92775e-07 0 -4.18372e-06 9.98788e-07 0 -3.85041e-06 9.83727e-07 0 -3.53146e-06 9.55212e-07 0 -3.22804e-06 9.1858e-07 0 -2.94056e-06 8.77589e-07 0 -2.66887e-06 8.34858e-07 0 -2.41244e-06 7.92211e-07 0 -2.1705e-06 7.50899e-07 0 -1.94207e-06 7.11772e-07 0 -1.72612e-06 6.75394e-07 0 -1.52151e-06 6.42129e-07 0 -1.32709e-06 6.12202e-07 0 -1.14169e-06 5.85742e-07 0 -9.64153e-07 5.62813e-07 0 -7.93316e-07 5.4344e-07 0 -6.28034e-07 5.27622e-07 0 -4.67175e-07 5.15347e-07 0 -3.0962e-07 5.06596e-07 0 -1.54262e-07 5.01352e-07 0 0 4.99606e-07 0 3.95245e-07 -5.72922e-06 0 -2.51874e-06 -5.26722e-06 0 -4.54195e-06 -3.8932e-06 0 -5.59448e-06 -2.48153e-06 0 -6.03496e-06 -1.36529e-06 0 -6.12738e-06 -5.59449e-07 0 -6.02287e-06 -3.33471e-09 0 -5.80405e-06 3.68509e-07 0 -5.51972e-06 6.08518e-07 0 -5.19964e-06 7.55919e-07 0 -4.86295e-06 8.38947e-07 0 -4.52208e-06 8.77774e-07 0 -4.18512e-06 8.86648e-07 0 -3.85727e-06 8.75652e-07 0 -3.54172e-06 8.51879e-07 0 -3.24028e-06 8.20329e-07 0 -2.95377e-06 7.84509e-07 0 -2.68234e-06 7.46874e-07 0 -2.42569e-06 7.09127e-07 0 -2.18319e-06 6.72444e-07 0 -1.95399e-06 6.37623e-07 0 -1.73711e-06 6.05197e-07 0 -1.53148e-06 5.7551e-07 0 -1.33599e-06 5.48779e-07 0 -1.14949e-06 5.25128e-07 0 -9.70832e-07 5.04624e-07 0 -7.98872e-07 4.87293e-07 0 -6.32469e-07 4.73138e-07 0 -4.70495e-07 4.62151e-07 0 -3.1183e-07 4.54317e-07 0 -1.55365e-07 4.49623e-07 0 0 4.48059e-07 0 3.44324e-07 -4.83519e-06 0 -2.19989e-06 -4.45372e-06 0 -4.09636e-06 -3.39861e-06 0 -5.20042e-06 -2.23544e-06 0 -5.73628e-06 -1.27097e-06 0 -5.91534e-06 -5.54154e-07 0 -5.87812e-06 -5.07813e-08 0 -5.70846e-06 2.89645e-07 0 -5.45916e-06 5.11457e-07 0 -5.16361e-06 6.49065e-07 0 -4.84391e-06 7.27846e-07 0 -4.51464e-06 7.6605e-07 0 -4.18548e-06 7.76691e-07 0 -3.86274e-06 7.68971e-07 0 -3.55041e-06 7.49396e-07 0 -3.25086e-06 7.22541e-07 0 -2.9653e-06 6.91624e-07 0 -2.69417e-06 6.58895e-07 0 -2.43737e-06 6.25921e-07 0 -2.19441e-06 5.93779e-07 0 -1.96454e-06 5.63206e-07 0 -1.74685e-06 5.34693e-07 0 -1.54033e-06 5.08562e-07 0 -1.34389e-06 4.85013e-07 0 -1.15641e-06 4.64165e-07 0 -9.76767e-07 4.46082e-07 0 -8.03811e-07 4.30793e-07 0 -6.36413e-07 4.18302e-07 0 -4.73447e-07 4.08604e-07 0 -3.13795e-07 4.01689e-07 0 -1.56347e-07 3.97545e-07 0 0 3.96164e-07 0 2.91063e-07 -3.99092e-06 0 -1.96275e-06 -3.72703e-06 0 -3.74095e-06 -2.91014e-06 0 -4.86965e-06 -1.96536e-06 0 -5.47604e-06 -1.14827e-06 0 -5.72698e-06 -5.25075e-07 0 -5.74766e-06 -8.02103e-08 0 -5.62159e-06 2.23868e-07 0 -5.40359e-06 4.23646e-07 0 -5.1302e-06 5.48684e-07 0 -4.82587e-06 6.21193e-07 0 -4.50715e-06 6.57354e-07 0 -4.1851e-06 6.68743e-07 0 -3.86704e-06 6.6359e-07 0 -3.55768e-06 6.47707e-07 0 -3.25987e-06 6.25195e-07 0 -2.97521e-06 5.98933e-07 0 -2.7044e-06 5.7094e-07 0 -2.44751e-06 5.42618e-07 0 -2.20417e-06 5.14937e-07 0 -1.97373e-06 4.88558e-07 0 -1.75536e-06 4.63924e-07 0 -1.54806e-06 4.41326e-07 0 -1.3508e-06 4.20946e-07 0 -1.16247e-06 4.02894e-07 0 -9.81958e-07 3.8723e-07 0 -8.08132e-07 3.73981e-07 0 -6.39864e-07 3.63155e-07 0 -4.76031e-07 3.54749e-07 0 -3.15515e-07 3.48753e-07 0 -1.57206e-07 3.4516e-07 0 0 3.43963e-07 0 2.65692e-07 -3.26834e-06 0 -1.78401e-06 -3.06055e-06 0 -3.46146e-06 -2.43414e-06 0 -4.59651e-06 -1.67899e-06 0 -5.25504e-06 -1.00335e-06 0 -5.56361e-06 -4.76008e-07 0 -5.63331e-06 -9.40188e-08 0 -5.5447e-06 1.69594e-07 0 -5.35409e-06 3.44069e-07 0 -5.10013e-06 4.54072e-07 0 -4.80939e-06 5.18535e-07 0 -4.5e-06 5.51373e-07 0 -4.18426e-06 5.6261e-07 0 -3.87036e-06 5.59382e-07 0 -3.56364e-06 5.46743e-07 0 -3.26741e-06 5.28256e-07 0 -2.98359e-06 5.06428e-07 0 -2.71309e-06 4.83016e-07 0 -2.45614e-06 4.59241e-07 0 -2.2125e-06 4.35948e-07 0 -1.98159e-06 4.13714e-07 0 -1.76263e-06 3.92928e-07 0 -1.55467e-06 3.73842e-07 0 -1.35671e-06 3.5662e-07 0 -1.16766e-06 3.41357e-07 0 -9.86406e-07 3.28109e-07 0 -8.11836e-07 3.16901e-07 0 -6.42823e-07 3.0774e-07 0 -4.78246e-07 3.00625e-07 0 -3.1699e-07 2.95551e-07 0 -1.57943e-07 2.92509e-07 0 0 2.91496e-07 0 2.38511e-07 -2.59406e-06 0 -1.65046e-06 -2.44467e-06 0 -3.24424e-06 -1.97065e-06 0 -4.37708e-06 -1.38243e-06 0 -5.07251e-06 -8.41235e-07 0 -5.42654e-06 -4.10595e-07 0 -5.53624e-06 -9.46721e-08 0 -5.47899e-06 1.25173e-07 0 -5.31149e-06 2.71592e-07 0 -5.07407e-06 3.64471e-07 0 -4.79491e-06 4.19348e-07 0 -4.49351e-06 4.47764e-07 0 -4.18318e-06 4.58063e-07 0 -3.87286e-06 4.56205e-07 0 -3.56842e-06 4.46417e-07 0 -3.27357e-06 4.3168e-07 0 -2.99048e-06 4.14094e-07 0 -2.72026e-06 3.95128e-07 0 -2.46328e-06 3.75807e-07 0 -2.2194e-06 3.5684e-07 0 -1.98811e-06 3.38709e-07 0 -1.76867e-06 3.21741e-07 0 -1.56018e-06 3.06151e-07 0 -1.36163e-06 2.92075e-07 0 -1.17198e-06 2.79597e-07 0 -9.90112e-07 2.68761e-07 0 -8.14922e-07 2.59592e-07 0 -6.45289e-07 2.52097e-07 0 -4.80093e-07 2.46275e-07 0 -3.1822e-07 2.42122e-07 0 -1.58557e-07 2.39633e-07 0 0 2.38804e-07 0 2.24129e-07 -1.97544e-06 0 -1.55205e-06 -1.86542e-06 0 -3.08063e-06 -1.51925e-06 0 -4.2067e-06 -1.07954e-06 0 -4.92795e-06 -6.66272e-07 0 -5.31633e-06 -3.32235e-07 0 -5.45755e-06 -8.46233e-08 0 -5.42535e-06 8.88742e-08 0 -5.27654e-06 2.05019e-07 0 -5.05255e-06 2.79049e-07 0 -4.78285e-06 3.2307e-07 0 -4.48797e-06 3.46143e-07 0 -4.18207e-06 3.54848e-07 0 -3.87468e-06 3.53896e-07 0 -3.57212e-06 3.46631e-07 0 -3.2784e-06 3.35415e-07 0 -2.99592e-06 3.21909e-07 0 -2.72595e-06 3.07277e-07 0 -2.46897e-06 2.92332e-07 0 -2.22491e-06 2.77636e-07 0 -1.99332e-06 2.63573e-07 0 -1.7735e-06 2.50401e-07 0 -1.56458e-06 2.38291e-07 0 -1.36557e-06 2.27353e-07 0 -1.17543e-06 2.17653e-07 0 -9.93076e-07 2.09228e-07 0 -8.17391e-07 2.02098e-07 0 -6.47262e-07 1.96268e-07 0 -4.81571e-07 1.9174e-07 0 -3.19203e-07 1.88509e-07 0 -1.59049e-07 1.86573e-07 0 0 1.85928e-07 0 2.11245e-07 -1.38728e-06 0 -1.48291e-06 -1.31394e-06 0 -2.96326e-06 -1.07772e-06 0 -4.08213e-06 -7.72997e-07 0 -4.82041e-06 -4.82042e-07 0 -5.23348e-06 -2.44097e-07 0 -5.39791e-06 -6.63074e-08 0 -5.38451e-06 5.89275e-08 0 -5.24982e-06 1.4309e-07 0 -5.03603e-06 1.9693e-07 0 -4.77351e-06 2.29094e-07 0 -4.48361e-06 2.46099e-07 0 -4.18109e-06 2.52692e-07 0 -3.87595e-06 2.52279e-07 0 -3.57483e-06 2.47278e-07 0 -3.28198e-06 2.39399e-07 0 -2.99997e-06 2.29844e-07 0 -2.7302e-06 2.19458e-07 0 -2.47322e-06 2.08828e-07 0 -2.22903e-06 1.98361e-07 0 -1.99722e-06 1.88337e-07 0 -1.77711e-06 1.78942e-07 0 -1.56787e-06 1.70301e-07 0 -1.36852e-06 1.62493e-07 0 -1.17802e-06 1.55568e-07 0 -9.95298e-07 1.49552e-07 0 -8.19242e-07 1.44459e-07 0 -6.48741e-07 1.40295e-07 0 -4.82679e-07 1.3706e-07 0 -3.19941e-07 1.34752e-07 0 -1.59418e-07 1.33369e-07 0 0 1.32908e-07 0 2.04593e-07 -8.23938e-07 0 -1.43878e-06 -7.8105e-07 0 -2.88759e-06 -6.43618e-07 0 -4.00054e-06 -4.64437e-07 0 -4.7492e-06 -2.916e-07 0 -5.17814e-06 -1.49138e-07 0 -5.35789e-06 -4.21212e-08 0 -5.357e-06 3.35321e-08 0 -5.23176e-06 8.45082e-08 0 -5.02483e-06 1.17196e-07 0 -4.76715e-06 1.36784e-07 0 -4.48061e-06 1.47197e-07 0 -4.18037e-06 1.51305e-07 0 -3.87674e-06 1.51164e-07 0 -3.57659e-06 1.48239e-07 0 -3.28434e-06 1.43565e-07 0 -3.00266e-06 1.3787e-07 0 -2.73302e-06 1.31664e-07 0 -2.47605e-06 1.25304e-07 0 -2.23177e-06 1.19037e-07 0 -1.99981e-06 1.1303e-07 0 -1.77952e-06 1.07399e-07 0 -1.57007e-06 1.02218e-07 0 -1.37049e-06 9.75353e-08 0 -1.17975e-06 9.33811e-08 0 -9.9678e-07 8.9772e-08 0 -8.20477e-07 8.67166e-08 0 -6.49728e-07 8.42182e-08 0 -4.83418e-07 8.22772e-08 0 -3.20433e-07 8.08924e-08 0 -1.59664e-07 8.00622e-08 0 0 7.97857e-08 0 2.00769e-07 -2.7302e-07 0 -1.41731e-06 -2.59169e-07 0 -2.85046e-06 -2.14028e-07 0 -3.96021e-06 -1.54909e-07 0 -4.71374e-06 -9.75876e-08 0 -5.15046e-06 -5.0156e-08 0 -5.3378e-06 -1.4429e-08 0 -5.34316e-06 1.08731e-08 0 -5.22266e-06 2.79445e-08 0 -5.01917e-06 3.89045e-08 0 -4.76393e-06 4.54821e-08 0 -4.47908e-06 4.89885e-08 0 -4.17998e-06 5.03828e-08 0 -3.87712e-06 5.03539e-08 0 -3.57747e-06 4.93917e-08 0 -3.28551e-06 4.78426e-08 0 -3.00399e-06 4.59504e-08 0 -2.73443e-06 4.38862e-08 0 -2.47746e-06 4.17693e-08 0 -2.23314e-06 3.96821e-08 0 -2.00111e-06 3.76814e-08 0 -1.78073e-06 3.58051e-08 0 -1.57116e-06 3.40787e-08 0 -1.37147e-06 3.25183e-08 0 -1.18061e-06 3.11338e-08 0 -9.9752e-07 2.99308e-08 0 -8.21094e-07 2.89124e-08 0 -6.50221e-07 2.80796e-08 0 -4.83787e-07 2.74326e-08 0 -3.2068e-07 2.6971e-08 0 -1.59786e-07 2.66942e-08 0 0 2.66021e-08 0 2.00769e-07 2.7302e-07 0 -1.41731e-06 2.59169e-07 0 -2.85046e-06 2.14028e-07 0 -3.96021e-06 1.54909e-07 0 -4.71374e-06 9.75876e-08 0 -5.15046e-06 5.0156e-08 0 -5.3378e-06 1.4429e-08 0 -5.34316e-06 -1.08731e-08 0 -5.22266e-06 -2.79445e-08 0 -5.01917e-06 -3.89045e-08 0 -4.76393e-06 -4.54821e-08 0 -4.47908e-06 -4.89885e-08 0 -4.17998e-06 -5.03828e-08 0 -3.87712e-06 -5.03539e-08 0 -3.57747e-06 -4.93917e-08 0 -3.28551e-06 -4.78426e-08 0 -3.00399e-06 -4.59504e-08 0 -2.73443e-06 -4.38862e-08 0 -2.47746e-06 -4.17693e-08 0 -2.23314e-06 -3.96821e-08 0 -2.00111e-06 -3.76814e-08 0 -1.78073e-06 -3.58051e-08 0 -1.57116e-06 -3.40787e-08 0 -1.37147e-06 -3.25183e-08 0 -1.18061e-06 -3.11338e-08 0 -9.9752e-07 -2.99308e-08 0 -8.21094e-07 -2.89124e-08 0 -6.50221e-07 -2.80796e-08 0 -4.83787e-07 -2.74326e-08 0 -3.2068e-07 -2.6971e-08 0 -1.59786e-07 -2.66942e-08 0 0 -2.66021e-08 0 2.04593e-07 8.23938e-07 0 -1.43878e-06 7.8105e-07 0 -2.88759e-06 6.43618e-07 0 -4.00054e-06 4.64437e-07 0 -4.7492e-06 2.916e-07 0 -5.17814e-06 1.49138e-07 0 -5.35789e-06 4.21212e-08 0 -5.357e-06 -3.35321e-08 0 -5.23176e-06 -8.45082e-08 0 -5.02483e-06 -1.17196e-07 0 -4.76715e-06 -1.36784e-07 0 -4.48061e-06 -1.47197e-07 0 -4.18037e-06 -1.51305e-07 0 -3.87674e-06 -1.51164e-07 0 -3.57659e-06 -1.48239e-07 0 -3.28434e-06 -1.43565e-07 0 -3.00266e-06 -1.3787e-07 0 -2.73302e-06 -1.31664e-07 0 -2.47605e-06 -1.25304e-07 0 -2.23177e-06 -1.19037e-07 0 -1.99981e-06 -1.1303e-07 0 -1.77952e-06 -1.07399e-07 0 -1.57007e-06 -1.02218e-07 0 -1.37049e-06 -9.75353e-08 0 -1.17975e-06 -9.33811e-08 0 -9.9678e-07 -8.9772e-08 0 -8.20477e-07 -8.67166e-08 0 -6.49728e-07 -8.42182e-08 0 -4.83418e-07 -8.22772e-08 0 -3.20433e-07 -8.08924e-08 0 -1.59664e-07 -8.00622e-08 0 0 -7.97857e-08 0 2.11245e-07 1.38728e-06 0 -1.48291e-06 1.31394e-06 0 -2.96326e-06 1.07772e-06 0 -4.08213e-06 7.72997e-07 0 -4.82041e-06 4.82042e-07 0 -5.23348e-06 2.44097e-07 0 -5.39791e-06 6.63074e-08 0 -5.38451e-06 -5.89275e-08 0 -5.24982e-06 -1.4309e-07 0 -5.03603e-06 -1.9693e-07 0 -4.77351e-06 -2.29094e-07 0 -4.48361e-06 -2.46099e-07 0 -4.18109e-06 -2.52692e-07 0 -3.87595e-06 -2.52279e-07 0 -3.57483e-06 -2.47278e-07 0 -3.28198e-06 -2.39399e-07 0 -2.99997e-06 -2.29844e-07 0 -2.7302e-06 -2.19458e-07 0 -2.47322e-06 -2.08828e-07 0 -2.22903e-06 -1.98361e-07 0 -1.99722e-06 -1.88337e-07 0 -1.77711e-06 -1.78942e-07 0 -1.56787e-06 -1.70301e-07 0 -1.36852e-06 -1.62493e-07 0 -1.17802e-06 -1.55568e-07 0 -9.95298e-07 -1.49552e-07 0 -8.19242e-07 -1.44459e-07 0 -6.48741e-07 -1.40295e-07 0 -4.82679e-07 -1.3706e-07 0 -3.19941e-07 -1.34752e-07 0 -1.59418e-07 -1.33369e-07 0 0 -1.32908e-07 0 2.24129e-07 1.97544e-06 0 -1.55205e-06 1.86542e-06 0 -3.08063e-06 1.51925e-06 0 -4.2067e-06 1.07954e-06 0 -4.92795e-06 6.66272e-07 0 -5.31633e-06 3.32235e-07 0 -5.45755e-06 8.46233e-08 0 -5.42535e-06 -8.88742e-08 0 -5.27654e-06 -2.05019e-07 0 -5.05255e-06 -2.79049e-07 0 -4.78285e-06 -3.2307e-07 0 -4.48797e-06 -3.46143e-07 0 -4.18207e-06 -3.54848e-07 0 -3.87468e-06 -3.53896e-07 0 -3.57212e-06 -3.46631e-07 0 -3.2784e-06 -3.35415e-07 0 -2.99592e-06 -3.21909e-07 0 -2.72595e-06 -3.07277e-07 0 -2.46897e-06 -2.92332e-07 0 -2.22491e-06 -2.77636e-07 0 -1.99332e-06 -2.63573e-07 0 -1.7735e-06 -2.50401e-07 0 -1.56458e-06 -2.38291e-07 0 -1.36557e-06 -2.27353e-07 0 -1.17543e-06 -2.17653e-07 0 -9.93076e-07 -2.09228e-07 0 -8.17391e-07 -2.02098e-07 0 -6.47262e-07 -1.96268e-07 0 -4.81571e-07 -1.9174e-07 0 -3.19203e-07 -1.88509e-07 0 -1.59049e-07 -1.86573e-07 0 0 -1.85928e-07 0 2.38511e-07 2.59406e-06 0 -1.65046e-06 2.44467e-06 0 -3.24424e-06 1.97065e-06 0 -4.37708e-06 1.38243e-06 0 -5.07251e-06 8.41235e-07 0 -5.42654e-06 4.10595e-07 0 -5.53624e-06 9.46721e-08 0 -5.47899e-06 -1.25173e-07 0 -5.31149e-06 -2.71592e-07 0 -5.07407e-06 -3.64471e-07 0 -4.79491e-06 -4.19348e-07 0 -4.49351e-06 -4.47764e-07 0 -4.18318e-06 -4.58063e-07 0 -3.87286e-06 -4.56205e-07 0 -3.56842e-06 -4.46417e-07 0 -3.27357e-06 -4.3168e-07 0 -2.99048e-06 -4.14094e-07 0 -2.72026e-06 -3.95128e-07 0 -2.46328e-06 -3.75807e-07 0 -2.2194e-06 -3.5684e-07 0 -1.98811e-06 -3.38709e-07 0 -1.76867e-06 -3.21741e-07 0 -1.56018e-06 -3.06151e-07 0 -1.36163e-06 -2.92075e-07 0 -1.17198e-06 -2.79597e-07 0 -9.90112e-07 -2.68761e-07 0 -8.14922e-07 -2.59592e-07 0 -6.45289e-07 -2.52097e-07 0 -4.80093e-07 -2.46275e-07 0 -3.1822e-07 -2.42122e-07 0 -1.58557e-07 -2.39633e-07 0 0 -2.38804e-07 0 2.65692e-07 3.26834e-06 0 -1.78401e-06 3.06055e-06 0 -3.46146e-06 2.43414e-06 0 -4.59651e-06 1.67899e-06 0 -5.25504e-06 1.00335e-06 0 -5.56361e-06 4.76008e-07 0 -5.63331e-06 9.40188e-08 0 -5.5447e-06 -1.69594e-07 0 -5.35409e-06 -3.44069e-07 0 -5.10013e-06 -4.54072e-07 0 -4.80939e-06 -5.18535e-07 0 -4.5e-06 -5.51373e-07 0 -4.18426e-06 -5.6261e-07 0 -3.87036e-06 -5.59382e-07 0 -3.56364e-06 -5.46743e-07 0 -3.26741e-06 -5.28256e-07 0 -2.98359e-06 -5.06428e-07 0 -2.71309e-06 -4.83016e-07 0 -2.45614e-06 -4.59241e-07 0 -2.2125e-06 -4.35948e-07 0 -1.98159e-06 -4.13714e-07 0 -1.76263e-06 -3.92928e-07 0 -1.55467e-06 -3.73842e-07 0 -1.35671e-06 -3.5662e-07 0 -1.16766e-06 -3.41357e-07 0 -9.86406e-07 -3.28109e-07 0 -8.11836e-07 -3.16901e-07 0 -6.42823e-07 -3.0774e-07 0 -4.78246e-07 -3.00625e-07 0 -3.1699e-07 -2.95551e-07 0 -1.57943e-07 -2.92509e-07 0 0 -2.91496e-07 0 2.91063e-07 3.99092e-06 0 -1.96275e-06 3.72703e-06 0 -3.74095e-06 2.91014e-06 0 -4.86965e-06 1.96536e-06 0 -5.47604e-06 1.14827e-06 0 -5.72698e-06 5.25075e-07 0 -5.74766e-06 8.02103e-08 0 -5.62159e-06 -2.23868e-07 0 -5.40359e-06 -4.23646e-07 0 -5.1302e-06 -5.48684e-07 0 -4.82587e-06 -6.21193e-07 0 -4.50715e-06 -6.57354e-07 0 -4.1851e-06 -6.68743e-07 0 -3.86704e-06 -6.6359e-07 0 -3.55768e-06 -6.47707e-07 0 -3.25987e-06 -6.25195e-07 0 -2.97521e-06 -5.98933e-07 0 -2.7044e-06 -5.7094e-07 0 -2.44751e-06 -5.42618e-07 0 -2.20417e-06 -5.14937e-07 0 -1.97373e-06 -4.88558e-07 0 -1.75536e-06 -4.63924e-07 0 -1.54806e-06 -4.41326e-07 0 -1.3508e-06 -4.20946e-07 0 -1.16247e-06 -4.02894e-07 0 -9.81958e-07 -3.8723e-07 0 -8.08132e-07 -3.73981e-07 0 -6.39864e-07 -3.63155e-07 0 -4.76031e-07 -3.54749e-07 0 -3.15515e-07 -3.48753e-07 0 -1.57206e-07 -3.4516e-07 0 0 -3.43963e-07 0 3.44324e-07 4.83519e-06 0 -2.19989e-06 4.45372e-06 0 -4.09636e-06 3.39861e-06 0 -5.20042e-06 2.23544e-06 0 -5.73628e-06 1.27097e-06 0 -5.91534e-06 5.54154e-07 0 -5.87812e-06 5.07813e-08 0 -5.70846e-06 -2.89645e-07 0 -5.45916e-06 -5.11457e-07 0 -5.16361e-06 -6.49065e-07 0 -4.84391e-06 -7.27846e-07 0 -4.51464e-06 -7.6605e-07 0 -4.18548e-06 -7.76691e-07 0 -3.86274e-06 -7.68971e-07 0 -3.55041e-06 -7.49396e-07 0 -3.25086e-06 -7.22541e-07 0 -2.9653e-06 -6.91624e-07 0 -2.69417e-06 -6.58895e-07 0 -2.43737e-06 -6.25921e-07 0 -2.19441e-06 -5.93779e-07 0 -1.96454e-06 -5.63206e-07 0 -1.74685e-06 -5.34693e-07 0 -1.54033e-06 -5.08562e-07 0 -1.34389e-06 -4.85013e-07 0 -1.15641e-06 -4.64165e-07 0 -9.76767e-07 -4.46082e-07 0 -8.03811e-07 -4.30793e-07 0 -6.36413e-07 -4.18302e-07 0 -4.73447e-07 -4.08604e-07 0 -3.13795e-07 -4.01689e-07 0 -1.56347e-07 -3.97545e-07 0 0 -3.96164e-07 0 3.95245e-07 5.72922e-06 0 -2.51874e-06 5.26722e-06 0 -4.54195e-06 3.8932e-06 0 -5.59448e-06 2.48153e-06 0 -6.03496e-06 1.36529e-06 0 -6.12738e-06 5.59449e-07 0 -6.02287e-06 3.33471e-09 0 -5.80405e-06 -3.68509e-07 0 -5.51972e-06 -6.08518e-07 0 -5.19964e-06 -7.55919e-07 0 -4.86295e-06 -8.38947e-07 0 -4.52208e-06 -8.77774e-07 0 -4.18512e-06 -8.86648e-07 0 -3.85727e-06 -8.75652e-07 0 -3.54172e-06 -8.51879e-07 0 -3.24028e-06 -8.20329e-07 0 -2.95377e-06 -7.84509e-07 0 -2.68234e-06 -7.46874e-07 0 -2.42569e-06 -7.09127e-07 0 -2.18319e-06 -6.72444e-07 0 -1.95399e-06 -6.37623e-07 0 -1.73711e-06 -6.05197e-07 0 -1.53148e-06 -5.7551e-07 0 -1.33599e-06 -5.48779e-07 0 -1.14949e-06 -5.25128e-07 0 -9.70832e-07 -5.04624e-07 0 -7.98872e-07 -4.87293e-07 0 -6.32469e-07 -4.73138e-07 0 -4.70495e-07 -4.62151e-07 0 -3.1183e-07 -4.54317e-07 0 -1.55365e-07 -4.49623e-07 0 0 -4.48059e-07 0 4.91383e-07 6.93067e-06 0 -2.95257e-06 6.16986e-06 0 -5.09876e-06 4.38754e-06 0 -6.05469e-06 2.69136e-06 0 -6.37131e-06 1.42471e-06 0 -6.36049e-06 5.37016e-07 0 -6.18008e-06 -6.44789e-08 0 -5.90669e-06 -4.61842e-07 0 -5.58417e-06 -7.15789e-07 0 -5.23744e-06 -8.6982e-07 0 -4.88243e-06 -9.54914e-07 0 -4.52905e-06 -9.92775e-07 0 -4.18372e-06 -9.98788e-07 0 -3.85041e-06 -9.83727e-07 0 -3.53146e-06 -9.55212e-07 0 -3.22804e-06 -9.1858e-07 0 -2.94056e-06 -8.77589e-07 0 -2.66887e-06 -8.34858e-07 0 -2.41244e-06 -7.92211e-07 0 -2.1705e-06 -7.50899e-07 0 -1.94207e-06 -7.11772e-07 0 -1.72612e-06 -6.75394e-07 0 -1.52151e-06 -6.42129e-07 0 -1.32709e-06 -6.12202e-07 0 -1.14169e-06 -5.85742e-07 0 -9.64153e-07 -5.62813e-07 0 -7.93316e-07 -5.4344e-07 0 -6.28034e-07 -5.27622e-07 0 -4.67175e-07 -5.15347e-07 0 -3.0962e-07 -5.06596e-07 0 -1.54262e-07 -5.01352e-07 0 0 -4.99606e-07 0 6.57566e-07 8.09871e-06 0 -3.55849e-06 7.22322e-06 0 -5.7877e-06 4.85365e-06 0 -6.58361e-06 2.85291e-06 0 -6.74215e-06 1.44111e-06 0 -6.61186e-06 4.83113e-07 0 -6.34725e-06 -1.54735e-07 0 -6.01462e-06 -5.70991e-07 0 -5.65122e-06 -8.33982e-07 0 -5.27609e-06 -9.91325e-07 0 -4.90169e-06 -1.07604e-06 0 -4.53509e-06 -1.11128e-06 0 -4.18098e-06 -1.11323e-06 0 -3.84195e-06 -1.09328e-06 0 -3.51945e-06 -1.05943e-06 0 -3.21402e-06 -1.0173e-06 0 -2.92559e-06 -9.70852e-07 0 -2.6537e-06 -9.22829e-07 0 -2.39758e-06 -8.75143e-07 0 -2.15629e-06 -8.29109e-07 0 -1.92877e-06 -7.85614e-07 0 -1.71386e-06 -7.45245e-07 0 -1.5104e-06 -7.08377e-07 0 -1.31718e-06 -6.7524e-07 0 -1.13302e-06 -6.45962e-07 0 -9.5673e-07 -6.20607e-07 0 -7.87143e-07 -5.99192e-07 0 -6.23107e-07 -5.81713e-07 0 -4.63488e-07 -5.68151e-07 0 -3.07167e-07 -5.58485e-07 0 -1.53037e-07 -5.52694e-07 0 0 -5.50765e-07 0 7.69913e-07 1.02142e-05 0 -4.43622e-06 8.37679e-06 0 -6.62053e-06 5.27041e-06 0 -7.18543e-06 2.94519e-06 0 -7.13948e-06 1.40776e-06 0 -6.87938e-06 3.94051e-07 0 -6.52063e-06 -2.6945e-07 0 -6.12636e-06 -6.96817e-07 0 -5.71923e-06 -9.63881e-07 0 -5.31476e-06 -1.12072e-06 0 -4.91999e-06 -1.20264e-06 0 -4.53977e-06 -1.23341e-06 0 -4.17654e-06 -1.23009e-06 0 -3.83165e-06 -1.20434e-06 0 -3.50555e-06 -1.16455e-06 0 -3.1981e-06 -1.11649e-06 0 -2.90878e-06 -1.06428e-06 0 -2.63677e-06 -1.01075e-06 0 -2.38107e-06 -9.57887e-07 0 -2.14056e-06 -9.07034e-07 0 -1.91406e-06 -8.59106e-07 0 -1.70033e-06 -8.14704e-07 0 -1.49815e-06 -7.74208e-07 0 -1.30627e-06 -7.37847e-07 0 -1.12348e-06 -7.05746e-07 0 -9.48563e-07 -6.77962e-07 0 -7.80354e-07 -6.54507e-07 0 -6.1769e-07 -6.35368e-07 0 -4.59435e-07 -6.20523e-07 0 -3.0447e-07 -6.09943e-07 0 -1.5169e-07 -6.03606e-07 0 0 -6.01495e-07 0 1.63638e-06 1.20188e-05 0 -5.72163e-06 9.77273e-06 0 -7.63057e-06 5.54853e-06 0 -7.84134e-06 2.95926e-06 0 -7.56252e-06 1.31444e-06 0 -7.15517e-06 2.67193e-07 0 -6.69877e-06 -4.09861e-07 0 -6.23884e-06 -8.40507e-07 0 -5.78718e-06 -1.10561e-06 0 -5.35216e-06 -1.25852e-06 0 -4.93673e-06 -1.33474e-06 0 -4.54251e-06 -1.35934e-06 0 -4.17006e-06 -1.34935e-06 0 -3.81925e-06 -1.31696e-06 0 -3.48957e-06 -1.27056e-06 0 -3.18017e-06 -1.21614e-06 0 -2.89005e-06 -1.15785e-06 0 -2.61803e-06 -1.0986e-06 0 -2.36287e-06 -1.0404e-06 0 -2.12328e-06 -9.8463e-07 0 -1.89793e-06 -9.32205e-07 0 -1.68553e-06 -8.83728e-07 0 -1.48476e-06 -8.3958e-07 0 -1.29435e-06 -7.99981e-07 0 -1.11305e-06 -7.65051e-07 0 -9.39651e-07 -7.34836e-07 0 -7.72948e-07 -7.09341e-07 0 -6.11783e-07 -6.88547e-07 0 -4.55016e-07 -6.72421e-07 0 -3.0153e-07 -6.60931e-07 0 -1.50222e-07 -6.54049e-07 0 0 -6.51757e-07 0 1.27871e-06 1.75505e-05 0 -7.72349e-06 1.10417e-05 0 -8.71089e-06 5.65966e-06 0 -8.59779e-06 2.86424e-06 0 -7.96731e-06 1.15856e-06 0 -7.45325e-06 9.9528e-08 0 -6.86748e-06 -5.7725e-07 0 -6.3556e-06 -1.00215e-06 0 -5.85041e-06 -1.2598e-06 0 -5.38889e-06 -1.4046e-06 0 -4.9503e-06 -1.47257e-06 0 -4.54323e-06 -1.48902e-06 0 -4.16097e-06 -1.47111e-06 0 -3.8046e-06 -1.43109e-06 0 -3.47128e-06 -1.37746e-06 0 -3.16013e-06 -1.3162e-06 0 -2.86929e-06 -1.25151e-06 0 -2.59742e-06 -1.18632e-06 0 -2.34294e-06 -1.12264e-06 0 -2.10441e-06 -1.06185e-06 0 -1.88037e-06 -1.00486e-06 0 -1.66942e-06 -9.5227e-07 0 -1.47021e-06 -9.04444e-07 0 -1.28142e-06 -8.61596e-07 0 -1.10176e-06 -8.23831e-07 0 -9.29995e-07 -7.91185e-07 0 -7.64927e-07 -7.63654e-07 0 -6.05387e-07 -7.41206e-07 0 -4.50233e-07 -7.23804e-07 0 -2.98349e-07 -7.11406e-07 0 -1.48633e-07 -7.03982e-07 0 0 -7.01509e-07 0 1.44543e-05 2.83335e-05 0 -1.0141e-05 1.17986e-05 0 -1.05168e-05 5.51903e-06 0 -9.01014e-06 2.6478e-06 0 -8.57559e-06 9.36154e-07 0 -7.64246e-06 -1.11172e-07 0 -7.08943e-06 -7.71222e-07 0 -6.43942e-06 -1.1827e-06 0 -5.92542e-06 -1.42594e-06 0 -5.41454e-06 -1.5594e-06 0 -4.9647e-06 -1.61586e-06 0 -4.53902e-06 -1.62258e-06 0 -4.15008e-06 -1.5952e-06 0 -3.78686e-06 -1.54677e-06 0 -3.45079e-06 -1.48515e-06 0 -3.1377e-06 -1.41664e-06 0 -2.84649e-06 -1.34521e-06 0 -2.57486e-06 -1.27388e-06 0 -2.32125e-06 -1.20456e-06 0 -2.08392e-06 -1.13865e-06 0 -1.86135e-06 -1.07703e-06 0 -1.65202e-06 -1.02028e-06 0 -1.45451e-06 -9.68754e-07 0 -1.26747e-06 -9.22645e-07 0 -1.08958e-06 -8.82041e-07 0 -9.19595e-07 -8.46967e-07 0 -7.56293e-07 -8.17401e-07 0 -5.98504e-07 -7.93306e-07 0 -4.45087e-07 -7.7463e-07 0 -2.94926e-07 -7.61329e-07 0 -1.46925e-07 -7.53364e-07 0 0 -7.50712e-07 0 -6.21125e-05 4.14771e-05 0 -1.46823e-05 1.05877e-05 0 -1.02396e-05 5.25092e-06 0 -1.06652e-05 2.25767e-06 0 -8.49526e-06 6.57309e-07 0 -8.18546e-06 -3.6623e-07 0 -7.11407e-06 -9.93627e-07 0 -6.61647e-06 -1.37966e-06 0 -5.94431e-06 -1.60579e-06 0 -5.46192e-06 -1.72142e-06 0 -4.96202e-06 -1.7654e-06 0 -4.53797e-06 -1.75939e-06 0 -4.13276e-06 -1.72189e-06 0 -3.76787e-06 -1.6637e-06 0 -3.42689e-06 -1.59368e-06 0 -3.11324e-06 -1.51734e-06 0 -2.82132e-06 -1.43893e-06 0 -2.55038e-06 -1.36118e-06 0 -2.29771e-06 -1.2861e-06 0 -2.06182e-06 -1.21496e-06 0 -1.84085e-06 -1.14865e-06 0 -1.6333e-06 -1.08771e-06 0 -1.43765e-06 -1.03246e-06 0 -1.25251e-06 -9.83081e-07 0 -1.07653e-06 -9.39637e-07 0 -9.08452e-07 -9.02135e-07 0 -7.47046e-07 -8.70541e-07 0 -5.91136e-07 -8.44802e-07 0 -4.3958e-07 -8.2486e-07 0 -2.91264e-07 -8.10659e-07 0 -1.45097e-07 -8.02157e-07 0 0 -7.99326e-07 0 </DataArray> 
</PointData> 
<Points> 
<DataArray type="Float32" NumberOfComponents="3"> 