<?xml version="1.0"?> 
<VTKFile type="StructuredGrid" version="0.1"> 
<StructuredGrid WholeExtent="0 31 0 31 0 0"> 
<Piece Extent="0 31 0 31 0 0"> 
<PointData>
<DataArray type="Float32" Name="B" format="ascii" NumberOfComponents="3"> 
-7.70868e-05 5.54144e-05 0 -2.85595e-05 1.86475e-05 0 -2.24649e-05 8.61799e-06 0 -1.98548e-05 3.54e-06 0 -1.73534e-05 6.27891e-07 0 -1.56666e-05 -1.17261e-06 0 -1.40873e-05 -2.27819e-06 0 -1.28031e-05 -2.94618e-06 0 -1.16312e-05 -3.32038e-06 0 -1.06015e-05 -3.49992e-06 0 -9.66185e-06 -3.5477e-06 0 -8.81019e-06 -3.50912e-06 0 -8.02856e-06 -3.41411e-06 0 -7.31078e-06 -3.28463e-06 0 -6.64846e-06 -3.13534e-06 0 -6.03618e-06 -2.97694e-06 0 -5.46867e-06 -2.81658e-06 0 -4.94154e-06 -2.65934e-06 0 -4.45076e-06 -2.50859e-06 0 -3.99269e-06 -2.3666e-06 0 -3.56396e-06 -2.23482e-06 0 -3.16146e-06 -2.11412e-06 0 -2.78224e-06 -2.005e-06 0 -2.42355e-06 -1.90768e-06 0 -2.08275e-06 -1.82221e-06 0 -1.75736e-06 -1.74854e-06 0 -1.44499e-06 -1.68655e-06 0 -1.14333e-06 -1.6361e-06 0 -8.50147e-07 -1.59703e-06 0 -5.6328e-07 -1.56923e-06 0 -2.80598e-07 -1.55258e-06 0 0 -1.54704e-06 0 -5.08265e-05 5.99793e-06 0 -3.70339e-05 6.68197e-06 0 -2.81222e-05 3.1034e-06 0 -2.28342e-05 1.04358e-07 0 -1.94115e-05 -1.87567e-06 0 -1.68279e-05 -3.13022e-06 0 -1.48387e-05 -3.8886e-06 0 -1.31985e-05 -4.31054e-06 0 -1.18284e-05 -4.50469e-06 0 -1.06462e-05 -4.54406e-06 0 -9.61437e-06 -4.48067e-06 0 -8.69885e-06 -4.35007e-06 0 -7.87947e-06 -4.17795e-06 0 -7.13944e-06 -3.98207e-06 0 -6.46699e-06 -3.77518e-06 0 -5.85248e-06 -3.56604e-06 0 -5.28842e-06 -3.36083e-06 0 -4.76851e-06 -3.16369e-06 0 -4.28748e-06 -2.97742e-06 0 -3.84078e-06 -2.80378e-06 0 -3.42442e-06 -2.64385e-06 0 -3.03481e-06 -2.49822e-06 0 -2.66873e-06 -2.36714e-06 0 -2.32322e-06 -2.25064e-06 0 -1.99552e-06 -2.14859e-06 0 -1.68308e-06 -2.0608e-06 0 -1.38346e-06 -1.98705e-06 0 -1.09437e-06 -1.92709e-06 0 -8.13595e-07 -1.88071e-06 0 -5.38993e-07 -1.84772e-06 0 -2.68479e-07 -1.82798e-06 0 0 -1.82141e-06 0 -4.72025e-05 -6.20554e-06 0 -3.77219e-05 -3.50532e-06 0 -3.00157e-05 -3.61549e-06 0 -2.44899e-05 -4.37242e-06 0 -2.0488e-05 -5.09156e-06 0 -1.75149e-05 -5.57281e-06 0 -1.52018e-05 -5.82588e-06 0 -1.33527e-05 -5.89848e-06 0 -1.18289e-05 -5.83926e-06 0 -1.05477e-05 -5.68912e-06 0 -9.44901e-06 -5.47872e-06 0 -8.49322e-06 -5.23157e-06 0 -7.65092e-06 -4.96452e-06 0 -6.90106e-06 -4.69001e-06 0 -6.22766e-06 -4.41675e-06 0 -5.61854e-06 -4.15094e-06 0 -5.06411e-06 -3.89676e-06 0 -4.55668e-06 -3.65703e-06 0 -4.08994e-06 -3.43349e-06 0 -3.6586e-06 -3.22715e-06 0 -3.25816e-06 -3.03853e-06 0 -2.88468e-06 -2.86774e-06 0 -2.5347e-06 -2.71469e-06 0 -2.2051e-06 -2.57912e-06 0 -1.89307e-06 -2.4607e-06 0 -1.59598e-06 -2.35903e-06 0 -1.31143e-06 -2.27376e-06 0 -1.03712e-06 -2.20452e-06 0 -7.70879e-07 -2.151e-06 0 -5.10626e-07 -2.11297e-06 0 -2.54329e-07 -2.09022e-06 0 0 -2.08265e-06 0 -4.35803e-05 -1.39911e-05 0 -3.61428e-05 -1.14247e-05 0 -2.97102e-05 -9.77476e-06 0 -2.45776e-05 -8.99529e-06 0 -2.06143e-05 -8.5645e-06 0 -1.75412e-05 -8.24918e-06 0 -1.51244e-05 -7.94345e-06 0 -1.31833e-05 -7.61606e-06 0 -1.15941e-05 -7.26369e-06 0 -1.02681e-05 -6.89276e-06 0 -9.14331e-06 -6.51273e-06 0 -8.17506e-06 -6.13205e-06 0 -7.33093e-06 -5.75806e-06 0 -6.58678e-06 -5.39621e-06 0 -5.92451e-06 -5.05058e-06 0 -5.33022e-06 -4.72394e-06 0 -4.79303e-06 -4.41809e-06 0 -4.30433e-06 -4.13405e-06 0 -3.85712e-06 -3.87226e-06 0 -3.44563e-06 -3.63276e-06 0 -3.06501e-06 -3.41532e-06 0 -2.71111e-06 -3.2195e-06 0 -2.38032e-06 -3.04475e-06 0 -2.06947e-06 -2.89046e-06 0 -1.77568e-06 -2.75604e-06 0 -1.49638e-06 -2.64088e-06 0 -1.22917e-06 -2.54443e-06 0 -9.71804e-07 -2.46622e-06 0 -7.22189e-07 -2.40583e-06 0 -4.78308e-07 -2.36293e-06 0 -2.38213e-07 -2.33729e-06 0 0 -2.32876e-06 0 -3.97895e-05 -2.16606e-05 0 -3.34558e-05 -1.78132e-05 0 -2.80109e-05 -1.51666e-05 0 -2.34978e-05 -1.3291e-05 0 -1.98491e-05 -1.19501e-05 0 -1.69269e-05 -1.09252e-05 0 -1.45772e-05 -1.00868e-05 0 -1.26693e-05 -9.36034e-06 0 -1.10997e-05 -8.70664e-06 0 -9.79026e-06 -8.10561e-06 0 -8.68287e-06 -7.54694e-06 0 -7.73422e-06 -7.02566e-06 0 -6.91186e-06 -6.53914e-06 0 -6.19131e-06 -6.086e-06 0 -5.55388e-06 -5.66524e-06 0 -4.98513e-06 -5.27604e-06 0 -4.47373e-06 -4.91752e-06 0 -4.01069e-06 -4.58874e-06 0 -3.58874e-06 -4.28868e-06 0 -3.20191e-06 -4.01629e-06 0 -2.84523e-06 -3.77049e-06 0 -2.51449e-06 -3.55018e-06 0 -2.20607e-06 -3.35433e-06 0 -1.9168e-06 -3.18195e-06 0 -1.64386e-06 -3.03212e-06 0 -1.38472e-06 -2.90402e-06 0 -1.13707e-06 -2.79689e-06 0 -8.98759e-07 -2.71012e-06 0 -6.67777e-07 -2.64318e-06 0 -4.42211e-07 -2.59566e-06 0 -2.20218e-07 -2.56727e-06 0 0 -2.55782e-06 0 -3.51458e-05 -2.76409e-05 0 -2.98835e-05 -2.32322e-05 0 -2.53601e-05 -1.97341e-05 0 -2.15369e-05 -1.70752e-05 0 -1.83591e-05 -1.50306e-05 0 -1.57429e-05 -1.34251e-05 0 -1.35937e-05 -1.21236e-05 0 -1.18211e-05 -1.10347e-05 0 -1.03483e-05 -1.00986e-05 0 -9.1128e-06 -9.27677e-06 0 -8.06551e-06 -8.54424e-06 0 -7.16836e-06 -7.88464e-06 0 -6.39192e-06 -7.28694e-06 0 -5.7134e-06 -6.7434e-06 0 -5.11508e-06 -6.24835e-06 0 -4.58307e-06 -5.79744e-06 0 -4.10637e-06 -5.38719e-06 0 -3.67618e-06 -5.01469e-06 0 -3.28539e-06 -4.67744e-06 0 -2.92815e-06 -4.37325e-06 0 -2.5996e-06 -4.10015e-06 0 -2.29563e-06 -3.85641e-06 0 -2.01273e-06 -3.64046e-06 0 -1.74784e-06 -3.4509e-06 0 -1.49827e-06 -3.28651e-06 0 -1.2616e-06 -3.14619e-06 0 -1.03565e-06 -3.02902e-06 0 -8.18401e-07 -2.93421e-06 0 -6.07961e-07 -2.86113e-06 0 -4.02549e-07 -2.80928e-06 0 -2.00452e-07 -2.77832e-06 0 0 -2.76802e-06 0 -2.97051e-05 -3.28167e-05 0 -2.55789e-05 -2.75848e-05 0 -2.20041e-05 -2.3484e-05 0 -1.89262e-05 -2.02446e-05 0 -1.63053e-05 -1.76817e-05 0 -1.40934e-05 -1.56277e-05 0 -1.22356e-05 -1.39528e-05 0 -1.06758e-05 -1.25598e-05 0 -9.36189e-06 -1.13786e-05 0 -8.24893e-06 -1.036e-05 0 -7.29943e-06 -9.46943e-06 0 -6.48289e-06 -8.68226e-06 0 -5.77489e-06 -7.98091e-06 0 -5.15593e-06 -7.35252e-06 0 -4.61045e-06 -6.78745e-06 0 -4.12605e-06 -6.27828e-06 0 -3.69275e-06 -5.81918e-06 0 -3.30248e-06 -5.40545e-06 0 -2.94866e-06 -5.03319e-06 0 -2.62583e-06 -4.69913e-06 0 -2.32948e-06 -4.40049e-06 0 -2.05578e-06 -4.13488e-06 0 -1.80143e-06 -3.90022e-06 0 -1.56361e-06 -3.69472e-06 0 -1.33981e-06 -3.51683e-06 0 -1.1278e-06 -3.36524e-06 0 -9.25562e-07 -3.2388e-06 0 -7.31246e-07 -3.1366e-06 0 -5.43129e-07 -3.05787e-06 0 -3.59581e-07 -3.00205e-06 0 -1.79043e-07 -2.96872e-06 0 0 -2.95764e-06 0 -2.3615e-05 -3.6506e-05 0 -2.07333e-05 -3.088e-05 0 -1.81519e-05 -2.63628e-05 0 -1.58572e-05 -2.27455e-05 0 -1.3841e-05 -1.98288e-05 0 -1.20897e-05 -1.7457e-05 0 -1.05805e-05 -1.55049e-05 0 -9.28567e-06 -1.38763e-05 0 -8.17582e-06 -1.24983e-05 0 -7.22281e-06 -1.1317e-05 0 -6.40137e-06 -1.02923e-05 0 -5.68972e-06 -9.39482e-06 0 -5.06949e-06 -8.60246e-06 0 -4.52548e-06 -7.8987e-06 0 -4.04515e-06 -7.2709e-06 0 -3.61825e-06 -6.70923e-06 0 -3.23635e-06 -6.20595e-06 0 -2.89253e-06 -5.75484e-06 0 -2.58106e-06 -5.35081e-06 0 -2.29716e-06 -4.98966e-06 0 -2.03682e-06 -4.66786e-06 0 -1.79663e-06 -4.38244e-06 0 -1.57367e-06 -4.13086e-06 0 -1.36541e-06 -3.91096e-06 0 -1.16959e-06 -3.72091e-06 0 -9.84248e-07 -3.55915e-06 0 -8.0757e-07 -3.42438e-06 0 -6.3791e-07 -3.31553e-06 0 -4.73738e-07 -3.23174e-06 0 -3.1361e-07 -3.17235e-06 0 -1.56144e-07 -3.1369e-06 0 0 -3.12511e-06 0 -1.71882e-05 -3.88486e-05 0 -1.55926e-05 -3.30377e-05 0 -1.40143e-05 -2.83559e-05 0 -1.25078e-05 -2.45499e-05 0 -1.11106e-05 -2.14369e-05 0 -9.84276e-06 -1.88712e-05 0 -8.71074e-06 -1.67375e-05 0 -7.71086e-06 -1.49452e-05 0 -6.83343e-06 -1.34237e-05 0 -6.0657e-06 -1.2119e-05 0 -5.39412e-06 -1.09893e-05 0 -4.80564e-06 -1.00031e-05 0 -4.28833e-06 -9.13606e-06 0 -3.83171e-06 -8.3694e-06 0 -3.42674e-06 -7.68855e-06 0 -3.06569e-06 -7.08204e-06 0 -2.74208e-06 -6.54074e-06 0 -2.4504e-06 -6.05729e-06 0 -2.18602e-06 -5.62567e-06 0 -1.94503e-06 -5.24093e-06 0 -1.72408e-06 -4.89893e-06 0 -1.52032e-06 -4.59622e-06 0 -1.33127e-06 -4.32986e-06 0 -1.15478e-06 -4.0974e-06 0 -9.88945e-07 -3.89674e-06 0 -8.32056e-07 -3.72612e-06 0 -6.82578e-07 -3.58409e-06 0 -5.39101e-07 -3.46944e-06 0 -4.00314e-07 -3.38124e-06 0 -2.64983e-07 -3.31874e-06 0 -1.31927e-07 -3.28145e-06 0 0 -3.26905e-06 0 -1.08158e-05 -3.97156e-05 0 -1.04317e-05 -3.40962e-05 0 -9.8012e-06 -2.94792e-05 0 -9.04668e-06 -2.56681e-05 0 -8.24842e-06 -2.25025e-05 0 -7.45847e-06 -1.98573e-05 0 -6.70783e-06 -1.7632e-05 0 -6.01318e-06 -1.57458e-05 0 -5.38123e-06 -1.41346e-05 0 -4.81253e-06 -1.27474e-05 0 -4.30399e-06 -1.15441e-05 0 -3.85062e-06 -1.04932e-05 0 -3.44673e-06 -9.56995e-06 0 -3.08654e-06 -8.75479e-06 0 -2.76458e-06 -8.03224e-06 0 -2.47588e-06 -7.38994e-06 0 -2.21601e-06 -6.81792e-06 0 -1.98108e-06 -6.30808e-06 0 -1.7677e-06 -5.85379e-06 0 -1.57293e-06 -5.44956e-06 0 -1.39422e-06 -5.09081e-06 0 -1.22935e-06 -4.77371e-06 0 -1.07636e-06 -4.49505e-06 0 -9.33547e-07 -4.2521e-06 0 -7.99374e-07 -4.04257e-06 0 -6.72475e-07 -3.86454e-06 0 -5.51603e-07 -3.71644e-06 0 -4.35614e-07 -3.59695e-06 0 -3.23444e-07 -3.50506e-06 0 -2.14088e-07 -3.43997e-06 0 -1.06584e-07 -3.40113e-06 0 0 -3.38822e-06 0 -4.85848e-06 -3.93291e-05 0 -5.50688e-06 -3.41518e-05 0 -5.70591e-06 -2.98062e-05 0 -5.62428e-06 -2.61455e-05 0 -5.37467e-06 -2.30517e-05 0 -5.03238e-06 -2.04269e-05 0 -4.64739e-06 -1.819e-05 0 -4.25175e-06 -1.62738e-05 0 -3.86519e-06 -1.46233e-05 0 -3.49892e-06 -1.31934e-05 0 -3.15857e-06 -1.19476e-05 0 -2.84614e-06 -1.08565e-05 0 -2.56149e-06 -9.89641e-06 0 -2.30322e-06 -9.04809e-06 0 -2.06927e-06 -8.2961e-06 0 -1.85734e-06 -7.62787e-06 0 -1.66509e-06 -7.03315e-06 0 -1.49028e-06 -6.50352e-06 0 -1.33083e-06 -6.032e-06 0 -1.18483e-06 -5.61282e-06 0 -1.05058e-06 -5.24114e-06 0 -9.26528e-07 -4.91287e-06 0 -8.11312e-07 -4.62459e-06 0 -7.03691e-07 -4.37343e-06 0 -6.02552e-07 -4.15694e-06 0 -5.06883e-07 -3.9731e-06 0 -4.15757e-07 -3.82022e-06 0 -3.28319e-07 -3.69692e-06 0 -2.43767e-07 -3.60211e-06 0 -1.61344e-07 -3.53498e-06 0 -8.03241e-08 -3.49492e-06 0 0 -3.48161e-06 0 4.13349e-07 -3.79279e-05 0 -1.01712e-06 -3.33841e-05 0 -1.88195e-06 -2.94518e-05 0 -2.36399e-06 -2.60596e-05 0 -2.58934e-06 -2.31347e-05 0 -2.64611e-06 -2.06109e-05 0 -2.59551e-06 -1.84291e-05 0 -2.47988e-06 -1.65378e-05 0 -2.32795e-06 -1.48927e-05 0 -2.15883e-06 -1.34563e-05 0 -1.98485e-06 -1.21974e-05 0 -1.81368e-06 -1.10897e-05 0 -1.64978e-06 -1.01117e-05 0 -1.49553e-06 -9.24555e-06 0 -1.35193e-06 -8.47657e-06 0 -1.21913e-06 -7.7926e-06 0 -1.09676e-06 -7.18354e-06 0 -9.84162e-07 -6.64102e-06 0 -8.80534e-07 -6.15805e-06 0 -7.85016e-07 -5.72874e-06 0 -6.96748e-07 -5.34815e-06 0 -6.149e-07 -5.01212e-06 0 -5.38686e-07 -4.71711e-06 0 -4.67372e-07 -4.46015e-06 0 -4.00275e-07 -4.23873e-06 0 -3.36759e-07 -4.05075e-06 0 -2.76234e-07 -3.89446e-06 0 -2.18144e-07 -3.76843e-06 0 -1.61966e-07 -3.67154e-06 0 -1.07202e-07 -3.60294e-06 0 -5.33695e-08 -3.56201e-06 0 0 -3.54841e-06 0 4.87219e-06 -3.58477e-05 0 2.92099e-06 -3.2001e-05 0 1.56822e-06 -2.85584e-05 0 6.45994e-07 -2.55071e-05 0 3.17152e-08 -2.28177e-05 0 -3.64038e-07 -2.04541e-05 0 -6.06442e-07 -1.8379e-05 0 -7.42702e-07 -1.65567e-05 0 -8.06773e-07 -1.49544e-05 0 -8.22815e-07 -1.35428e-05 0 -8.07825e-07 -1.22966e-05 0 -7.736e-07 -1.11938e-05 0 -7.28205e-07 -1.02156e-05 0 -6.77058e-07 -9.34628e-06 0 -6.23715e-07 -8.5724e-06 0 -5.70446e-07 -7.88269e-06 0 -5.18633e-07 -7.26763e-06 0 -4.69065e-07 -6.71919e-06 0 -4.2213e-07 -6.23058e-06 0 -3.77958e-07 -5.79605e-06 0 -3.3651e-07 -5.41072e-06 0 -2.97648e-07 -5.07043e-06 0 -2.6117e-07 -4.77165e-06 0 -2.26845e-07 -4.51141e-06 0 -1.94423e-07 -4.28715e-06 0 -1.63651e-07 -4.09676e-06 0 -1.3428e-07 -3.93848e-06 0 -1.06061e-07 -3.81085e-06 0 -7.8756e-08 -3.71273e-06 0 -5.21297e-08 -3.64326e-06 0 -2.59529e-08 -3.60182e-06 0 0 -3.58804e-06 0 8.51613e-06 -3.33759e-05 0 6.27087e-06 -3.02091e-05 0 4.59543e-06 -2.72711e-05 0 3.35346e-06 -2.45918e-05 0 2.4383e-06 -2.21747e-05 0 1.76764e-06 -2.00091e-05 0 1.27869e-06 -1.80767e-05 0 9.23903e-07 -1.63563e-05 0 6.67561e-07 -1.48259e-05 0 4.83027e-07 -1.34646e-05 0 3.50588e-07 -1.2253e-05 0 2.55749e-07 -1.11736e-05 0 1.87926e-07 -1.02111e-05 0 1.39433e-07 -9.35191e-06 0 1.0472e-07 -8.58436e-06 0 7.97946e-08 -7.89837e-06 0 6.18027e-08 -7.2853e-06 0 4.87076e-08 -6.73769e-06 0 3.90623e-08 -6.24918e-06 0 3.1842e-08 -5.81429e-06 0 2.63227e-08 -5.42834e-06 0 2.19948e-08 -5.08731e-06 0 1.84999e-08 -4.78775e-06 0 1.55868e-08 -4.52674e-06 0 1.30796e-08 -4.30176e-06 0 1.0855e-08 -4.11073e-06 0 8.82657e-09 -3.95189e-06 0 6.9335e-09 -3.8238e-06 0 5.13236e-09 -3.72532e-06 0 3.39156e-09 -3.65559e-06 0 1.68721e-09 -3.61399e-06 0 0 -3.60017e-06 0 1.14265e-05 -3.07417e-05 0 9.05666e-06 -2.81814e-05 0 7.19412e-06 -2.57209e-05 0 5.73827e-06 -2.34118e-05 0 4.60364e-06 -2.12792e-05 0 3.72017e-06 -1.93305e-05 0 3.03164e-06 -1.75624e-05 0 2.49358e-06 -1.59659e-05 0 2.07124e-06 -1.45286e-05 0 1.73765e-06 -1.3237e-05 0 1.47205e-06 -1.20775e-05 0 1.25856e-06 -1.1037e-05 0 1.08508e-06 -1.01036e-05 0 9.42405e-07 -9.26617e-06 0 8.23553e-07 -8.51499e-06 0 7.23237e-07 -7.84136e-06 0 6.37439e-07 -7.23767e-06 0 5.631e-07 -6.69725e-06 0 4.9788e-07 -6.21429e-06 0 4.39976e-07 -5.78372e-06 0 3.87989e-07 -5.40115e-06 0 3.40822e-07 -5.06281e-06 0 2.97601e-07 -4.76539e-06 0 2.57621e-07 -4.50609e-06 0 2.20305e-07 -4.28249e-06 0 1.85169e-07 -4.09256e-06 0 1.518e-07 -3.93459e-06 0 1.19838e-07 -3.80718e-06 0 8.89616e-08 -3.70921e-06 0 5.88771e-08 -3.63983e-06 0 2.93105e-08 -3.59844e-06 0 0 -3.58468e-06 0 1.37183e-05 -2.80939e-05 0 1.13371e-05 -2.60482e-05 0 9.38881e-06 -2.40148e-05 0 7.80448e-06 -2.20527e-05 0 6.52017e-06 -2.01982e-05 0 5.47974e-06 -1.84702e-05 0 4.63573e-06 -1.68761e-05 0 3.94886e-06 -1.5416e-05 0 3.3872e-06 -1.40855e-05 0 2.92508e-06 -1.28773e-05 0 2.54203e-06 -1.1783e-05 0 2.22186e-06 -1.07936e-05 0 1.95181e-06 -9.90023e-06 0 1.72183e-06 -9.09439e-06 0 1.52406e-06 -8.36823e-06 0 1.35232e-06 -7.71458e-06 0 1.20174e-06 -7.12693e-06 0 1.06846e-06 -6.59949e-06 0 9.49447e-07 -6.12711e-06 0 8.42242e-07 -5.70523e-06 0 7.44874e-07 -5.32984e-06 0 6.55731e-07 -4.99744e-06 0 5.7348e-07 -4.70498e-06 0 4.97007e-07 -4.44979e-06 0 4.25362e-07 -4.22961e-06 0 3.57725e-07 -4.04248e-06 0 2.93373e-07 -3.88678e-06 0 2.31662e-07 -3.76116e-06 0 1.72002e-07 -3.66455e-06 0 1.13847e-07 -3.59612e-06 0 5.66787e-08 -3.55529e-06 0 0 -3.54172e-06 0 1.55085e-05 -2.55214e-05 0 1.31846e-05 -2.38984e-05 0 1.12204e-05 -2.22332e-05 0 9.57208e-06 -2.05834e-05 0 8.19429e-06 -1.89889e-05 0 7.04432e-06 -1.74747e-05 0 6.08392e-06 -1.6055e-05 0 5.27999e-06 -1.47363e-05 0 4.60451e-06 -1.35199e-05 0 4.03416e-06 -1.24038e-05 0 3.54972e-06 -1.13837e-05 0 3.13551e-06 -1.04543e-05 0 2.77881e-06 -9.60942e-06 0 2.46933e-06 -8.84304e-06 0 2.19877e-06 -8.1491e-06 0 1.96042e-06 -7.52189e-06 0 1.74885e-06 -6.95608e-06 0 1.55967e-06 -6.44677e-06 0 1.38928e-06 -5.98952e-06 0 1.23473e-06 -5.58033e-06 0 1.09358e-06 -5.21562e-06 0 9.63782e-07 -4.89222e-06 0 8.43611e-07 -4.60735e-06 0 7.31587e-07 -4.35855e-06 0 6.26428e-07 -4.14372e-06 0 5.27007e-07 -3.96102e-06 0 4.32316e-07 -3.80894e-06 0 3.41442e-07 -3.68618e-06 0 2.53543e-07 -3.59175e-06 0 1.67832e-07 -3.52484e-06 0 8.35593e-08 -3.48492e-06 0 0 -3.47165e-06 0 1.69003e-05 -2.30698e-05 0 1.46709e-05 -2.1788e-05 0 1.2736e-05 -2.04328e-05 0 1.10696e-05 -1.90563e-05 0 9.64139e-06 -1.76976e-05 0 8.42019e-06 -1.63836e-05 0 7.3765e-06 -1.5132e-05 0 6.48346e-06 -1.39536e-05 0 5.7174e-06 -1.28537e-05 0 5.05792e-06 -1.1834e-05 0 4.48766e-06 -1.08937e-05 0 3.99205e-06 -1.00303e-05 0 3.55892e-06 -9.24017e-06 0 3.17819e-06 -8.51929e-06 0 2.84148e-06 -7.86331e-06 0 2.5419e-06 -7.26789e-06 0 2.27372e-06 -6.72882e-06 0 2.0322e-06 -6.24208e-06 0 1.81336e-06 -5.80395e-06 0 1.61389e-06 -5.41101e-06 0 1.43099e-06 -5.06014e-06 0 1.26225e-06 -4.74854e-06 0 1.10563e-06 -4.4737e-06 0 9.59327e-07 -4.23341e-06 0 8.21778e-07 -4.02574e-06 0 6.91575e-07 -3.84901e-06 0 5.67454e-07 -3.7018e-06 0 4.48254e-07 -3.58293e-06 0 3.32902e-07 -3.49145e-06 0 2.20383e-07 -3.42662e-06 0 1.09729e-07 -3.38793e-06 0 0 -3.37507e-06 0 1.79788e-05 -2.07582e-05 0 1.58612e-05 -1.97492e-05 0 1.39824e-05 -1.86514e-05 0 1.2329e-05 -1.75097e-05 0 1.08817e-05 -1.63599e-05 0 9.61905e-06 -1.52287e-05 0 8.51899e-06 -1.41351e-05 0 7.5605e-06 -1.30918e-05 0 6.72424e-06 -1.21069e-05 0 5.99292e-06 -1.11846e-05 0 5.35137e-06 -1.03267e-05 0 4.78646e-06 -9.53288e-06 0 4.28694e-06 -8.80164e-06 0 3.84325e-06 -8.13063e-06 0 3.44727e-06 -7.51698e-06 0 3.09215e-06 -6.95759e-06 0 2.77207e-06 -6.44925e-06 0 2.48214e-06 -5.98882e-06 0 2.21816e-06 -5.57324e-06 0 1.97656e-06 -5.19967e-06 0 1.75428e-06 -4.86545e-06 0 1.54865e-06 -4.56814e-06 0 1.35735e-06 -4.30554e-06 0 1.17835e-06 -4.07569e-06 0 1.0098e-06 -3.87685e-06 0 8.5008e-07 -3.70751e-06 0 6.97683e-07 -3.56636e-06 0 5.51231e-07 -3.45233e-06 0 4.09435e-07 -3.36453e-06 0 2.71073e-07 -3.3023e-06 0 1.34975e-07 -3.26516e-06 0 0 -3.25281e-06 0 1.88123e-05 -1.85902e-05 0 1.68111e-05 -1.77982e-05 0 1.50026e-05 -1.69121e-05 0 1.33817e-05 -1.59697e-05 0 1.19374e-05 -1.50025e-05 0 1.06555e-05 -1.40353e-05 0 9.5202e-06 -1.3087e-05 0 8.51565e-06 -1.21711e-05 0 7.6265e-06 -1.1297e-05 0 6.83851e-06 -1.04706e-05 0 6.13876e-06 -9.69535e-06 0 5.51576e-06 -8.97275e-06 0 4.95938e-06 -8.3028e-06 0 4.46081e-06 -7.68456e-06 0 4.01238e-06 -7.11639e-06 0 3.60749e-06 -6.59624e-06 0 3.24041e-06 -6.12182e-06 0 2.90623e-06 -5.69072e-06 0 2.60065e-06 -5.30057e-06 0 2.31998e-06 -4.94903e-06 0 2.06097e-06 -4.63388e-06 0 1.82076e-06 -4.35306e-06 0 1.59683e-06 -4.10468e-06 0 1.38693e-06 -3.88701e-06 0 1.18903e-06 -3.69851e-06 0 1.00128e-06 -3.53784e-06 0 8.21983e-07 -3.40384e-06 0 6.49564e-07 -3.29552e-06 0 4.82542e-07 -3.21209e-06 0 3.19506e-07 -3.15293e-06 0 1.591e-07 -3.11761e-06 0 0 -3.10587e-06 0 1.94543e-05 -1.65606e-05 0 1.75667e-05 -1.59408e-05 0 1.58343e-05 -1.52279e-05 0 1.42573e-05 -1.44533e-05 0 1.28305e-05 -1.3644e-05 0 1.15452e-05 -1.28223e-05 0 1.03908e-05 -1.20058e-05 0 9.3556e-06 -1.12081e-05 0 8.42784e-06 -1.04388e-05 0 7.59609e-06 -9.70503e-06 0 6.84964e-06 -9.01114e-06 0 6.17865e-06 -8.35979e-06 0 5.57422e-06 -7.75215e-06 0 5.0284e-06 -7.18836e-06 0 4.53411e-06 -6.66775e-06 0 4.08514e-06 -6.18915e-06 0 3.67598e-06 -5.75105e-06 0 3.30179e-06 -5.35171e-06 0 2.95833e-06 -4.98931e-06 0 2.64182e-06 -4.66201e-06 0 2.34891e-06 -4.36801e-06 0 2.07664e-06 -4.10559e-06 0 1.82232e-06 -3.87314e-06 0 1.58355e-06 -3.66918e-06 0 1.35813e-06 -3.49237e-06 0 1.14404e-06 -3.34154e-06 0 9.3942e-07 -3.21566e-06 0 7.42513e-07 -3.11384e-06 0 5.51671e-07 -3.03539e-06 0 3.65315e-07 -2.97975e-06 0 1.81922e-07 -2.94652e-06 0 0 -2.93547e-06 0 1.99467e-05 -1.46594e-05 0 1.81659e-05 -1.41762e-05 0 1.65098e-05 -1.36048e-05 0 1.49821e-05 -1.29707e-05 0 1.35817e-05 -1.22971e-05 0 1.23039e-05 -1.16033e-05 0 1.11421e-05 -1.09054e-05 0 1.00882e-05 -1.0216e-05 0 9.13328e-06 -9.54488e-06 0 8.26852e-06 -8.89925e-06 0 7.48523e-06 -8.28416e-06 0 6.77515e-06 -7.70294e-06 0 6.13061e-06 -7.15754e-06 0 5.54458e-06 -6.64887e-06 0 5.01066e-06 -6.17703e-06 0 4.52308e-06 -5.74154e-06 0 4.07666e-06 -5.3415e-06 0 3.66673e-06 -4.97574e-06 0 3.28913e-06 -4.64295e-06 0 2.9401e-06 -4.34171e-06 0 2.61628e-06 -4.07058e-06 0 2.3146e-06 -3.82816e-06 0 2.0323e-06 -3.61313e-06 0 1.76685e-06 -3.42422e-06 0 1.51593e-06 -3.26029e-06 0 1.27736e-06 -3.12033e-06 0 1.04916e-06 -3.00343e-06 0 8.2941e-07 -2.90884e-06 0 6.16323e-07 -2.83592e-06 0 4.08169e-07 -2.78418e-06 0 2.03274e-07 -2.75328e-06 0 0 -2.743e-06 0 2.03226e-05 -1.28748e-05 0 1.86392e-05 -1.24998e-05 0 1.70562e-05 -1.20437e-05 0 1.55792e-05 -1.15272e-05 0 1.42098e-05 -1.09697e-05 0 1.29465e-05 -1.03879e-05 0 1.17856e-05 -9.79585e-06 0 1.07217e-05 -9.20518e-06 0 9.74861e-06 -8.6251e-06 0 8.85957e-06 -8.06266e-06 0 8.04769e-06 -7.52309e-06 0 7.3062e-06 -7.01008e-06 0 6.6286e-06 -6.52607e-06 0 6.00876e-06 -6.07246e-06 0 5.44097e-06 -5.6499e-06 0 4.91997e-06 -5.25842e-06 0 4.44092e-06 -4.89763e-06 0 3.99941e-06 -4.56681e-06 0 3.59141e-06 -4.26505e-06 0 3.21324e-06 -3.99129e-06 0 2.86154e-06 -3.74444e-06 0 2.53322e-06 -3.52338e-06 0 2.22547e-06 -3.32701e-06 0 1.93566e-06 -3.15429e-06 0 1.66138e-06 -3.00427e-06 0 1.40035e-06 -2.87607e-06 0 1.15045e-06 -2.76893e-06 0 9.09659e-07 -2.68218e-06 0 6.76051e-07 -2.61528e-06 0 4.47768e-07 -2.5678e-06 0 2.23008e-07 -2.53944e-06 0 0 -2.53e-06 0 2.06076e-05 -1.1194e-05 0 1.90114e-05 -1.09046e-05 0 1.74959e-05 -1.05425e-05 0 1.60681e-05 -1.01244e-05 0 1.47313e-05 -9.66632e-06 0 1.34864e-05 -9.18227e-06 0 1.23318e-05 -8.68456e-06 0 1.12643e-05 -8.18346e-06 0 1.02799e-05 -7.68737e-06 0 9.37348e-06 -7.20293e-06 0 8.53982e-06 -6.73525e-06 0 7.77343e-06 -6.28807e-06 0 7.0689e-06 -5.86405e-06 0 6.42095e-06 -5.4649e-06 0 5.82456e-06 -5.09161e-06 0 5.27496e-06 -4.74457e-06 0 4.76771e-06 -4.42376e-06 0 4.29865e-06 -4.1288e-06 0 3.86392e-06 -3.85912e-06 0 3.45996e-06 -3.61397e-06 0 3.08345e-06 -3.39252e-06 0 2.73132e-06 -3.19391e-06 0 2.40072e-06 -3.01724e-06 0 2.08898e-06 -2.86169e-06 0 1.7936e-06 -2.72644e-06 0 1.51223e-06 -2.61078e-06 0 1.24265e-06 -2.51405e-06 0 9.82738e-07 -2.4357e-06 0 7.30461e-07 -2.37524e-06 0 4.83851e-07 -2.33233e-06 0 2.40992e-07 -2.30668e-06 0 0 -2.29815e-06 0 2.08219e-05 -9.60384e-06 0 1.93021e-05 -9.38236e-06 0 1.78474e-05 -9.09705e-06 0 1.64654e-05 -8.76143e-06 0 1.51607e-05 -8.38849e-06 0 1.39357e-05 -7.99e-06 0 1.27906e-05 -7.57634e-06 0 1.17239e-05 -7.15645e-06 0 1.0733e-05 -6.73773e-06 0 9.81464e-06 -6.32624e-06 0 8.96467e-06 -5.9267e-06 0 8.17883e-06 -5.54276e-06 0 7.45265e-06 -5.17704e-06 0 6.78165e-06 -4.8314e-06 0 6.16141e-06 -4.50699e-06 0 5.58767e-06 -4.20444e-06 0 5.05636e-06 -3.92398e-06 0 4.56359e-06 -3.6655e-06 0 4.10571e-06 -3.42865e-06 0 3.67926e-06 -3.21295e-06 0 3.28102e-06 -3.01778e-06 0 2.90793e-06 -2.84248e-06 0 2.55714e-06 -2.68638e-06 0 2.22595e-06 -2.54878e-06 0 1.91182e-06 -2.42905e-06 0 1.61234e-06 -2.32657e-06 0 1.32519e-06 -2.24082e-06 0 1.04819e-06 -2.17132e-06 0 7.79213e-07 -2.11768e-06 0 5.16189e-07 -2.0796e-06 0 2.57112e-07 -2.05683e-06 0 0 -2.04926e-06 0 2.09815e-05 -8.09173e-06 0 1.95273e-05 -7.92404e-06 0 1.81257e-05 -7.70173e-06 0 1.67849e-05 -7.43557e-06 0 1.55102e-05 -7.13599e-06 0 1.4305e-05 -6.81263e-06 0 1.31708e-05 -6.47413e-06 0 1.21074e-05 -6.12801e-06 0 1.11137e-05 -5.78067e-06 0 1.01873e-05 -5.43739e-06 0 9.32538e-06 -5.10241e-06 0 8.52458e-06 -4.77907e-06 0 7.78125e-06 -4.46985e-06 0 7.0916e-06 -4.17656e-06 0 6.45178e-06 -3.90043e-06 0 5.85799e-06 -3.64218e-06 0 5.3065e-06 -3.40219e-06 0 4.79369e-06 -3.18052e-06 0 4.31609e-06 -2.97702e-06 0 3.8704e-06 -2.79138e-06 0 3.45346e-06 -2.62316e-06 0 3.06227e-06 -2.47188e-06 0 2.69398e-06 -2.33701e-06 0 2.34589e-06 -2.21802e-06 0 2.01542e-06 -2.1144e-06 0 1.70012e-06 -2.02565e-06 0 1.39761e-06 -1.95135e-06 0 1.10564e-06 -1.89111e-06 0 8.22014e-07 -1.84459e-06 0 5.44586e-07 -1.81155e-06 0 2.71269e-07 -1.7918e-06 0 0 -1.78524e-06 0 2.10986e-05 -6.64537e-06 0 1.96993e-05 -6.52043e-06 0 1.8343e-05 -6.35018e-06 0 1.70378e-05 -6.14299e-06 0 1.57898e-05 -5.90711e-06 0 1.4603e-05 -5.65023e-06 0 1.34798e-05 -5.37934e-06 0 1.24212e-05 -5.10061e-06 0 1.14268e-05 -4.81937e-06 0 1.04954e-05 -4.54007e-06 0 9.62492e-06 -4.26636e-06 0 8.81282e-06 -4.00113e-06 0 8.05615e-06 -3.74663e-06 0 7.35171e-06 -3.5045e-06 0 6.69615e-06 -3.27591e-06 0 6.08604e-06 -3.06161e-06 0 5.51798e-06 -2.86204e-06 0 4.98859e-06 -2.67735e-06 0 4.4946e-06 -2.50752e-06 0 4.03282e-06 -2.35236e-06 0 3.60017e-06 -2.21159e-06 0 3.19372e-06 -2.08486e-06 0 2.81064e-06 -1.97176e-06 0 2.44823e-06 -1.8719e-06 0 2.10388e-06 -1.78488e-06 0 1.77511e-06 -1.7103e-06 0 1.45951e-06 -1.64784e-06 0 1.15476e-06 -1.59717e-06 0 8.58619e-07 -1.55803e-06 0 5.68877e-07 -1.53023e-06 0 2.83381e-07 -1.51361e-06 0 0 -1.50808e-06 0 2.11828e-05 -5.25291e-06 0 1.9828e-05 -5.16225e-06 0 1.85088e-05 -5.0355e-06 0 1.72332e-05 -4.87902e-06 0 1.60078e-05 -4.69911e-06 0 1.48371e-05 -4.5017e-06 0 1.37242e-05 -4.29224e-06 0 1.26706e-05 -4.07559e-06 0 1.16769e-05 -3.856e-06 0 1.07425e-05 -3.63704e-06 0 9.86602e-06 -3.42171e-06 0 9.04559e-06 -3.21238e-06 0 8.27881e-06 -3.01095e-06 0 7.56295e-06 -2.81883e-06 0 6.89506e-06 -2.63705e-06 0 6.27205e-06 -2.46628e-06 0 5.6908e-06 -2.30697e-06 0 5.14813e-06 -2.15931e-06 0 4.64092e-06 -2.02333e-06 0 4.16611e-06 -1.89895e-06 0 3.72071e-06 -1.78599e-06 0 3.30183e-06 -1.68419e-06 0 2.90666e-06 -1.59328e-06 0 2.53251e-06 -1.51295e-06 0 2.17678e-06 -1.44291e-06 0 1.83694e-06 -1.38286e-06 0 1.51056e-06 -1.33253e-06 0 1.19529e-06 -1.2917e-06 0 8.8883e-07 -1.26015e-06 0 5.88928e-07 -1.23774e-06 0 2.93379e-07 -1.22434e-06 0 0 -1.21988e-06 0 2.12414e-05 -3.903e-06 0 1.99209e-05 -3.84023e-06 0 1.86305e-05 -3.75052e-06 0 1.73782e-05 -3.63843e-06 0 1.61709e-05 -3.50853e-06 0 1.50133e-05 -3.36512e-06 0 1.3909e-05 -3.21222e-06 0 1.28601e-05 -3.05342e-06 0 1.18676e-05 -2.89187e-06 0 1.09315e-05 -2.7303e-06 0 1.0051e-05 -2.57095e-06 0 9.22466e-06 -2.41567e-06 0 8.45051e-06 -2.2659e-06 0 7.72619e-06 -2.12278e-06 0 7.04906e-06 -1.98711e-06 0 6.41632e-06 -1.85947e-06 0 5.82503e-06 -1.74022e-06 0 5.27221e-06 -1.62955e-06 0 4.75486e-06 -1.52753e-06 0 4.27001e-06 -1.43412e-06 0 3.81476e-06 -1.34921e-06 0 3.38624e-06 -1.27264e-06 0 2.98168e-06 -1.20421e-06 0 2.5984e-06 -1.14372e-06 0 2.23379e-06 -1.09095e-06 0 1.88531e-06 -1.04568e-06 0 1.55052e-06 -1.00774e-06 0 1.22702e-06 -9.76947e-07 0 9.12485e-07 -9.53153e-07 0 6.04631e-07 -9.36244e-07 0 3.0121e-07 -9.26132e-07 0 0 -9.22768e-07 0 2.12797e-05 -2.58463e-06 0 1.99835e-05 -2.54521e-06 0 1.87136e-05 -2.4879e-06 0 1.74782e-05 -2.41564e-06 0 1.62839e-05 -2.33139e-06 0 1.5136e-05 -2.23798e-06 0 1.40381e-05 -2.13802e-06 0 1.29929e-05 -2.0339e-06 0 1.20017e-05 -1.92771e-06 0 1.10648e-05 -1.82126e-06 0 1.01817e-05 -1.71606e-06 0 9.35149e-06 -1.61337e-06 0 8.57234e-06 -1.51416e-06 0 7.8422e-06 -1.41922e-06 0 7.15867e-06 -1.32911e-06 0 6.51913e-06 -1.24423e-06 0 5.9208e-06 -1.16486e-06 0 5.36082e-06 -1.09113e-06 0 4.83629e-06 -1.0231e-06 0 4.34434e-06 -9.6078e-07 0 3.88207e-06 -9.04092e-07 0 3.44669e-06 -8.52944e-07 0 3.03544e-06 -8.07215e-07 0 2.64564e-06 -7.66771e-07 0 2.27468e-06 -7.31477e-07 0 1.92002e-06 -7.01198e-07 0 1.57919e-06 -6.75809e-07 0 1.24979e-06 -6.552e-07 0 9.29466e-07 -6.39273e-07 0 6.15904e-07 -6.27953e-07 0 3.06832e-07 -6.21184e-07 0 0 -6.18932e-07 0 2.13012e-05 -1.28713e-06 0 2.00196e-05 -1.26813e-06 0 1.8762e-05 -1.24021e-06 0 1.75367e-05 -1.20481e-06 0 1.63503e-05 -1.16339e-06 0 1.52083e-05 -1.11733e-06 0 1.41145e-05 -1.06795e-06 0 1.30717e-05 -1.01641e-06 0 1.20813e-05 -9.63767e-07 0 1.1144e-05 -9.10922e-07 0 1.02596e-05 -8.58636e-07 0 9.42714e-06 -8.07538e-07 0 8.6451e-06 -7.58131e-07 0 7.91156e-06 -7.10804e-07 0 7.22427e-06 -6.65852e-07 0 6.58071e-06 -6.23482e-07 0 5.9782e-06 -5.83832e-07 0 5.41397e-06 -5.46984e-07 0 4.88518e-06 -5.12972e-07 0 4.38897e-06 -4.81796e-07 0 3.92252e-06 -4.53429e-07 0 3.48303e-06 -4.27826e-07 0 3.06777e-06 -4.04928e-07 0 2.67405e-06 -3.84673e-07 0 2.29928e-06 -3.66993e-07 0 1.9409e-06 -3.51822e-07 0 1.59645e-06 -3.39101e-07 0 1.2635e-06 -3.28772e-07 0 9.39688e-07 -3.2079e-07 0 6.2269e-07 -3.15116e-07 0 3.10217e-07 -3.11723e-07 0 0 -3.10594e-07 0 2.13082e-05 -0 0 2.00314e-05 -0 0 1.87779e-05 -0 0 1.75559e-05 -0 0 1.63723e-05 -0 0 1.52322e-05 -0 0 1.41398e-05 -0 0 1.30978e-05 -0 0 1.21077e-05 -0 0 1.11704e-05 -0 0 1.02855e-05 -0 0 9.45229e-06 -0 0 8.66929e-06 -0 0 7.93464e-06 -0 0 7.2461e-06 -0 0 6.60122e-06 -0 0 5.99733e-06 -0 0 5.43169e-06 -0 0 4.90147e-06 -0 0 4.40385e-06 -0 0 3.93601e-06 -0 0 3.49515e-06 -0 0 3.07855e-06 -0 0 2.68353e-06 -0 0 2.30749e-06 -0 0 1.94787e-06 -0 0 1.60221e-06 -0 0 1.26808e-06 -0 0 9.43101e-07 -0 0 6.24956e-07 -0 0 3.11347e-07 -0 0 0 -0 0 </DataArray> 
</PointData> 
<Points> 
<DataArray type="Float32" NumberOfComponents="3"> 