<?xml version="1.0"?> 
<VTKFile type="StructuredGrid" version="0.1"> 
<StructuredGrid WholeExtent="0 31 0 31 0 0"> 
<Piece Extent="0 31 0 31 0 0"> 
<PointData>
<DataArray type="Float32" Name="B" format="ascii" NumberOfComponents="3"> 
0 1.29328e-06 0 2.34412e-07 1.29795e-06 0 4.70575e-07 1.312e-06 0 7.10255e-07 1.33546e-06 0 9.5524e-07 1.36845e-06 0 1.20736e-06 1.41107e-06 0 1.46848e-06 1.46348e-06 0 1.74055e-06 1.52582e-06 0 2.02559e-06 1.59823e-06 0 2.3257e-06 1.6808e-06 0 2.6431e-06 1.77355e-06 0 2.98013e-06 1.87636e-06 0 3.33932e-06 1.98894e-06 0 3.72322e-06 2.11063e-06 0 4.13494e-06 2.24044e-06 0 4.57709e-06 2.37659e-06 0 5.05422e-06 2.51663e-06 0 5.56779e-06 2.65646e-06 0 6.12717e-06 2.79084e-06 0 6.72727e-06 2.91082e-06 0 7.3951e-06 3.00587e-06 0 8.09684e-06 3.05689e-06 0 8.92552e-06 3.04293e-06 0 9.73272e-06 2.92365e-06 0 1.0855e-05 2.655e-06 0 1.17127e-05 2.15168e-06 0 1.35184e-05 1.30312e-06 0 1.41526e-05 -7.63946e-08 0 1.78714e-05 -2.38183e-06 0 1.76892e-05 -6.12898e-06 0 2.61751e-05 -1.43048e-05 0 0.000106209 -2.90179e-05 0 0 1.21473e-06 0 2.37431e-07 1.21911e-06 0 4.76627e-07 1.23227e-06 0 7.19363e-07 1.25427e-06 0 9.67438e-07 1.28518e-06 0 1.22269e-06 1.32511e-06 0 1.48699e-06 1.37419e-06 0 1.76228e-06 1.43254e-06 0 2.05058e-06 1.50028e-06 0 2.35396e-06 1.57746e-06 0 2.67462e-06 1.66407e-06 0 3.01483e-06 1.75995e-06 0 3.37702e-06 1.86474e-06 0 3.76372e-06 1.97778e-06 0 4.1776e-06 2.09793e-06 0 4.62161e-06 2.22345e-06 0 5.09863e-06 2.35161e-06 0 5.61243e-06 2.4785e-06 0 6.16574e-06 2.59816e-06 0 6.76464e-06 2.70236e-06 0 7.40994e-06 2.77852e-06 0 8.11542e-06 2.80989e-06 0 8.87243e-06 2.77006e-06 0 9.7221e-06 2.62448e-06 0 1.06163e-05 2.31715e-06 0 1.16938e-05 1.77068e-06 0 1.27547e-05 8.62423e-07 0 1.42801e-05 -6.25917e-07 0 1.55329e-05 -3.00563e-06 0 1.81319e-05 -7.28183e-06 0 2.01934e-05 -1.53033e-05 0 9.95777e-06 -5.05689e-05 0 0 1.13521e-06 0 2.40255e-07 1.1393e-06 0 4.82285e-07 1.15157e-06 0 7.27877e-07 1.17208e-06 0 9.78839e-07 1.2009e-06 0 1.23701e-06 1.23813e-06 0 1.50428e-06 1.28386e-06 0 1.78257e-06 1.33821e-06 0 2.07389e-06 1.40127e-06 0 2.3803e-06 1.47306e-06 0 2.70396e-06 1.55355e-06 0 3.04709e-06 1.64254e-06 0 3.41202e-06 1.73963e-06 0 3.80115e-06 1.84412e-06 0 4.21702e-06 1.95484e-06 0 4.66222e-06 2.06997e-06 0 5.13948e-06 2.18679e-06 0 5.65158e-06 2.3012e-06 0 6.20153e-06 2.40738e-06 0 6.79227e-06 2.49657e-06 0 7.42736e-06 2.55675e-06 0 8.11001e-06 2.56961e-06 0 8.84507e-06 2.51044e-06 0 9.63661e-06 2.34072e-06 0 1.04922e-05 2.00793e-06 0 1.14192e-05 1.42843e-06 0 1.24265e-05 4.77327e-07 0 1.35308e-05 -1.04703e-06 0 1.46999e-05 -3.53972e-06 0 1.59002e-05 -7.71025e-06 0 1.60824e-05 -1.61868e-05 0 2.20106e-06 -3.33426e-05 0 0 1.05478e-06 0 2.42881e-07 1.05857e-06 0 4.87548e-07 1.06995e-06 0 7.35795e-07 1.08897e-06 0 9.8944e-07 1.11569e-06 0 1.25033e-06 1.1502e-06 0 1.52034e-06 1.19258e-06 0 1.80141e-06 1.24292e-06 0 2.09553e-06 1.30129e-06 0 2.40473e-06 1.3677e-06 0 2.73114e-06 1.44209e-06 0 3.07693e-06 1.52422e-06 0 3.44432e-06 1.61369e-06 0 3.83563e-06 1.70976e-06 0 4.25317e-06 1.81124e-06 0 4.6993e-06 1.9163e-06 0 5.17639e-06 2.02219e-06 0 5.68668e-06 2.12484e-06 0 6.23246e-06 2.21835e-06 0 6.81562e-06 2.29411e-06 0 7.43824e-06 2.33986e-06 0 8.10121e-06 2.33769e-06 0 8.80677e-06 2.2622e-06 0 9.55288e-06 2.07583e-06 0 1.03437e-05 1.72461e-06 0 1.11666e-05 1.127e-06 0 1.20311e-05 1.57721e-07 0 1.28751e-05 -1.37877e-06 0 1.3682e-05 -3.84919e-06 0 1.40219e-05 -7.88399e-06 0 1.25474e-05 -1.5158e-05 0 1.60829e-06 -2.43726e-05 0 0 9.7351e-07 0 2.45309e-07 9.77002e-07 0 4.92413e-07 9.8749e-07 0 7.43114e-07 1.00501e-06 0 9.99236e-07 1.02962e-06 0 1.26263e-06 1.06139e-06 0 1.53517e-06 1.10041e-06 0 1.8188e-06 1.14673e-06 0 2.11549e-06 1.20042e-06 0 2.42725e-06 1.26146e-06 0 2.75617e-06 1.32976e-06 0 3.10436e-06 1.40509e-06 0 3.47398e-06 1.48702e-06 0 3.86718e-06 1.57479e-06 0 4.28614e-06 1.66723e-06 0 4.73295e-06 1.76252e-06 0 5.2096e-06 1.85793e-06 0 5.71785e-06 1.94946e-06 0 6.25921e-06 2.03127e-06 0 6.83463e-06 2.09492e-06 0 7.4445e-06 2.12824e-06 0 8.08797e-06 2.11376e-06 0 8.76332e-06 2.02615e-06 0 9.46554e-06 1.8289e-06 0 1.01886e-05 1.46841e-06 0 1.09151e-05 8.65803e-07 0 1.16254e-05 -9.93553e-08 0 1.2246e-05 -1.61205e-06 0 1.26615e-05 -3.98614e-06 0 1.23721e-05 -7.7284e-06 0 9.90784e-06 -1.35714e-05 0 1.04707e-06 -1.88396e-05 0 0 8.91463e-07 0 2.47538e-07 8.94655e-07 0 4.96878e-07 9.04243e-07 0 7.49831e-07 9.20259e-07 0 1.00822e-06 9.42753e-07 0 1.27391e-06 9.71787e-07 0 1.54878e-06 1.00743e-06 0 1.83474e-06 1.04973e-06 0 2.13377e-06 1.09873e-06 0 2.44786e-06 1.1544e-06 0 2.77906e-06 1.21665e-06 0 3.12941e-06 1.28522e-06 0 3.50101e-06 1.35968e-06 0 3.89588e-06 1.4393e-06 0 4.31602e-06 1.5229e-06 0 4.76328e-06 1.60872e-06 0 5.23929e-06 1.69409e-06 0 5.74534e-06 1.77513e-06 0 6.28218e-06 1.84617e-06 0 6.84979e-06 1.89903e-06 0 7.44703e-06 1.92189e-06 0 8.07113e-06 1.89779e-06 0 8.71692e-06 1.80219e-06 0 9.37572e-06 1.59976e-06 0 1.00332e-05 1.23883e-06 0 1.0665e-05 6.44105e-07 0 1.12288e-05 -2.96638e-07 0 1.16381e-05 -1.75165e-06 0 1.17079e-05 -3.97528e-06 0 1.09346e-05 -7.32266e-06 0 8.00653e-06 -1.18962e-05 0 7.80491e-07 -1.53323e-05 0 0 8.08707e-07 0 2.49567e-07 8.11598e-07 0 5.00942e-07 8.20283e-07 0 7.55944e-07 8.34789e-07 0 1.0164e-06 8.55158e-07 0 1.28418e-06 8.81445e-07 0 1.56115e-06 9.13704e-07 0 1.84923e-06 9.51981e-07 0 2.15038e-06 9.96295e-07 0 2.46658e-06 1.04662e-06 0 2.79982e-06 1.10283e-06 0 3.15211e-06 1.1647e-06 0 3.52545e-06 1.23178e-06 0 3.92177e-06 1.30336e-06 0 4.34288e-06 1.37832e-06 0 4.79041e-06 1.45495e-06 0 5.26565e-06 1.53071e-06 0 5.76939e-06 1.60189e-06 0 6.30172e-06 1.66306e-06 0 6.86164e-06 1.70641e-06 0 7.44658e-06 1.72068e-06 0 8.05179e-06 1.68965e-06 0 8.66913e-06 1.58996e-06 0 9.28573e-06 1.38796e-06 0 9.88082e-06 1.0349e-06 0 1.04213e-05 4.60313e-07 0 1.085e-05 -4.37852e-07 0 1.10627e-05 -1.80621e-06 0 1.08443e-05 -3.84204e-06 0 9.71239e-06 -6.75189e-06 0 6.63942e-06 -1.0319e-05 0 6.28946e-07 -1.25764e-05 0 0 7.25308e-07 0 2.51395e-07 7.27898e-07 0 5.04604e-07 7.35676e-07 0 7.6145e-07 7.48667e-07 0 1.02377e-06 7.66906e-07 0 1.29342e-06 7.90439e-07 0 1.57229e-06 8.19313e-07 0 1.86227e-06 8.53561e-07 0 2.16532e-06 8.93194e-07 0 2.4834e-06 9.38174e-07 0 2.81846e-06 9.88384e-07 0 3.17246e-06 1.04359e-06 0 3.54734e-06 1.10337e-06 0 3.9449e-06 1.16704e-06 0 4.36681e-06 1.23354e-06 0 4.81446e-06 1.30127e-06 0 5.28882e-06 1.36783e-06 0 5.79026e-06 1.42973e-06 0 6.31818e-06 1.48189e-06 0 6.87067e-06 1.51698e-06 0 7.44385e-06 1.52442e-06 0 8.03104e-06 1.48903e-06 0 8.62137e-06 1.38894e-06 0 9.19799e-06 1.19273e-06 0 9.73438e-06 8.55249e-07 0 1.01894e-05 3.12064e-07 0 1.04944e-05 -5.27486e-07 0 1.05322e-05 -1.7867e-06 0 1.00775e-05 -3.60996e-06 0 8.69788e-06 -6.08864e-06 0 5.64179e-06 -8.86355e-06 0 5.08481e-07 -1.04831e-05 0 0 6.41334e-07 0 2.53021e-07 6.43621e-07 0 5.07862e-07 6.5049e-07 0 7.66349e-07 6.61961e-07 0 1.03032e-06 6.78066e-07 0 1.30164e-06 6.98841e-07 0 1.58219e-06 7.24324e-07 0 1.87386e-06 7.54542e-07 0 2.1786e-06 7.89498e-07 0 2.49833e-06 8.29149e-07 0 2.83499e-06 8.73381e-07 0 3.1905e-06 9.21967e-07 0 3.5667e-06 9.74516e-07 0 3.96532e-06 1.03039e-06 0 4.38787e-06 1.08862e-06 0 4.83553e-06 1.1477e-06 0 5.30899e-06 1.20544e-06 0 5.80817e-06 1.25863e-06 0 6.33189e-06 1.30258e-06 0 6.87738e-06 1.33057e-06 0 7.43953e-06 1.33286e-06 0 8.00987e-06 1.29551e-06 0 8.57505e-06 1.19846e-06 0 9.11452e-06 1.01299e-06 0 9.59681e-06 6.98187e-07 0 9.97357e-06 1.96428e-07 0 1.01678e-05 -5.70879e-07 0 1.00535e-05 -1.70396e-06 0 9.41095e-06 -3.30255e-06 0 7.86716e-06 -5.37684e-06 0 4.90443e-06 -7.53979e-06 0 4.45268e-07 -8.69151e-06 0 0 5.56852e-07 0 2.54445e-07 5.58836e-07 0 5.10714e-07 5.64793e-07 0 7.70638e-07 5.74741e-07 0 1.03606e-06 5.88706e-07 0 1.30884e-06 6.06719e-07 0 1.59085e-06 6.28809e-07 0 1.884e-06 6.54997e-07 0 2.1902e-06 6.85279e-07 0 2.51138e-06 7.19614e-07 0 2.84943e-06 7.57892e-07 0 3.20624e-06 7.99905e-07 0 3.58358e-06 8.45294e-07 0 3.98308e-06 8.93486e-07 0 4.40613e-06 9.43591e-07 0 4.85373e-06 9.94271e-07 0 5.32628e-06 1.04355e-06 0 5.82333e-06 1.08853e-06 0 6.34316e-06 1.12502e-06 0 6.88221e-06 1.14697e-06 0 7.43425e-06 1.14565e-06 0 7.98921e-06 1.10853e-06 0 8.53147e-06 1.01768e-06 0 9.03725e-06 8.47466e-07 0 9.47066e-06 5.61669e-07 0 9.77756e-06 1.10075e-07 0 9.87456e-06 -5.73742e-07 0 9.63203e-06 -1.56879e-06 0 8.84231e-06 -2.93898e-06 0 7.19689e-06 -4.64614e-06 0 4.35251e-06 -6.32614e-06 0 3.83198e-07 -7.18471e-06 0 0 4.71929e-07 0 2.55667e-07 4.73609e-07 0 5.13161e-07 4.78653e-07 0 7.74316e-07 4.87075e-07 0 1.04098e-06 4.98897e-07 0 1.31501e-06 5.14143e-07 0 1.59828e-06 5.32838e-07 0 1.89269e-06 5.54995e-07 0 2.20014e-06 5.8061e-07 0 2.52255e-06 6.0964e-07 0 2.86179e-06 6.41987e-07 0 3.21969e-06 6.77465e-07 0 3.59798e-06 7.15758e-07 0 3.99822e-06 7.5636e-07 0 4.42166e-06 7.98494e-07 0 4.86914e-06 8.40989e-07 0 5.34084e-06 8.82119e-07 0 5.83595e-06 9.1936e-07 0 6.35227e-06 9.49053e-07 0 6.88555e-06 9.65915e-07 0 7.42858e-06 9.62349e-07 0 7.96988e-06 9.27447e-07 0 8.49182e-06 8.45606e-07 0 8.96783e-06 6.94637e-07 0 9.3583e-06 4.43402e-07 0 9.60436e-06 4.93771e-08 0 9.61836e-06 -5.41979e-07 0 9.26998e-06 -1.391e-06 0 8.36831e-06 -2.53514e-06 0 6.66264e-06 -3.91202e-06 0 3.938e-06 -5.20792e-06 0 3.4957e-07 -5.83797e-06 0 0 3.86633e-07 0 2.56685e-07 3.88008e-07 0 5.15201e-07 3.92137e-07 0 7.77383e-07 3.99031e-07 0 1.04508e-06 4.08707e-07 0 1.32015e-06 4.21185e-07 0 1.60447e-06 4.36482e-07 0 1.89993e-06 4.5461e-07 0 2.20842e-06 4.7556e-07 0 2.53185e-06 4.99296e-07 0 2.87207e-06 5.25732e-07 0 3.23088e-06 5.5471e-07 0 3.60995e-06 5.85961e-07 0 4.01078e-06 6.1906e-07 0 4.43452e-06 6.53351e-07 0 4.88186e-06 6.87851e-07 0 5.35278e-06 7.2111e-07 0 5.84619e-06 7.51011e-07 0 6.35947e-06 7.74483e-07 0 6.88777e-06 7.87098e-07 0 7.42305e-06 7.82486e-07 0 7.95261e-06 7.5151e-07 0 8.45714e-06 6.81123e-07 0 8.90773e-06 5.52832e-07 0 9.26168e-06 3.40866e-07 0 9.45654e-06 1.05251e-08 0 9.40174e-06 -4.81432e-07 0 8.96877e-06 -1.17953e-06 0 7.98346e-06 -2.10297e-06 0 6.2454e-06 -3.18325e-06 0 3.62771e-06 -4.16484e-06 0 3.16962e-07 -4.63149e-06 0 0 3.01032e-07 0 2.575e-07 3.02102e-07 0 5.16833e-07 3.05314e-07 0 7.79837e-07 3.10678e-07 0 1.04836e-06 3.18206e-07 0 1.32426e-06 3.27913e-07 0 1.60942e-06 3.39812e-07 0 1.90572e-06 3.5391e-07 0 2.21505e-06 3.702e-07 0 2.53929e-06 3.88652e-07 0 2.88028e-06 4.09194e-07 0 3.23981e-06 4.31701e-07 0 3.6195e-06 4.55958e-07 0 4.02078e-06 4.81624e-07 0 4.44474e-06 5.0818e-07 0 4.89195e-06 5.34844e-07 0 5.36221e-06 5.60464e-07 0 5.8542e-06 5.83361e-07 0 6.36496e-06 6.01099e-07 0 6.88917e-06 6.10167e-07 0 7.41808e-06 6.05512e-07 0 7.93803e-06 5.79897e-07 0 8.42832e-06 5.22998e-07 0 8.85817e-06 4.2023e-07 0 9.18246e-06 2.51388e-07 0 9.33605e-06 -1.0405e-08 0 9.22668e-06 -3.97786e-07 0 8.72848e-06 -9.42183e-07 0 7.68292e-06 -1.65152e-06 0 5.92886e-06 -2.463e-06 0 3.40004e-06 -3.18143e-06 0 2.98241e-07 -3.51407e-06 0 0 2.15192e-07 0 2.58112e-07 2.15957e-07 0 5.18058e-07 2.18252e-07 0 7.81678e-07 2.22085e-07 0 1.05082e-06 2.27463e-07 0 1.32735e-06 2.34398e-07 0 1.61313e-06 2.42897e-07 0 1.91006e-06 2.52967e-07 0 2.22001e-06 2.646e-07 0 2.54486e-06 2.77774e-07 0 2.88644e-06 2.92437e-07 0 3.2465e-06 3.08496e-07 0 3.62664e-06 3.25795e-07 0 4.02826e-06 3.44087e-07 0 4.45237e-06 3.62993e-07 0 4.89946e-06 3.81947e-07 0 5.3692e-06 4.00113e-07 0 5.8601e-06 4.16274e-07 0 6.36893e-06 4.28664e-07 0 6.88999e-06 4.34737e-07 0 7.41403e-06 4.30835e-07 0 7.92664e-06 4.11716e-07 0 8.40607e-06 3.69912e-07 0 8.82013e-06 2.949e-07 0 9.12192e-06 1.7217e-07 0 9.24443e-06 -1.73869e-08 0 9.09443e-06 -2.96499e-07 0 8.54892e-06 -6.85832e-07 0 7.46186e-06 -1.18733e-06 0 5.70138e-06 -1.75171e-06 0 3.24004e-06 -2.24202e-06 0 2.82283e-07 -2.46655e-06 0 0 1.29183e-07 0 2.5852e-07 1.29642e-07 0 5.18875e-07 1.3102e-07 0 7.82906e-07 1.3332e-07 0 1.05246e-06 1.36547e-07 0 1.32941e-06 1.40708e-07 0 1.61561e-06 1.45808e-07 0 1.91295e-06 1.5185e-07 0 2.22332e-06 1.58829e-07 0 2.54858e-06 1.66731e-07 0 2.89054e-06 1.75524e-07 0 3.25095e-06 1.85153e-07 0 3.6314e-06 1.95521e-07 0 4.03324e-06 2.0648e-07 0 4.45744e-06 2.17798e-07 0 4.90444e-06 2.29133e-07 0 5.37383e-06 2.39979e-07 0 5.86398e-06 2.49597e-07 0 6.37149e-06 2.56918e-07 0 6.89044e-06 2.604e-07 0 7.41118e-06 2.57826e-07 0 7.91883e-06 2.46023e-07 0 8.39093e-06 2.20474e-07 0 8.79435e-06 1.74822e-07 0 9.08104e-06 1.00335e-07 0 9.18276e-06 -1.44116e-08 0 9.00587e-06 -1.82804e-07 0 8.42956e-06 -4.16511e-07 0 7.31667e-06 -7.15247e-07 0 5.55421e-06 -1.04781e-06 0 3.1382e-06 -1.33329e-06 0 2.73749e-07 -1.46241e-06 0 0 4.30725e-08 0 2.58724e-07 4.32254e-08 0 5.19283e-07 4.36846e-08 0 7.8352e-07 4.44513e-08 0 1.05328e-06 4.55272e-08 0 1.33043e-06 4.69143e-08 0 1.61685e-06 4.86144e-08 0 1.9144e-06 5.06281e-08 0 2.22497e-06 5.29543e-08 0 2.55043e-06 5.55879e-08 0 2.89259e-06 5.85185e-08 0 3.25318e-06 6.17268e-08 0 3.63378e-06 6.51812e-08 0 4.03572e-06 6.88311e-08 0 4.45997e-06 7.25997e-08 0 4.90693e-06 7.63719e-08 0 5.37613e-06 7.99781e-08 0 5.8659e-06 8.3171e-08 0 6.37276e-06 8.55925e-08 0 6.89063e-06 8.67259e-08 0 7.40971e-06 8.58291e-08 0 7.91485e-06 8.18393e-08 0 8.38327e-06 7.32447e-08 0 8.78134e-06 5.79201e-08 0 9.06043e-06 3.29496e-08 0 9.15175e-06 -5.46675e-09 0 8.96146e-06 -6.1748e-08 0 8.37002e-06 -1.3966e-07 0 7.24472e-06 -2.38866e-07 0 5.48198e-06 -3.48719e-07 0 3.08864e-06 -4.42446e-07 0 2.68937e-07 -4.84839e-07 0 0 -4.30725e-08 0 2.58724e-07 -4.32254e-08 0 5.19283e-07 -4.36846e-08 0 7.8352e-07 -4.44513e-08 0 1.05328e-06 -4.55272e-08 0 1.33043e-06 -4.69143e-08 0 1.61685e-06 -4.86144e-08 0 1.9144e-06 -5.06281e-08 0 2.22497e-06 -5.29543e-08 0 2.55043e-06 -5.55879e-08 0 2.89259e-06 -5.85185e-08 0 3.25318e-06 -6.17268e-08 0 3.63378e-06 -6.51812e-08 0 4.03572e-06 -6.88311e-08 0 4.45997e-06 -7.25997e-08 0 4.90693e-06 -7.63719e-08 0 5.37613e-06 -7.99781e-08 0 5.8659e-06 -8.3171e-08 0 6.37276e-06 -8.55925e-08 0 6.89063e-06 -8.67259e-08 0 7.40971e-06 -8.58291e-08 0 7.91485e-06 -8.18393e-08 0 8.38327e-06 -7.32447e-08 0 8.78134e-06 -5.79201e-08 0 9.06043e-06 -3.29496e-08 0 9.15175e-06 5.46675e-09 0 8.96146e-06 6.1748e-08 0 8.37002e-06 1.3966e-07 0 7.24472e-06 2.38866e-07 0 5.48198e-06 3.48719e-07 0 3.08864e-06 4.42446e-07 0 2.68937e-07 4.84839e-07 0 0 -1.29183e-07 0 2.5852e-07 -1.29642e-07 0 5.18875e-07 -1.3102e-07 0 7.82906e-07 -1.3332e-07 0 1.05246e-06 -1.36547e-07 0 1.32941e-06 -1.40708e-07 0 1.61561e-06 -1.45808e-07 0 1.91295e-06 -1.5185e-07 0 2.22332e-06 -1.58829e-07 0 2.54858e-06 -1.66731e-07 0 2.89054e-06 -1.75524e-07 0 3.25095e-06 -1.85153e-07 0 3.6314e-06 -1.95521e-07 0 4.03324e-06 -2.0648e-07 0 4.45744e-06 -2.17798e-07 0 4.90444e-06 -2.29133e-07 0 5.37383e-06 -2.39979e-07 0 5.86398e-06 -2.49597e-07 0 6.37149e-06 -2.56918e-07 0 6.89044e-06 -2.604e-07 0 7.41118e-06 -2.57826e-07 0 7.91883e-06 -2.46023e-07 0 8.39093e-06 -2.20474e-07 0 8.79435e-06 -1.74822e-07 0 9.08104e-06 -1.00335e-07 0 9.18276e-06 1.44116e-08 0 9.00587e-06 1.82804e-07 0 8.42956e-06 4.16511e-07 0 7.31667e-06 7.15247e-07 0 5.55421e-06 1.04781e-06 0 3.1382e-06 1.33329e-06 0 2.73749e-07 1.46241e-06 0 0 -2.15192e-07 0 2.58112e-07 -2.15957e-07 0 5.18058e-07 -2.18252e-07 0 7.81678e-07 -2.22085e-07 0 1.05082e-06 -2.27463e-07 0 1.32735e-06 -2.34398e-07 0 1.61313e-06 -2.42897e-07 0 1.91006e-06 -2.52967e-07 0 2.22001e-06 -2.646e-07 0 2.54486e-06 -2.77774e-07 0 2.88644e-06 -2.92437e-07 0 3.2465e-06 -3.08496e-07 0 3.62664e-06 -3.25795e-07 0 4.02826e-06 -3.44087e-07 0 4.45237e-06 -3.62993e-07 0 4.89946e-06 -3.81947e-07 0 5.3692e-06 -4.00113e-07 0 5.8601e-06 -4.16274e-07 0 6.36893e-06 -4.28664e-07 0 6.88999e-06 -4.34737e-07 0 7.41403e-06 -4.30835e-07 0 7.92664e-06 -4.11716e-07 0 8.40607e-06 -3.69912e-07 0 8.82013e-06 -2.949e-07 0 9.12192e-06 -1.7217e-07 0 9.24443e-06 1.73869e-08 0 9.09443e-06 2.96499e-07 0 8.54892e-06 6.85832e-07 0 7.46186e-06 1.18733e-06 0 5.70138e-06 1.75171e-06 0 3.24004e-06 2.24202e-06 0 2.82283e-07 2.46655e-06 0 0 -3.01032e-07 0 2.575e-07 -3.02102e-07 0 5.16833e-07 -3.05314e-07 0 7.79837e-07 -3.10678e-07 0 1.04836e-06 -3.18206e-07 0 1.32426e-06 -3.27913e-07 0 1.60942e-06 -3.39812e-07 0 1.90572e-06 -3.5391e-07 0 2.21505e-06 -3.702e-07 0 2.53929e-06 -3.88652e-07 0 2.88028e-06 -4.09194e-07 0 3.23981e-06 -4.31701e-07 0 3.6195e-06 -4.55958e-07 0 4.02078e-06 -4.81624e-07 0 4.44474e-06 -5.0818e-07 0 4.89195e-06 -5.34844e-07 0 5.36221e-06 -5.60464e-07 0 5.8542e-06 -5.83361e-07 0 6.36496e-06 -6.01099e-07 0 6.88917e-06 -6.10167e-07 0 7.41808e-06 -6.05512e-07 0 7.93803e-06 -5.79897e-07 0 8.42832e-06 -5.22998e-07 0 8.85817e-06 -4.2023e-07 0 9.18246e-06 -2.51388e-07 0 9.33605e-06 1.0405e-08 0 9.22668e-06 3.97786e-07 0 8.72848e-06 9.42183e-07 0 7.68292e-06 1.65152e-06 0 5.92886e-06 2.463e-06 0 3.40004e-06 3.18143e-06 0 2.98241e-07 3.51407e-06 0 0 -3.86633e-07 0 2.56685e-07 -3.88008e-07 0 5.15201e-07 -3.92137e-07 0 7.77383e-07 -3.99031e-07 0 1.04508e-06 -4.08707e-07 0 1.32015e-06 -4.21185e-07 0 1.60447e-06 -4.36482e-07 0 1.89993e-06 -4.5461e-07 0 2.20842e-06 -4.7556e-07 0 2.53185e-06 -4.99296e-07 0 2.87207e-06 -5.25732e-07 0 3.23088e-06 -5.5471e-07 0 3.60995e-06 -5.85961e-07 0 4.01078e-06 -6.1906e-07 0 4.43452e-06 -6.53351e-07 0 4.88186e-06 -6.87851e-07 0 5.35278e-06 -7.2111e-07 0 5.84619e-06 -7.51011e-07 0 6.35947e-06 -7.74483e-07 0 6.88777e-06 -7.87098e-07 0 7.42305e-06 -7.82486e-07 0 7.95261e-06 -7.5151e-07 0 8.45714e-06 -6.81123e-07 0 8.90773e-06 -5.52832e-07 0 9.26168e-06 -3.40866e-07 0 9.45654e-06 -1.05251e-08 0 9.40174e-06 4.81432e-07 0 8.96877e-06 1.17953e-06 0 7.98346e-06 2.10297e-06 0 6.2454e-06 3.18325e-06 0 3.62771e-06 4.16484e-06 0 3.16962e-07 4.63149e-06 0 0 -4.71929e-07 0 2.55667e-07 -4.73609e-07 0 5.13161e-07 -4.78653e-07 0 7.74316e-07 -4.87075e-07 0 1.04098e-06 -4.98897e-07 0 1.31501e-06 -5.14143e-07 0 1.59828e-06 -5.32838e-07 0 1.89269e-06 -5.54995e-07 0 2.20014e-06 -5.8061e-07 0 2.52255e-06 -6.0964e-07 0 2.86179e-06 -6.41987e-07 0 3.21969e-06 -6.77465e-07 0 3.59798e-06 -7.15758e-07 0 3.99822e-06 -7.5636e-07 0 4.42166e-06 -7.98494e-07 0 4.86914e-06 -8.40989e-07 0 5.34084e-06 -8.82119e-07 0 5.83595e-06 -9.1936e-07 0 6.35227e-06 -9.49053e-07 0 6.88555e-06 -9.65915e-07 0 7.42858e-06 -9.62349e-07 0 7.96988e-06 -9.27447e-07 0 8.49182e-06 -8.45606e-07 0 8.96783e-06 -6.94637e-07 0 9.3583e-06 -4.43402e-07 0 9.60436e-06 -4.93771e-08 0 9.61836e-06 5.41979e-07 0 9.26998e-06 1.391e-06 0 8.36831e-06 2.53514e-06 0 6.66264e-06 3.91202e-06 0 3.938e-06 5.20792e-06 0 3.4957e-07 5.83797e-06 0 0 -5.56852e-07 0 2.54445e-07 -5.58836e-07 0 5.10714e-07 -5.64793e-07 0 7.70638e-07 -5.74741e-07 0 1.03606e-06 -5.88706e-07 0 1.30884e-06 -6.06719e-07 0 1.59085e-06 -6.28809e-07 0 1.884e-06 -6.54997e-07 0 2.1902e-06 -6.85279e-07 0 2.51138e-06 -7.19614e-07 0 2.84943e-06 -7.57892e-07 0 3.20624e-06 -7.99905e-07 0 3.58358e-06 -8.45294e-07 0 3.98308e-06 -8.93486e-07 0 4.40613e-06 -9.43591e-07 0 4.85373e-06 -9.94271e-07 0 5.32628e-06 -1.04355e-06 0 5.82333e-06 -1.08853e-06 0 6.34316e-06 -1.12502e-06 0 6.88221e-06 -1.14697e-06 0 7.43425e-06 -1.14565e-06 0 7.98921e-06 -1.10853e-06 0 8.53147e-06 -1.01768e-06 0 9.03725e-06 -8.47466e-07 0 9.47066e-06 -5.61669e-07 0 9.77756e-06 -1.10075e-07 0 9.87456e-06 5.73742e-07 0 9.63203e-06 1.56879e-06 0 8.84231e-06 2.93898e-06 0 7.19689e-06 4.64614e-06 0 4.35251e-06 6.32614e-06 0 3.83198e-07 7.18471e-06 0 0 -6.41334e-07 0 2.53021e-07 -6.43621e-07 0 5.07862e-07 -6.5049e-07 0 7.66349e-07 -6.61961e-07 0 1.03032e-06 -6.78066e-07 0 1.30164e-06 -6.98841e-07 0 1.58219e-06 -7.24324e-07 0 1.87386e-06 -7.54542e-07 0 2.1786e-06 -7.89498e-07 0 2.49833e-06 -8.29149e-07 0 2.83499e-06 -8.73381e-07 0 3.1905e-06 -9.21967e-07 0 3.5667e-06 -9.74516e-07 0 3.96532e-06 -1.03039e-06 0 4.38787e-06 -1.08862e-06 0 4.83553e-06 -1.1477e-06 0 5.30899e-06 -1.20544e-06 0 5.80817e-06 -1.25863e-06 0 6.33189e-06 -1.30258e-06 0 6.87738e-06 -1.33057e-06 0 7.43953e-06 -1.33286e-06 0 8.00987e-06 -1.29551e-06 0 8.57505e-06 -1.19846e-06 0 9.11452e-06 -1.01299e-06 0 9.59681e-06 -6.98187e-07 0 9.97357e-06 -1.96428e-07 0 1.01678e-05 5.70879e-07 0 1.00535e-05 1.70396e-06 0 9.41095e-06 3.30255e-06 0 7.86716e-06 5.37684e-06 0 4.90443e-06 7.53979e-06 0 4.45268e-07 8.69151e-06 0 0 -7.25308e-07 0 2.51395e-07 -7.27898e-07 0 5.04604e-07 -7.35676e-07 0 7.6145e-07 -7.48667e-07 0 1.02377e-06 -7.66906e-07 0 1.29342e-06 -7.90439e-07 0 1.57229e-06 -8.19313e-07 0 1.86227e-06 -8.53561e-07 0 2.16532e-06 -8.93194e-07 0 2.4834e-06 -9.38174e-07 0 2.81846e-06 -9.88384e-07 0 3.17246e-06 -1.04359e-06 0 3.54734e-06 -1.10337e-06 0 3.9449e-06 -1.16704e-06 0 4.36681e-06 -1.23354e-06 0 4.81446e-06 -1.30127e-06 0 5.28882e-06 -1.36783e-06 0 5.79026e-06 -1.42973e-06 0 6.31818e-06 -1.48189e-06 0 6.87067e-06 -1.51698e-06 0 7.44385e-06 -1.52442e-06 0 8.03104e-06 -1.48903e-06 0 8.62137e-06 -1.38894e-06 0 9.19799e-06 -1.19273e-06 0 9.73438e-06 -8.55249e-07 0 1.01894e-05 -3.12064e-07 0 1.04944e-05 5.27486e-07 0 1.05322e-05 1.7867e-06 0 1.00775e-05 3.60996e-06 0 8.69788e-06 6.08864e-06 0 5.64179e-06 8.86355e-06 0 5.08481e-07 1.04831e-05 0 0 -8.08707e-07 0 2.49567e-07 -8.11598e-07 0 5.00942e-07 -8.20283e-07 0 7.55944e-07 -8.34789e-07 0 1.0164e-06 -8.55158e-07 0 1.28418e-06 -8.81445e-07 0 1.56115e-06 -9.13704e-07 0 1.84923e-06 -9.51981e-07 0 2.15038e-06 -9.96295e-07 0 2.46658e-06 -1.04662e-06 0 2.79982e-06 -1.10283e-06 0 3.15211e-06 -1.1647e-06 0 3.52545e-06 -1.23178e-06 0 3.92177e-06 -1.30336e-06 0 4.34288e-06 -1.37832e-06 0 4.79041e-06 -1.45495e-06 0 5.26565e-06 -1.53071e-06 0 5.76939e-06 -1.60189e-06 0 6.30172e-06 -1.66306e-06 0 6.86164e-06 -1.70641e-06 0 7.44658e-06 -1.72068e-06 0 8.05179e-06 -1.68965e-06 0 8.66913e-06 -1.58996e-06 0 9.28573e-06 -1.38796e-06 0 9.88082e-06 -1.0349e-06 0 1.04213e-05 -4.60313e-07 0 1.085e-05 4.37852e-07 0 1.10627e-05 1.80621e-06 0 1.08443e-05 3.84204e-06 0 9.71239e-06 6.75189e-06 0 6.63942e-06 1.0319e-05 0 6.28946e-07 1.25764e-05 0 0 -8.91463e-07 0 2.47538e-07 -8.94655e-07 0 4.96878e-07 -9.04243e-07 0 7.49831e-07 -9.20259e-07 0 1.00822e-06 -9.42753e-07 0 1.27391e-06 -9.71787e-07 0 1.54878e-06 -1.00743e-06 0 1.83474e-06 -1.04973e-06 0 2.13377e-06 -1.09873e-06 0 2.44786e-06 -1.1544e-06 0 2.77906e-06 -1.21665e-06 0 3.12941e-06 -1.28522e-06 0 3.50101e-06 -1.35968e-06 0 3.89588e-06 -1.4393e-06 0 4.31602e-06 -1.5229e-06 0 4.76328e-06 -1.60872e-06 0 5.23929e-06 -1.69409e-06 0 5.74534e-06 -1.77513e-06 0 6.28218e-06 -1.84617e-06 0 6.84979e-06 -1.89903e-06 0 7.44703e-06 -1.92189e-06 0 8.07113e-06 -1.89779e-06 0 8.71692e-06 -1.80219e-06 0 9.37572e-06 -1.59976e-06 0 1.00332e-05 -1.23883e-06 0 1.0665e-05 -6.44105e-07 0 1.12288e-05 2.96638e-07 0 1.16381e-05 1.75165e-06 0 1.17079e-05 3.97528e-06 0 1.09346e-05 7.32266e-06 0 8.00653e-06 1.18962e-05 0 7.80491e-07 1.53323e-05 0 0 -9.7351e-07 0 2.45309e-07 -9.77002e-07 0 4.92413e-07 -9.8749e-07 0 7.43114e-07 -1.00501e-06 0 9.99236e-07 -1.02962e-06 0 1.26263e-06 -1.06139e-06 0 1.53517e-06 -1.10041e-06 0 1.8188e-06 -1.14673e-06 0 2.11549e-06 -1.20042e-06 0 2.42725e-06 -1.26146e-06 0 2.75617e-06 -1.32976e-06 0 3.10436e-06 -1.40509e-06 0 3.47398e-06 -1.48702e-06 0 3.86718e-06 -1.57479e-06 0 4.28614e-06 -1.66723e-06 0 4.73295e-06 -1.76252e-06 0 5.2096e-06 -1.85793e-06 0 5.71785e-06 -1.94946e-06 0 6.25921e-06 -2.03127e-06 0 6.83463e-06 -2.09492e-06 0 7.4445e-06 -2.12824e-06 0 8.08797e-06 -2.11376e-06 0 8.76332e-06 -2.02615e-06 0 9.46554e-06 -1.8289e-06 0 1.01886e-05 -1.46841e-06 0 1.09151e-05 -8.65803e-07 0 1.16254e-05 9.93553e-08 0 1.2246e-05 1.61205e-06 0 1.26615e-05 3.98614e-06 0 1.23721e-05 7.7284e-06 0 9.90784e-06 1.35714e-05 0 1.04707e-06 1.88396e-05 0 0 -1.05478e-06 0 2.42881e-07 -1.05857e-06 0 4.87548e-07 -1.06995e-06 0 7.35795e-07 -1.08897e-06 0 9.8944e-07 -1.11569e-06 0 1.25033e-06 -1.1502e-06 0 1.52034e-06 -1.19258e-06 0 1.80141e-06 -1.24292e-06 0 2.09553e-06 -1.30129e-06 0 2.40473e-06 -1.3677e-06 0 2.73114e-06 -1.44209e-06 0 3.07693e-06 -1.52422e-06 0 3.44432e-06 -1.61369e-06 0 3.83563e-06 -1.70976e-06 0 4.25317e-06 -1.81124e-06 0 4.6993e-06 -1.9163e-06 0 5.17639e-06 -2.02219e-06 0 5.68668e-06 -2.12484e-06 0 6.23246e-06 -2.21835e-06 0 6.81562e-06 -2.29411e-06 0 7.43824e-06 -2.33986e-06 0 8.10121e-06 -2.33769e-06 0 8.80677e-06 -2.2622e-06 0 9.55288e-06 -2.07583e-06 0 1.03437e-05 -1.72461e-06 0 1.11666e-05 -1.127e-06 0 1.20311e-05 -1.57721e-07 0 1.28751e-05 1.37877e-06 0 1.3682e-05 3.84919e-06 0 1.40219e-05 7.88399e-06 0 1.25474e-05 1.5158e-05 0 1.60829e-06 2.43726e-05 0 0 -1.13521e-06 0 2.40255e-07 -1.1393e-06 0 4.82285e-07 -1.15157e-06 0 7.27877e-07 -1.17208e-06 0 9.78839e-07 -1.2009e-06 0 1.23701e-06 -1.23813e-06 0 1.50428e-06 -1.28386e-06 0 1.78257e-06 -1.33821e-06 0 2.07389e-06 -1.40127e-06 0 2.3803e-06 -1.47306e-06 0 2.70396e-06 -1.55355e-06 0 3.04709e-06 -1.64254e-06 0 3.41202e-06 -1.73963e-06 0 3.80115e-06 -1.84412e-06 0 4.21702e-06 -1.95484e-06 0 4.66222e-06 -2.06997e-06 0 5.13948e-06 -2.18679e-06 0 5.65158e-06 -2.3012e-06 0 6.20153e-06 -2.40738e-06 0 6.79227e-06 -2.49657e-06 0 7.42736e-06 -2.55675e-06 0 8.11001e-06 -2.56961e-06 0 8.84507e-06 -2.51044e-06 0 9.63661e-06 -2.34072e-06 0 1.04922e-05 -2.00793e-06 0 1.14192e-05 -1.42843e-06 0 1.24265e-05 -4.77327e-07 0 1.35308e-05 1.04703e-06 0 1.46999e-05 3.53972e-06 0 1.59002e-05 7.71025e-06 0 1.60824e-05 1.61868e-05 0 2.20106e-06 3.33426e-05 0 0 -1.21473e-06 0 2.37431e-07 -1.21911e-06 0 4.76627e-07 -1.23227e-06 0 7.19363e-07 -1.25427e-06 0 9.67438e-07 -1.28518e-06 0 1.22269e-06 -1.32511e-06 0 1.48699e-06 -1.37419e-06 0 1.76228e-06 -1.43254e-06 0 2.05058e-06 -1.50028e-06 0 2.35396e-06 -1.57746e-06 0 2.67462e-06 -1.66407e-06 0 3.01483e-06 -1.75995e-06 0 3.37702e-06 -1.86474e-06 0 3.76372e-06 -1.97778e-06 0 4.1776e-06 -2.09793e-06 0 4.62161e-06 -2.22345e-06 0 5.09863e-06 -2.35161e-06 0 5.61243e-06 -2.4785e-06 0 6.16574e-06 -2.59816e-06 0 6.76464e-06 -2.70236e-06 0 7.40994e-06 -2.77852e-06 0 8.11542e-06 -2.80989e-06 0 8.87243e-06 -2.77006e-06 0 9.7221e-06 -2.62448e-06 0 1.06163e-05 -2.31715e-06 0 1.16938e-05 -1.77068e-06 0 1.27547e-05 -8.62423e-07 0 1.42801e-05 6.25917e-07 0 1.55329e-05 3.00563e-06 0 1.81319e-05 7.28183e-06 0 2.01934e-05 1.53033e-05 0 9.95777e-06 5.05689e-05 0 0 -1.29328e-06 0 2.34412e-07 -1.29795e-06 0 4.70575e-07 -1.312e-06 0 7.10255e-07 -1.33546e-06 0 9.5524e-07 -1.36845e-06 0 1.20736e-06 -1.41107e-06 0 1.46848e-06 -1.46348e-06 0 1.74055e-06 -1.52582e-06 0 2.02559e-06 -1.59823e-06 0 2.3257e-06 -1.6808e-06 0 2.6431e-06 -1.77355e-06 0 2.98013e-06 -1.87636e-06 0 3.33932e-06 -1.98894e-06 0 3.72322e-06 -2.11063e-06 0 4.13494e-06 -2.24044e-06 0 4.57709e-06 -2.37659e-06 0 5.05422e-06 -2.51663e-06 0 5.56779e-06 -2.65646e-06 0 6.12717e-06 -2.79084e-06 0 6.72727e-06 -2.91082e-06 0 7.3951e-06 -3.00587e-06 0 8.09684e-06 -3.05689e-06 0 8.92552e-06 -3.04293e-06 0 9.73272e-06 -2.92365e-06 0 1.0855e-05 -2.655e-06 0 1.17127e-05 -2.15168e-06 0 1.35184e-05 -1.30312e-06 0 1.41526e-05 7.63946e-08 0 1.78714e-05 2.38183e-06 0 1.76892e-05 6.12898e-06 0 2.61751e-05 1.43048e-05 0 0.000106209 2.90179e-05 0 </DataArray> 
</PointData> 
<Points> 
<DataArray type="Float32" NumberOfComponents="3"> 