<?xml version="1.0"?> 
<VTKFile type="StructuredGrid" version="0.1"> 
<StructuredGrid WholeExtent="0 31 0 31 0 0"> 
<Piece Extent="0 31 0 31 0 0"> 
<PointData>
<DataArray type="Float32" Name="B" format="ascii" NumberOfComponents="3"> 
0 2.53764e-07 0 4.61854e-08 2.5463e-07 0 9.27039e-08 2.57231e-07 0 1.39891e-07 2.61569e-07 0 1.88085e-07 2.6765e-07 0 2.37631e-07 2.75481e-07 0 2.88882e-07 2.85062e-07 0 3.42199e-07 2.9639e-07 0 3.97958e-07 3.09447e-07 0 4.56544e-07 3.24196e-07 0 5.18362e-07 3.40567e-07 0 5.83831e-07 3.58452e-07 0 6.534e-07 3.77667e-07 0 7.27514e-07 3.97958e-07 0 8.06713e-07 4.18907e-07 0 8.91422e-07 4.39992e-07 0 9.82428e-07 4.60313e-07 0 1.07988e-06 4.78884e-07 0 1.18546e-06 4.93786e-07 0 1.29793e-06 5.03287e-07 0 1.42233e-06 5.03256e-07 0 1.55152e-06 4.90817e-07 0 1.70334e-06 4.56989e-07 0 1.8472e-06 3.96736e-07 0 2.0485e-06 2.91177e-07 0 2.18822e-06 1.26509e-07 0 2.50327e-06 -1.30512e-07 0 2.55547e-06 -5.51496e-07 0 3.17214e-06 -1.15816e-06 0 2.86118e-06 -2.48901e-06 0 3.8209e-06 -4.34264e-06 0 1.77348e-05 -2.63965e-05 0 0 2.38293e-07 0 4.67444e-08 2.39104e-07 0 9.38229e-08 2.41537e-07 0 1.41571e-07 2.45596e-07 0 1.90328e-07 2.51285e-07 0 2.40438e-07 2.58606e-07 0 2.92252e-07 2.6756e-07 0 3.46129e-07 2.78138e-07 0 4.02438e-07 2.9032e-07 0 4.61557e-07 3.04063e-07 0 5.23877e-07 3.19296e-07 0 5.89802e-07 3.35898e-07 0 6.59746e-07 3.53692e-07 0 7.34147e-07 3.72394e-07 0 8.13427e-07 3.91624e-07 0 8.98092e-07 4.10766e-07 0 9.88509e-07 4.29068e-07 0 1.08539e-06 4.4524e-07 0 1.18877e-06 4.57872e-07 0 1.30018e-06 4.64274e-07 0 1.4181e-06 4.61905e-07 0 1.54743e-06 4.45098e-07 0 1.68011e-06 4.09277e-07 0 1.83427e-06 3.42476e-07 0 1.97573e-06 2.35311e-07 0 2.17314e-06 6.32509e-08 0 2.291e-06 -2.01753e-07 0 2.58182e-06 -6.05861e-07 0 2.52885e-06 -1.2846e-06 0 2.95116e-06 -2.3244e-06 0 1.90471e-06 -5.06077e-06 0 -1.61692e-05 -7.35365e-06 0 0 2.22643e-07 0 4.72664e-08 2.23398e-07 0 9.48674e-08 2.25663e-07 0 1.43139e-07 2.29442e-07 0 1.92421e-07 2.34737e-07 0 2.43056e-07 2.4155e-07 0 2.95394e-07 2.49877e-07 0 3.49789e-07 2.59708e-07 0 4.06606e-07 2.71019e-07 0 4.66214e-07 2.83765e-07 0 5.28992e-07 2.9787e-07 0 5.95324e-07 3.13214e-07 0 6.65604e-07 3.29609e-07 0 7.40221e-07 3.46782e-07 0 8.1958e-07 3.64326e-07 0 9.04044e-07 3.8167e-07 0 9.94045e-07 3.97981e-07 0 1.08982e-06 4.12115e-07 0 1.19194e-06 4.2241e-07 0 1.30017e-06 4.26622e-07 0 1.41575e-06 4.2147e-07 0 1.53665e-06 4.02543e-07 0 1.66705e-06 3.63318e-07 0 1.79801e-06 2.94927e-07 0 1.9451e-06 1.83928e-07 0 2.0733e-06 1.15374e-08 0 2.23859e-06 -2.53297e-07 0 2.30712e-06 -6.55194e-07 0 2.45554e-06 -1.28944e-06 0 2.13815e-06 -2.29928e-06 0 1.20657e-06 -4.08829e-06 0 -1.8889e-06 -3.85389e-06 0 0 2.06824e-07 0 4.77512e-08 2.07523e-07 0 9.58375e-08 2.09621e-07 0 1.44595e-07 2.1312e-07 0 1.94364e-07 2.18022e-07 0 2.45485e-07 2.24325e-07 0 2.98307e-07 2.32026e-07 0 3.53181e-07 2.41113e-07 0 4.10464e-07 2.51558e-07 0 4.70519e-07 2.63315e-07 0 5.33711e-07 2.76307e-07 0 6.00409e-07 2.9041e-07 0 6.70977e-07 3.0544e-07 0 7.45776e-07 3.21121e-07 0 8.25148e-07 3.37056e-07 0 9.09417e-07 3.52671e-07 0 9.98857e-07 3.67157e-07 0 1.09371e-06 3.79363e-07 0 1.19408e-06 3.87691e-07 0 1.30005e-06 3.89866e-07 0 1.41134e-06 3.8276e-07 0 1.52776e-06 3.61879e-07 0 1.64805e-06 3.21068e-07 0 1.77148e-06 2.51331e-07 0 1.89403e-06 1.40177e-07 0 2.0127e-06 -3.09777e-08 0 2.11378e-06 -2.89742e-07 0 2.1789e-06 -6.77056e-07 0 2.14386e-06 -1.26552e-06 0 1.84046e-06 -2.14121e-06 0 6.73859e-07 -3.32968e-06 0 -1.99757e-06 -2.10461e-06 0 0 1.9085e-07 0 4.81987e-08 1.91493e-07 0 9.67329e-08 1.93424e-07 0 1.45939e-07 1.96642e-07 0 1.96156e-07 2.0115e-07 0 2.47725e-07 2.06945e-07 0 3.00992e-07 2.14022e-07 0 3.56304e-07 2.22366e-07 0 4.14014e-07 2.31951e-07 0 4.74475e-07 2.42728e-07 0 5.38041e-07 2.54619e-07 0 6.05063e-07 2.67503e-07 0 6.75881e-07 2.81197e-07 0 7.5082e-07 2.95432e-07 0 8.30176e-07 3.09817e-07 0 9.14204e-07 3.23798e-07 0 1.00309e-06 3.36575e-07 0 1.09694e-06 3.47048e-07 0 1.1957e-06 3.53627e-07 0 1.29914e-06 3.54161e-07 0 1.40676e-06 3.45508e-07 0 1.51764e-06 3.23488e-07 0 1.63025e-06 2.81869e-07 0 1.74206e-06 2.12453e-07 0 1.84896e-06 1.02797e-07 0 1.94339e-06 -6.37399e-08 0 2.01216e-06 -3.12017e-07 0 2.02537e-06 -6.78101e-07 0 1.92146e-06 -1.20558e-06 0 1.5252e-06 -1.95068e-06 0 4.60188e-07 -2.65314e-06 0 -1.04069e-06 -2.43929e-06 0 0 1.74733e-07 0 4.8609e-08 1.7532e-07 0 9.75537e-08 1.77083e-07 0 1.47171e-07 1.80021e-07 0 1.97798e-07 1.84135e-07 0 2.49777e-07 1.89423e-07 0 3.0345e-07 1.95877e-07 0 3.59161e-07 2.03482e-07 0 4.17258e-07 2.12211e-07 0 4.78086e-07 2.22016e-07 0 5.41988e-07 2.3282e-07 0 6.09295e-07 2.44505e-07 0 6.80327e-07 2.56893e-07 0 7.55373e-07 2.69724e-07 0 8.34685e-07 2.82623e-07 0 9.18452e-07 2.95051e-07 0 1.00677e-06 3.06251e-07 0 1.09962e-06 3.15148e-07 0 1.19678e-06 3.20246e-07 0 1.29779e-06 3.1943e-07 0 1.40177e-06 3.09782e-07 0 1.5074e-06 2.87156e-07 0 1.61237e-06 2.45863e-07 0 1.71345e-06 1.778e-07 0 1.80469e-06 7.18803e-08 0 1.87776e-06 -8.76237e-08 0 1.91463e-06 -3.21821e-07 0 1.88708e-06 -6.58948e-07 0 1.72343e-06 -1.12821e-06 0 1.29206e-06 -1.7251e-06 0 3.48643e-07 -2.22048e-06 0 -8.49315e-07 -1.79704e-06 0 0 1.58485e-07 0 4.8982e-08 1.59017e-07 0 9.82999e-08 1.60611e-07 0 1.4829e-07 1.63269e-07 0 1.99291e-07 1.6699e-07 0 2.51641e-07 1.71771e-07 0 3.05681e-07 1.77603e-07 0 3.61753e-07 1.84473e-07 0 4.20199e-07 1.92352e-07 0 4.81356e-07 2.01193e-07 0 5.45555e-07 2.10923e-07 0 6.13113e-07 2.21428e-07 0 6.84326e-07 2.32538e-07 0 7.59452e-07 2.44007e-07 0 8.38697e-07 2.55477e-07 0 9.22191e-07 2.6644e-07 0 1.00995e-06 2.76174e-07 0 1.10182e-06 2.8367e-07 0 1.19743e-06 2.87501e-07 0 1.29608e-06 2.85689e-07 0 1.39661e-06 2.75447e-07 0 1.49718e-06 2.52928e-07 0 1.59497e-06 2.1272e-07 0 1.68574e-06 1.47422e-07 0 1.76268e-06 4.67209e-08 0 1.8154e-06 -1.03163e-07 0 1.82517e-06 -3.20179e-07 0 1.7608e-06 -6.25577e-07 0 1.55821e-06 -1.03242e-06 0 1.1107e-06 -1.51343e-06 0 2.90597e-07 -1.84193e-06 0 -6.50546e-07 -1.727e-06 0 0 1.4212e-07 0 4.93177e-08 1.42595e-07 0 9.89713e-08 1.44022e-07 0 1.49297e-07 1.46399e-07 0 2.00633e-07 1.49727e-07 0 2.53316e-07 1.54001e-07 0 3.07686e-07 1.59215e-07 0 3.64082e-07 1.65351e-07 0 4.22839e-07 1.72385e-07 0 4.84288e-07 1.80271e-07 0 5.48749e-07 1.88939e-07 0 6.16525e-07 1.98282e-07 0 6.87889e-07 2.08143e-07 0 7.63072e-07 2.18288e-07 0 8.42237e-07 2.28386e-07 0 9.25456e-07 2.37961e-07 0 1.01266e-06 2.46344e-07 0 1.1036e-06 2.5259e-07 0 1.19774e-06 2.55381e-07 0 1.29417e-06 2.52864e-07 0 1.39142e-06 2.42475e-07 0 1.48726e-06 2.20621e-07 0 1.57832e-06 1.82371e-07 0 1.65953e-06 1.20892e-07 0 1.72328e-06 2.70368e-08 0 1.75768e-06 -1.11311e-07 0 1.74367e-06 -3.08778e-07 0 1.64927e-06 -5.80099e-07 0 1.41983e-06 -9.28491e-07 0 9.73385e-07 -1.30906e-06 0 2.5557e-07 -1.55364e-06 0 -5.24166e-07 -1.39744e-06 0 0 1.25648e-07 0 4.96161e-08 1.26068e-07 0 9.9568e-08 1.27326e-07 0 1.50192e-07 1.29424e-07 0 2.01825e-07 1.32359e-07 0 2.54804e-07 1.36128e-07 0 3.09467e-07 1.40723e-07 0 3.66148e-07 1.4613e-07 0 4.25179e-07 1.52323e-07 0 4.86885e-07 1.59261e-07 0 5.51575e-07 1.6688e-07 0 6.19538e-07 1.75079e-07 0 6.91028e-07 1.83714e-07 0 7.66248e-07 1.92573e-07 0 8.45325e-07 2.0135e-07 0 9.28276e-07 2.09612e-07 0 1.01496e-06 2.16746e-07 0 1.10503e-06 2.21891e-07 0 1.1978e-06 2.23839e-07 0 1.29216e-06 2.20909e-07 0 1.38638e-06 2.10755e-07 0 1.47786e-06 1.90131e-07 0 1.56272e-06 1.54558e-07 0 1.63526e-06 9.79595e-08 0 1.687e-06 1.22318e-08 0 1.70535e-06 -1.12875e-07 0 1.67062e-06 -2.89051e-07 0 1.55285e-06 -5.25889e-07 0 1.30479e-06 -8.18852e-07 0 8.70043e-07 -1.12133e-06 0 2.31262e-07 -1.298e-06 0 -4.57434e-07 -1.23346e-06 0 0 1.09084e-07 0 4.98771e-08 1.09447e-07 0 1.0009e-07 1.10538e-07 0 1.50975e-07 1.12355e-07 0 2.02868e-07 1.14898e-07 0 2.56105e-07 1.18162e-07 0 3.11023e-07 1.22141e-07 0 3.67952e-07 1.26821e-07 0 4.27222e-07 1.32179e-07 0 4.8915e-07 1.38176e-07 0 5.54037e-07 1.44755e-07 0 6.22159e-07 1.51827e-07 0 6.93752e-07 1.5926e-07 0 7.68995e-07 1.66866e-07 0 8.4798e-07 1.7437e-07 0 9.30678e-07 1.81386e-07 0 1.01688e-06 1.87366e-07 0 1.10614e-06 1.91541e-07 0 1.19766e-06 1.92834e-07 0 1.29015e-06 1.89745e-07 0 1.38164e-06 1.80189e-07 0 1.46918e-06 1.61278e-07 0 1.54847e-06 1.29069e-07 0 1.61324e-06 7.82261e-08 0 1.65442e-06 1.80069e-09 0 1.6587e-06 -1.08764e-07 0 1.60682e-06 -2.62484e-07 0 1.47038e-06 -4.64941e-07 0 1.21139e-06 -7.07615e-07 0 7.9028e-07 -9.45547e-07 0 2.14399e-07 -1.08045e-06 0 -3.8904e-07 -1.01433e-06 0 0 9.24382e-08 0 5.01008e-08 9.27459e-08 0 1.00537e-07 9.36687e-08 0 1.51646e-07 9.52061e-08 0 2.03761e-07 9.73569e-08 0 2.5722e-07 1.00118e-07 0 3.12355e-07 1.03482e-07 0 3.69497e-07 1.07437e-07 0 4.2897e-07 1.11963e-07 0 4.91086e-07 1.17026e-07 0 5.56138e-07 1.22575e-07 0 6.24393e-07 1.28533e-07 0 6.96069e-07 1.34786e-07 0 7.71325e-07 1.41169e-07 0 8.50222e-07 1.47443e-07 0 9.32688e-07 1.53273e-07 0 1.01846e-06 1.58183e-07 0 1.10701e-06 1.61507e-07 0 1.19742e-06 1.6231e-07 0 1.28825e-06 1.59292e-07 0 1.37731e-06 1.50649e-07 0 1.46139e-06 1.33893e-07 0 1.5358e-06 1.05628e-07 0 1.59381e-06 6.13247e-08 0 1.62582e-06 -4.85375e-09 0 1.61829e-06 -9.98272e-08 0 1.55213e-06 -2.30367e-07 0 1.40178e-06 -3.9924e-07 0 1.13582e-06 -5.96032e-07 0 7.30047e-07 -7.81913e-07 0 2.01183e-07 -8.82717e-07 0 -3.5505e-07 -8.46625e-07 0 0 7.57245e-08 0 5.02873e-08 7.59762e-08 0 1.0091e-07 7.67311e-08 0 1.52205e-07 7.79888e-08 0 2.04506e-07 7.97479e-08 0 2.58148e-07 8.20056e-08 0 3.13464e-07 8.47561e-08 0 3.70783e-07 8.79889e-08 0 4.30424e-07 9.16866e-08 0 4.92695e-07 9.58213e-08 0 5.57884e-07 1.0035e-07 0 6.26246e-07 1.05207e-07 0 6.97988e-07 1.10297e-07 0 7.73249e-07 1.15482e-07 0 8.52064e-07 1.20564e-07 0 9.34327e-07 1.2526e-07 0 1.01973e-06 1.29174e-07 0 1.10766e-06 1.31749e-07 0 1.19712e-06 1.32205e-07 0 1.28653e-06 1.29457e-07 0 1.37353e-06 1.22003e-07 0 1.45466e-06 1.07772e-07 0 1.52493e-06 8.39588e-08 0 1.57722e-06 4.68377e-08 0 1.6016e-06 -8.30607e-09 0 1.58427e-06 -8.69085e-08 0 1.50683e-06 -1.93872e-07 0 1.34586e-06 -3.30124e-07 0 1.07652e-06 -4.85333e-07 0 6.83937e-07 -6.27432e-07 0 1.91498e-07 -7.03371e-07 0 -3.19823e-07 -6.72676e-07 0 0 5.89548e-08 0 5.04364e-08 5.91506e-08 0 1.01208e-07 5.97377e-08 0 1.52652e-07 6.07157e-08 0 2.05101e-07 6.20836e-08 0 2.5889e-07 6.38389e-08 0 3.14351e-07 6.59769e-08 0 3.7181e-07 6.84892e-08 0 4.31585e-07 7.13619e-08 0 4.9398e-07 7.45727e-08 0 5.59276e-07 7.80872e-08 0 6.27722e-07 8.18538e-08 0 6.99515e-07 8.57968e-08 0 7.74776e-07 8.98065e-08 0 8.53522e-07 9.37259e-08 0 9.35616e-07 9.73323e-08 0 1.0207e-06 1.00312e-07 0 1.10813e-06 1.02223e-07 0 1.19681e-06 1.02452e-07 0 1.28507e-06 1.00139e-07 0 1.37039e-06 9.41006e-08 0 1.44912e-06 8.27073e-08 0 1.51602e-06 6.3756e-08 0 1.5637e-06 3.43464e-08 0 1.58194e-06 -9.15136e-09 0 1.55691e-06 -7.08029e-08 0 1.47071e-06 -1.54013e-07 0 1.3022e-06 -2.58693e-07 0 1.03106e-06 -3.75763e-07 0 6.49987e-07 -4.80614e-07 0 1.84025e-07 -5.3553e-07 0 -3.00673e-07 -5.16744e-07 0 0 4.21417e-08 0 5.05483e-08 4.22815e-08 0 1.01432e-07 4.27008e-08 0 1.52987e-07 4.33993e-08 0 2.05547e-07 4.43762e-08 0 2.59447e-07 4.56296e-08 0 3.15016e-07 4.7156e-08 0 3.7258e-07 4.89494e-08 0 4.32455e-07 5.09996e-08 0 4.94942e-07 5.32903e-08 0 5.60319e-07 5.57965e-08 0 6.28827e-07 5.84809e-08 0 7.00655e-07 6.12886e-08 0 7.75915e-07 6.41401e-08 0 8.54606e-07 6.6922e-08 0 9.36569e-07 6.94729e-08 0 1.02142e-06 7.15659e-08 0 1.10846e-06 7.28823e-08 0 1.19655e-06 7.29771e-08 0 1.28392e-06 7.1231e-08 0 1.36796e-06 6.6788e-08 0 1.44486e-06 5.84746e-08 0 1.50922e-06 4.47079e-08 0 1.55341e-06 2.34139e-08 0 1.56705e-06 -7.97409e-09 0 1.53629e-06 -5.22714e-08 0 1.44378e-06 -1.11682e-07 0 1.26999e-06 -1.85714e-07 0 9.98291e-07 -2.67405e-07 0 6.25779e-07 -3.39367e-07 0 1.78798e-07 -3.76818e-07 0 -2.83802e-07 -3.63326e-07 0 0 2.52974e-08 0 5.06228e-08 2.53813e-08 0 1.01581e-07 2.56329e-08 0 1.5321e-07 2.60519e-08 0 2.05845e-07 2.6638e-08 0 2.59817e-07 2.73899e-08 0 3.15459e-07 2.83055e-08 0 3.73093e-07 2.93811e-08 0 4.33034e-07 3.06105e-08 0 4.95582e-07 3.19838e-08 0 5.61012e-07 3.34858e-08 0 6.29561e-07 3.5094e-08 0 7.01413e-07 3.67751e-08 0 7.7667e-07 3.8481e-08 0 8.55323e-07 4.0143e-08 0 9.37197e-07 4.16635e-08 0 1.02189e-06 4.29051e-08 0 1.10867e-06 4.36752e-08 0 1.19635e-06 4.37046e-08 0 1.28313e-06 4.2619e-08 0 1.36631e-06 3.99011e-08 0 1.44198e-06 3.48428e-08 0 1.50462e-06 2.64905e-08 0 1.54649e-06 1.36001e-08 0 1.55705e-06 -5.35842e-09 0 1.52251e-06 -3.20357e-08 0 1.42588e-06 -6.76626e-08 0 1.24882e-06 -1.11776e-07 0 9.76965e-07 -1.60016e-07 0 6.10349e-07 -2.02089e-07 0 1.75356e-07 -2.23796e-07 0 -2.74988e-07 -2.16671e-07 0 0 8.43455e-09 0 5.06601e-08 8.4625e-09 0 1.01656e-07 8.54636e-09 0 1.53322e-07 8.68604e-09 0 2.05993e-07 8.88138e-09 0 2.60003e-07 9.13198e-09 0 3.1568e-07 9.43714e-09 0 3.73349e-07 9.7956e-09 0 4.33324e-07 1.02053e-08 0 4.95903e-07 1.06628e-08 0 5.61359e-07 1.11633e-08 0 6.29928e-07 1.16989e-08 0 7.01791e-07 1.22587e-08 0 7.77047e-07 1.28265e-08 0 8.55681e-07 1.33793e-08 0 9.3751e-07 1.38844e-08 0 1.02212e-06 1.42959e-08 0 1.10877e-06 1.45493e-08 0 1.19625e-06 1.45545e-08 0 1.28273e-06 1.41863e-08 0 1.36547e-06 1.32716e-08 0 1.44053e-06 1.15738e-08 0 1.50231e-06 8.77438e-09 0 1.543e-06 4.45853e-09 0 1.55204e-06 -1.8816e-09 0 1.51561e-06 -1.07901e-08 0 1.41695e-06 -2.26616e-08 0 1.23832e-06 -3.73136e-08 0 9.6649e-07 -5.32671e-08 0 6.02781e-07 -6.71043e-08 0 1.73691e-07 -7.42496e-08 0 -2.69954e-07 -7.17065e-08 0 0 -8.43455e-09 0 5.06601e-08 -8.4625e-09 0 1.01656e-07 -8.54636e-09 0 1.53322e-07 -8.68604e-09 0 2.05993e-07 -8.88138e-09 0 2.60003e-07 -9.13198e-09 0 3.1568e-07 -9.43714e-09 0 3.73349e-07 -9.7956e-09 0 4.33324e-07 -1.02053e-08 0 4.95903e-07 -1.06628e-08 0 5.61359e-07 -1.11633e-08 0 6.29928e-07 -1.16989e-08 0 7.01791e-07 -1.22587e-08 0 7.77047e-07 -1.28265e-08 0 8.55681e-07 -1.33793e-08 0 9.3751e-07 -1.38844e-08 0 1.02212e-06 -1.42959e-08 0 1.10877e-06 -1.45493e-08 0 1.19625e-06 -1.45545e-08 0 1.28273e-06 -1.41863e-08 0 1.36547e-06 -1.32716e-08 0 1.44053e-06 -1.15738e-08 0 1.50231e-06 -8.77438e-09 0 1.543e-06 -4.45853e-09 0 1.55204e-06 1.8816e-09 0 1.51561e-06 1.07901e-08 0 1.41695e-06 2.26616e-08 0 1.23832e-06 3.73136e-08 0 9.6649e-07 5.32671e-08 0 6.02781e-07 6.71043e-08 0 1.73691e-07 7.42496e-08 0 -2.69954e-07 7.17065e-08 0 0 -2.52974e-08 0 5.06228e-08 -2.53813e-08 0 1.01581e-07 -2.56329e-08 0 1.5321e-07 -2.60519e-08 0 2.05845e-07 -2.6638e-08 0 2.59817e-07 -2.73899e-08 0 3.15459e-07 -2.83055e-08 0 3.73093e-07 -2.93811e-08 0 4.33034e-07 -3.06105e-08 0 4.95582e-07 -3.19838e-08 0 5.61012e-07 -3.34858e-08 0 6.29561e-07 -3.5094e-08 0 7.01413e-07 -3.67751e-08 0 7.7667e-07 -3.8481e-08 0 8.55323e-07 -4.0143e-08 0 9.37197e-07 -4.16635e-08 0 1.02189e-06 -4.29051e-08 0 1.10867e-06 -4.36752e-08 0 1.19635e-06 -4.37046e-08 0 1.28313e-06 -4.2619e-08 0 1.36631e-06 -3.99011e-08 0 1.44198e-06 -3.48428e-08 0 1.50462e-06 -2.64905e-08 0 1.54649e-06 -1.36001e-08 0 1.55705e-06 5.35842e-09 0 1.52251e-06 3.20357e-08 0 1.42588e-06 6.76626e-08 0 1.24882e-06 1.11776e-07 0 9.76965e-07 1.60016e-07 0 6.10349e-07 2.02089e-07 0 1.75356e-07 2.23796e-07 0 -2.74988e-07 2.16671e-07 0 0 -4.21417e-08 0 5.05483e-08 -4.22815e-08 0 1.01432e-07 -4.27008e-08 0 1.52987e-07 -4.33993e-08 0 2.05547e-07 -4.43762e-08 0 2.59447e-07 -4.56296e-08 0 3.15016e-07 -4.7156e-08 0 3.7258e-07 -4.89494e-08 0 4.32455e-07 -5.09996e-08 0 4.94942e-07 -5.32903e-08 0 5.60319e-07 -5.57965e-08 0 6.28827e-07 -5.84809e-08 0 7.00655e-07 -6.12886e-08 0 7.75915e-07 -6.41401e-08 0 8.54606e-07 -6.6922e-08 0 9.36569e-07 -6.94729e-08 0 1.02142e-06 -7.15659e-08 0 1.10846e-06 -7.28823e-08 0 1.19655e-06 -7.29771e-08 0 1.28392e-06 -7.1231e-08 0 1.36796e-06 -6.6788e-08 0 1.44486e-06 -5.84746e-08 0 1.50922e-06 -4.47079e-08 0 1.55341e-06 -2.34139e-08 0 1.56705e-06 7.97409e-09 0 1.53629e-06 5.22714e-08 0 1.44378e-06 1.11682e-07 0 1.26999e-06 1.85714e-07 0 9.98291e-07 2.67405e-07 0 6.25779e-07 3.39367e-07 0 1.78798e-07 3.76818e-07 0 -2.83802e-07 3.63326e-07 0 0 -5.89548e-08 0 5.04364e-08 -5.91506e-08 0 1.01208e-07 -5.97377e-08 0 1.52652e-07 -6.07157e-08 0 2.05101e-07 -6.20836e-08 0 2.5889e-07 -6.38389e-08 0 3.14351e-07 -6.59769e-08 0 3.7181e-07 -6.84892e-08 0 4.31585e-07 -7.13619e-08 0 4.9398e-07 -7.45727e-08 0 5.59276e-07 -7.80872e-08 0 6.27722e-07 -8.18538e-08 0 6.99515e-07 -8.57968e-08 0 7.74776e-07 -8.98065e-08 0 8.53522e-07 -9.37259e-08 0 9.35616e-07 -9.73323e-08 0 1.0207e-06 -1.00312e-07 0 1.10813e-06 -1.02223e-07 0 1.19681e-06 -1.02452e-07 0 1.28507e-06 -1.00139e-07 0 1.37039e-06 -9.41006e-08 0 1.44912e-06 -8.27073e-08 0 1.51602e-06 -6.3756e-08 0 1.5637e-06 -3.43464e-08 0 1.58194e-06 9.15136e-09 0 1.55691e-06 7.08029e-08 0 1.47071e-06 1.54013e-07 0 1.3022e-06 2.58693e-07 0 1.03106e-06 3.75763e-07 0 6.49987e-07 4.80614e-07 0 1.84025e-07 5.3553e-07 0 -3.00673e-07 5.16744e-07 0 0 -7.57245e-08 0 5.02873e-08 -7.59762e-08 0 1.0091e-07 -7.67311e-08 0 1.52205e-07 -7.79888e-08 0 2.04506e-07 -7.97479e-08 0 2.58148e-07 -8.20056e-08 0 3.13464e-07 -8.47561e-08 0 3.70783e-07 -8.79889e-08 0 4.30424e-07 -9.16866e-08 0 4.92695e-07 -9.58213e-08 0 5.57884e-07 -1.0035e-07 0 6.26246e-07 -1.05207e-07 0 6.97988e-07 -1.10297e-07 0 7.73249e-07 -1.15482e-07 0 8.52064e-07 -1.20564e-07 0 9.34327e-07 -1.2526e-07 0 1.01973e-06 -1.29174e-07 0 1.10766e-06 -1.31749e-07 0 1.19712e-06 -1.32205e-07 0 1.28653e-06 -1.29457e-07 0 1.37353e-06 -1.22003e-07 0 1.45466e-06 -1.07772e-07 0 1.52493e-06 -8.39588e-08 0 1.57722e-06 -4.68377e-08 0 1.6016e-06 8.30607e-09 0 1.58427e-06 8.69085e-08 0 1.50683e-06 1.93872e-07 0 1.34586e-06 3.30124e-07 0 1.07652e-06 4.85333e-07 0 6.83937e-07 6.27432e-07 0 1.91498e-07 7.03371e-07 0 -3.19823e-07 6.72676e-07 0 0 -9.24382e-08 0 5.01008e-08 -9.27459e-08 0 1.00537e-07 -9.36687e-08 0 1.51646e-07 -9.52061e-08 0 2.03761e-07 -9.73569e-08 0 2.5722e-07 -1.00118e-07 0 3.12355e-07 -1.03482e-07 0 3.69497e-07 -1.07437e-07 0 4.2897e-07 -1.11963e-07 0 4.91086e-07 -1.17026e-07 0 5.56138e-07 -1.22575e-07 0 6.24393e-07 -1.28533e-07 0 6.96069e-07 -1.34786e-07 0 7.71325e-07 -1.41169e-07 0 8.50222e-07 -1.47443e-07 0 9.32688e-07 -1.53273e-07 0 1.01846e-06 -1.58183e-07 0 1.10701e-06 -1.61507e-07 0 1.19742e-06 -1.6231e-07 0 1.28825e-06 -1.59292e-07 0 1.37731e-06 -1.50649e-07 0 1.46139e-06 -1.33893e-07 0 1.5358e-06 -1.05628e-07 0 1.59381e-06 -6.13247e-08 0 1.62582e-06 4.85375e-09 0 1.61829e-06 9.98272e-08 0 1.55213e-06 2.30367e-07 0 1.40178e-06 3.9924e-07 0 1.13582e-06 5.96032e-07 0 7.30047e-07 7.81913e-07 0 2.01183e-07 8.82717e-07 0 -3.5505e-07 8.46625e-07 0 0 -1.09084e-07 0 4.98771e-08 -1.09447e-07 0 1.0009e-07 -1.10538e-07 0 1.50975e-07 -1.12355e-07 0 2.02868e-07 -1.14898e-07 0 2.56105e-07 -1.18162e-07 0 3.11023e-07 -1.22141e-07 0 3.67952e-07 -1.26821e-07 0 4.27222e-07 -1.32179e-07 0 4.8915e-07 -1.38176e-07 0 5.54037e-07 -1.44755e-07 0 6.22159e-07 -1.51827e-07 0 6.93752e-07 -1.5926e-07 0 7.68995e-07 -1.66866e-07 0 8.4798e-07 -1.7437e-07 0 9.30678e-07 -1.81386e-07 0 1.01688e-06 -1.87366e-07 0 1.10614e-06 -1.91541e-07 0 1.19766e-06 -1.92834e-07 0 1.29015e-06 -1.89745e-07 0 1.38164e-06 -1.80189e-07 0 1.46918e-06 -1.61278e-07 0 1.54847e-06 -1.29069e-07 0 1.61324e-06 -7.82261e-08 0 1.65442e-06 -1.80069e-09 0 1.6587e-06 1.08764e-07 0 1.60682e-06 2.62484e-07 0 1.47038e-06 4.64941e-07 0 1.21139e-06 7.07615e-07 0 7.9028e-07 9.45547e-07 0 2.14399e-07 1.08045e-06 0 -3.8904e-07 1.01433e-06 0 0 -1.25648e-07 0 4.96161e-08 -1.26068e-07 0 9.9568e-08 -1.27326e-07 0 1.50192e-07 -1.29424e-07 0 2.01825e-07 -1.32359e-07 0 2.54804e-07 -1.36128e-07 0 3.09467e-07 -1.40723e-07 0 3.66148e-07 -1.4613e-07 0 4.25179e-07 -1.52323e-07 0 4.86885e-07 -1.59261e-07 0 5.51575e-07 -1.6688e-07 0 6.19538e-07 -1.75079e-07 0 6.91028e-07 -1.83714e-07 0 7.66248e-07 -1.92573e-07 0 8.45325e-07 -2.0135e-07 0 9.28276e-07 -2.09612e-07 0 1.01496e-06 -2.16746e-07 0 1.10503e-06 -2.21891e-07 0 1.1978e-06 -2.23839e-07 0 1.29216e-06 -2.20909e-07 0 1.38638e-06 -2.10755e-07 0 1.47786e-06 -1.90131e-07 0 1.56272e-06 -1.54558e-07 0 1.63526e-06 -9.79595e-08 0 1.687e-06 -1.22318e-08 0 1.70535e-06 1.12875e-07 0 1.67062e-06 2.89051e-07 0 1.55285e-06 5.25889e-07 0 1.30479e-06 8.18852e-07 0 8.70043e-07 1.12133e-06 0 2.31262e-07 1.298e-06 0 -4.57434e-07 1.23346e-06 0 0 -1.4212e-07 0 4.93177e-08 -1.42595e-07 0 9.89713e-08 -1.44022e-07 0 1.49297e-07 -1.46399e-07 0 2.00633e-07 -1.49727e-07 0 2.53316e-07 -1.54001e-07 0 3.07686e-07 -1.59215e-07 0 3.64082e-07 -1.65351e-07 0 4.22839e-07 -1.72385e-07 0 4.84288e-07 -1.80271e-07 0 5.48749e-07 -1.88939e-07 0 6.16525e-07 -1.98282e-07 0 6.87889e-07 -2.08143e-07 0 7.63072e-07 -2.18288e-07 0 8.42237e-07 -2.28386e-07 0 9.25456e-07 -2.37961e-07 0 1.01266e-06 -2.46344e-07 0 1.1036e-06 -2.5259e-07 0 1.19774e-06 -2.55381e-07 0 1.29417e-06 -2.52864e-07 0 1.39142e-06 -2.42475e-07 0 1.48726e-06 -2.20621e-07 0 1.57832e-06 -1.82371e-07 0 1.65953e-06 -1.20892e-07 0 1.72328e-06 -2.70368e-08 0 1.75768e-06 1.11311e-07 0 1.74367e-06 3.08778e-07 0 1.64927e-06 5.80099e-07 0 1.41983e-06 9.28491e-07 0 9.73385e-07 1.30906e-06 0 2.5557e-07 1.55364e-06 0 -5.24166e-07 1.39744e-06 0 0 -1.58485e-07 0 4.8982e-08 -1.59017e-07 0 9.82999e-08 -1.60611e-07 0 1.4829e-07 -1.63269e-07 0 1.99291e-07 -1.6699e-07 0 2.51641e-07 -1.71771e-07 0 3.05681e-07 -1.77603e-07 0 3.61753e-07 -1.84473e-07 0 4.20199e-07 -1.92352e-07 0 4.81356e-07 -2.01193e-07 0 5.45555e-07 -2.10923e-07 0 6.13113e-07 -2.21428e-07 0 6.84326e-07 -2.32538e-07 0 7.59452e-07 -2.44007e-07 0 8.38697e-07 -2.55477e-07 0 9.22191e-07 -2.6644e-07 0 1.00995e-06 -2.76174e-07 0 1.10182e-06 -2.8367e-07 0 1.19743e-06 -2.87501e-07 0 1.29608e-06 -2.85689e-07 0 1.39661e-06 -2.75447e-07 0 1.49718e-06 -2.52928e-07 0 1.59497e-06 -2.1272e-07 0 1.68574e-06 -1.47422e-07 0 1.76268e-06 -4.67209e-08 0 1.8154e-06 1.03163e-07 0 1.82517e-06 3.20179e-07 0 1.7608e-06 6.25577e-07 0 1.55821e-06 1.03242e-06 0 1.1107e-06 1.51343e-06 0 2.90597e-07 1.84193e-06 0 -6.50546e-07 1.727e-06 0 0 -1.74733e-07 0 4.8609e-08 -1.7532e-07 0 9.75537e-08 -1.77083e-07 0 1.47171e-07 -1.80021e-07 0 1.97798e-07 -1.84135e-07 0 2.49777e-07 -1.89423e-07 0 3.0345e-07 -1.95877e-07 0 3.59161e-07 -2.03482e-07 0 4.17258e-07 -2.12211e-07 0 4.78086e-07 -2.22016e-07 0 5.41988e-07 -2.3282e-07 0 6.09295e-07 -2.44505e-07 0 6.80327e-07 -2.56893e-07 0 7.55373e-07 -2.69724e-07 0 8.34685e-07 -2.82623e-07 0 9.18452e-07 -2.95051e-07 0 1.00677e-06 -3.06251e-07 0 1.09962e-06 -3.15148e-07 0 1.19678e-06 -3.20246e-07 0 1.29779e-06 -3.1943e-07 0 1.40177e-06 -3.09782e-07 0 1.5074e-06 -2.87156e-07 0 1.61237e-06 -2.45863e-07 0 1.71345e-06 -1.778e-07 0 1.80469e-06 -7.18803e-08 0 1.87776e-06 8.76237e-08 0 1.91463e-06 3.21821e-07 0 1.88708e-06 6.58948e-07 0 1.72343e-06 1.12821e-06 0 1.29206e-06 1.7251e-06 0 3.48643e-07 2.22048e-06 0 -8.49315e-07 1.79704e-06 0 0 -1.9085e-07 0 4.81987e-08 -1.91493e-07 0 9.67329e-08 -1.93424e-07 0 1.45939e-07 -1.96642e-07 0 1.96156e-07 -2.0115e-07 0 2.47725e-07 -2.06945e-07 0 3.00992e-07 -2.14022e-07 0 3.56304e-07 -2.22366e-07 0 4.14014e-07 -2.31951e-07 0 4.74475e-07 -2.42728e-07 0 5.38041e-07 -2.54619e-07 0 6.05063e-07 -2.67503e-07 0 6.75881e-07 -2.81197e-07 0 7.5082e-07 -2.95432e-07 0 8.30176e-07 -3.09817e-07 0 9.14204e-07 -3.23798e-07 0 1.00309e-06 -3.36575e-07 0 1.09694e-06 -3.47048e-07 0 1.1957e-06 -3.53627e-07 0 1.29914e-06 -3.54161e-07 0 1.40676e-06 -3.45508e-07 0 1.51764e-06 -3.23488e-07 0 1.63025e-06 -2.81869e-07 0 1.74206e-06 -2.12453e-07 0 1.84896e-06 -1.02797e-07 0 1.94339e-06 6.37399e-08 0 2.01216e-06 3.12017e-07 0 2.02537e-06 6.78101e-07 0 1.92146e-06 1.20558e-06 0 1.5252e-06 1.95068e-06 0 4.60188e-07 2.65314e-06 0 -1.04069e-06 2.43929e-06 0 0 -2.06824e-07 0 4.77512e-08 -2.07523e-07 0 9.58375e-08 -2.09621e-07 0 1.44595e-07 -2.1312e-07 0 1.94364e-07 -2.18022e-07 0 2.45485e-07 -2.24325e-07 0 2.98307e-07 -2.32026e-07 0 3.53181e-07 -2.41113e-07 0 4.10464e-07 -2.51558e-07 0 4.70519e-07 -2.63315e-07 0 5.33711e-07 -2.76307e-07 0 6.00409e-07 -2.9041e-07 0 6.70977e-07 -3.0544e-07 0 7.45776e-07 -3.21121e-07 0 8.25148e-07 -3.37056e-07 0 9.09417e-07 -3.52671e-07 0 9.98857e-07 -3.67157e-07 0 1.09371e-06 -3.79363e-07 0 1.19408e-06 -3.87691e-07 0 1.30005e-06 -3.89866e-07 0 1.41134e-06 -3.8276e-07 0 1.52776e-06 -3.61879e-07 0 1.64805e-06 -3.21068e-07 0 1.77148e-06 -2.51331e-07 0 1.89403e-06 -1.40177e-07 0 2.0127e-06 3.09777e-08 0 2.11378e-06 2.89742e-07 0 2.1789e-06 6.77056e-07 0 2.14386e-06 1.26552e-06 0 1.84046e-06 2.14121e-06 0 6.73859e-07 3.32968e-06 0 -1.99757e-06 2.10461e-06 0 0 -2.22643e-07 0 4.72664e-08 -2.23398e-07 0 9.48674e-08 -2.25663e-07 0 1.43139e-07 -2.29442e-07 0 1.92421e-07 -2.34737e-07 0 2.43056e-07 -2.4155e-07 0 2.95394e-07 -2.49877e-07 0 3.49789e-07 -2.59708e-07 0 4.06606e-07 -2.71019e-07 0 4.66214e-07 -2.83765e-07 0 5.28992e-07 -2.9787e-07 0 5.95324e-07 -3.13214e-07 0 6.65604e-07 -3.29609e-07 0 7.40221e-07 -3.46782e-07 0 8.1958e-07 -3.64326e-07 0 9.04044e-07 -3.8167e-07 0 9.94045e-07 -3.97981e-07 0 1.08982e-06 -4.12115e-07 0 1.19194e-06 -4.2241e-07 0 1.30017e-06 -4.26622e-07 0 1.41575e-06 -4.2147e-07 0 1.53665e-06 -4.02543e-07 0 1.66705e-06 -3.63318e-07 0 1.79801e-06 -2.94927e-07 0 1.9451e-06 -1.83928e-07 0 2.0733e-06 -1.15374e-08 0 2.23859e-06 2.53297e-07 0 2.30712e-06 6.55194e-07 0 2.45554e-06 1.28944e-06 0 2.13815e-06 2.29928e-06 0 1.20657e-06 4.08829e-06 0 -1.8889e-06 3.85389e-06 0 0 -2.38293e-07 0 4.67444e-08 -2.39104e-07 0 9.38229e-08 -2.41537e-07 0 1.41571e-07 -2.45596e-07 0 1.90328e-07 -2.51285e-07 0 2.40438e-07 -2.58606e-07 0 2.92252e-07 -2.6756e-07 0 3.46129e-07 -2.78138e-07 0 4.02438e-07 -2.9032e-07 0 4.61557e-07 -3.04063e-07 0 5.23877e-07 -3.19296e-07 0 5.89802e-07 -3.35898e-07 0 6.59746e-07 -3.53692e-07 0 7.34147e-07 -3.72394e-07 0 8.13427e-07 -3.91624e-07 0 8.98092e-07 -4.10766e-07 0 9.88509e-07 -4.29068e-07 0 1.08539e-06 -4.4524e-07 0 1.18877e-06 -4.57872e-07 0 1.30018e-06 -4.64274e-07 0 1.4181e-06 -4.61905e-07 0 1.54743e-06 -4.45098e-07 0 1.68011e-06 -4.09277e-07 0 1.83427e-06 -3.42476e-07 0 1.97573e-06 -2.35311e-07 0 2.17314e-06 -6.32509e-08 0 2.291e-06 2.01753e-07 0 2.58182e-06 6.05861e-07 0 2.52885e-06 1.2846e-06 0 2.95116e-06 2.3244e-06 0 1.90471e-06 5.06077e-06 0 -1.61692e-05 7.35365e-06 0 0 -2.53764e-07 0 4.61854e-08 -2.5463e-07 0 9.27039e-08 -2.57231e-07 0 1.39891e-07 -2.61569e-07 0 1.88085e-07 -2.6765e-07 0 2.37631e-07 -2.75481e-07 0 2.88882e-07 -2.85062e-07 0 3.42199e-07 -2.9639e-07 0 3.97958e-07 -3.09447e-07 0 4.56544e-07 -3.24196e-07 0 5.18362e-07 -3.40567e-07 0 5.83831e-07 -3.58452e-07 0 6.534e-07 -3.77667e-07 0 7.27514e-07 -3.97958e-07 0 8.06713e-07 -4.18907e-07 0 8.91422e-07 -4.39992e-07 0 9.82428e-07 -4.60313e-07 0 1.07988e-06 -4.78884e-07 0 1.18546e-06 -4.93786e-07 0 1.29793e-06 -5.03287e-07 0 1.42233e-06 -5.03256e-07 0 1.55152e-06 -4.90817e-07 0 1.70334e-06 -4.56989e-07 0 1.8472e-06 -3.96736e-07 0 2.0485e-06 -2.91177e-07 0 2.18822e-06 -1.26509e-07 0 2.50327e-06 1.30512e-07 0 2.55547e-06 5.51496e-07 0 3.17214e-06 1.15816e-06 0 2.86118e-06 2.48901e-06 0 3.8209e-06 4.34264e-06 0 1.77348e-05 2.63965e-05 0 </DataArray> 
</PointData> 
<Points> 
<DataArray type="Float32" NumberOfComponents="3"> 