<?xml version="1.0"?> 
<VTKFile type="StructuredGrid" version="0.1"> 
<StructuredGrid WholeExtent="0 31 0 31 0 0"> 
<Piece Extent="0 31 0 31 0 0"> 
<PointData>
<DataArray type="Float32" Name="B" format="ascii" NumberOfComponents="3"> 
1.16359e-05 -0 0 1.23355e-05 -0 0 1.30363e-05 -0 0 1.37316e-05 -0 0 1.44142e-05 -0 0 1.50768e-05 -0 0 1.57113e-05 -0 0 1.631e-05 -0 0 1.68652e-05 -0 0 1.73693e-05 -0 0 1.78155e-05 -0 0 1.81976e-05 -0 0 1.85101e-05 -0 0 1.87486e-05 -0 0 1.89095e-05 -0 0 1.89905e-05 -0 0 1.89905e-05 -0 0 1.89095e-05 -0 0 1.87486e-05 -0 0 1.85101e-05 -0 0 1.81976e-05 -0 0 1.78155e-05 -0 0 1.73693e-05 -0 0 1.68652e-05 -0 0 1.631e-05 -0 0 1.57113e-05 -0 0 1.50768e-05 -0 0 1.44142e-05 -0 0 1.37316e-05 -0 0 1.30363e-05 -0 0 1.23355e-05 -0 0 1.16359e-05 -0 0 1.16323e-05 -6.97943e-07 0 1.23349e-05 -7.02291e-07 0 1.3039e-05 -7.00327e-07 0 1.37378e-05 -6.9145e-07 0 1.44243e-05 -6.7517e-07 0 1.50907e-05 -6.51155e-07 0 1.57292e-05 -6.19243e-07 0 1.63318e-05 -5.79466e-07 0 1.68907e-05 -5.32047e-07 0 1.73983e-05 -4.77401e-07 0 1.78477e-05 -4.1612e-07 0 1.82325e-05 -3.48956e-07 0 1.85473e-05 -2.76795e-07 0 1.87874e-05 -2.00637e-07 0 1.89495e-05 -1.21564e-07 0 1.90311e-05 -4.07196e-08 0 1.90311e-05 4.07196e-08 0 1.89495e-05 1.21564e-07 0 1.87874e-05 2.00637e-07 0 1.85473e-05 2.76795e-07 0 1.82325e-05 3.48956e-07 0 1.78477e-05 4.1612e-07 0 1.73983e-05 4.77401e-07 0 1.68907e-05 5.32047e-07 0 1.63318e-05 5.79466e-07 0 1.57292e-05 6.19243e-07 0 1.50907e-05 6.51155e-07 0 1.44243e-05 6.7517e-07 0 1.37378e-05 6.9145e-07 0 1.3039e-05 7.00327e-07 0 1.23349e-05 7.02291e-07 0 1.16323e-05 6.97943e-07 0 1.16211e-05 -1.4015e-06 0 1.23327e-05 -1.4109e-06 0 1.30467e-05 -1.40759e-06 0 1.37564e-05 -1.39033e-06 0 1.44544e-05 -1.35811e-06 0 1.51326e-05 -1.31024e-06 0 1.57831e-05 -1.24639e-06 0 1.63974e-05 -1.16661e-06 0 1.69675e-05 -1.07135e-06 0 1.74857e-05 -9.61464e-07 0 1.79445e-05 -8.38147e-07 0 1.83376e-05 -7.02926e-07 0 1.86591e-05 -5.57602e-07 0 1.89045e-05 -4.04199e-07 0 1.90702e-05 -2.44907e-07 0 1.91536e-05 -8.20358e-08 0 1.91536e-05 8.20358e-08 0 1.90702e-05 2.44907e-07 0 1.89045e-05 4.04199e-07 0 1.86591e-05 5.57602e-07 0 1.83376e-05 7.02926e-07 0 1.79445e-05 8.38147e-07 0 1.74857e-05 9.61464e-07 0 1.69675e-05 1.07135e-06 0 1.63974e-05 1.16661e-06 0 1.57831e-05 1.24639e-06 0 1.51326e-05 1.31024e-06 0 1.44544e-05 1.35811e-06 0 1.37564e-05 1.39033e-06 0 1.30467e-05 1.40759e-06 0 1.23327e-05 1.4109e-06 0 1.16211e-05 1.4015e-06 0 1.16013e-05 -2.11632e-06 0 1.23279e-05 -2.13224e-06 0 1.30588e-05 -2.12885e-06 0 1.37868e-05 -2.10421e-06 0 1.4504e-05 -2.05675e-06 0 1.52024e-05 -1.98537e-06 0 1.5873e-05 -1.88952e-06 0 1.65073e-05 -1.76929e-06 0 1.70965e-05 -1.62535e-06 0 1.76324e-05 -1.45901e-06 0 1.81073e-05 -1.27212e-06 0 1.85143e-05 -1.06704e-06 0 1.88474e-05 -8.46518e-07 0 1.91016e-05 -6.13668e-07 0 1.92732e-05 -3.7184e-07 0 1.93597e-05 -1.24556e-07 0 1.93597e-05 1.24556e-07 0 1.92732e-05 3.7184e-07 0 1.91016e-05 6.13668e-07 0 1.88474e-05 8.46518e-07 0 1.85143e-05 1.06704e-06 0 1.81073e-05 1.27212e-06 0 1.76324e-05 1.45901e-06 0 1.70965e-05 1.62535e-06 0 1.65073e-05 1.76929e-06 0 1.5873e-05 1.88952e-06 0 1.52024e-05 1.98537e-06 0 1.4504e-05 2.05675e-06 0 1.37868e-05 2.10421e-06 0 1.30588e-05 2.12885e-06 0 1.23279e-05 2.13224e-06 0 1.16013e-05 2.11632e-06 0 1.15708e-05 -2.84821e-06 0 1.23188e-05 -2.8729e-06 0 1.30736e-05 -2.87141e-06 0 1.38276e-05 -2.841e-06 0 1.45727e-05 -2.77941e-06 0 1.52997e-05 -2.68506e-06 0 1.59994e-05 -2.55715e-06 0 1.66622e-05 -2.39577e-06 0 1.72789e-05 -2.20185e-06 0 1.78403e-05 -1.97719e-06 0 1.83382e-05 -1.72437e-06 0 1.87651e-05 -1.44664e-06 0 1.91147e-05 -1.14781e-06 0 1.93815e-05 -8.32147e-07 0 1.95617e-05 -5.04244e-07 0 1.96524e-05 -1.68912e-07 0 1.96524e-05 1.68912e-07 0 1.95617e-05 5.04244e-07 0 1.93815e-05 8.32147e-07 0 1.91147e-05 1.14781e-06 0 1.87651e-05 1.44664e-06 0 1.83382e-05 1.72437e-06 0 1.78403e-05 1.97719e-06 0 1.72789e-05 2.20185e-06 0 1.66622e-05 2.39577e-06 0 1.59994e-05 2.55715e-06 0 1.52997e-05 2.68506e-06 0 1.45727e-05 2.77941e-06 0 1.38276e-05 2.841e-06 0 1.30736e-05 2.87141e-06 0 1.23188e-05 2.8729e-06 0 1.15708e-05 2.84821e-06 0 1.15268e-05 -3.60309e-06 0 1.23028e-05 -3.63975e-06 0 1.3089e-05 -3.64299e-06 0 1.38775e-05 -3.60909e-06 0 1.46592e-05 -3.53497e-06 0 1.54244e-05 -3.41844e-06 0 1.61626e-05 -3.25841e-06 0 1.68635e-05 -3.05493e-06 0 1.75165e-05 -2.80922e-06 0 1.81118e-05 -2.52365e-06 0 1.86402e-05 -2.20162e-06 0 1.90936e-05 -1.8474e-06 0 1.94648e-05 -1.46598e-06 0 1.97483e-05 -1.0629e-06 0 1.99397e-05 -6.44101e-07 0 2.00361e-05 -2.15765e-07 0 2.00361e-05 2.15765e-07 0 1.99397e-05 6.44101e-07 0 1.97483e-05 1.0629e-06 0 1.94648e-05 1.46598e-06 0 1.90936e-05 1.8474e-06 0 1.86402e-05 2.20162e-06 0 1.81118e-05 2.52365e-06 0 1.75165e-05 2.80922e-06 0 1.68635e-05 3.05493e-06 0 1.61626e-05 3.25841e-06 0 1.54244e-05 3.41844e-06 0 1.46592e-05 3.53497e-06 0 1.38775e-05 3.60909e-06 0 1.3089e-05 3.64299e-06 0 1.23028e-05 3.63975e-06 0 1.15268e-05 3.60309e-06 0 1.14655e-05 -4.38712e-06 0 1.22762e-05 -4.44005e-06 0 1.31019e-05 -4.45184e-06 0 1.39339e-05 -4.41756e-06 0 1.47622e-05 -4.33309e-06 0 1.55759e-05 -4.19552e-06 0 1.63633e-05 -4.00332e-06 0 1.71126e-05 -3.7565e-06 0 1.78121e-05 -3.45662e-06 0 1.84505e-05 -3.10673e-06 0 1.90176e-05 -2.71119e-06 0 1.95043e-05 -2.27546e-06 0 1.9903e-05 -1.80589e-06 0 2.02074e-05 -1.30943e-06 0 2.0413e-05 -7.93514e-07 0 2.05165e-05 -2.65818e-07 0 2.05165e-05 2.65818e-07 0 2.0413e-05 7.93514e-07 0 2.02074e-05 1.30943e-06 0 1.9903e-05 1.80589e-06 0 1.95043e-05 2.27546e-06 0 1.90176e-05 2.71119e-06 0 1.84505e-05 3.10673e-06 0 1.78121e-05 3.45662e-06 0 1.71126e-05 3.7565e-06 0 1.63633e-05 4.00332e-06 0 1.55759e-05 4.19552e-06 0 1.47622e-05 4.33309e-06 0 1.39339e-05 4.41756e-06 0 1.31019e-05 4.45184e-06 0 1.22762e-05 4.44005e-06 0 1.14655e-05 4.38712e-06 0 1.13817e-05 -5.20669e-06 0 1.22345e-05 -5.28153e-06 0 1.31084e-05 -5.30691e-06 0 1.39938e-05 -5.2764e-06 0 1.48797e-05 -5.18456e-06 0 1.57536e-05 -5.02749e-06 0 1.66022e-05 -4.80311e-06 0 1.74117e-05 -4.51138e-06 0 1.81688e-05 -4.15426e-06 0 1.88606e-05 -3.73564e-06 0 1.94755e-05 -3.26108e-06 0 2.00033e-05 -2.73748e-06 0 2.04357e-05 -2.17274e-06 0 2.07657e-05 -1.57547e-06 0 2.09885e-05 -9.54729e-07 0 2.11007e-05 -3.19821e-07 0 2.11007e-05 3.19821e-07 0 2.09885e-05 9.54729e-07 0 2.07657e-05 1.57547e-06 0 2.04357e-05 2.17274e-06 0 2.00033e-05 2.73748e-06 0 1.94755e-05 3.26108e-06 0 1.88606e-05 3.73564e-06 0 1.81688e-05 4.15426e-06 0 1.74117e-05 4.51138e-06 0 1.66022e-05 4.80311e-06 0 1.57536e-05 5.02749e-06 0 1.48797e-05 5.18456e-06 0 1.39938e-05 5.2764e-06 0 1.31084e-05 5.30691e-06 0 1.22345e-05 5.28153e-06 0 1.13817e-05 5.20669e-06 0 1.12689e-05 -6.06846e-06 0 1.21715e-05 -6.17249e-06 0 1.3103e-05 -6.21808e-06 0 1.40531e-05 -6.19682e-06 0 1.50091e-05 -6.10156e-06 0 1.59566e-05 -5.92709e-06 0 1.688e-05 -5.67061e-06 0 1.77634e-05 -5.33196e-06 0 1.85909e-05 -4.91367e-06 0 1.93478e-05 -4.42072e-06 0 2.00207e-05 -3.86019e-06 0 2.05982e-05 -3.24075e-06 0 2.10709e-05 -2.57219e-06 0 2.14316e-05 -1.86502e-06 0 2.16749e-05 -1.13013e-06 0 2.17974e-05 -3.78564e-07 0 2.17974e-05 3.78564e-07 0 2.16749e-05 1.13013e-06 0 2.14316e-05 1.86502e-06 0 2.10709e-05 2.57219e-06 0 2.05982e-05 3.24075e-06 0 2.00207e-05 3.86019e-06 0 1.93478e-05 4.42072e-06 0 1.85909e-05 4.91367e-06 0 1.77634e-05 5.33196e-06 0 1.688e-05 5.67061e-06 0 1.59566e-05 5.92709e-06 0 1.50091e-05 6.10156e-06 0 1.40531e-05 6.19682e-06 0 1.3103e-05 6.21808e-06 0 1.21715e-05 6.17249e-06 0 1.12689e-05 6.06846e-06 0 1.11185e-05 -6.9793e-06 0 1.2079e-05 -7.1219e-06 0 1.30788e-05 -7.19632e-06 0 1.41061e-05 -7.19158e-06 0 1.51467e-05 -7.09817e-06 0 1.61835e-05 -6.90916e-06 0 1.71981e-05 -6.62072e-06 0 1.81712e-05 -6.2326e-06 0 1.90841e-05 -5.74809e-06 0 1.99194e-05 -5.17367e-06 0 2.06617e-05 -4.5184e-06 0 2.12982e-05 -3.79324e-06 0 2.18186e-05 -3.01031e-06 0 2.22152e-05 -2.18233e-06 0 2.24824e-05 -1.32222e-06 0 2.26169e-05 -4.42871e-07 0 2.26169e-05 4.42871e-07 0 2.24824e-05 1.32222e-06 0 2.22152e-05 2.18233e-06 0 2.18186e-05 3.01031e-06 0 2.12982e-05 3.79324e-06 0 2.06617e-05 4.5184e-06 0 1.99194e-05 5.17367e-06 0 1.90841e-05 5.74809e-06 0 1.81712e-05 6.2326e-06 0 1.71981e-05 6.62072e-06 0 1.61835e-05 6.90916e-06 0 1.51467e-05 7.09817e-06 0 1.41061e-05 7.19158e-06 0 1.30788e-05 7.19632e-06 0 1.2079e-05 7.1219e-06 0 1.11185e-05 6.9793e-06 0 1.09198e-05 -7.94625e-06 0 1.19468e-05 -8.13948e-06 0 1.30263e-05 -8.25401e-06 0 1.41456e-05 -8.27539e-06 0 1.52878e-05 -8.19095e-06 0 1.64326e-05 -7.99122e-06 0 1.75575e-05 -7.67111e-06 0 1.86393e-05 -7.23018e-06 0 1.96551e-05 -6.67287e-06 0 2.05842e-05 -6.00776e-06 0 2.14088e-05 -5.2467e-06 0 2.21146e-05 -4.40361e-06 0 2.26904e-05 -3.49352e-06 0 2.31283e-05 -2.53177e-06 0 2.34229e-05 -1.53351e-06 0 2.3571e-05 -5.13568e-07 0 2.3571e-05 5.13568e-07 0 2.34229e-05 1.53351e-06 0 2.31283e-05 2.53177e-06 0 2.26904e-05 3.49352e-06 0 2.21146e-05 4.40361e-06 0 2.14088e-05 5.2467e-06 0 2.05842e-05 6.00776e-06 0 1.96551e-05 6.67287e-06 0 1.86393e-05 7.23018e-06 0 1.75575e-05 7.67111e-06 0 1.64326e-05 7.99122e-06 0 1.52878e-05 8.19095e-06 0 1.41456e-05 8.27539e-06 0 1.30263e-05 8.25401e-06 0 1.19468e-05 8.13948e-06 0 1.09198e-05 7.94625e-06 0 1.0659e-05 -8.97629e-06 0 1.17612e-05 -9.23569e-06 0 1.29335e-05 -9.40518e-06 0 1.41616e-05 -9.46558e-06 0 1.54258e-05 -9.39965e-06 0 1.67014e-05 -9.19461e-06 0 1.79607e-05 -8.84311e-06 0 1.9174e-05 -8.34486e-06 0 2.03136e-05 -7.70597e-06 0 2.13544e-05 -6.93818e-06 0 2.22758e-05 -6.0572e-06 0 2.30617e-05 -5.08102e-06 0 2.37008e-05 -4.02836e-06 0 2.41854e-05 -2.91764e-06 0 2.45105e-05 -1.76645e-06 0 2.46737e-05 -5.91434e-07 0 2.46737e-05 5.91434e-07 0 2.45105e-05 1.76645e-06 0 2.41854e-05 2.91764e-06 0 2.37008e-05 4.02836e-06 0 2.30617e-05 5.08102e-06 0 2.22758e-05 6.0572e-06 0 2.13544e-05 6.93818e-06 0 2.03136e-05 7.70597e-06 0 1.9174e-05 8.34486e-06 0 1.79607e-05 8.84311e-06 0 1.67014e-05 9.19461e-06 0 1.54258e-05 9.39965e-06 0 1.41616e-05 9.46558e-06 0 1.29335e-05 9.40518e-06 0 1.17612e-05 9.23569e-06 0 1.0659e-05 8.97629e-06 0 1.03185e-05 -1.00759e-05 0 1.15047e-05 -1.04217e-05 0 1.2784e-05 -1.06659e-05 0 1.41408e-05 -1.07827e-05 0 1.55518e-05 -1.07487e-05 0 1.69866e-05 -1.05453e-05 0 1.84087e-05 -1.0163e-05 0 1.97823e-05 -9.60113e-06 0 2.10708e-05 -8.86865e-06 0 2.22442e-05 -7.98214e-06 0 2.32781e-05 -6.96302e-06 0 2.41557e-05 -5.83484e-06 0 2.48655e-05 -4.6211e-06 0 2.54013e-05 -3.34382e-06 0 2.57597e-05 -2.02308e-06 0 2.59391e-05 -6.77112e-07 0 2.59391e-05 6.77112e-07 0 2.57597e-05 2.02308e-06 0 2.54013e-05 3.34382e-06 0 2.48655e-05 4.6211e-06 0 2.41557e-05 5.83484e-06 0 2.32781e-05 6.96302e-06 0 2.22442e-05 7.98214e-06 0 2.10708e-05 8.86865e-06 0 1.97823e-05 9.60113e-06 0 1.84087e-05 1.0163e-05 0 1.69866e-05 1.05453e-05 0 1.55518e-05 1.07487e-05 0 1.41408e-05 1.07827e-05 0 1.2784e-05 1.06659e-05 0 1.15047e-05 1.04217e-05 0 1.03185e-05 1.00759e-05 0 9.87596e-06 -1.12506e-05 0 1.11539e-05 -1.17088e-05 0 1.25554e-05 -1.20542e-05 0 1.40644e-05 -1.22518e-05 0 1.56533e-05 -1.22679e-05 0 1.72832e-05 -1.20772e-05 0 1.89088e-05 -1.16641e-05 0 2.04777e-05 -1.10293e-05 0 2.19464e-05 -1.01862e-05 0 2.32762e-05 -9.15906e-06 0 2.44398e-05 -7.97785e-06 0 2.54198e-05 -6.67398e-06 0 2.62067e-05 -5.27702e-06 0 2.67968e-05 -3.81313e-06 0 2.71896e-05 -2.30471e-06 0 2.73857e-05 -7.70972e-07 0 2.73857e-05 7.70972e-07 0 2.71896e-05 2.30471e-06 0 2.67968e-05 3.81313e-06 0 2.62067e-05 5.27702e-06 0 2.54198e-05 6.67398e-06 0 2.44398e-05 7.97785e-06 0 2.32762e-05 9.15906e-06 0 2.19464e-05 1.01862e-05 0 2.04777e-05 1.10293e-05 0 1.89088e-05 1.16641e-05 0 1.72832e-05 1.20772e-05 0 1.56533e-05 1.22679e-05 0 1.40644e-05 1.22518e-05 0 1.25554e-05 1.20542e-05 0 1.11539e-05 1.17088e-05 0 9.87596e-06 1.12506e-05 0 9.30265e-06 -1.25032e-05 0 1.06778e-05 -1.31082e-05 0 1.22173e-05 -1.3591e-05 0 1.39063e-05 -1.39031e-05 0 1.57123e-05 -1.39971e-05 0 1.75853e-05 -1.3832e-05 0 1.9459e-05 -1.33893e-05 0 2.1272e-05 -1.26675e-05 0 2.29583e-05 -1.16888e-05 0 2.44722e-05 -1.04902e-05 0 2.57825e-05 -9.11502e-06 0 2.68739e-05 -7.60558e-06 0 2.77411e-05 -5.99922e-06 0 2.83859e-05 -4.32643e-06 0 2.88123e-05 -2.61132e-06 0 2.90243e-05 -8.72908e-07 0 2.90243e-05 8.72908e-07 0 2.88123e-05 2.61132e-06 0 2.83859e-05 4.32643e-06 0 2.77411e-05 5.99922e-06 0 2.68739e-05 7.60558e-06 0 2.57825e-05 9.11502e-06 0 2.44722e-05 1.04902e-05 0 2.29583e-05 1.16888e-05 0 2.1272e-05 1.26675e-05 0 1.9459e-05 1.33893e-05 0 1.75853e-05 1.3832e-05 0 1.57123e-05 1.39971e-05 0 1.39063e-05 1.39031e-05 0 1.22173e-05 1.3591e-05 0 1.06778e-05 1.31082e-05 0 9.30265e-06 1.25032e-05 0 8.56222e-06 -1.38323e-05 0 1.00349e-05 -1.46284e-05 0 1.17269e-05 -1.52982e-05 0 1.36278e-05 -1.57749e-05 0 1.57018e-05 -1.59855e-05 0 1.78827e-05 -1.58735e-05 0 2.00862e-05 -1.53974e-05 0 2.22023e-05 -1.45648e-05 0 2.41552e-05 -1.34122e-05 0 2.58829e-05 -1.19979e-05 0 2.7355e-05 -1.03854e-05 0 2.85617e-05 -8.63296e-06 0 2.95073e-05 -6.78671e-06 0 3.02022e-05 -4.8812e-06 0 3.06578e-05 -2.94067e-06 0 3.08831e-05 -9.82075e-07 0 3.08831e-05 9.82075e-07 0 3.06578e-05 2.94067e-06 0 3.02022e-05 4.8812e-06 0 2.95073e-05 6.78671e-06 0 2.85617e-05 8.63296e-06 0 2.7355e-05 1.03854e-05 0 2.58829e-05 1.19979e-05 0 2.41552e-05 1.34122e-05 0 2.22023e-05 1.45648e-05 0 2.00862e-05 1.53974e-05 0 1.78827e-05 1.58735e-05 0 1.57018e-05 1.59855e-05 0 1.36278e-05 1.57749e-05 0 1.17269e-05 1.52982e-05 0 1.00349e-05 1.46284e-05 0 8.56222e-06 1.38323e-05 0 7.60923e-06 -1.52274e-05 0 9.17004e-06 -1.62722e-05 0 1.10225e-05 -1.71986e-05 0 1.31714e-05 -1.79123e-05 0 1.55803e-05 -1.83074e-05 0 1.81622e-05 -1.82733e-05 0 2.07718e-05 -1.77678e-05 0 2.3285e-05 -1.67864e-05 0 2.55616e-05 -1.53984e-05 0 2.75345e-05 -1.37021e-05 0 2.91758e-05 -1.1794e-05 0 3.04927e-05 -9.75192e-06 0 3.15052e-05 -7.63178e-06 0 3.22383e-05 -5.46971e-06 0 3.27138e-05 -3.28739e-06 0 3.29474e-05 -1.09654e-06 0 3.29474e-05 1.09654e-06 0 3.27138e-05 3.28739e-06 0 3.22383e-05 5.46971e-06 0 3.15052e-05 7.63178e-06 0 3.04927e-05 9.75192e-06 0 2.91758e-05 1.1794e-05 0 2.75345e-05 1.37021e-05 0 2.55616e-05 1.53984e-05 0 2.3285e-05 1.67864e-05 0 2.07718e-05 1.77678e-05 0 1.81622e-05 1.82733e-05 0 1.55803e-05 1.83074e-05 0 1.31714e-05 1.79123e-05 0 1.10225e-05 1.71986e-05 0 9.17004e-06 1.62722e-05 0 7.60923e-06 1.52274e-05 0 6.38849e-06 -1.66659e-05 0 8.00907e-06 -1.80299e-05 0 1.00164e-05 -1.93073e-05 0 1.24444e-05 -2.03735e-05 0 1.52762e-05 -2.10517e-05 0 1.84001e-05 -2.11859e-05 0 2.16234e-05 -2.0626e-05 0 2.46479e-05 -1.94178e-05 0 2.7324e-05 -1.76918e-05 0 2.9562e-05 -1.56151e-05 0 3.13651e-05 -1.33325e-05 0 3.27688e-05 -1.09458e-05 0 3.38229e-05 -8.5162e-06 0 3.45717e-05 -6.07692e-06 0 3.50511e-05 -3.64166e-06 0 3.52847e-05 -1.21296e-06 0 3.52847e-05 1.21296e-06 0 3.50511e-05 3.64166e-06 0 3.45717e-05 6.07692e-06 0 3.38229e-05 8.5162e-06 0 3.27688e-05 1.09458e-05 0 3.13651e-05 1.33325e-05 0 2.9562e-05 1.56151e-05 0 2.7324e-05 1.76918e-05 0 2.46479e-05 1.94178e-05 0 2.16234e-05 2.0626e-05 0 1.84001e-05 2.11859e-05 0 1.52762e-05 2.10517e-05 0 1.24444e-05 2.03735e-05 0 1.00164e-05 1.93073e-05 0 8.00907e-06 1.80299e-05 0 6.38849e-06 1.66659e-05 0 4.83777e-06 -1.80983e-05 0 6.45976e-06 -1.98655e-05 0 8.57887e-06 -2.16233e-05 0 1.12989e-05 -2.32102e-05 0 1.46627e-05 -2.43818e-05 0 1.85505e-05 -2.47489e-05 0 2.25565e-05 -2.41491e-05 0 2.63057e-05 -2.25764e-05 0 2.94474e-05 -2.0331e-05 0 3.19483e-05 -1.77252e-05 0 3.38685e-05 -1.49689e-05 0 3.53095e-05 -1.21774e-05 0 3.63587e-05 -9.40746e-06 0 3.70877e-05 -6.67806e-06 0 3.75469e-05 -3.98848e-06 0 3.77686e-05 -1.32624e-06 0 3.77686e-05 1.32624e-06 0 3.75469e-05 3.98848e-06 0 3.70877e-05 6.67806e-06 0 3.63587e-05 9.40746e-06 0 3.53095e-05 1.21774e-05 0 3.38685e-05 1.49689e-05 0 3.19483e-05 1.77252e-05 0 2.94474e-05 2.0331e-05 0 2.63057e-05 2.25764e-05 0 2.25565e-05 2.41491e-05 0 1.85505e-05 2.47489e-05 0 1.46627e-05 2.43818e-05 0 1.12989e-05 2.32102e-05 0 8.57887e-06 2.16233e-05 0 6.45976e-06 1.98655e-05 0 4.83777e-06 1.80983e-05 0 2.89525e-06 -1.94513e-05 0 4.41137e-06 -2.16995e-05 0 6.53648e-06 -2.40852e-05 0 9.48017e-06 -2.64639e-05 0 1.34682e-05 -2.84599e-05 0 1.85259e-05 -2.95003e-05 0 2.40381e-05 -2.87036e-05 0 2.87626e-05 -2.63932e-05 0 3.24062e-05 -2.33097e-05 0 3.5081e-05 -1.99721e-05 0 3.70189e-05 -1.66292e-05 0 3.84046e-05 -1.33823e-05 0 3.9379e-05 -1.02544e-05 0 4.00374e-05 -7.2379e-06 0 4.04445e-05 -4.3069e-06 0 4.06388e-05 -1.42963e-06 0 4.06388e-05 1.42963e-06 0 4.04445e-05 4.3069e-06 0 4.00374e-05 7.2379e-06 0 3.9379e-05 1.02544e-05 0 3.84046e-05 1.33823e-05 0 3.70189e-05 1.66292e-05 0 3.5081e-05 1.99721e-05 0 3.24062e-05 2.33097e-05 0 2.87626e-05 2.63932e-05 0 2.40381e-05 2.87036e-05 0 1.85259e-05 2.95003e-05 0 1.34682e-05 2.84599e-05 0 9.48017e-06 2.64639e-05 0 6.53648e-06 2.40852e-05 0 4.41137e-06 2.16995e-05 0 2.89525e-06 1.94513e-05 0 5.18008e-07 -2.05908e-05 0 1.76629e-06 -2.33782e-05 0 3.6758e-06 -2.65412e-05 0 6.59971e-06 -2.99975e-05 0 1.109e-05 -3.359e-05 0 1.79632e-05 -3.59586e-05 0 2.62198e-05 -3.4828e-05 0 3.22199e-05 -3.09402e-05 0 3.61539e-05 -2.64993e-05 0 3.87718e-05 -2.21954e-05 0 4.05329e-05 -1.81858e-05 0 4.17288e-05 -1.44611e-05 0 4.25324e-05 -1.09889e-05 0 4.30582e-05 -7.71036e-06 0 4.33748e-05 -4.57152e-06 0 4.35238e-05 -1.51459e-06 0 4.35238e-05 1.51459e-06 0 4.33748e-05 4.57152e-06 0 4.30582e-05 7.71036e-06 0 4.25324e-05 1.09889e-05 0 4.17288e-05 1.44611e-05 0 4.05329e-05 1.81858e-05 0 3.87718e-05 2.21954e-05 0 3.61539e-05 2.64993e-05 0 3.22199e-05 3.09402e-05 0 2.62198e-05 3.4828e-05 0 1.79632e-05 3.59586e-05 0 1.109e-05 3.359e-05 0 6.59971e-06 2.99975e-05 0 3.6758e-06 2.65412e-05 0 1.76629e-06 2.33782e-05 0 5.18008e-07 2.05908e-05 0 -2.29437e-06 -2.13999e-05 0 -1.53204e-06 -2.46903e-05 0 -1.46351e-07 -2.86038e-05 0 2.18916e-06 -3.34858e-05 0 6.30333e-06 -3.89985e-05 0 1.4282e-05 -4.72028e-05 0 2.64233e-05 -4.35143e-05 0 3.24424e-05 -3.57269e-05 0 3.60252e-05 -2.94742e-05 0 3.80845e-05 -2.41229e-05 0 3.94228e-05 -1.94405e-05 0 4.02458e-05 -1.5292e-05 0 4.07759e-05 -1.15257e-05 0 4.10986e-05 -8.04535e-06 0 4.12861e-05 -4.75328e-06 0 4.13709e-05 -1.57267e-06 0 4.13709e-05 1.57267e-06 0 4.12861e-05 4.75328e-06 0 4.10986e-05 8.04535e-06 0 4.07759e-05 1.15257e-05 0 4.02458e-05 1.5292e-05 0 3.94228e-05 1.94405e-05 0 3.80845e-05 2.41229e-05 0 3.60252e-05 2.94742e-05 0 3.24424e-05 3.57269e-05 0 2.64233e-05 4.35143e-05 0 1.4282e-05 4.72028e-05 0 6.30333e-06 3.89985e-05 0 2.18916e-06 3.34858e-05 0 -1.46351e-07 2.86038e-05 0 -1.53204e-06 2.46903e-05 0 -2.29437e-06 2.13999e-05 0 -5.47259e-06 -2.1662e-05 0 -5.39187e-06 -2.53455e-05 0 -4.92644e-06 -2.98843e-05 0 -3.78865e-06 -3.59022e-05 0 -1.56575e-06 -4.31948e-05 0 2.1665e-06 -5.52689e-05 0 6.37945e-06 -5.00266e-05 0 9.72905e-06 -3.93345e-05 0 1.16406e-05 -3.1571e-05 0 1.27294e-05 -2.53674e-05 0 1.33054e-05 -2.01826e-05 0 1.36114e-05 -1.57352e-05 0 1.37561e-05 -1.17846e-05 0 1.38192e-05 -8.191e-06 0 1.38406e-05 -4.82618e-06 0 1.38461e-05 -1.59476e-06 0 1.38461e-05 1.59476e-06 0 1.38406e-05 4.82618e-06 0 1.38192e-05 8.191e-06 0 1.37561e-05 1.17846e-05 0 1.36114e-05 1.57352e-05 0 1.33054e-05 2.01826e-05 0 1.27294e-05 2.53674e-05 0 1.16406e-05 3.1571e-05 0 9.72905e-06 3.93345e-05 0 6.37945e-06 5.00266e-05 0 2.1665e-06 5.52689e-05 0 -1.56575e-06 4.31948e-05 0 -3.78865e-06 3.59022e-05 0 -4.92644e-06 2.98843e-05 0 -5.39187e-06 2.53455e-05 0 -5.47259e-06 2.1662e-05 0 -8.87585e-06 -2.12471e-05 0 -9.63918e-06 -2.51093e-05 0 -1.0318e-05 -2.99632e-05 0 -1.08529e-05 -3.65e-05 0 -1.11508e-05 -4.4616e-05 0 -1.11529e-05 -5.74714e-05 0 -1.0886e-05 -5.20534e-05 0 -1.09141e-05 -4.0567e-05 0 -1.10986e-05 -3.21734e-05 0 -1.14148e-05 -2.56005e-05 0 -1.17657e-05 -2.02211e-05 0 -1.2111e-05 -1.56805e-05 0 -1.24131e-05 -1.16978e-05 0 -1.26544e-05 -8.10821e-06 0 -1.28211e-05 -4.76899e-06 0 -1.29063e-05 -1.5745e-06 0 -1.29063e-05 1.5745e-06 0 -1.28211e-05 4.76899e-06 0 -1.26544e-05 8.10821e-06 0 -1.24131e-05 1.16978e-05 0 -1.2111e-05 1.56805e-05 0 -1.17657e-05 2.02211e-05 0 -1.14148e-05 2.56005e-05 0 -1.10986e-05 3.21734e-05 0 -1.09141e-05 4.0567e-05 0 -1.0886e-05 5.20534e-05 0 -1.11529e-05 5.74714e-05 0 -1.11508e-05 4.4616e-05 0 -1.08529e-05 3.65e-05 0 -1.0318e-05 2.99632e-05 0 -9.63918e-06 2.51093e-05 0 -8.87585e-06 2.12471e-05 0 -1.23086e-05 -2.00714e-05 0 -1.39602e-05 -2.38608e-05 0 -1.58609e-05 -2.86185e-05 0 -1.81456e-05 -3.49979e-05 0 -2.10402e-05 -4.29169e-05 0 -2.47083e-05 -5.54935e-05 0 -2.87034e-05 -5.02487e-05 0 -3.19742e-05 -3.91037e-05 0 -3.4389e-05 -3.10054e-05 0 -3.61643e-05 -2.46568e-05 0 -3.7504e-05 -1.94578e-05 0 -3.85257e-05 -1.50706e-05 0 -3.92969e-05 -1.12302e-05 0 -3.98536e-05 -7.77633e-06 0 -4.02162e-05 -4.57068e-06 0 -4.03951e-05 -1.50842e-06 0 -4.03951e-05 1.50842e-06 0 -4.02162e-05 4.57068e-06 0 -3.98536e-05 7.77633e-06 0 -3.92969e-05 1.12302e-05 0 -3.85257e-05 1.50706e-05 0 -3.7504e-05 1.94578e-05 0 -3.61643e-05 2.46568e-05 0 -3.4389e-05 3.10054e-05 0 -3.19742e-05 3.91037e-05 0 -2.87034e-05 5.02487e-05 0 -2.47083e-05 5.54935e-05 0 -2.10402e-05 4.29169e-05 0 -1.81456e-05 3.49979e-05 0 -1.58609e-05 2.86185e-05 0 -1.39602e-05 2.38608e-05 0 -1.23086e-05 2.00714e-05 0 -1.55668e-05 -1.81578e-05 0 -1.80458e-05 -2.16194e-05 0 -2.10341e-05 -2.58915e-05 0 -2.48356e-05 -3.15052e-05 0 -3.00541e-05 -3.80559e-05 0 -3.78344e-05 -4.91851e-05 0 -4.74886e-05 -4.4459e-05 0 -5.40126e-05 -3.50063e-05 0 -5.83766e-05 -2.81392e-05 0 -6.14098e-05 -2.25853e-05 0 -6.36235e-05 -1.79136e-05 0 -6.52599e-05 -1.39183e-05 0 -6.64652e-05 -1.03862e-05 0 -6.73185e-05 -7.19819e-06 0 -6.78667e-05 -4.23185e-06 0 -6.81351e-05 -1.39698e-06 0 -6.81351e-05 1.39698e-06 0 -6.78667e-05 4.23185e-06 0 -6.73185e-05 7.19819e-06 0 -6.64652e-05 1.03862e-05 0 -6.52599e-05 1.39183e-05 0 -6.36235e-05 1.79136e-05 0 -6.14098e-05 2.25853e-05 0 -5.83766e-05 2.81392e-05 0 -5.40126e-05 3.50063e-05 0 -4.74886e-05 4.4459e-05 0 -3.78344e-05 4.91851e-05 0 -3.00541e-05 3.80559e-05 0 -2.48356e-05 3.15052e-05 0 -2.10341e-05 2.58915e-05 0 -1.80458e-05 2.16194e-05 0 -1.55668e-05 1.81578e-05 0 -1.84808e-05 -1.55097e-05 0 -2.16428e-05 -1.85215e-05 0 -2.54433e-05 -2.21372e-05 0 -3.01893e-05 -2.64058e-05 0 -3.66563e-05 -3.11615e-05 0 -4.671e-05 -3.60077e-05 0 -6.03967e-05 -3.42112e-05 0 -6.8459e-05 -2.89803e-05 0 -7.397e-05 -2.40296e-05 0 -7.77917e-05 -1.9615e-05 0 -8.0654e-05 -1.57311e-05 0 -8.2765e-05 -1.22932e-05 0 -8.43308e-05 -9.21153e-06 0 -8.54351e-05 -6.39611e-06 0 -8.61452e-05 -3.76569e-06 0 -8.6492e-05 -1.24328e-06 0 -8.6492e-05 1.24328e-06 0 -8.61452e-05 3.76569e-06 0 -8.54351e-05 6.39611e-06 0 -8.43308e-05 9.21153e-06 0 -8.2765e-05 1.22932e-05 0 -8.0654e-05 1.57311e-05 0 -7.77917e-05 1.9615e-05 0 -7.397e-05 2.40296e-05 0 -6.8459e-05 2.89803e-05 0 -6.03967e-05 3.42112e-05 0 -4.671e-05 3.60077e-05 0 -3.66563e-05 3.11615e-05 0 -3.01893e-05 2.64058e-05 0 -2.54433e-05 2.21372e-05 0 -2.16428e-05 1.85215e-05 0 -1.84808e-05 1.55097e-05 0 -2.09572e-05 -1.23269e-05 0 -2.46586e-05 -1.48071e-05 0 -2.8912e-05 -1.7706e-05 0 -3.40024e-05 -2.08037e-05 0 -4.03131e-05 -2.37381e-05 0 -4.80726e-05 -2.55726e-05 0 -5.61448e-05 -2.50222e-05 0 -6.332e-05 -2.25179e-05 0 -6.87911e-05 -1.93329e-05 0 -7.29901e-05 -1.61175e-05 0 -7.61876e-05 -1.30947e-05 0 -7.8631e-05 -1.03167e-05 0 -8.0453e-05 -7.7694e-06 0 -8.17543e-05 -5.41139e-06 0 -8.25919e-05 -3.19133e-06 0 -8.30026e-05 -1.05452e-06 0 -8.30026e-05 1.05452e-06 0 -8.25919e-05 3.19133e-06 0 -8.17543e-05 5.41139e-06 0 -8.0453e-05 7.7694e-06 0 -7.8631e-05 1.03167e-05 0 -7.61876e-05 1.30947e-05 0 -7.29901e-05 1.61175e-05 0 -6.87911e-05 1.93329e-05 0 -6.332e-05 2.25179e-05 0 -5.61448e-05 2.50222e-05 0 -4.80726e-05 2.55726e-05 0 -4.03131e-05 2.37381e-05 0 -3.40024e-05 2.08037e-05 0 -2.8912e-05 1.7706e-05 0 -2.46586e-05 1.48071e-05 0 -2.09572e-05 1.23269e-05 0 -2.30011e-05 -8.56325e-06 0 -2.71385e-05 -1.06909e-05 0 -3.15926e-05 -1.30367e-05 0 -3.65703e-05 -1.53109e-05 0 -4.22797e-05 -1.71715e-05 0 -4.86856e-05 -1.81468e-05 0 -5.53731e-05 -1.79192e-05 0 -6.14043e-05 -1.65794e-05 0 -6.65441e-05 -1.46042e-05 0 -7.07294e-05 -1.2403e-05 0 -7.40778e-05 -1.02039e-05 0 -7.6698e-05 -8.10551e-06 0 -7.86911e-05 -6.13659e-06 0 -8.01278e-05 -4.28815e-06 0 -8.10595e-05 -2.53372e-06 0 -8.15177e-05 -8.37929e-07 0 -8.15177e-05 8.37929e-07 0 -8.10595e-05 2.53372e-06 0 -8.01278e-05 4.28815e-06 0 -7.86911e-05 6.13659e-06 0 -7.6698e-05 8.10551e-06 0 -7.40778e-05 1.02039e-05 0 -7.07294e-05 1.2403e-05 0 -6.65441e-05 1.46042e-05 0 -6.14043e-05 1.65794e-05 0 -5.53731e-05 1.79192e-05 0 -4.86856e-05 1.81468e-05 0 -4.22797e-05 1.71715e-05 0 -3.65703e-05 1.53109e-05 0 -3.15926e-05 1.30367e-05 0 -2.71385e-05 1.06909e-05 0 -2.30011e-05 8.56325e-06 0 -2.47441e-05 -4.28887e-06 0 -2.93424e-05 -6.30444e-06 0 -3.37435e-05 -8.45349e-06 0 -3.8373e-05 -1.02113e-05 0 -4.34876e-05 -1.14582e-05 0 -4.90003e-05 -1.20889e-05 0 -5.45729e-05 -1.19884e-05 0 -5.99114e-05 -1.12479e-05 0 -6.46711e-05 -1.00678e-05 0 -6.87438e-05 -8.66646e-06 0 -7.21119e-05 -7.20062e-06 0 -7.48163e-05 -5.75948e-06 0 -7.69061e-05 -4.38022e-06 0 -7.84293e-05 -3.06975e-06 0 -7.94234e-05 -1.81682e-06 0 -7.9914e-05 -6.0133e-07 0 -7.9914e-05 6.0133e-07 0 -7.94234e-05 1.81682e-06 0 -7.84293e-05 3.06975e-06 0 -7.69061e-05 4.38022e-06 0 -7.48163e-05 5.75948e-06 0 -7.21119e-05 7.20062e-06 0 -6.87438e-05 8.66646e-06 0 -6.46711e-05 1.00678e-05 0 -5.99114e-05 1.12479e-05 0 -5.45729e-05 1.19884e-05 0 -4.90003e-05 1.20889e-05 0 -4.34876e-05 1.14582e-05 0 -3.8373e-05 1.02113e-05 0 -3.37435e-05 8.45349e-06 0 -2.93424e-05 6.30444e-06 0 -2.47441e-05 4.28887e-06 0 -2.67086e-05 1.31419e-06 0 -3.18924e-05 -1.97708e-06 0 -3.55789e-05 -4.29882e-06 0 -3.96507e-05 -5.60699e-06 0 -4.42377e-05 -6.38987e-06 0 -4.92256e-05 -6.74674e-06 0 -5.43197e-05 -6.72554e-06 0 -5.92267e-05 -6.358e-06 0 -6.37268e-05 -5.74115e-06 0 -6.7681e-05 -4.98131e-06 0 -7.10289e-05 -4.16494e-06 0 -7.3763e-05 -3.34608e-06 0 -7.59019e-05 -2.55251e-06 0 -7.74733e-05 -1.79221e-06 0 -7.85041e-05 -1.06192e-06 0 -7.90142e-05 -3.51636e-07 0 -7.90142e-05 3.51636e-07 0 -7.85041e-05 1.06192e-06 0 -7.74733e-05 1.79221e-06 0 -7.59019e-05 2.55251e-06 0 -7.3763e-05 3.34608e-06 0 -7.10289e-05 4.16494e-06 0 -6.7681e-05 4.98131e-06 0 -6.37268e-05 5.74115e-06 0 -5.92267e-05 6.358e-06 0 -5.43197e-05 6.72554e-06 0 -4.92256e-05 6.74674e-06 0 -4.42377e-05 6.38987e-06 0 -3.96507e-05 5.60699e-06 0 -3.55789e-05 4.29882e-06 0 -3.18924e-05 1.97708e-06 0 -2.67086e-05 -1.31419e-06 0 -3.0665e-05 1.36715e-05 0 -3.54609e-05 1.49138e-07 0 -3.6981e-05 -1.02132e-06 0 -4.02749e-05 -1.49437e-06 0 -4.46327e-05 -1.71258e-06 0 -4.93197e-05 -1.82136e-06 0 -5.42087e-05 -1.8145e-06 0 -5.89125e-05 -1.71872e-06 0 -6.32933e-05 -1.55238e-06 0 -6.71827e-05 -1.3481e-06 0 -7.0514e-05 -1.12637e-06 0 -7.32561e-05 -9.04672e-07 0 -7.54145e-05 -6.89353e-07 0 -7.70066e-05 -4.83796e-07 0 -7.80536e-05 -2.86412e-07 0 -7.85725e-05 -9.48635e-08 0 -7.85725e-05 9.48635e-08 0 -7.80536e-05 2.86412e-07 0 -7.70066e-05 4.83796e-07 0 -7.54145e-05 6.89353e-07 0 -7.32561e-05 9.04672e-07 0 -7.0514e-05 1.12637e-06 0 -6.71827e-05 1.3481e-06 0 -6.32933e-05 1.55238e-06 0 -5.89125e-05 1.71872e-06 0 -5.42087e-05 1.8145e-06 0 -4.93197e-05 1.82136e-06 0 -4.46327e-05 1.71258e-06 0 -4.02749e-05 1.49437e-06 0 -3.6981e-05 1.02132e-06 0 -3.54609e-05 -1.49138e-07 0 -3.0665e-05 -1.36715e-05 0 </DataArray> 
</PointData> 
<Points> 
<DataArray type="Float32" NumberOfComponents="3"> 