<?xml version="1.0"?> 
<VTKFile type="StructuredGrid" version="0.1"> 
<StructuredGrid WholeExtent="0 31 0 31 0 0"> 
<Piece Extent="0 31 0 31 0 0"> 
<PointData>
<DataArray type="Float32" Name="B" format="ascii" NumberOfComponents="3"> 
9.89985e-05 -1.953e-05 0 4.38499e-05 1.39092e-06 0 4.67411e-05 -2.9126e-07 0 5.0747e-05 9.97022e-08 0 5.75153e-05 -6.53906e-09 0 6.39696e-05 2.36334e-08 0 7.11977e-05 2.08698e-08 0 7.78534e-05 1.17027e-08 0 8.41498e-05 1.23864e-08 0 8.95674e-05 2.65446e-09 0 9.41926e-05 2.04694e-09 0 9.79182e-05 -2.38218e-09 0 0.000100832 -2.08547e-09 0 0.000102952 -2.82592e-09 0 0.000104341 -1.59328e-09 0 0.000105025 -7.79393e-10 0 0.000105025 7.79393e-10 0 0.000104341 1.59328e-09 0 0.000102952 2.82592e-09 0 0.000100832 2.08547e-09 0 9.79182e-05 2.38218e-09 0 9.41926e-05 -2.04694e-09 0 8.95674e-05 -2.65446e-09 0 8.41498e-05 -1.23864e-08 0 7.78534e-05 -1.17027e-08 0 7.11977e-05 -2.08698e-08 0 6.39696e-05 -2.36334e-08 0 5.75153e-05 6.53906e-09 0 5.0747e-05 -9.97022e-08 0 4.67411e-05 2.9126e-07 0 4.38499e-05 -1.39092e-06 0 9.89985e-05 1.953e-05 0 -1.0996e-05 9.68686e-06 0 -9.91418e-06 -4.03964e-07 0 -1.10692e-05 9.19347e-08 0 -1.14707e-05 1.41487e-08 0 -1.32015e-05 4.75607e-08 0 -1.44491e-05 3.99282e-08 0 -1.6085e-05 4.36205e-08 0 -1.74843e-05 3.97247e-08 0 -1.88734e-05 3.66825e-08 0 -2.00479e-05 3.13102e-08 0 -2.10719e-05 2.65169e-08 0 -2.18951e-05 2.10168e-08 0 -2.25458e-05 1.61952e-08 0 -2.302e-05 1.1232e-08 0 -2.33323e-05 6.73494e-09 0 -2.34861e-05 2.17374e-09 0 -2.34861e-05 -2.17374e-09 0 -2.33323e-05 -6.73494e-09 0 -2.302e-05 -1.1232e-08 0 -2.25458e-05 -1.61952e-08 0 -2.18951e-05 -2.10168e-08 0 -2.10719e-05 -2.65169e-08 0 -2.00479e-05 -3.13102e-08 0 -1.88734e-05 -3.66825e-08 0 -1.74843e-05 -3.97247e-08 0 -1.6085e-05 -4.36205e-08 0 -1.44491e-05 -3.99282e-08 0 -1.32015e-05 -4.75607e-08 0 -1.14707e-05 -1.41487e-08 0 -1.10692e-05 -9.19347e-08 0 -9.91418e-06 4.03964e-07 0 -1.0996e-05 -9.68686e-06 0 -5.14289e-07 3.34723e-06 0 2.13243e-06 5.95387e-09 0 2.38143e-06 -3.24604e-08 0 2.43901e-06 -3.78815e-08 0 2.82007e-06 -4.389e-08 0 3.08002e-06 -4.82863e-08 0 3.42922e-06 -4.625e-08 0 3.72641e-06 -4.53522e-08 0 4.02152e-06 -3.96164e-08 0 4.27166e-06 -3.52153e-08 0 4.48934e-06 -2.87252e-08 0 4.6648e-06 -2.34244e-08 0 4.80329e-06 -1.75541e-08 0 4.9044e-06 -1.24631e-08 0 4.97092e-06 -7.27119e-09 0 5.00372e-06 -2.46728e-09 0 5.00372e-06 2.46728e-09 0 4.97092e-06 7.27119e-09 0 4.9044e-06 1.24631e-08 0 4.80329e-06 1.75541e-08 0 4.6648e-06 2.34244e-08 0 4.48934e-06 2.87252e-08 0 4.27166e-06 3.52153e-08 0 4.02152e-06 3.96164e-08 0 3.72641e-06 4.53522e-08 0 3.42922e-06 4.625e-08 0 3.08002e-06 4.82863e-08 0 2.82007e-06 4.389e-08 0 2.43901e-06 3.78815e-08 0 2.38143e-06 3.24604e-08 0 2.13243e-06 -5.95387e-09 0 -5.14289e-07 -3.34723e-06 0 -1.07783e-06 4.02916e-06 0 -5.71465e-07 -1.75819e-07 0 -6.32953e-07 4.57736e-08 0 -6.63577e-07 1.49766e-08 0 -7.58921e-07 3.06765e-08 0 -8.32475e-07 2.80622e-08 0 -9.25556e-07 2.95859e-08 0 -1.00629e-06 2.73139e-08 0 -1.08594e-06 2.49589e-08 0 -1.15349e-06 2.13982e-08 0 -1.21235e-06 1.79892e-08 0 -1.25969e-06 1.43025e-08 0 -1.29712e-06 1.09573e-08 0 -1.32441e-06 7.6241e-09 0 -1.34238e-06 4.54623e-09 0 -1.35123e-06 1.48095e-09 0 -1.35123e-06 -1.48095e-09 0 -1.34238e-06 -4.54623e-09 0 -1.32441e-06 -7.6241e-09 0 -1.29712e-06 -1.09573e-08 0 -1.25969e-06 -1.43025e-08 0 -1.21235e-06 -1.79892e-08 0 -1.15349e-06 -2.13982e-08 0 -1.08594e-06 -2.49589e-08 0 -1.00629e-06 -2.73139e-08 0 -9.25556e-07 -2.95859e-08 0 -8.32475e-07 -2.80622e-08 0 -7.58921e-07 -3.06765e-08 0 -6.63577e-07 -1.49766e-08 0 -6.32953e-07 -4.57736e-08 0 -5.71465e-07 1.75819e-07 0 -1.07783e-06 -4.02916e-06 0 -4.0627e-07 2.02441e-06 0 1.52325e-07 -8.52959e-09 0 1.67244e-07 -1.09209e-08 0 1.70124e-07 -1.36388e-08 0 1.97181e-07 -1.50971e-08 0 2.15629e-07 -1.72088e-08 0 2.39918e-07 -1.60234e-08 0 2.61046e-07 -1.609e-08 0 2.81608e-07 -1.37877e-08 0 2.99289e-07 -1.24595e-08 0 3.14489e-07 -1.00322e-08 0 3.26837e-07 -8.27336e-09 0 3.36517e-07 -6.14417e-09 0 3.43614e-07 -4.39925e-09 0 3.48265e-07 -2.54456e-09 0 3.50565e-07 -8.77197e-10 0 3.50565e-07 8.77197e-10 0 3.48265e-07 2.54456e-09 0 3.43614e-07 4.39925e-09 0 3.36517e-07 6.14417e-09 0 3.26837e-07 8.27336e-09 0 3.14489e-07 1.00322e-08 0 2.99289e-07 1.24595e-08 0 2.81608e-07 1.37877e-08 0 2.61046e-07 1.609e-08 0 2.39918e-07 1.60234e-08 0 2.15629e-07 1.72088e-08 0 1.97181e-07 1.50971e-08 0 1.70124e-07 1.36388e-08 0 1.67244e-07 1.09209e-08 0 1.52325e-07 8.52959e-09 0 -4.0627e-07 -2.02441e-06 0 -3.86504e-07 2.24538e-06 0 -1.00974e-08 -7.3311e-08 0 -1.38122e-08 1.63338e-08 0 -1.57454e-08 3.95139e-09 0 -1.78144e-08 1.00939e-08 0 -1.94888e-08 8.54121e-09 0 -2.20317e-08 9.52319e-09 0 -2.3803e-08 8.43857e-09 0 -2.59189e-08 7.97682e-09 0 -2.7456e-08 6.65624e-09 0 -2.89501e-08 5.7263e-09 0 -3.00474e-08 4.46928e-09 0 -3.09676e-08 3.48009e-09 0 -3.16041e-08 2.38724e-09 0 -3.20382e-08 1.44553e-09 0 -3.22451e-08 4.57673e-10 0 -3.22451e-08 -4.57673e-10 0 -3.20382e-08 -1.44553e-09 0 -3.16041e-08 -2.38724e-09 0 -3.09676e-08 -3.48009e-09 0 -3.00474e-08 -4.46928e-09 0 -2.89501e-08 -5.7263e-09 0 -2.7456e-08 -6.65624e-09 0 -2.59189e-08 -7.97682e-09 0 -2.3803e-08 -8.43857e-09 0 -2.20317e-08 -9.52319e-09 0 -1.94888e-08 -8.54121e-09 0 -1.78144e-08 -1.00939e-08 0 -1.57454e-08 -3.95139e-09 0 -1.38122e-08 -1.63338e-08 0 -1.00974e-08 7.3311e-08 0 -3.86504e-07 -2.24538e-06 0 -2.72952e-07 1.46798e-06 0 -2.33702e-08 -1.92536e-08 0 -2.75608e-08 -1.43225e-09 0 -2.97124e-08 -4.82929e-09 0 -3.35975e-08 -4.15917e-09 0 -3.67032e-08 -5.44849e-09 0 -4.08643e-08 -4.65167e-09 0 -4.42165e-08 -4.99427e-09 0 -4.77682e-08 -4.06164e-09 0 -5.06337e-08 -3.8356e-09 0 -5.32431e-08 -2.98121e-09 0 -5.52864e-08 -2.53391e-09 0 -5.69431e-08 -1.83533e-09 0 -5.81329e-08 -1.34475e-09 0 -5.89282e-08 -7.59263e-10 0 -5.9316e-08 -2.73426e-10 0 -5.9316e-08 2.73426e-10 0 -5.89282e-08 7.59263e-10 0 -5.81329e-08 1.34475e-09 0 -5.69431e-08 1.83533e-09 0 -5.52864e-08 2.53391e-09 0 -5.32431e-08 2.98121e-09 0 -5.06337e-08 3.8356e-09 0 -4.77682e-08 4.06164e-09 0 -4.42165e-08 4.99427e-09 0 -4.08643e-08 4.65167e-09 0 -3.67032e-08 5.44849e-09 0 -3.35975e-08 4.15917e-09 0 -2.97124e-08 4.82929e-09 0 -2.75608e-08 1.43225e-09 0 -2.33702e-08 1.92536e-08 0 -2.72952e-07 -1.46798e-06 0 -2.18651e-07 1.40865e-06 0 3.30039e-08 -3.56043e-08 0 3.38857e-08 6.32939e-09 0 3.5089e-08 5.59723e-10 0 3.9948e-08 3.30275e-09 0 4.40503e-08 2.28328e-09 0 4.85973e-08 2.95629e-09 0 5.30118e-08 2.35506e-09 0 5.70029e-08 2.43141e-09 0 6.06244e-08 1.89069e-09 0 6.36387e-08 1.72626e-09 0 6.61542e-08 1.28367e-09 0 6.80972e-08 1.04229e-09 0 6.95419e-08 6.88849e-10 0 7.04811e-08 4.3396e-10 0 7.09494e-08 1.27374e-10 0 7.09494e-08 -1.27374e-10 0 7.04811e-08 -4.3396e-10 0 6.95419e-08 -6.88849e-10 0 6.80972e-08 -1.04229e-09 0 6.61542e-08 -1.28367e-09 0 6.36387e-08 -1.72626e-09 0 6.06244e-08 -1.89069e-09 0 5.70029e-08 -2.43141e-09 0 5.30118e-08 -2.35506e-09 0 4.85973e-08 -2.95629e-09 0 4.40503e-08 -2.28328e-09 0 3.9948e-08 -3.30275e-09 0 3.5089e-08 -5.59723e-10 0 3.38857e-08 -6.32939e-09 0 3.30039e-08 3.56043e-08 0 -2.18651e-07 -1.40865e-06 0 -1.89684e-07 1.05259e-06 0 -2.3108e-08 -1.75493e-08 0 -2.73396e-08 9.09099e-10 0 -2.86557e-08 -1.89414e-09 0 -3.28693e-08 -9.01447e-10 0 -3.57746e-08 -1.74816e-09 0 -3.99198e-08 -1.19509e-09 0 -4.32114e-08 -1.53255e-09 0 -4.66979e-08 -1.08774e-09 0 -4.95196e-08 -1.15288e-09 0 -5.20723e-08 -8.17197e-10 0 -5.40785e-08 -7.51341e-10 0 -5.56968e-08 -5.09824e-10 0 -5.6862e-08 -3.96528e-10 0 -5.76383e-08 -2.10182e-10 0 -5.80176e-08 -8.44913e-11 0 -5.80176e-08 8.44913e-11 0 -5.76383e-08 2.10182e-10 0 -5.6862e-08 3.96528e-10 0 -5.56968e-08 5.09824e-10 0 -5.40785e-08 7.51341e-10 0 -5.20723e-08 8.17197e-10 0 -4.95196e-08 1.15288e-09 0 -4.66979e-08 1.08774e-09 0 -4.32114e-08 1.53255e-09 0 -3.99198e-08 1.19509e-09 0 -3.57746e-08 1.74816e-09 0 -3.28693e-08 9.01447e-10 0 -2.86557e-08 1.89414e-09 0 -2.73396e-08 -9.09099e-10 0 -2.3108e-08 1.75493e-08 0 -1.89684e-07 -1.05259e-06 0 -1.57979e-07 9.22375e-07 0 1.96477e-08 -1.97656e-08 0 1.9511e-08 2.82071e-09 0 2.04611e-08 -2.57426e-10 0 2.30966e-08 1.16201e-09 0 2.56144e-08 4.81052e-10 0 2.81669e-08 9.41701e-10 0 3.07885e-08 5.72107e-10 0 3.30722e-08 7.44106e-10 0 3.51963e-08 4.83465e-10 0 3.69346e-08 5.14649e-10 0 3.8402e-08 3.3834e-10 0 3.95261e-08 3.0576e-10 0 4.03666e-08 1.8376e-10 0 4.09107e-08 1.27957e-10 0 4.11829e-08 3.05691e-11 0 4.11829e-08 -3.05691e-11 0 4.09107e-08 -1.27957e-10 0 4.03666e-08 -1.8376e-10 0 3.95261e-08 -3.0576e-10 0 3.8402e-08 -3.3834e-10 0 3.69346e-08 -5.14649e-10 0 3.51963e-08 -4.83465e-10 0 3.30722e-08 -7.44106e-10 0 3.07885e-08 -5.72107e-10 0 2.81669e-08 -9.41701e-10 0 2.56144e-08 -4.81052e-10 0 2.30966e-08 -1.16201e-09 0 2.04611e-08 2.57426e-10 0 1.9511e-08 -2.82071e-09 0 1.96477e-08 1.97656e-08 0 -1.57979e-07 -9.22375e-07 0 -1.44288e-07 7.16094e-07 0 -1.00488e-08 -1.27421e-08 0 -1.28509e-08 1.09556e-09 0 -1.32815e-08 -8.5173e-10 0 -1.54235e-08 -5.31413e-11 0 -1.66297e-08 -6.05411e-10 0 -1.86727e-08 -2.32978e-10 0 -2.01346e-08 -4.89227e-10 0 -2.18081e-08 -2.453e-10 0 -2.30957e-08 -3.5234e-10 0 -2.43038e-08 -1.97905e-10 0 -2.523e-08 -2.2268e-10 0 -2.59907e-08 -1.28206e-10 0 -2.65313e-08 -1.1598e-10 0 -2.68951e-08 -5.23179e-11 0 -2.70715e-08 -2.72845e-11 0 -2.70715e-08 2.72845e-11 0 -2.68951e-08 5.23179e-11 0 -2.65313e-08 1.1598e-10 0 -2.59907e-08 1.28206e-10 0 -2.523e-08 2.2268e-10 0 -2.43038e-08 1.97905e-10 0 -2.30957e-08 3.5234e-10 0 -2.18081e-08 2.453e-10 0 -2.01346e-08 4.89227e-10 0 -1.86727e-08 2.32978e-10 0 -1.66297e-08 6.05411e-10 0 -1.54235e-08 5.31413e-11 0 -1.32815e-08 8.5173e-10 0 -1.28509e-08 -1.09556e-09 0 -1.00488e-08 1.27421e-08 0 -1.44288e-07 -7.16094e-07 0 -1.28431e-07 5.81627e-07 0 8.89133e-09 -1.14028e-08 0 7.9257e-09 1.39603e-09 0 8.5022e-09 -3.24917e-10 0 9.39611e-09 4.60208e-10 0 1.05912e-08 2.84546e-11 0 1.15185e-08 3.25067e-10 0 1.26758e-08 9.73198e-11 0 1.35608e-08 2.39826e-10 0 1.44646e-08 9.99339e-11 0 1.51592e-08 1.5775e-10 0 1.57726e-08 7.69558e-11 0 1.6228e-08 9.06635e-11 0 1.65765e-08 4.32698e-11 0 1.67982e-08 3.83261e-11 0 1.69107e-08 4.90368e-12 0 1.69107e-08 -4.90368e-12 0 1.67982e-08 -3.83261e-11 0 1.65765e-08 -4.32698e-11 0 1.6228e-08 -9.06635e-11 0 1.57726e-08 -7.69558e-11 0 1.51592e-08 -1.5775e-10 0 1.44646e-08 -9.99339e-11 0 1.35608e-08 -2.39826e-10 0 1.26758e-08 -9.73198e-11 0 1.15185e-08 -3.25067e-10 0 1.05912e-08 -2.84546e-11 0 9.39611e-09 -4.60208e-10 0 8.5022e-09 3.24917e-10 0 7.9257e-09 -1.39603e-09 0 8.89133e-09 1.14028e-08 0 -1.28431e-07 -5.81627e-07 0 -1.20551e-07 4.32359e-07 0 -2.90948e-09 -7.79514e-09 0 -4.89248e-09 7.52278e-10 0 -4.8757e-09 -4.08935e-10 0 -5.86173e-09 9.53855e-11 0 -6.14868e-09 -2.3154e-10 0 -7.03445e-09 -7.07623e-12 0 -7.49706e-09 -1.68706e-10 0 -8.17617e-09 -3.41402e-11 0 -8.62431e-09 -1.13711e-10 0 -9.0956e-09 -3.70424e-11 0 -9.43048e-09 -6.82346e-11 0 -9.72132e-09 -2.70735e-11 0 -9.92001e-09 -3.47012e-11 0 -1.00579e-08 -1.07081e-11 0 -1.01231e-08 -9.54943e-12 0 -1.01231e-08 9.54943e-12 0 -1.00579e-08 1.07081e-11 0 -9.92001e-09 3.47012e-11 0 -9.72132e-09 2.70735e-11 0 -9.43048e-09 6.82346e-11 0 -9.0956e-09 3.70424e-11 0 -8.62431e-09 1.13711e-10 0 -8.17617e-09 3.41402e-11 0 -7.49706e-09 1.68706e-10 0 -7.03445e-09 7.07623e-12 0 -6.14868e-09 2.3154e-10 0 -5.86173e-09 -9.53855e-11 0 -4.8757e-09 4.08935e-10 0 -4.89248e-09 -7.52278e-10 0 -2.90948e-09 7.79514e-09 0 -1.20551e-07 -4.32359e-07 0 -1.1321e-07 3.06733e-07 0 3.91457e-09 -5.76786e-09 0 2.6035e-09 6.5227e-10 0 2.99215e-09 -2.01024e-10 0 3.09725e-09 1.88551e-10 0 3.67642e-09 -3.91348e-11 0 3.86203e-09 1.18744e-10 0 4.34293e-09 -7.27535e-13 0 4.58698e-09 8.14828e-11 0 4.92873e-09 1.22378e-11 0 5.14399e-09 5.04261e-11 0 5.36437e-09 1.36683e-11 0 5.51237e-09 2.77224e-11 0 5.63449e-09 8.494e-12 0 5.70796e-09 1.18786e-11 0 5.74699e-09 -2.56424e-13 0 5.74699e-09 2.56424e-13 0 5.70796e-09 -1.18786e-11 0 5.63449e-09 -8.494e-12 0 5.51237e-09 -2.77224e-11 0 5.36437e-09 -1.36683e-11 0 5.14399e-09 -5.04261e-11 0 4.92873e-09 -1.22378e-11 0 4.58698e-09 -8.14828e-11 0 4.34293e-09 7.27535e-13 0 3.86203e-09 -1.18744e-10 0 3.67642e-09 3.91348e-11 0 3.09725e-09 -1.88551e-10 0 2.99215e-09 2.01024e-10 0 2.6035e-09 -6.5227e-10 0 3.91457e-09 5.76786e-09 0 -1.1321e-07 -3.06733e-07 0 -1.09521e-07 1.79816e-07 0 1.24189e-10 -3.23156e-09 0 -1.49756e-09 3.17853e-10 0 -1.29087e-09 -1.57128e-10 0 -1.7833e-09 5.34098e-11 0 -1.68054e-09 -8.15606e-11 0 -2.07223e-09 1.18861e-11 0 -2.11041e-09 -5.63241e-11 0 -2.36537e-09 -1.55311e-12 0 -2.45638e-09 -3.64494e-11 0 -2.61353e-09 -6.2804e-12 0 -2.69659e-09 -2.11136e-11 0 -2.78712e-09 -5.69793e-12 0 -2.8401e-09 -1.05527e-11 0 -2.88161e-09 -2.1462e-12 0 -2.89944e-09 -3.21481e-12 0 -2.89944e-09 3.21481e-12 0 -2.88161e-09 2.1462e-12 0 -2.8401e-09 1.05527e-11 0 -2.78712e-09 5.69793e-12 0 -2.69659e-09 2.11136e-11 0 -2.61353e-09 6.2804e-12 0 -2.45638e-09 3.64494e-11 0 -2.36537e-09 1.55311e-12 0 -2.11041e-09 5.63241e-11 0 -2.07223e-09 -1.18861e-11 0 -1.68054e-09 8.15606e-11 0 -1.7833e-09 -5.34098e-11 0 -1.29087e-09 1.57128e-10 0 -1.49756e-09 -3.17853e-10 0 1.24189e-10 3.23156e-09 0 -1.09521e-07 -1.79816e-07 0 -1.07368e-07 6.04324e-08 0 1.74661e-09 -1.14331e-09 0 2.87366e-10 1.34119e-10 0 5.8449e-10 -3.36399e-11 0 3.51066e-10 4.45149e-11 0 6.59989e-10 1.91817e-14 0 5.23464e-10 3.10809e-11 0 7.09648e-10 7.17716e-12 0 6.7459e-10 2.26236e-11 0 7.71517e-10 8.1432e-12 0 7.77903e-10 1.47014e-11 0 8.27018e-10 6.5324e-12 0 8.41024e-10 8.3782e-12 0 8.64443e-10 3.72439e-12 0 8.73275e-10 3.55131e-12 0 8.80266e-10 3.52223e-13 0 8.80266e-10 -3.52223e-13 0 8.73275e-10 -3.55131e-12 0 8.64443e-10 -3.72439e-12 0 8.41024e-10 -8.3782e-12 0 8.27018e-10 -6.5324e-12 0 7.77903e-10 -1.47014e-11 0 7.71517e-10 -8.1432e-12 0 6.7459e-10 -2.26236e-11 0 7.09648e-10 -7.17716e-12 0 5.23464e-10 -3.10809e-11 0 6.59989e-10 -1.91817e-14 0 3.51066e-10 -4.45149e-11 0 5.8449e-10 3.36399e-11 0 2.87366e-10 -1.34119e-10 0 1.74661e-09 1.14331e-09 0 -1.07368e-07 -6.04324e-08 0 -1.07368e-07 -6.04324e-08 0 1.74661e-09 1.14331e-09 0 2.87366e-10 -1.34119e-10 0 5.8449e-10 3.36399e-11 0 3.51066e-10 -4.45149e-11 0 6.59989e-10 -1.91817e-14 0 5.23464e-10 -3.10809e-11 0 7.09648e-10 -7.17716e-12 0 6.7459e-10 -2.26236e-11 0 7.71517e-10 -8.1432e-12 0 7.77903e-10 -1.47014e-11 0 8.27018e-10 -6.5324e-12 0 8.41024e-10 -8.3782e-12 0 8.64443e-10 -3.72439e-12 0 8.73275e-10 -3.55131e-12 0 8.80266e-10 -3.52223e-13 0 8.80266e-10 3.52223e-13 0 8.73275e-10 3.55131e-12 0 8.64443e-10 3.72439e-12 0 8.41024e-10 8.3782e-12 0 8.27018e-10 6.5324e-12 0 7.77903e-10 1.47014e-11 0 7.71517e-10 8.1432e-12 0 6.7459e-10 2.26236e-11 0 7.09648e-10 7.17716e-12 0 5.23464e-10 3.10809e-11 0 6.59989e-10 1.91817e-14 0 3.51066e-10 4.45149e-11 0 5.8449e-10 -3.36399e-11 0 2.87366e-10 1.34119e-10 0 1.74661e-09 -1.14331e-09 0 -1.07368e-07 6.04324e-08 0 -1.09521e-07 -1.79816e-07 0 1.24189e-10 3.23156e-09 0 -1.49756e-09 -3.17853e-10 0 -1.29087e-09 1.57128e-10 0 -1.7833e-09 -5.34098e-11 0 -1.68054e-09 8.15606e-11 0 -2.07223e-09 -1.18861e-11 0 -2.11041e-09 5.63241e-11 0 -2.36537e-09 1.55311e-12 0 -2.45638e-09 3.64494e-11 0 -2.61353e-09 6.2804e-12 0 -2.69659e-09 2.11136e-11 0 -2.78712e-09 5.69793e-12 0 -2.8401e-09 1.05527e-11 0 -2.88161e-09 2.1462e-12 0 -2.89944e-09 3.21481e-12 0 -2.89944e-09 -3.21481e-12 0 -2.88161e-09 -2.1462e-12 0 -2.8401e-09 -1.05527e-11 0 -2.78712e-09 -5.69793e-12 0 -2.69659e-09 -2.11136e-11 0 -2.61353e-09 -6.2804e-12 0 -2.45638e-09 -3.64494e-11 0 -2.36537e-09 -1.55311e-12 0 -2.11041e-09 -5.63241e-11 0 -2.07223e-09 1.18861e-11 0 -1.68054e-09 -8.15606e-11 0 -1.7833e-09 5.34098e-11 0 -1.29087e-09 -1.57128e-10 0 -1.49756e-09 3.17853e-10 0 1.24189e-10 -3.23156e-09 0 -1.09521e-07 1.79816e-07 0 -1.1321e-07 -3.06733e-07 0 3.91457e-09 5.76786e-09 0 2.6035e-09 -6.5227e-10 0 2.99215e-09 2.01024e-10 0 3.09725e-09 -1.88551e-10 0 3.67642e-09 3.91348e-11 0 3.86203e-09 -1.18744e-10 0 4.34293e-09 7.27535e-13 0 4.58698e-09 -8.14828e-11 0 4.92873e-09 -1.22378e-11 0 5.14399e-09 -5.04261e-11 0 5.36437e-09 -1.36683e-11 0 5.51237e-09 -2.77224e-11 0 5.63449e-09 -8.494e-12 0 5.70796e-09 -1.18786e-11 0 5.74699e-09 2.56424e-13 0 5.74699e-09 -2.56424e-13 0 5.70796e-09 1.18786e-11 0 5.63449e-09 8.494e-12 0 5.51237e-09 2.77224e-11 0 5.36437e-09 1.36683e-11 0 5.14399e-09 5.04261e-11 0 4.92873e-09 1.22378e-11 0 4.58698e-09 8.14828e-11 0 4.34293e-09 -7.27535e-13 0 3.86203e-09 1.18744e-10 0 3.67642e-09 -3.91348e-11 0 3.09725e-09 1.88551e-10 0 2.99215e-09 -2.01024e-10 0 2.6035e-09 6.5227e-10 0 3.91457e-09 -5.76786e-09 0 -1.1321e-07 3.06733e-07 0 -1.20551e-07 -4.32359e-07 0 -2.90948e-09 7.79514e-09 0 -4.89248e-09 -7.52278e-10 0 -4.8757e-09 4.08935e-10 0 -5.86173e-09 -9.53855e-11 0 -6.14868e-09 2.3154e-10 0 -7.03445e-09 7.07623e-12 0 -7.49706e-09 1.68706e-10 0 -8.17617e-09 3.41402e-11 0 -8.62431e-09 1.13711e-10 0 -9.0956e-09 3.70424e-11 0 -9.43048e-09 6.82346e-11 0 -9.72132e-09 2.70735e-11 0 -9.92001e-09 3.47012e-11 0 -1.00579e-08 1.07081e-11 0 -1.01231e-08 9.54943e-12 0 -1.01231e-08 -9.54943e-12 0 -1.00579e-08 -1.07081e-11 0 -9.92001e-09 -3.47012e-11 0 -9.72132e-09 -2.70735e-11 0 -9.43048e-09 -6.82346e-11 0 -9.0956e-09 -3.70424e-11 0 -8.62431e-09 -1.13711e-10 0 -8.17617e-09 -3.41402e-11 0 -7.49706e-09 -1.68706e-10 0 -7.03445e-09 -7.07623e-12 0 -6.14868e-09 -2.3154e-10 0 -5.86173e-09 9.53855e-11 0 -4.8757e-09 -4.08935e-10 0 -4.89248e-09 7.52278e-10 0 -2.90948e-09 -7.79514e-09 0 -1.20551e-07 4.32359e-07 0 -1.28431e-07 -5.81627e-07 0 8.89133e-09 1.14028e-08 0 7.9257e-09 -1.39603e-09 0 8.5022e-09 3.24917e-10 0 9.39611e-09 -4.60208e-10 0 1.05912e-08 -2.84546e-11 0 1.15185e-08 -3.25067e-10 0 1.26758e-08 -9.73198e-11 0 1.35608e-08 -2.39826e-10 0 1.44646e-08 -9.99339e-11 0 1.51592e-08 -1.5775e-10 0 1.57726e-08 -7.69558e-11 0 1.6228e-08 -9.06635e-11 0 1.65765e-08 -4.32698e-11 0 1.67982e-08 -3.83261e-11 0 1.69107e-08 -4.90368e-12 0 1.69107e-08 4.90368e-12 0 1.67982e-08 3.83261e-11 0 1.65765e-08 4.32698e-11 0 1.6228e-08 9.06635e-11 0 1.57726e-08 7.69558e-11 0 1.51592e-08 1.5775e-10 0 1.44646e-08 9.99339e-11 0 1.35608e-08 2.39826e-10 0 1.26758e-08 9.73198e-11 0 1.15185e-08 3.25067e-10 0 1.05912e-08 2.84546e-11 0 9.39611e-09 4.60208e-10 0 8.5022e-09 -3.24917e-10 0 7.9257e-09 1.39603e-09 0 8.89133e-09 -1.14028e-08 0 -1.28431e-07 5.81627e-07 0 -1.44288e-07 -7.16094e-07 0 -1.00488e-08 1.27421e-08 0 -1.28509e-08 -1.09556e-09 0 -1.32815e-08 8.5173e-10 0 -1.54235e-08 5.31413e-11 0 -1.66297e-08 6.05411e-10 0 -1.86727e-08 2.32978e-10 0 -2.01346e-08 4.89227e-10 0 -2.18081e-08 2.453e-10 0 -2.30957e-08 3.5234e-10 0 -2.43038e-08 1.97905e-10 0 -2.523e-08 2.2268e-10 0 -2.59907e-08 1.28206e-10 0 -2.65313e-08 1.1598e-10 0 -2.68951e-08 5.23179e-11 0 -2.70715e-08 2.72845e-11 0 -2.70715e-08 -2.72845e-11 0 -2.68951e-08 -5.23179e-11 0 -2.65313e-08 -1.1598e-10 0 -2.59907e-08 -1.28206e-10 0 -2.523e-08 -2.2268e-10 0 -2.43038e-08 -1.97905e-10 0 -2.30957e-08 -3.5234e-10 0 -2.18081e-08 -2.453e-10 0 -2.01346e-08 -4.89227e-10 0 -1.86727e-08 -2.32978e-10 0 -1.66297e-08 -6.05411e-10 0 -1.54235e-08 -5.31413e-11 0 -1.32815e-08 -8.5173e-10 0 -1.28509e-08 1.09556e-09 0 -1.00488e-08 -1.27421e-08 0 -1.44288e-07 7.16094e-07 0 -1.57979e-07 -9.22375e-07 0 1.96477e-08 1.97656e-08 0 1.9511e-08 -2.82071e-09 0 2.04611e-08 2.57426e-10 0 2.30966e-08 -1.16201e-09 0 2.56144e-08 -4.81052e-10 0 2.81669e-08 -9.41701e-10 0 3.07885e-08 -5.72107e-10 0 3.30722e-08 -7.44106e-10 0 3.51963e-08 -4.83465e-10 0 3.69346e-08 -5.14649e-10 0 3.8402e-08 -3.3834e-10 0 3.95261e-08 -3.0576e-10 0 4.03666e-08 -1.8376e-10 0 4.09107e-08 -1.27957e-10 0 4.11829e-08 -3.05691e-11 0 4.11829e-08 3.05691e-11 0 4.09107e-08 1.27957e-10 0 4.03666e-08 1.8376e-10 0 3.95261e-08 3.0576e-10 0 3.8402e-08 3.3834e-10 0 3.69346e-08 5.14649e-10 0 3.51963e-08 4.83465e-10 0 3.30722e-08 7.44106e-10 0 3.07885e-08 5.72107e-10 0 2.81669e-08 9.41701e-10 0 2.56144e-08 4.81052e-10 0 2.30966e-08 1.16201e-09 0 2.04611e-08 -2.57426e-10 0 1.9511e-08 2.82071e-09 0 1.96477e-08 -1.97656e-08 0 -1.57979e-07 9.22375e-07 0 -1.89684e-07 -1.05259e-06 0 -2.3108e-08 1.75493e-08 0 -2.73396e-08 -9.09099e-10 0 -2.86557e-08 1.89414e-09 0 -3.28693e-08 9.01447e-10 0 -3.57746e-08 1.74816e-09 0 -3.99198e-08 1.19509e-09 0 -4.32114e-08 1.53255e-09 0 -4.66979e-08 1.08774e-09 0 -4.95196e-08 1.15288e-09 0 -5.20723e-08 8.17197e-10 0 -5.40785e-08 7.51341e-10 0 -5.56968e-08 5.09824e-10 0 -5.6862e-08 3.96528e-10 0 -5.76383e-08 2.10182e-10 0 -5.80176e-08 8.44913e-11 0 -5.80176e-08 -8.44913e-11 0 -5.76383e-08 -2.10182e-10 0 -5.6862e-08 -3.96528e-10 0 -5.56968e-08 -5.09824e-10 0 -5.40785e-08 -7.51341e-10 0 -5.20723e-08 -8.17197e-10 0 -4.95196e-08 -1.15288e-09 0 -4.66979e-08 -1.08774e-09 0 -4.32114e-08 -1.53255e-09 0 -3.99198e-08 -1.19509e-09 0 -3.57746e-08 -1.74816e-09 0 -3.28693e-08 -9.01447e-10 0 -2.86557e-08 -1.89414e-09 0 -2.73396e-08 9.09099e-10 0 -2.3108e-08 -1.75493e-08 0 -1.89684e-07 1.05259e-06 0 -2.18651e-07 -1.40865e-06 0 3.30039e-08 3.56043e-08 0 3.38857e-08 -6.32939e-09 0 3.5089e-08 -5.59723e-10 0 3.9948e-08 -3.30275e-09 0 4.40503e-08 -2.28328e-09 0 4.85973e-08 -2.95629e-09 0 5.30118e-08 -2.35506e-09 0 5.70029e-08 -2.43141e-09 0 6.06244e-08 -1.89069e-09 0 6.36387e-08 -1.72626e-09 0 6.61542e-08 -1.28367e-09 0 6.80972e-08 -1.04229e-09 0 6.95419e-08 -6.88849e-10 0 7.04811e-08 -4.3396e-10 0 7.09494e-08 -1.27374e-10 0 7.09494e-08 1.27374e-10 0 7.04811e-08 4.3396e-10 0 6.95419e-08 6.88849e-10 0 6.80972e-08 1.04229e-09 0 6.61542e-08 1.28367e-09 0 6.36387e-08 1.72626e-09 0 6.06244e-08 1.89069e-09 0 5.70029e-08 2.43141e-09 0 5.30118e-08 2.35506e-09 0 4.85973e-08 2.95629e-09 0 4.40503e-08 2.28328e-09 0 3.9948e-08 3.30275e-09 0 3.5089e-08 5.59723e-10 0 3.38857e-08 6.32939e-09 0 3.30039e-08 -3.56043e-08 0 -2.18651e-07 1.40865e-06 0 -2.72952e-07 -1.46798e-06 0 -2.33702e-08 1.92536e-08 0 -2.75608e-08 1.43225e-09 0 -2.97124e-08 4.82929e-09 0 -3.35975e-08 4.15917e-09 0 -3.67032e-08 5.44849e-09 0 -4.08643e-08 4.65167e-09 0 -4.42165e-08 4.99427e-09 0 -4.77682e-08 4.06164e-09 0 -5.06337e-08 3.8356e-09 0 -5.32431e-08 2.98121e-09 0 -5.52864e-08 2.53391e-09 0 -5.69431e-08 1.83533e-09 0 -5.81329e-08 1.34475e-09 0 -5.89282e-08 7.59263e-10 0 -5.9316e-08 2.73426e-10 0 -5.9316e-08 -2.73426e-10 0 -5.89282e-08 -7.59263e-10 0 -5.81329e-08 -1.34475e-09 0 -5.69431e-08 -1.83533e-09 0 -5.52864e-08 -2.53391e-09 0 -5.32431e-08 -2.98121e-09 0 -5.06337e-08 -3.8356e-09 0 -4.77682e-08 -4.06164e-09 0 -4.42165e-08 -4.99427e-09 0 -4.08643e-08 -4.65167e-09 0 -3.67032e-08 -5.44849e-09 0 -3.35975e-08 -4.15917e-09 0 -2.97124e-08 -4.82929e-09 0 -2.75608e-08 -1.43225e-09 0 -2.33702e-08 -1.92536e-08 0 -2.72952e-07 1.46798e-06 0 -3.86504e-07 -2.24538e-06 0 -1.00974e-08 7.3311e-08 0 -1.38122e-08 -1.63338e-08 0 -1.57454e-08 -3.95139e-09 0 -1.78144e-08 -1.00939e-08 0 -1.94888e-08 -8.54121e-09 0 -2.20317e-08 -9.52319e-09 0 -2.3803e-08 -8.43857e-09 0 -2.59189e-08 -7.97682e-09 0 -2.7456e-08 -6.65624e-09 0 -2.89501e-08 -5.7263e-09 0 -3.00474e-08 -4.46928e-09 0 -3.09676e-08 -3.48009e-09 0 -3.16041e-08 -2.38724e-09 0 -3.20382e-08 -1.44553e-09 0 -3.22451e-08 -4.57673e-10 0 -3.22451e-08 4.57673e-10 0 -3.20382e-08 1.44553e-09 0 -3.16041e-08 2.38724e-09 0 -3.09676e-08 3.48009e-09 0 -3.00474e-08 4.46928e-09 0 -2.89501e-08 5.7263e-09 0 -2.7456e-08 6.65624e-09 0 -2.59189e-08 7.97682e-09 0 -2.3803e-08 8.43857e-09 0 -2.20317e-08 9.52319e-09 0 -1.94888e-08 8.54121e-09 0 -1.78144e-08 1.00939e-08 0 -1.57454e-08 3.95139e-09 0 -1.38122e-08 1.63338e-08 0 -1.00974e-08 -7.3311e-08 0 -3.86504e-07 2.24538e-06 0 -4.0627e-07 -2.02441e-06 0 1.52325e-07 8.52959e-09 0 1.67244e-07 1.09209e-08 0 1.70124e-07 1.36388e-08 0 1.97181e-07 1.50971e-08 0 2.15629e-07 1.72088e-08 0 2.39918e-07 1.60234e-08 0 2.61046e-07 1.609e-08 0 2.81608e-07 1.37877e-08 0 2.99289e-07 1.24595e-08 0 3.14489e-07 1.00322e-08 0 3.26837e-07 8.27336e-09 0 3.36517e-07 6.14417e-09 0 3.43614e-07 4.39925e-09 0 3.48265e-07 2.54456e-09 0 3.50565e-07 8.77197e-10 0 3.50565e-07 -8.77197e-10 0 3.48265e-07 -2.54456e-09 0 3.43614e-07 -4.39925e-09 0 3.36517e-07 -6.14417e-09 0 3.26837e-07 -8.27336e-09 0 3.14489e-07 -1.00322e-08 0 2.99289e-07 -1.24595e-08 0 2.81608e-07 -1.37877e-08 0 2.61046e-07 -1.609e-08 0 2.39918e-07 -1.60234e-08 0 2.15629e-07 -1.72088e-08 0 1.97181e-07 -1.50971e-08 0 1.70124e-07 -1.36388e-08 0 1.67244e-07 -1.09209e-08 0 1.52325e-07 -8.52959e-09 0 -4.0627e-07 2.02441e-06 0 -1.07783e-06 -4.02916e-06 0 -5.71465e-07 1.75819e-07 0 -6.32953e-07 -4.57736e-08 0 -6.63577e-07 -1.49766e-08 0 -7.58921e-07 -3.06765e-08 0 -8.32475e-07 -2.80622e-08 0 -9.25556e-07 -2.95859e-08 0 -1.00629e-06 -2.73139e-08 0 -1.08594e-06 -2.49589e-08 0 -1.15349e-06 -2.13982e-08 0 -1.21235e-06 -1.79892e-08 0 -1.25969e-06 -1.43025e-08 0 -1.29712e-06 -1.09573e-08 0 -1.32441e-06 -7.6241e-09 0 -1.34238e-06 -4.54623e-09 0 -1.35123e-06 -1.48095e-09 0 -1.35123e-06 1.48095e-09 0 -1.34238e-06 4.54623e-09 0 -1.32441e-06 7.6241e-09 0 -1.29712e-06 1.09573e-08 0 -1.25969e-06 1.43025e-08 0 -1.21235e-06 1.79892e-08 0 -1.15349e-06 2.13982e-08 0 -1.08594e-06 2.49589e-08 0 -1.00629e-06 2.73139e-08 0 -9.25556e-07 2.95859e-08 0 -8.32475e-07 2.80622e-08 0 -7.58921e-07 3.06765e-08 0 -6.63577e-07 1.49766e-08 0 -6.32953e-07 4.57736e-08 0 -5.71465e-07 -1.75819e-07 0 -1.07783e-06 4.02916e-06 0 -5.14289e-07 -3.34723e-06 0 2.13243e-06 -5.95387e-09 0 2.38143e-06 3.24604e-08 0 2.43901e-06 3.78815e-08 0 2.82007e-06 4.389e-08 0 3.08002e-06 4.82863e-08 0 3.42922e-06 4.625e-08 0 3.72641e-06 4.53522e-08 0 4.02152e-06 3.96164e-08 0 4.27166e-06 3.52153e-08 0 4.48934e-06 2.87252e-08 0 4.6648e-06 2.34244e-08 0 4.80329e-06 1.75541e-08 0 4.9044e-06 1.24631e-08 0 4.97092e-06 7.27119e-09 0 5.00372e-06 2.46728e-09 0 5.00372e-06 -2.46728e-09 0 4.97092e-06 -7.27119e-09 0 4.9044e-06 -1.24631e-08 0 4.80329e-06 -1.75541e-08 0 4.6648e-06 -2.34244e-08 0 4.48934e-06 -2.87252e-08 0 4.27166e-06 -3.52153e-08 0 4.02152e-06 -3.96164e-08 0 3.72641e-06 -4.53522e-08 0 3.42922e-06 -4.625e-08 0 3.08002e-06 -4.82863e-08 0 2.82007e-06 -4.389e-08 0 2.43901e-06 -3.78815e-08 0 2.38143e-06 -3.24604e-08 0 2.13243e-06 5.95387e-09 0 -5.14289e-07 3.34723e-06 0 -1.0996e-05 -9.68686e-06 0 -9.91418e-06 4.03964e-07 0 -1.10692e-05 -9.19347e-08 0 -1.14707e-05 -1.41487e-08 0 -1.32015e-05 -4.75607e-08 0 -1.44491e-05 -3.99282e-08 0 -1.6085e-05 -4.36205e-08 0 -1.74843e-05 -3.97247e-08 0 -1.88734e-05 -3.66825e-08 0 -2.00479e-05 -3.13102e-08 0 -2.10719e-05 -2.65169e-08 0 -2.18951e-05 -2.10168e-08 0 -2.25458e-05 -1.61952e-08 0 -2.302e-05 -1.1232e-08 0 -2.33323e-05 -6.73494e-09 0 -2.34861e-05 -2.17374e-09 0 -2.34861e-05 2.17374e-09 0 -2.33323e-05 6.73494e-09 0 -2.302e-05 1.1232e-08 0 -2.25458e-05 1.61952e-08 0 -2.18951e-05 2.10168e-08 0 -2.10719e-05 2.65169e-08 0 -2.00479e-05 3.13102e-08 0 -1.88734e-05 3.66825e-08 0 -1.74843e-05 3.97247e-08 0 -1.6085e-05 4.36205e-08 0 -1.44491e-05 3.99282e-08 0 -1.32015e-05 4.75607e-08 0 -1.14707e-05 1.41487e-08 0 -1.10692e-05 9.19347e-08 0 -9.91418e-06 -4.03964e-07 0 -1.0996e-05 9.68686e-06 0 9.89985e-05 1.953e-05 0 4.38499e-05 -1.39092e-06 0 4.67411e-05 2.9126e-07 0 5.0747e-05 -9.97022e-08 0 5.75153e-05 6.53906e-09 0 6.39696e-05 -2.36334e-08 0 7.11977e-05 -2.08698e-08 0 7.78534e-05 -1.17027e-08 0 8.41498e-05 -1.23864e-08 0 8.95674e-05 -2.65446e-09 0 9.41926e-05 -2.04694e-09 0 9.79182e-05 2.38218e-09 0 0.000100832 2.08547e-09 0 0.000102952 2.82592e-09 0 0.000104341 1.59328e-09 0 0.000105025 7.79393e-10 0 0.000105025 -7.79393e-10 0 0.000104341 -1.59328e-09 0 0.000102952 -2.82592e-09 0 0.000100832 -2.08547e-09 0 9.79182e-05 -2.38218e-09 0 9.41926e-05 2.04694e-09 0 8.95674e-05 2.65446e-09 0 8.41498e-05 1.23864e-08 0 7.78534e-05 1.17027e-08 0 7.11977e-05 2.08698e-08 0 6.39696e-05 2.36334e-08 0 5.75153e-05 -6.53906e-09 0 5.0747e-05 9.97022e-08 0 4.67411e-05 -2.9126e-07 0 4.38499e-05 1.39092e-06 0 9.89985e-05 -1.953e-05 0 </DataArray> 
</PointData> 
<Points> 
<DataArray type="Float32" NumberOfComponents="3"> 