<?xml version="1.0"?> 
<VTKFile type="StructuredGrid" version="0.1"> 
<StructuredGrid WholeExtent="0 31 0 31 0 0"> 
<Piece Extent="0 31 0 31 0 0"> 
<PointData>
<DataArray type="Float32" Name="B" format="ascii" NumberOfComponents="3"> 
2.13082e-05 -0 0 2.25987e-05 -0 0 2.38919e-05 -0 0 2.51755e-05 -0 0 2.64364e-05 -0 0 2.76604e-05 -0 0 2.88331e-05 -0 0 2.99399e-05 -0 0 3.09664e-05 -0 0 3.18988e-05 -0 0 3.27243e-05 -0 0 3.34312e-05 -0 0 3.40094e-05 -0 0 3.44506e-05 -0 0 3.47484e-05 -0 0 3.48984e-05 -0 0 3.48984e-05 -0 0 3.47484e-05 -0 0 3.44506e-05 -0 0 3.40094e-05 -0 0 3.34312e-05 -0 0 3.27243e-05 -0 0 3.18988e-05 -0 0 3.09664e-05 -0 0 2.99399e-05 -0 0 2.88331e-05 -0 0 2.76604e-05 -0 0 2.64364e-05 -0 0 2.51755e-05 -0 0 2.38919e-05 -0 0 2.25987e-05 -0 0 2.13082e-05 -0 0 2.13012e-05 -1.28711e-06 0 2.25973e-05 -1.29574e-06 0 2.38966e-05 -1.29269e-06 0 2.51869e-05 -1.27682e-06 0 2.64548e-05 -1.24722e-06 0 2.76861e-05 -1.20325e-06 0 2.88661e-05 -1.14462e-06 0 2.99801e-05 -1.07137e-06 0 3.10135e-05 -9.83919e-07 0 3.19524e-05 -8.83031e-07 0 3.27837e-05 -7.69805e-07 0 3.34956e-05 -6.45638e-07 0 3.40781e-05 -5.12179e-07 0 3.45225e-05 -3.71285e-07 0 3.48224e-05 -2.2497e-07 0 3.49735e-05 -7.53585e-08 0 3.49735e-05 7.53585e-08 0 3.48224e-05 2.2497e-07 0 3.45225e-05 3.71285e-07 0 3.40781e-05 5.12179e-07 0 3.34956e-05 6.45638e-07 0 3.27837e-05 7.69805e-07 0 3.19524e-05 8.83031e-07 0 3.10135e-05 9.83919e-07 0 2.99801e-05 1.07137e-06 0 2.88661e-05 1.14462e-06 0 2.76861e-05 1.20325e-06 0 2.64548e-05 1.24722e-06 0 2.51869e-05 1.27682e-06 0 2.38966e-05 1.29269e-06 0 2.25973e-05 1.29574e-06 0 2.13012e-05 1.28711e-06 0 2.12797e-05 -2.58459e-06 0 2.25923e-05 -2.60318e-06 0 2.39101e-05 -2.59823e-06 0 2.52205e-05 -2.56742e-06 0 2.65096e-05 -2.50885e-06 0 2.77629e-05 -2.42122e-06 0 2.89652e-05 -2.30391e-06 0 3.0101e-05 -2.157e-06 0 3.11554e-05 -1.98133e-06 0 3.21138e-05 -1.77845e-06 0 3.29627e-05 -1.55059e-06 0 3.369e-05 -1.3006e-06 0 3.4285e-05 -1.03182e-06 0 3.47392e-05 -7.48009e-07 0 3.50457e-05 -4.53247e-07 0 3.52001e-05 -1.51827e-07 0 3.52001e-05 1.51827e-07 0 3.50457e-05 4.53247e-07 0 3.47392e-05 7.48009e-07 0 3.4285e-05 1.03182e-06 0 3.369e-05 1.3006e-06 0 3.29627e-05 1.55059e-06 0 3.21138e-05 1.77845e-06 0 3.11554e-05 1.98133e-06 0 3.0101e-05 2.157e-06 0 2.89652e-05 2.30391e-06 0 2.77629e-05 2.42122e-06 0 2.65096e-05 2.50885e-06 0 2.52205e-05 2.56742e-06 0 2.39101e-05 2.59823e-06 0 2.25923e-05 2.60318e-06 0 2.12797e-05 2.58459e-06 0 2.12414e-05 -3.90293e-06 0 2.2582e-05 -3.9342e-06 0 2.39309e-05 -3.92972e-06 0 2.52752e-05 -3.88586e-06 0 2.66003e-05 -3.79964e-06 0 2.78908e-05 -3.66901e-06 0 2.91306e-05 -3.49293e-06 0 3.03035e-05 -3.27152e-06 0 3.13934e-05 -3.00606e-06 0 3.23848e-05 -2.69894e-06 0 3.32636e-05 -2.35361e-06 0 3.40168e-05 -1.97443e-06 0 3.46333e-05 -1.56654e-06 0 3.51038e-05 -1.13572e-06 0 3.54215e-05 -6.88202e-07 0 3.55815e-05 -2.30535e-07 0 3.55815e-05 2.30535e-07 0 3.54215e-05 6.88202e-07 0 3.51038e-05 1.13572e-06 0 3.46333e-05 1.56654e-06 0 3.40168e-05 1.97443e-06 0 3.32636e-05 2.35361e-06 0 3.23848e-05 2.69894e-06 0 3.13934e-05 3.00606e-06 0 3.03035e-05 3.27152e-06 0 2.91306e-05 3.49293e-06 0 2.78908e-05 3.66901e-06 0 2.66003e-05 3.79964e-06 0 2.52752e-05 3.88586e-06 0 2.39309e-05 3.92972e-06 0 2.2582e-05 3.9342e-06 0 2.12414e-05 3.90293e-06 0 2.11828e-05 -5.25281e-06 0 2.25629e-05 -5.301e-06 0 2.39562e-05 -5.30072e-06 0 2.53489e-05 -5.24682e-06 0 2.67254e-05 -5.13503e-06 0 2.80693e-05 -4.96242e-06 0 2.93631e-05 -4.72747e-06 0 3.05891e-05 -4.43029e-06 0 3.17299e-05 -4.07263e-06 0 3.27688e-05 -3.65781e-06 0 3.36904e-05 -3.1906e-06 0 3.44807e-05 -2.67706e-06 0 3.51277e-05 -2.12428e-06 0 3.56218e-05 -1.54019e-06 0 3.59553e-05 -9.33335e-07 0 3.61234e-05 -3.12656e-07 0 3.61234e-05 3.12656e-07 0 3.59553e-05 9.33335e-07 0 3.56218e-05 1.54019e-06 0 3.51277e-05 2.12428e-06 0 3.44807e-05 2.67706e-06 0 3.36904e-05 3.1906e-06 0 3.27688e-05 3.65781e-06 0 3.17299e-05 4.07263e-06 0 3.05891e-05 4.43029e-06 0 2.93631e-05 4.72747e-06 0 2.80693e-05 4.96242e-06 0 2.67254e-05 5.13503e-06 0 2.53489e-05 5.24682e-06 0 2.39562e-05 5.30072e-06 0 2.25629e-05 5.301e-06 0 2.11828e-05 5.25281e-06 0 2.10986e-05 -6.64523e-06 0 2.25304e-05 -6.71632e-06 0 2.39819e-05 -6.72552e-06 0 2.54385e-05 -6.66585e-06 0 2.68832e-05 -6.53151e-06 0 2.82979e-05 -6.31843e-06 0 2.96633e-05 -6.02451e-06 0 3.096e-05 -5.64981e-06 0 3.21685e-05 -5.1966e-06 0 3.32705e-05 -4.66927e-06 0 3.42487e-05 -4.07411e-06 0 3.50881e-05 -3.41906e-06 0 3.57756e-05 -2.71343e-06 0 3.63006e-05 -1.96751e-06 0 3.66551e-05 -1.19233e-06 0 3.68337e-05 -3.99423e-07 0 3.68337e-05 3.99423e-07 0 3.66551e-05 1.19233e-06 0 3.63006e-05 1.96751e-06 0 3.57756e-05 2.71343e-06 0 3.50881e-05 3.41906e-06 0 3.42487e-05 4.07411e-06 0 3.32705e-05 4.66927e-06 0 3.21685e-05 5.1966e-06 0 3.096e-05 5.64981e-06 0 2.96633e-05 6.02451e-06 0 2.82979e-05 6.31843e-06 0 2.68832e-05 6.53151e-06 0 2.54385e-05 6.66585e-06 0 2.39819e-05 6.72552e-06 0 2.25304e-05 6.71632e-06 0 2.10986e-05 6.64523e-06 0 2.09815e-05 -8.09155e-06 0 2.24777e-05 -8.19359e-06 0 2.40024e-05 -8.21942e-06 0 2.55396e-05 -8.15981e-06 0 2.70708e-05 -8.00705e-06 0 2.85756e-05 -7.75564e-06 0 3.00324e-05 -7.4027e-06 0 3.14192e-05 -6.9482e-06 0 3.2714e-05 -6.39503e-06 0 3.38961e-05 -5.74883e-06 0 3.49463e-05 -5.01771e-06 0 3.58479e-05 -4.21184e-06 0 3.65864e-05 -3.34299e-06 0 3.71504e-05 -2.42415e-06 0 3.75312e-05 -1.4691e-06 0 3.7723e-05 -4.92144e-07 0 3.7723e-05 4.92144e-07 0 3.75312e-05 1.4691e-06 0 3.71504e-05 2.42415e-06 0 3.65864e-05 3.34299e-06 0 3.58479e-05 4.21184e-06 0 3.49463e-05 5.01771e-06 0 3.38961e-05 5.74883e-06 0 3.2714e-05 6.39503e-06 0 3.14192e-05 6.9482e-06 0 3.00324e-05 7.4027e-06 0 2.85756e-05 7.75564e-06 0 2.70708e-05 8.00705e-06 0 2.55396e-05 8.15981e-06 0 2.40024e-05 8.21942e-06 0 2.24777e-05 8.19359e-06 0 2.09815e-05 8.09155e-06 0 2.08219e-05 -9.6036e-06 0 2.2396e-05 -9.74712e-06 0 2.401e-05 -9.79905e-06 0 2.56464e-05 -9.7473e-06 0 2.72845e-05 -9.58168e-06 0 2.89012e-05 -9.29486e-06 0 3.04717e-05 -8.88293e-06 0 3.19705e-05 -8.34573e-06 0 3.33725e-05 -7.6869e-06 0 3.46539e-05 -6.91367e-06 0 3.57931e-05 -6.03635e-06 0 3.67711e-05 -5.06778e-06 0 3.75723e-05 -4.02269e-06 0 3.81839e-05 -2.91709e-06 0 3.85968e-05 -1.76782e-06 0 3.88047e-05 -5.92209e-07 0 3.88047e-05 5.92209e-07 0 3.85968e-05 1.76782e-06 0 3.81839e-05 2.91709e-06 0 3.75723e-05 4.02269e-06 0 3.67711e-05 5.06778e-06 0 3.57931e-05 6.03635e-06 0 3.46539e-05 6.91367e-06 0 3.33725e-05 7.6869e-06 0 3.19705e-05 8.34573e-06 0 3.04717e-05 8.88293e-06 0 2.89012e-05 9.29486e-06 0 2.72845e-05 9.58168e-06 0 2.56464e-05 9.7473e-06 0 2.401e-05 9.79905e-06 0 2.2396e-05 9.74712e-06 0 2.08219e-05 9.6036e-06 0 2.06076e-05 -1.11937e-05 0 2.22737e-05 -1.13923e-05 0 2.39947e-05 -1.14827e-05 0 2.5751e-05 -1.14491e-05 0 2.75193e-05 -1.12781e-05 0 2.92729e-05 -1.09598e-05 0 3.09826e-05 -1.04891e-05 0 3.26188e-05 -9.86549e-06 0 3.41519e-05 -9.09371e-06 0 3.55544e-05 -8.18301e-06 0 3.68014e-05 -7.14655e-06 0 3.78718e-05 -6.00047e-06 0 3.87481e-05 -4.76303e-06 0 3.94167e-05 -3.45376e-06 0 3.98677e-05 -2.09293e-06 0 4.00948e-05 -7.01092e-07 0 4.00948e-05 7.01092e-07 0 3.98677e-05 2.09293e-06 0 3.94167e-05 3.45376e-06 0 3.87481e-05 4.76303e-06 0 3.78718e-05 6.00047e-06 0 3.68014e-05 7.14655e-06 0 3.55544e-05 8.18301e-06 0 3.41519e-05 9.09371e-06 0 3.26188e-05 9.86549e-06 0 3.09826e-05 1.04891e-05 0 2.92729e-05 1.09598e-05 0 2.75193e-05 1.12781e-05 0 2.5751e-05 1.14491e-05 0 2.39947e-05 1.14827e-05 0 2.22737e-05 1.13923e-05 0 2.06076e-05 1.11937e-05 0 2.03226e-05 -1.28745e-05 0 2.20959e-05 -1.31458e-05 0 2.39432e-05 -1.32908e-05 0 2.58431e-05 -1.3289e-05 0 2.77686e-05 -1.31224e-05 0 2.96882e-05 -1.27781e-05 0 3.15675e-05 -1.22489e-05 0 3.33706e-05 -1.15342e-05 0 3.50626e-05 -1.06401e-05 0 3.6611e-05 -9.57863e-06 0 3.79873e-05 -8.36671e-06 0 3.91674e-05 -7.02474e-06 0 4.01324e-05 -5.5753e-06 0 4.08677e-05 -4.04206e-06 0 4.13633e-05 -2.44906e-06 0 4.16126e-05 -8.20319e-07 0 4.16126e-05 8.20319e-07 0 4.13633e-05 2.44906e-06 0 4.08677e-05 4.04206e-06 0 4.01324e-05 5.5753e-06 0 3.91674e-05 7.02474e-06 0 3.79873e-05 8.36671e-06 0 3.6611e-05 9.57863e-06 0 3.50626e-05 1.06401e-05 0 3.33706e-05 1.15342e-05 0 3.15675e-05 1.22489e-05 0 2.96882e-05 1.27781e-05 0 2.77686e-05 1.31224e-05 0 2.58431e-05 1.3289e-05 0 2.39432e-05 1.32908e-05 0 2.20959e-05 1.31458e-05 0 2.03226e-05 1.28745e-05 0 1.99467e-05 -1.46589e-05 0 2.1843e-05 -1.50255e-05 0 2.38383e-05 -1.52463e-05 0 2.59089e-05 -1.52942e-05 0 2.80232e-05 -1.51456e-05 0 3.01437e-05 -1.47825e-05 0 3.22282e-05 -1.41953e-05 0 3.42336e-05 -1.33833e-05 0 3.61172e-05 -1.23546e-05 0 3.78403e-05 -1.11253e-05 0 3.93697e-05 -9.71729e-06 0 4.06787e-05 -8.15667e-06 0 4.17467e-05 -6.47142e-06 0 4.25589e-05 -4.69009e-06 0 4.31053e-05 -2.84092e-06 0 4.338e-05 -9.51426e-07 0 4.338e-05 9.51426e-07 0 4.31053e-05 2.84092e-06 0 4.25589e-05 4.69009e-06 0 4.17467e-05 6.47142e-06 0 4.06787e-05 8.15667e-06 0 3.93697e-05 9.71729e-06 0 3.78403e-05 1.11253e-05 0 3.61172e-05 1.23546e-05 0 3.42336e-05 1.33833e-05 0 3.22282e-05 1.41953e-05 0 3.01437e-05 1.47825e-05 0 2.80232e-05 1.51456e-05 0 2.59089e-05 1.52942e-05 0 2.38383e-05 1.52463e-05 0 2.1843e-05 1.50255e-05 0 1.99467e-05 1.46589e-05 0 1.94543e-05 -1.65599e-05 0 2.14898e-05 -1.70509e-05 0 2.36571e-05 -1.73752e-05 0 2.59297e-05 -1.74972e-05 0 2.82709e-05 -1.73843e-05 0 3.06346e-05 -1.70126e-05 0 3.29695e-05 -1.63682e-05 0 3.52197e-05 -1.54505e-05 0 3.73339e-05 -1.42709e-05 0 3.92649e-05 -1.28512e-05 0 4.09744e-05 -1.12208e-05 0 4.24326e-05 -9.41331e-06 0 4.36183e-05 -7.46354e-06 0 4.45172e-05 -5.40586e-06 0 4.51204e-05 -3.27298e-06 0 4.54231e-05 -1.09585e-06 0 4.54231e-05 1.09585e-06 0 4.51204e-05 3.27298e-06 0 4.45172e-05 5.40586e-06 0 4.36183e-05 7.46354e-06 0 4.24326e-05 9.41331e-06 0 4.09744e-05 1.12208e-05 0 3.92649e-05 1.28512e-05 0 3.73339e-05 1.42709e-05 0 3.52197e-05 1.54505e-05 0 3.29695e-05 1.63682e-05 0 3.06346e-05 1.70126e-05 0 2.82709e-05 1.73843e-05 0 2.59297e-05 1.74972e-05 0 2.36571e-05 1.73752e-05 0 2.14898e-05 1.70509e-05 0 1.94543e-05 1.65599e-05 0 1.88123e-05 -1.85894e-05 0 2.10031e-05 -1.92424e-05 0 2.33686e-05 -1.97074e-05 0 2.58804e-05 -1.99361e-05 0 2.84947e-05 -1.98841e-05 0 3.11549e-05 -1.95168e-05 0 3.37929e-05 -1.88165e-05 0 3.63418e-05 -1.77814e-05 0 3.87334e-05 -1.64284e-05 0 4.09112e-05 -1.47885e-05 0 4.28303e-05 -1.29018e-05 0 4.44588e-05 -1.08121e-05 0 4.57761e-05 -8.5633e-06 0 4.67702e-05 -6.1965e-06 0 4.7435e-05 -3.74904e-06 0 4.77678e-05 -1.25479e-06 0 4.77678e-05 1.25479e-06 0 4.7435e-05 3.74904e-06 0 4.67702e-05 6.1965e-06 0 4.57761e-05 8.5633e-06 0 4.44588e-05 1.08121e-05 0 4.28303e-05 1.29018e-05 0 4.09112e-05 1.47885e-05 0 3.87334e-05 1.64284e-05 0 3.63418e-05 1.77814e-05 0 3.37929e-05 1.88165e-05 0 3.11549e-05 1.95168e-05 0 2.84947e-05 1.98841e-05 0 2.58804e-05 1.99361e-05 0 2.33686e-05 1.97074e-05 0 2.10031e-05 1.92424e-05 0 1.88123e-05 1.85894e-05 0 1.79788e-05 -2.07572e-05 0 2.03391e-05 -2.16214e-05 0 2.29314e-05 -2.22767e-05 0 2.57259e-05 -2.26576e-05 0 2.86713e-05 -2.27008e-05 0 3.1695e-05 -2.23589e-05 0 3.47123e-05 -2.16023e-05 0 3.76254e-05 -2.04325e-05 0 4.03525e-05 -1.88744e-05 0 4.28217e-05 -1.69734e-05 0 4.49821e-05 -1.47855e-05 0 4.68011e-05 -1.23694e-05 0 4.82615e-05 -9.78041e-06 0 4.93565e-05 -7.06722e-06 0 5.00851e-05 -4.27149e-06 0 5.04488e-05 -1.42889e-06 0 5.04488e-05 1.42889e-06 0 5.00851e-05 4.27149e-06 0 4.93565e-05 7.06722e-06 0 4.82615e-05 9.78041e-06 0 4.68011e-05 1.23694e-05 0 4.49821e-05 1.47855e-05 0 4.28217e-05 1.69734e-05 0 4.03525e-05 1.88744e-05 0 3.76254e-05 2.04325e-05 0 3.47123e-05 2.16023e-05 0 3.1695e-05 2.23589e-05 0 2.86713e-05 2.27008e-05 0 2.57259e-05 2.26576e-05 0 2.29314e-05 2.22767e-05 0 2.03391e-05 2.16214e-05 0 1.79788e-05 2.07572e-05 0 1.69003e-05 -2.30684e-05 0 1.94399e-05 -2.42079e-05 0 2.2288e-05 -2.51214e-05 0 2.54172e-05 -2.5718e-05 0 2.87669e-05 -2.59086e-05 0 3.22438e-05 -2.56163e-05 0 3.57238e-05 -2.48062e-05 0 3.90919e-05 -2.34752e-05 0 4.22248e-05 -2.16652e-05 0 4.5037e-05 -1.94454e-05 0 4.74703e-05 -1.68968e-05 0 4.94963e-05 -1.40985e-05 0 5.11058e-05 -1.11205e-05 0 5.23019e-05 -8.01941e-06 0 5.30927e-05 -4.84016e-06 0 5.34857e-05 -1.61793e-06 0 5.34857e-05 1.61793e-06 0 5.30927e-05 4.84016e-06 0 5.23019e-05 8.01941e-06 0 5.11058e-05 1.11205e-05 0 4.94963e-05 1.40985e-05 0 4.74703e-05 1.68968e-05 0 4.5037e-05 1.94454e-05 0 4.22248e-05 2.16652e-05 0 3.90919e-05 2.34752e-05 0 3.57238e-05 2.48062e-05 0 3.22438e-05 2.56163e-05 0 2.87669e-05 2.59086e-05 0 2.54172e-05 2.5718e-05 0 2.2288e-05 2.51214e-05 0 1.94399e-05 2.42079e-05 0 1.69003e-05 2.30684e-05 0 1.55085e-05 -2.552e-05 0 1.82276e-05 -2.70179e-05 0 2.13583e-05 -2.82827e-05 0 2.48815e-05 -2.91889e-05 0 2.87307e-05 -2.95997e-05 0 3.2782e-05 -2.94086e-05 0 3.68776e-05 -2.85377e-05 0 4.08114e-05 -2.70013e-05 0 4.44415e-05 -2.48677e-05 0 4.76518e-05 -2.2246e-05 0 5.03862e-05 -1.92557e-05 0 5.26262e-05 -1.60053e-05 0 5.43807e-05 -1.25814e-05 0 5.56693e-05 -9.0482e-06 0 5.65138e-05 -5.45076e-06 0 5.69314e-05 -1.82029e-06 0 5.69314e-05 1.82029e-06 0 5.65138e-05 5.45076e-06 0 5.56693e-05 9.0482e-06 0 5.43807e-05 1.25814e-05 0 5.26262e-05 1.60053e-05 0 5.03862e-05 1.92557e-05 0 4.76518e-05 2.2246e-05 0 4.44415e-05 2.48677e-05 0 4.08114e-05 2.70013e-05 0 3.68776e-05 2.85377e-05 0 3.2782e-05 2.94086e-05 0 2.87307e-05 2.95997e-05 0 2.48815e-05 2.91889e-05 0 2.13583e-05 2.82827e-05 0 1.82276e-05 2.70179e-05 0 1.55085e-05 2.552e-05 0 1.37183e-05 -2.80917e-05 0 1.65987e-05 -3.0056e-05 0 2.00264e-05 -3.18026e-05 0 2.40108e-05 -3.31544e-05 0 2.84846e-05 -3.39127e-05 0 3.32846e-05 -3.38697e-05 0 3.81385e-05 -3.29458e-05 0 4.28141e-05 -3.11326e-05 0 4.70482e-05 -2.856e-05 0 5.07153e-05 -2.54125e-05 0 5.3764e-05 -2.18712e-05 0 5.6208e-05 -1.80816e-05 0 5.80856e-05 -1.41484e-05 0 5.94441e-05 -1.01388e-05 0 6.03246e-05 -6.09303e-06 0 6.07571e-05 -2.03228e-06 0 6.07571e-05 2.03228e-06 0 6.03246e-05 6.09303e-06 0 5.94441e-05 1.01388e-05 0 5.80856e-05 1.41484e-05 0 5.6208e-05 1.80816e-05 0 5.3764e-05 2.18712e-05 0 5.07153e-05 2.54125e-05 0 4.70482e-05 2.856e-05 0 4.28141e-05 3.11326e-05 0 3.81385e-05 3.29458e-05 0 3.32846e-05 3.38697e-05 0 2.84846e-05 3.39127e-05 0 2.40108e-05 3.31544e-05 0 2.00264e-05 3.18026e-05 0 1.65987e-05 3.0056e-05 0 1.37183e-05 2.80917e-05 0 1.14265e-05 -3.07403e-05 0 1.44142e-05 -3.33035e-05 0 1.81276e-05 -3.57091e-05 0 2.26311e-05 -3.77234e-05 0 2.78941e-05 -3.90145e-05 0 3.37072e-05 -3.92893e-05 0 3.9709e-05 -3.82655e-05 0 4.53402e-05 -3.60292e-05 0 5.032e-05 -3.28251e-05 0 5.44808e-05 -2.89673e-05 0 5.78293e-05 -2.4727e-05 0 6.0433e-05 -2.02955e-05 0 6.23857e-05 -1.57869e-05 0 6.37714e-05 -1.12628e-05 0 6.46576e-05 -6.74844e-06 0 6.50894e-05 -2.2476e-06 0 6.50894e-05 2.2476e-06 0 6.46576e-05 6.74844e-06 0 6.37714e-05 1.12628e-05 0 6.23857e-05 1.57869e-05 0 6.0433e-05 2.02955e-05 0 5.78293e-05 2.4727e-05 0 5.44808e-05 2.89673e-05 0 5.032e-05 3.28251e-05 0 4.53402e-05 3.60292e-05 0 3.9709e-05 3.82655e-05 0 3.37072e-05 3.92893e-05 0 2.78941e-05 3.90145e-05 0 2.26311e-05 3.77234e-05 0 1.81276e-05 3.57091e-05 0 1.44142e-05 3.33035e-05 0 1.14265e-05 3.07403e-05 0 8.51613e-06 -3.3373e-05 0 1.15009e-05 -3.66917e-05 0 1.54184e-05 -3.99992e-05 0 2.04647e-05 -4.29921e-05 0 2.67211e-05 -4.52113e-05 0 3.39634e-05 -4.59254e-05 0 4.14299e-05 -4.4829e-05 0 4.84168e-05 -4.1911e-05 0 5.42659e-05 -3.77349e-05 0 5.89155e-05 -3.28875e-05 0 6.24793e-05 -2.77628e-05 0 6.51488e-05 -2.25767e-05 0 6.70889e-05 -1.74354e-05 0 6.84348e-05 -1.23734e-05 0 6.92813e-05 -7.38857e-06 0 6.96898e-05 -2.45659e-06 0 6.96898e-05 2.45659e-06 0 6.92813e-05 7.38857e-06 0 6.84348e-05 1.23734e-05 0 6.70889e-05 1.74354e-05 0 6.51488e-05 2.25767e-05 0 6.24793e-05 2.77628e-05 0 5.89155e-05 3.28875e-05 0 5.42659e-05 3.77349e-05 0 4.84168e-05 4.1911e-05 0 4.14299e-05 4.4829e-05 0 3.39634e-05 4.59254e-05 0 2.67211e-05 4.52113e-05 0 2.04647e-05 4.29921e-05 0 1.54184e-05 3.99992e-05 0 1.15009e-05 3.66917e-05 0 8.51613e-06 3.3373e-05 0 4.87219e-06 -3.58494e-05 0 7.65127e-06 -4.00707e-05 0 1.15732e-05 -4.4557e-05 0 1.70326e-05 -4.90378e-05 0 2.44548e-05 -5.28069e-05 0 3.38885e-05 -5.4788e-05 0 4.41785e-05 -5.33243e-05 0 5.29915e-05 -4.90233e-05 0 5.97771e-05 -4.32768e-05 0 6.47473e-05 -3.70595e-05 0 6.83389e-05 -3.08386e-05 0 7.08995e-05 -2.48039e-05 0 7.26952e-05 -1.89974e-05 0 7.39054e-05 -1.34039e-05 0 7.4652e-05 -7.97388e-06 0 7.50079e-05 -2.6465e-06 0 7.50079e-05 2.6465e-06 0 7.4652e-05 7.97388e-06 0 7.39054e-05 1.34039e-05 0 7.26952e-05 1.89974e-05 0 7.08995e-05 2.48039e-05 0 6.83389e-05 3.08386e-05 0 6.47473e-05 3.70595e-05 0 5.97771e-05 4.32768e-05 0 5.29915e-05 4.90233e-05 0 4.41785e-05 5.33243e-05 0 3.38885e-05 5.4788e-05 0 2.44548e-05 5.28069e-05 0 1.70326e-05 4.90378e-05 0 1.15732e-05 4.4557e-05 0 7.65127e-06 4.00707e-05 0 4.87219e-06 3.58494e-05 0 4.13349e-07 -3.79202e-05 0 2.68209e-06 -4.31506e-05 0 6.19093e-06 -4.90962e-05 0 1.1605e-05 -5.56017e-05 0 1.99629e-05 -6.23718e-05 0 3.28003e-05 -6.68509e-05 0 4.82398e-05 -6.47623e-05 0 5.9442e-05 -5.75006e-05 0 6.67656e-05 -4.92081e-05 0 7.16219e-05 -4.11809e-05 0 7.48747e-05 -3.3714e-05 0 7.70733e-05 -2.67892e-05 0 7.85432e-05 -2.03442e-05 0 7.95006e-05 -1.42675e-05 0 8.00749e-05 -8.45646e-06 0 8.03444e-05 -2.80122e-06 0 8.03444e-05 2.80122e-06 0 8.00749e-05 8.45646e-06 0 7.95006e-05 1.42675e-05 0 7.85432e-05 2.03442e-05 0 7.70733e-05 2.67892e-05 0 7.48747e-05 3.3714e-05 0 7.16219e-05 4.11809e-05 0 6.67656e-05 4.92081e-05 0 5.9442e-05 5.75006e-05 0 4.82398e-05 6.47623e-05 0 3.28003e-05 6.68509e-05 0 1.99629e-05 6.23718e-05 0 1.1605e-05 5.56017e-05 0 6.19093e-06 4.90962e-05 0 2.68209e-06 4.31506e-05 0 4.13349e-07 3.79202e-05 0 -4.85848e-06 -3.93577e-05 0 -3.51247e-06 -4.55334e-05 0 -9.9717e-07 -5.28875e-05 0 3.30185e-06 -6.20718e-05 0 1.09434e-05 -7.24512e-05 0 2.58489e-05 -8.78992e-05 0 4.85799e-05 -8.10063e-05 0 5.98083e-05 -6.642e-05 0 6.64631e-05 -5.47279e-05 0 7.02612e-05 -4.4739e-05 0 7.27121e-05 -3.60157e-05 0 7.42034e-05 -2.83033e-05 0 7.51542e-05 -2.13152e-05 0 7.57259e-05 -1.48696e-05 0 7.60549e-05 -8.7814e-06 0 7.62025e-05 -2.9048e-06 0 7.62025e-05 2.9048e-06 0 7.60549e-05 8.7814e-06 0 7.57259e-05 1.48696e-05 0 7.51542e-05 2.13152e-05 0 7.42034e-05 2.83033e-05 0 7.27121e-05 3.60157e-05 0 7.02612e-05 4.4739e-05 0 6.64631e-05 5.47279e-05 0 5.98083e-05 6.642e-05 0 4.85799e-05 8.10063e-05 0 2.58489e-05 8.78992e-05 0 1.09434e-05 7.24512e-05 0 3.30185e-06 6.20718e-05 0 -9.9717e-07 5.28875e-05 0 -3.51247e-06 4.55334e-05 0 -4.85848e-06 3.93577e-05 0 -1.08158e-05 -3.97672e-05 0 -1.07596e-05 -4.66715e-05 0 -9.98414e-06 -5.51992e-05 0 -7.94663e-06 -6.65172e-05 0 -3.87007e-06 -8.02423e-05 0 3.04397e-06 -0.000102965 0 1.08636e-05 -9.31544e-05 0 1.70644e-05 -7.31136e-05 0 2.0568e-05 -5.85881e-05 0 2.25325e-05 -4.70048e-05 0 2.3542e-05 -3.73464e-05 0 2.40543e-05 -2.90823e-05 0 2.42749e-05 -2.1759e-05 0 2.43543e-05 -1.51123e-05 0 2.4368e-05 -8.89964e-06 0 2.4365e-05 -2.94003e-06 0 2.4365e-05 2.94003e-06 0 2.4368e-05 8.89964e-06 0 2.43543e-05 1.51123e-05 0 2.42749e-05 2.1759e-05 0 2.40543e-05 2.90823e-05 0 2.3542e-05 3.73464e-05 0 2.25325e-05 4.70048e-05 0 2.0568e-05 5.85881e-05 0 1.70644e-05 7.31136e-05 0 1.08636e-05 9.31544e-05 0 3.04397e-06 0.000102965 0 -3.87007e-06 8.02423e-05 0 -7.94663e-06 6.65172e-05 0 -9.98414e-06 5.51992e-05 0 -1.07596e-05 4.66715e-05 0 -1.08158e-05 3.97672e-05 0 -1.71882e-05 -3.88755e-05 0 -1.8732e-05 -4.61248e-05 0 -2.01189e-05 -5.52413e-05 0 -2.12365e-05 -6.75339e-05 0 -2.19093e-05 -8.28064e-05 0 -2.20257e-05 -0.000106998 0 -2.16346e-05 -9.68609e-05 0 -2.17943e-05 -7.5332e-05 0 -2.2242e-05 -5.96288e-05 0 -2.29293e-05 -4.73602e-05 0 -2.36717e-05 -3.73461e-05 0 -2.4392e-05 -2.89185e-05 0 -2.5018e-05 -2.15475e-05 0 -2.55159e-05 -1.49217e-05 0 -2.5859e-05 -8.77097e-06 0 -2.60341e-05 -2.89486e-06 0 -2.60341e-05 2.89486e-06 0 -2.5859e-05 8.77097e-06 0 -2.55159e-05 1.49217e-05 0 -2.5018e-05 2.15475e-05 0 -2.4392e-05 2.89185e-05 0 -2.36717e-05 3.73461e-05 0 -2.29293e-05 4.73602e-05 0 -2.2242e-05 5.96288e-05 0 -2.17943e-05 7.5332e-05 0 -2.16346e-05 9.68609e-05 0 -2.20257e-05 0.000106998 0 -2.19093e-05 8.28064e-05 0 -2.12365e-05 6.75339e-05 0 -2.01189e-05 5.52413e-05 0 -1.8732e-05 4.61248e-05 0 -1.71882e-05 3.88755e-05 0 -2.3615e-05 -3.65758e-05 0 -2.68404e-05 -4.36596e-05 0 -3.05367e-05 -5.25963e-05 0 -3.49556e-05 -6.45918e-05 0 -4.0521e-05 -7.9494e-05 0 -4.75406e-05 -0.000103163 0 -5.51738e-05 -9.33531e-05 0 -6.14423e-05 -7.24705e-05 0 -6.6096e-05 -5.73295e-05 0 -6.95389e-05 -4.54922e-05 0 -7.21513e-05 -3.5829e-05 0 -7.41525e-05 -2.7703e-05 0 -7.56679e-05 -2.06139e-05 0 -7.67642e-05 -1.42585e-05 0 -7.74792e-05 -8.37442e-06 0 -7.78324e-05 -2.7627e-06 0 -7.78324e-05 2.7627e-06 0 -7.74792e-05 8.37442e-06 0 -7.67642e-05 1.42585e-05 0 -7.56679e-05 2.06139e-05 0 -7.41525e-05 2.7703e-05 0 -7.21513e-05 3.5829e-05 0 -6.95389e-05 4.54922e-05 0 -6.6096e-05 5.73295e-05 0 -6.14423e-05 7.24705e-05 0 -5.51738e-05 9.33531e-05 0 -4.75406e-05 0.000103163 0 -4.0521e-05 7.9494e-05 0 -3.49556e-05 6.45918e-05 0 -3.05367e-05 5.25963e-05 0 -2.68404e-05 4.36596e-05 0 -2.3615e-05 3.65758e-05 0 -2.97051e-05 -3.28049e-05 0 -3.45048e-05 -3.93197e-05 0 -4.02596e-05 -4.73394e-05 0 -4.7541e-05 -5.78965e-05 0 -5.74867e-05 -7.02257e-05 0 -7.22495e-05 -9.11735e-05 0 -9.05349e-05 -8.234e-05 0 -0.000102935 -6.46424e-05 0 -0.000111269 -5.18234e-05 0 -0.000117092 -4.1491e-05 0 -0.000121361 -3.28325e-05 0 -0.000124529 -2.54587e-05 0 -0.000126868 -1.8966e-05 0 -0.000128528 -1.31276e-05 0 -0.000129596 -7.71095e-06 0 -0.00013012 -2.54436e-06 0 -0.00013012 2.54436e-06 0 -0.000129596 7.71095e-06 0 -0.000128528 1.31276e-05 0 -0.000126868 1.8966e-05 0 -0.000124529 2.54587e-05 0 -0.000121361 3.28325e-05 0 -0.000117092 4.1491e-05 0 -0.000111269 5.18234e-05 0 -0.000102935 6.46424e-05 0 -9.05349e-05 8.234e-05 0 -7.22495e-05 9.11735e-05 0 -5.74867e-05 7.02257e-05 0 -4.7541e-05 5.78965e-05 0 -4.02596e-05 4.73394e-05 0 -3.45048e-05 3.93197e-05 0 -2.97051e-05 3.28049e-05 0 -3.51458e-05 -2.77602e-05 0 -4.12543e-05 -3.33415e-05 0 -4.8548e-05 -4.01422e-05 0 -5.76136e-05 -4.81702e-05 0 -6.99171e-05 -5.71223e-05 0 -8.89688e-05 -6.62576e-05 0 -0.000114853 -6.29291e-05 0 -0.000130166 -5.317e-05 0 -0.000140678 -4.3962e-05 0 -0.000148001 -3.57842e-05 0 -0.000153505 -2.86232e-05 0 -0.000157578 -2.23156e-05 0 -0.000160604 -1.66889e-05 0 -0.000162742 -1.15706e-05 0 -0.000164119 -6.80521e-06 0 -0.000164791 -2.24564e-06 0 -0.000164791 2.24564e-06 0 -0.000164119 6.80521e-06 0 -0.000162742 1.15706e-05 0 -0.000160604 1.66889e-05 0 -0.000157578 2.23156e-05 0 -0.000153505 2.86232e-05 0 -0.000148001 3.57842e-05 0 -0.000140678 4.3962e-05 0 -0.000130166 5.317e-05 0 -0.000114853 6.29291e-05 0 -8.89688e-05 6.62576e-05 0 -6.99171e-05 5.71223e-05 0 -5.76136e-05 4.81702e-05 0 -4.8548e-05 4.01422e-05 0 -4.12543e-05 3.33415e-05 0 -3.51458e-05 2.77602e-05 0 -3.97895e-05 -2.14295e-05 0 -4.69243e-05 -2.62104e-05 0 -5.50747e-05 -3.16643e-05 0 -6.4786e-05 -3.74935e-05 0 -7.68038e-05 -4.30106e-05 0 -9.15627e-05 -4.64749e-05 0 -0.000106922 -4.54836e-05 0 -0.000120596 -4.08527e-05 0 -0.000131059 -3.49743e-05 0 -0.000139116 -2.90674e-05 0 -0.000145268 -2.35455e-05 0 -0.000149979 -1.85007e-05 0 -0.000153497 -1.39013e-05 0 -0.000156012 -9.66539e-06 0 -0.000157631 -5.69335e-06 0 -0.000158425 -1.88016e-06 0 -0.000158425 1.88016e-06 0 -0.000157631 5.69335e-06 0 -0.000156012 9.66539e-06 0 -0.000153497 1.39013e-05 0 -0.000149979 1.85007e-05 0 -0.000145268 2.35455e-05 0 -0.000139116 2.90674e-05 0 -0.000131059 3.49743e-05 0 -0.000120596 4.08527e-05 0 -0.000106922 4.54836e-05 0 -9.15627e-05 4.64749e-05 0 -7.68038e-05 4.30106e-05 0 -6.4786e-05 3.74935e-05 0 -5.50747e-05 3.16643e-05 0 -4.69243e-05 2.62104e-05 0 -3.97895e-05 2.14295e-05 0 -4.35803e-05 -1.4401e-05 0 -5.16364e-05 -1.82766e-05 0 -6.0129e-05 -2.27616e-05 0 -6.9602e-05 -2.70254e-05 0 -8.04937e-05 -3.04945e-05 0 -9.27354e-05 -3.23199e-05 0 -0.000105529 -3.19254e-05 0 -0.000117092 -2.94871e-05 0 -0.000126968 -2.58978e-05 0 -0.000135028 -2.19197e-05 0 -0.000141485 -1.79726e-05 0 -0.000146543 -1.42328e-05 0 -0.000150391 -1.07477e-05 0 -0.000153166 -7.49538e-06 0 -0.000154965 -4.42279e-06 0 -0.000155849 -1.46167e-06 0 -0.000155849 1.46167e-06 0 -0.000154965 4.42279e-06 0 -0.000153166 7.49538e-06 0 -0.000150391 1.07477e-05 0 -0.000146543 1.42328e-05 0 -0.000141485 1.79726e-05 0 -0.000135028 2.19197e-05 0 -0.000126968 2.58978e-05 0 -0.000117092 2.94871e-05 0 -0.000105529 3.19254e-05 0 -9.27354e-05 3.23199e-05 0 -8.04937e-05 3.04945e-05 0 -6.9602e-05 2.70254e-05 0 -6.0129e-05 2.27616e-05 0 -5.16364e-05 1.82766e-05 0 -4.35803e-05 1.4401e-05 0 -4.72025e-05 -5.43928e-06 0 -5.59434e-05 -9.96122e-06 0 -6.41784e-05 -1.40905e-05 0 -7.29296e-05 -1.73148e-05 0 -8.27141e-05 -1.95571e-05 0 -9.33247e-05 -2.06927e-05 0 -0.00010408 -2.05224e-05 0 -0.000114396 -1.92182e-05 0 -0.000123604 -1.71465e-05 0 -0.000131486 -1.47039e-05 0 -0.000138004 -1.21702e-05 0 -0.000143233 -9.70065e-06 0 -0.000147271 -7.35603e-06 0 -0.000150211 -5.14371e-06 0 -0.000152128 -3.03967e-06 0 -0.000153073 -1.0053e-06 0 -0.000153073 1.0053e-06 0 -0.000152128 3.03967e-06 0 -0.000150211 5.14371e-06 0 -0.000147271 7.35603e-06 0 -0.000143233 9.70065e-06 0 -0.000138004 1.21702e-05 0 -0.000131486 1.47039e-05 0 -0.000123604 1.71465e-05 0 -0.000114396 1.92182e-05 0 -0.00010408 2.05224e-05 0 -9.33247e-05 2.06927e-05 0 -8.27141e-05 1.95571e-05 0 -7.29296e-05 1.73148e-05 0 -6.41784e-05 1.40905e-05 0 -5.59434e-05 9.96122e-06 0 -4.72025e-05 5.43928e-06 0 -5.08265e-05 5.73336e-06 0 -6.12075e-05 -2.14677e-06 0 -6.74797e-05 -6.42114e-06 0 -7.5136e-05 -8.52983e-06 0 -8.40011e-05 -9.77609e-06 0 -9.37161e-05 -1.03388e-05 0 -0.000103658 -1.0305e-05 0 -0.000113243 -9.71972e-06 0 -0.000122021 -8.74456e-06 0 -0.00012972 -7.55484e-06 0 -0.000136222 -6.28984e-06 0 -0.000141518 -5.03382e-06 0 -0.00014565 -3.82775e-06 0 -0.000148679 -2.68107e-06 0 -0.000150663 -1.586e-06 0 -0.000151644 -5.24743e-07 0 -0.000151644 5.24743e-07 0 -0.000150663 1.586e-06 0 -0.000148679 2.68107e-06 0 -0.00014565 3.82775e-06 0 -0.000141518 5.03382e-06 0 -0.000136222 6.28984e-06 0 -0.00012972 7.55484e-06 0 -0.000122021 8.74456e-06 0 -0.000113243 9.71972e-06 0 -0.000103658 1.0305e-05 0 -9.37161e-05 1.03388e-05 0 -8.40011e-05 9.77609e-06 0 -7.5136e-05 8.52983e-06 0 -6.74797e-05 6.42114e-06 0 -6.12075e-05 2.14677e-06 0 -5.08265e-05 -5.73336e-06 0 -7.70868e-05 2.4278e-05 0 -6.65046e-05 -1.33912e-06 0 -6.97648e-05 -6.34408e-08 0 -7.5684e-05 -6.18691e-07 0 -8.4675e-05 -5.88233e-07 0 -9.37494e-05 -6.56184e-07 0 -0.000103563 -6.51039e-07 0 -0.000112799 -6.08606e-07 0 -0.000121467 -5.51524e-07 0 -0.000129066 -4.70844e-07 0 -0.000135566 -3.93231e-07 0 -0.000140872 -3.11807e-07 0 -0.000145038 -2.37324e-07 0 -0.000148096 -1.65195e-07 0 -0.000150103 -9.78767e-08 0 -0.000151096 -3.21664e-08 0 -0.000151096 3.21664e-08 0 -0.000150103 9.78767e-08 0 -0.000148096 1.65195e-07 0 -0.000145038 2.37324e-07 0 -0.000140872 3.11807e-07 0 -0.000135566 3.93231e-07 0 -0.000129066 4.70844e-07 0 -0.000121467 5.51524e-07 0 -0.000112799 6.08606e-07 0 -0.000103563 6.51039e-07 0 -9.37494e-05 6.56184e-07 0 -8.4675e-05 5.88233e-07 0 -7.5684e-05 6.18691e-07 0 -6.97648e-05 6.34408e-08 0 -6.65046e-05 1.33912e-06 0 -7.70868e-05 -2.4278e-05 0 </DataArray> 
</PointData> 
<Points> 
<DataArray type="Float32" NumberOfComponents="3"> 