<?xml version="1.0"?> 
<VTKFile type="StructuredGrid" version="0.1"> 
<StructuredGrid WholeExtent="0 31 0 31 0 0"> 
<Piece Extent="0 31 0 31 0 0"> 
<PointData>
<DataArray type="Float32" Name="B" format="ascii" NumberOfComponents="3"> 
9.89985e-05 5.15549e-05 0 2.37728e-05 1.55557e-05 0 1.6383e-05 7.3795e-06 0 1.68719e-05 3.08488e-06 0 1.34104e-05 6.8384e-07 0 1.28804e-05 -8.18798e-07 0 1.11819e-05 -1.7409e-06 0 1.03864e-05 -2.30173e-06 0 9.32445e-06 -2.62116e-06 0 8.56172e-06 -2.77822e-06 0 7.77402e-06 -2.82704e-06 0 7.10626e-06 -2.80332e-06 0 6.46911e-06 -2.73281e-06 0 5.89581e-06 -2.63295e-06 0 5.36056e-06 -2.51626e-06 0 4.86856e-06 -2.39136e-06 0 4.41093e-06 -2.26431e-06 0 3.98643e-06 -2.13928e-06 0 3.59077e-06 -2.01911e-06 0 3.22155e-06 -1.90571e-06 0 2.87584e-06 -1.80031e-06 0 2.55124e-06 -1.70366e-06 0 2.24536e-06 -1.6162e-06 0 1.95599e-06 -1.53814e-06 0 1.68102e-06 -1.46955e-06 0 1.41845e-06 -1.4104e-06 0 1.16636e-06 -1.3606e-06 0 9.22887e-07 -1.32006e-06 0 6.86249e-07 -1.28866e-06 0 4.54693e-07 -1.26631e-06 0 2.26507e-07 -1.25293e-06 0 0 -1.24848e-06 0 -1.0996e-05 4.58958e-05 0 1.71541e-05 1.71134e-05 0 1.68139e-05 8.04798e-06 0 1.44047e-05 3.69165e-06 0 1.3535e-05 1.15353e-06 0 1.20721e-05 -4.10688e-07 0 1.11506e-05 -1.38617e-06 0 1.01264e-05 -1.98744e-06 0 9.30187e-06 -2.33741e-06 0 8.4959e-06 -2.52143e-06 0 7.78316e-06 -2.59173e-06 0 7.11247e-06 -2.58755e-06 0 6.49941e-06 -2.53372e-06 0 5.9282e-06 -2.4491e-06 0 5.39996e-06 -2.34592e-06 0 4.90843e-06 -2.23335e-06 0 4.45156e-06 -2.11741e-06 0 4.02572e-06 -2.00248e-06 0 3.62838e-06 -1.89143e-06 0 3.25675e-06 -1.78627e-06 0 2.90839e-06 -1.68825e-06 0 2.5809e-06 -1.5982e-06 0 2.27204e-06 -1.5166e-06 0 1.97963e-06 -1.44369e-06 0 1.70162e-06 -1.37956e-06 0 1.43602e-06 -1.32422e-06 0 1.18093e-06 -1.27761e-06 0 9.34492e-07 -1.23964e-06 0 6.94919e-07 -1.21023e-06 0 4.60457e-07 -1.18929e-06 0 2.29384e-07 -1.17676e-06 0 0 -1.17258e-06 0 -5.14289e-07 2.91303e-05 0 1.33088e-05 1.66633e-05 0 1.4233e-05 8.33741e-06 0 1.3703e-05 4.09358e-06 0 1.26665e-05 1.52219e-06 0 1.17689e-05 -6.62458e-08 0 1.08333e-05 -1.07334e-06 0 9.99952e-06 -1.6995e-06 0 9.19717e-06 -2.07273e-06 0 8.46075e-06 -2.27647e-06 0 7.76688e-06 -2.36499e-06 0 7.12272e-06 -2.37697e-06 0 6.5199e-06 -2.33816e-06 0 5.95837e-06 -2.26717e-06 0 5.43405e-06 -2.17665e-06 0 4.94505e-06 -2.07566e-06 0 4.48847e-06 -1.97041e-06 0 4.06198e-06 -1.86523e-06 0 3.66307e-06 -1.7631e-06 0 3.28939e-06 -1.66602e-06 0 2.93861e-06 -1.57531e-06 0 2.6085e-06 -1.49181e-06 0 2.29689e-06 -1.41603e-06 0 2.00167e-06 -1.34825e-06 0 1.72084e-06 -1.28859e-06 0 1.45242e-06 -1.23707e-06 0 1.19454e-06 -1.19365e-06 0 9.45334e-07 -1.15828e-06 0 7.03022e-07 -1.13086e-06 0 4.65844e-07 -1.11134e-06 0 2.32073e-07 -1.09966e-06 0 0 -1.09576e-06 0 -1.07783e-06 2.04833e-05 0 1.00793e-05 1.5037e-05 0 1.25003e-05 8.28661e-06 0 1.2593e-05 4.29607e-06 0 1.2034e-05 1.79328e-06 0 1.13335e-05 2.12417e-07 0 1.05769e-05 -8.01264e-07 0 9.83117e-06 -1.43946e-06 0 9.10486e-06 -1.82654e-06 0 8.41073e-06 -2.04417e-06 0 7.75025e-06 -2.14661e-06 0 7.12578e-06 -2.17197e-06 0 6.5371e-06 -2.14609e-06 0 5.98376e-06 -2.08739e-06 0 5.46453e-06 -2.00851e-06 0 4.97791e-06 -1.91844e-06 0 4.5221e-06 -1.82337e-06 0 4.09514e-06 -1.72764e-06 0 3.69497e-06 -1.6342e-06 0 3.31948e-06 -1.54506e-06 0 2.96654e-06 -1.46156e-06 0 2.63404e-06 -1.38456e-06 0 2.31991e-06 -1.31458e-06 0 2.02212e-06 -1.25192e-06 0 1.73868e-06 -1.19671e-06 0 1.46766e-06 -1.14901e-06 0 1.20718e-06 -1.1088e-06 0 9.55411e-07 -1.07602e-06 0 7.10555e-07 -1.05062e-06 0 4.70854e-07 -1.03252e-06 0 2.34574e-07 -1.02169e-06 0 0 -1.01808e-06 0 -4.0627e-07 1.67571e-05 0 7.87717e-06 1.30901e-05 0 1.09173e-05 7.95445e-06 0 1.15827e-05 4.32956e-06 0 1.13925e-05 1.96762e-06 0 1.09169e-05 4.28556e-07 0 1.03114e-05 -5.7014e-07 0 9.66483e-06 -1.20679e-06 0 9.00658e-06 -1.59905e-06 0 8.35823e-06 -1.8244e-06 0 7.72891e-06 -1.93674e-06 0 7.12522e-06 -1.97254e-06 0 6.55018e-06 -1.95764e-06 0 6.00545e-06 -1.90979e-06 0 5.49134e-06 -1.84159e-06 0 5.00738e-06 -1.76175e-06 0 4.55252e-06 -1.6764e-06 0 4.12533e-06 -1.58978e-06 0 3.72413e-06 -1.50481e-06 0 3.34706e-06 -1.42347e-06 0 2.99219e-06 -1.34709e-06 0 2.65754e-06 -1.27652e-06 0 2.34113e-06 -1.21231e-06 0 2.04097e-06 -1.15475e-06 0 1.75514e-06 -1.104e-06 0 1.48172e-06 -1.06013e-06 0 1.21886e-06 -1.02313e-06 0 9.64721e-07 -9.92952e-07 0 7.17516e-07 -9.69559e-07 0 4.75483e-07 -9.52895e-07 0 2.36885e-07 -9.42915e-07 0 0 -9.39592e-07 0 -3.86504e-07 1.34236e-05 0 6.33912e-06 1.13547e-05 0 9.58526e-06 7.39679e-06 0 1.06497e-05 4.23351e-06 0 1.0784e-05 2.04945e-06 0 1.05116e-05 5.86134e-07 0 1.00512e-05 -3.7843e-07 0 9.49911e-06 -1.00123e-06 0 8.90738e-06 -1.38957e-06 0 8.30345e-06 -1.61722e-06 0 7.70476e-06 -1.73514e-06 0 7.12142e-06 -1.77875e-06 0 6.55989e-06 -1.77275e-06 0 6.02373e-06 -1.73445e-06 0 5.51479e-06 -1.67592e-06 0 5.0336e-06 -1.60566e-06 0 4.57986e-06 -1.52955e-06 0 4.15264e-06 -1.45173e-06 0 3.75061e-06 -1.37501e-06 0 3.37218e-06 -1.30132e-06 0 3.0156e-06 -1.23197e-06 0 2.67902e-06 -1.16778e-06 0 2.36053e-06 -1.1093e-06 0 2.05823e-06 -1.05682e-06 0 1.77022e-06 -1.01053e-06 0 1.49462e-06 -9.70482e-07 0 1.22957e-06 -9.3669e-07 0 9.7326e-07 -9.09128e-07 0 7.23902e-07 -8.87754e-07 0 4.79731e-07 -8.72525e-07 0 2.39006e-07 -8.63404e-07 0 0 -8.60367e-07 0 -2.72952e-07 1.12984e-05 0 5.25841e-06 9.75362e-06 0 8.47184e-06 6.73244e-06 0 9.82088e-06 4.02569e-06 0 1.02133e-05 2.052e-06 0 1.01286e-05 6.8908e-07 0 9.79936e-06 -2.24344e-07 0 9.33826e-06 -8.21259e-07 0 8.80907e-06 -1.19782e-06 0 8.2482e-06 -1.42201e-06 0 7.67878e-06 -1.54172e-06 0 7.11522e-06 -1.59036e-06 0 6.56675e-06 -1.59142e-06 0 6.03898e-06 -1.5613e-06 0 5.53514e-06 -1.51154e-06 0 5.05678e-06 -1.45019e-06 0 4.60425e-06 -1.38289e-06 0 4.17714e-06 -1.31354e-06 0 3.77446e-06 -1.24486e-06 0 3.39487e-06 -1.17869e-06 0 3.03679e-06 -1.11627e-06 0 2.69848e-06 -1.0584e-06 0 2.37814e-06 -1.00562e-06 0 2.07391e-06 -9.58212e-07 0 1.78392e-06 -9.16361e-07 0 1.50633e-06 -8.80139e-07 0 1.23931e-06 -8.49563e-07 0 9.81027e-07 -8.24616e-07 0 7.29711e-07 -8.05266e-07 0 4.83596e-07 -7.91477e-07 0 2.40936e-07 -7.83217e-07 0 0 -7.80467e-07 0 -2.18651e-07 9.36998e-06 0 4.47811e-06 8.3455e-06 0 7.5627e-06 6.00776e-06 0 9.09434e-06 3.73525e-06 0 9.69275e-06 1.9858e-06 0 9.77203e-06 7.42643e-07 0 9.56162e-06 -1.05044e-07 0 9.18477e-06 -6.65534e-07 0 8.71414e-06 -1.02275e-06 0 8.19381e-06 -1.23829e-06 0 7.6521e-06 -1.35608e-06 0 7.1073e-06 -1.4072e-06 0 6.57128e-06 -1.41349e-06 0 6.05155e-06 -1.39031e-06 0 5.55266e-06 -1.34842e-06 0 5.07707e-06 -1.29537e-06 0 4.62581e-06 -1.23643e-06 0 4.19892e-06 -1.17528e-06 0 3.79574e-06 -1.11443e-06 0 3.41517e-06 -1.05564e-06 0 3.05578e-06 -1.00006e-06 0 2.71595e-06 -9.48459e-07 0 2.39396e-06 -9.01335e-07 0 2.088e-06 -8.58982e-07 0 1.79625e-06 -8.21567e-07 0 1.51688e-06 -7.89168e-07 0 1.24807e-06 -7.6181e-07 0 9.88021e-07 -7.39482e-07 0 7.34944e-07 -7.2216e-07 0 4.87077e-07 -7.09814e-07 0 2.42674e-07 -7.02419e-07 0 0 -6.99956e-07 0 -1.89684e-07 7.85372e-06 0 3.90318e-06 7.07226e-06 0 6.8286e-06 5.26596e-06 0 8.46881e-06 3.38241e-06 0 9.22783e-06 1.86275e-06 0 9.44659e-06 7.52418e-07 0 9.3419e-06 -1.74375e-08 0 9.0414e-06 -5.32123e-07 0 8.6246e-06 -8.63266e-07 0 8.14169e-06 -1.06529e-06 0 7.62571e-06 -1.17777e-06 0 7.09836e-06 -1.22895e-06 0 6.57397e-06 -1.23879e-06 0 6.06179e-06 -1.22135e-06 0 5.56757e-06 -1.18651e-06 0 5.09465e-06 -1.14119e-06 0 4.64466e-06 -1.09022e-06 0 4.21806e-06 -1.03697e-06 0 3.81451e-06 -9.83773e-07 0 3.43311e-06 -9.32225e-07 0 3.07259e-06 -8.83402e-07 0 2.73144e-06 -8.38015e-07 0 2.40799e-06 -7.96522e-07 0 2.10051e-06 -7.59202e-07 0 1.8072e-06 -7.26215e-07 0 1.52625e-06 -6.97637e-07 0 1.25587e-06 -6.73497e-07 0 9.9424e-07 -6.53792e-07 0 7.39597e-07 -6.38501e-07 0 4.90173e-07 -6.27602e-07 0 2.4422e-07 -6.21072e-07 0 0 -6.18897e-07 0 -1.57979e-07 6.48614e-06 0 3.47436e-06 5.92408e-06 0 6.2404e-06 4.52373e-06 0 7.94055e-06 2.98606e-06 0 8.8212e-06 1.69311e-06 0 9.15638e-06 7.24333e-07 0 9.14337e-06 4.19818e-08 0 8.91072e-06 -4.18934e-07 0 8.5422e-06 -7.17968e-07 0 8.09314e-06 -9.0212e-07 0 7.6005e-06 -1.00618e-06 0 7.08904e-06 -1.05523e-06 0 6.57527e-06 -1.06708e-06 0 6.07e-06 -1.05431e-06 0 5.5801e-06 -1.02575e-06 0 5.10967e-06 -9.87615e-07 0 4.6609e-06 -9.4424e-07 0 4.23464e-06 -8.98645e-07 0 3.83082e-06 -8.52922e-07 0 3.44873e-06 -8.08505e-07 0 3.08725e-06 -7.66362e-07 0 2.74495e-06 -7.27137e-07 0 2.42025e-06 -6.91245e-07 0 2.11145e-06 -6.58941e-07 0 1.81678e-06 -6.30372e-07 0 1.53445e-06 -6.05613e-07 0 1.26269e-06 -5.84692e-07 0 9.99684e-07 -5.67611e-07 0 7.43671e-07 -5.54354e-07 0 4.92884e-07 -5.44904e-07 0 2.45574e-07 -5.39242e-07 0 0 -5.37356e-07 0 -1.44288e-07 5.29585e-06 0 3.15167e-06 4.86925e-06 0 5.77537e-06 3.79277e-06 0 7.50279e-06 2.55943e-06 0 8.47447e-06 1.48644e-06 0 8.90403e-06 6.64235e-07 0 8.96887e-06 7.68703e-08 0 8.7948e-06 -3.23585e-07 0 8.46859e-06 -5.85314e-07 0 8.04931e-06 -7.47748e-07 0 7.5773e-06 -8.40634e-07 0 7.07992e-06 -8.85593e-07 0 6.57559e-06 -8.98069e-07 0 6.07648e-06 -8.88985e-07 0 5.59044e-06 -8.66033e-07 0 5.12227e-06 -8.34613e-07 0 4.67462e-06 -7.98501e-07 0 4.24871e-06 -7.6033e-07 0 3.84471e-06 -7.21922e-07 0 3.46206e-06 -6.84528e-07 0 3.09978e-06 -6.48995e-07 0 2.75651e-06 -6.15887e-07 0 2.43075e-06 -5.85568e-07 0 2.12081e-06 -5.58263e-07 0 1.82498e-06 -5.34105e-07 0 1.54148e-06 -5.13162e-07 0 1.26853e-06 -4.95461e-07 0 1.00435e-06 -4.81005e-07 0 7.47163e-07 -4.69785e-07 0 4.95209e-07 -4.61785e-07 0 2.46735e-07 -4.56992e-07 0 0 -4.55396e-07 0 -1.28431e-07 4.20256e-06 0 2.91035e-06 3.8911e-06 0 5.41325e-06 3.07619e-06 0 7.14971e-06 2.11278e-06 0 8.18733e-06 1.25088e-06 0 8.69173e-06 5.77795e-07 0 8.82047e-06 9.10167e-08 0 8.69554e-06 -2.43555e-07 0 8.40511e-06 -4.63589e-07 0 8.0112e-06 -6.01022e-07 0 7.55683e-06 -6.80345e-07 0 7.07151e-06 -7.19518e-07 0 6.57528e-06 -7.31419e-07 0 6.08148e-06 -7.2518e-07 0 5.59878e-06 -7.0724e-07 0 5.13257e-06 -6.82119e-07 0 4.68593e-06 -6.52982e-07 0 4.26035e-06 -6.22035e-07 0 3.85621e-06 -5.90805e-07 0 3.47313e-06 -5.60342e-07 0 3.11018e-06 -5.31358e-07 0 2.76613e-06 -5.04326e-07 0 2.43948e-06 -4.79555e-07 0 2.12861e-06 -4.57236e-07 0 1.83182e-06 -4.37481e-07 0 1.54734e-06 -4.2035e-07 0 1.2734e-06 -4.05868e-07 0 1.00824e-06 -3.9404e-07 0 7.50075e-07 -3.84857e-07 0 4.97147e-07 -3.7831e-07 0 2.47703e-07 -3.74387e-07 0 0 -3.7308e-07 0 -1.20551e-07 3.19586e-06 0 2.73287e-06 2.97032e-06 0 5.1397e-06 2.37464e-06 0 6.87495e-06 1.6531e-06 0 7.95932e-06 9.93488e-07 0 8.52073e-06 4.70385e-07 0 8.69992e-06 8.82369e-08 0 8.61438e-06 -1.7618e-07 0 8.35295e-06 -3.50964e-07 0 7.97968e-06 -4.60684e-07 0 7.5397e-06 -5.24466e-07 0 7.06425e-06 -5.56435e-07 0 6.57465e-06 -5.66757e-07 0 6.08521e-06 -5.62656e-07 0 5.60526e-06 -5.49231e-07 0 5.14068e-06 -5.30062e-07 0 4.69488e-06 -5.07658e-07 0 4.2696e-06 -4.83766e-07 0 3.86538e-06 -4.59599e-07 0 3.48195e-06 -4.35989e-07 0 3.11849e-06 -4.13501e-07 0 2.77381e-06 -3.92513e-07 0 2.44646e-06 -3.73269e-07 0 2.13485e-06 -3.55923e-07 0 1.83728e-06 -3.40565e-07 0 1.55202e-06 -3.27244e-07 0 1.2773e-06 -3.15981e-07 0 1.01135e-06 -3.0678e-07 0 7.52405e-07 -2.99637e-07 0 4.98698e-07 -2.94544e-07 0 2.48478e-07 -2.91492e-07 0 0 -2.90475e-07 0 -1.1321e-07 2.2439e-06 0 2.60817e-06 2.09259e-06 0 4.94333e-06 1.68608e-06 0 6.67361e-06 1.18535e-06 0 7.78941e-06 7.20229e-07 0 8.39194e-06 3.4707e-07 0 8.60847e-06 7.23458e-08 0 8.55252e-06 -1.18722e-07 0 8.31301e-06 -2.45508e-07 0 7.95543e-06 -3.25399e-07 0 7.5264e-06 -3.72081e-07 0 7.05848e-06 -3.95726e-07 0 6.57396e-06 -4.03675e-07 0 6.08785e-06 -4.01152e-07 0 5.61002e-06 -3.91848e-07 0 5.14668e-06 -3.78357e-07 0 4.70154e-06 -3.62493e-07 0 4.27649e-06 -3.45524e-07 0 3.87222e-06 -3.28328e-07 0 3.48855e-06 -3.11509e-07 0 3.12471e-06 -2.95476e-07 0 2.77956e-06 -2.80504e-07 0 2.45169e-06 -2.66771e-07 0 2.13952e-06 -2.54388e-07 0 1.84138e-06 -2.43422e-07 0 1.55553e-06 -2.33909e-07 0 1.28023e-06 -2.25864e-07 0 1.01369e-06 -2.19292e-07 0 7.54153e-07 -2.14189e-07 0 4.99861e-07 -2.1055e-07 0 2.49059e-07 -2.0837e-07 0 0 -2.07643e-07 0 -1.09521e-07 1.33183e-06 0 2.52867e-06 1.2441e-06 0 4.81655e-06 1.00752e-06 0 6.54159e-06 7.12839e-07 0 7.67676e-06 4.36253e-07 0 8.30585e-06 2.12625e-07 0 8.54703e-06 4.71263e-08 0 8.51081e-06 -6.83782e-08 0 8.28601e-06 -1.45223e-07 0 7.93897e-06 -1.93766e-07 0 7.51733e-06 -2.22227e-07 0 7.05449e-06 -2.36739e-07 0 6.57339e-06 -2.41741e-07 0 6.08954e-06 -2.40391e-07 0 5.61313e-06 -2.34923e-07 0 5.15065e-06 -2.26909e-07 0 4.70595e-06 -2.17447e-07 0 4.28107e-06 -2.07305e-07 0 3.87678e-06 -1.97014e-07 0 3.49294e-06 -1.8694e-07 0 3.12886e-06 -1.77333e-07 0 2.7834e-06 -1.68358e-07 0 2.45518e-06 -1.60123e-07 0 2.14264e-06 -1.52696e-07 0 1.84411e-06 -1.46118e-07 0 1.55787e-06 -1.40411e-07 0 1.28217e-06 -1.35584e-07 0 1.01524e-06 -1.3164e-07 0 7.55318e-07 -1.28579e-07 0 5.00637e-07 -1.26395e-07 0 2.49446e-07 -1.25086e-07 0 0 -1.24651e-07 0 -1.07368e-07 4.41403e-07 0 2.48999e-06 4.12829e-07 0 4.75433e-06 3.35137e-07 0 6.47628e-06 2.37866e-07 0 7.62062e-06 1.46091e-07 0 8.26274e-06 7.16008e-08 0 8.51617e-06 1.63276e-08 0 8.48981e-06 -2.23164e-08 0 8.27239e-06 -4.80599e-08 0 7.93065e-06 -6.43421e-08 0 7.51273e-06 -7.39046e-08 0 7.05244e-06 -7.87966e-08 0 6.57307e-06 -8.05024e-08 0 6.09036e-06 -8.00799e-08 0 5.61467e-06 -7.82767e-08 0 5.15262e-06 -7.56187e-08 0 4.70815e-06 -7.24741e-08 0 4.28336e-06 -6.90998e-08 0 3.87905e-06 -6.56741e-08 0 3.49513e-06 -6.23193e-08 0 3.13092e-06 -5.91189e-08 0 2.78531e-06 -5.61284e-08 0 2.45692e-06 -5.33842e-08 0 2.14419e-06 -5.09091e-08 0 1.84548e-06 -4.87167e-08 0 1.55905e-06 -4.68144e-08 0 1.28315e-06 -4.52056e-08 0 1.01602e-06 -4.3891e-08 0 7.55901e-07 -4.28704e-08 0 5.01025e-07 -4.21425e-08 0 2.4964e-07 -4.17063e-08 0 0 -4.1561e-08 0 -1.07368e-07 -4.41403e-07 0 2.48999e-06 -4.12829e-07 0 4.75433e-06 -3.35137e-07 0 6.47628e-06 -2.37866e-07 0 7.62062e-06 -1.46091e-07 0 8.26274e-06 -7.16008e-08 0 8.51617e-06 -1.63276e-08 0 8.48981e-06 2.23164e-08 0 8.27239e-06 4.80599e-08 0 7.93065e-06 6.43421e-08 0 7.51273e-06 7.39046e-08 0 7.05244e-06 7.87966e-08 0 6.57307e-06 8.05024e-08 0 6.09036e-06 8.00799e-08 0 5.61467e-06 7.82767e-08 0 5.15262e-06 7.56187e-08 0 4.70815e-06 7.24741e-08 0 4.28336e-06 6.90998e-08 0 3.87905e-06 6.56741e-08 0 3.49513e-06 6.23193e-08 0 3.13092e-06 5.91189e-08 0 2.78531e-06 5.61284e-08 0 2.45692e-06 5.33842e-08 0 2.14419e-06 5.09091e-08 0 1.84548e-06 4.87167e-08 0 1.55905e-06 4.68144e-08 0 1.28315e-06 4.52056e-08 0 1.01602e-06 4.3891e-08 0 7.55901e-07 4.28704e-08 0 5.01025e-07 4.21425e-08 0 2.4964e-07 4.17063e-08 0 0 4.1561e-08 0 -1.09521e-07 -1.33183e-06 0 2.52867e-06 -1.2441e-06 0 4.81655e-06 -1.00752e-06 0 6.54159e-06 -7.12839e-07 0 7.67676e-06 -4.36253e-07 0 8.30585e-06 -2.12625e-07 0 8.54703e-06 -4.71263e-08 0 8.51081e-06 6.83782e-08 0 8.28601e-06 1.45223e-07 0 7.93897e-06 1.93766e-07 0 7.51733e-06 2.22227e-07 0 7.05449e-06 2.36739e-07 0 6.57339e-06 2.41741e-07 0 6.08954e-06 2.40391e-07 0 5.61313e-06 2.34923e-07 0 5.15065e-06 2.26909e-07 0 4.70595e-06 2.17447e-07 0 4.28107e-06 2.07305e-07 0 3.87678e-06 1.97014e-07 0 3.49294e-06 1.8694e-07 0 3.12886e-06 1.77333e-07 0 2.7834e-06 1.68358e-07 0 2.45518e-06 1.60123e-07 0 2.14264e-06 1.52696e-07 0 1.84411e-06 1.46118e-07 0 1.55787e-06 1.40411e-07 0 1.28217e-06 1.35584e-07 0 1.01524e-06 1.3164e-07 0 7.55318e-07 1.28579e-07 0 5.00637e-07 1.26395e-07 0 2.49446e-07 1.25086e-07 0 0 1.24651e-07 0 -1.1321e-07 -2.2439e-06 0 2.60817e-06 -2.09259e-06 0 4.94333e-06 -1.68608e-06 0 6.67361e-06 -1.18535e-06 0 7.78941e-06 -7.20229e-07 0 8.39194e-06 -3.4707e-07 0 8.60847e-06 -7.23458e-08 0 8.55252e-06 1.18722e-07 0 8.31301e-06 2.45508e-07 0 7.95543e-06 3.25399e-07 0 7.5264e-06 3.72081e-07 0 7.05848e-06 3.95726e-07 0 6.57396e-06 4.03675e-07 0 6.08785e-06 4.01152e-07 0 5.61002e-06 3.91848e-07 0 5.14668e-06 3.78357e-07 0 4.70154e-06 3.62493e-07 0 4.27649e-06 3.45524e-07 0 3.87222e-06 3.28328e-07 0 3.48855e-06 3.11509e-07 0 3.12471e-06 2.95476e-07 0 2.77956e-06 2.80504e-07 0 2.45169e-06 2.66771e-07 0 2.13952e-06 2.54388e-07 0 1.84138e-06 2.43422e-07 0 1.55553e-06 2.33909e-07 0 1.28023e-06 2.25864e-07 0 1.01369e-06 2.19292e-07 0 7.54153e-07 2.14189e-07 0 4.99861e-07 2.1055e-07 0 2.49059e-07 2.0837e-07 0 0 2.07643e-07 0 -1.20551e-07 -3.19586e-06 0 2.73287e-06 -2.97032e-06 0 5.1397e-06 -2.37464e-06 0 6.87495e-06 -1.6531e-06 0 7.95932e-06 -9.93488e-07 0 8.52073e-06 -4.70385e-07 0 8.69992e-06 -8.82369e-08 0 8.61438e-06 1.7618e-07 0 8.35295e-06 3.50964e-07 0 7.97968e-06 4.60684e-07 0 7.5397e-06 5.24466e-07 0 7.06425e-06 5.56435e-07 0 6.57465e-06 5.66757e-07 0 6.08521e-06 5.62656e-07 0 5.60526e-06 5.49231e-07 0 5.14068e-06 5.30062e-07 0 4.69488e-06 5.07658e-07 0 4.2696e-06 4.83766e-07 0 3.86538e-06 4.59599e-07 0 3.48195e-06 4.35989e-07 0 3.11849e-06 4.13501e-07 0 2.77381e-06 3.92513e-07 0 2.44646e-06 3.73269e-07 0 2.13485e-06 3.55923e-07 0 1.83728e-06 3.40565e-07 0 1.55202e-06 3.27244e-07 0 1.2773e-06 3.15981e-07 0 1.01135e-06 3.0678e-07 0 7.52405e-07 2.99637e-07 0 4.98698e-07 2.94544e-07 0 2.48478e-07 2.91492e-07 0 0 2.90475e-07 0 -1.28431e-07 -4.20256e-06 0 2.91035e-06 -3.8911e-06 0 5.41325e-06 -3.07619e-06 0 7.14971e-06 -2.11278e-06 0 8.18733e-06 -1.25088e-06 0 8.69173e-06 -5.77795e-07 0 8.82047e-06 -9.10167e-08 0 8.69554e-06 2.43555e-07 0 8.40511e-06 4.63589e-07 0 8.0112e-06 6.01022e-07 0 7.55683e-06 6.80345e-07 0 7.07151e-06 7.19518e-07 0 6.57528e-06 7.31419e-07 0 6.08148e-06 7.2518e-07 0 5.59878e-06 7.0724e-07 0 5.13257e-06 6.82119e-07 0 4.68593e-06 6.52982e-07 0 4.26035e-06 6.22035e-07 0 3.85621e-06 5.90805e-07 0 3.47313e-06 5.60342e-07 0 3.11018e-06 5.31358e-07 0 2.76613e-06 5.04326e-07 0 2.43948e-06 4.79555e-07 0 2.12861e-06 4.57236e-07 0 1.83182e-06 4.37481e-07 0 1.54734e-06 4.2035e-07 0 1.2734e-06 4.05868e-07 0 1.00824e-06 3.9404e-07 0 7.50075e-07 3.84857e-07 0 4.97147e-07 3.7831e-07 0 2.47703e-07 3.74387e-07 0 0 3.7308e-07 0 -1.44288e-07 -5.29585e-06 0 3.15167e-06 -4.86925e-06 0 5.77537e-06 -3.79277e-06 0 7.50279e-06 -2.55943e-06 0 8.47447e-06 -1.48644e-06 0 8.90403e-06 -6.64235e-07 0 8.96887e-06 -7.68703e-08 0 8.7948e-06 3.23585e-07 0 8.46859e-06 5.85314e-07 0 8.04931e-06 7.47748e-07 0 7.5773e-06 8.40634e-07 0 7.07992e-06 8.85593e-07 0 6.57559e-06 8.98069e-07 0 6.07648e-06 8.88985e-07 0 5.59044e-06 8.66033e-07 0 5.12227e-06 8.34613e-07 0 4.67462e-06 7.98501e-07 0 4.24871e-06 7.6033e-07 0 3.84471e-06 7.21922e-07 0 3.46206e-06 6.84528e-07 0 3.09978e-06 6.48995e-07 0 2.75651e-06 6.15887e-07 0 2.43075e-06 5.85568e-07 0 2.12081e-06 5.58263e-07 0 1.82498e-06 5.34105e-07 0 1.54148e-06 5.13162e-07 0 1.26853e-06 4.95461e-07 0 1.00435e-06 4.81005e-07 0 7.47163e-07 4.69785e-07 0 4.95209e-07 4.61785e-07 0 2.46735e-07 4.56992e-07 0 0 4.55396e-07 0 -1.57979e-07 -6.48614e-06 0 3.47436e-06 -5.92408e-06 0 6.2404e-06 -4.52373e-06 0 7.94055e-06 -2.98606e-06 0 8.8212e-06 -1.69311e-06 0 9.15638e-06 -7.24333e-07 0 9.14337e-06 -4.19818e-08 0 8.91072e-06 4.18934e-07 0 8.5422e-06 7.17968e-07 0 8.09314e-06 9.0212e-07 0 7.6005e-06 1.00618e-06 0 7.08904e-06 1.05523e-06 0 6.57527e-06 1.06708e-06 0 6.07e-06 1.05431e-06 0 5.5801e-06 1.02575e-06 0 5.10967e-06 9.87615e-07 0 4.6609e-06 9.4424e-07 0 4.23464e-06 8.98645e-07 0 3.83082e-06 8.52922e-07 0 3.44873e-06 8.08505e-07 0 3.08725e-06 7.66362e-07 0 2.74495e-06 7.27137e-07 0 2.42025e-06 6.91245e-07 0 2.11145e-06 6.58941e-07 0 1.81678e-06 6.30372e-07 0 1.53445e-06 6.05613e-07 0 1.26269e-06 5.84692e-07 0 9.99684e-07 5.67611e-07 0 7.43671e-07 5.54354e-07 0 4.92884e-07 5.44904e-07 0 2.45574e-07 5.39242e-07 0 0 5.37356e-07 0 -1.89684e-07 -7.85372e-06 0 3.90318e-06 -7.07226e-06 0 6.8286e-06 -5.26596e-06 0 8.46881e-06 -3.38241e-06 0 9.22783e-06 -1.86275e-06 0 9.44659e-06 -7.52418e-07 0 9.3419e-06 1.74375e-08 0 9.0414e-06 5.32123e-07 0 8.6246e-06 8.63266e-07 0 8.14169e-06 1.06529e-06 0 7.62571e-06 1.17777e-06 0 7.09836e-06 1.22895e-06 0 6.57397e-06 1.23879e-06 0 6.06179e-06 1.22135e-06 0 5.56757e-06 1.18651e-06 0 5.09465e-06 1.14119e-06 0 4.64466e-06 1.09022e-06 0 4.21806e-06 1.03697e-06 0 3.81451e-06 9.83773e-07 0 3.43311e-06 9.32225e-07 0 3.07259e-06 8.83402e-07 0 2.73144e-06 8.38015e-07 0 2.40799e-06 7.96522e-07 0 2.10051e-06 7.59202e-07 0 1.8072e-06 7.26215e-07 0 1.52625e-06 6.97637e-07 0 1.25587e-06 6.73497e-07 0 9.9424e-07 6.53792e-07 0 7.39597e-07 6.38501e-07 0 4.90173e-07 6.27602e-07 0 2.4422e-07 6.21072e-07 0 0 6.18897e-07 0 -2.18651e-07 -9.36998e-06 0 4.47811e-06 -8.3455e-06 0 7.5627e-06 -6.00776e-06 0 9.09434e-06 -3.73525e-06 0 9.69275e-06 -1.9858e-06 0 9.77203e-06 -7.42643e-07 0 9.56162e-06 1.05044e-07 0 9.18477e-06 6.65534e-07 0 8.71414e-06 1.02275e-06 0 8.19381e-06 1.23829e-06 0 7.6521e-06 1.35608e-06 0 7.1073e-06 1.4072e-06 0 6.57128e-06 1.41349e-06 0 6.05155e-06 1.39031e-06 0 5.55266e-06 1.34842e-06 0 5.07707e-06 1.29537e-06 0 4.62581e-06 1.23643e-06 0 4.19892e-06 1.17528e-06 0 3.79574e-06 1.11443e-06 0 3.41517e-06 1.05564e-06 0 3.05578e-06 1.00006e-06 0 2.71595e-06 9.48459e-07 0 2.39396e-06 9.01335e-07 0 2.088e-06 8.58982e-07 0 1.79625e-06 8.21567e-07 0 1.51688e-06 7.89168e-07 0 1.24807e-06 7.6181e-07 0 9.88021e-07 7.39482e-07 0 7.34944e-07 7.2216e-07 0 4.87077e-07 7.09814e-07 0 2.42674e-07 7.02419e-07 0 0 6.99956e-07 0 -2.72952e-07 -1.12984e-05 0 5.25841e-06 -9.75362e-06 0 8.47184e-06 -6.73244e-06 0 9.82088e-06 -4.02569e-06 0 1.02133e-05 -2.052e-06 0 1.01286e-05 -6.8908e-07 0 9.79936e-06 2.24344e-07 0 9.33826e-06 8.21259e-07 0 8.80907e-06 1.19782e-06 0 8.2482e-06 1.42201e-06 0 7.67878e-06 1.54172e-06 0 7.11522e-06 1.59036e-06 0 6.56675e-06 1.59142e-06 0 6.03898e-06 1.5613e-06 0 5.53514e-06 1.51154e-06 0 5.05678e-06 1.45019e-06 0 4.60425e-06 1.38289e-06 0 4.17714e-06 1.31354e-06 0 3.77446e-06 1.24486e-06 0 3.39487e-06 1.17869e-06 0 3.03679e-06 1.11627e-06 0 2.69848e-06 1.0584e-06 0 2.37814e-06 1.00562e-06 0 2.07391e-06 9.58212e-07 0 1.78392e-06 9.16361e-07 0 1.50633e-06 8.80139e-07 0 1.23931e-06 8.49563e-07 0 9.81027e-07 8.24616e-07 0 7.29711e-07 8.05266e-07 0 4.83596e-07 7.91477e-07 0 2.40936e-07 7.83217e-07 0 0 7.80467e-07 0 -3.86504e-07 -1.34236e-05 0 6.33912e-06 -1.13547e-05 0 9.58526e-06 -7.39679e-06 0 1.06497e-05 -4.23351e-06 0 1.0784e-05 -2.04945e-06 0 1.05116e-05 -5.86134e-07 0 1.00512e-05 3.7843e-07 0 9.49911e-06 1.00123e-06 0 8.90738e-06 1.38957e-06 0 8.30345e-06 1.61722e-06 0 7.70476e-06 1.73514e-06 0 7.12142e-06 1.77875e-06 0 6.55989e-06 1.77275e-06 0 6.02373e-06 1.73445e-06 0 5.51479e-06 1.67592e-06 0 5.0336e-06 1.60566e-06 0 4.57986e-06 1.52955e-06 0 4.15264e-06 1.45173e-06 0 3.75061e-06 1.37501e-06 0 3.37218e-06 1.30132e-06 0 3.0156e-06 1.23197e-06 0 2.67902e-06 1.16778e-06 0 2.36053e-06 1.1093e-06 0 2.05823e-06 1.05682e-06 0 1.77022e-06 1.01053e-06 0 1.49462e-06 9.70482e-07 0 1.22957e-06 9.3669e-07 0 9.7326e-07 9.09128e-07 0 7.23902e-07 8.87754e-07 0 4.79731e-07 8.72525e-07 0 2.39006e-07 8.63404e-07 0 0 8.60367e-07 0 -4.0627e-07 -1.67571e-05 0 7.87717e-06 -1.30901e-05 0 1.09173e-05 -7.95445e-06 0 1.15827e-05 -4.32956e-06 0 1.13925e-05 -1.96762e-06 0 1.09169e-05 -4.28556e-07 0 1.03114e-05 5.7014e-07 0 9.66483e-06 1.20679e-06 0 9.00658e-06 1.59905e-06 0 8.35823e-06 1.8244e-06 0 7.72891e-06 1.93674e-06 0 7.12522e-06 1.97254e-06 0 6.55018e-06 1.95764e-06 0 6.00545e-06 1.90979e-06 0 5.49134e-06 1.84159e-06 0 5.00738e-06 1.76175e-06 0 4.55252e-06 1.6764e-06 0 4.12533e-06 1.58978e-06 0 3.72413e-06 1.50481e-06 0 3.34706e-06 1.42347e-06 0 2.99219e-06 1.34709e-06 0 2.65754e-06 1.27652e-06 0 2.34113e-06 1.21231e-06 0 2.04097e-06 1.15475e-06 0 1.75514e-06 1.104e-06 0 1.48172e-06 1.06013e-06 0 1.21886e-06 1.02313e-06 0 9.64721e-07 9.92952e-07 0 7.17516e-07 9.69559e-07 0 4.75483e-07 9.52895e-07 0 2.36885e-07 9.42915e-07 0 0 9.39592e-07 0 -1.07783e-06 -2.04833e-05 0 1.00793e-05 -1.5037e-05 0 1.25003e-05 -8.28661e-06 0 1.2593e-05 -4.29607e-06 0 1.2034e-05 -1.79328e-06 0 1.13335e-05 -2.12417e-07 0 1.05769e-05 8.01264e-07 0 9.83117e-06 1.43946e-06 0 9.10486e-06 1.82654e-06 0 8.41073e-06 2.04417e-06 0 7.75025e-06 2.14661e-06 0 7.12578e-06 2.17197e-06 0 6.5371e-06 2.14609e-06 0 5.98376e-06 2.08739e-06 0 5.46453e-06 2.00851e-06 0 4.97791e-06 1.91844e-06 0 4.5221e-06 1.82337e-06 0 4.09514e-06 1.72764e-06 0 3.69497e-06 1.6342e-06 0 3.31948e-06 1.54506e-06 0 2.96654e-06 1.46156e-06 0 2.63404e-06 1.38456e-06 0 2.31991e-06 1.31458e-06 0 2.02212e-06 1.25192e-06 0 1.73868e-06 1.19671e-06 0 1.46766e-06 1.14901e-06 0 1.20718e-06 1.1088e-06 0 9.55411e-07 1.07602e-06 0 7.10555e-07 1.05062e-06 0 4.70854e-07 1.03252e-06 0 2.34574e-07 1.02169e-06 0 0 1.01808e-06 0 -5.14289e-07 -2.91303e-05 0 1.33088e-05 -1.66633e-05 0 1.4233e-05 -8.33741e-06 0 1.3703e-05 -4.09358e-06 0 1.26665e-05 -1.52219e-06 0 1.17689e-05 6.62458e-08 0 1.08333e-05 1.07334e-06 0 9.99952e-06 1.6995e-06 0 9.19717e-06 2.07273e-06 0 8.46075e-06 2.27647e-06 0 7.76688e-06 2.36499e-06 0 7.12272e-06 2.37697e-06 0 6.5199e-06 2.33816e-06 0 5.95837e-06 2.26717e-06 0 5.43405e-06 2.17665e-06 0 4.94505e-06 2.07566e-06 0 4.48847e-06 1.97041e-06 0 4.06198e-06 1.86523e-06 0 3.66307e-06 1.7631e-06 0 3.28939e-06 1.66602e-06 0 2.93861e-06 1.57531e-06 0 2.6085e-06 1.49181e-06 0 2.29689e-06 1.41603e-06 0 2.00167e-06 1.34825e-06 0 1.72084e-06 1.28859e-06 0 1.45242e-06 1.23707e-06 0 1.19454e-06 1.19365e-06 0 9.45334e-07 1.15828e-06 0 7.03022e-07 1.13086e-06 0 4.65844e-07 1.11134e-06 0 2.32073e-07 1.09966e-06 0 0 1.09576e-06 0 -1.0996e-05 -4.58958e-05 0 1.71541e-05 -1.71134e-05 0 1.68139e-05 -8.04798e-06 0 1.44047e-05 -3.69165e-06 0 1.3535e-05 -1.15353e-06 0 1.20721e-05 4.10688e-07 0 1.11506e-05 1.38617e-06 0 1.01264e-05 1.98744e-06 0 9.30187e-06 2.33741e-06 0 8.4959e-06 2.52143e-06 0 7.78316e-06 2.59173e-06 0 7.11247e-06 2.58755e-06 0 6.49941e-06 2.53372e-06 0 5.9282e-06 2.4491e-06 0 5.39996e-06 2.34592e-06 0 4.90843e-06 2.23335e-06 0 4.45156e-06 2.11741e-06 0 4.02572e-06 2.00248e-06 0 3.62838e-06 1.89143e-06 0 3.25675e-06 1.78627e-06 0 2.90839e-06 1.68825e-06 0 2.5809e-06 1.5982e-06 0 2.27204e-06 1.5166e-06 0 1.97963e-06 1.44369e-06 0 1.70162e-06 1.37956e-06 0 1.43602e-06 1.32422e-06 0 1.18093e-06 1.27761e-06 0 9.34492e-07 1.23964e-06 0 6.94919e-07 1.21023e-06 0 4.60457e-07 1.18929e-06 0 2.29384e-07 1.17676e-06 0 0 1.17258e-06 0 9.89985e-05 -5.15549e-05 0 2.37728e-05 -1.55557e-05 0 1.6383e-05 -7.3795e-06 0 1.68719e-05 -3.08488e-06 0 1.34104e-05 -6.8384e-07 0 1.28804e-05 8.18798e-07 0 1.11819e-05 1.7409e-06 0 1.03864e-05 2.30173e-06 0 9.32445e-06 2.62116e-06 0 8.56172e-06 2.77822e-06 0 7.77402e-06 2.82704e-06 0 7.10626e-06 2.80332e-06 0 6.46911e-06 2.73281e-06 0 5.89581e-06 2.63295e-06 0 5.36056e-06 2.51626e-06 0 4.86856e-06 2.39136e-06 0 4.41093e-06 2.26431e-06 0 3.98643e-06 2.13928e-06 0 3.59077e-06 2.01911e-06 0 3.22155e-06 1.90571e-06 0 2.87584e-06 1.80031e-06 0 2.55124e-06 1.70366e-06 0 2.24536e-06 1.6162e-06 0 1.95599e-06 1.53814e-06 0 1.68102e-06 1.46955e-06 0 1.41845e-06 1.4104e-06 0 1.16636e-06 1.3606e-06 0 9.22887e-07 1.32006e-06 0 6.86249e-07 1.28866e-06 0 4.54693e-07 1.26631e-06 0 2.26507e-07 1.25293e-06 0 0 1.24848e-06 0 </DataArray> 
</PointData> 
<Points> 
<DataArray type="Float32" NumberOfComponents="3"> 