<?xml version="1.0"?> 
<VTKFile type="StructuredGrid" version="0.1"> 
<StructuredGrid WholeExtent="0 31 0 31 0 0"> 
<Piece Extent="0 31 0 31 0 0"> 
<PointData>
<DataArray type="Float32" Name="B" format="ascii" NumberOfComponents="3"> 
0 -1.54704e-06 0 -2.80597e-07 -1.55258e-06 0 -5.63279e-07 -1.56923e-06 0 -8.50146e-07 -1.59703e-06 0 -1.14332e-06 -1.6361e-06 0 -1.44499e-06 -1.68655e-06 0 -1.75736e-06 -1.74854e-06 0 -2.08275e-06 -1.82221e-06 0 -2.42355e-06 -1.90768e-06 0 -2.78224e-06 -2.005e-06 0 -3.16147e-06 -2.11412e-06 0 -3.56396e-06 -2.23482e-06 0 -3.99272e-06 -2.3666e-06 0 -4.45073e-06 -2.50859e-06 0 -4.94166e-06 -2.65934e-06 0 -5.46851e-06 -2.81658e-06 0 -6.03665e-06 -2.97694e-06 0 -6.64768e-06 -3.13534e-06 0 -7.31264e-06 -3.28463e-06 0 -8.0252e-06 -3.41411e-06 0 -8.81743e-06 -3.50912e-06 0 -9.64836e-06 -3.5477e-06 0 -1.06289e-05 -3.49992e-06 0 -1.15799e-05 -3.32038e-06 0 -1.29036e-05 -2.94618e-06 0 -1.3901e-05 -2.27819e-06 0 -1.60217e-05 -1.17261e-06 0 -1.6708e-05 6.27891e-07 0 -2.10436e-05 3.54e-06 0 -2.05504e-05 8.61799e-06 0 -2.9996e-05 1.86475e-05 0 -0.000123944 5.54144e-05 0 0 -1.45303e-06 0 -2.84176e-07 -1.45822e-06 0 -5.7045e-07 -1.47381e-06 0 -8.60934e-07 -1.49986e-06 0 -1.15777e-06 -1.53646e-06 0 -1.46312e-06 -1.58371e-06 0 -1.77924e-06 -1.64175e-06 0 -2.10841e-06 -1.71068e-06 0 -2.45301e-06 -1.7906e-06 0 -2.81552e-06 -1.88152e-06 0 -3.19849e-06 -1.98336e-06 0 -3.60464e-06 -2.09585e-06 0 -4.03676e-06 -2.21843e-06 0 -4.49787e-06 -2.35017e-06 0 -4.99102e-06 -2.48955e-06 0 -5.5197e-06 -2.63422e-06 0 -6.08714e-06 -2.78068e-06 0 -6.69782e-06 -2.92374e-06 0 -7.35451e-06 -3.05603e-06 0 -8.06482e-06 -3.16664e-06 0 -8.82805e-06 -3.24043e-06 0 -9.66285e-06 -3.25499e-06 0 -1.05525e-05 -3.17934e-06 0 -1.15564e-05 -2.96695e-06 0 -1.2592e-05 -2.55246e-06 0 -1.38669e-05 -1.83393e-06 0 -1.50457e-05 -6.60669e-07 0 -1.68619e-05 1.23178e-06 0 -1.80618e-05 4.29022e-06 0 -2.10831e-05 9.60623e-06 0 -2.20981e-05 2.03641e-05 0 6.21143e-06 5.79225e-05 0 0 -1.35785e-06 0 -2.87521e-07 -1.36269e-06 0 -5.77153e-07 -1.37724e-06 0 -8.71017e-07 -1.40152e-06 0 -1.17126e-06 -1.43564e-06 0 -1.48007e-06 -1.47967e-06 0 -1.79967e-06 -1.53374e-06 0 -2.13236e-06 -1.59792e-06 0 -2.4805e-06 -1.67229e-06 0 -2.84652e-06 -1.75683e-06 0 -3.23295e-06 -1.85142e-06 0 -3.64241e-06 -1.95575e-06 0 -4.07762e-06 -2.06924e-06 0 -4.54137e-06 -2.1909e-06 0 -5.0366e-06 -2.31917e-06 0 -5.56626e-06 -2.45164e-06 0 -6.13352e-06 -2.58477e-06 0 -6.7414e-06 -2.71332e-06 0 -7.39347e-06 -2.82979e-06 0 -8.09244e-06 -2.92319e-06 0 -8.84311e-06 -2.97822e-06 0 -9.64665e-06 -2.97215e-06 0 -1.05121e-05 -2.87376e-06 0 -1.14346e-05 -2.63565e-06 0 -1.24374e-05 -2.19186e-06 0 -1.34925e-05 -1.43997e-06 0 -1.46651e-05 -2.24029e-07 0 -1.5838e-05 1.70222e-06 0 -1.71555e-05 4.82916e-06 0 -1.80383e-05 1.00095e-05 0 -1.7289e-05 2.02751e-05 0 -3.12164e-07 3.71965e-05 0 0 -1.2616e-06 0 -2.90632e-07 -1.26609e-06 0 -5.83385e-07 -1.27958e-06 0 -8.80391e-07 -1.30209e-06 0 -1.1838e-06 -1.33372e-06 0 -1.49581e-06 -1.37452e-06 0 -1.81865e-06 -1.4246e-06 0 -2.15459e-06 -1.48403e-06 0 -2.50599e-06 -1.55285e-06 0 -2.87525e-06 -1.63102e-06 0 -3.26485e-06 -1.71839e-06 0 -3.67733e-06 -1.81463e-06 0 -4.1153e-06 -1.91913e-06 0 -4.5814e-06 -2.03088e-06 0 -5.07832e-06 -2.1483e-06 0 -5.60872e-06 -2.26897e-06 0 -6.17524e-06 -2.38935e-06 0 -6.78039e-06 -2.5042e-06 0 -7.42654e-06 -2.60604e-06 0 -8.11567e-06 -2.68398e-06 0 -8.84958e-06 -2.72262e-06 0 -9.62897e-06 -2.69957e-06 0 -1.04548e-05 -2.58326e-06 0 -1.13244e-05 -2.32716e-06 0 -1.22377e-05 -1.86479e-06 0 -1.31792e-05 -1.09602e-06 0 -1.41449e-05 1.32021e-07 0 -1.5054e-05 2.05583e-06 0 -1.58258e-05 5.11471e-06 0 -1.58624e-05 1.00252e-05 0 -1.32212e-05 1.84877e-05 0 3.89272e-07 2.64772e-05 0 0 -1.16436e-06 0 -2.93508e-07 -1.16849e-06 0 -5.89146e-07 -1.18091e-06 0 -8.89054e-07 -1.20165e-06 0 -1.19539e-06 -1.23077e-06 0 -1.51035e-06 -1.26834e-06 0 -1.83617e-06 -1.31443e-06 0 -2.17511e-06 -1.3691e-06 0 -2.5295e-06 -1.43237e-06 0 -2.90173e-06 -1.50419e-06 0 -3.29421e-06 -1.58438e-06 0 -3.70942e-06 -1.67259e-06 0 -4.14986e-06 -1.76821e-06 0 -4.618e-06 -1.87023e-06 0 -5.11632e-06 -1.97705e-06 0 -5.64716e-06 -2.08632e-06 0 -6.21269e-06 -2.19451e-06 0 -6.81479e-06 -2.29651e-06 0 -7.45491e-06 -2.38489e-06 0 -8.13377e-06 -2.44908e-06 0 -8.85126e-06 -2.47375e-06 0 -9.60561e-06 -2.43724e-06 0 -1.03936e-05 -2.30802e-06 0 -1.12076e-05 -2.04135e-06 0 -1.20376e-05 -1.57121e-06 0 -1.28585e-05 -8.02063e-07 0 -1.36376e-05 4.11372e-07 0 -1.42713e-05 2.29015e-06 0 -1.4583e-05 5.19173e-06 0 -1.38973e-05 9.67907e-06 0 -1.0368e-05 1.62245e-05 0 -6.3759e-09 2.12788e-05 0 0 -1.0662e-06 0 -2.96147e-07 -1.06998e-06 0 -5.94432e-07 -1.08133e-06 0 -8.97002e-07 -1.10028e-06 0 -1.20602e-06 -1.12689e-06 0 -1.52369e-06 -1.16121e-06 0 -1.85223e-06 -1.2033e-06 0 -2.19391e-06 -1.25321e-06 0 -2.55103e-06 -1.31094e-06 0 -2.92595e-06 -1.37642e-06 0 -3.32104e-06 -1.44947e-06 0 -3.73871e-06 -1.52973e-06 0 -4.18133e-06 -1.61658e-06 0 -4.65125e-06 -1.70902e-06 0 -5.15071e-06 -1.80553e-06 0 -5.68173e-06 -1.90377e-06 0 -6.24606e-06 -2.00034e-06 0 -6.84496e-06 -2.09028e-06 0 -7.47896e-06 -2.16642e-06 0 -8.14758e-06 -2.21846e-06 0 -8.8488e-06 -2.23167e-06 0 -9.57853e-06 -2.18495e-06 0 -1.03293e-05 -2.04805e-06 0 -1.10892e-05 -1.77756e-06 0 -1.18379e-05 -1.31071e-06 0 -1.25428e-05 -5.56481e-07 0 -1.31435e-05 6.18459e-07 0 -1.35252e-05 2.4106e-06 0 -1.34313e-05 5.10349e-06 0 -1.22267e-05 9.04776e-06 0 -8.35517e-06 1.41167e-05 0 6.88243e-08 1.71293e-05 0 0 -9.67192e-07 0 -2.98549e-07 -9.70615e-07 0 -5.99242e-07 -9.80894e-07 0 -9.04234e-07 -9.98058e-07 0 -1.21569e-06 -1.02215e-06 0 -1.53582e-06 -1.05322e-06 0 -1.86683e-06 -1.09131e-06 0 -2.21099e-06 -1.13645e-06 0 -2.57058e-06 -1.18865e-06 0 -2.94793e-06 -1.24781e-06 0 -3.34537e-06 -1.31375e-06 0 -3.76522e-06 -1.38612e-06 0 -4.20977e-06 -1.46432e-06 0 -4.68122e-06 -1.54737e-06 0 -5.18158e-06 -1.6338e-06 0 -5.7126e-06 -1.72139e-06 0 -6.27559e-06 -1.80689e-06 0 -6.87121e-06 -1.88556e-06 0 -7.49915e-06 -1.95056e-06 0 -8.15772e-06 -1.9921e-06 0 -8.84319e-06 -1.99612e-06 0 -9.54897e-06 -1.94258e-06 0 -1.02641e-05 -1.80268e-06 0 -1.09715e-05 -1.53538e-06 0 -1.16435e-05 -1.08162e-06 0 -1.22367e-05 -3.5715e-07 0 -1.26751e-05 7.58031e-07 0 -1.28235e-05 2.43179e-06 0 -1.24025e-05 4.87446e-06 0 -1.08231e-05 8.26532e-06 0 -6.93002e-06 1.21609e-05 0 2.15991e-08 1.43034e-05 0 0 -8.67428e-07 0 -3.00712e-07 -8.70493e-07 0 -6.03575e-07 -8.79698e-07 0 -9.10747e-07 -8.95066e-07 0 -1.2244e-06 -9.16633e-07 0 -1.54674e-06 -9.44441e-07 0 -1.87997e-06 -9.78527e-07 0 -2.22636e-06 -1.01891e-06 0 -2.58816e-06 -1.06558e-06 0 -2.96768e-06 -1.11844e-06 0 -3.36721e-06 -1.17732e-06 0 -3.78899e-06 -1.24187e-06 0 -4.23523e-06 -1.31151e-06 0 -4.70797e-06 -1.38533e-06 0 -5.20904e-06 -1.46193e-06 0 -5.73991e-06 -1.53923e-06 0 -6.30149e-06 -1.61417e-06 0 -6.89386e-06 -1.68232e-06 0 -7.51593e-06 -1.73727e-06 0 -8.16484e-06 -1.76984e-06 0 -8.83528e-06 -1.7669e-06 0 -9.5183e-06 -1.70966e-06 0 -1.01997e-05 -1.57131e-06 0 -1.08575e-05 -1.31362e-06 0 -1.14577e-05 -8.82286e-07 0 -1.19471e-05 -2.00753e-07 0 -1.2238e-05 8.36263e-07 0 -1.21814e-05 2.3668e-06 0 -1.14973e-05 4.53845e-06 0 -9.67126e-06 7.3977e-06 0 -5.89736e-06 1.04172e-05 0 1.56848e-08 1.18806e-05 0 0 -7.66982e-07 0 -3.02637e-07 -7.69689e-07 0 -6.0743e-07 -7.77817e-07 0 -9.16541e-07 -7.91385e-07 0 -1.23215e-06 -8.10424e-07 0 -1.55645e-06 -8.34969e-07 0 -1.89165e-06 -8.65047e-07 0 -2.24001e-06 -9.00672e-07 0 -2.60378e-06 -9.41821e-07 0 -2.98521e-06 -9.8841e-07 0 -3.38657e-06 -1.04026e-06 0 -3.81004e-06 -1.09705e-06 0 -4.25773e-06 -1.15823e-06 0 -4.73157e-06 -1.22297e-06 0 -5.23319e-06 -1.28997e-06 0 -5.7638e-06 -1.35731e-06 0 -6.32395e-06 -1.42219e-06 0 -6.91319e-06 -1.48052e-06 0 -7.52969e-06 -1.52642e-06 0 -8.16954e-06 -1.55148e-06 0 -8.82591e-06 -1.54362e-06 0 -9.48774e-06 -1.48564e-06 0 -1.01378e-05 -1.35302e-06 0 -1.07498e-05 -1.11095e-06 0 -1.12838e-05 -7.10419e-07 0 -1.16789e-05 -8.35531e-08 0 -1.18384e-05 8.5993e-07 0 -1.16064e-05 2.22985e-06 0 -1.07157e-05 4.1214e-06 0 -8.73721e-06 6.49817e-06 0 -5.13569e-06 8.83779e-06 0 1.21656e-08 9.92497e-06 0 0 -6.65936e-07 0 -3.04322e-07 -6.68283e-07 0 -6.10804e-07 -6.75331e-07 0 -9.21612e-07 -6.87097e-07 0 -1.23893e-06 -7.03604e-07 0 -1.56494e-06 -7.24881e-07 0 -1.90187e-06 -7.5095e-07 0 -2.25195e-06 -7.81818e-07 0 -2.61742e-06 -8.17458e-07 0 -3.00053e-06 -8.5779e-07 0 -3.40347e-06 -9.02647e-07 0 -3.8284e-06 -9.51731e-07 0 -4.27733e-06 -1.00455e-06 0 -4.75207e-06 -1.06035e-06 0 -5.25411e-06 -1.11796e-06 0 -5.7844e-06 -1.17566e-06 0 -6.34316e-06 -1.23092e-06 0 -6.92948e-06 -1.28007e-06 0 -7.54083e-06 -1.31786e-06 0 -8.17236e-06 -1.33671e-06 0 -8.81589e-06 -1.32583e-06 0 -9.45839e-06 -1.26981e-06 0 -1.00799e-05 -1.14675e-06 0 -1.06505e-05 -9.25692e-07 0 -1.11251e-05 -5.6347e-07 0 -1.14363e-05 -1.31036e-09 0 -1.14814e-05 8.36227e-07 0 -1.11024e-05 2.03373e-06 0 -1.00537e-05 3.64659e-06 0 -7.98717e-06 5.59169e-06 0 -4.56691e-06 7.4066e-06 0 5.84124e-09 8.19904e-06 0 0 -5.64367e-07 0 -3.05767e-07 -5.66355e-07 0 -6.13698e-07 -5.72321e-07 0 -9.25962e-07 -5.82281e-07 0 -1.24474e-06 -5.96254e-07 0 -1.57223e-06 -6.14261e-07 0 -1.91063e-06 -6.3632e-07 0 -2.26219e-06 -6.62432e-07 0 -2.62911e-06 -6.92572e-07 0 -3.01364e-06 -7.26665e-07 0 -3.41793e-06 -7.64562e-07 0 -3.84408e-06 -8.05998e-07 0 -4.29405e-06 -8.50544e-07 0 -4.76954e-06 -8.97529e-07 0 -5.27188e-06 -9.45937e-07 0 -5.80183e-06 -9.94262e-07 0 -6.3593e-06 -1.0403e-06 0 -6.94296e-06 -1.08087e-06 0 -7.54969e-06 -1.11136e-06 0 -8.1738e-06 -1.12521e-06 0 -8.8059e-06 -1.113e-06 0 -9.43128e-06 -1.06134e-06 0 -1.00276e-05 -9.51235e-07 0 -1.05616e-05 -7.55962e-07 0 -1.09841e-05 -4.38548e-07 0 -1.12226e-05 5.04501e-08 0 -1.11705e-05 7.72346e-07 0 -1.06718e-05 1.79024e-06 0 -9.50413e-06 3.13117e-06 0 -7.39269e-06 4.69394e-06 0 -4.13918e-06 6.09063e-06 0 5.48001e-09 6.6846e-06 0 0 -4.62358e-07 0 -3.06972e-07 -4.63984e-07 0 -6.16111e-07 -4.68868e-07 0 -9.29587e-07 -4.7702e-07 0 -1.24958e-06 -4.88455e-07 0 -1.5783e-06 -5.03191e-07 0 -1.91793e-06 -5.21238e-07 0 -2.27071e-06 -5.42599e-07 0 -2.63885e-06 -5.67247e-07 0 -3.02455e-06 -5.95117e-07 0 -3.42995e-06 -6.26082e-07 0 -3.85712e-06 -6.59917e-07 0 -4.30794e-06 -6.96259e-07 0 -4.78402e-06 -7.34542e-07 0 -5.28658e-06 -7.73915e-07 0 -5.81619e-06 -8.13111e-07 0 -6.3725e-06 -8.50284e-07 0 -6.95385e-06 -8.8276e-07 0 -7.55658e-06 -9.06688e-07 0 -8.1743e-06 -9.16555e-07 0 -8.79658e-06 -9.04488e-07 0 -9.40728e-06 -8.59282e-07 0 -9.98207e-06 -7.65082e-07 0 -1.0485e-05 -5.9967e-07 0 -1.08633e-05 -3.3256e-07 0 -1.10408e-05 7.63834e-08 0 -1.09086e-05 6.75304e-07 0 -1.03146e-05 1.50965e-06 0 -9.05998e-06 2.5883e-06 0 -6.92933e-06 3.81069e-06 0 -3.81921e-06 4.86821e-06 0 2.86087e-09 5.30417e-06 0 0 -3.59986e-07 0 -3.07937e-07 -3.61252e-07 0 -6.18042e-07 -3.65052e-07 0 -9.32489e-07 -3.71394e-07 0 -1.25346e-06 -3.8029e-07 0 -1.58315e-06 -3.91752e-07 0 -1.92377e-06 -4.05789e-07 0 -2.27753e-06 -4.224e-07 0 -2.64663e-06 -4.41562e-07 0 -3.03327e-06 -4.63224e-07 0 -3.43956e-06 -4.87282e-07 0 -3.86753e-06 -5.13555e-07 0 -4.31901e-06 -5.41755e-07 0 -4.79556e-06 -5.71431e-07 0 -5.29826e-06 -6.01906e-07 0 -5.82756e-06 -6.32176e-07 0 -6.38291e-06 -6.60776e-07 0 -6.96233e-06 -6.85585e-07 0 -7.56177e-06 -7.03551e-07 0 -8.17424e-06 -7.10306e-07 0 -8.78846e-06 -6.99612e-07 0 -9.38715e-06 -6.62604e-07 0 -9.94434e-06 -5.86754e-07 0 -1.04219e-05 -4.54577e-07 0 -1.07644e-05 -2.42236e-07 0 -1.0893e-05 8.12078e-08 0 -1.06974e-05 5.51799e-07 0 -1.00307e-05 1.20088e-06 0 -8.71398e-06 2.02728e-06 0 -6.57885e-06 2.94361e-06 0 -3.58407e-06 3.71696e-06 0 2.43254e-09 4.03082e-06 0 0 -2.57334e-07 0 -3.0866e-07 -2.58238e-07 0 -6.1949e-07 -2.60953e-07 0 -9.34665e-07 -2.65484e-07 0 -1.25637e-06 -2.71839e-07 0 -1.58679e-06 -2.80027e-07 0 -1.92815e-06 -2.90053e-07 0 -2.28264e-06 -3.01916e-07 0 -2.65247e-06 -3.156e-07 0 -3.0398e-06 -3.31064e-07 0 -3.44676e-06 -3.48234e-07 0 -3.87532e-06 -3.66977e-07 0 -4.3273e-06 -3.87084e-07 0 -4.80418e-06 -4.08227e-07 0 -5.30698e-06 -4.29915e-07 0 -5.83603e-06 -4.5142e-07 0 -6.39062e-06 -4.71679e-07 0 -6.96856e-06 -4.89156e-07 0 -7.56547e-06 -5.01641e-07 0 -8.17391e-06 -5.05968e-07 0 -8.78199e-06 -4.97623e-07 0 -9.3715e-06 -4.7019e-07 0 -9.91528e-06 -4.1462e-07 0 -1.03735e-05 -3.18314e-07 0 -1.0689e-05 -1.64196e-07 0 -1.07807e-05 6.96583e-08 0 -1.05382e-05 4.08181e-07 0 -9.8189e-06 8.71546e-07 0 -8.46015e-06 1.45474e-06 0 -6.32716e-06 2.09108e-06 0 -3.41884e-06 2.61883e-06 0 1.51917e-09 2.82987e-06 0 0 -1.54481e-07 0 -3.09143e-07 -1.55023e-07 0 -6.20456e-07 -1.56653e-07 0 -9.36116e-07 -1.59371e-07 0 -1.25831e-06 -1.63185e-07 0 -1.58922e-06 -1.68098e-07 0 -1.93107e-06 -1.74114e-07 0 -2.28605e-06 -1.81231e-07 0 -2.65635e-06 -1.89439e-07 0 -3.04416e-06 -1.98714e-07 0 -3.45155e-06 -2.0901e-07 0 -3.88051e-06 -2.20247e-07 0 -4.33281e-06 -2.32297e-07 0 -4.80991e-06 -2.44961e-07 0 -5.31277e-06 -2.57941e-07 0 -5.84164e-06 -2.70797e-07 0 -6.39572e-06 -2.82884e-07 0 -6.97264e-06 -2.93272e-07 0 -7.56785e-06 -3.00623e-07 0 -8.17357e-06 -3.03019e-07 0 -8.77749e-06 -2.97727e-07 0 -9.36081e-06 -2.80866e-07 0 -9.89555e-06 -2.46964e-07 0 -1.03408e-05 -1.88422e-07 0 -1.06381e-05 -9.49768e-08 0 -1.07053e-05 4.64473e-08 0 -1.04317e-05 2.50467e-07 0 -9.67838e-06 5.28288e-07 0 -8.29363e-06 8.75263e-07 0 -6.16456e-06 1.24989e-06 0 -3.31356e-06 1.55709e-06 0 1.23904e-09 1.67908e-06 0 0 -5.1507e-08 0 -3.09384e-07 -5.16879e-08 0 -6.20939e-07 -5.2231e-08 0 -9.36842e-07 -5.31373e-08 0 -1.25928e-06 -5.44086e-08 0 -1.59044e-06 -5.60463e-08 0 -1.93253e-06 -5.80515e-08 0 -2.28775e-06 -6.04237e-08 0 -2.6583e-06 -6.31596e-08 0 -3.04633e-06 -6.62508e-08 0 -3.45395e-06 -6.96817e-08 0 -3.88311e-06 -7.34258e-08 0 -4.33557e-06 -7.74399e-08 0 -4.81277e-06 -8.16576e-08 0 -5.31566e-06 -8.5979e-08 0 -5.84444e-06 -9.02563e-08 0 -6.39825e-06 -9.42741e-08 0 -6.97467e-06 -9.77204e-08 0 -7.56901e-06 -1.00147e-07 0 -8.17335e-06 -1.00912e-07 0 -8.77518e-06 -9.91007e-08 0 -9.35539e-06 -9.34131e-08 0 -9.88557e-06 -8.20191e-08 0 -1.03243e-05 -6.23786e-08 0 -1.06125e-05 -3.1068e-08 0 -1.06674e-05 1.62569e-08 0 -1.03784e-05 8.44095e-08 0 -9.60833e-06 1.76974e-07 0 -8.21121e-06 2.92133e-07 0 -6.08476e-06 4.15823e-07 0 -3.26233e-06 5.16696e-07 0 1.01737e-09 5.56546e-07 0 0 5.1507e-08 0 -3.09384e-07 5.16879e-08 0 -6.20939e-07 5.2231e-08 0 -9.36842e-07 5.31373e-08 0 -1.25928e-06 5.44086e-08 0 -1.59044e-06 5.60463e-08 0 -1.93253e-06 5.80515e-08 0 -2.28775e-06 6.04237e-08 0 -2.6583e-06 6.31596e-08 0 -3.04633e-06 6.62508e-08 0 -3.45395e-06 6.96817e-08 0 -3.88311e-06 7.34258e-08 0 -4.33557e-06 7.74399e-08 0 -4.81277e-06 8.16576e-08 0 -5.31566e-06 8.5979e-08 0 -5.84444e-06 9.02563e-08 0 -6.39825e-06 9.42741e-08 0 -6.97467e-06 9.77204e-08 0 -7.56901e-06 1.00147e-07 0 -8.17335e-06 1.00912e-07 0 -8.77518e-06 9.91007e-08 0 -9.35539e-06 9.34131e-08 0 -9.88557e-06 8.20191e-08 0 -1.03243e-05 6.23786e-08 0 -1.06125e-05 3.1068e-08 0 -1.06674e-05 -1.62569e-08 0 -1.03784e-05 -8.44095e-08 0 -9.60833e-06 -1.76974e-07 0 -8.21121e-06 -2.92133e-07 0 -6.08476e-06 -4.15823e-07 0 -3.26233e-06 -5.16696e-07 0 1.01737e-09 -5.56546e-07 0 0 1.54481e-07 0 -3.09143e-07 1.55023e-07 0 -6.20456e-07 1.56653e-07 0 -9.36116e-07 1.59371e-07 0 -1.25831e-06 1.63185e-07 0 -1.58922e-06 1.68098e-07 0 -1.93107e-06 1.74114e-07 0 -2.28605e-06 1.81231e-07 0 -2.65635e-06 1.89439e-07 0 -3.04416e-06 1.98714e-07 0 -3.45155e-06 2.0901e-07 0 -3.88051e-06 2.20247e-07 0 -4.33281e-06 2.32297e-07 0 -4.80991e-06 2.44961e-07 0 -5.31277e-06 2.57941e-07 0 -5.84164e-06 2.70797e-07 0 -6.39572e-06 2.82884e-07 0 -6.97264e-06 2.93272e-07 0 -7.56785e-06 3.00623e-07 0 -8.17357e-06 3.03019e-07 0 -8.77749e-06 2.97727e-07 0 -9.36081e-06 2.80866e-07 0 -9.89555e-06 2.46964e-07 0 -1.03408e-05 1.88422e-07 0 -1.06381e-05 9.49768e-08 0 -1.07053e-05 -4.64473e-08 0 -1.04317e-05 -2.50467e-07 0 -9.67838e-06 -5.28288e-07 0 -8.29363e-06 -8.75263e-07 0 -6.16456e-06 -1.24989e-06 0 -3.31356e-06 -1.55709e-06 0 1.23904e-09 -1.67908e-06 0 0 2.57334e-07 0 -3.0866e-07 2.58238e-07 0 -6.1949e-07 2.60953e-07 0 -9.34665e-07 2.65484e-07 0 -1.25637e-06 2.71839e-07 0 -1.58679e-06 2.80027e-07 0 -1.92815e-06 2.90053e-07 0 -2.28264e-06 3.01916e-07 0 -2.65247e-06 3.156e-07 0 -3.0398e-06 3.31064e-07 0 -3.44676e-06 3.48234e-07 0 -3.87532e-06 3.66977e-07 0 -4.3273e-06 3.87084e-07 0 -4.80418e-06 4.08227e-07 0 -5.30698e-06 4.29915e-07 0 -5.83603e-06 4.5142e-07 0 -6.39062e-06 4.71679e-07 0 -6.96856e-06 4.89156e-07 0 -7.56547e-06 5.01641e-07 0 -8.17391e-06 5.05968e-07 0 -8.78199e-06 4.97623e-07 0 -9.3715e-06 4.7019e-07 0 -9.91528e-06 4.1462e-07 0 -1.03735e-05 3.18314e-07 0 -1.0689e-05 1.64196e-07 0 -1.07807e-05 -6.96583e-08 0 -1.05382e-05 -4.08181e-07 0 -9.8189e-06 -8.71546e-07 0 -8.46015e-06 -1.45474e-06 0 -6.32716e-06 -2.09108e-06 0 -3.41884e-06 -2.61883e-06 0 1.51917e-09 -2.82987e-06 0 0 3.59986e-07 0 -3.07937e-07 3.61252e-07 0 -6.18042e-07 3.65052e-07 0 -9.32489e-07 3.71394e-07 0 -1.25346e-06 3.8029e-07 0 -1.58315e-06 3.91752e-07 0 -1.92377e-06 4.05789e-07 0 -2.27753e-06 4.224e-07 0 -2.64663e-06 4.41562e-07 0 -3.03327e-06 4.63224e-07 0 -3.43956e-06 4.87282e-07 0 -3.86753e-06 5.13555e-07 0 -4.31901e-06 5.41755e-07 0 -4.79556e-06 5.71431e-07 0 -5.29826e-06 6.01906e-07 0 -5.82756e-06 6.32176e-07 0 -6.38291e-06 6.60776e-07 0 -6.96233e-06 6.85585e-07 0 -7.56177e-06 7.03551e-07 0 -8.17424e-06 7.10306e-07 0 -8.78846e-06 6.99612e-07 0 -9.38715e-06 6.62604e-07 0 -9.94434e-06 5.86754e-07 0 -1.04219e-05 4.54577e-07 0 -1.07644e-05 2.42236e-07 0 -1.0893e-05 -8.12078e-08 0 -1.06974e-05 -5.51799e-07 0 -1.00307e-05 -1.20088e-06 0 -8.71398e-06 -2.02728e-06 0 -6.57885e-06 -2.94361e-06 0 -3.58407e-06 -3.71696e-06 0 2.43254e-09 -4.03082e-06 0 0 4.62358e-07 0 -3.06972e-07 4.63984e-07 0 -6.16111e-07 4.68868e-07 0 -9.29587e-07 4.7702e-07 0 -1.24958e-06 4.88455e-07 0 -1.5783e-06 5.03191e-07 0 -1.91793e-06 5.21238e-07 0 -2.27071e-06 5.42599e-07 0 -2.63885e-06 5.67247e-07 0 -3.02455e-06 5.95117e-07 0 -3.42995e-06 6.26082e-07 0 -3.85712e-06 6.59917e-07 0 -4.30794e-06 6.96259e-07 0 -4.78402e-06 7.34542e-07 0 -5.28658e-06 7.73915e-07 0 -5.81619e-06 8.13111e-07 0 -6.3725e-06 8.50284e-07 0 -6.95385e-06 8.8276e-07 0 -7.55658e-06 9.06688e-07 0 -8.1743e-06 9.16555e-07 0 -8.79658e-06 9.04488e-07 0 -9.40728e-06 8.59282e-07 0 -9.98207e-06 7.65082e-07 0 -1.0485e-05 5.9967e-07 0 -1.08633e-05 3.3256e-07 0 -1.10408e-05 -7.63834e-08 0 -1.09086e-05 -6.75304e-07 0 -1.03146e-05 -1.50965e-06 0 -9.05998e-06 -2.5883e-06 0 -6.92933e-06 -3.81069e-06 0 -3.81921e-06 -4.86821e-06 0 2.86087e-09 -5.30417e-06 0 0 5.64367e-07 0 -3.05767e-07 5.66355e-07 0 -6.13698e-07 5.72321e-07 0 -9.25962e-07 5.82281e-07 0 -1.24474e-06 5.96254e-07 0 -1.57223e-06 6.14261e-07 0 -1.91063e-06 6.3632e-07 0 -2.26219e-06 6.62432e-07 0 -2.62911e-06 6.92572e-07 0 -3.01364e-06 7.26665e-07 0 -3.41793e-06 7.64562e-07 0 -3.84408e-06 8.05998e-07 0 -4.29405e-06 8.50544e-07 0 -4.76954e-06 8.97529e-07 0 -5.27188e-06 9.45937e-07 0 -5.80183e-06 9.94262e-07 0 -6.3593e-06 1.0403e-06 0 -6.94296e-06 1.08087e-06 0 -7.54969e-06 1.11136e-06 0 -8.1738e-06 1.12521e-06 0 -8.8059e-06 1.113e-06 0 -9.43128e-06 1.06134e-06 0 -1.00276e-05 9.51235e-07 0 -1.05616e-05 7.55962e-07 0 -1.09841e-05 4.38548e-07 0 -1.12226e-05 -5.04501e-08 0 -1.11705e-05 -7.72346e-07 0 -1.06718e-05 -1.79024e-06 0 -9.50413e-06 -3.13117e-06 0 -7.39269e-06 -4.69394e-06 0 -4.13918e-06 -6.09063e-06 0 5.48001e-09 -6.6846e-06 0 0 6.65936e-07 0 -3.04322e-07 6.68283e-07 0 -6.10804e-07 6.75331e-07 0 -9.21612e-07 6.87097e-07 0 -1.23893e-06 7.03604e-07 0 -1.56494e-06 7.24881e-07 0 -1.90187e-06 7.5095e-07 0 -2.25195e-06 7.81818e-07 0 -2.61742e-06 8.17458e-07 0 -3.00053e-06 8.5779e-07 0 -3.40347e-06 9.02647e-07 0 -3.8284e-06 9.51731e-07 0 -4.27733e-06 1.00455e-06 0 -4.75207e-06 1.06035e-06 0 -5.25411e-06 1.11796e-06 0 -5.7844e-06 1.17566e-06 0 -6.34316e-06 1.23092e-06 0 -6.92948e-06 1.28007e-06 0 -7.54083e-06 1.31786e-06 0 -8.17236e-06 1.33671e-06 0 -8.81589e-06 1.32583e-06 0 -9.45839e-06 1.26981e-06 0 -1.00799e-05 1.14675e-06 0 -1.06505e-05 9.25692e-07 0 -1.11251e-05 5.6347e-07 0 -1.14363e-05 1.31036e-09 0 -1.14814e-05 -8.36227e-07 0 -1.11024e-05 -2.03373e-06 0 -1.00537e-05 -3.64659e-06 0 -7.98717e-06 -5.59169e-06 0 -4.56691e-06 -7.4066e-06 0 5.84124e-09 -8.19904e-06 0 0 7.66982e-07 0 -3.02637e-07 7.69689e-07 0 -6.0743e-07 7.77817e-07 0 -9.16541e-07 7.91385e-07 0 -1.23215e-06 8.10424e-07 0 -1.55645e-06 8.34969e-07 0 -1.89165e-06 8.65047e-07 0 -2.24001e-06 9.00672e-07 0 -2.60378e-06 9.41821e-07 0 -2.98521e-06 9.8841e-07 0 -3.38657e-06 1.04026e-06 0 -3.81004e-06 1.09705e-06 0 -4.25773e-06 1.15823e-06 0 -4.73157e-06 1.22297e-06 0 -5.23319e-06 1.28997e-06 0 -5.7638e-06 1.35731e-06 0 -6.32395e-06 1.42219e-06 0 -6.91319e-06 1.48052e-06 0 -7.52969e-06 1.52642e-06 0 -8.16954e-06 1.55148e-06 0 -8.82591e-06 1.54362e-06 0 -9.48774e-06 1.48564e-06 0 -1.01378e-05 1.35302e-06 0 -1.07498e-05 1.11095e-06 0 -1.12838e-05 7.10419e-07 0 -1.16789e-05 8.35531e-08 0 -1.18384e-05 -8.5993e-07 0 -1.16064e-05 -2.22985e-06 0 -1.07157e-05 -4.1214e-06 0 -8.73721e-06 -6.49817e-06 0 -5.13569e-06 -8.83779e-06 0 1.21656e-08 -9.92497e-06 0 0 8.67428e-07 0 -3.00712e-07 8.70493e-07 0 -6.03575e-07 8.79698e-07 0 -9.10747e-07 8.95066e-07 0 -1.2244e-06 9.16633e-07 0 -1.54674e-06 9.44441e-07 0 -1.87997e-06 9.78527e-07 0 -2.22636e-06 1.01891e-06 0 -2.58816e-06 1.06558e-06 0 -2.96768e-06 1.11844e-06 0 -3.36721e-06 1.17732e-06 0 -3.78899e-06 1.24187e-06 0 -4.23523e-06 1.31151e-06 0 -4.70797e-06 1.38533e-06 0 -5.20904e-06 1.46193e-06 0 -5.73991e-06 1.53923e-06 0 -6.30149e-06 1.61417e-06 0 -6.89386e-06 1.68232e-06 0 -7.51593e-06 1.73727e-06 0 -8.16484e-06 1.76984e-06 0 -8.83528e-06 1.7669e-06 0 -9.5183e-06 1.70966e-06 0 -1.01997e-05 1.57131e-06 0 -1.08575e-05 1.31362e-06 0 -1.14577e-05 8.82286e-07 0 -1.19471e-05 2.00753e-07 0 -1.2238e-05 -8.36263e-07 0 -1.21814e-05 -2.3668e-06 0 -1.14973e-05 -4.53845e-06 0 -9.67126e-06 -7.3977e-06 0 -5.89736e-06 -1.04172e-05 0 1.56848e-08 -1.18806e-05 0 0 9.67192e-07 0 -2.98549e-07 9.70615e-07 0 -5.99242e-07 9.80894e-07 0 -9.04234e-07 9.98058e-07 0 -1.21569e-06 1.02215e-06 0 -1.53582e-06 1.05322e-06 0 -1.86683e-06 1.09131e-06 0 -2.21099e-06 1.13645e-06 0 -2.57058e-06 1.18865e-06 0 -2.94793e-06 1.24781e-06 0 -3.34537e-06 1.31375e-06 0 -3.76522e-06 1.38612e-06 0 -4.20977e-06 1.46432e-06 0 -4.68122e-06 1.54737e-06 0 -5.18158e-06 1.6338e-06 0 -5.7126e-06 1.72139e-06 0 -6.27559e-06 1.80689e-06 0 -6.87121e-06 1.88556e-06 0 -7.49915e-06 1.95056e-06 0 -8.15772e-06 1.9921e-06 0 -8.84319e-06 1.99612e-06 0 -9.54897e-06 1.94258e-06 0 -1.02641e-05 1.80268e-06 0 -1.09715e-05 1.53538e-06 0 -1.16435e-05 1.08162e-06 0 -1.22367e-05 3.5715e-07 0 -1.26751e-05 -7.58031e-07 0 -1.28235e-05 -2.43179e-06 0 -1.24025e-05 -4.87446e-06 0 -1.08231e-05 -8.26532e-06 0 -6.93002e-06 -1.21609e-05 0 2.15991e-08 -1.43034e-05 0 0 1.0662e-06 0 -2.96147e-07 1.06998e-06 0 -5.94432e-07 1.08133e-06 0 -8.97002e-07 1.10028e-06 0 -1.20602e-06 1.12689e-06 0 -1.52369e-06 1.16121e-06 0 -1.85223e-06 1.2033e-06 0 -2.19391e-06 1.25321e-06 0 -2.55103e-06 1.31094e-06 0 -2.92595e-06 1.37642e-06 0 -3.32104e-06 1.44947e-06 0 -3.73871e-06 1.52973e-06 0 -4.18133e-06 1.61658e-06 0 -4.65125e-06 1.70902e-06 0 -5.15071e-06 1.80553e-06 0 -5.68173e-06 1.90377e-06 0 -6.24606e-06 2.00034e-06 0 -6.84496e-06 2.09028e-06 0 -7.47896e-06 2.16642e-06 0 -8.14758e-06 2.21846e-06 0 -8.8488e-06 2.23167e-06 0 -9.57853e-06 2.18495e-06 0 -1.03293e-05 2.04805e-06 0 -1.10892e-05 1.77756e-06 0 -1.18379e-05 1.31071e-06 0 -1.25428e-05 5.56481e-07 0 -1.31435e-05 -6.18459e-07 0 -1.35252e-05 -2.4106e-06 0 -1.34313e-05 -5.10349e-06 0 -1.22267e-05 -9.04776e-06 0 -8.35517e-06 -1.41167e-05 0 6.88243e-08 -1.71293e-05 0 0 1.16436e-06 0 -2.93508e-07 1.16849e-06 0 -5.89146e-07 1.18091e-06 0 -8.89054e-07 1.20165e-06 0 -1.19539e-06 1.23077e-06 0 -1.51035e-06 1.26834e-06 0 -1.83617e-06 1.31443e-06 0 -2.17511e-06 1.3691e-06 0 -2.5295e-06 1.43237e-06 0 -2.90173e-06 1.50419e-06 0 -3.29421e-06 1.58438e-06 0 -3.70942e-06 1.67259e-06 0 -4.14986e-06 1.76821e-06 0 -4.618e-06 1.87023e-06 0 -5.11632e-06 1.97705e-06 0 -5.64716e-06 2.08632e-06 0 -6.21269e-06 2.19451e-06 0 -6.81479e-06 2.29651e-06 0 -7.45491e-06 2.38489e-06 0 -8.13377e-06 2.44908e-06 0 -8.85126e-06 2.47375e-06 0 -9.60561e-06 2.43724e-06 0 -1.03936e-05 2.30802e-06 0 -1.12076e-05 2.04135e-06 0 -1.20376e-05 1.57121e-06 0 -1.28585e-05 8.02063e-07 0 -1.36376e-05 -4.11372e-07 0 -1.42713e-05 -2.29015e-06 0 -1.4583e-05 -5.19173e-06 0 -1.38973e-05 -9.67907e-06 0 -1.0368e-05 -1.62245e-05 0 -6.3759e-09 -2.12788e-05 0 0 1.2616e-06 0 -2.90632e-07 1.26609e-06 0 -5.83385e-07 1.27958e-06 0 -8.80391e-07 1.30209e-06 0 -1.1838e-06 1.33372e-06 0 -1.49581e-06 1.37452e-06 0 -1.81865e-06 1.4246e-06 0 -2.15459e-06 1.48403e-06 0 -2.50599e-06 1.55285e-06 0 -2.87525e-06 1.63102e-06 0 -3.26485e-06 1.71839e-06 0 -3.67733e-06 1.81463e-06 0 -4.1153e-06 1.91913e-06 0 -4.5814e-06 2.03088e-06 0 -5.07832e-06 2.1483e-06 0 -5.60872e-06 2.26897e-06 0 -6.17524e-06 2.38935e-06 0 -6.78039e-06 2.5042e-06 0 -7.42654e-06 2.60604e-06 0 -8.11567e-06 2.68398e-06 0 -8.84958e-06 2.72262e-06 0 -9.62897e-06 2.69957e-06 0 -1.04548e-05 2.58326e-06 0 -1.13244e-05 2.32716e-06 0 -1.22377e-05 1.86479e-06 0 -1.31792e-05 1.09602e-06 0 -1.41449e-05 -1.32021e-07 0 -1.5054e-05 -2.05583e-06 0 -1.58258e-05 -5.11471e-06 0 -1.58624e-05 -1.00252e-05 0 -1.32212e-05 -1.84877e-05 0 3.89272e-07 -2.64772e-05 0 0 1.35785e-06 0 -2.87521e-07 1.36269e-06 0 -5.77153e-07 1.37724e-06 0 -8.71017e-07 1.40152e-06 0 -1.17126e-06 1.43564e-06 0 -1.48007e-06 1.47967e-06 0 -1.79967e-06 1.53374e-06 0 -2.13236e-06 1.59792e-06 0 -2.4805e-06 1.67229e-06 0 -2.84652e-06 1.75683e-06 0 -3.23295e-06 1.85142e-06 0 -3.64241e-06 1.95575e-06 0 -4.07762e-06 2.06924e-06 0 -4.54137e-06 2.1909e-06 0 -5.0366e-06 2.31917e-06 0 -5.56626e-06 2.45164e-06 0 -6.13352e-06 2.58477e-06 0 -6.7414e-06 2.71332e-06 0 -7.39347e-06 2.82979e-06 0 -8.09244e-06 2.92319e-06 0 -8.84311e-06 2.97822e-06 0 -9.64665e-06 2.97215e-06 0 -1.05121e-05 2.87376e-06 0 -1.14346e-05 2.63565e-06 0 -1.24374e-05 2.19186e-06 0 -1.34925e-05 1.43997e-06 0 -1.46651e-05 2.24029e-07 0 -1.5838e-05 -1.70222e-06 0 -1.71555e-05 -4.82916e-06 0 -1.80383e-05 -1.00095e-05 0 -1.7289e-05 -2.02751e-05 0 -3.12164e-07 -3.71965e-05 0 0 1.45303e-06 0 -2.84176e-07 1.45822e-06 0 -5.7045e-07 1.47381e-06 0 -8.60934e-07 1.49986e-06 0 -1.15777e-06 1.53646e-06 0 -1.46312e-06 1.58371e-06 0 -1.77924e-06 1.64175e-06 0 -2.10841e-06 1.71068e-06 0 -2.45301e-06 1.7906e-06 0 -2.81552e-06 1.88152e-06 0 -3.19849e-06 1.98336e-06 0 -3.60464e-06 2.09585e-06 0 -4.03676e-06 2.21843e-06 0 -4.49787e-06 2.35017e-06 0 -4.99102e-06 2.48955e-06 0 -5.5197e-06 2.63422e-06 0 -6.08714e-06 2.78068e-06 0 -6.69782e-06 2.92374e-06 0 -7.35451e-06 3.05603e-06 0 -8.06482e-06 3.16664e-06 0 -8.82805e-06 3.24043e-06 0 -9.66285e-06 3.25499e-06 0 -1.05525e-05 3.17934e-06 0 -1.15564e-05 2.96695e-06 0 -1.2592e-05 2.55246e-06 0 -1.38669e-05 1.83393e-06 0 -1.50457e-05 6.60669e-07 0 -1.68619e-05 -1.23178e-06 0 -1.80618e-05 -4.29022e-06 0 -2.10831e-05 -9.60623e-06 0 -2.20981e-05 -2.03641e-05 0 6.21143e-06 -5.79225e-05 0 0 1.54704e-06 0 -2.80597e-07 1.55258e-06 0 -5.63279e-07 1.56923e-06 0 -8.50146e-07 1.59703e-06 0 -1.14332e-06 1.6361e-06 0 -1.44499e-06 1.68655e-06 0 -1.75736e-06 1.74854e-06 0 -2.08275e-06 1.82221e-06 0 -2.42355e-06 1.90768e-06 0 -2.78224e-06 2.005e-06 0 -3.16147e-06 2.11412e-06 0 -3.56396e-06 2.23482e-06 0 -3.99272e-06 2.3666e-06 0 -4.45073e-06 2.50859e-06 0 -4.94166e-06 2.65934e-06 0 -5.46851e-06 2.81658e-06 0 -6.03665e-06 2.97694e-06 0 -6.64768e-06 3.13534e-06 0 -7.31264e-06 3.28463e-06 0 -8.0252e-06 3.41411e-06 0 -8.81743e-06 3.50912e-06 0 -9.64836e-06 3.5477e-06 0 -1.06289e-05 3.49992e-06 0 -1.15799e-05 3.32038e-06 0 -1.29036e-05 2.94618e-06 0 -1.3901e-05 2.27819e-06 0 -1.60217e-05 1.17261e-06 0 -1.6708e-05 -6.27891e-07 0 -2.10436e-05 -3.54e-06 0 -2.05504e-05 -8.61799e-06 0 -2.9996e-05 -1.86475e-05 0 -0.000123944 -5.54144e-05 0 </DataArray> 
</PointData> 
<Points> 
<DataArray type="Float32" NumberOfComponents="3"> 