<?xml version="1.0"?> 
<VTKFile type="StructuredGrid" version="0.1"> 
<StructuredGrid WholeExtent="0 31 0 31 0 0"> 
<Piece Extent="0 31 0 31 0 0"> 
<PointData>
<DataArray type="Float32" Name="B" format="ascii" NumberOfComponents="3"> 
0 -1.57088e-06 0 -2.84803e-07 -1.57654e-06 0 -5.7173e-07 -1.59353e-06 0 -8.6292e-07 -1.62193e-06 0 -1.16054e-06 -1.66184e-06 0 -1.4668e-06 -1.71341e-06 0 -1.78398e-06 -1.77679e-06 0 -2.11443e-06 -1.85216e-06 0 -2.46058e-06 -1.93965e-06 0 -2.82499e-06 -2.03937e-06 0 -3.21034e-06 -2.15131e-06 0 -3.61945e-06 -2.27529e-06 0 -4.05538e-06 -2.41089e-06 0 -4.5212e-06 -2.55729e-06 0 -5.02068e-06 -2.71317e-06 0 -5.55692e-06 -2.87632e-06 0 -6.13544e-06 -3.0436e-06 0 -6.75794e-06 -3.20994e-06 0 -7.43574e-06 -3.36864e-06 0 -8.16256e-06 -3.50883e-06 0 -8.97112e-06 -3.6169e-06 0 -9.82013e-06 -3.67e-06 0 -1.08224e-05 -3.64078e-06 0 -1.17972e-05 -3.48133e-06 0 -1.31529e-05 -3.13415e-06 0 -1.41834e-05 -2.49677e-06 0 -1.63612e-05 -1.43031e-06 0 -1.71029e-05 3.04676e-07 0 -2.15754e-05 3.16591e-06 0 -2.12454e-05 7.95261e-06 0 -3.12742e-05 1.79819e-05 0 -0.00012778 4.34227e-05 0 0 -1.47545e-06 0 -2.88458e-07 -1.48075e-06 0 -5.79054e-07 -1.49668e-06 0 -8.7394e-07 -1.52329e-06 0 -1.1753e-06 -1.56069e-06 0 -1.48534e-06 -1.60899e-06 0 -1.80636e-06 -1.66834e-06 0 -2.14069e-06 -1.73887e-06 0 -2.49077e-06 -1.82071e-06 0 -2.85911e-06 -1.9139e-06 0 -3.24836e-06 -2.01841e-06 0 -3.66127e-06 -2.134e-06 0 -4.10075e-06 -2.26019e-06 0 -4.56988e-06 -2.39612e-06 0 -5.07183e-06 -2.54034e-06 0 -5.61019e-06 -2.69064e-06 0 -6.18834e-06 -2.84361e-06 0 -6.81087e-06 -2.99429e-06 0 -7.48091e-06 -3.13534e-06 0 -8.20595e-06 -3.25637e-06 0 -8.98633e-06 -3.34204e-06 0 -9.83964e-06 -3.37108e-06 0 -1.07529e-05 -3.31163e-06 0 -1.178e-05 -3.1197e-06 0 -1.28527e-05 -2.72789e-06 0 -1.41559e-05 -2.03852e-06 0 -1.54089e-05 -9.01032e-07 0 -1.72584e-05 9.5104e-07 0 -1.86621e-05 3.9252e-06 0 -2.17844e-05 9.19856e-06 0 -2.37153e-05 1.94009e-05 0 -4.93784e-06 6.0409e-05 0 0 -1.37884e-06 0 -2.91875e-07 -1.38379e-06 0 -5.859e-07 -1.39864e-06 0 -8.84242e-07 -1.42346e-06 0 -1.18909e-06 -1.45832e-06 0 -1.50267e-06 -1.50334e-06 0 -1.82726e-06 -1.55864e-06 0 -2.16521e-06 -1.62433e-06 0 -2.51892e-06 -1.7005e-06 0 -2.8909e-06 -1.78717e-06 0 -3.28375e-06 -1.88427e-06 0 -3.70013e-06 -1.99152e-06 0 -4.14287e-06 -2.10841e-06 0 -4.61485e-06 -2.23401e-06 0 -5.1191e-06 -2.36684e-06 0 -5.65872e-06 -2.50461e-06 0 -6.23698e-06 -2.6439e-06 0 -6.85714e-06 -2.77959e-06 0 -7.52285e-06 -2.90439e-06 0 -8.23736e-06 -3.00748e-06 0 -9.00521e-06 -3.07388e-06 0 -9.82923e-06 -3.08103e-06 0 -1.07166e-05 -2.99825e-06 0 -1.16684e-05 -2.77825e-06 0 -1.26995e-05 -2.35598e-06 0 -1.38043e-05 -1.62891e-06 0 -1.5015e-05 -4.42761e-07 0 -1.62978e-05 1.4494e-06 0 -1.76859e-05 4.53446e-06 0 -1.89254e-05 9.67583e-06 0 -1.87647e-05 2.00216e-05 0 -1.75697e-06 3.94379e-05 0 0 -1.28113e-06 0 -2.95053e-07 -1.28572e-06 0 -5.92268e-07 -1.29949e-06 0 -8.93821e-07 -1.3225e-06 0 -1.20191e-06 -1.35482e-06 0 -1.51877e-06 -1.39655e-06 0 -1.84668e-06 -1.44778e-06 0 -2.18797e-06 -1.50862e-06 0 -2.54505e-06 -1.57912e-06 0 -2.92038e-06 -1.65929e-06 0 -3.31652e-06 -1.749e-06 0 -3.73607e-06 -1.84797e-06 0 -4.18173e-06 -1.95565e-06 0 -4.65624e-06 -2.07109e-06 0 -5.1624e-06 -2.19278e-06 0 -5.70301e-06 -2.31842e-06 0 -6.28085e-06 -2.44455e-06 0 -6.8986e-06 -2.5661e-06 0 -7.55887e-06 -2.67573e-06 0 -8.26386e-06 -2.76274e-06 0 -9.01583e-06 -2.81196e-06 0 -9.81572e-06 -2.80124e-06 0 -1.06656e-05 -2.69927e-06 0 -1.15627e-05 -2.4598e-06 0 -1.25104e-05 -2.01652e-06 0 -1.3493e-05 -1.26934e-06 0 -1.45161e-05 -6.4926e-08 0 -1.55015e-05 1.83527e-06 0 -1.64052e-05 4.87693e-06 0 -1.6672e-05 9.81097e-06 0 -1.45345e-05 1.8552e-05 0 -1.03998e-06 2.85467e-05 0 0 -1.18241e-06 0 -2.97991e-07 -1.18663e-06 0 -5.98154e-07 -1.19932e-06 0 -9.02674e-07 -1.22052e-06 0 -1.21376e-06 -1.25028e-06 0 -1.53364e-06 -1.2887e-06 0 -1.86461e-06 -1.33586e-06 0 -2.20898e-06 -1.39184e-06 0 -2.56915e-06 -1.45667e-06 0 -2.94755e-06 -1.53034e-06 0 -3.34669e-06 -1.6127e-06 0 -3.76911e-06 -1.70345e-06 0 -4.21739e-06 -1.80203e-06 0 -4.69412e-06 -1.90746e-06 0 -5.20188e-06 -2.01827e-06 0 -5.74316e-06 -2.13215e-06 0 -6.32029e-06 -2.24569e-06 0 -6.93532e-06 -2.35391e-06 0 -7.58993e-06 -2.44953e-06 0 -8.28513e-06 -2.52212e-06 0 -9.02114e-06 -2.5566e-06 0 -9.79667e-06 -2.53143e-06 0 -1.06091e-05 -2.41538e-06 0 -1.14518e-05 -2.16365e-06 0 -1.23163e-05 -1.71041e-06 0 -1.31797e-05 -9.59382e-07 0 -1.40146e-05 2.36208e-07 0 -1.47255e-05 2.10096e-06 0 -1.5157e-05 5.009e-06 0 -1.46714e-05 9.55879e-06 0 -1.14485e-05 1.64806e-05 0 -7.79682e-07 2.23869e-05 0 0 -1.08274e-06 0 -3.00687e-07 -1.0866e-06 0 -6.03556e-07 -1.0982e-06 0 -9.10799e-07 -1.11758e-06 0 -1.22463e-06 -1.14478e-06 0 -1.54728e-06 -1.17988e-06 0 -1.88105e-06 -1.22296e-06 0 -2.22824e-06 -1.27407e-06 0 -2.59122e-06 -1.33324e-06 0 -2.97242e-06 -1.40042e-06 0 -3.37427e-06 -1.47547e-06 0 -3.79927e-06 -1.55806e-06 0 -4.24988e-06 -1.64763e-06 0 -4.72855e-06 -1.74323e-06 0 -5.23764e-06 -1.8434e-06 0 -5.77933e-06 -1.94589e-06 0 -6.35551e-06 -2.0474e-06 0 -6.96763e-06 -2.14307e-06 0 -7.61647e-06 -2.22586e-06 0 -8.30183e-06 -2.28565e-06 0 -9.02205e-06 -2.30783e-06 0 -9.77347e-06 -2.2715e-06 0 -1.05493e-05 -2.14647e-06 0 -1.13384e-05 -1.8894e-06 0 -1.2122e-05 -1.43713e-06 0 -1.28694e-05 -6.97844e-07 0 -1.35251e-05 4.64421e-07 0 -1.39796e-05 2.25215e-06 0 -1.39943e-05 4.96609e-06 0 -1.29447e-05 9.00832e-06 0 -9.24238e-06 1.44048e-05 0 -5.52121e-07 1.81449e-05 0 0 -9.82218e-07 0 -3.03141e-07 -9.85716e-07 0 -6.08472e-07 -9.96222e-07 0 -9.18192e-07 -1.01377e-06 0 -1.23452e-06 -1.0384e-06 0 -1.55969e-06 -1.07018e-06 0 -1.896e-06 -1.10917e-06 0 -2.24574e-06 -1.15541e-06 0 -2.61128e-06 -1.20891e-06 0 -2.99499e-06 -1.26963e-06 0 -3.39929e-06 -1.33739e-06 0 -3.82658e-06 -1.41189e-06 0 -4.27925e-06 -1.49256e-06 0 -4.7596e-06 -1.57849e-06 0 -5.26977e-06 -1.66826e-06 0 -5.81166e-06 -1.75973e-06 0 -6.38673e-06 -1.84973e-06 0 -6.99585e-06 -1.93363e-06 0 -7.63895e-06 -2.0047e-06 0 -8.31463e-06 -2.05329e-06 0 -9.0195e-06 -2.06546e-06 0 -9.74744e-06 -2.02129e-06 0 -1.04881e-05 -1.89204e-06 0 -1.12251e-05 -1.63655e-06 0 -1.19322e-05 -1.19529e-06 0 -1.25676e-05 -4.82706e-07 0 -1.30589e-05 6.24356e-07 0 -1.32754e-05 2.301e-06 0 -1.29471e-05 4.77674e-06 0 -1.14832e-05 8.27566e-06 0 -7.66484e-06 1.24618e-05 0 -4.58291e-07 1.49834e-05 0 0 -8.80917e-07 0 -3.05352e-07 -8.8405e-07 0 -6.12901e-07 -8.93459e-07 0 -9.24851e-07 -9.0917e-07 0 -1.24342e-06 -9.31225e-07 0 -1.57087e-06 -9.59675e-07 0 -1.90945e-06 -9.94567e-07 0 -2.26149e-06 -1.03594e-06 0 -2.62931e-06 -1.08378e-06 0 -3.01527e-06 -1.13805e-06 0 -3.42175e-06 -1.19857e-06 0 -3.85108e-06 -1.26503e-06 0 -4.30555e-06 -1.3369e-06 0 -4.78733e-06 -1.41331e-06 0 -5.29838e-06 -1.49293e-06 0 -5.84029e-06 -1.57372e-06 0 -6.41416e-06 -1.65272e-06 0 -7.02029e-06 -1.72558e-06 0 -7.6578e-06 -1.786e-06 0 -8.32415e-06 -1.82491e-06 0 -9.01435e-06 -1.82927e-06 0 -9.71993e-06 -1.7804e-06 0 -1.04272e-05 -1.65146e-06 0 -1.1115e-05 -1.40406e-06 0 -1.17501e-05 -9.83231e-07 0 -1.22811e-05 -3.10906e-07 0 -1.26224e-05 7.21781e-07 0 -1.26281e-05 2.26086e-06 0 -1.20204e-05 4.47179e-06 0 -1.02753e-05 7.44073e-06 0 -6.51654e-06 1.06928e-05 0 -3.71214e-07 1.24729e-05 0 0 -7.78921e-07 0 -3.0732e-07 -7.81687e-07 0 -6.16841e-07 -7.89995e-07 0 -9.30775e-07 -8.03868e-07 0 -1.25135e-06 -8.2334e-07 0 -1.5808e-06 -8.48453e-07 0 -1.92141e-06 -8.79247e-07 0 -2.27548e-06 -9.15745e-07 0 -2.64533e-06 -9.57941e-07 0 -3.03328e-06 -1.00577e-06 0 -3.44167e-06 -1.05908e-06 0 -3.87278e-06 -1.11757e-06 0 -4.32881e-06 -1.18073e-06 0 -4.81181e-06 -1.24777e-06 0 -5.32354e-06 -1.31745e-06 0 -5.86537e-06 -1.3879e-06 0 -6.438e-06 -1.45638e-06 0 -7.04121e-06 -1.51889e-06 0 -7.67341e-06 -1.56965e-06 0 -8.33099e-06 -1.60031e-06 0 -9.00745e-06 -1.59891e-06 0 -9.69215e-06 -1.54829e-06 0 -1.03683e-05 -1.42388e-06 0 -1.10105e-05 -1.19062e-06 0 -1.15793e-05 -7.9878e-07 0 -1.2015e-05 -1.78792e-07 0 -1.22222e-05 7.63335e-07 0 -1.20457e-05 2.14537e-06 0 -1.1217e-05 4.07891e-06 0 -9.28981e-06 6.55716e-06 0 -5.66844e-06 9.08655e-06 0 -3.25686e-07 1.03708e-05 0 0 -6.76309e-07 0 -3.09042e-07 -6.78709e-07 0 -6.20291e-07 -6.85914e-07 0 -9.35961e-07 -6.97944e-07 0 -1.25828e-06 -7.14829e-07 0 -1.5895e-06 -7.36601e-07 0 -1.93188e-06 -7.63292e-07 0 -2.28772e-06 -7.9492e-07 0 -2.65933e-06 -8.31472e-07 0 -3.04901e-06 -8.72885e-07 0 -3.45906e-06 -9.19011e-07 0 -3.89171e-06 -9.69579e-07 0 -4.34908e-06 -1.02413e-06 0 -4.83309e-06 -1.08194e-06 0 -5.34536e-06 -1.14188e-06 0 -5.88701e-06 -1.20228e-06 0 -6.45842e-06 -1.26068e-06 0 -7.0589e-06 -1.31348e-06 0 -7.68618e-06 -1.35549e-06 0 -8.33568e-06 -1.37922e-06 0 -8.99957e-06 -1.37394e-06 0 -9.66522e-06 -1.32427e-06 0 -1.03132e-05 -1.20823e-06 0 -1.09139e-05 -9.94596e-07 0 -1.1423e-05 -6.39418e-07 0 -1.17737e-05 -8.22179e-08 0 -1.18635e-05 7.56099e-07 0 -1.15338e-05 1.96758e-06 0 -1.05335e-05 3.62154e-06 0 -8.49611e-06 5.65683e-06 0 -5.03416e-06 7.62053e-06 0 -2.82113e-07 8.57074e-06 0 0 -5.73165e-07 0 -3.1052e-07 -5.75196e-07 0 -6.2325e-07 -5.81297e-07 0 -9.40409e-07 -5.91481e-07 0 -1.26423e-06 -6.05774e-07 0 -1.59695e-06 -6.24202e-07 0 -1.94085e-06 -6.46789e-07 0 -2.29821e-06 -6.73548e-07 0 -2.67133e-06 -7.04462e-07 0 -3.06248e-06 -7.39474e-07 0 -3.47394e-06 -7.78449e-07 0 -3.90789e-06 -8.21146e-07 0 -4.36638e-06 -8.67161e-07 0 -4.85123e-06 -9.15853e-07 0 -5.36391e-06 -9.66243e-07 0 -5.90533e-06 -1.01687e-06 0 -6.4756e-06 -1.06558e-06 0 -7.07359e-06 -1.10924e-06 0 -7.69644e-06 -1.14332e-06 0 -8.33873e-06 -1.16131e-06 0 -8.99142e-06 -1.15384e-06 0 -9.64016e-06 -1.10753e-06 0 -1.02631e-05 -1.0033e-06 0 -1.08273e-05 -8.14131e-07 0 -1.1284e-05 -5.02301e-07 0 -1.15608e-05 -1.67247e-08 0 -1.15506e-05 7.07295e-07 0 -1.1095e-05 1.73946e-06 0 -9.96466e-06 3.11824e-06 0 -7.8648e-06 4.75739e-06 0 -4.55758e-06 6.27084e-06 0 -2.57296e-07 6.97306e-06 0 0 -4.69569e-07 0 -3.11751e-07 -4.71232e-07 0 -6.25717e-07 -4.76225e-07 0 -9.44117e-07 -4.84562e-07 0 -1.26918e-06 -4.9626e-07 0 -1.60317e-06 -5.1134e-07 0 -1.94833e-06 -5.29822e-07 0 -2.30695e-06 -5.51713e-07 0 -2.68132e-06 -5.76997e-07 0 -3.0737e-06 -6.05621e-07 0 -3.48632e-06 -6.37472e-07 0 -3.92134e-06 -6.72342e-07 0 -4.38074e-06 -7.09891e-07 0 -4.86627e-06 -7.49577e-07 0 -5.37925e-06 -7.90578e-07 0 -5.92044e-06 -8.31664e-07 0 -6.48968e-06 -8.71031e-07 0 -7.08549e-06 -9.0605e-07 0 -7.7045e-06 -9.32921e-07 0 -8.34058e-06 -9.46181e-07 0 -8.98363e-06 -9.37993e-07 0 -9.61787e-06 -8.97149e-07 0 -1.02193e-05 -8.07702e-07 0 -1.07524e-05 -6.47155e-07 0 -1.11645e-05 -3.84338e-07 0 -1.13793e-05 2.23542e-08 0 -1.12864e-05 6.2403e-07 0 -1.07304e-05 1.47169e-06 0 -9.50361e-06 2.58308e-06 0 -7.37211e-06 3.86766e-06 0 -4.20091e-06 5.01387e-06 0 -2.34128e-07 5.5324e-06 0 0 -3.65604e-07 0 -3.12737e-07 -3.66898e-07 0 -6.27691e-07 -3.70783e-07 0 -9.47085e-07 -3.77269e-07 0 -1.27315e-06 -3.86369e-07 0 -1.60814e-06 -3.98101e-07 0 -1.95431e-06 -4.12476e-07 0 -2.31394e-06 -4.295e-07 0 -2.6893e-06 -4.49159e-07 0 -3.08266e-06 -4.71409e-07 0 -3.49621e-06 -4.96158e-07 0 -3.93208e-06 -5.23239e-07 0 -4.3922e-06 -5.5238e-07 0 -4.87825e-06 -5.8315e-07 0 -5.39145e-06 -6.14896e-07 0 -5.93242e-06 -6.46641e-07 0 -6.50078e-06 -6.76953e-07 0 -7.09478e-06 -7.03745e-07 0 -7.71063e-06 -7.24006e-07 0 -8.34159e-06 -7.33404e-07 0 -8.97673e-06 -7.25726e-07 0 -9.59909e-06 -6.92098e-07 0 -1.01831e-05 -6.19911e-07 0 -1.06907e-05 -4.91433e-07 0 -1.10667e-05 -2.82253e-07 0 -1.12314e-05 3.97943e-08 0 -1.1073e-05 5.1317e-07 0 -1.04399e-05 1.17358e-06 0 -9.14389e-06 2.02644e-06 0 -6.99875e-06 2.99063e-06 0 -3.93906e-06 3.82928e-06 0 -2.20402e-07 4.20014e-06 0 0 -2.61351e-07 0 -3.13477e-07 -2.62275e-07 0 -6.29173e-07 -2.65051e-07 0 -9.49311e-07 -2.69685e-07 0 -1.27613e-06 -2.76187e-07 0 -1.61187e-06 -2.84568e-07 0 -1.9588e-06 -2.94836e-07 0 -2.31918e-06 -3.06995e-07 0 -2.69529e-06 -3.21034e-07 0 -3.08938e-06 -3.36919e-07 0 -3.50363e-06 -3.54583e-07 0 -3.94012e-06 -3.73905e-07 0 -4.40078e-06 -3.94686e-07 0 -4.8872e-06 -4.16612e-07 0 -5.40056e-06 -4.3921e-07 0 -5.94134e-06 -4.61771e-07 0 -6.50902e-06 -4.83255e-07 0 -7.10162e-06 -5.02153e-07 0 -7.71503e-06 -5.16279e-07 0 -8.34207e-06 -5.22496e-07 0 -8.97117e-06 -5.16304e-07 0 -9.58446e-06 -4.91279e-07 0 -1.01551e-05 -4.38305e-07 0 -1.06434e-05 -3.44595e-07 0 -1.09919e-05 -1.92635e-07 0 -1.11191e-05 4.04152e-08 0 -1.0912e-05 3.81273e-07 0 -1.0223e-05 8.53243e-07 0 -8.87957e-06 1.45579e-06 0 -6.73051e-06 2.126e-06 0 -3.75505e-06 2.69834e-06 0 -2.08918e-07 2.94834e-06 0 0 -1.56893e-07 0 -3.1397e-07 -1.57447e-07 0 -6.3016e-07 -1.59113e-07 0 -9.50795e-07 -1.61894e-07 0 -1.27811e-06 -1.65796e-07 0 -1.61435e-06 -1.70824e-07 0 -1.96179e-06 -1.76986e-07 0 -2.32268e-06 -1.84281e-07 0 -2.69928e-06 -1.92702e-07 0 -3.09385e-06 -2.0223e-07 0 -3.50856e-06 -2.12824e-07 0 -3.94548e-06 -2.24408e-07 0 -4.40649e-06 -2.36862e-07 0 -4.89316e-06 -2.49997e-07 0 -5.40661e-06 -2.63525e-07 0 -5.94726e-06 -2.77015e-07 0 -6.51447e-06 -2.89839e-07 0 -7.10612e-06 -3.0108e-07 0 -7.71787e-06 -3.09417e-07 0 -8.34226e-06 -3.12948e-07 0 -8.96728e-06 -3.08947e-07 0 -9.57444e-06 -2.93528e-07 0 -1.0136e-05 -2.61176e-07 0 -1.06113e-05 -2.04172e-07 0 -1.09415e-05 -1.11981e-07 0 -1.10435e-05 2.90401e-08 0 -1.08042e-05 2.34599e-07 0 -1.00789e-05 5.17783e-07 0 -8.70604e-06 8.76544e-07 0 -6.55706e-06 1.27133e-06 0 -3.63788e-06 1.60455e-06 0 -2.02694e-07 1.74856e-06 0 0 -5.23113e-08 0 -3.14217e-07 -5.24962e-08 0 -6.30654e-07 -5.30515e-08 0 -9.51538e-07 -5.39785e-08 0 -1.2791e-06 -5.52791e-08 0 -1.6156e-06 -5.69555e-08 0 -1.96328e-06 -5.90092e-08 0 -2.32442e-06 -6.14408e-08 0 -2.70128e-06 -6.42478e-08 0 -3.09609e-06 -6.74233e-08 0 -3.51103e-06 -7.09535e-08 0 -3.94816e-06 -7.48134e-08 0 -4.40934e-06 -7.89626e-08 0 -4.89613e-06 -8.33374e-08 0 -5.40963e-06 -8.78412e-08 0 -5.95021e-06 -9.23303e-08 0 -6.51718e-06 -9.65937e-08 0 -7.10834e-06 -1.00325e-07 0 -7.71927e-06 -1.0308e-07 0 -8.34232e-06 -1.04224e-07 0 -8.96528e-06 -1.02843e-07 0 -9.56935e-06 -9.76351e-08 0 -1.01264e-05 -8.67561e-08 0 -1.05952e-05 -6.76251e-08 0 -1.09161e-05 -3.67258e-08 0 -1.10055e-05 1.04779e-08 0 -1.07502e-05 7.91669e-08 0 -1.00071e-05 1.73552e-07 0 -8.62008e-06 2.92666e-07 0 -6.47194e-06 4.2305e-07 0 -3.58087e-06 5.32455e-07 0 -1.9921e-07 5.79658e-07 0 0 5.23113e-08 0 -3.14217e-07 5.24962e-08 0 -6.30654e-07 5.30515e-08 0 -9.51538e-07 5.39785e-08 0 -1.2791e-06 5.52791e-08 0 -1.6156e-06 5.69555e-08 0 -1.96328e-06 5.90092e-08 0 -2.32442e-06 6.14408e-08 0 -2.70128e-06 6.42478e-08 0 -3.09609e-06 6.74233e-08 0 -3.51103e-06 7.09535e-08 0 -3.94816e-06 7.48134e-08 0 -4.40934e-06 7.89626e-08 0 -4.89613e-06 8.33374e-08 0 -5.40963e-06 8.78412e-08 0 -5.95021e-06 9.23303e-08 0 -6.51718e-06 9.65937e-08 0 -7.10834e-06 1.00325e-07 0 -7.71927e-06 1.0308e-07 0 -8.34232e-06 1.04224e-07 0 -8.96528e-06 1.02843e-07 0 -9.56935e-06 9.76351e-08 0 -1.01264e-05 8.67561e-08 0 -1.05952e-05 6.76251e-08 0 -1.09161e-05 3.67258e-08 0 -1.10055e-05 -1.04779e-08 0 -1.07502e-05 -7.91669e-08 0 -1.00071e-05 -1.73552e-07 0 -8.62008e-06 -2.92666e-07 0 -6.47194e-06 -4.2305e-07 0 -3.58087e-06 -5.32455e-07 0 -1.9921e-07 -5.79658e-07 0 0 1.56893e-07 0 -3.1397e-07 1.57447e-07 0 -6.3016e-07 1.59113e-07 0 -9.50795e-07 1.61894e-07 0 -1.27811e-06 1.65796e-07 0 -1.61435e-06 1.70824e-07 0 -1.96179e-06 1.76986e-07 0 -2.32268e-06 1.84281e-07 0 -2.69928e-06 1.92702e-07 0 -3.09385e-06 2.0223e-07 0 -3.50856e-06 2.12824e-07 0 -3.94548e-06 2.24408e-07 0 -4.40649e-06 2.36862e-07 0 -4.89316e-06 2.49997e-07 0 -5.40661e-06 2.63525e-07 0 -5.94726e-06 2.77015e-07 0 -6.51447e-06 2.89839e-07 0 -7.10612e-06 3.0108e-07 0 -7.71787e-06 3.09417e-07 0 -8.34226e-06 3.12948e-07 0 -8.96728e-06 3.08947e-07 0 -9.57444e-06 2.93528e-07 0 -1.0136e-05 2.61176e-07 0 -1.06113e-05 2.04172e-07 0 -1.09415e-05 1.11981e-07 0 -1.10435e-05 -2.90401e-08 0 -1.08042e-05 -2.34599e-07 0 -1.00789e-05 -5.17783e-07 0 -8.70604e-06 -8.76544e-07 0 -6.55706e-06 -1.27133e-06 0 -3.63788e-06 -1.60455e-06 0 -2.02694e-07 -1.74856e-06 0 0 2.61351e-07 0 -3.13477e-07 2.62275e-07 0 -6.29173e-07 2.65051e-07 0 -9.49311e-07 2.69685e-07 0 -1.27613e-06 2.76187e-07 0 -1.61187e-06 2.84568e-07 0 -1.9588e-06 2.94836e-07 0 -2.31918e-06 3.06995e-07 0 -2.69529e-06 3.21034e-07 0 -3.08938e-06 3.36919e-07 0 -3.50363e-06 3.54583e-07 0 -3.94012e-06 3.73905e-07 0 -4.40078e-06 3.94686e-07 0 -4.8872e-06 4.16612e-07 0 -5.40056e-06 4.3921e-07 0 -5.94134e-06 4.61771e-07 0 -6.50902e-06 4.83255e-07 0 -7.10162e-06 5.02153e-07 0 -7.71503e-06 5.16279e-07 0 -8.34207e-06 5.22496e-07 0 -8.97117e-06 5.16304e-07 0 -9.58446e-06 4.91279e-07 0 -1.01551e-05 4.38305e-07 0 -1.06434e-05 3.44595e-07 0 -1.09919e-05 1.92635e-07 0 -1.11191e-05 -4.04152e-08 0 -1.0912e-05 -3.81273e-07 0 -1.0223e-05 -8.53243e-07 0 -8.87957e-06 -1.45579e-06 0 -6.73051e-06 -2.126e-06 0 -3.75505e-06 -2.69834e-06 0 -2.08918e-07 -2.94834e-06 0 0 3.65604e-07 0 -3.12737e-07 3.66898e-07 0 -6.27691e-07 3.70783e-07 0 -9.47085e-07 3.77269e-07 0 -1.27315e-06 3.86369e-07 0 -1.60814e-06 3.98101e-07 0 -1.95431e-06 4.12476e-07 0 -2.31394e-06 4.295e-07 0 -2.6893e-06 4.49159e-07 0 -3.08266e-06 4.71409e-07 0 -3.49621e-06 4.96158e-07 0 -3.93208e-06 5.23239e-07 0 -4.3922e-06 5.5238e-07 0 -4.87825e-06 5.8315e-07 0 -5.39145e-06 6.14896e-07 0 -5.93242e-06 6.46641e-07 0 -6.50078e-06 6.76953e-07 0 -7.09478e-06 7.03745e-07 0 -7.71063e-06 7.24006e-07 0 -8.34159e-06 7.33404e-07 0 -8.97673e-06 7.25726e-07 0 -9.59909e-06 6.92098e-07 0 -1.01831e-05 6.19911e-07 0 -1.06907e-05 4.91433e-07 0 -1.10667e-05 2.82253e-07 0 -1.12314e-05 -3.97943e-08 0 -1.1073e-05 -5.1317e-07 0 -1.04399e-05 -1.17358e-06 0 -9.14389e-06 -2.02644e-06 0 -6.99875e-06 -2.99063e-06 0 -3.93906e-06 -3.82928e-06 0 -2.20402e-07 -4.20014e-06 0 0 4.69569e-07 0 -3.11751e-07 4.71232e-07 0 -6.25717e-07 4.76225e-07 0 -9.44117e-07 4.84562e-07 0 -1.26918e-06 4.9626e-07 0 -1.60317e-06 5.1134e-07 0 -1.94833e-06 5.29822e-07 0 -2.30695e-06 5.51713e-07 0 -2.68132e-06 5.76997e-07 0 -3.0737e-06 6.05621e-07 0 -3.48632e-06 6.37472e-07 0 -3.92134e-06 6.72342e-07 0 -4.38074e-06 7.09891e-07 0 -4.86627e-06 7.49577e-07 0 -5.37925e-06 7.90578e-07 0 -5.92044e-06 8.31664e-07 0 -6.48968e-06 8.71031e-07 0 -7.08549e-06 9.0605e-07 0 -7.7045e-06 9.32921e-07 0 -8.34058e-06 9.46181e-07 0 -8.98363e-06 9.37993e-07 0 -9.61787e-06 8.97149e-07 0 -1.02193e-05 8.07702e-07 0 -1.07524e-05 6.47155e-07 0 -1.11645e-05 3.84338e-07 0 -1.13793e-05 -2.23542e-08 0 -1.12864e-05 -6.2403e-07 0 -1.07304e-05 -1.47169e-06 0 -9.50361e-06 -2.58308e-06 0 -7.37211e-06 -3.86766e-06 0 -4.20091e-06 -5.01387e-06 0 -2.34128e-07 -5.5324e-06 0 0 5.73165e-07 0 -3.1052e-07 5.75196e-07 0 -6.2325e-07 5.81297e-07 0 -9.40409e-07 5.91481e-07 0 -1.26423e-06 6.05774e-07 0 -1.59695e-06 6.24202e-07 0 -1.94085e-06 6.46789e-07 0 -2.29821e-06 6.73548e-07 0 -2.67133e-06 7.04462e-07 0 -3.06248e-06 7.39474e-07 0 -3.47394e-06 7.78449e-07 0 -3.90789e-06 8.21146e-07 0 -4.36638e-06 8.67161e-07 0 -4.85123e-06 9.15853e-07 0 -5.36391e-06 9.66243e-07 0 -5.90533e-06 1.01687e-06 0 -6.4756e-06 1.06558e-06 0 -7.07359e-06 1.10924e-06 0 -7.69644e-06 1.14332e-06 0 -8.33873e-06 1.16131e-06 0 -8.99142e-06 1.15384e-06 0 -9.64016e-06 1.10753e-06 0 -1.02631e-05 1.0033e-06 0 -1.08273e-05 8.14131e-07 0 -1.1284e-05 5.02301e-07 0 -1.15608e-05 1.67247e-08 0 -1.15506e-05 -7.07295e-07 0 -1.1095e-05 -1.73946e-06 0 -9.96466e-06 -3.11824e-06 0 -7.8648e-06 -4.75739e-06 0 -4.55758e-06 -6.27084e-06 0 -2.57296e-07 -6.97306e-06 0 0 6.76309e-07 0 -3.09042e-07 6.78709e-07 0 -6.20291e-07 6.85914e-07 0 -9.35961e-07 6.97944e-07 0 -1.25828e-06 7.14829e-07 0 -1.5895e-06 7.36601e-07 0 -1.93188e-06 7.63292e-07 0 -2.28772e-06 7.9492e-07 0 -2.65933e-06 8.31472e-07 0 -3.04901e-06 8.72885e-07 0 -3.45906e-06 9.19011e-07 0 -3.89171e-06 9.69579e-07 0 -4.34908e-06 1.02413e-06 0 -4.83309e-06 1.08194e-06 0 -5.34536e-06 1.14188e-06 0 -5.88701e-06 1.20228e-06 0 -6.45842e-06 1.26068e-06 0 -7.0589e-06 1.31348e-06 0 -7.68618e-06 1.35549e-06 0 -8.33568e-06 1.37922e-06 0 -8.99957e-06 1.37394e-06 0 -9.66522e-06 1.32427e-06 0 -1.03132e-05 1.20823e-06 0 -1.09139e-05 9.94596e-07 0 -1.1423e-05 6.39418e-07 0 -1.17737e-05 8.22179e-08 0 -1.18635e-05 -7.56099e-07 0 -1.15338e-05 -1.96758e-06 0 -1.05335e-05 -3.62154e-06 0 -8.49611e-06 -5.65683e-06 0 -5.03416e-06 -7.62053e-06 0 -2.82113e-07 -8.57074e-06 0 0 7.78921e-07 0 -3.0732e-07 7.81687e-07 0 -6.16841e-07 7.89995e-07 0 -9.30775e-07 8.03868e-07 0 -1.25135e-06 8.2334e-07 0 -1.5808e-06 8.48453e-07 0 -1.92141e-06 8.79247e-07 0 -2.27548e-06 9.15745e-07 0 -2.64533e-06 9.57941e-07 0 -3.03328e-06 1.00577e-06 0 -3.44167e-06 1.05908e-06 0 -3.87278e-06 1.11757e-06 0 -4.32881e-06 1.18073e-06 0 -4.81181e-06 1.24777e-06 0 -5.32354e-06 1.31745e-06 0 -5.86537e-06 1.3879e-06 0 -6.438e-06 1.45638e-06 0 -7.04121e-06 1.51889e-06 0 -7.67341e-06 1.56965e-06 0 -8.33099e-06 1.60031e-06 0 -9.00745e-06 1.59891e-06 0 -9.69215e-06 1.54829e-06 0 -1.03683e-05 1.42388e-06 0 -1.10105e-05 1.19062e-06 0 -1.15793e-05 7.9878e-07 0 -1.2015e-05 1.78792e-07 0 -1.22222e-05 -7.63335e-07 0 -1.20457e-05 -2.14537e-06 0 -1.1217e-05 -4.07891e-06 0 -9.28981e-06 -6.55716e-06 0 -5.66844e-06 -9.08655e-06 0 -3.25686e-07 -1.03708e-05 0 0 8.80917e-07 0 -3.05352e-07 8.8405e-07 0 -6.12901e-07 8.93459e-07 0 -9.24851e-07 9.0917e-07 0 -1.24342e-06 9.31225e-07 0 -1.57087e-06 9.59675e-07 0 -1.90945e-06 9.94567e-07 0 -2.26149e-06 1.03594e-06 0 -2.62931e-06 1.08378e-06 0 -3.01527e-06 1.13805e-06 0 -3.42175e-06 1.19857e-06 0 -3.85108e-06 1.26503e-06 0 -4.30555e-06 1.3369e-06 0 -4.78733e-06 1.41331e-06 0 -5.29838e-06 1.49293e-06 0 -5.84029e-06 1.57372e-06 0 -6.41416e-06 1.65272e-06 0 -7.02029e-06 1.72558e-06 0 -7.6578e-06 1.786e-06 0 -8.32415e-06 1.82491e-06 0 -9.01435e-06 1.82927e-06 0 -9.71993e-06 1.7804e-06 0 -1.04272e-05 1.65146e-06 0 -1.1115e-05 1.40406e-06 0 -1.17501e-05 9.83231e-07 0 -1.22811e-05 3.10906e-07 0 -1.26224e-05 -7.21781e-07 0 -1.26281e-05 -2.26086e-06 0 -1.20204e-05 -4.47179e-06 0 -1.02753e-05 -7.44073e-06 0 -6.51654e-06 -1.06928e-05 0 -3.71214e-07 -1.24729e-05 0 0 9.82218e-07 0 -3.03141e-07 9.85716e-07 0 -6.08472e-07 9.96222e-07 0 -9.18192e-07 1.01377e-06 0 -1.23452e-06 1.0384e-06 0 -1.55969e-06 1.07018e-06 0 -1.896e-06 1.10917e-06 0 -2.24574e-06 1.15541e-06 0 -2.61128e-06 1.20891e-06 0 -2.99499e-06 1.26963e-06 0 -3.39929e-06 1.33739e-06 0 -3.82658e-06 1.41189e-06 0 -4.27925e-06 1.49256e-06 0 -4.7596e-06 1.57849e-06 0 -5.26977e-06 1.66826e-06 0 -5.81166e-06 1.75973e-06 0 -6.38673e-06 1.84973e-06 0 -6.99585e-06 1.93363e-06 0 -7.63895e-06 2.0047e-06 0 -8.31463e-06 2.05329e-06 0 -9.0195e-06 2.06546e-06 0 -9.74744e-06 2.02129e-06 0 -1.04881e-05 1.89204e-06 0 -1.12251e-05 1.63655e-06 0 -1.19322e-05 1.19529e-06 0 -1.25676e-05 4.82706e-07 0 -1.30589e-05 -6.24356e-07 0 -1.32754e-05 -2.301e-06 0 -1.29471e-05 -4.77674e-06 0 -1.14832e-05 -8.27566e-06 0 -7.66484e-06 -1.24618e-05 0 -4.58291e-07 -1.49834e-05 0 0 1.08274e-06 0 -3.00687e-07 1.0866e-06 0 -6.03556e-07 1.0982e-06 0 -9.10799e-07 1.11758e-06 0 -1.22463e-06 1.14478e-06 0 -1.54728e-06 1.17988e-06 0 -1.88105e-06 1.22296e-06 0 -2.22824e-06 1.27407e-06 0 -2.59122e-06 1.33324e-06 0 -2.97242e-06 1.40042e-06 0 -3.37427e-06 1.47547e-06 0 -3.79927e-06 1.55806e-06 0 -4.24988e-06 1.64763e-06 0 -4.72855e-06 1.74323e-06 0 -5.23764e-06 1.8434e-06 0 -5.77933e-06 1.94589e-06 0 -6.35551e-06 2.0474e-06 0 -6.96763e-06 2.14307e-06 0 -7.61647e-06 2.22586e-06 0 -8.30183e-06 2.28565e-06 0 -9.02205e-06 2.30783e-06 0 -9.77347e-06 2.2715e-06 0 -1.05493e-05 2.14647e-06 0 -1.13384e-05 1.8894e-06 0 -1.2122e-05 1.43713e-06 0 -1.28694e-05 6.97844e-07 0 -1.35251e-05 -4.64421e-07 0 -1.39796e-05 -2.25215e-06 0 -1.39943e-05 -4.96609e-06 0 -1.29447e-05 -9.00832e-06 0 -9.24238e-06 -1.44048e-05 0 -5.52121e-07 -1.81449e-05 0 0 1.18241e-06 0 -2.97991e-07 1.18663e-06 0 -5.98154e-07 1.19932e-06 0 -9.02674e-07 1.22052e-06 0 -1.21376e-06 1.25028e-06 0 -1.53364e-06 1.2887e-06 0 -1.86461e-06 1.33586e-06 0 -2.20898e-06 1.39184e-06 0 -2.56915e-06 1.45667e-06 0 -2.94755e-06 1.53034e-06 0 -3.34669e-06 1.6127e-06 0 -3.76911e-06 1.70345e-06 0 -4.21739e-06 1.80203e-06 0 -4.69412e-06 1.90746e-06 0 -5.20188e-06 2.01827e-06 0 -5.74316e-06 2.13215e-06 0 -6.32029e-06 2.24569e-06 0 -6.93532e-06 2.35391e-06 0 -7.58993e-06 2.44953e-06 0 -8.28513e-06 2.52212e-06 0 -9.02114e-06 2.5566e-06 0 -9.79667e-06 2.53143e-06 0 -1.06091e-05 2.41538e-06 0 -1.14518e-05 2.16365e-06 0 -1.23163e-05 1.71041e-06 0 -1.31797e-05 9.59382e-07 0 -1.40146e-05 -2.36208e-07 0 -1.47255e-05 -2.10096e-06 0 -1.5157e-05 -5.009e-06 0 -1.46714e-05 -9.55879e-06 0 -1.14485e-05 -1.64806e-05 0 -7.79682e-07 -2.23869e-05 0 0 1.28113e-06 0 -2.95053e-07 1.28572e-06 0 -5.92268e-07 1.29949e-06 0 -8.93821e-07 1.3225e-06 0 -1.20191e-06 1.35482e-06 0 -1.51877e-06 1.39655e-06 0 -1.84668e-06 1.44778e-06 0 -2.18797e-06 1.50862e-06 0 -2.54505e-06 1.57912e-06 0 -2.92038e-06 1.65929e-06 0 -3.31652e-06 1.749e-06 0 -3.73607e-06 1.84797e-06 0 -4.18173e-06 1.95565e-06 0 -4.65624e-06 2.07109e-06 0 -5.1624e-06 2.19278e-06 0 -5.70301e-06 2.31842e-06 0 -6.28085e-06 2.44455e-06 0 -6.8986e-06 2.5661e-06 0 -7.55887e-06 2.67573e-06 0 -8.26386e-06 2.76274e-06 0 -9.01583e-06 2.81196e-06 0 -9.81572e-06 2.80124e-06 0 -1.06656e-05 2.69927e-06 0 -1.15627e-05 2.4598e-06 0 -1.25104e-05 2.01652e-06 0 -1.3493e-05 1.26934e-06 0 -1.45161e-05 6.4926e-08 0 -1.55015e-05 -1.83527e-06 0 -1.64052e-05 -4.87693e-06 0 -1.6672e-05 -9.81097e-06 0 -1.45345e-05 -1.8552e-05 0 -1.03998e-06 -2.85467e-05 0 0 1.37884e-06 0 -2.91875e-07 1.38379e-06 0 -5.859e-07 1.39864e-06 0 -8.84242e-07 1.42346e-06 0 -1.18909e-06 1.45832e-06 0 -1.50267e-06 1.50334e-06 0 -1.82726e-06 1.55864e-06 0 -2.16521e-06 1.62433e-06 0 -2.51892e-06 1.7005e-06 0 -2.8909e-06 1.78717e-06 0 -3.28375e-06 1.88427e-06 0 -3.70013e-06 1.99152e-06 0 -4.14287e-06 2.10841e-06 0 -4.61485e-06 2.23401e-06 0 -5.1191e-06 2.36684e-06 0 -5.65872e-06 2.50461e-06 0 -6.23698e-06 2.6439e-06 0 -6.85714e-06 2.77959e-06 0 -7.52285e-06 2.90439e-06 0 -8.23736e-06 3.00748e-06 0 -9.00521e-06 3.07388e-06 0 -9.82923e-06 3.08103e-06 0 -1.07166e-05 2.99825e-06 0 -1.16684e-05 2.77825e-06 0 -1.26995e-05 2.35598e-06 0 -1.38043e-05 1.62891e-06 0 -1.5015e-05 4.42761e-07 0 -1.62978e-05 -1.4494e-06 0 -1.76859e-05 -4.53446e-06 0 -1.89254e-05 -9.67583e-06 0 -1.87647e-05 -2.00216e-05 0 -1.75697e-06 -3.94379e-05 0 0 1.47545e-06 0 -2.88458e-07 1.48075e-06 0 -5.79054e-07 1.49668e-06 0 -8.7394e-07 1.52329e-06 0 -1.1753e-06 1.56069e-06 0 -1.48534e-06 1.60899e-06 0 -1.80636e-06 1.66834e-06 0 -2.14069e-06 1.73887e-06 0 -2.49077e-06 1.82071e-06 0 -2.85911e-06 1.9139e-06 0 -3.24836e-06 2.01841e-06 0 -3.66127e-06 2.134e-06 0 -4.10075e-06 2.26019e-06 0 -4.56988e-06 2.39612e-06 0 -5.07183e-06 2.54034e-06 0 -5.61019e-06 2.69064e-06 0 -6.18834e-06 2.84361e-06 0 -6.81087e-06 2.99429e-06 0 -7.48091e-06 3.13534e-06 0 -8.20595e-06 3.25637e-06 0 -8.98633e-06 3.34204e-06 0 -9.83964e-06 3.37108e-06 0 -1.07529e-05 3.31163e-06 0 -1.178e-05 3.1197e-06 0 -1.28527e-05 2.72789e-06 0 -1.41559e-05 2.03852e-06 0 -1.54089e-05 9.01032e-07 0 -1.72584e-05 -9.5104e-07 0 -1.86621e-05 -3.9252e-06 0 -2.17844e-05 -9.19856e-06 0 -2.37153e-05 -1.94009e-05 0 -4.93784e-06 -6.0409e-05 0 0 1.57088e-06 0 -2.84803e-07 1.57654e-06 0 -5.7173e-07 1.59353e-06 0 -8.6292e-07 1.62193e-06 0 -1.16054e-06 1.66184e-06 0 -1.4668e-06 1.71341e-06 0 -1.78398e-06 1.77679e-06 0 -2.11443e-06 1.85216e-06 0 -2.46058e-06 1.93965e-06 0 -2.82499e-06 2.03937e-06 0 -3.21034e-06 2.15131e-06 0 -3.61945e-06 2.27529e-06 0 -4.05538e-06 2.41089e-06 0 -4.5212e-06 2.55729e-06 0 -5.02068e-06 2.71317e-06 0 -5.55692e-06 2.87632e-06 0 -6.13544e-06 3.0436e-06 0 -6.75794e-06 3.20994e-06 0 -7.43574e-06 3.36864e-06 0 -8.16256e-06 3.50883e-06 0 -8.97112e-06 3.6169e-06 0 -9.82013e-06 3.67e-06 0 -1.08224e-05 3.64078e-06 0 -1.17972e-05 3.48133e-06 0 -1.31529e-05 3.13415e-06 0 -1.41834e-05 2.49677e-06 0 -1.63612e-05 1.43031e-06 0 -1.71029e-05 -3.04676e-07 0 -2.15754e-05 -3.16591e-06 0 -2.12454e-05 -7.95261e-06 0 -3.12742e-05 -1.79819e-05 0 -0.00012778 -4.34227e-05 0 </DataArray> 
</PointData> 
<Points> 
<DataArray type="Float32" NumberOfComponents="3"> 