<?xml version="1.0"?> 
<VTKFile type="StructuredGrid" version="0.1"> 
<StructuredGrid WholeExtent="0 31 0 31 0 0"> 
<Piece Extent="0 31 0 31 0 0"> 
<PointData>
<DataArray type="Float32" Name="B" format="ascii" NumberOfComponents="3"> 
3.89299e-06 8.13216e-06 0 7.01733e-06 -2.42619e-06 0 5.6282e-06 -5.7311e-07 0 4.24798e-06 -8.10393e-08 0 3.9411e-06 3.79165e-07 0 3.34704e-06 6.11512e-07 0 3.07185e-06 7.55867e-07 0 2.72947e-06 8.32421e-07 0 2.49172e-06 8.6017e-07 0 2.25081e-06 8.62559e-07 0 2.05104e-06 8.42961e-07 0 1.86231e-06 8.13579e-07 0 1.69467e-06 7.7602e-07 0 1.5393e-06 7.35689e-07 0 1.39766e-06 6.93676e-07 0 1.26673e-06 6.52238e-07 0 1.14606e-06 6.12012e-07 0 1.03422e-06 5.73894e-07 0 9.30445e-07 5.38179e-07 0 8.33821e-07 5.05178e-07 0 7.43613e-07 4.74981e-07 0 6.591e-07 4.47652e-07 0 5.79632e-07 4.23173e-07 0 5.04593e-07 4.01511e-07 0 4.33409e-07 3.82606e-07 0 3.65533e-07 3.66394e-07 0 3.00447e-07 3.52807e-07 0 2.37653e-07 3.41785e-07 0 1.76671e-07 3.33272e-07 0 1.17038e-07 3.27224e-07 0 5.82965e-08 3.23608e-07 0 0 3.22406e-07 0 9.05672e-06 8.85708e-07 0 7.27813e-06 4.57442e-07 0 5.7898e-06 5.24038e-07 0 4.81423e-06 7.47797e-07 0 4.0692e-06 9.32859e-07 0 3.54445e-06 1.05052e-06 0 3.11375e-06 1.11074e-06 0 2.77222e-06 1.12899e-06 0 2.47987e-06 1.11771e-06 0 2.23153e-06 1.08696e-06 0 2.01297e-06 1.0437e-06 0 1.82015e-06 9.93229e-07 0 1.64722e-06 9.39105e-07 0 1.49141e-06 8.83945e-07 0 1.34985e-06 8.29469e-07 0 1.22068e-06 7.76883e-07 0 1.10223e-06 7.26947e-07 0 9.93204e-07 6.8015e-07 0 8.92448e-07 6.36765e-07 0 7.99e-07 5.9693e-07 0 7.12e-07 5.60683e-07 0 6.30686e-07 5.28001e-07 0 5.54366e-07 4.98821e-07 0 4.82405e-07 4.73057e-07 0 4.14219e-07 4.50613e-07 0 3.49261e-07 4.31393e-07 0 2.87016e-07 4.15303e-07 0 2.26995e-07 4.02261e-07 0 1.6873e-07 3.92194e-07 0 1.11769e-07 3.85046e-07 0 5.56697e-08 3.80773e-07 0 0 3.79352e-07 0 8.3509e-06 2.10698e-06 0 7.02585e-06 1.90085e-06 0 5.8429e-06 1.66846e-06 0 4.8777e-06 1.59936e-06 0 4.14297e-06 1.56992e-06 0 3.56683e-06 1.54463e-06 0 3.11345e-06 1.50687e-06 0 2.74334e-06 1.45547e-06 0 2.43684e-06 1.39348e-06 0 2.17658e-06 1.32414e-06 0 1.95258e-06 1.25102e-06 0 1.75667e-06 1.17658e-06 0 1.58354e-06 1.10296e-06 0 1.42895e-06 1.0315e-06 0 1.28987e-06 9.63261e-07 0 1.16387e-06 8.98855e-07 0 1.04906e-06 8.38696e-07 0 9.43919e-07 7.82979e-07 0 8.47168e-07 7.31782e-07 0 7.5774e-07 6.85086e-07 0 6.74715e-07 6.42812e-07 0 5.97289e-07 6.04845e-07 0 5.24748e-07 5.7105e-07 0 4.5645e-07 5.41281e-07 0 3.91808e-07 5.15397e-07 0 3.30281e-07 4.93263e-07 0 2.71366e-07 4.74754e-07 0 2.14586e-07 4.59764e-07 0 1.59488e-07 4.48201e-07 0 1.05639e-07 4.39994e-07 0 5.26142e-08 4.3509e-07 0 0 4.33459e-07 0 7.86581e-06 3.73388e-06 0 6.64585e-06 3.07479e-06 0 5.60317e-06 2.69046e-06 0 4.74092e-06 2.40935e-06 0 4.04035e-06 2.21036e-06 0 3.47964e-06 2.05262e-06 0 3.02585e-06 1.91694e-06 0 2.65508e-06 1.793e-06 0 2.34675e-06 1.67621e-06 0 2.08672e-06 1.56519e-06 0 1.86401e-06 1.45941e-06 0 1.67086e-06 1.35913e-06 0 1.50136e-06 1.26451e-06 0 1.35115e-06 1.17582e-06 0 1.21687e-06 1.09315e-06 0 1.09592e-06 1.01656e-06 0 9.86272e-07 9.45974e-07 0 8.86276e-07 8.81275e-07 0 7.9459e-07 8.22288e-07 0 7.10096e-07 7.68813e-07 0 6.31845e-07 7.20631e-07 0 5.59018e-07 6.77517e-07 0 4.90898e-07 6.39251e-07 0 4.26846e-07 6.05622e-07 0 3.66287e-07 5.76434e-07 0 3.08695e-07 5.51509e-07 0 2.53583e-07 5.3069e-07 0 2.00496e-07 5.13843e-07 0 1.49001e-07 5.00856e-07 0 9.86853e-08 4.91642e-07 0 4.91489e-08 4.86138e-07 0 0 4.84308e-07 0 7.13842e-06 4.79195e-06 0 6.09141e-06 4.14249e-06 0 5.19147e-06 3.57682e-06 0 4.43169e-06 3.14711e-06 0 3.80225e-06 2.81016e-06 0 3.28385e-06 2.54056e-06 0 2.85758e-06 2.31634e-06 0 2.5045e-06 2.12356e-06 0 2.20938e-06 1.95358e-06 0 1.9598e-06 1.80092e-06 0 1.74631e-06 1.66242e-06 0 1.56159e-06 1.53594e-06 0 1.4001e-06 1.42015e-06 0 1.25754e-06 1.31407e-06 0 1.13062e-06 1.21697e-06 0 1.01675e-06 1.12824e-06 0 9.13875e-07 1.04736e-06 0 8.20357e-07 9.7385e-07 0 7.34848e-07 9.07279e-07 0 6.56231e-07 8.47247e-07 0 5.83568e-07 7.93382e-07 0 5.16053e-07 7.45343e-07 0 4.52989e-07 7.02819e-07 0 3.93757e-07 6.65526e-07 0 3.37806e-07 6.33212e-07 0 2.84634e-07 6.05653e-07 0 2.33781e-07 5.82659e-07 0 1.84816e-07 5.64066e-07 0 1.37336e-07 5.49741e-07 0 9.09541e-08 5.39583e-07 0 4.52969e-08 5.33517e-07 0 0 5.315e-07 0 6.27481e-06 5.91759e-06 0 5.38999e-06 5.02925e-06 0 4.63511e-06 4.34225e-06 0 3.99333e-06 3.78848e-06 0 3.45148e-06 3.34505e-06 0 2.99697e-06 2.98416e-06 0 2.61627e-06 2.68506e-06 0 2.29668e-06 2.43202e-06 0 2.02683e-06 2.21382e-06 0 1.79722e-06 2.02278e-06 0 1.6001e-06 1.85346e-06 0 1.42933e-06 1.70214e-06 0 1.28004e-06 1.5661e-06 0 1.14841e-06 1.44337e-06 0 1.0314e-06 1.33243e-06 0 9.26635e-07 1.23209e-06 0 8.32175e-07 1.14138e-06 0 7.46469e-07 1.05949e-06 0 6.68242e-07 9.85737e-07 0 5.96435e-07 9.19517e-07 0 5.30159e-07 8.60312e-07 0 4.68652e-07 8.07661e-07 0 4.11257e-07 7.6116e-07 0 3.57396e-07 7.20456e-07 0 3.06552e-07 6.85238e-07 0 2.5826e-07 6.55239e-07 0 2.12093e-07 6.30231e-07 0 1.67656e-07 6.10025e-07 0 1.24576e-07 5.94466e-07 0 8.24995e-08 5.83436e-07 0 4.10852e-08 5.76852e-07 0 0 5.74663e-07 0 5.25033e-06 6.72989e-06 0 4.56076e-06 5.76319e-06 0 3.96695e-06 4.96584e-06 0 3.45442e-06 4.32224e-06 0 3.01356e-06 3.79774e-06 0 2.63623e-06 3.36696e-06 0 2.31419e-06 3.00855e-06 0 2.03941e-06 2.70612e-06 0 1.80437e-06 2.44737e-06 0 1.60238e-06 2.22312e-06 0 1.42776e-06 2.02671e-06 0 1.27575e-06 1.85316e-06 0 1.14246e-06 1.69884e-06 0 1.02474e-06 1.56094e-06 0 9.20038e-07 1.43733e-06 0 8.26275e-07 1.32633e-06 0 7.41768e-07 1.2266e-06 0 6.65137e-07 1.13702e-06 0 5.95242e-07 1.05667e-06 0 5.3113e-07 9.84785e-07 0 4.71996e-07 9.20696e-07 0 4.17153e-07 8.63835e-07 0 3.66004e-07 8.13713e-07 0 3.18025e-07 7.69906e-07 0 2.72752e-07 7.32052e-07 0 2.29765e-07 6.9984e-07 0 1.88679e-07 6.73008e-07 0 1.4914e-07 6.51342e-07 0 1.10814e-07 6.34667e-07 0 7.33841e-08 6.2285e-07 0 3.65452e-08 6.15797e-07 0 0 6.13452e-07 0 4.10721e-06 7.3749e-06 0 3.63786e-06 6.30279e-06 0 3.21832e-06 5.44101e-06 0 2.84391e-06 4.73656e-06 0 2.51213e-06 4.15783e-06 0 2.22019e-06 3.67813e-06 0 1.96494e-06 3.27669e-06 0 1.74255e-06 2.93713e-06 0 1.54901e-06 2.64677e-06 0 1.38035e-06 2.39595e-06 0 1.23295e-06 2.17727e-06 0 1.10356e-06 1.98513e-06 0 9.89416e-07 1.81524e-06 0 8.8815e-07 1.66428e-06 0 7.97795e-07 1.52967e-06 0 7.16709e-07 1.40936e-06 0 6.43524e-07 1.30169e-06 0 5.77101e-07 1.20533e-06 0 5.16484e-07 1.11917e-06 0 4.60866e-07 1.04227e-06 0 4.09559e-07 9.73865e-07 0 3.61971e-07 9.13283e-07 0 3.17588e-07 8.5996e-07 0 2.75957e-07 8.13414e-07 0 2.36674e-07 7.73232e-07 0 1.99373e-07 7.39067e-07 0 1.63723e-07 7.10628e-07 0 1.29415e-07 6.87674e-07 0 9.61582e-08 6.70016e-07 0 6.36789e-08 6.57505e-07 0 3.17121e-08 6.5004e-07 0 0 6.47558e-07 0 2.90646e-06 7.73104e-06 0 2.66591e-06 6.64708e-06 0 2.42459e-06 5.75817e-06 0 2.19094e-06 5.02682e-06 0 1.97065e-06 4.41963e-06 0 1.76743e-06 3.9118e-06 0 1.58278e-06 3.48358e-06 0 1.41687e-06 3.1194e-06 0 1.26881e-06 2.80704e-06 0 1.13715e-06 2.53691e-06 0 1.0202e-06 2.30151e-06 0 9.16217e-07 2.09501e-06 0 8.23552e-07 1.91283e-06 0 7.40701e-07 1.75137e-06 0 6.66329e-07 1.60778e-06 0 5.99278e-07 1.47978e-06 0 5.38549e-07 1.36552e-06 0 4.83284e-07 1.26348e-06 0 4.32748e-07 1.17241e-06 0 3.86307e-07 1.09129e-06 0 3.43415e-07 1.01923e-06 0 3.03595e-07 9.55486e-07 0 2.6643e-07 8.99444e-07 0 2.31548e-07 8.50567e-07 0 1.98617e-07 8.08405e-07 0 1.67336e-07 7.72578e-07 0 1.37429e-07 7.42769e-07 0 1.08639e-07 7.1872e-07 0 8.07269e-08 7.00224e-07 0 5.34622e-08 6.87123e-07 0 2.66249e-08 6.79306e-07 0 0 6.76708e-07 0 1.7163e-06 7.84646e-06 0 1.69437e-06 6.79178e-06 0 1.62302e-06 5.92073e-06 0 1.52404e-06 5.19375e-06 0 1.41187e-06 4.58301e-06 0 1.29578e-06 4.06654e-06 0 1.18174e-06 3.62694e-06 0 1.07325e-06 3.2503e-06 0 9.72165e-07 2.92543e-06 0 8.79231e-07 2.64341e-06 0 7.94492e-07 2.39707e-06 0 7.17579e-07 2.18073e-06 0 6.47907e-07 1.98982e-06 0 5.84801e-07 1.82069e-06 0 5.27569e-07 1.67038e-06 0 4.7555e-07 1.53653e-06 0 4.28131e-07 1.41716e-06 0 3.84756e-07 1.31068e-06 0 3.4493e-07 1.21575e-06 0 3.08211e-07 1.13127e-06 0 2.74208e-07 1.05628e-06 0 2.42573e-07 9.90008e-07 0 2.12994e-07 9.31775e-07 0 1.85193e-07 8.81017e-07 0 1.58914e-07 8.37253e-07 0 1.33928e-07 8.00079e-07 0 1.1002e-07 7.6916e-07 0 8.69894e-08 7.44221e-07 0 6.46491e-08 7.25044e-07 0 4.28191e-08 7.11463e-07 0 2.13258e-08 7.03361e-07 0 0 7.00668e-07 0 6.07039e-07 7.7234e-06 0 7.70272e-07 6.75798e-06 0 8.47673e-07 5.94016e-06 0 8.69646e-07 5.24554e-06 0 8.56397e-07 4.65283e-06 0 8.21726e-07 4.14496e-06 0 7.7487e-07 3.70781e-06 0 7.22041e-07 3.32978e-06 0 6.67258e-07 3.00128e-06 0 6.13054e-07 2.71445e-06 0 5.60926e-07 2.46284e-06 0 5.11686e-07 2.24117e-06 0 4.65695e-07 2.04515e-06 0 4.23032e-07 1.87126e-06 0 3.83606e-07 1.71661e-06 0 3.47233e-07 1.57884e-06 0 3.13678e-07 1.45596e-06 0 2.82689e-07 1.34637e-06 0 2.54013e-07 1.24868e-06 0 2.27406e-07 1.16177e-06 0 2.0264e-07 1.08465e-06 0 1.79499e-07 1.0165e-06 0 1.57786e-07 9.56648e-07 0 1.37317e-07 9.04486e-07 0 1.17923e-07 8.59522e-07 0 9.94446e-08 8.21336e-07 0 8.17339e-08 7.89579e-07 0 6.46508e-08 7.63969e-07 0 4.80622e-08 7.44277e-07 0 3.18399e-08 7.30333e-07 0 1.58597e-08 7.22014e-07 0 0 7.19249e-07 0 -3.74453e-07 7.42394e-06 0 -7.05514e-08 6.57564e-06 0 1.26258e-07 5.83753e-06 0 2.49321e-07 5.19596e-06 0 3.21664e-07 4.63832e-06 0 3.59322e-07 4.15304e-06 0 3.7363e-07 3.7299e-06 0 3.72535e-07 3.36001e-06 0 3.61607e-07 3.0357e-06 0 3.44688e-07 2.75047e-06 0 3.24401e-07 2.49881e-06 0 3.02499e-07 2.27609e-06 0 2.80127e-07 2.07846e-06 0 2.5801e-07 1.90268e-06 0 2.36584e-07 1.74604e-06 0 2.16095e-07 1.60629e-06 0 1.96659e-07 1.48154e-06 0 1.7831e-07 1.37018e-06 0 1.61029e-07 1.27088e-06 0 1.44765e-07 1.18249e-06 0 1.29449e-07 1.10405e-06 0 1.15001e-07 1.03474e-06 0 1.01336e-07 9.73841e-07 0 8.83702e-08 9.20772e-07 0 7.60174e-08 8.75024e-07 0 6.41949e-08 8.36173e-07 0 5.28217e-08 8.03863e-07 0 4.18188e-08 7.77806e-07 0 3.11096e-08 7.57772e-07 0 2.0619e-08 7.43584e-07 0 1.02734e-08 7.3512e-07 0 0 7.32308e-07 0 -1.20316e-06 7.00002e-06 0 -8.06901e-07 6.28365e-06 0 -5.23164e-07 5.63835e-06 0 -3.21363e-07 5.06268e-06 0 -1.79193e-07 4.55166e-06 0 -8.02687e-08 4.0992e-06 0 -1.2611e-08 3.69896e-06 0 3.25833e-08 3.34484e-06 0 6.17409e-08 3.03121e-06 0 7.95468e-08 2.75306e-06 0 8.93906e-08 2.50595e-06 0 9.37129e-08 2.28604e-06 0 9.42578e-08 2.09001e-06 0 9.22641e-08 1.91502e-06 0 8.86049e-08 1.75864e-06 0 8.38909e-08 1.61881e-06 0 7.85453e-08 1.49375e-06 0 7.2858e-08 1.38198e-06 0 6.70247e-08 1.28219e-06 0 6.11742e-08 1.1933e-06 0 5.53889e-08 1.11436e-06 0 4.97181e-08 1.04456e-06 0 4.41883e-08 9.83222e-07 0 3.88098e-08 9.2975e-07 0 3.3582e-08 8.83643e-07 0 2.84965e-08 8.44479e-07 0 2.35394e-08 8.11904e-07 0 1.86934e-08 7.85631e-07 0 1.39385e-08 7.65428e-07 0 9.25323e-09 7.5112e-07 0 4.61481e-09 7.42585e-07 0 0 7.39748e-07 0 -1.88015e-06 6.50882e-06 0 -1.43258e-06 5.91914e-06 0 -1.09197e-06 5.36916e-06 0 -8.33439e-07 4.86454e-06 0 -6.37506e-07 4.40641e-06 0 -4.89134e-07 3.9932e-06 0 -3.76775e-07 3.62199e-06 0 -2.91625e-07 3.28926e-06 0 -2.26986e-07 2.99135e-06 0 -1.7779e-07 2.72471e-06 0 -1.40213e-07 2.486e-06 0 -1.1138e-07 2.27219e-06 0 -8.91331e-08 2.0806e-06 0 -7.18592e-08 1.90881e-06 0 -5.83505e-08 1.75475e-06 0 -4.77038e-08 1.61658e-06 0 -3.92425e-08 1.49273e-06 0 -3.24587e-08 1.38181e-06 0 -2.697e-08 1.28263e-06 0 -2.24869e-08 1.19417e-06 0 -1.87891e-08 1.11553e-06 0 -1.57079e-08 1.04595e-06 0 -1.31128e-08 9.84752e-07 0 -1.09024e-08 9.31375e-07 0 -8.99644e-09 8.85331e-07 0 -7.33101e-09 8.46205e-07 0 -5.85426e-09 8.13654e-07 0 -4.52336e-09 7.87394e-07 0 -3.3022e-09 7.67198e-07 0 -2.15951e-09 7.52893e-07 0 -1.06737e-09 7.44358e-07 0 0 7.41522e-07 0 -2.42011e-06 5.98998e-06 0 -1.95235e-06 5.51393e-06 0 -1.57963e-06 5.05379e-06 0 -1.28365e-06 4.61951e-06 0 -1.04885e-06 4.21604e-06 0 -8.62437e-07 3.84511e-06 0 -7.14086e-07 3.50651e-06 0 -5.95592e-07 3.19888e-06 0 -5.00478e-07 2.92027e-06 0 -4.23666e-07 2.66847e-06 0 -3.61193e-07 2.44118e-06 0 -3.09975e-07 2.23619e-06 0 -2.67619e-07 2.05141e-06 0 -2.32268e-07 1.88493e-06 0 -2.02482e-07 1.735e-06 0 -1.77141e-07 1.60009e-06 0 -1.55373e-07 1.4788e-06 0 -1.36496e-07 1.36992e-06 0 -1.19971e-07 1.27239e-06 0 -1.05371e-07 1.18524e-06 0 -9.23569e-08 1.10768e-06 0 -8.06524e-08 1.03896e-06 0 -7.00329e-08 9.78477e-07 0 -6.03128e-08 9.25681e-07 0 -5.13364e-08 8.8011e-07 0 -4.29713e-08 8.41368e-07 0 -3.51032e-08 8.09123e-07 0 -2.76312e-08 7.83101e-07 0 -2.0465e-08 7.63084e-07 0 -1.3522e-08 7.48904e-07 0 -6.72495e-09 7.40442e-07 0 0 7.3763e-07 0 -2.84491e-06 5.47168e-06 0 -2.37743e-06 5.09164e-06 0 -1.99101e-06 4.71175e-06 0 -1.67316e-06 4.34315e-06 0 -1.41224e-06 3.99281e-06 0 -1.19803e-06 3.66452e-06 0 -1.02183e-06 3.35995e-06 0 -8.76413e-07 3.07943e-06 0 -7.55855e-07 2.82239e-06 0 -6.55352e-07 2.58773e-06 0 -5.71034e-07 2.3741e-06 0 -4.99799e-07 2.18001e-06 0 -4.39169e-07 2.00397e-06 0 -3.87165e-07 1.84451e-06 0 -3.42208e-07 1.70028e-06 0 -3.03037e-07 1.56999e-06 0 -2.68638e-07 1.45248e-06 0 -2.38199e-07 1.34672e-06 0 -2.11059e-07 1.25176e-06 0 -1.86682e-07 1.16676e-06 0 -1.64623e-07 1.09098e-06 0 -1.44518e-07 1.02376e-06 0 -1.26059e-07 9.64526e-07 0 -1.08983e-07 9.12774e-07 0 -9.3068e-08 8.68071e-07 0 -7.81171e-08 8.30044e-07 0 -6.39577e-08 7.98378e-07 0 -5.04345e-08 7.72813e-07 0 -3.74056e-08 7.53142e-07 0 -2.47392e-08 7.39203e-07 0 -1.23107e-08 7.30885e-07 0 0 7.2812e-07 0 -3.17617e-06 4.96951e-06 0 -2.72142e-06 4.66846e-06 0 -2.33399e-06 4.35767e-06 0 -2.00598e-06 4.04805e-06 0 -1.72919e-06 3.7472e-06 0 -1.49586e-06 3.45996e-06 0 -1.29901e-06 3.18922e-06 0 -1.13256e-06 2.93643e-06 0 -9.91334e-07 2.70206e-06 0 -8.70981e-07 2.48594e-06 0 -7.67896e-07 2.28746e-06 0 -6.79103e-07 2.10579e-06 0 -6.02161e-07 1.93995e-06 0 -5.35069e-07 1.7889e-06 0 -4.76192e-07 1.65162e-06 0 -4.24192e-07 1.52712e-06 0 -3.7797e-07 1.41445e-06 0 -3.36623e-07 1.31274e-06 0 -2.99403e-07 1.22119e-06 0 -2.65685e-07 1.13908e-06 0 -2.34947e-07 1.06574e-06 0 -2.06747e-07 1.00059e-06 0 -1.80706e-07 9.43103e-07 0 -1.56499e-07 8.9283e-07 0 -1.33839e-07 8.49366e-07 0 -1.12474e-07 8.12367e-07 0 -9.21782e-08 7.81539e-07 0 -7.27451e-08 7.5664e-07 0 -5.39848e-08 7.37474e-07 0 -3.57193e-08 7.2389e-07 0 -1.7779e-08 7.15782e-07 0 0 7.13087e-07 0 -3.43324e-06 4.49185e-06 0 -2.99784e-06 4.25445e-06 0 -2.61751e-06 4.00183e-06 0 -2.28766e-06 3.74375e-06 0 -2.00282e-06 3.48764e-06 0 -1.75738e-06 3.23869e-06 0 -1.54595e-06 3.00039e-06 0 -1.36363e-06 2.7749e-06 0 -1.20606e-06 2.56343e-06 0 -1.06945e-06 2.36646e-06 0 -9.50555e-07 2.184e-06 0 -8.46631e-07 2.01574e-06 0 -7.55362e-07 1.86113e-06 0 -6.74806e-07 1.71952e-06 0 -6.03339e-07 1.5902e-06 0 -5.39601e-07 1.47243e-06 0 -4.82454e-07 1.36546e-06 0 -4.30943e-07 1.26861e-06 0 -3.84259e-07 1.1812e-06 0 -3.41721e-07 1.10263e-06 0 -3.02743e-07 1.03231e-06 0 -2.66824e-07 9.69753e-07 0 -2.33528e-07 9.14481e-07 0 -2.02472e-07 8.66086e-07 0 -1.73319e-07 8.24206e-07 0 -1.45766e-07 7.88527e-07 0 -1.19539e-07 7.5878e-07 0 -9.43849e-08 7.34742e-07 0 -7.00707e-08 7.16231e-07 0 -4.6375e-08 7.03108e-07 0 -2.30864e-08 6.95274e-07 0 0 6.92669e-07 0 -3.63197e-06 4.04187e-06 0 -3.21887e-06 3.85537e-06 0 -2.85042e-06 3.65098e-06 0 -2.5243e-06 3.43714e-06 0 -2.2371e-06 3.22063e-06 0 -1.98495e-06 3.00655e-06 0 -1.76389e-06 2.79857e-06 0 -1.57006e-06 2.59925e-06 0 -1.39992e-06 2.41021e-06 0 -1.25028e-06 2.23241e-06 0 -1.11832e-06 2.06632e-06 0 -1.00157e-06 1.912e-06 0 -8.97904e-07 1.7693e-06 0 -8.055e-07 1.63786e-06 0 -7.22794e-07 1.51724e-06 0 -6.4845e-07 1.40692e-06 0 -5.81328e-07 1.30637e-06 0 -5.20454e-07 1.21504e-06 0 -4.64989e-07 1.13239e-06 0 -4.1421e-07 1.05792e-06 0 -3.67492e-07 9.9115e-07 0 -3.24288e-07 9.31641e-07 0 -2.84115e-07 8.7899e-07 0 -2.46548e-07 8.32834e-07 0 -2.11204e-07 7.92852e-07 0 -1.77736e-07 7.58761e-07 0 -1.45828e-07 7.3032e-07 0 -1.15188e-07 7.07323e-07 0 -8.55397e-08 6.89607e-07 0 -5.66245e-08 6.77044e-07 0 -2.81923e-08 6.69542e-07 0 0 6.67048e-07 0 -3.7851e-06 3.62005e-06 0 -3.39496e-06 3.47401e-06 0 -3.04085e-06 3.30927e-06 0 -2.72192e-06 3.13293e-06 0 -2.43631e-06 2.95097e-06 0 -2.18149e-06 2.76811e-06 0 -1.95463e-06 2.58796e-06 0 -1.75285e-06 2.41319e-06 0 -1.57334e-06 2.24566e-06 0 -1.4135e-06 2.08661e-06 0 -1.27092e-06 1.93681e-06 0 -1.14347e-06 1.79663e-06 0 -1.02923e-06 1.66618e-06 0 -9.26536e-07 1.54537e-06 0 -8.33919e-07 1.43397e-06 0 -7.50103e-07 1.33166e-06 0 -6.73979e-07 1.23807e-06 0 -6.04575e-07 1.15278e-06 0 -5.41047e-07 1.0754e-06 0 -4.82652e-07 1.00552e-06 0 -4.28739e-07 9.42732e-07 0 -3.78728e-07 8.86678e-07 0 -3.32106e-07 8.3701e-07 0 -2.88408e-07 7.93416e-07 0 -2.47217e-07 7.55614e-07 0 -2.0815e-07 7.23353e-07 0 -1.70854e-07 6.9642e-07 0 -1.35e-07 6.74631e-07 0 -1.00278e-07 6.57837e-07 0 -6.63922e-08 6.45924e-07 0 -3.3059e-08 6.38809e-07 0 0 6.36443e-07 0 -3.90262e-06 3.2252e-06 0 -3.53477e-06 3.11124e-06 0 -3.19589e-06 2.97893e-06 0 -2.88614e-06 2.83415e-06 0 -2.60469e-06 2.68203e-06 0 -2.35004e-06 2.5268e-06 0 -2.12031e-06 2.37185e-06 0 -1.91339e-06 2.21978e-06 0 -1.72715e-06 2.07254e-06 0 -1.55949e-06 1.93151e-06 0 -1.40845e-06 1.79764e-06 0 -1.27219e-06 1.6715e-06 0 -1.14905e-06 1.55341e-06 0 -1.03752e-06 1.44346e-06 0 -9.36269e-07 1.3416e-06 0 -8.44091e-07 1.24767e-06 0 -7.59928e-07 1.16145e-06 0 -6.82839e-07 1.08263e-06 0 -6.11986e-07 1.01093e-06 0 -5.46626e-07 9.4602e-07 0 -4.86093e-07 8.87589e-07 0 -4.2979e-07 8.35332e-07 0 -3.77178e-07 7.88962e-07 0 -3.27768e-07 7.48212e-07 0 -2.81112e-07 7.12838e-07 0 -2.36797e-07 6.82624e-07 0 -1.94441e-07 6.57381e-07 0 -1.53682e-07 6.36948e-07 0 -1.14181e-07 6.21193e-07 0 -7.5609e-08 6.10012e-07 0 -3.76518e-08 6.03333e-07 0 0 6.01112e-07 0 -3.9924e-06 2.85535e-06 0 -3.64539e-06 2.76679e-06 0 -3.32165e-06 2.66093e-06 0 -3.02195e-06 2.54257e-06 0 -2.74619e-06 2.41606e-06 0 -2.49366e-06 2.28509e-06 0 -2.26316e-06 2.15274e-06 0 -2.05326e-06 2.02145e-06 0 -1.86238e-06 1.89313e-06 0 -1.6889e-06 1.76919e-06 0 -1.53122e-06 1.65068e-06 0 -1.38783e-06 1.53829e-06 0 -1.25728e-06 1.43246e-06 0 -1.13827e-06 1.33343e-06 0 -1.02957e-06 1.24129e-06 0 -9.30083e-07 1.15598e-06 0 -8.38822e-07 1.0774e-06 0 -7.54881e-07 1.00537e-06 0 -6.77447e-07 9.39661e-07 0 -6.05785e-07 8.80044e-07 0 -5.39227e-07 8.26274e-07 0 -4.77169e-07 7.78104e-07 0 -4.19055e-07 7.35299e-07 0 -3.64379e-07 6.97636e-07 0 -3.1267e-07 6.64908e-07 0 -2.63491e-07 6.3693e-07 0 -2.16433e-07 6.13538e-07 0 -1.71111e-07 5.94592e-07 0 -1.27155e-07 5.79977e-07 0 -8.42126e-08 5.69603e-07 0 -4.19398e-08 5.63404e-07 0 0 5.61343e-07 0 -4.06057e-06 2.50812e-06 0 -3.73255e-06 2.43965e-06 0 -3.42321e-06 2.35531e-06 0 -3.13369e-06 2.25903e-06 0 -2.86441e-06 2.15442e-06 0 -2.61519e-06 2.04467e-06 0 -2.38539e-06 1.93249e-06 0 -2.17411e-06 1.82009e-06 0 -1.98022e-06 1.70926e-06 0 -1.80251e-06 1.6014e-06 0 -1.63973e-06 1.49755e-06 0 -1.49063e-06 1.39848e-06 0 -1.35401e-06 1.30469e-06 0 -1.22871e-06 1.21651e-06 0 -1.11366e-06 1.13412e-06 0 -1.00787e-06 1.05756e-06 0 -9.1041e-07 9.86813e-07 0 -8.20429e-07 9.21773e-07 0 -7.37148e-07 8.62299e-07 0 -6.59848e-07 8.08223e-07 0 -5.87872e-07 7.59359e-07 0 -5.2061e-07 7.15514e-07 0 -4.57503e-07 6.76498e-07 0 -3.98028e-07 6.42127e-07 0 -3.41701e-07 6.12231e-07 0 -2.88066e-07 5.86653e-07 0 -2.36694e-07 5.65252e-07 0 -1.87175e-07 5.4791e-07 0 -1.39118e-07 5.34526e-07 0 -9.21478e-08 5.25023e-07 0 -4.58952e-08 5.19343e-07 0 0 5.17454e-07 0 -4.11196e-06 2.18099e-06 0 -3.80089e-06 2.12839e-06 0 -3.50481e-06 2.06158e-06 0 -3.2251e-06 1.98373e-06 0 -2.96251e-06 1.89785e-06 0 -2.71724e-06 1.80662e-06 0 -2.48909e-06 1.71237e-06 0 -2.27754e-06 1.61708e-06 0 -2.08188e-06 1.52237e-06 0 -1.90121e-06 1.42955e-06 0 -1.73457e-06 1.33962e-06 0 -1.58097e-06 1.25335e-06 0 -1.43941e-06 1.17128e-06 0 -1.30891e-06 1.09378e-06 0 -1.18852e-06 1.02109e-06 0 -1.07734e-06 9.53324e-07 0 -9.7453e-07 8.90506e-07 0 -8.79289e-07 8.32605e-07 0 -7.90876e-07 7.79538e-07 0 -7.08598e-07 7.3119e-07 0 -6.31808e-07 6.87424e-07 0 -5.59904e-07 6.48095e-07 0 -4.92323e-07 6.13052e-07 0 -4.28536e-07 5.82148e-07 0 -3.68046e-07 5.5524e-07 0 -3.10384e-07 5.32201e-07 0 -2.55103e-07 5.12912e-07 0 -2.01778e-07 4.97273e-07 0 -1.49998e-07 4.85198e-07 0 -9.93659e-08 4.76622e-07 0 -4.94937e-08 4.71495e-07 0 0 4.6979e-07 0 -4.15035e-06 1.87144e-06 0 -3.85412e-06 1.83136e-06 0 -3.56994e-06 1.77884e-06 0 -3.29931e-06 1.71643e-06 0 -3.0432e-06 1.64658e-06 0 -2.80211e-06 1.57152e-06 0 -2.57613e-06 1.49323e-06 0 -2.36508e-06 1.41343e-06 0 -2.16852e-06 1.33355e-06 0 -1.98585e-06 1.25476e-06 0 -1.81637e-06 1.178e-06 0 -1.65928e-06 1.10399e-06 0 -1.51377e-06 1.03327e-06 0 -1.37901e-06 9.66233e-07 0 -1.25417e-06 9.03133e-07 0 -1.13845e-06 8.44122e-07 0 -1.03109e-06 7.89275e-07 0 -9.3133e-07 7.38598e-07 0 -8.38478e-07 6.92054e-07 0 -7.51866e-07 6.49571e-07 0 -6.70866e-07 6.11053e-07 0 -5.94882e-07 5.76392e-07 0 -5.23354e-07 5.4547e-07 0 -4.5575e-07 5.18172e-07 0 -3.91566e-07 4.94384e-07 0 -3.30322e-07 4.74e-07 0 -2.7156e-07 4.56925e-07 0 -2.14838e-07 4.43073e-07 0 -1.59731e-07 4.32375e-07 0 -1.05825e-07 4.24774e-07 0 -5.27144e-08 4.2023e-07 0 0 4.18718e-07 0 -4.1787e-06 1.57699e-06 0 -3.89521e-06 1.54679e-06 0 -3.62143e-06 1.50596e-06 0 -3.35893e-06 1.45653e-06 0 -3.10882e-06 1.40047e-06 0 -2.87181e-06 1.3396e-06 0 -2.64822e-06 1.27557e-06 0 -2.4381e-06 1.20982e-06 0 -2.24125e-06 1.14359e-06 0 -2.05731e-06 1.0779e-06 0 -1.88576e-06 1.01359e-06 0 -1.726e-06 9.51306e-07 0 -1.57738e-06 8.91562e-07 0 -1.43918e-06 8.34729e-07 0 -1.3107e-06 7.81068e-07 0 -1.19122e-06 7.30748e-07 0 -1.08004e-06 6.83864e-07 0 -9.76471e-07 6.40453e-07 0 -8.79846e-07 6.00507e-07 0 -7.8953e-07 5.63985e-07 0 -7.04912e-07 5.30825e-07 0 -6.2541e-07 5.00948e-07 0 -5.50466e-07 4.74265e-07 0 -4.79548e-07 4.50687e-07 0 -4.1215e-07 4.30125e-07 0 -3.47783e-07 4.12494e-07 0 -2.85979e-07 3.97716e-07 0 -2.26286e-07 3.85723e-07 0 -1.68265e-07 3.76457e-07 0 -1.1149e-07 3.69872e-07 0 -5.55392e-08 3.65935e-07 0 0 3.64624e-07 0 -4.19934e-06 1.29525e-06 0 -3.9265e-06 1.27287e-06 0 -3.66154e-06 1.24167e-06 0 -3.40607e-06 1.20324e-06 0 -3.16129e-06 1.15913e-06 0 -2.92803e-06 1.1108e-06 0 -2.7068e-06 1.05959e-06 0 -2.49781e-06 1.00667e-06 0 -2.30106e-06 9.53066e-07 0 -2.11635e-06 8.99646e-07 0 -1.94335e-06 8.47121e-07 0 -1.7816e-06 7.96064e-07 0 -1.63055e-06 7.46924e-07 0 -1.48964e-06 7.00038e-07 0 -1.35824e-06 6.5565e-07 0 -1.2357e-06 6.13928e-07 0 -1.12139e-06 5.74973e-07 0 -1.01467e-06 5.38836e-07 0 -9.14909e-07 5.0553e-07 0 -8.21499e-07 4.75036e-07 0 -7.33848e-07 4.47313e-07 0 -6.51383e-07 4.22308e-07 0 -5.73554e-07 3.99955e-07 0 -4.99832e-07 3.80188e-07 0 -4.29705e-07 3.62937e-07 0 -3.62683e-07 3.48136e-07 0 -2.98289e-07 3.35725e-07 0 -2.36063e-07 3.25648e-07 0 -1.75556e-07 3.17861e-07 0 -1.1633e-07 3.12325e-07 0 -5.79532e-08 3.09015e-07 0 0 3.07913e-07 0 -4.21405e-06 1.02395e-06 0 -3.94984e-06 1.00778e-06 0 -3.6921e-06 9.84606e-07 0 -3.44247e-06 9.55613e-07 0 -3.20219e-06 9.21993e-07 0 -2.97219e-06 8.84872e-07 0 -2.75309e-06 8.45287e-07 0 -2.54525e-06 8.04169e-07 0 -2.3488e-06 7.62331e-07 0 -2.16368e-06 7.20469e-07 0 -1.98968e-06 6.79164e-07 0 -1.82646e-06 6.38888e-07 0 -1.6736e-06 6.00016e-07 0 -1.53059e-06 5.62835e-07 0 -1.3969e-06 5.27557e-07 0 -1.27195e-06 4.94332e-07 0 -1.15515e-06 4.63256e-07 0 -1.04591e-06 4.34385e-07 0 -9.43625e-07 4.07738e-07 0 -8.47714e-07 3.83312e-07 0 -7.576e-07 3.61083e-07 0 -6.72723e-07 3.41014e-07 0 -5.9254e-07 3.23061e-07 0 -5.16522e-07 3.07172e-07 0 -4.44159e-07 2.93299e-07 0 -3.74956e-07 2.8139e-07 0 -3.08433e-07 2.71399e-07 0 -2.44122e-07 2.63286e-07 0 -1.81568e-07 2.57014e-07 0 -1.20322e-07 2.52554e-07 0 -5.99442e-08 2.49887e-07 0 0 2.49e-07 0 -4.2242e-06 7.60867e-07 0 -3.96663e-06 7.49726e-07 0 -3.71451e-06 7.33352e-07 0 -3.46945e-06 7.12604e-07 0 -3.23275e-06 6.88342e-07 0 -3.00539e-06 6.61387e-07 0 -2.78808e-06 6.32499e-07 0 -2.58127e-06 6.02368e-07 0 -2.38518e-06 5.716e-07 0 -2.19987e-06 5.40718e-07 0 -2.02521e-06 5.10162e-07 0 -1.86096e-06 4.80295e-07 0 -1.70677e-06 4.51404e-07 0 -1.56222e-06 4.23717e-07 0 -1.42682e-06 3.97401e-07 0 -1.30005e-06 3.72579e-07 0 -1.18136e-06 3.4933e-07 0 -1.07019e-06 3.27704e-07 0 -9.65971e-07 3.07723e-07 0 -8.68134e-07 2.8939e-07 0 -7.76118e-07 2.72691e-07 0 -6.89373e-07 2.57605e-07 0 -6.07362e-07 2.441e-07 0 -5.2956e-07 2.32142e-07 0 -4.55456e-07 2.21696e-07 0 -3.84553e-07 2.12726e-07 0 -3.16367e-07 2.05198e-07 0 -2.50427e-07 1.99083e-07 0 -1.86271e-07 1.94355e-07 0 -1.23445e-07 1.90993e-07 0 -6.15024e-08 1.88982e-07 0 0 1.88313e-07 0 -4.23077e-06 5.03887e-07 0 -3.97791e-06 4.96915e-07 0 -3.7298e-06 4.86469e-07 0 -3.48804e-06 4.73103e-07 0 -3.25393e-06 4.57375e-07 0 -3.02851e-06 4.39822e-07 0 -2.81254e-06 4.20942e-07 0 -2.60652e-06 4.01191e-07 0 -2.41077e-06 3.80969e-07 0 -2.22538e-06 3.60627e-07 0 -2.05032e-06 3.4046e-07 0 -1.88539e-06 3.20712e-07 0 -1.7303e-06 3.01581e-07 0 -1.58469e-06 2.8322e-07 0 -1.4481e-06 2.65746e-07 0 -1.32006e-06 2.49246e-07 0 -1.20005e-06 2.33777e-07 0 -1.08752e-06 2.19374e-07 0 -9.81936e-07 2.06057e-07 0 -8.82733e-07 1.9383e-07 0 -7.89366e-07 1.82686e-07 0 -7.01293e-07 1.72613e-07 0 -6.17979e-07 1.63592e-07 0 -5.38902e-07 1.55601e-07 0 -4.63553e-07 1.48618e-07 0 -3.91433e-07 1.4262e-07 0 -3.22057e-07 1.37585e-07 0 -2.5495e-07 1.33495e-07 0 -1.89646e-07 1.30331e-07 0 -1.25687e-07 1.28082e-07 0 -6.26205e-08 1.26736e-07 0 0 1.26288e-07 0 -4.23445e-06 2.5094e-07 0 -3.98441e-06 2.47589e-07 0 -3.73869e-06 2.42504e-07 0 -3.49891e-06 2.35959e-07 0 -3.26638e-06 2.28228e-07 0 -3.04214e-06 2.19576e-07 0 -2.827e-06 2.10249e-07 0 -2.62149e-06 2.00473e-07 0 -2.42596e-06 1.9045e-07 0 -2.24056e-06 1.80353e-07 0 -2.06527e-06 1.70331e-07 0 -1.89996e-06 1.60507e-07 0 -1.74436e-06 1.5098e-07 0 -1.59812e-06 1.41829e-07 0 -1.46084e-06 1.33114e-07 0 -1.33205e-06 1.24879e-07 0 -1.21125e-06 1.17154e-07 0 -1.09792e-06 1.09957e-07 0 -9.91515e-07 1.033e-07 0 -8.91498e-07 9.71853e-08 0 -7.97323e-07 9.16104e-08 0 -7.08454e-07 8.65694e-08 0 -6.24359e-07 8.20536e-08 0 -5.44519e-07 7.80526e-08 0 -4.68422e-07 7.45554e-08 0 -3.95572e-07 7.15511e-08 0 -3.25481e-07 6.90289e-08 0 -2.57672e-07 6.69795e-08 0 -1.91677e-07 6.53944e-08 0 -1.27035e-07 6.42672e-08 0 -6.32934e-08 6.35928e-08 0 0 6.33684e-08 0 -4.23564e-06 -0 0 -3.98653e-06 -0 0 -3.74161e-06 -0 0 -3.50249e-06 -0 0 -3.27048e-06 -0 0 -3.04665e-06 -0 0 -2.83178e-06 -0 0 -2.62644e-06 -0 0 -2.431e-06 -0 0 -2.24559e-06 -0 0 -2.07024e-06 -0 0 -1.9048e-06 -0 0 -1.74903e-06 -0 0 -1.60259e-06 -0 0 -1.46508e-06 -0 0 -1.33604e-06 -0 0 -1.21498e-06 -0 0 -1.10138e-06 -0 0 -9.94708e-07 -0 0 -8.9442e-07 -0 0 -7.99977e-07 -0 0 -7.10843e-07 -0 0 -6.26488e-07 -0 0 -5.46393e-07 -0 0 -4.70047e-07 -0 0 -3.96953e-07 -0 0 -3.26623e-07 -0 0 -2.5858e-07 -0 0 -1.92354e-07 -0 0 -1.27486e-07 -0 0 -6.3518e-08 -0 0 0 -0 0 </DataArray> 
</PointData> 
<Points> 
<DataArray type="Float32" NumberOfComponents="3"> 