<?xml version="1.0"?> 
<VTKFile type="StructuredGrid" version="0.1"> 
<StructuredGrid WholeExtent="0 31 0 31 0 0"> 
<Piece Extent="0 31 0 31 0 0"> 
<PointData>
<DataArray type="Float32" Name="B" format="ascii" NumberOfComponents="3"> 
0.000106209 -2.04542e-05 0 0.000178175 3.33922e-07 0 0.000193303 9.20166e-07 0 0.000204228 1.529e-06 0 0.000231405 1.71031e-06 0 0.000254253 1.82957e-06 0 0.000281423 1.82175e-06 0 0.000305906 1.72278e-06 0 0.000329517 1.55669e-06 0 0.000349928 1.34902e-06 0 0.000367569 1.12708e-06 0 0.000381908 9.03845e-07 0 0.000393215 6.88629e-07 0 0.000401502 4.82815e-07 0 0.000406954 2.85859e-07 0 0.000409648 9.45929e-08 0 0.000409648 -9.45929e-08 0 0.000406954 -2.85859e-07 0 0.000401502 -4.82815e-07 0 0.000393215 -6.88629e-07 0 0.000381908 -9.03845e-07 0 0.000367569 -1.12708e-06 0 0.000349928 -1.34902e-06 0 0.000329517 -1.55669e-06 0 0.000305906 -1.72278e-06 0 0.000281423 -1.82175e-06 0 0.000254253 -1.82957e-06 0 0.000231405 -1.71031e-06 0 0.000204228 -1.529e-06 0 0.000193303 -9.20166e-07 0 0.000178175 -3.33922e-07 0 0.000106209 2.04542e-05 0 9.95777e-06 -2.24265e-05 0 -1.35862e-05 2.11301e-06 0 -1.56308e-05 -4.28694e-07 0 -1.5629e-05 1.33158e-07 0 -1.82117e-05 -2.13767e-08 0 -1.97106e-05 1.80144e-08 0 -2.19452e-05 1.69532e-08 0 -2.37614e-05 7.3234e-09 0 -2.56229e-05 1.57519e-08 0 -2.71823e-05 6.85794e-09 0 -2.85585e-05 1.04505e-08 0 -2.96657e-05 5.50133e-09 0 -3.0546e-05 5.99318e-09 0 -3.11888e-05 3.18444e-09 0 -3.16133e-05 2.48804e-09 0 -3.18226e-05 4.87518e-10 0 -3.18226e-05 -4.87518e-10 0 -3.16133e-05 -2.48804e-09 0 -3.11888e-05 -3.18444e-09 0 -3.0546e-05 -5.99318e-09 0 -2.96657e-05 -5.50133e-09 0 -2.85585e-05 -1.04505e-08 0 -2.71823e-05 -6.85794e-09 0 -2.56229e-05 -1.57519e-08 0 -2.37614e-05 -7.3234e-09 0 -2.19452e-05 -1.69532e-08 0 -1.97106e-05 -1.80144e-08 0 -1.82117e-05 2.13767e-08 0 -1.5629e-05 -1.33158e-07 0 -1.56308e-05 4.28694e-07 0 -1.35862e-05 -2.11301e-06 0 9.95777e-06 2.24265e-05 0 2.20106e-06 -1.62627e-05 0 2.67877e-06 1.44911e-06 0 2.7087e-06 -3.24196e-07 0 3.02307e-06 4.47587e-08 0 3.3171e-06 -6.82723e-08 0 3.69689e-06 -4.40879e-08 0 4.05575e-06 -4.51496e-08 0 4.42195e-06 -4.84241e-08 0 4.75138e-06 -3.79153e-08 0 5.04878e-06 -3.74946e-08 0 5.2998e-06 -2.83443e-08 0 5.50743e-06 -2.47166e-08 0 5.6697e-06 -1.7706e-08 0 5.78959e-06 -1.31102e-08 0 5.86813e-06 -7.38092e-09 0 5.9071e-06 -2.66265e-09 0 5.9071e-06 2.66265e-09 0 5.86813e-06 7.38092e-09 0 5.78959e-06 1.31102e-08 0 5.6697e-06 1.7706e-08 0 5.50743e-06 2.47166e-08 0 5.2998e-06 2.83443e-08 0 5.04878e-06 3.74946e-08 0 4.75138e-06 3.79153e-08 0 4.42195e-06 4.84241e-08 0 4.05575e-06 4.51496e-08 0 3.69689e-06 4.40879e-08 0 3.3171e-06 6.82723e-08 0 3.02307e-06 -4.47587e-08 0 2.7087e-06 3.24196e-07 0 2.67877e-06 -1.44911e-06 0 2.20106e-06 1.62627e-05 0 1.60829e-06 -9.93898e-06 0 -6.7437e-07 9.19086e-07 0 -8.64338e-07 -1.74512e-07 0 -7.89915e-07 7.67099e-08 0 -9.68309e-07 1.19674e-08 0 -1.02262e-06 3.04796e-08 0 -1.15231e-06 2.99759e-08 0 -1.24025e-06 2.45479e-08 0 -1.34117e-06 2.61974e-08 0 -1.42074e-06 1.97571e-08 0 -1.49366e-06 1.85882e-08 0 -1.55103e-06 1.36605e-08 0 -1.59731e-06 1.12041e-08 0 -1.63079e-06 7.4142e-09 0 -1.65306e-06 4.65543e-09 0 -1.66398e-06 1.39352e-09 0 -1.66398e-06 -1.39352e-09 0 -1.65306e-06 -4.65543e-09 0 -1.63079e-06 -7.4142e-09 0 -1.59731e-06 -1.12041e-08 0 -1.55103e-06 -1.36605e-08 0 -1.49366e-06 -1.85882e-08 0 -1.42074e-06 -1.97571e-08 0 -1.34117e-06 -2.61974e-08 0 -1.24025e-06 -2.45479e-08 0 -1.15231e-06 -2.99759e-08 0 -1.02262e-06 -3.04796e-08 0 -9.68309e-07 -1.19674e-08 0 -7.89915e-07 -7.67099e-08 0 -8.64338e-07 1.74512e-07 0 -6.7437e-07 -9.19086e-07 0 1.60829e-06 9.93898e-06 0 1.04707e-06 -9.34419e-06 0 2.55134e-07 8.3313e-07 0 1.93844e-07 -1.79733e-07 0 2.78579e-07 3.58358e-08 0 2.69783e-07 -2.76893e-08 0 3.20799e-07 -1.30828e-08 0 3.4134e-07 -1.37014e-08 0 3.77918e-07 -1.62505e-08 0 4.03164e-07 -1.12935e-08 0 4.29975e-07 -1.24369e-08 0 4.50584e-07 -8.65401e-09 0 4.68648e-07 -8.07191e-09 0 4.82257e-07 -5.49296e-09 0 4.92552e-07 -4.24844e-09 0 4.99186e-07 -2.29375e-09 0 5.02518e-07 -8.85852e-10 0 5.02518e-07 8.85852e-10 0 4.99186e-07 2.29375e-09 0 4.92552e-07 4.24844e-09 0 4.82257e-07 5.49296e-09 0 4.68648e-07 8.07191e-09 0 4.50584e-07 8.65401e-09 0 4.29975e-07 1.24369e-08 0 4.03164e-07 1.12935e-08 0 3.77918e-07 1.62505e-08 0 3.4134e-07 1.37014e-08 0 3.20799e-07 1.30828e-08 0 2.69783e-07 2.76893e-08 0 2.78579e-07 -3.58358e-08 0 1.93844e-07 1.79733e-07 0 2.55134e-07 -8.3313e-07 0 1.04707e-06 9.34419e-06 0 7.80491e-07 -6.88231e-06 0 -2.43906e-08 6.27483e-07 0 -9.02665e-08 -1.25168e-07 0 -3.74841e-08 4.28176e-08 0 -7.79608e-08 -2.7314e-09 0 -6.64958e-08 9.29303e-09 0 -8.39948e-08 8.89575e-09 0 -8.58183e-08 5.87197e-09 0 -9.53152e-08 7.97295e-09 0 -9.97293e-08 4.91218e-09 0 -1.05521e-07 5.48159e-09 0 -1.09249e-07 3.54859e-09 0 -1.12679e-07 3.22851e-09 0 -1.14957e-07 1.96463e-09 0 -1.16564e-07 1.33881e-09 0 -1.17318e-07 3.44863e-10 0 -1.17318e-07 -3.44863e-10 0 -1.16564e-07 -1.33881e-09 0 -1.14957e-07 -1.96463e-09 0 -1.12679e-07 -3.22851e-09 0 -1.09249e-07 -3.54859e-09 0 -1.05521e-07 -5.48159e-09 0 -9.97293e-08 -4.91218e-09 0 -9.53152e-08 -7.97295e-09 0 -8.58183e-08 -5.87197e-09 0 -8.39948e-08 -8.89575e-09 0 -6.64958e-08 -9.29303e-09 0 -7.79608e-08 2.7314e-09 0 -3.74841e-08 -4.28176e-08 0 -9.02665e-08 1.25168e-07 0 -2.43906e-08 -6.27483e-07 0 7.80491e-07 6.88231e-06 0 6.28946e-07 -6.11851e-06 0 1.87313e-08 5.4796e-07 0 -2.90113e-08 -1.15032e-07 0 1.39281e-08 2.84901e-08 0 -1.14396e-08 -1.25856e-08 0 2.24503e-09 -2.64988e-09 0 -5.44139e-09 -3.04529e-09 0 -1.63706e-09 -5.0583e-09 0 -3.93205e-09 -2.31296e-09 0 -3.00048e-09 -3.74535e-09 0 -3.72435e-09 -1.96949e-09 0 -3.5627e-09 -2.32143e-09 0 -3.8168e-09 -1.32904e-09 0 -3.82336e-09 -1.19261e-09 0 -3.91187e-09 -5.58222e-10 0 -3.92474e-09 -2.68708e-10 0 -3.92474e-09 2.68708e-10 0 -3.91187e-09 5.58222e-10 0 -3.82336e-09 1.19261e-09 0 -3.8168e-09 1.32904e-09 0 -3.5627e-09 2.32143e-09 0 -3.72435e-09 1.96949e-09 0 -3.00048e-09 3.74535e-09 0 -3.93205e-09 2.31296e-09 0 -1.63706e-09 5.0583e-09 0 -5.44139e-09 3.04529e-09 0 2.24503e-09 2.64988e-09 0 -1.14396e-08 1.25856e-08 0 1.39281e-08 -2.84901e-08 0 -2.90113e-08 1.15032e-07 0 1.87313e-08 -5.4796e-07 0 6.28946e-07 6.11851e-06 0 5.08481e-07 -4.90244e-06 0 3.12553e-08 4.43596e-07 0 -7.05088e-09 -9.03341e-08 0 2.95481e-08 2.73515e-08 0 1.06415e-08 -5.26695e-09 0 2.39004e-08 3.04959e-09 0 1.96963e-08 2.74988e-09 0 2.48675e-08 8.21604e-10 0 2.48881e-08 2.6028e-09 0 2.73573e-08 8.47633e-10 0 2.82258e-08 1.66731e-09 0 2.95699e-08 7.3884e-10 0 3.03168e-08 9.27634e-10 0 3.10189e-08 4.39668e-10 0 3.14121e-08 3.8253e-10 0 3.16328e-08 5.78974e-11 0 3.16328e-08 -5.78974e-11 0 3.14121e-08 -3.8253e-10 0 3.10189e-08 -4.39668e-10 0 3.03168e-08 -9.27634e-10 0 2.95699e-08 -7.3884e-10 0 2.82258e-08 -1.66731e-09 0 2.73573e-08 -8.47633e-10 0 2.48881e-08 -2.6028e-09 0 2.48675e-08 -8.21604e-10 0 1.96963e-08 -2.74988e-09 0 2.39004e-08 -3.04959e-09 0 1.06415e-08 5.26695e-09 0 2.95481e-08 -2.73515e-08 0 -7.05088e-09 9.03341e-08 0 3.12553e-08 -4.43596e-07 0 5.08481e-07 4.90244e-06 0 4.45268e-07 -4.19088e-06 0 1.41578e-09 3.76254e-07 0 -3.32631e-08 -7.8049e-08 0 -3.60953e-09 2.09984e-08 0 -2.33161e-08 -6.9962e-09 0 -1.51417e-08 -7.8988e-11 0 -2.23428e-08 -3.46825e-10 0 -2.1259e-08 -1.82688e-09 0 -2.44214e-08 -9.1953e-11 0 -2.51015e-08 -1.27382e-09 0 -2.67675e-08 -2.62496e-10 0 -2.75946e-08 -7.189e-10 0 -2.85158e-08 -2.43472e-10 0 -2.9065e-08 -3.49501e-10 0 -2.94857e-08 -1.04734e-10 0 -2.96719e-08 -9.24784e-11 0 -2.96719e-08 9.24784e-11 0 -2.94857e-08 1.04734e-10 0 -2.9065e-08 3.49501e-10 0 -2.85158e-08 2.43472e-10 0 -2.75946e-08 7.189e-10 0 -2.67675e-08 2.62496e-10 0 -2.51015e-08 1.27382e-09 0 -2.44214e-08 9.1953e-11 0 -2.1259e-08 1.82688e-09 0 -2.23428e-08 3.46825e-10 0 -1.51417e-08 7.8988e-11 0 -2.33161e-08 6.9962e-09 0 -3.60953e-09 -2.09984e-08 0 -3.32631e-08 7.8049e-08 0 1.41578e-09 -3.76254e-07 0 4.45268e-07 4.19088e-06 0 3.83198e-07 -3.41637e-06 0 2.21796e-08 3.08038e-07 0 -6.46466e-09 -6.3202e-08 0 2.07694e-08 1.82479e-08 0 6.52362e-09 -4.5112e-09 0 1.62799e-08 1.21817e-09 0 1.29993e-08 1.00421e-09 0 1.67165e-08 -2.80771e-10 0 1.66017e-08 1.03096e-09 0 1.83258e-08 -8.32073e-11 0 1.88729e-08 5.92252e-10 0 1.97912e-08 5.97026e-11 0 2.0282e-08 2.96916e-10 0 2.07563e-08 6.2017e-11 0 2.1017e-08 1.21029e-10 0 2.11654e-08 -7.4448e-12 0 2.11654e-08 7.4448e-12 0 2.1017e-08 -1.21029e-10 0 2.07563e-08 -6.2017e-11 0 2.0282e-08 -2.96916e-10 0 1.97912e-08 -5.97026e-11 0 1.88729e-08 -5.92252e-10 0 1.83258e-08 8.32073e-11 0 1.66017e-08 -1.03096e-09 0 1.67165e-08 2.80771e-10 0 1.29993e-08 -1.00421e-09 0 1.62799e-08 -1.21817e-09 0 6.52362e-09 4.5112e-09 0 2.07694e-08 -1.82479e-08 0 -6.46466e-09 6.3202e-08 0 2.21796e-08 -3.08038e-07 0 3.83198e-07 3.41637e-06 0 3.4957e-07 -2.80838e-06 0 5.50794e-09 2.52377e-07 0 -2.13627e-08 -5.2118e-08 0 2.19961e-09 1.4438e-08 0 -1.26453e-08 -4.28693e-09 0 -5.67752e-09 3.76174e-10 0 -1.06951e-08 1.97191e-10 0 -9.26111e-09 -8.19257e-10 0 -1.11851e-08 3.07323e-10 0 -1.12309e-08 -5.33994e-10 0 -1.21167e-08 9.29914e-11 0 -1.24206e-08 -2.65987e-10 0 -1.28709e-08 2.01675e-12 0 -1.31012e-08 -1.18386e-10 0 -1.32992e-08 -1.39348e-12 0 -1.33799e-08 -3.92678e-11 0 -1.33799e-08 3.92678e-11 0 -1.32992e-08 1.39348e-12 0 -1.31012e-08 1.18386e-10 0 -1.28709e-08 -2.01675e-12 0 -1.24206e-08 2.65987e-10 0 -1.21167e-08 -9.29914e-11 0 -1.12309e-08 5.33994e-10 0 -1.11851e-08 -3.07323e-10 0 -9.26111e-09 8.19257e-10 0 -1.06951e-08 -1.97191e-10 0 -5.67752e-09 -3.76174e-10 0 -1.26453e-08 4.28693e-09 0 2.19961e-09 -1.4438e-08 0 -2.13627e-08 5.2118e-08 0 5.50794e-09 -2.52377e-07 0 3.4957e-07 2.80838e-06 0 3.16962e-07 -2.21771e-06 0 1.39853e-08 1.9964e-07 0 -9.87083e-09 -4.1067e-08 0 1.22396e-08 1.166e-08 0 -6.74605e-11 -3.11485e-09 0 7.41823e-09 5.88605e-10 0 4.11377e-09 4.48244e-10 0 6.60611e-09 -3.72232e-10 0 5.97616e-09 4.94336e-10 0 6.92321e-09 -2.04252e-10 0 6.96784e-09 2.57126e-10 0 7.39044e-09 -6.28593e-11 0 7.53192e-09 1.14578e-10 0 7.72878e-09 -1.43424e-11 0 7.81612e-09 4.6003e-11 0 7.87522e-09 -1.55042e-11 0 7.87522e-09 1.55042e-11 0 7.81612e-09 -4.6003e-11 0 7.72878e-09 1.43424e-11 0 7.53192e-09 -1.14578e-10 0 7.39044e-09 6.28593e-11 0 6.96784e-09 -2.57126e-10 0 6.92321e-09 2.04252e-10 0 5.97616e-09 -4.94336e-10 0 6.60611e-09 3.72232e-10 0 4.11377e-09 -4.48244e-10 0 7.41823e-09 -5.88605e-10 0 -6.74605e-11 3.11485e-09 0 1.22396e-08 -1.166e-08 0 -9.87083e-09 4.1067e-08 0 1.39853e-08 -1.9964e-07 0 3.16962e-07 2.21771e-06 0 2.98241e-07 -1.69045e-06 0 7.82087e-09 1.51954e-07 0 -1.48669e-08 -3.13309e-08 0 5.44658e-09 8.76498e-09 0 -6.7813e-09 -2.49809e-09 0 -4.42874e-10 3.14342e-10 0 -4.27522e-09 2.06581e-10 0 -2.63729e-09 -4.10088e-10 0 -3.88346e-09 2.6053e-10 0 -3.5763e-09 -2.55838e-10 0 -4.03309e-09 1.11106e-10 0 -4.04745e-09 -1.15799e-10 0 -4.23829e-09 3.51133e-11 0 -4.29247e-09 -4.74637e-11 0 -4.36764e-09 1.32859e-11 0 -4.39008e-09 -1.89674e-11 0 -4.39008e-09 1.89674e-11 0 -4.36764e-09 -1.32859e-11 0 -4.29247e-09 4.74637e-11 0 -4.23829e-09 -3.51133e-11 0 -4.04745e-09 1.15799e-10 0 -4.03309e-09 -1.11106e-10 0 -3.5763e-09 2.55838e-10 0 -3.88346e-09 -2.6053e-10 0 -2.63729e-09 4.10088e-10 0 -4.27522e-09 -2.06581e-10 0 -4.42874e-10 -3.14342e-10 0 -6.7813e-09 2.49809e-09 0 5.44658e-09 -8.76498e-09 0 -1.48669e-08 3.13309e-08 0 7.82087e-09 -1.51954e-07 0 2.98241e-07 1.69045e-06 0 2.82283e-07 -1.18453e-06 0 1.03226e-08 1.06559e-07 0 -1.09956e-08 -2.19377e-08 0 8.48439e-09 6.195e-09 0 -2.72534e-09 -1.69546e-09 0 3.65444e-09 2.79705e-10 0 4.25957e-10 2.04393e-10 0 2.36161e-09 -2.31348e-10 0 1.54088e-09 2.33934e-10 0 2.15097e-09 -1.34862e-10 0 1.99227e-09 1.15419e-10 0 2.20442e-09 -5.10284e-11 0 2.20156e-09 4.77408e-11 0 2.28159e-09 -1.70471e-11 0 2.29681e-09 1.89626e-11 0 2.31839e-09 -1.01137e-11 0 2.31839e-09 1.01137e-11 0 2.29681e-09 -1.89626e-11 0 2.28159e-09 1.70471e-11 0 2.20156e-09 -4.77408e-11 0 2.20442e-09 5.10284e-11 0 1.99227e-09 -1.15419e-10 0 2.15097e-09 1.34862e-10 0 1.54088e-09 -2.33934e-10 0 2.36161e-09 2.31348e-10 0 4.25957e-10 -2.04393e-10 0 3.65444e-09 -2.79705e-10 0 -2.72534e-09 1.69546e-09 0 8.48439e-09 -6.195e-09 0 -1.09956e-08 2.19377e-08 0 1.03226e-08 -1.06559e-07 0 2.82283e-07 1.18453e-06 0 2.73749e-07 -7.03841e-07 0 8.48784e-09 6.32669e-08 0 -1.2242e-08 -1.30391e-08 0 6.49744e-09 3.65746e-09 0 -4.54834e-09 -1.03072e-09 0 1.43533e-09 1.40831e-10 0 -1.89706e-09 9.5925e-11 0 -2.20723e-10 -1.61322e-10 0 -1.20041e-09 1.16995e-10 0 -7.7413e-10 -9.90865e-11 0 -1.06891e-09 5.24837e-11 0 -9.7989e-10 -4.31963e-11 0 -1.07438e-09 1.84486e-11 0 -1.06465e-09 -1.70684e-11 0 -1.09449e-09 7.1269e-12 0 -1.0957e-09 -7.36787e-12 0 -1.0957e-09 7.36787e-12 0 -1.09449e-09 -7.1269e-12 0 -1.06465e-09 1.70684e-11 0 -1.07438e-09 -1.84486e-11 0 -9.7989e-10 4.31963e-11 0 -1.06891e-09 -5.24837e-11 0 -7.7413e-10 9.90865e-11 0 -1.20041e-09 -1.16995e-10 0 -2.20723e-10 1.61322e-10 0 -1.89706e-09 -9.5925e-11 0 1.43533e-09 -1.40831e-10 0 -4.54834e-09 1.03072e-09 0 6.49744e-09 -3.65746e-09 0 -1.2242e-08 1.30391e-08 0 8.48784e-09 -6.32669e-08 0 2.73749e-07 7.03841e-07 0 2.68937e-07 -2.32873e-07 0 8.97158e-09 2.09525e-08 0 -1.13619e-08 -4.31231e-09 0 7.1053e-09 1.21966e-09 0 -3.66958e-09 -3.31519e-10 0 2.29158e-09 5.69427e-11 0 -8.96936e-10 4.21337e-11 0 8.33062e-10 -4.36344e-11 0 -5.23148e-11 4.76848e-11 0 4.35329e-10 -2.50357e-11 0 2.04697e-10 2.39428e-11 0 3.40867e-10 -9.02137e-12 0 2.86415e-10 1.0163e-11 0 3.24337e-10 -2.80418e-12 0 3.1368e-10 4.05365e-12 0 3.21746e-10 -1.8806e-12 0 3.21746e-10 1.8806e-12 0 3.1368e-10 -4.05365e-12 0 3.24337e-10 2.80418e-12 0 2.86415e-10 -1.0163e-11 0 3.40867e-10 9.02137e-12 0 2.04697e-10 -2.39428e-11 0 4.35329e-10 2.50357e-11 0 -5.23148e-11 -4.76848e-11 0 8.33062e-10 4.36344e-11 0 -8.96936e-10 -4.21337e-11 0 2.29158e-09 -5.69427e-11 0 -3.66958e-09 3.31519e-10 0 7.1053e-09 -1.21966e-09 0 -1.13619e-08 4.31231e-09 0 8.97158e-09 -2.09525e-08 0 2.68937e-07 2.32873e-07 0 2.68937e-07 2.32873e-07 0 8.97158e-09 -2.09525e-08 0 -1.13619e-08 4.31231e-09 0 7.1053e-09 -1.21966e-09 0 -3.66958e-09 3.31519e-10 0 2.29158e-09 -5.69427e-11 0 -8.96936e-10 -4.21337e-11 0 8.33062e-10 4.36344e-11 0 -5.23148e-11 -4.76848e-11 0 4.35329e-10 2.50357e-11 0 2.04697e-10 -2.39428e-11 0 3.40867e-10 9.02137e-12 0 2.86415e-10 -1.0163e-11 0 3.24337e-10 2.80418e-12 0 3.1368e-10 -4.05365e-12 0 3.21746e-10 1.8806e-12 0 3.21746e-10 -1.8806e-12 0 3.1368e-10 4.05365e-12 0 3.24337e-10 -2.80418e-12 0 2.86415e-10 1.0163e-11 0 3.40867e-10 -9.02137e-12 0 2.04697e-10 2.39428e-11 0 4.35329e-10 -2.50357e-11 0 -5.23148e-11 4.76848e-11 0 8.33062e-10 -4.36344e-11 0 -8.96936e-10 4.21337e-11 0 2.29158e-09 5.69427e-11 0 -3.66958e-09 -3.31519e-10 0 7.1053e-09 1.21966e-09 0 -1.13619e-08 -4.31231e-09 0 8.97158e-09 2.09525e-08 0 2.68937e-07 -2.32873e-07 0 2.73749e-07 7.03841e-07 0 8.48784e-09 -6.32669e-08 0 -1.2242e-08 1.30391e-08 0 6.49744e-09 -3.65746e-09 0 -4.54834e-09 1.03072e-09 0 1.43533e-09 -1.40831e-10 0 -1.89706e-09 -9.5925e-11 0 -2.20723e-10 1.61322e-10 0 -1.20041e-09 -1.16995e-10 0 -7.7413e-10 9.90865e-11 0 -1.06891e-09 -5.24837e-11 0 -9.7989e-10 4.31963e-11 0 -1.07438e-09 -1.84486e-11 0 -1.06465e-09 1.70684e-11 0 -1.09449e-09 -7.1269e-12 0 -1.0957e-09 7.36787e-12 0 -1.0957e-09 -7.36787e-12 0 -1.09449e-09 7.1269e-12 0 -1.06465e-09 -1.70684e-11 0 -1.07438e-09 1.84486e-11 0 -9.7989e-10 -4.31963e-11 0 -1.06891e-09 5.24837e-11 0 -7.7413e-10 -9.90865e-11 0 -1.20041e-09 1.16995e-10 0 -2.20723e-10 -1.61322e-10 0 -1.89706e-09 9.5925e-11 0 1.43533e-09 1.40831e-10 0 -4.54834e-09 -1.03072e-09 0 6.49744e-09 3.65746e-09 0 -1.2242e-08 -1.30391e-08 0 8.48784e-09 6.32669e-08 0 2.73749e-07 -7.03841e-07 0 2.82283e-07 1.18453e-06 0 1.03226e-08 -1.06559e-07 0 -1.09956e-08 2.19377e-08 0 8.48439e-09 -6.195e-09 0 -2.72534e-09 1.69546e-09 0 3.65444e-09 -2.79705e-10 0 4.25957e-10 -2.04393e-10 0 2.36161e-09 2.31348e-10 0 1.54088e-09 -2.33934e-10 0 2.15097e-09 1.34862e-10 0 1.99227e-09 -1.15419e-10 0 2.20442e-09 5.10284e-11 0 2.20156e-09 -4.77408e-11 0 2.28159e-09 1.70471e-11 0 2.29681e-09 -1.89626e-11 0 2.31839e-09 1.01137e-11 0 2.31839e-09 -1.01137e-11 0 2.29681e-09 1.89626e-11 0 2.28159e-09 -1.70471e-11 0 2.20156e-09 4.77408e-11 0 2.20442e-09 -5.10284e-11 0 1.99227e-09 1.15419e-10 0 2.15097e-09 -1.34862e-10 0 1.54088e-09 2.33934e-10 0 2.36161e-09 -2.31348e-10 0 4.25957e-10 2.04393e-10 0 3.65444e-09 2.79705e-10 0 -2.72534e-09 -1.69546e-09 0 8.48439e-09 6.195e-09 0 -1.09956e-08 -2.19377e-08 0 1.03226e-08 1.06559e-07 0 2.82283e-07 -1.18453e-06 0 2.98241e-07 1.69045e-06 0 7.82087e-09 -1.51954e-07 0 -1.48669e-08 3.13309e-08 0 5.44658e-09 -8.76498e-09 0 -6.7813e-09 2.49809e-09 0 -4.42874e-10 -3.14342e-10 0 -4.27522e-09 -2.06581e-10 0 -2.63729e-09 4.10088e-10 0 -3.88346e-09 -2.6053e-10 0 -3.5763e-09 2.55838e-10 0 -4.03309e-09 -1.11106e-10 0 -4.04745e-09 1.15799e-10 0 -4.23829e-09 -3.51133e-11 0 -4.29247e-09 4.74637e-11 0 -4.36764e-09 -1.32859e-11 0 -4.39008e-09 1.89674e-11 0 -4.39008e-09 -1.89674e-11 0 -4.36764e-09 1.32859e-11 0 -4.29247e-09 -4.74637e-11 0 -4.23829e-09 3.51133e-11 0 -4.04745e-09 -1.15799e-10 0 -4.03309e-09 1.11106e-10 0 -3.5763e-09 -2.55838e-10 0 -3.88346e-09 2.6053e-10 0 -2.63729e-09 -4.10088e-10 0 -4.27522e-09 2.06581e-10 0 -4.42874e-10 3.14342e-10 0 -6.7813e-09 -2.49809e-09 0 5.44658e-09 8.76498e-09 0 -1.48669e-08 -3.13309e-08 0 7.82087e-09 1.51954e-07 0 2.98241e-07 -1.69045e-06 0 3.16962e-07 2.21771e-06 0 1.39853e-08 -1.9964e-07 0 -9.87083e-09 4.1067e-08 0 1.22396e-08 -1.166e-08 0 -6.74605e-11 3.11485e-09 0 7.41823e-09 -5.88605e-10 0 4.11377e-09 -4.48244e-10 0 6.60611e-09 3.72232e-10 0 5.97616e-09 -4.94336e-10 0 6.92321e-09 2.04252e-10 0 6.96784e-09 -2.57126e-10 0 7.39044e-09 6.28593e-11 0 7.53192e-09 -1.14578e-10 0 7.72878e-09 1.43424e-11 0 7.81612e-09 -4.6003e-11 0 7.87522e-09 1.55042e-11 0 7.87522e-09 -1.55042e-11 0 7.81612e-09 4.6003e-11 0 7.72878e-09 -1.43424e-11 0 7.53192e-09 1.14578e-10 0 7.39044e-09 -6.28593e-11 0 6.96784e-09 2.57126e-10 0 6.92321e-09 -2.04252e-10 0 5.97616e-09 4.94336e-10 0 6.60611e-09 -3.72232e-10 0 4.11377e-09 4.48244e-10 0 7.41823e-09 5.88605e-10 0 -6.74605e-11 -3.11485e-09 0 1.22396e-08 1.166e-08 0 -9.87083e-09 -4.1067e-08 0 1.39853e-08 1.9964e-07 0 3.16962e-07 -2.21771e-06 0 3.4957e-07 2.80838e-06 0 5.50794e-09 -2.52377e-07 0 -2.13627e-08 5.2118e-08 0 2.19961e-09 -1.4438e-08 0 -1.26453e-08 4.28693e-09 0 -5.67752e-09 -3.76174e-10 0 -1.06951e-08 -1.97191e-10 0 -9.26111e-09 8.19257e-10 0 -1.11851e-08 -3.07323e-10 0 -1.12309e-08 5.33994e-10 0 -1.21167e-08 -9.29914e-11 0 -1.24206e-08 2.65987e-10 0 -1.28709e-08 -2.01675e-12 0 -1.31012e-08 1.18386e-10 0 -1.32992e-08 1.39348e-12 0 -1.33799e-08 3.92678e-11 0 -1.33799e-08 -3.92678e-11 0 -1.32992e-08 -1.39348e-12 0 -1.31012e-08 -1.18386e-10 0 -1.28709e-08 2.01675e-12 0 -1.24206e-08 -2.65987e-10 0 -1.21167e-08 9.29914e-11 0 -1.12309e-08 -5.33994e-10 0 -1.11851e-08 3.07323e-10 0 -9.26111e-09 -8.19257e-10 0 -1.06951e-08 1.97191e-10 0 -5.67752e-09 3.76174e-10 0 -1.26453e-08 -4.28693e-09 0 2.19961e-09 1.4438e-08 0 -2.13627e-08 -5.2118e-08 0 5.50794e-09 2.52377e-07 0 3.4957e-07 -2.80838e-06 0 3.83198e-07 3.41637e-06 0 2.21796e-08 -3.08038e-07 0 -6.46466e-09 6.3202e-08 0 2.07694e-08 -1.82479e-08 0 6.52362e-09 4.5112e-09 0 1.62799e-08 -1.21817e-09 0 1.29993e-08 -1.00421e-09 0 1.67165e-08 2.80771e-10 0 1.66017e-08 -1.03096e-09 0 1.83258e-08 8.32073e-11 0 1.88729e-08 -5.92252e-10 0 1.97912e-08 -5.97026e-11 0 2.0282e-08 -2.96916e-10 0 2.07563e-08 -6.2017e-11 0 2.1017e-08 -1.21029e-10 0 2.11654e-08 7.4448e-12 0 2.11654e-08 -7.4448e-12 0 2.1017e-08 1.21029e-10 0 2.07563e-08 6.2017e-11 0 2.0282e-08 2.96916e-10 0 1.97912e-08 5.97026e-11 0 1.88729e-08 5.92252e-10 0 1.83258e-08 -8.32073e-11 0 1.66017e-08 1.03096e-09 0 1.67165e-08 -2.80771e-10 0 1.29993e-08 1.00421e-09 0 1.62799e-08 1.21817e-09 0 6.52362e-09 -4.5112e-09 0 2.07694e-08 1.82479e-08 0 -6.46466e-09 -6.3202e-08 0 2.21796e-08 3.08038e-07 0 3.83198e-07 -3.41637e-06 0 4.45268e-07 4.19088e-06 0 1.41578e-09 -3.76254e-07 0 -3.32631e-08 7.8049e-08 0 -3.60953e-09 -2.09984e-08 0 -2.33161e-08 6.9962e-09 0 -1.51417e-08 7.8988e-11 0 -2.23428e-08 3.46825e-10 0 -2.1259e-08 1.82688e-09 0 -2.44214e-08 9.1953e-11 0 -2.51015e-08 1.27382e-09 0 -2.67675e-08 2.62496e-10 0 -2.75946e-08 7.189e-10 0 -2.85158e-08 2.43472e-10 0 -2.9065e-08 3.49501e-10 0 -2.94857e-08 1.04734e-10 0 -2.96719e-08 9.24784e-11 0 -2.96719e-08 -9.24784e-11 0 -2.94857e-08 -1.04734e-10 0 -2.9065e-08 -3.49501e-10 0 -2.85158e-08 -2.43472e-10 0 -2.75946e-08 -7.189e-10 0 -2.67675e-08 -2.62496e-10 0 -2.51015e-08 -1.27382e-09 0 -2.44214e-08 -9.1953e-11 0 -2.1259e-08 -1.82688e-09 0 -2.23428e-08 -3.46825e-10 0 -1.51417e-08 -7.8988e-11 0 -2.33161e-08 -6.9962e-09 0 -3.60953e-09 2.09984e-08 0 -3.32631e-08 -7.8049e-08 0 1.41578e-09 3.76254e-07 0 4.45268e-07 -4.19088e-06 0 5.08481e-07 4.90244e-06 0 3.12553e-08 -4.43596e-07 0 -7.05088e-09 9.03341e-08 0 2.95481e-08 -2.73515e-08 0 1.06415e-08 5.26695e-09 0 2.39004e-08 -3.04959e-09 0 1.96963e-08 -2.74988e-09 0 2.48675e-08 -8.21604e-10 0 2.48881e-08 -2.6028e-09 0 2.73573e-08 -8.47633e-10 0 2.82258e-08 -1.66731e-09 0 2.95699e-08 -7.3884e-10 0 3.03168e-08 -9.27634e-10 0 3.10189e-08 -4.39668e-10 0 3.14121e-08 -3.8253e-10 0 3.16328e-08 -5.78974e-11 0 3.16328e-08 5.78974e-11 0 3.14121e-08 3.8253e-10 0 3.10189e-08 4.39668e-10 0 3.03168e-08 9.27634e-10 0 2.95699e-08 7.3884e-10 0 2.82258e-08 1.66731e-09 0 2.73573e-08 8.47633e-10 0 2.48881e-08 2.6028e-09 0 2.48675e-08 8.21604e-10 0 1.96963e-08 2.74988e-09 0 2.39004e-08 3.04959e-09 0 1.06415e-08 -5.26695e-09 0 2.95481e-08 2.73515e-08 0 -7.05088e-09 -9.03341e-08 0 3.12553e-08 4.43596e-07 0 5.08481e-07 -4.90244e-06 0 6.28946e-07 6.11851e-06 0 1.87313e-08 -5.4796e-07 0 -2.90113e-08 1.15032e-07 0 1.39281e-08 -2.84901e-08 0 -1.14396e-08 1.25856e-08 0 2.24503e-09 2.64988e-09 0 -5.44139e-09 3.04529e-09 0 -1.63706e-09 5.0583e-09 0 -3.93205e-09 2.31296e-09 0 -3.00048e-09 3.74535e-09 0 -3.72435e-09 1.96949e-09 0 -3.5627e-09 2.32143e-09 0 -3.8168e-09 1.32904e-09 0 -3.82336e-09 1.19261e-09 0 -3.91187e-09 5.58222e-10 0 -3.92474e-09 2.68708e-10 0 -3.92474e-09 -2.68708e-10 0 -3.91187e-09 -5.58222e-10 0 -3.82336e-09 -1.19261e-09 0 -3.8168e-09 -1.32904e-09 0 -3.5627e-09 -2.32143e-09 0 -3.72435e-09 -1.96949e-09 0 -3.00048e-09 -3.74535e-09 0 -3.93205e-09 -2.31296e-09 0 -1.63706e-09 -5.0583e-09 0 -5.44139e-09 -3.04529e-09 0 2.24503e-09 -2.64988e-09 0 -1.14396e-08 -1.25856e-08 0 1.39281e-08 2.84901e-08 0 -2.90113e-08 -1.15032e-07 0 1.87313e-08 5.4796e-07 0 6.28946e-07 -6.11851e-06 0 7.80491e-07 6.88231e-06 0 -2.43906e-08 -6.27483e-07 0 -9.02665e-08 1.25168e-07 0 -3.74841e-08 -4.28176e-08 0 -7.79608e-08 2.7314e-09 0 -6.64958e-08 -9.29303e-09 0 -8.39948e-08 -8.89575e-09 0 -8.58183e-08 -5.87197e-09 0 -9.53152e-08 -7.97295e-09 0 -9.97293e-08 -4.91218e-09 0 -1.05521e-07 -5.48159e-09 0 -1.09249e-07 -3.54859e-09 0 -1.12679e-07 -3.22851e-09 0 -1.14957e-07 -1.96463e-09 0 -1.16564e-07 -1.33881e-09 0 -1.17318e-07 -3.44863e-10 0 -1.17318e-07 3.44863e-10 0 -1.16564e-07 1.33881e-09 0 -1.14957e-07 1.96463e-09 0 -1.12679e-07 3.22851e-09 0 -1.09249e-07 3.54859e-09 0 -1.05521e-07 5.48159e-09 0 -9.97293e-08 4.91218e-09 0 -9.53152e-08 7.97295e-09 0 -8.58183e-08 5.87197e-09 0 -8.39948e-08 8.89575e-09 0 -6.64958e-08 9.29303e-09 0 -7.79608e-08 -2.7314e-09 0 -3.74841e-08 4.28176e-08 0 -9.02665e-08 -1.25168e-07 0 -2.43906e-08 6.27483e-07 0 7.80491e-07 -6.88231e-06 0 1.04707e-06 9.34419e-06 0 2.55134e-07 -8.3313e-07 0 1.93844e-07 1.79733e-07 0 2.78579e-07 -3.58358e-08 0 2.69783e-07 2.76893e-08 0 3.20799e-07 1.30828e-08 0 3.4134e-07 1.37014e-08 0 3.77918e-07 1.62505e-08 0 4.03164e-07 1.12935e-08 0 4.29975e-07 1.24369e-08 0 4.50584e-07 8.65401e-09 0 4.68648e-07 8.07191e-09 0 4.82257e-07 5.49296e-09 0 4.92552e-07 4.24844e-09 0 4.99186e-07 2.29375e-09 0 5.02518e-07 8.85852e-10 0 5.02518e-07 -8.85852e-10 0 4.99186e-07 -2.29375e-09 0 4.92552e-07 -4.24844e-09 0 4.82257e-07 -5.49296e-09 0 4.68648e-07 -8.07191e-09 0 4.50584e-07 -8.65401e-09 0 4.29975e-07 -1.24369e-08 0 4.03164e-07 -1.12935e-08 0 3.77918e-07 -1.62505e-08 0 3.4134e-07 -1.37014e-08 0 3.20799e-07 -1.30828e-08 0 2.69783e-07 -2.76893e-08 0 2.78579e-07 3.58358e-08 0 1.93844e-07 -1.79733e-07 0 2.55134e-07 8.3313e-07 0 1.04707e-06 -9.34419e-06 0 1.60829e-06 9.93898e-06 0 -6.7437e-07 -9.19086e-07 0 -8.64338e-07 1.74512e-07 0 -7.89915e-07 -7.67099e-08 0 -9.68309e-07 -1.19674e-08 0 -1.02262e-06 -3.04796e-08 0 -1.15231e-06 -2.99759e-08 0 -1.24025e-06 -2.45479e-08 0 -1.34117e-06 -2.61974e-08 0 -1.42074e-06 -1.97571e-08 0 -1.49366e-06 -1.85882e-08 0 -1.55103e-06 -1.36605e-08 0 -1.59731e-06 -1.12041e-08 0 -1.63079e-06 -7.4142e-09 0 -1.65306e-06 -4.65543e-09 0 -1.66398e-06 -1.39352e-09 0 -1.66398e-06 1.39352e-09 0 -1.65306e-06 4.65543e-09 0 -1.63079e-06 7.4142e-09 0 -1.59731e-06 1.12041e-08 0 -1.55103e-06 1.36605e-08 0 -1.49366e-06 1.85882e-08 0 -1.42074e-06 1.97571e-08 0 -1.34117e-06 2.61974e-08 0 -1.24025e-06 2.45479e-08 0 -1.15231e-06 2.99759e-08 0 -1.02262e-06 3.04796e-08 0 -9.68309e-07 1.19674e-08 0 -7.89915e-07 7.67099e-08 0 -8.64338e-07 -1.74512e-07 0 -6.7437e-07 9.19086e-07 0 1.60829e-06 -9.93898e-06 0 2.20106e-06 1.62627e-05 0 2.67877e-06 -1.44911e-06 0 2.7087e-06 3.24196e-07 0 3.02307e-06 -4.47587e-08 0 3.3171e-06 6.82723e-08 0 3.69689e-06 4.40879e-08 0 4.05575e-06 4.51496e-08 0 4.42195e-06 4.84241e-08 0 4.75138e-06 3.79153e-08 0 5.04878e-06 3.74946e-08 0 5.2998e-06 2.83443e-08 0 5.50743e-06 2.47166e-08 0 5.6697e-06 1.7706e-08 0 5.78959e-06 1.31102e-08 0 5.86813e-06 7.38092e-09 0 5.9071e-06 2.66265e-09 0 5.9071e-06 -2.66265e-09 0 5.86813e-06 -7.38092e-09 0 5.78959e-06 -1.31102e-08 0 5.6697e-06 -1.7706e-08 0 5.50743e-06 -2.47166e-08 0 5.2998e-06 -2.83443e-08 0 5.04878e-06 -3.74946e-08 0 4.75138e-06 -3.79153e-08 0 4.42195e-06 -4.84241e-08 0 4.05575e-06 -4.51496e-08 0 3.69689e-06 -4.40879e-08 0 3.3171e-06 -6.82723e-08 0 3.02307e-06 4.47587e-08 0 2.7087e-06 -3.24196e-07 0 2.67877e-06 1.44911e-06 0 2.20106e-06 -1.62627e-05 0 9.95777e-06 2.24265e-05 0 -1.35862e-05 -2.11301e-06 0 -1.56308e-05 4.28694e-07 0 -1.5629e-05 -1.33158e-07 0 -1.82117e-05 2.13767e-08 0 -1.97106e-05 -1.80144e-08 0 -2.19452e-05 -1.69532e-08 0 -2.37614e-05 -7.3234e-09 0 -2.56229e-05 -1.57519e-08 0 -2.71823e-05 -6.85794e-09 0 -2.85585e-05 -1.04505e-08 0 -2.96657e-05 -5.50133e-09 0 -3.0546e-05 -5.99318e-09 0 -3.11888e-05 -3.18444e-09 0 -3.16133e-05 -2.48804e-09 0 -3.18226e-05 -4.87518e-10 0 -3.18226e-05 4.87518e-10 0 -3.16133e-05 2.48804e-09 0 -3.11888e-05 3.18444e-09 0 -3.0546e-05 5.99318e-09 0 -2.96657e-05 5.50133e-09 0 -2.85585e-05 1.04505e-08 0 -2.71823e-05 6.85794e-09 0 -2.56229e-05 1.57519e-08 0 -2.37614e-05 7.3234e-09 0 -2.19452e-05 1.69532e-08 0 -1.97106e-05 1.80144e-08 0 -1.82117e-05 -2.13767e-08 0 -1.5629e-05 1.33158e-07 0 -1.56308e-05 -4.28694e-07 0 -1.35862e-05 2.11301e-06 0 9.95777e-06 -2.24265e-05 0 0.000106209 2.04542e-05 0 0.000178175 -3.33922e-07 0 0.000193303 -9.20166e-07 0 0.000204228 -1.529e-06 0 0.000231405 -1.71031e-06 0 0.000254253 -1.82957e-06 0 0.000281423 -1.82175e-06 0 0.000305906 -1.72278e-06 0 0.000329517 -1.55669e-06 0 0.000349928 -1.34902e-06 0 0.000367569 -1.12708e-06 0 0.000381908 -9.03845e-07 0 0.000393215 -6.88629e-07 0 0.000401502 -4.82815e-07 0 0.000406954 -2.85859e-07 0 0.000409648 -9.45929e-08 0 0.000409648 9.45929e-08 0 0.000406954 2.85859e-07 0 0.000401502 4.82815e-07 0 0.000393215 6.88629e-07 0 0.000381908 9.03845e-07 0 0.000367569 1.12708e-06 0 0.000349928 1.34902e-06 0 0.000329517 1.55669e-06 0 0.000305906 1.72278e-06 0 0.000281423 1.82175e-06 0 0.000254253 1.82957e-06 0 0.000231405 1.71031e-06 0 0.000204228 1.529e-06 0 0.000193303 9.20166e-07 0 0.000178175 3.33922e-07 0 0.000106209 -2.04542e-05 0 </DataArray> 
</PointData> 
<Points> 
<DataArray type="Float32" NumberOfComponents="3"> 