<?xml version="1.0"?> 
<VTKFile type="StructuredGrid" version="0.1"> 
<StructuredGrid WholeExtent="0 31 0 31 0 0"> 
<Piece Extent="0 31 0 31 0 0"> 
<PointData>
<DataArray type="Float32" Name="B" format="ascii" NumberOfComponents="3"> 
5.37383e-05 2.04542e-05 0 5.42806e-05 -3.33922e-07 0 5.67496e-05 -9.20166e-07 0 6.17019e-05 -1.529e-06 0 6.86566e-05 -1.71031e-06 0 7.59298e-05 -1.82957e-06 0 8.36375e-05 -1.82175e-06 0 9.09816e-05 -1.72278e-06 0 9.78444e-05 -1.55669e-06 0 0.000103904 -1.34902e-06 0 0.000109091 -1.12708e-06 0 0.000113345 -9.03845e-07 0 0.00011669 -6.88629e-07 0 0.000119152 -4.82815e-07 0 0.00012077 -2.85859e-07 0 0.000121571 -9.45929e-08 0 0.000121571 9.45929e-08 0 0.00012077 2.85859e-07 0 0.000119152 4.82815e-07 0 0.00011669 6.88629e-07 0 0.000113345 9.03845e-07 0 0.000109091 1.12708e-06 0 0.000103904 1.34902e-06 0 9.78444e-05 1.55669e-06 0 9.09816e-05 1.72278e-06 0 8.36375e-05 1.82175e-06 0 7.59298e-05 1.82957e-06 0 6.86566e-05 1.71031e-06 0 6.17019e-05 1.529e-06 0 5.67496e-05 9.20166e-07 0 5.42806e-05 3.33922e-07 0 5.37383e-05 -2.04542e-05 0 4.1139e-05 3.14685e-06 0 4.93028e-05 -2.48418e-06 0 5.47231e-05 -6.01036e-06 0 6.09627e-05 -7.89308e-06 0 6.80753e-05 -9.01436e-06 0 7.58355e-05 -9.52362e-06 0 8.37682e-05 -9.49321e-06 0 9.14118e-05 -8.96675e-06 0 9.84177e-05 -8.08563e-06 0 0.000104569 -7.00426e-06 0 0.000109771 -5.84702e-06 0 0.000114015 -4.69072e-06 0 0.000117331 -3.574e-06 0 0.000119765 -2.50717e-06 0 0.00012136 -1.48465e-06 0 0.000122149 -4.91464e-07 0 0.000122149 4.91464e-07 0 0.00012136 1.48465e-06 0 0.000119765 2.50717e-06 0 0.000117331 3.574e-06 0 0.000114015 4.69072e-06 0 0.000109771 5.84702e-06 0 0.000104569 7.00426e-06 0 9.84177e-05 8.08563e-06 0 9.14118e-05 8.96675e-06 0 8.37682e-05 9.49321e-06 0 7.58355e-05 9.52362e-06 0 6.80753e-05 9.01436e-06 0 6.09627e-05 7.89308e-06 0 5.47231e-05 6.01036e-06 0 4.93028e-05 2.48418e-06 0 4.1139e-05 -3.14685e-06 0 3.81529e-05 -5.66061e-06 0 4.52322e-05 -9.00352e-06 0 5.19625e-05 -1.23275e-05 0 5.90728e-05 -1.49931e-05 0 6.69687e-05 -1.68682e-05 0 7.55014e-05 -1.78173e-05 0 8.41372e-05 -1.76698e-05 0 9.24146e-05 -1.65656e-05 0 9.97981e-05 -1.48084e-05 0 0.000106117 -1.27278e-05 0 0.000111342 -1.05588e-05 0 0.000115537 -8.4338e-06 0 0.000118777 -6.40662e-06 0 0.000121137 -4.48589e-06 0 0.000122677 -2.65335e-06 0 0.000123437 -8.77939e-07 0 0.000123437 8.77939e-07 0 0.000122677 2.65335e-06 0 0.000121137 4.48589e-06 0 0.000118777 6.40662e-06 0 0.000115537 8.4338e-06 0 0.000111342 1.05588e-05 0 0.000106117 1.27278e-05 0 9.97981e-05 1.48084e-05 0 9.24146e-05 1.65656e-05 0 8.41372e-05 1.76698e-05 0 7.55014e-05 1.78173e-05 0 6.69687e-05 1.68682e-05 0 5.90728e-05 1.49931e-05 0 5.19625e-05 1.23275e-05 0 4.52322e-05 9.00352e-06 0 3.81529e-05 5.66061e-06 0 3.53621e-05 -1.25318e-05 0 4.17983e-05 -1.57488e-05 0 4.86646e-05 -1.93693e-05 0 5.63319e-05 -2.285e-05 0 6.51353e-05 -2.5691e-05 0 7.50201e-05 -2.71826e-05 0 8.53441e-05 -2.68454e-05 0 9.46638e-05 -2.48205e-05 0 0.000102614 -2.18369e-05 0 0.000109093 -1.85196e-05 0 0.00011428 -1.5215e-05 0 0.000118341 -1.20709e-05 0 0.00012143 -9.12908e-06 0 0.000123657 -6.37405e-06 0 0.000125101 -3.76413e-06 0 0.000125811 -1.24449e-06 0 0.000125811 1.24449e-06 0 0.000125101 3.76413e-06 0 0.000123657 6.37405e-06 0 0.00012143 9.12908e-06 0 0.000118341 1.20709e-05 0 0.00011428 1.5215e-05 0 0.000109093 1.85196e-05 0 0.000102614 2.18369e-05 0 9.46638e-05 2.48205e-05 0 8.53441e-05 2.68454e-05 0 7.50201e-05 2.71826e-05 0 6.51353e-05 2.5691e-05 0 5.63319e-05 2.285e-05 0 4.86646e-05 1.93693e-05 0 4.17983e-05 1.57488e-05 0 3.53621e-05 1.25318e-05 0 3.22482e-05 -1.82825e-05 0 3.7981e-05 -2.21239e-05 0 4.4552e-05 -2.65673e-05 0 5.24011e-05 -3.13158e-05 0 6.21244e-05 -3.58124e-05 0 7.40737e-05 -3.86287e-05 0 8.65064e-05 -3.78004e-05 0 9.75653e-05 -3.39899e-05 0 0.00010601 -2.91475e-05 0 0.000112501 -2.42684e-05 0 0.000117449 -1.96926e-05 0 0.000121234 -1.54976e-05 0 0.000124058 -1.16601e-05 0 0.000126076 -8.11545e-06 0 0.000127375 -4.78369e-06 0 0.000128012 -1.5803e-06 0 0.000128012 1.5803e-06 0 0.000127375 4.78369e-06 0 0.000126076 8.11545e-06 0 0.000124058 1.16601e-05 0 0.000121234 1.54976e-05 0 0.000117449 1.96926e-05 0 0.000112501 2.42684e-05 0 0.00010601 2.91475e-05 0 9.75653e-05 3.39899e-05 0 8.65064e-05 3.78004e-05 0 7.40737e-05 3.86287e-05 0 6.21244e-05 3.58124e-05 0 5.24011e-05 3.13158e-05 0 4.4552e-05 2.65673e-05 0 3.7981e-05 2.21239e-05 0 3.22482e-05 1.82825e-05 0 2.84577e-05 -2.328e-05 0 3.33598e-05 -2.78669e-05 0 3.92351e-05 -3.34083e-05 0 4.6557e-05 -3.99502e-05 0 5.65169e-05 -4.72414e-05 0 7.19747e-05 -5.46757e-05 0 9.3e-05 -5.19398e-05 0 0.000105408 -4.39506e-05 0 0.000113905 -3.63991e-05 0 0.000119809 -2.96768e-05 0 0.000124238 -2.37745e-05 0 0.000127508 -1.85606e-05 0 0.000129937 -1.38965e-05 0 0.00013165 -9.64309e-06 0 0.000132753 -5.67491e-06 0 0.000133291 -1.87322e-06 0 0.000133291 1.87322e-06 0 0.000132753 5.67491e-06 0 0.00013165 9.64309e-06 0 0.000129937 1.38965e-05 0 0.000127508 1.85606e-05 0 0.000124238 2.37745e-05 0 0.000119809 2.96768e-05 0 0.000113905 3.63991e-05 0 0.000105408 4.39506e-05 0 9.3e-05 5.19398e-05 0 7.19747e-05 5.46757e-05 0 5.65169e-05 4.72414e-05 0 4.6557e-05 3.99502e-05 0 3.92351e-05 3.34083e-05 0 3.33598e-05 2.78669e-05 0 2.84577e-05 2.328e-05 0 2.40057e-05 -2.73607e-05 0 2.78526e-05 -3.26673e-05 0 3.24791e-05 -3.92094e-05 0 3.83509e-05 -4.78124e-05 0 4.63941e-05 -5.7855e-05 0 5.83631e-05 -7.49169e-05 0 7.32032e-05 -6.7693e-05 0 8.32468e-05 -5.32341e-05 0 8.9979e-05 -4.27432e-05 0 9.46685e-05 -3.42709e-05 0 9.80978e-05 -2.71556e-05 0 0.000100637 -2.10813e-05 0 0.000102509 -1.57203e-05 0 0.000103836 -1.08891e-05 0 0.000104689 -6.39941e-06 0 0.000105107 -2.11213e-06 0 0.000105107 2.11213e-06 0 0.000104689 6.39941e-06 0 0.000103836 1.08891e-05 0 0.000102509 1.57203e-05 0 0.000100637 2.10813e-05 0 9.80978e-05 2.71556e-05 0 9.46685e-05 3.42709e-05 0 8.9979e-05 4.27432e-05 0 8.32468e-05 5.32341e-05 0 7.32032e-05 6.7693e-05 0 5.83631e-05 7.49169e-05 0 4.63941e-05 5.7855e-05 0 3.83509e-05 4.78124e-05 0 3.24791e-05 3.92094e-05 0 2.78526e-05 3.26673e-05 0 2.40057e-05 2.73607e-05 0 1.90254e-05 -3.03531e-05 0 2.1598e-05 -3.61457e-05 0 2.45531e-05 -4.34332e-05 0 2.80969e-05 -5.32091e-05 0 3.25753e-05 -6.53485e-05 0 3.82388e-05 -8.46282e-05 0 4.4403e-05 -7.66091e-05 0 4.94563e-05 -5.9556e-05 0 5.31961e-05 -4.7176e-05 0 5.5953e-05 -3.74821e-05 0 5.80384e-05 -2.95542e-05 0 5.96318e-05 -2.2874e-05 0 6.08363e-05 -1.70348e-05 0 6.17066e-05 -1.17903e-05 0 6.22737e-05 -6.92779e-06 0 6.25538e-05 -2.28596e-06 0 6.25538e-05 2.28596e-06 0 6.22737e-05 6.92779e-06 0 6.17066e-05 1.17903e-05 0 6.08363e-05 1.70348e-05 0 5.96318e-05 2.2874e-05 0 5.80384e-05 2.95542e-05 0 5.5953e-05 3.74821e-05 0 5.31961e-05 4.7176e-05 0 4.94563e-05 5.9556e-05 0 4.4403e-05 7.66091e-05 0 3.82388e-05 8.46282e-05 0 3.25753e-05 6.53485e-05 0 2.80969e-05 5.32091e-05 0 2.45531e-05 4.34332e-05 0 2.1598e-05 3.61457e-05 0 1.90254e-05 3.03531e-05 0 1.37747e-05 -3.21857e-05 0 1.49821e-05 -3.80997e-05 0 1.60607e-05 -4.55343e-05 0 1.69192e-05 -5.55518e-05 0 1.74148e-05 -6.7993e-05 0 1.74572e-05 -8.76997e-05 0 1.70866e-05 -7.94144e-05 0 1.71668e-05 -6.18366e-05 0 1.74845e-05 -4.90017e-05 0 1.80013e-05 -3.89607e-05 0 1.85676e-05 -3.07523e-05 0 1.91215e-05 -2.38325e-05 0 1.96046e-05 -1.77702e-05 0 1.99897e-05 -1.23125e-05 0 2.02554e-05 -7.23991e-06 0 2.03911e-05 -2.38997e-06 0 2.03911e-05 2.38997e-06 0 2.02554e-05 7.23991e-06 0 1.99897e-05 1.23125e-05 0 1.96046e-05 1.77702e-05 0 1.91215e-05 2.38325e-05 0 1.85676e-05 3.07523e-05 0 1.80013e-05 3.89607e-05 0 1.74845e-05 4.90017e-05 0 1.71668e-05 6.18366e-05 0 1.70866e-05 7.94144e-05 0 1.74572e-05 8.76997e-05 0 1.74148e-05 6.7993e-05 0 1.69192e-05 5.55518e-05 0 1.60607e-05 4.55343e-05 0 1.49821e-05 3.80997e-05 0 1.37747e-05 3.21857e-05 0 8.5688e-06 -3.28603e-05 0 8.47831e-06 -3.84973e-05 0 7.79969e-06 -4.54503e-05 0 6.09152e-06 -5.4673e-05 0 2.72096e-06 -6.58528e-05 0 -2.96235e-06 -8.4362e-05 0 -9.38288e-06 -7.63448e-05 0 -1.4482e-05 -5.99823e-05 0 -1.73798e-05 -4.81105e-05 0 -1.90195e-05 -3.86323e-05 0 -1.98766e-05 -3.07186e-05 0 -2.03236e-05 -2.39375e-05 0 -2.05275e-05 -1.792e-05 0 -2.06106e-05 -1.24515e-05 0 -2.06342e-05 -7.33489e-06 0 -2.06379e-05 -2.42347e-06 0 -2.06379e-05 2.42347e-06 0 -2.06342e-05 7.33489e-06 0 -2.06106e-05 1.24515e-05 0 -2.05275e-05 1.792e-05 0 -2.03236e-05 2.39375e-05 0 -1.98766e-05 3.07186e-05 0 -1.90195e-05 3.86323e-05 0 -1.73798e-05 4.81105e-05 0 -1.4482e-05 5.99823e-05 0 -9.38288e-06 7.63448e-05 0 -2.96235e-06 8.4362e-05 0 2.72096e-06 6.58528e-05 0 6.09152e-06 5.4673e-05 0 7.79969e-06 4.54503e-05 0 8.47831e-06 3.84973e-05 0 8.5688e-06 3.28603e-05 0 3.70497e-06 -3.24876e-05 0 2.56712e-06 -3.75258e-05 0 4.75013e-07 -4.35214e-05 0 -3.07184e-06 -5.10042e-05 0 -9.34366e-06 -5.94567e-05 0 -2.15366e-05 -7.20365e-05 0 -4.01079e-05 -6.6399e-05 0 -4.93005e-05 -5.44851e-05 0 -5.47624e-05 -4.4926e-05 0 -5.78924e-05 -3.6751e-05 0 -5.99205e-05 -2.96038e-05 0 -6.11621e-05 -2.32772e-05 0 -6.19585e-05 -1.75382e-05 0 -6.24408e-05 -1.22391e-05 0 -6.272e-05 -7.22971e-06 0 -6.28458e-05 -2.39181e-06 0 -6.28458e-05 2.39181e-06 0 -6.272e-05 7.22971e-06 0 -6.24408e-05 1.22391e-05 0 -6.19585e-05 1.75382e-05 0 -6.11621e-05 2.32772e-05 0 -5.99205e-05 2.96038e-05 0 -5.78924e-05 3.6751e-05 0 -5.47624e-05 4.4926e-05 0 -4.93005e-05 5.44851e-05 0 -4.01079e-05 6.6399e-05 0 -2.15366e-05 7.20365e-05 0 -9.34366e-06 5.94567e-05 0 -3.07184e-06 5.10042e-05 0 4.75013e-07 4.35214e-05 0 2.56712e-06 3.75258e-05 0 3.70497e-06 3.24876e-05 0 -5.99083e-07 -3.12768e-05 0 -2.48472e-06 -3.55445e-05 0 -5.38253e-06 -4.03909e-05 0 -9.83405e-06 -4.56896e-05 0 -1.66854e-05 -5.12e-05 0 -2.7188e-05 -5.48386e-05 0 -3.98108e-05 -5.31189e-05 0 -4.89777e-05 -4.71781e-05 0 -5.49806e-05 -4.03929e-05 0 -5.89694e-05 -3.38203e-05 0 -6.16478e-05 -2.7701e-05 0 -6.3463e-05 -2.20206e-05 0 -6.46801e-05 -1.67289e-05 0 -6.5475e-05 -1.17354e-05 0 -6.59529e-05 -6.95703e-06 0 -6.61775e-05 -2.30476e-06 0 -6.61775e-05 2.30476e-06 0 -6.59529e-05 6.95703e-06 0 -6.5475e-05 1.17354e-05 0 -6.46801e-05 1.67289e-05 0 -6.3463e-05 2.20206e-05 0 -6.16478e-05 2.7701e-05 0 -5.89694e-05 3.38203e-05 0 -5.49806e-05 4.03929e-05 0 -4.89777e-05 4.71781e-05 0 -3.98108e-05 5.31189e-05 0 -2.7188e-05 5.48386e-05 0 -1.66854e-05 5.12e-05 0 -9.83405e-06 4.56896e-05 0 -5.38253e-06 4.03909e-05 0 -2.48472e-06 3.55445e-05 0 -5.99083e-07 3.12768e-05 0 -4.23814e-06 -2.95556e-05 0 -6.53655e-06 -3.29986e-05 0 -9.7674e-06 -3.66546e-05 0 -1.42521e-05 -4.03026e-05 0 -2.03368e-05 -4.33668e-05 0 -2.80607e-05 -4.49698e-05 0 -3.64818e-05 -4.37608e-05 0 -4.36972e-05 -4.02354e-05 0 -4.92579e-05 -3.55281e-05 0 -5.33362e-05 -3.04338e-05 0 -5.62877e-05 -2.53336e-05 0 -5.83956e-05 -2.03825e-05 0 -5.9876e-05 -1.56153e-05 0 -6.08754e-05 -1.102e-05 0 -6.14927e-05 -6.55672e-06 0 -6.17872e-05 -2.17632e-06 0 -6.17872e-05 2.17632e-06 0 -6.14927e-05 6.55672e-06 0 -6.08754e-05 1.102e-05 0 -5.9876e-05 1.56153e-05 0 -5.83956e-05 2.03825e-05 0 -5.62877e-05 2.53336e-05 0 -5.33362e-05 3.04338e-05 0 -4.92579e-05 3.55281e-05 0 -4.36972e-05 4.02354e-05 0 -3.64818e-05 4.37608e-05 0 -2.80607e-05 4.49698e-05 0 -2.03368e-05 4.33668e-05 0 -1.42521e-05 4.03026e-05 0 -9.7674e-06 3.66546e-05 0 -6.53655e-06 3.29986e-05 0 -4.23814e-06 2.95556e-05 0 -7.21189e-06 -2.75057e-05 0 -9.67485e-06 -3.02124e-05 0 -1.28989e-05 -3.29068e-05 0 -1.70434e-05 -3.53417e-05 0 -2.21743e-05 -3.71427e-05 0 -2.81084e-05 -3.77135e-05 0 -3.42243e-05 -3.68053e-05 0 -3.99478e-05 -3.44089e-05 0 -4.4742e-05 -3.09839e-05 0 -4.8556e-05 -2.7009e-05 0 -5.14823e-05 -2.28053e-05 0 -5.36766e-05 -1.85494e-05 0 -5.5273e-05 -1.4328e-05 0 -5.63815e-05 -1.01698e-05 0 -5.70793e-05 -6.07343e-06 0 -5.74162e-05 -2.01944e-06 0 -5.74162e-05 2.01944e-06 0 -5.70793e-05 6.07343e-06 0 -5.63815e-05 1.01698e-05 0 -5.5273e-05 1.4328e-05 0 -5.36766e-05 1.85494e-05 0 -5.14823e-05 2.28053e-05 0 -4.8556e-05 2.7009e-05 0 -4.4742e-05 3.09839e-05 0 -3.99478e-05 3.44089e-05 0 -3.42243e-05 3.68053e-05 0 -2.81084e-05 3.77135e-05 0 -2.21743e-05 3.71427e-05 0 -1.70434e-05 3.53417e-05 0 -1.28989e-05 3.29068e-05 0 -9.67485e-06 3.02124e-05 0 -7.21189e-06 2.75057e-05 0 -9.58632e-06 -2.53317e-05 0 -1.2049e-05 -2.74214e-05 0 -1.5104e-05 -2.93802e-05 0 -1.88031e-05 -3.10174e-05 0 -2.31212e-05 -3.20621e-05 0 -2.78872e-05 -3.22756e-05 0 -3.2806e-05 -3.14277e-05 0 -3.74215e-05 -2.95886e-05 0 -4.15043e-05 -2.69579e-05 0 -4.49173e-05 -2.37919e-05 0 -4.76659e-05 -2.0312e-05 0 -4.98046e-05 -1.66741e-05 0 -5.14097e-05 -1.29717e-05 0 -5.25494e-05 -9.25549e-06 0 -5.32788e-05 -5.54613e-06 0 -5.36342e-05 -1.84725e-06 0 -5.36342e-05 1.84725e-06 0 -5.32788e-05 5.54613e-06 0 -5.25494e-05 9.25549e-06 0 -5.14097e-05 1.29717e-05 0 -4.98046e-05 1.66741e-05 0 -4.76659e-05 2.0312e-05 0 -4.49173e-05 2.37919e-05 0 -4.15043e-05 2.69579e-05 0 -3.74215e-05 2.95886e-05 0 -3.2806e-05 3.14277e-05 0 -2.78872e-05 3.22756e-05 0 -2.31212e-05 3.20621e-05 0 -1.88031e-05 3.10174e-05 0 -1.5104e-05 2.93802e-05 0 -1.2049e-05 2.74214e-05 0 -9.58632e-06 2.53317e-05 0 -1.14558e-05 -2.31469e-05 0 -1.38287e-05 -2.47478e-05 0 -1.66482e-05 -2.61691e-05 0 -1.99216e-05 -2.72662e-05 0 -2.35937e-05 -2.7877e-05 0 -2.75312e-05 -2.78321e-05 0 -3.15118e-05 -2.70667e-05 0 -3.53457e-05 -2.5574e-05 0 -3.88182e-05 -2.34599e-05 0 -4.18267e-05 -2.08751e-05 0 -4.43288e-05 -1.79673e-05 0 -4.63356e-05 -1.48554e-05 0 -4.78781e-05 -1.1625e-05 0 -4.89946e-05 -8.33117e-06 0 -4.97185e-05 -5.00697e-06 0 -5.00742e-05 -1.67008e-06 0 -5.00742e-05 1.67008e-06 0 -4.97185e-05 5.00697e-06 0 -4.89946e-05 8.33117e-06 0 -4.78781e-05 1.1625e-05 0 -4.63356e-05 1.48554e-05 0 -4.43288e-05 1.79673e-05 0 -4.18267e-05 2.08751e-05 0 -3.88182e-05 2.34599e-05 0 -3.53457e-05 2.5574e-05 0 -3.15118e-05 2.70667e-05 0 -2.75312e-05 2.78321e-05 0 -2.35937e-05 2.7877e-05 0 -1.99216e-05 2.72662e-05 0 -1.66482e-05 2.61691e-05 0 -1.38287e-05 2.47478e-05 0 -1.14558e-05 2.31469e-05 0 -1.29155e-05 -2.10269e-05 0 -1.51549e-05 -2.22472e-05 0 -1.77301e-05 -2.32755e-05 0 -2.06253e-05 -2.40094e-05 0 -2.3786e-05 -2.43373e-05 0 -2.71109e-05 -2.41724e-05 0 -3.0471e-05 -2.34513e-05 0 -3.3698e-05 -2.21855e-05 0 -3.66761e-05 -2.0431e-05 0 -3.93103e-05 -1.82767e-05 0 -4.15546e-05 -1.58202e-05 0 -4.33936e-05 -1.31503e-05 0 -4.48345e-05 -1.03376e-05 0 -4.58931e-05 -7.43486e-06 0 -4.65871e-05 -4.47901e-06 0 -4.69302e-05 -1.4958e-06 0 -4.69302e-05 1.4958e-06 0 -4.65871e-05 4.47901e-06 0 -4.58931e-05 7.43486e-06 0 -4.48345e-05 1.03376e-05 0 -4.33936e-05 1.31503e-05 0 -4.15546e-05 1.58202e-05 0 -3.93103e-05 1.82767e-05 0 -3.66761e-05 2.0431e-05 0 -3.3698e-05 2.21855e-05 0 -3.0471e-05 2.34513e-05 0 -2.71109e-05 2.41724e-05 0 -2.3786e-05 2.43373e-05 0 -2.06253e-05 2.40094e-05 0 -1.77301e-05 2.32755e-05 0 -1.51549e-05 2.22472e-05 0 -1.29155e-05 2.10269e-05 0 -1.405e-05 -1.90067e-05 0 -1.61414e-05 -1.99344e-05 0 -1.84842e-05 -2.06763e-05 0 -2.10563e-05 -2.1158e-05 0 -2.38078e-05 -2.13068e-05 0 -2.66624e-05 -2.10601e-05 0 -2.95187e-05 -2.03895e-05 0 -3.22828e-05 -1.92925e-05 0 -3.48537e-05 -1.78032e-05 0 -3.71617e-05 -1.59783e-05 0 -3.9159e-05 -1.38838e-05 0 -4.08223e-05 -1.15846e-05 0 -4.2144e-05 -9.13772e-06 0 -4.31265e-05 -6.58971e-06 0 -4.3776e-05 -3.97732e-06 0 -4.40989e-05 -1.32952e-06 0 -4.40989e-05 1.32952e-06 0 -4.3776e-05 3.97732e-06 0 -4.31265e-05 6.58971e-06 0 -4.2144e-05 9.13772e-06 0 -4.08223e-05 1.15846e-05 0 -3.9159e-05 1.38838e-05 0 -3.71617e-05 1.59783e-05 0 -3.48537e-05 1.78032e-05 0 -3.22828e-05 1.92925e-05 0 -2.95187e-05 2.03895e-05 0 -2.66624e-05 2.10601e-05 0 -2.38078e-05 2.13068e-05 0 -2.10563e-05 2.1158e-05 0 -1.84842e-05 2.06763e-05 0 -1.61414e-05 1.99344e-05 0 -1.405e-05 1.90067e-05 0 -1.49288e-05 -1.71025e-05 0 -1.68723e-05 -1.78056e-05 0 -1.90051e-05 -1.83369e-05 0 -2.13025e-05 -1.86429e-05 0 -2.37227e-05 -1.86721e-05 0 -2.62061e-05 -1.83857e-05 0 -2.86836e-05 -1.77596e-05 0 -3.1075e-05 -1.67951e-05 0 -3.33136e-05 -1.55126e-05 0 -3.53405e-05 -1.39491e-05 0 -3.71141e-05 -1.21505e-05 0 -3.86076e-05 -1.01649e-05 0 -3.98068e-05 -8.03723e-06 0 -4.07061e-05 -5.80763e-06 0 -4.13045e-05 -3.51021e-06 0 -4.16032e-05 -1.17423e-06 0 -4.16032e-05 1.17423e-06 0 -4.13045e-05 3.51021e-06 0 -4.07061e-05 5.80763e-06 0 -3.98068e-05 8.03723e-06 0 -3.86076e-05 1.01649e-05 0 -3.71141e-05 1.21505e-05 0 -3.53405e-05 1.39491e-05 0 -3.33136e-05 1.55126e-05 0 -3.1075e-05 1.67951e-05 0 -2.86836e-05 1.77596e-05 0 -2.62061e-05 1.83857e-05 0 -2.37227e-05 1.86721e-05 0 -2.13025e-05 1.86429e-05 0 -1.90051e-05 1.83369e-05 0 -1.68723e-05 1.78056e-05 0 -1.49288e-05 1.71025e-05 0 -1.56074e-05 -1.53166e-05 0 -1.74114e-05 -1.58475e-05 0 -1.93578e-05 -1.62237e-05 0 -2.14234e-05 -1.64059e-05 0 -2.35722e-05 -1.63579e-05 0 -2.57577e-05 -1.60515e-05 0 -2.79245e-05 -1.54721e-05 0 -3.00176e-05 -1.46185e-05 0 -3.19813e-05 -1.35045e-05 0 -3.37695e-05 -1.21554e-05 0 -3.53453e-05 -1.06039e-05 0 -3.66825e-05 -8.88607e-06 0 -3.77643e-05 -7.03773e-06 0 -3.85807e-05 -5.09253e-06 0 -3.91267e-05 -3.08109e-06 0 -3.94e-05 -1.03123e-06 0 -3.94e-05 1.03123e-06 0 -3.91267e-05 3.08109e-06 0 -3.85807e-05 5.09253e-06 0 -3.77643e-05 7.03773e-06 0 -3.66825e-05 8.88607e-06 0 -3.53453e-05 1.06039e-05 0 -3.37695e-05 1.21554e-05 0 -3.19813e-05 1.35045e-05 0 -3.00176e-05 1.46185e-05 0 -2.79245e-05 1.54721e-05 0 -2.57577e-05 1.60515e-05 0 -2.35722e-05 1.63579e-05 0 -2.14234e-05 1.64059e-05 0 -1.93578e-05 1.62237e-05 0 -1.74114e-05 1.58475e-05 0 -1.56074e-05 1.53166e-05 0 -1.61298e-05 -1.36448e-05 0 -1.7806e-05 -1.40434e-05 0 -1.95896e-05 -1.43051e-05 0 -2.14588e-05 -1.44006e-05 0 -2.33836e-05 -1.43034e-05 0 -2.53262e-05 -1.3994e-05 0 -2.72446e-05 -1.34611e-05 0 -2.9093e-05 -1.27042e-05 0 -3.08294e-05 -1.17327e-05 0 -3.24153e-05 -1.05645e-05 0 -3.38193e-05 -9.22357e-06 0 -3.50169e-05 -7.73738e-06 0 -3.59906e-05 -6.13454e-06 0 -3.67289e-05 -4.44316e-06 0 -3.72244e-05 -2.69008e-06 0 -3.7473e-05 -9.00685e-07 0 -3.7473e-05 9.00685e-07 0 -3.72244e-05 2.69008e-06 0 -3.67289e-05 4.44316e-06 0 -3.59906e-05 6.13454e-06 0 -3.50169e-05 7.73738e-06 0 -3.38193e-05 9.22357e-06 0 -3.24153e-05 1.05645e-05 0 -3.08294e-05 1.17327e-05 0 -2.9093e-05 1.27042e-05 0 -2.72446e-05 1.34611e-05 0 -2.53262e-05 1.3994e-05 0 -2.33836e-05 1.43034e-05 0 -2.14588e-05 1.44006e-05 0 -1.95896e-05 1.43051e-05 0 -1.7806e-05 1.40434e-05 0 -1.61298e-05 1.36448e-05 0 -1.65302e-05 -1.20788e-05 0 -1.80918e-05 -1.2376e-05 0 -1.97341e-05 -1.25534e-05 0 -2.14375e-05 -1.25889e-05 0 -2.31762e-05 -1.2463e-05 0 -2.49194e-05 -1.21613e-05 0 -2.66325e-05 -1.16759e-05 0 -2.82803e-05 -1.10061e-05 0 -2.98277e-05 -1.01587e-05 0 -3.12432e-05 -9.14691e-06 0 -3.24996e-05 -7.98865e-06 0 -3.35748e-05 -6.70525e-06 0 -3.44521e-05 -5.31965e-06 0 -3.51192e-05 -3.85525e-06 0 -3.55681e-05 -2.33519e-06 0 -3.57937e-05 -7.82051e-07 0 -3.57937e-05 7.82051e-07 0 -3.55681e-05 2.33519e-06 0 -3.51192e-05 3.85525e-06 0 -3.44521e-05 5.31965e-06 0 -3.35748e-05 6.70525e-06 0 -3.24996e-05 7.98865e-06 0 -3.12432e-05 9.14691e-06 0 -2.98277e-05 1.01587e-05 0 -2.82803e-05 1.10061e-05 0 -2.66325e-05 1.16759e-05 0 -2.49194e-05 1.21613e-05 0 -2.31762e-05 1.2463e-05 0 -2.14375e-05 1.25889e-05 0 -1.97341e-05 1.25534e-05 0 -1.80918e-05 1.2376e-05 0 -1.65302e-05 1.20788e-05 0 -1.68354e-05 -1.06087e-05 0 -1.82959e-05 -1.08284e-05 0 -1.98167e-05 -1.09442e-05 0 -2.138e-05 -1.09394e-05 0 -2.29637e-05 -1.07994e-05 0 -2.45421e-05 -1.05136e-05 0 -2.6087e-05 -1.00762e-05 0 -2.7569e-05 -9.48665e-06 0 -2.89594e-05 -8.75005e-06 0 -3.02317e-05 -7.87627e-06 0 -3.13624e-05 -6.87914e-06 0 -3.2332e-05 -5.77539e-06 0 -3.31248e-05 -4.58351e-06 0 -3.37289e-05 -3.3229e-06 0 -3.4136e-05 -2.01329e-06 0 -3.43409e-05 -6.74348e-07 0 -3.43409e-05 6.74348e-07 0 -3.4136e-05 2.01329e-06 0 -3.37289e-05 3.3229e-06 0 -3.31248e-05 4.58351e-06 0 -3.2332e-05 5.77539e-06 0 -3.13624e-05 6.87914e-06 0 -3.02317e-05 7.87627e-06 0 -2.89594e-05 8.75005e-06 0 -2.7569e-05 9.48665e-06 0 -2.6087e-05 1.00762e-05 0 -2.45421e-05 1.05136e-05 0 -2.29637e-05 1.07994e-05 0 -2.138e-05 1.09394e-05 0 -1.98167e-05 1.09442e-05 0 -1.82959e-05 1.08284e-05 0 -1.68354e-05 1.06087e-05 0 -1.70666e-05 -9.22403e-06 0 -1.8439e-05 -9.3845e-06 0 -1.98559e-05 -9.45598e-06 0 -2.13013e-05 -9.42563e-06 0 -2.27561e-05 -9.28246e-06 0 -2.41984e-05 -9.0185e-06 0 -2.56042e-05 -8.62947e-06 0 -2.69493e-05 -8.11509e-06 0 -2.82094e-05 -7.47922e-06 0 -2.93621e-05 -6.72945e-06 0 -3.03869e-05 -5.87657e-06 0 -3.12665e-05 -4.93381e-06 0 -3.19865e-05 -3.91613e-06 0 -3.25359e-05 -2.83955e-06 0 -3.29065e-05 -1.72069e-06 0 -3.30931e-05 -5.7639e-07 0 -3.30931e-05 5.7639e-07 0 -3.29065e-05 1.72069e-06 0 -3.25359e-05 2.83955e-06 0 -3.19865e-05 3.91613e-06 0 -3.12665e-05 4.93381e-06 0 -3.03869e-05 5.87657e-06 0 -2.93621e-05 6.72945e-06 0 -2.82094e-05 7.47922e-06 0 -2.69493e-05 8.11509e-06 0 -2.56042e-05 8.62947e-06 0 -2.41984e-05 9.0185e-06 0 -2.27561e-05 9.28246e-06 0 -2.13013e-05 9.42563e-06 0 -1.98559e-05 9.45598e-06 0 -1.8439e-05 9.3845e-06 0 -1.70666e-05 9.22403e-06 0 -1.72403e-05 -7.91398e-06 0 -1.85369e-05 -8.02964e-06 0 -1.98659e-05 -8.06999e-06 0 -2.12129e-05 -8.02519e-06 0 -2.25608e-05 -7.88691e-06 0 -2.38908e-05 -7.64917e-06 0 -2.51824e-05 -7.3088e-06 0 -2.64148e-05 -6.86568e-06 0 -2.75675e-05 -6.32283e-06 0 -2.86209e-05 -5.68616e-06 0 -2.95573e-05 -4.96415e-06 0 -3.03611e-05 -4.16732e-06 0 -3.10195e-05 -3.30774e-06 0 -3.15222e-05 -2.39854e-06 0 -3.18615e-05 -1.45353e-06 0 -3.20324e-05 -4.86918e-07 0 -3.20324e-05 4.86918e-07 0 -3.18615e-05 1.45353e-06 0 -3.15222e-05 2.39854e-06 0 -3.10195e-05 3.30774e-06 0 -3.03611e-05 4.16732e-06 0 -2.95573e-05 4.96415e-06 0 -2.86209e-05 5.68616e-06 0 -2.75675e-05 6.32283e-06 0 -2.64148e-05 6.86568e-06 0 -2.51824e-05 7.3088e-06 0 -2.38908e-05 7.64917e-06 0 -2.25608e-05 7.88691e-06 0 -2.12129e-05 8.02519e-06 0 -1.98659e-05 8.06999e-06 0 -1.85369e-05 8.02964e-06 0 -1.72403e-05 7.91398e-06 0 -1.73694e-05 -6.66813e-06 0 -1.8602e-05 -6.75012e-06 0 -1.98576e-05 -6.76946e-06 0 -2.11231e-05 -6.71861e-06 0 -2.23832e-05 -6.59128e-06 0 -2.36214e-05 -6.38298e-06 0 -2.48198e-05 -6.09139e-06 0 -2.59603e-05 -5.71649e-06 0 -2.70251e-05 -5.26067e-06 0 -2.7997e-05 -4.72856e-06 0 -2.88605e-05 -4.12681e-06 0 -2.96016e-05 -3.46376e-06 0 -3.02087e-05 -2.74908e-06 0 -3.06723e-05 -1.99339e-06 0 -3.09853e-05 -1.20802e-06 0 -3.1143e-05 -4.04676e-07 0 -3.1143e-05 4.04676e-07 0 -3.09853e-05 1.20802e-06 0 -3.06723e-05 1.99339e-06 0 -3.02087e-05 2.74908e-06 0 -2.96016e-05 3.46376e-06 0 -2.88605e-05 4.12681e-06 0 -2.7997e-05 4.72856e-06 0 -2.70251e-05 5.26067e-06 0 -2.59603e-05 5.71649e-06 0 -2.48198e-05 6.09139e-06 0 -2.36214e-05 6.38298e-06 0 -2.23832e-05 6.59128e-06 0 -2.11231e-05 6.71861e-06 0 -1.98576e-05 6.76946e-06 0 -1.8602e-05 6.75012e-06 0 -1.73694e-05 6.66813e-06 0 -1.7464e-05 -5.47637e-06 0 -1.86436e-05 -5.5333e-06 0 -1.98391e-05 -5.53934e-06 0 -2.10383e-05 -5.48881e-06 0 -2.22275e-05 -5.37696e-06 0 -2.33917e-05 -5.20049e-06 0 -2.45151e-05 -4.95769e-06 0 -2.55818e-05 -4.64862e-06 0 -2.65758e-05 -4.27515e-06 0 -2.7482e-05 -3.84088e-06 0 -2.82864e-05 -3.351e-06 0 -2.89766e-05 -2.81201e-06 0 -2.95418e-05 -2.23153e-06 0 -2.99735e-05 -1.61801e-06 0 -3.02649e-05 -9.80504e-07 0 -3.04117e-05 -3.28458e-07 0 -3.04117e-05 3.28458e-07 0 -3.02649e-05 9.80504e-07 0 -2.99735e-05 1.61801e-06 0 -2.95418e-05 2.23153e-06 0 -2.89766e-05 2.81201e-06 0 -2.82864e-05 3.351e-06 0 -2.7482e-05 3.84088e-06 0 -2.65758e-05 4.27515e-06 0 -2.55818e-05 4.64862e-06 0 -2.45151e-05 4.95769e-06 0 -2.33917e-05 5.20049e-06 0 -2.22275e-05 5.37696e-06 0 -2.10383e-05 5.48881e-06 0 -1.98391e-05 5.53934e-06 0 -1.86436e-05 5.5333e-06 0 -1.7464e-05 5.47637e-06 0 -1.75319e-05 -4.32895e-06 0 -1.8669e-05 -4.3674e-06 0 -1.98166e-05 -4.366e-06 0 -2.09634e-05 -4.32054e-06 0 -2.20966e-05 -4.22755e-06 0 -2.32027e-05 -4.08463e-06 0 -2.42673e-05 -3.89055e-06 0 -2.5276e-05 -3.64543e-06 0 -2.62145e-05 -3.35068e-06 0 -2.7069e-05 -3.00906e-06 0 -2.78269e-05 -2.62447e-06 0 -2.84768e-05 -2.20188e-06 0 -2.90089e-05 -1.74712e-06 0 -2.94151e-05 -1.26668e-06 0 -2.96894e-05 -7.67569e-07 0 -2.98276e-05 -2.57123e-07 0 -2.98276e-05 2.57123e-07 0 -2.96894e-05 7.67569e-07 0 -2.94151e-05 1.26668e-06 0 -2.90089e-05 1.74712e-06 0 -2.84768e-05 2.20188e-06 0 -2.78269e-05 2.62447e-06 0 -2.7069e-05 3.00906e-06 0 -2.62145e-05 3.35068e-06 0 -2.5276e-05 3.64543e-06 0 -2.42673e-05 3.89055e-06 0 -2.32027e-05 4.08463e-06 0 -2.20966e-05 4.22755e-06 0 -2.09634e-05 4.32054e-06 0 -1.98166e-05 4.366e-06 0 -1.8669e-05 4.3674e-06 0 -1.75319e-05 4.32895e-06 0 -1.75791e-05 -3.21654e-06 0 -1.86836e-05 -3.24139e-06 0 -1.97948e-05 -3.23685e-06 0 -2.09018e-05 -3.19996e-06 0 -2.19928e-05 -3.12828e-06 0 -2.30551e-05 -3.02013e-06 0 -2.40755e-05 -2.8747e-06 0 -2.50405e-05 -2.69207e-06 0 -2.59372e-05 -2.4733e-06 0 -2.67528e-05 -2.22037e-06 0 -2.74756e-05 -1.93609e-06 0 -2.80951e-05 -1.62405e-06 0 -2.86021e-05 -1.28847e-06 0 -2.89891e-05 -9.34084e-07 0 -2.92504e-05 -5.66e-07 0 -2.9382e-05 -1.89597e-07 0 -2.9382e-05 1.89597e-07 0 -2.92504e-05 5.66e-07 0 -2.89891e-05 9.34084e-07 0 -2.86021e-05 1.28847e-06 0 -2.80951e-05 1.62405e-06 0 -2.74756e-05 1.93609e-06 0 -2.67528e-05 2.22037e-06 0 -2.59372e-05 2.4733e-06 0 -2.50405e-05 2.69207e-06 0 -2.40755e-05 2.8747e-06 0 -2.30551e-05 3.02013e-06 0 -2.19928e-05 3.12828e-06 0 -2.09018e-05 3.19996e-06 0 -1.97948e-05 3.23685e-06 0 -1.86836e-05 3.24139e-06 0 -1.75791e-05 3.21654e-06 0 -1.76098e-05 -2.13007e-06 0 -1.86914e-05 -2.1448e-06 0 -1.9777e-05 -2.14017e-06 0 -2.08562e-05 -2.11429e-06 0 -2.19177e-05 -2.06561e-06 0 -2.29494e-05 -1.99309e-06 0 -2.39389e-05 -1.89619e-06 0 -2.48736e-05 -1.77502e-06 0 -2.57412e-05 -1.63024e-06 0 -2.65296e-05 -1.46315e-06 0 -2.7228e-05 -1.27557e-06 0 -2.78262e-05 -1.06984e-06 0 -2.83156e-05 -8.48695e-07 0 -2.86892e-05 -6.15227e-07 0 -2.89413e-05 -3.72778e-07 0 -2.90683e-05 -1.2487e-07 0 -2.90683e-05 1.2487e-07 0 -2.89413e-05 3.72778e-07 0 -2.86892e-05 6.15227e-07 0 -2.83156e-05 8.48695e-07 0 -2.78262e-05 1.06984e-06 0 -2.7228e-05 1.27557e-06 0 -2.65296e-05 1.46315e-06 0 -2.57412e-05 1.63024e-06 0 -2.48736e-05 1.77502e-06 0 -2.39389e-05 1.89619e-06 0 -2.29494e-05 1.99309e-06 0 -2.19177e-05 2.06561e-06 0 -2.08562e-05 2.11429e-06 0 -1.9777e-05 2.14017e-06 0 -1.86914e-05 2.1448e-06 0 -1.76098e-05 2.13007e-06 0 -1.76271e-05 -1.06077e-06 0 -1.86951e-05 -1.06759e-06 0 -1.97655e-05 -1.0648e-06 0 -2.08282e-05 -1.05149e-06 0 -2.18722e-05 -1.02689e-06 0 -2.28858e-05 -9.905e-07 0 -2.38571e-05 -9.42075e-07 0 -2.47739e-05 -8.81657e-07 0 -2.56243e-05 -8.09586e-07 0 -2.63968e-05 -7.26493e-07 0 -2.70807e-05 -6.3328e-07 0 -2.76663e-05 -5.31094e-07 0 -2.81454e-05 -4.21287e-07 0 -2.85109e-05 -3.05383e-07 0 -2.87576e-05 -1.85033e-07 0 -2.88819e-05 -6.198e-08 0 -2.88819e-05 6.198e-08 0 -2.87576e-05 1.85033e-07 0 -2.85109e-05 3.05383e-07 0 -2.81454e-05 4.21287e-07 0 -2.76663e-05 5.31094e-07 0 -2.70807e-05 6.3328e-07 0 -2.63968e-05 7.26493e-07 0 -2.56243e-05 8.09586e-07 0 -2.47739e-05 8.81657e-07 0 -2.38571e-05 9.42075e-07 0 -2.28858e-05 9.905e-07 0 -2.18722e-05 1.02689e-06 0 -2.08282e-05 1.05149e-06 0 -1.97655e-05 1.0648e-06 0 -1.86951e-05 1.06759e-06 0 -1.76271e-05 1.06077e-06 0 -1.76327e-05 -0 0 -1.86961e-05 -0 0 -1.97615e-05 -0 0 -2.08187e-05 -0 0 -2.18569e-05 -0 0 -2.28646e-05 -0 0 -2.38299e-05 -0 0 -2.47408e-05 -0 0 -2.55855e-05 -0 0 -2.63527e-05 -0 0 -2.70318e-05 -0 0 -2.76133e-05 -0 0 -2.80889e-05 -0 0 -2.84518e-05 -0 0 -2.86967e-05 -0 0 -2.88201e-05 -0 0 -2.88201e-05 -0 0 -2.86967e-05 -0 0 -2.84518e-05 -0 0 -2.80889e-05 -0 0 -2.76133e-05 -0 0 -2.70318e-05 -0 0 -2.63527e-05 -0 0 -2.55855e-05 -0 0 -2.47408e-05 -0 0 -2.38299e-05 -0 0 -2.28646e-05 -0 0 -2.18569e-05 -0 0 -2.08187e-05 -0 0 -1.97615e-05 -0 0 -1.86961e-05 -0 0 -1.76327e-05 -0 0 </DataArray> 
</PointData> 
<Points> 
<DataArray type="Float32" NumberOfComponents="3"> 