<?xml version="1.0"?> 
<VTKFile type="StructuredGrid" version="0.1"> 
<StructuredGrid WholeExtent="0 31 0 31 0 0"> 
<Piece Extent="0 31 0 31 0 0"> 
<PointData>
<DataArray type="Float32" Name="B" format="ascii" NumberOfComponents="3"> 
0.00013394 -2.60978e-05 0 0.000144916 1.12581e-06 0 0.000156678 4.1049e-07 0 0.000166423 1.06306e-06 0 0.000188579 1.11206e-06 0 0.000207705 1.20959e-06 0 0.000230157 1.20268e-06 0 0.000250481 1.1321e-06 0 0.000270002 1.02414e-06 0 0.000286861 8.82244e-07 0 0.000301394 7.36986e-07 0 0.000313185 5.88388e-07 0 0.000322466 4.48109e-07 0 0.000329259 3.13291e-07 0 0.000333724 1.85541e-07 0 0.000335929 6.12324e-08 0 0.000335929 -6.12324e-08 0 0.000333724 -1.85541e-07 0 0.000329259 -3.13291e-07 0 0.000322466 -4.48109e-07 0 0.000313185 -5.88388e-07 0 0.000301394 -7.36986e-07 0 0.000286861 -8.82244e-07 0 0.000270002 -1.02414e-06 0 0.000250481 -1.1321e-06 0 0.000230157 -1.20268e-06 0 0.000207705 -1.20959e-06 0 0.000188579 -1.11206e-06 0 0.000166423 -1.06306e-06 0 0.000156678 -4.1049e-07 0 0.000144916 -1.12581e-06 0 0.00013394 2.60978e-05 0 -6.77664e-07 -8.31524e-06 0 -1.53388e-05 1.1155e-06 0 -1.74271e-05 -2.19804e-07 0 -1.7688e-05 9.61477e-08 0 -2.05035e-05 1.70904e-08 0 -2.22961e-05 3.78194e-08 0 -2.48225e-05 3.95366e-08 0 -2.69212e-05 3.07084e-08 0 -2.90429e-05 3.42241e-08 0 -3.08274e-05 2.49125e-08 0 -3.23939e-05 2.41287e-08 0 -3.36539e-05 1.73085e-08 0 -3.46532e-05 1.44824e-08 0 -3.53823e-05 9.40967e-09 0 -3.58632e-05 6.01987e-09 0 -3.61002e-05 1.73701e-09 0 -3.61002e-05 -1.73701e-09 0 -3.58632e-05 -6.01987e-09 0 -3.53823e-05 -9.40967e-09 0 -3.46532e-05 -1.44824e-08 0 -3.36539e-05 -1.73085e-08 0 -3.23939e-05 -2.41287e-08 0 -3.08274e-05 -2.49125e-08 0 -2.90429e-05 -3.42241e-08 0 -2.69212e-05 -3.07084e-08 0 -2.48225e-05 -3.95366e-08 0 -2.22961e-05 -3.78194e-08 0 -2.05035e-05 -1.70904e-08 0 -1.7688e-05 -9.61477e-08 0 -1.74271e-05 2.19804e-07 0 -1.53388e-05 -1.1155e-06 0 -6.77664e-07 8.31524e-06 0 1.10096e-06 -8.42995e-06 0 3.14029e-06 9.49726e-07 0 3.32234e-06 -2.32791e-07 0 3.56511e-06 4.48876e-09 0 4.00575e-06 -7.32088e-08 0 4.42331e-06 -6.0293e-08 0 4.88547e-06 -5.96569e-08 0 5.31846e-06 -6.12082e-08 0 5.7261e-06 -5.06052e-08 0 6.08349e-06 -4.74581e-08 0 6.38941e-06 -3.72494e-08 0 6.63945e-06 -3.14218e-08 0 6.83576e-06 -2.30144e-08 0 6.98e-06 -1.66918e-08 0 7.07469e-06 -9.56349e-09 0 7.12153e-06 -3.34832e-09 0 7.12153e-06 3.34832e-09 0 7.07469e-06 9.56349e-09 0 6.98e-06 1.66918e-08 0 6.83576e-06 2.30144e-08 0 6.63945e-06 3.14218e-08 0 6.38941e-06 3.72494e-08 0 6.08349e-06 4.74581e-08 0 5.7261e-06 5.06052e-08 0 5.31846e-06 6.12082e-08 0 4.88547e-06 5.96569e-08 0 4.42331e-06 6.0293e-08 0 4.00575e-06 7.32088e-08 0 3.56511e-06 -4.48876e-09 0 3.32234e-06 2.32791e-07 0 3.14029e-06 -9.49726e-07 0 1.10096e-06 8.42995e-06 0 3.46237e-07 -3.85736e-06 0 -8.13161e-07 4.85133e-07 0 -9.77287e-07 -8.40279e-08 0 -9.487e-07 5.98441e-08 0 -1.12737e-06 2.78339e-08 0 -1.21083e-06 3.82104e-08 0 -1.35623e-06 3.88762e-08 0 -1.46632e-06 3.38504e-08 0 -1.58418e-06 3.33899e-08 0 -1.68021e-06 2.68622e-08 0 -1.76622e-06 2.38742e-08 0 -1.83456e-06 1.82515e-08 0 -1.88921e-06 1.44648e-08 0 -1.92887e-06 9.81555e-09 0 -1.95513e-06 6.00596e-09 0 -1.96804e-06 1.87618e-09 0 -1.96804e-06 -1.87618e-09 0 -1.95513e-06 -6.00596e-09 0 -1.92887e-06 -9.81555e-09 0 -1.88921e-06 -1.44648e-08 0 -1.83456e-06 -1.82515e-08 0 -1.76622e-06 -2.38742e-08 0 -1.68021e-06 -2.68622e-08 0 -1.58418e-06 -3.33899e-08 0 -1.46632e-06 -3.38504e-08 0 -1.35623e-06 -3.88762e-08 0 -1.21083e-06 -3.82104e-08 0 -1.12737e-06 -2.78339e-08 0 -9.487e-07 -5.98441e-08 0 -9.77287e-07 8.40279e-08 0 -8.13161e-07 -4.85133e-07 0 3.46237e-07 3.85736e-06 0 4.18253e-07 -4.77765e-06 0 2.6595e-07 5.3822e-07 0 2.35684e-07 -1.2444e-07 0 2.92871e-07 1.44881e-08 0 3.04789e-07 -2.79269e-08 0 3.50129e-07 -1.97715e-08 0 3.7939e-07 -1.94015e-08 0 4.17054e-07 -2.11088e-08 0 4.46953e-07 -1.63706e-08 0 4.75993e-07 -1.625e-08 0 4.99366e-07 -1.21965e-08 0 5.19216e-07 -1.06686e-08 0 5.34417e-07 -7.5956e-09 0 5.45769e-07 -5.64438e-09 0 5.53134e-07 -3.15799e-09 0 5.56811e-07 -1.15075e-09 0 5.56811e-07 1.15075e-09 0 5.53134e-07 3.15799e-09 0 5.45769e-07 5.64438e-09 0 5.34417e-07 7.5956e-09 0 5.19216e-07 1.06686e-08 0 4.99366e-07 1.21965e-08 0 4.75993e-07 1.625e-08 0 4.46953e-07 1.63706e-08 0 4.17054e-07 2.11088e-08 0 3.7939e-07 1.94015e-08 0 3.50129e-07 1.97715e-08 0 3.04789e-07 2.79269e-08 0 2.92871e-07 -1.44881e-08 0 2.35684e-07 1.2444e-07 0 2.6595e-07 -5.3822e-07 0 4.18253e-07 4.77765e-06 0 2.57157e-07 -3.02654e-06 0 -2.25104e-08 3.6171e-07 0 -6.79326e-08 -7.10366e-08 0 -3.4743e-08 3.05263e-08 0 -6.25128e-08 4.80551e-09 0 -5.61225e-08 1.16405e-08 0 -6.92039e-08 1.20221e-08 0 -7.15502e-08 9.34054e-09 0 -7.913e-08 1.04105e-08 0 -8.30143e-08 7.55075e-09 0 -8.77699e-08 7.31543e-09 0 -9.09191e-08 5.23329e-09 0 -9.37586e-08 4.37873e-09 0 -9.56612e-08 2.84048e-09 0 -9.69934e-08 1.81735e-09 0 -9.76203e-08 5.23818e-10 0 -9.76203e-08 -5.23818e-10 0 -9.69934e-08 -1.81735e-09 0 -9.56612e-08 -2.84048e-09 0 -9.37586e-08 -4.37873e-09 0 -9.09191e-08 -5.23329e-09 0 -8.77699e-08 -7.31543e-09 0 -8.30143e-08 -7.55075e-09 0 -7.913e-08 -1.04105e-08 0 -7.15502e-08 -9.34054e-09 0 -6.92039e-08 -1.20221e-08 0 -5.61225e-08 -1.16405e-08 0 -6.25128e-08 -4.80551e-09 0 -3.4743e-08 -3.05263e-08 0 -6.79326e-08 7.10366e-08 0 -2.25104e-08 -3.6171e-07 0 2.57157e-07 3.02654e-06 0 2.32359e-07 -3.03542e-06 0 -3.02778e-09 3.45089e-07 0 -3.69248e-08 -7.60164e-08 0 -1.03025e-08 1.54435e-08 0 -2.93959e-08 -1.09294e-08 0 -2.2491e-08 -5.28584e-09 0 -3.02239e-08 -5.02383e-09 0 -2.99288e-08 -6.56135e-09 0 -3.3745e-08 -4.16072e-09 0 -3.50072e-08 -4.94811e-09 0 -3.71829e-08 -3.23134e-09 0 -3.8411e-08 -3.1691e-09 0 -3.96582e-08 -2.0654e-09 0 -4.0439e-08 -1.65614e-09 0 -4.10159e-08 -8.59927e-10 0 -4.12775e-08 -3.53853e-10 0 -4.12775e-08 3.53853e-10 0 -4.10159e-08 8.59927e-10 0 -4.0439e-08 1.65614e-09 0 -3.96582e-08 2.0654e-09 0 -3.8411e-08 3.1691e-09 0 -3.71829e-08 3.23134e-09 0 -3.50072e-08 4.94811e-09 0 -3.3745e-08 4.16072e-09 0 -2.99288e-08 6.56135e-09 0 -3.02239e-08 5.02383e-09 0 -2.2491e-08 5.28584e-09 0 -2.93959e-08 1.09294e-08 0 -1.03025e-08 -1.54435e-08 0 -3.69248e-08 7.60164e-08 0 -3.02778e-09 -3.45089e-07 0 2.32359e-07 3.03542e-06 0 1.89173e-07 -2.28041e-06 0 4.19422e-08 2.66298e-07 0 1.75152e-08 -5.48302e-08 0 4.21889e-08 1.82178e-08 0 3.30199e-08 -1.28204e-09 0 4.43517e-08 3.48078e-09 0 4.45755e-08 3.72443e-09 0 5.08321e-08 2.07342e-09 0 5.34505e-08 3.28585e-09 0 5.74259e-08 1.78732e-09 0 5.99603e-08 2.215e-09 0 6.24795e-08 1.3201e-09 0 6.42352e-08 1.28578e-09 0 6.56364e-08 7.36588e-10 0 6.6506e-08 5.32926e-10 0 6.69557e-08 1.20927e-10 0 6.69557e-08 -1.20927e-10 0 6.6506e-08 -5.32926e-10 0 6.56364e-08 -7.36588e-10 0 6.42352e-08 -1.28578e-09 0 6.24795e-08 -1.3201e-09 0 5.99603e-08 -2.215e-09 0 5.74259e-08 -1.78732e-09 0 5.34505e-08 -3.28585e-09 0 5.08321e-08 -2.07342e-09 0 4.45755e-08 -3.72443e-09 0 4.43517e-08 -3.48078e-09 0 3.30199e-08 1.28204e-09 0 4.21889e-08 -1.82178e-08 0 1.75152e-08 5.48302e-08 0 4.19422e-08 -2.66298e-07 0 1.89173e-07 2.28041e-06 0 1.66821e-07 -2.04837e-06 0 -1.41586e-08 2.34128e-07 0 -3.95556e-08 -5.03495e-08 0 -2.10596e-08 1.24695e-08 0 -3.66724e-08 -5.15483e-09 0 -3.32332e-08 -1.19258e-09 0 -4.0639e-08 -1.00641e-09 0 -4.20801e-08 -2.19271e-09 0 -4.64198e-08 -7.6999e-10 0 -4.87055e-08 -1.58392e-09 0 -5.1459e-08 -7.0472e-10 0 -5.33084e-08 -9.59632e-10 0 -5.49659e-08 -4.91679e-10 0 -5.60849e-08 -4.86936e-10 0 -5.68661e-08 -2.05547e-10 0 -5.72352e-08 -1.15509e-10 0 -5.72352e-08 1.15509e-10 0 -5.68661e-08 2.05547e-10 0 -5.60849e-08 4.86936e-10 0 -5.49659e-08 4.91679e-10 0 -5.33084e-08 9.59632e-10 0 -5.1459e-08 7.0472e-10 0 -4.87055e-08 1.58392e-09 0 -4.64198e-08 7.6999e-10 0 -4.20801e-08 2.19271e-09 0 -4.0639e-08 1.00641e-09 0 -3.32332e-08 1.19258e-09 0 -3.66724e-08 5.15483e-09 0 -2.10596e-08 -1.24695e-08 0 -3.95556e-08 5.03495e-08 0 -1.41586e-08 -2.34128e-07 0 1.66821e-07 2.04837e-06 0 1.47001e-07 -1.62784e-06 0 2.73008e-08 1.88156e-07 0 8.5154e-09 -3.94111e-08 0 2.69113e-08 1.17424e-08 0 1.93332e-08 -2.18603e-09 0 2.73445e-08 1.10909e-09 0 2.68693e-08 1.2701e-09 0 3.10067e-08 1.90156e-10 0 3.24223e-08 1.15859e-09 0 3.4934e-08 2.61249e-10 0 3.64258e-08 7.22478e-10 0 3.79829e-08 2.59804e-10 0 3.90369e-08 3.93369e-10 0 3.98951e-08 1.6042e-10 0 4.04204e-08 1.62514e-10 0 4.0695e-08 1.50933e-11 0 4.0695e-08 -1.50933e-11 0 4.04204e-08 -1.62514e-10 0 3.98951e-08 -1.6042e-10 0 3.90369e-08 -3.93369e-10 0 3.79829e-08 -2.59804e-10 0 3.64258e-08 -7.22478e-10 0 3.4934e-08 -2.61249e-10 0 3.24223e-08 -1.15859e-09 0 3.10067e-08 -1.90156e-10 0 2.68693e-08 -1.2701e-09 0 2.73445e-08 -1.10909e-09 0 1.93332e-08 2.18603e-09 0 2.69113e-08 -1.17424e-08 0 8.5154e-09 3.94111e-08 0 2.73008e-08 -1.88156e-07 0 1.47001e-07 1.62784e-06 0 1.33988e-07 -1.36565e-06 0 -2.96385e-09 1.56411e-07 0 -2.23313e-08 -3.33026e-08 0 -7.23319e-09 8.86781e-09 0 -1.83206e-08 -2.83278e-09 0 -1.456e-08 -1.49624e-10 0 -1.91685e-08 -2.33578e-11 0 -1.91867e-08 -8.54053e-10 0 -2.15348e-08 4.04823e-11 0 -2.24051e-08 -5.78513e-10 0 -2.37718e-08 -6.84773e-11 0 -2.45747e-08 -3.18954e-10 0 -2.53651e-08 -8.23644e-11 0 -2.58683e-08 -1.52971e-10 0 -2.6235e-08 -3.50576e-11 0 -2.64027e-08 -4.34389e-11 0 -2.64027e-08 4.34389e-11 0 -2.6235e-08 3.50576e-11 0 -2.58683e-08 1.52971e-10 0 -2.53651e-08 8.23644e-11 0 -2.45747e-08 3.18954e-10 0 -2.37718e-08 6.84773e-11 0 -2.24051e-08 5.78513e-10 0 -2.15348e-08 -4.04823e-11 0 -1.91867e-08 8.54053e-10 0 -1.91685e-08 2.33578e-11 0 -1.456e-08 1.49624e-10 0 -1.83206e-08 2.83278e-09 0 -7.23319e-09 -8.86781e-09 0 -2.23313e-08 3.33026e-08 0 -2.96385e-09 -1.56411e-07 0 1.33988e-07 1.36565e-06 0 1.23055e-07 -1.06788e-06 0 1.49316e-08 1.22863e-07 0 -1.2696e-09 -2.58934e-08 0 1.35382e-08 7.39846e-09 0 6.08884e-09 -1.73269e-09 0 1.17548e-08 4.02757e-10 0 1.02033e-08 5.04743e-10 0 1.25853e-08 -1.79436e-10 0 1.27518e-08 4.7919e-10 0 1.39599e-08 -6.80887e-11 0 1.44424e-08 2.70791e-10 0 1.51186e-08 9.20085e-12 0 1.55082e-08 1.33962e-10 0 1.58642e-08 1.8881e-11 0 1.60659e-08 5.50419e-11 0 1.61779e-08 -6.91902e-12 0 1.61779e-08 6.91902e-12 0 1.60659e-08 -5.50419e-11 0 1.58642e-08 -1.8881e-11 0 1.55082e-08 -1.33962e-10 0 1.51186e-08 -9.20085e-12 0 1.44424e-08 -2.70791e-10 0 1.39599e-08 6.80887e-11 0 1.27518e-08 -4.7919e-10 0 1.25853e-08 1.79436e-10 0 1.02033e-08 -5.04743e-10 0 1.17548e-08 -4.02757e-10 0 6.08884e-09 1.73269e-09 0 1.35382e-08 -7.39846e-09 0 -1.2696e-09 2.58934e-08 0 1.49316e-08 -1.22863e-07 0 1.23055e-07 1.06788e-06 0 1.15979e-07 -8.21163e-07 0 3.20568e-09 9.40932e-08 0 -1.2897e-08 -1.99588e-08 0 3.72615e-10 5.45402e-09 0 -8.25216e-09 -1.56825e-09 0 -4.30233e-09 5.4045e-11 0 -7.38186e-09 1.30218e-10 0 -6.61473e-09 -3.77781e-10 0 -7.87136e-09 1.47765e-10 0 -7.96338e-09 -2.41206e-10 0 -8.56914e-09 4.83414e-11 0 -8.7971e-09 -1.20119e-10 0 -9.11149e-09 5.24762e-12 0 -9.27653e-09 -5.36293e-11 0 -9.41557e-09 1.68251e-12 0 -9.47278e-09 -1.86131e-11 0 -9.47278e-09 1.86131e-11 0 -9.41557e-09 -1.68251e-12 0 -9.27653e-09 5.36293e-11 0 -9.11149e-09 -5.24762e-12 0 -8.7971e-09 1.20119e-10 0 -8.56914e-09 -4.83414e-11 0 -7.96338e-09 2.41206e-10 0 -7.87136e-09 -1.47765e-10 0 -6.61473e-09 3.77781e-10 0 -7.38186e-09 -1.30218e-10 0 -4.30233e-09 -5.4045e-11 0 -8.25216e-09 1.56825e-09 0 3.72615e-10 -5.45402e-09 0 -1.2897e-08 1.99588e-08 0 3.20568e-09 -9.40932e-08 0 1.15979e-07 8.21163e-07 0 1.10355e-07 -5.7294e-07 0 9.29263e-09 6.57869e-08 0 -5.47754e-09 -1.38931e-08 0 7.49078e-09 3.91229e-09 0 2.42747e-10 -9.83566e-10 0 4.78487e-09 1.57021e-10 0 2.79878e-09 2.10913e-10 0 4.37608e-09 -1.51476e-10 0 3.99968e-09 2.05874e-10 0 4.62095e-09 -8.00376e-11 0 4.65787e-09 1.08248e-10 0 4.94017e-09 -2.4385e-11 0 5.03491e-09 4.92551e-11 0 5.16685e-09 -5.58263e-12 0 5.22474e-09 2.01302e-11 0 5.2643e-09 -6.76861e-12 0 5.2643e-09 6.76861e-12 0 5.22474e-09 -2.01302e-11 0 5.16685e-09 5.58263e-12 0 5.03491e-09 -4.92551e-11 0 4.94017e-09 2.4385e-11 0 4.65787e-09 -1.08248e-10 0 4.62095e-09 8.00376e-11 0 3.99968e-09 -2.05874e-10 0 4.37608e-09 1.51476e-10 0 2.79878e-09 -2.10913e-10 0 4.78487e-09 -1.57021e-10 0 2.42747e-10 9.83566e-10 0 7.49078e-09 -3.91229e-09 0 -5.47754e-09 1.38931e-08 0 9.29263e-09 -6.57869e-08 0 1.10355e-07 5.7294e-07 0 1.07192e-07 -3.42033e-07 0 5.6211e-09 3.91853e-08 0 -8.96787e-09 -8.30321e-09 0 3.39835e-09 2.28468e-09 0 -4.13269e-09 -6.37891e-10 0 -1.60045e-10 3.86859e-11 0 -2.59077e-09 7.03687e-11 0 -1.52154e-09 -1.42058e-10 0 -2.3274e-09 7.53496e-11 0 -2.10856e-09 -8.84648e-11 0 -2.40354e-09 3.01571e-11 0 -2.39965e-09 -4.19754e-11 0 -2.52041e-09 8.32238e-12 0 -2.54864e-09 -1.80284e-11 0 -2.59521e-09 3.25092e-12 0 -2.60765e-09 -6.90735e-12 0 -2.60765e-09 6.90735e-12 0 -2.59521e-09 -3.25092e-12 0 -2.54864e-09 1.80284e-11 0 -2.52041e-09 -8.32238e-12 0 -2.39965e-09 4.19754e-11 0 -2.40354e-09 -3.01571e-11 0 -2.10856e-09 8.84648e-11 0 -2.3274e-09 -7.53496e-11 0 -1.52154e-09 1.42058e-10 0 -2.59077e-09 -7.03687e-11 0 -1.60045e-10 -3.86859e-11 0 -4.13269e-09 6.37891e-10 0 3.39835e-09 -2.28468e-09 0 -8.96787e-09 8.30321e-09 0 5.6211e-09 -3.91853e-08 0 1.07192e-07 3.42033e-07 0 1.05456e-07 -1.12553e-07 0 6.9958e-09 1.29295e-08 0 -7.22836e-09 -2.72712e-09 0 5.01916e-09 7.74117e-10 0 -2.166e-09 -1.87329e-10 0 1.9265e-09 3.71793e-11 0 -2.43766e-10 4.77875e-11 0 1.00693e-09 -2.37958e-11 0 4.06162e-10 4.58905e-11 0 7.87712e-10 -1.10258e-11 0 6.41347e-10 2.52232e-11 0 7.62283e-10 -1.62456e-12 0 7.35883e-10 1.21019e-11 0 7.75921e-10 6.00624e-13 0 7.7473e-10 4.96378e-12 0 7.84557e-10 -9.97575e-13 0 7.84557e-10 9.97575e-13 0 7.7473e-10 -4.96378e-12 0 7.75921e-10 -6.00624e-13 0 7.35883e-10 -1.21019e-11 0 7.62283e-10 1.62456e-12 0 6.41347e-10 -2.52232e-11 0 7.87712e-10 1.10258e-11 0 4.06162e-10 -4.58905e-11 0 1.00693e-09 2.37958e-11 0 -2.43766e-10 -4.77875e-11 0 1.9265e-09 -3.71793e-11 0 -2.166e-09 1.87329e-10 0 5.01916e-09 -7.74117e-10 0 -7.22836e-09 2.72712e-09 0 6.9958e-09 -1.29295e-08 0 1.05456e-07 1.12553e-07 0 1.05456e-07 1.12553e-07 0 6.9958e-09 -1.29295e-08 0 -7.22836e-09 2.72712e-09 0 5.01916e-09 -7.74117e-10 0 -2.166e-09 1.87329e-10 0 1.9265e-09 -3.71793e-11 0 -2.43766e-10 -4.77875e-11 0 1.00693e-09 2.37958e-11 0 4.06162e-10 -4.58905e-11 0 7.87712e-10 1.10258e-11 0 6.41347e-10 -2.52232e-11 0 7.62283e-10 1.62456e-12 0 7.35883e-10 -1.21019e-11 0 7.75921e-10 -6.00624e-13 0 7.7473e-10 -4.96378e-12 0 7.84557e-10 9.97575e-13 0 7.84557e-10 -9.97575e-13 0 7.7473e-10 4.96378e-12 0 7.75921e-10 6.00624e-13 0 7.35883e-10 1.21019e-11 0 7.62283e-10 -1.62456e-12 0 6.41347e-10 2.52232e-11 0 7.87712e-10 -1.10258e-11 0 4.06162e-10 4.58905e-11 0 1.00693e-09 -2.37958e-11 0 -2.43766e-10 4.77875e-11 0 1.9265e-09 3.71793e-11 0 -2.166e-09 -1.87329e-10 0 5.01916e-09 7.74117e-10 0 -7.22836e-09 -2.72712e-09 0 6.9958e-09 1.29295e-08 0 1.05456e-07 -1.12553e-07 0 1.07192e-07 3.42033e-07 0 5.6211e-09 -3.91853e-08 0 -8.96787e-09 8.30321e-09 0 3.39835e-09 -2.28468e-09 0 -4.13269e-09 6.37891e-10 0 -1.60045e-10 -3.86859e-11 0 -2.59077e-09 -7.03687e-11 0 -1.52154e-09 1.42058e-10 0 -2.3274e-09 -7.53496e-11 0 -2.10856e-09 8.84648e-11 0 -2.40354e-09 -3.01571e-11 0 -2.39965e-09 4.19754e-11 0 -2.52041e-09 -8.32238e-12 0 -2.54864e-09 1.80284e-11 0 -2.59521e-09 -3.25092e-12 0 -2.60765e-09 6.90735e-12 0 -2.60765e-09 -6.90735e-12 0 -2.59521e-09 3.25092e-12 0 -2.54864e-09 -1.80284e-11 0 -2.52041e-09 8.32238e-12 0 -2.39965e-09 -4.19754e-11 0 -2.40354e-09 3.01571e-11 0 -2.10856e-09 -8.84648e-11 0 -2.3274e-09 7.53496e-11 0 -1.52154e-09 -1.42058e-10 0 -2.59077e-09 7.03687e-11 0 -1.60045e-10 3.86859e-11 0 -4.13269e-09 -6.37891e-10 0 3.39835e-09 2.28468e-09 0 -8.96787e-09 -8.30321e-09 0 5.6211e-09 3.91853e-08 0 1.07192e-07 -3.42033e-07 0 1.10355e-07 5.7294e-07 0 9.29263e-09 -6.57869e-08 0 -5.47754e-09 1.38931e-08 0 7.49078e-09 -3.91229e-09 0 2.42747e-10 9.83566e-10 0 4.78487e-09 -1.57021e-10 0 2.79878e-09 -2.10913e-10 0 4.37608e-09 1.51476e-10 0 3.99968e-09 -2.05874e-10 0 4.62095e-09 8.00376e-11 0 4.65787e-09 -1.08248e-10 0 4.94017e-09 2.4385e-11 0 5.03491e-09 -4.92551e-11 0 5.16685e-09 5.58263e-12 0 5.22474e-09 -2.01302e-11 0 5.2643e-09 6.76861e-12 0 5.2643e-09 -6.76861e-12 0 5.22474e-09 2.01302e-11 0 5.16685e-09 -5.58263e-12 0 5.03491e-09 4.92551e-11 0 4.94017e-09 -2.4385e-11 0 4.65787e-09 1.08248e-10 0 4.62095e-09 -8.00376e-11 0 3.99968e-09 2.05874e-10 0 4.37608e-09 -1.51476e-10 0 2.79878e-09 2.10913e-10 0 4.78487e-09 1.57021e-10 0 2.42747e-10 -9.83566e-10 0 7.49078e-09 3.91229e-09 0 -5.47754e-09 -1.38931e-08 0 9.29263e-09 6.57869e-08 0 1.10355e-07 -5.7294e-07 0 1.15979e-07 8.21163e-07 0 3.20568e-09 -9.40932e-08 0 -1.2897e-08 1.99588e-08 0 3.72615e-10 -5.45402e-09 0 -8.25216e-09 1.56825e-09 0 -4.30233e-09 -5.4045e-11 0 -7.38186e-09 -1.30218e-10 0 -6.61473e-09 3.77781e-10 0 -7.87136e-09 -1.47765e-10 0 -7.96338e-09 2.41206e-10 0 -8.56914e-09 -4.83414e-11 0 -8.7971e-09 1.20119e-10 0 -9.11149e-09 -5.24762e-12 0 -9.27653e-09 5.36293e-11 0 -9.41557e-09 -1.68251e-12 0 -9.47278e-09 1.86131e-11 0 -9.47278e-09 -1.86131e-11 0 -9.41557e-09 1.68251e-12 0 -9.27653e-09 -5.36293e-11 0 -9.11149e-09 5.24762e-12 0 -8.7971e-09 -1.20119e-10 0 -8.56914e-09 4.83414e-11 0 -7.96338e-09 -2.41206e-10 0 -7.87136e-09 1.47765e-10 0 -6.61473e-09 -3.77781e-10 0 -7.38186e-09 1.30218e-10 0 -4.30233e-09 5.4045e-11 0 -8.25216e-09 -1.56825e-09 0 3.72615e-10 5.45402e-09 0 -1.2897e-08 -1.99588e-08 0 3.20568e-09 9.40932e-08 0 1.15979e-07 -8.21163e-07 0 1.23055e-07 1.06788e-06 0 1.49316e-08 -1.22863e-07 0 -1.2696e-09 2.58934e-08 0 1.35382e-08 -7.39846e-09 0 6.08884e-09 1.73269e-09 0 1.17548e-08 -4.02757e-10 0 1.02033e-08 -5.04743e-10 0 1.25853e-08 1.79436e-10 0 1.27518e-08 -4.7919e-10 0 1.39599e-08 6.80887e-11 0 1.44424e-08 -2.70791e-10 0 1.51186e-08 -9.20085e-12 0 1.55082e-08 -1.33962e-10 0 1.58642e-08 -1.8881e-11 0 1.60659e-08 -5.50419e-11 0 1.61779e-08 6.91902e-12 0 1.61779e-08 -6.91902e-12 0 1.60659e-08 5.50419e-11 0 1.58642e-08 1.8881e-11 0 1.55082e-08 1.33962e-10 0 1.51186e-08 9.20085e-12 0 1.44424e-08 2.70791e-10 0 1.39599e-08 -6.80887e-11 0 1.27518e-08 4.7919e-10 0 1.25853e-08 -1.79436e-10 0 1.02033e-08 5.04743e-10 0 1.17548e-08 4.02757e-10 0 6.08884e-09 -1.73269e-09 0 1.35382e-08 7.39846e-09 0 -1.2696e-09 -2.58934e-08 0 1.49316e-08 1.22863e-07 0 1.23055e-07 -1.06788e-06 0 1.33988e-07 1.36565e-06 0 -2.96385e-09 -1.56411e-07 0 -2.23313e-08 3.33026e-08 0 -7.23319e-09 -8.86781e-09 0 -1.83206e-08 2.83278e-09 0 -1.456e-08 1.49624e-10 0 -1.91685e-08 2.33578e-11 0 -1.91867e-08 8.54053e-10 0 -2.15348e-08 -4.04823e-11 0 -2.24051e-08 5.78513e-10 0 -2.37718e-08 6.84773e-11 0 -2.45747e-08 3.18954e-10 0 -2.53651e-08 8.23644e-11 0 -2.58683e-08 1.52971e-10 0 -2.6235e-08 3.50576e-11 0 -2.64027e-08 4.34389e-11 0 -2.64027e-08 -4.34389e-11 0 -2.6235e-08 -3.50576e-11 0 -2.58683e-08 -1.52971e-10 0 -2.53651e-08 -8.23644e-11 0 -2.45747e-08 -3.18954e-10 0 -2.37718e-08 -6.84773e-11 0 -2.24051e-08 -5.78513e-10 0 -2.15348e-08 4.04823e-11 0 -1.91867e-08 -8.54053e-10 0 -1.91685e-08 -2.33578e-11 0 -1.456e-08 -1.49624e-10 0 -1.83206e-08 -2.83278e-09 0 -7.23319e-09 8.86781e-09 0 -2.23313e-08 -3.33026e-08 0 -2.96385e-09 1.56411e-07 0 1.33988e-07 -1.36565e-06 0 1.47001e-07 1.62784e-06 0 2.73008e-08 -1.88156e-07 0 8.5154e-09 3.94111e-08 0 2.69113e-08 -1.17424e-08 0 1.93332e-08 2.18603e-09 0 2.73445e-08 -1.10909e-09 0 2.68693e-08 -1.2701e-09 0 3.10067e-08 -1.90156e-10 0 3.24223e-08 -1.15859e-09 0 3.4934e-08 -2.61249e-10 0 3.64258e-08 -7.22478e-10 0 3.79829e-08 -2.59804e-10 0 3.90369e-08 -3.93369e-10 0 3.98951e-08 -1.6042e-10 0 4.04204e-08 -1.62514e-10 0 4.0695e-08 -1.50933e-11 0 4.0695e-08 1.50933e-11 0 4.04204e-08 1.62514e-10 0 3.98951e-08 1.6042e-10 0 3.90369e-08 3.93369e-10 0 3.79829e-08 2.59804e-10 0 3.64258e-08 7.22478e-10 0 3.4934e-08 2.61249e-10 0 3.24223e-08 1.15859e-09 0 3.10067e-08 1.90156e-10 0 2.68693e-08 1.2701e-09 0 2.73445e-08 1.10909e-09 0 1.93332e-08 -2.18603e-09 0 2.69113e-08 1.17424e-08 0 8.5154e-09 -3.94111e-08 0 2.73008e-08 1.88156e-07 0 1.47001e-07 -1.62784e-06 0 1.66821e-07 2.04837e-06 0 -1.41586e-08 -2.34128e-07 0 -3.95556e-08 5.03495e-08 0 -2.10596e-08 -1.24695e-08 0 -3.66724e-08 5.15483e-09 0 -3.32332e-08 1.19258e-09 0 -4.0639e-08 1.00641e-09 0 -4.20801e-08 2.19271e-09 0 -4.64198e-08 7.6999e-10 0 -4.87055e-08 1.58392e-09 0 -5.1459e-08 7.0472e-10 0 -5.33084e-08 9.59632e-10 0 -5.49659e-08 4.91679e-10 0 -5.60849e-08 4.86936e-10 0 -5.68661e-08 2.05547e-10 0 -5.72352e-08 1.15509e-10 0 -5.72352e-08 -1.15509e-10 0 -5.68661e-08 -2.05547e-10 0 -5.60849e-08 -4.86936e-10 0 -5.49659e-08 -4.91679e-10 0 -5.33084e-08 -9.59632e-10 0 -5.1459e-08 -7.0472e-10 0 -4.87055e-08 -1.58392e-09 0 -4.64198e-08 -7.6999e-10 0 -4.20801e-08 -2.19271e-09 0 -4.0639e-08 -1.00641e-09 0 -3.32332e-08 -1.19258e-09 0 -3.66724e-08 -5.15483e-09 0 -2.10596e-08 1.24695e-08 0 -3.95556e-08 -5.03495e-08 0 -1.41586e-08 2.34128e-07 0 1.66821e-07 -2.04837e-06 0 1.89173e-07 2.28041e-06 0 4.19422e-08 -2.66298e-07 0 1.75152e-08 5.48302e-08 0 4.21889e-08 -1.82178e-08 0 3.30199e-08 1.28204e-09 0 4.43517e-08 -3.48078e-09 0 4.45755e-08 -3.72443e-09 0 5.08321e-08 -2.07342e-09 0 5.34505e-08 -3.28585e-09 0 5.74259e-08 -1.78732e-09 0 5.99603e-08 -2.215e-09 0 6.24795e-08 -1.3201e-09 0 6.42352e-08 -1.28578e-09 0 6.56364e-08 -7.36588e-10 0 6.6506e-08 -5.32926e-10 0 6.69557e-08 -1.20927e-10 0 6.69557e-08 1.20927e-10 0 6.6506e-08 5.32926e-10 0 6.56364e-08 7.36588e-10 0 6.42352e-08 1.28578e-09 0 6.24795e-08 1.3201e-09 0 5.99603e-08 2.215e-09 0 5.74259e-08 1.78732e-09 0 5.34505e-08 3.28585e-09 0 5.08321e-08 2.07342e-09 0 4.45755e-08 3.72443e-09 0 4.43517e-08 3.48078e-09 0 3.30199e-08 -1.28204e-09 0 4.21889e-08 1.82178e-08 0 1.75152e-08 -5.48302e-08 0 4.19422e-08 2.66298e-07 0 1.89173e-07 -2.28041e-06 0 2.32359e-07 3.03542e-06 0 -3.02778e-09 -3.45089e-07 0 -3.69248e-08 7.60164e-08 0 -1.03025e-08 -1.54435e-08 0 -2.93959e-08 1.09294e-08 0 -2.2491e-08 5.28584e-09 0 -3.02239e-08 5.02383e-09 0 -2.99288e-08 6.56135e-09 0 -3.3745e-08 4.16072e-09 0 -3.50072e-08 4.94811e-09 0 -3.71829e-08 3.23134e-09 0 -3.8411e-08 3.1691e-09 0 -3.96582e-08 2.0654e-09 0 -4.0439e-08 1.65614e-09 0 -4.10159e-08 8.59927e-10 0 -4.12775e-08 3.53853e-10 0 -4.12775e-08 -3.53853e-10 0 -4.10159e-08 -8.59927e-10 0 -4.0439e-08 -1.65614e-09 0 -3.96582e-08 -2.0654e-09 0 -3.8411e-08 -3.1691e-09 0 -3.71829e-08 -3.23134e-09 0 -3.50072e-08 -4.94811e-09 0 -3.3745e-08 -4.16072e-09 0 -2.99288e-08 -6.56135e-09 0 -3.02239e-08 -5.02383e-09 0 -2.2491e-08 -5.28584e-09 0 -2.93959e-08 -1.09294e-08 0 -1.03025e-08 1.54435e-08 0 -3.69248e-08 -7.60164e-08 0 -3.02778e-09 3.45089e-07 0 2.32359e-07 -3.03542e-06 0 2.57157e-07 3.02654e-06 0 -2.25104e-08 -3.6171e-07 0 -6.79326e-08 7.10366e-08 0 -3.4743e-08 -3.05263e-08 0 -6.25128e-08 -4.80551e-09 0 -5.61225e-08 -1.16405e-08 0 -6.92039e-08 -1.20221e-08 0 -7.15502e-08 -9.34054e-09 0 -7.913e-08 -1.04105e-08 0 -8.30143e-08 -7.55075e-09 0 -8.77699e-08 -7.31543e-09 0 -9.09191e-08 -5.23329e-09 0 -9.37586e-08 -4.37873e-09 0 -9.56612e-08 -2.84048e-09 0 -9.69934e-08 -1.81735e-09 0 -9.76203e-08 -5.23818e-10 0 -9.76203e-08 5.23818e-10 0 -9.69934e-08 1.81735e-09 0 -9.56612e-08 2.84048e-09 0 -9.37586e-08 4.37873e-09 0 -9.09191e-08 5.23329e-09 0 -8.77699e-08 7.31543e-09 0 -8.30143e-08 7.55075e-09 0 -7.913e-08 1.04105e-08 0 -7.15502e-08 9.34054e-09 0 -6.92039e-08 1.20221e-08 0 -5.61225e-08 1.16405e-08 0 -6.25128e-08 4.80551e-09 0 -3.4743e-08 3.05263e-08 0 -6.79326e-08 -7.10366e-08 0 -2.25104e-08 3.6171e-07 0 2.57157e-07 -3.02654e-06 0 4.18253e-07 4.77765e-06 0 2.6595e-07 -5.3822e-07 0 2.35684e-07 1.2444e-07 0 2.92871e-07 -1.44881e-08 0 3.04789e-07 2.79269e-08 0 3.50129e-07 1.97715e-08 0 3.7939e-07 1.94015e-08 0 4.17054e-07 2.11088e-08 0 4.46953e-07 1.63706e-08 0 4.75993e-07 1.625e-08 0 4.99366e-07 1.21965e-08 0 5.19216e-07 1.06686e-08 0 5.34417e-07 7.5956e-09 0 5.45769e-07 5.64438e-09 0 5.53134e-07 3.15799e-09 0 5.56811e-07 1.15075e-09 0 5.56811e-07 -1.15075e-09 0 5.53134e-07 -3.15799e-09 0 5.45769e-07 -5.64438e-09 0 5.34417e-07 -7.5956e-09 0 5.19216e-07 -1.06686e-08 0 4.99366e-07 -1.21965e-08 0 4.75993e-07 -1.625e-08 0 4.46953e-07 -1.63706e-08 0 4.17054e-07 -2.11088e-08 0 3.7939e-07 -1.94015e-08 0 3.50129e-07 -1.97715e-08 0 3.04789e-07 -2.79269e-08 0 2.92871e-07 1.44881e-08 0 2.35684e-07 -1.2444e-07 0 2.6595e-07 5.3822e-07 0 4.18253e-07 -4.77765e-06 0 3.46237e-07 3.85736e-06 0 -8.13161e-07 -4.85133e-07 0 -9.77287e-07 8.40279e-08 0 -9.487e-07 -5.98441e-08 0 -1.12737e-06 -2.78339e-08 0 -1.21083e-06 -3.82104e-08 0 -1.35623e-06 -3.88762e-08 0 -1.46632e-06 -3.38504e-08 0 -1.58418e-06 -3.33899e-08 0 -1.68021e-06 -2.68622e-08 0 -1.76622e-06 -2.38742e-08 0 -1.83456e-06 -1.82515e-08 0 -1.88921e-06 -1.44648e-08 0 -1.92887e-06 -9.81555e-09 0 -1.95513e-06 -6.00596e-09 0 -1.96804e-06 -1.87618e-09 0 -1.96804e-06 1.87618e-09 0 -1.95513e-06 6.00596e-09 0 -1.92887e-06 9.81555e-09 0 -1.88921e-06 1.44648e-08 0 -1.83456e-06 1.82515e-08 0 -1.76622e-06 2.38742e-08 0 -1.68021e-06 2.68622e-08 0 -1.58418e-06 3.33899e-08 0 -1.46632e-06 3.38504e-08 0 -1.35623e-06 3.88762e-08 0 -1.21083e-06 3.82104e-08 0 -1.12737e-06 2.78339e-08 0 -9.487e-07 5.98441e-08 0 -9.77287e-07 -8.40279e-08 0 -8.13161e-07 4.85133e-07 0 3.46237e-07 -3.85736e-06 0 1.10096e-06 8.42995e-06 0 3.14029e-06 -9.49726e-07 0 3.32234e-06 2.32791e-07 0 3.56511e-06 -4.48876e-09 0 4.00575e-06 7.32088e-08 0 4.42331e-06 6.0293e-08 0 4.88547e-06 5.96569e-08 0 5.31846e-06 6.12082e-08 0 5.7261e-06 5.06052e-08 0 6.08349e-06 4.74581e-08 0 6.38941e-06 3.72494e-08 0 6.63945e-06 3.14218e-08 0 6.83576e-06 2.30144e-08 0 6.98e-06 1.66918e-08 0 7.07469e-06 9.56349e-09 0 7.12153e-06 3.34832e-09 0 7.12153e-06 -3.34832e-09 0 7.07469e-06 -9.56349e-09 0 6.98e-06 -1.66918e-08 0 6.83576e-06 -2.30144e-08 0 6.63945e-06 -3.14218e-08 0 6.38941e-06 -3.72494e-08 0 6.08349e-06 -4.74581e-08 0 5.7261e-06 -5.06052e-08 0 5.31846e-06 -6.12082e-08 0 4.88547e-06 -5.96569e-08 0 4.42331e-06 -6.0293e-08 0 4.00575e-06 -7.32088e-08 0 3.56511e-06 4.48876e-09 0 3.32234e-06 -2.32791e-07 0 3.14029e-06 9.49726e-07 0 1.10096e-06 -8.42995e-06 0 -6.77664e-07 8.31524e-06 0 -1.53388e-05 -1.1155e-06 0 -1.74271e-05 2.19804e-07 0 -1.7688e-05 -9.61477e-08 0 -2.05035e-05 -1.70904e-08 0 -2.22961e-05 -3.78194e-08 0 -2.48225e-05 -3.95366e-08 0 -2.69212e-05 -3.07084e-08 0 -2.90429e-05 -3.42241e-08 0 -3.08274e-05 -2.49125e-08 0 -3.23939e-05 -2.41287e-08 0 -3.36539e-05 -1.73085e-08 0 -3.46532e-05 -1.44824e-08 0 -3.53823e-05 -9.40967e-09 0 -3.58632e-05 -6.01987e-09 0 -3.61002e-05 -1.73701e-09 0 -3.61002e-05 1.73701e-09 0 -3.58632e-05 6.01987e-09 0 -3.53823e-05 9.40967e-09 0 -3.46532e-05 1.44824e-08 0 -3.36539e-05 1.73085e-08 0 -3.23939e-05 2.41287e-08 0 -3.08274e-05 2.49125e-08 0 -2.90429e-05 3.42241e-08 0 -2.69212e-05 3.07084e-08 0 -2.48225e-05 3.95366e-08 0 -2.22961e-05 3.78194e-08 0 -2.05035e-05 1.70904e-08 0 -1.7688e-05 9.61477e-08 0 -1.74271e-05 -2.19804e-07 0 -1.53388e-05 1.1155e-06 0 -6.77664e-07 -8.31524e-06 0 0.00013394 2.60978e-05 0 0.000144916 -1.12581e-06 0 0.000156678 -4.1049e-07 0 0.000166423 -1.06306e-06 0 0.000188579 -1.11206e-06 0 0.000207705 -1.20959e-06 0 0.000230157 -1.20268e-06 0 0.000250481 -1.1321e-06 0 0.000270002 -1.02414e-06 0 0.000286861 -8.82244e-07 0 0.000301394 -7.36986e-07 0 0.000313185 -5.88388e-07 0 0.000322466 -4.48109e-07 0 0.000329259 -3.13291e-07 0 0.000333724 -1.85541e-07 0 0.000335929 -6.12324e-08 0 0.000335929 6.12324e-08 0 0.000333724 1.85541e-07 0 0.000329259 3.13291e-07 0 0.000322466 4.48109e-07 0 0.000313185 5.88388e-07 0 0.000301394 7.36986e-07 0 0.000286861 8.82244e-07 0 0.000270002 1.02414e-06 0 0.000250481 1.1321e-06 0 0.000230157 1.20268e-06 0 0.000207705 1.20959e-06 0 0.000188579 1.11206e-06 0 0.000166423 1.06306e-06 0 0.000156678 4.1049e-07 0 0.000144916 1.12581e-06 0 0.00013394 -2.60978e-05 0 </DataArray> 
</PointData> 
<Points> 
<DataArray type="Float32" NumberOfComponents="3"> 