<?xml version="1.0"?> 
<VTKFile type="StructuredGrid" version="0.1"> 
<StructuredGrid WholeExtent="0 31 0 31 0 0"> 
<Piece Extent="0 31 0 31 0 0"> 
<PointData>
<DataArray type="Float32" Name="B" format="ascii" NumberOfComponents="3"> 
1.11433e-05 -0 0 1.18215e-05 -0 0 1.25014e-05 -0 0 1.31764e-05 -0 0 1.38395e-05 -0 0 1.44835e-05 -0 0 1.51006e-05 -0 0 1.56831e-05 -0 0 1.62235e-05 -0 0 1.67144e-05 -0 0 1.7149e-05 -0 0 1.75212e-05 -0 0 1.78257e-05 -0 0 1.80581e-05 -0 0 1.82149e-05 -0 0 1.82939e-05 -0 0 1.82939e-05 -0 0 1.82149e-05 -0 0 1.80581e-05 -0 0 1.78257e-05 -0 0 1.75212e-05 -0 0 1.7149e-05 -0 0 1.67144e-05 -0 0 1.62235e-05 -0 0 1.56831e-05 -0 0 1.51006e-05 -0 0 1.44835e-05 -0 0 1.38395e-05 -0 0 1.31764e-05 -0 0 1.25014e-05 -0 0 1.18215e-05 -0 0 1.11433e-05 -0 0 1.11396e-05 -6.76311e-07 0 1.18207e-05 -6.81068e-07 0 1.25037e-05 -6.79665e-07 0 1.31822e-05 -6.71504e-07 0 1.38491e-05 -6.56097e-07 0 1.44969e-05 -6.33109e-07 0 1.51179e-05 -6.02378e-07 0 1.57042e-05 -5.63927e-07 0 1.62482e-05 -5.17974e-07 0 1.67425e-05 -4.64922e-07 0 1.71802e-05 -4.05352e-07 0 1.75552e-05 -3.4e-07 0 1.78619e-05 -2.69737e-07 0 1.80959e-05 -1.95546e-07 0 1.82539e-05 -1.1849e-07 0 1.83335e-05 -3.96913e-08 0 1.83335e-05 3.96913e-08 0 1.82539e-05 1.1849e-07 0 1.80959e-05 1.95546e-07 0 1.78619e-05 2.69737e-07 0 1.75552e-05 3.4e-07 0 1.71802e-05 4.05352e-07 0 1.67425e-05 4.64922e-07 0 1.62482e-05 5.17974e-07 0 1.57042e-05 5.63927e-07 0 1.51179e-05 6.02378e-07 0 1.44969e-05 6.33109e-07 0 1.38491e-05 6.56097e-07 0 1.31822e-05 6.71504e-07 0 1.25037e-05 6.79665e-07 0 1.18207e-05 6.81068e-07 0 1.11396e-05 6.76311e-07 0 1.11279e-05 -1.35809e-06 0 1.18178e-05 -1.3683e-06 0 1.25106e-05 -1.36611e-06 0 1.31997e-05 -1.35028e-06 0 1.38778e-05 -1.3198e-06 0 1.45372e-05 -1.27399e-06 0 1.51699e-05 -1.21251e-06 0 1.57677e-05 -1.13539e-06 0 1.63228e-05 -1.04308e-06 0 1.68274e-05 -9.3639e-07 0 1.72744e-05 -8.16508e-07 0 1.76574e-05 -6.84928e-07 0 1.79709e-05 -5.43418e-07 0 1.82101e-05 -3.93966e-07 0 1.83715e-05 -2.38727e-07 0 1.84529e-05 -7.9969e-08 0 1.84529e-05 7.9969e-08 0 1.83715e-05 2.38727e-07 0 1.82101e-05 3.93966e-07 0 1.79709e-05 5.43418e-07 0 1.76574e-05 6.84928e-07 0 1.72744e-05 8.16508e-07 0 1.68274e-05 9.3639e-07 0 1.63228e-05 1.04308e-06 0 1.57677e-05 1.13539e-06 0 1.51699e-05 1.21251e-06 0 1.45372e-05 1.27399e-06 0 1.38778e-05 1.3198e-06 0 1.31997e-05 1.35028e-06 0 1.25106e-05 1.36611e-06 0 1.18178e-05 1.3683e-06 0 1.11279e-05 1.35809e-06 0 1.11072e-05 -2.05084e-06 0 1.18118e-05 -2.06796e-06 0 1.2521e-05 -2.06624e-06 0 1.3228e-05 -2.04374e-06 0 1.39251e-05 -1.9989e-06 0 1.46041e-05 -1.93061e-06 0 1.52567e-05 -1.83833e-06 0 1.58741e-05 -1.72211e-06 0 1.64479e-05 -1.58261e-06 0 1.697e-05 -1.42111e-06 0 1.74328e-05 -1.23941e-06 0 1.78295e-05 -1.03982e-06 0 1.81542e-05 -8.25069e-07 0 1.84021e-05 -5.98195e-07 0 1.85695e-05 -3.62494e-07 0 1.86538e-05 -1.21431e-07 0 1.86538e-05 1.21431e-07 0 1.85695e-05 3.62494e-07 0 1.84021e-05 5.98195e-07 0 1.81542e-05 8.25069e-07 0 1.78295e-05 1.03982e-06 0 1.74328e-05 1.23941e-06 0 1.697e-05 1.42111e-06 0 1.64479e-05 1.58261e-06 0 1.58741e-05 1.72211e-06 0 1.52567e-05 1.83833e-06 0 1.46041e-05 1.93061e-06 0 1.39251e-05 1.9989e-06 0 1.3228e-05 2.04374e-06 0 1.2521e-05 2.06624e-06 0 1.18118e-05 2.06796e-06 0 1.11072e-05 2.05084e-06 0 1.10756e-05 -2.76021e-06 0 1.1801e-05 -2.78647e-06 0 1.25336e-05 -2.7872e-06 0 1.32661e-05 -2.75964e-06 0 1.39903e-05 -2.70154e-06 0 1.46976e-05 -2.61133e-06 0 1.53786e-05 -2.4882e-06 0 1.60241e-05 -2.33221e-06 0 1.66248e-05 -2.14426e-06 0 1.7172e-05 -1.9261e-06 0 1.76574e-05 -1.68026e-06 0 1.80737e-05 -1.40994e-06 0 1.84146e-05 -1.11888e-06 0 1.86749e-05 -8.11278e-07 0 1.88506e-05 -4.91639e-07 0 1.89392e-05 -1.64696e-07 0 1.89392e-05 1.64696e-07 0 1.88506e-05 4.91639e-07 0 1.86749e-05 8.11278e-07 0 1.84146e-05 1.11888e-06 0 1.80737e-05 1.40994e-06 0 1.76574e-05 1.68026e-06 0 1.7172e-05 1.9261e-06 0 1.66248e-05 2.14426e-06 0 1.60241e-05 2.33221e-06 0 1.53786e-05 2.4882e-06 0 1.46976e-05 2.61133e-06 0 1.39903e-05 2.70154e-06 0 1.32661e-05 2.75964e-06 0 1.25336e-05 2.7872e-06 0 1.1801e-05 2.78647e-06 0 1.10756e-05 2.76021e-06 0 1.10302e-05 -3.49196e-06 0 1.17828e-05 -3.53056e-06 0 1.25461e-05 -3.53653e-06 0 1.33123e-05 -3.50618e-06 0 1.40726e-05 -3.43643e-06 0 1.48172e-05 -3.3251e-06 0 1.55361e-05 -3.17109e-06 0 1.62189e-05 -2.9744e-06 0 1.68554e-05 -2.73623e-06 0 1.74359e-05 -2.45889e-06 0 1.79513e-05 -2.1457e-06 0 1.83935e-05 -1.80087e-06 0 1.87558e-05 -1.4293e-06 0 1.90324e-05 -1.03643e-06 0 1.92192e-05 -6.2811e-07 0 1.93133e-05 -2.10416e-07 0 1.93133e-05 2.10416e-07 0 1.92192e-05 6.2811e-07 0 1.90324e-05 1.03643e-06 0 1.87558e-05 1.4293e-06 0 1.83935e-05 1.80087e-06 0 1.79513e-05 2.1457e-06 0 1.74359e-05 2.45889e-06 0 1.68554e-05 2.73623e-06 0 1.62189e-05 2.9744e-06 0 1.55361e-05 3.17109e-06 0 1.48172e-05 3.3251e-06 0 1.40726e-05 3.43643e-06 0 1.33123e-05 3.50618e-06 0 1.25461e-05 3.53653e-06 0 1.17828e-05 3.53056e-06 0 1.10302e-05 3.49196e-06 0 1.09672e-05 -4.2521e-06 0 1.17538e-05 -4.30728e-06 0 1.25557e-05 -4.3223e-06 0 1.33644e-05 -4.29226e-06 0 1.41703e-05 -4.21306e-06 0 1.49625e-05 -4.08176e-06 0 1.57297e-05 -3.89684e-06 0 1.64601e-05 -3.65827e-06 0 1.71422e-05 -3.36755e-06 0 1.7765e-05 -3.02767e-06 0 1.83185e-05 -2.6429e-06 0 1.87936e-05 -2.21863e-06 0 1.91828e-05 -1.76107e-06 0 1.94801e-05 -1.27709e-06 0 1.96808e-05 -7.73976e-07 0 1.97819e-05 -2.59283e-07 0 1.97819e-05 2.59283e-07 0 1.96808e-05 7.73976e-07 0 1.94801e-05 1.27709e-06 0 1.91828e-05 1.76107e-06 0 1.87936e-05 2.21863e-06 0 1.83185e-05 2.6429e-06 0 1.7765e-05 3.02767e-06 0 1.71422e-05 3.36755e-06 0 1.64601e-05 3.65827e-06 0 1.57297e-05 3.89684e-06 0 1.49625e-05 4.08176e-06 0 1.41703e-05 4.21306e-06 0 1.33644e-05 4.29226e-06 0 1.25557e-05 4.3223e-06 0 1.17538e-05 4.30728e-06 0 1.09672e-05 4.2521e-06 0 1.08816e-05 -5.04684e-06 0 1.17092e-05 -5.1242e-06 0 1.25581e-05 -5.15329e-06 0 1.34192e-05 -5.1277e-06 0 1.42815e-05 -5.042e-06 0 1.51329e-05 -4.89231e-06 0 1.59601e-05 -4.67651e-06 0 1.67497e-05 -4.39452e-06 0 1.74885e-05 -4.04825e-06 0 1.81638e-05 -3.64151e-06 0 1.87642e-05 -3.17976e-06 0 1.92797e-05 -2.66977e-06 0 1.97021e-05 -2.11934e-06 0 2.00245e-05 -1.53693e-06 0 2.02421e-05 -9.31442e-07 0 2.03518e-05 -3.12032e-07 0 2.03518e-05 3.12032e-07 0 2.02421e-05 9.31442e-07 0 2.00245e-05 1.53693e-06 0 1.97021e-05 2.11934e-06 0 1.92797e-05 2.66977e-06 0 1.87642e-05 3.17976e-06 0 1.81638e-05 3.64151e-06 0 1.74885e-05 4.04825e-06 0 1.67497e-05 4.39452e-06 0 1.59601e-05 4.67651e-06 0 1.51329e-05 4.89231e-06 0 1.42815e-05 5.042e-06 0 1.34192e-05 5.1277e-06 0 1.25581e-05 5.15329e-06 0 1.17092e-05 5.1242e-06 0 1.08816e-05 5.04684e-06 0 1.07668e-05 -5.88264e-06 0 1.16428e-05 -5.98942e-06 0 1.25482e-05 -6.03916e-06 0 1.34726e-05 -6.02349e-06 0 1.44036e-05 -5.93526e-06 0 1.53272e-05 -5.76928e-06 0 1.6228e-05 -5.52271e-06 0 1.70903e-05 -5.19537e-06 0 1.78983e-05 -4.7897e-06 0 1.86376e-05 -4.3106e-06 0 1.92951e-05 -3.76501e-06 0 1.98594e-05 -3.16148e-06 0 2.03215e-05 -2.50966e-06 0 2.0674e-05 -1.81988e-06 0 2.09118e-05 -1.10285e-06 0 2.10315e-05 -3.69439e-07 0 2.10315e-05 3.69439e-07 0 2.09118e-05 1.10285e-06 0 2.0674e-05 1.81988e-06 0 2.03215e-05 2.50966e-06 0 1.98594e-05 3.16148e-06 0 1.92951e-05 3.76501e-06 0 1.86376e-05 4.3106e-06 0 1.78983e-05 4.7897e-06 0 1.70903e-05 5.19537e-06 0 1.6228e-05 5.52271e-06 0 1.53272e-05 5.76928e-06 0 1.44036e-05 5.93526e-06 0 1.34726e-05 6.02349e-06 0 1.25482e-05 6.03916e-06 0 1.16428e-05 5.98942e-06 0 1.07668e-05 5.88264e-06 0 1.06143e-05 -6.76619e-06 0 1.15468e-05 -6.91171e-06 0 1.25188e-05 -6.99066e-06 0 1.35189e-05 -6.99214e-06 0 1.4533e-05 -6.90666e-06 0 1.55443e-05 -6.72728e-06 0 1.65347e-05 -6.45014e-06 0 1.74852e-05 -6.07497e-06 0 1.83772e-05 -5.60494e-06 0 1.91937e-05 -5.04643e-06 0 1.99195e-05 -4.40839e-06 0 2.05418e-05 -3.70159e-06 0 2.10507e-05 -2.93799e-06 0 2.14386e-05 -2.13011e-06 0 2.16999e-05 -1.29066e-06 0 2.18314e-05 -4.32313e-07 0 2.18314e-05 4.32313e-07 0 2.16999e-05 1.29066e-06 0 2.14386e-05 2.13011e-06 0 2.10507e-05 2.93799e-06 0 2.05418e-05 3.70159e-06 0 1.99195e-05 4.40839e-06 0 1.91937e-05 5.04643e-06 0 1.83772e-05 5.60494e-06 0 1.74852e-05 6.07497e-06 0 1.65347e-05 6.45014e-06 0 1.55443e-05 6.72728e-06 0 1.4533e-05 6.90666e-06 0 1.35189e-05 6.99214e-06 0 1.25188e-05 6.99066e-06 0 1.15468e-05 6.91171e-06 0 1.06143e-05 6.76619e-06 0 1.04134e-05 -7.7043e-06 0 1.14107e-05 -7.90053e-06 0 1.24608e-05 -8.01993e-06 0 1.3551e-05 -8.04814e-06 0 1.46648e-05 -7.97251e-06 0 1.57823e-05 -7.78358e-06 0 1.68812e-05 -7.47622e-06 0 1.79386e-05 -7.04995e-06 0 1.8932e-05 -6.50908e-06 0 1.98408e-05 -5.86211e-06 0 2.06475e-05 -5.1207e-06 0 2.1338e-05 -4.29861e-06 0 2.19013e-05 -3.41064e-06 0 2.23298e-05 -2.47191e-06 0 2.2618e-05 -1.49733e-06 0 2.27629e-05 -5.01463e-07 0 2.27629e-05 5.01463e-07 0 2.2618e-05 1.49733e-06 0 2.23298e-05 2.47191e-06 0 2.19013e-05 3.41064e-06 0 2.1338e-05 4.29861e-06 0 2.06475e-05 5.1207e-06 0 1.98408e-05 5.86211e-06 0 1.8932e-05 6.50908e-06 0 1.79386e-05 7.04995e-06 0 1.68812e-05 7.47622e-06 0 1.57823e-05 7.78358e-06 0 1.46648e-05 7.97251e-06 0 1.3551e-05 8.04814e-06 0 1.24608e-05 8.01993e-06 0 1.14107e-05 7.90053e-06 0 1.04134e-05 7.7043e-06 0 1.01506e-05 -8.7037e-06 0 1.12212e-05 -8.9661e-06 0 1.23619e-05 -9.14074e-06 0 1.35588e-05 -9.20854e-06 0 1.47925e-05 -9.1523e-06 0 1.60386e-05 -8.95925e-06 0 1.72699e-05 -8.622e-06 0 1.84568e-05 -8.14021e-06 0 1.95721e-05 -7.51988e-06 0 2.05909e-05 -6.77259e-06 0 2.14928e-05 -5.91388e-06 0 2.22621e-05 -4.96153e-06 0 2.28877e-05 -3.93401e-06 0 2.33619e-05 -2.84948e-06 0 2.36801e-05 -1.72524e-06 0 2.38398e-05 -5.77647e-07 0 2.38398e-05 5.77647e-07 0 2.36801e-05 1.72524e-06 0 2.33619e-05 2.84948e-06 0 2.28877e-05 3.93401e-06 0 2.22621e-05 4.96153e-06 0 2.14928e-05 5.91388e-06 0 2.05909e-05 6.77259e-06 0 1.95721e-05 7.51988e-06 0 1.84568e-05 8.14021e-06 0 1.72699e-05 8.622e-06 0 1.60386e-05 8.95925e-06 0 1.47925e-05 9.1523e-06 0 1.35588e-05 9.20854e-06 0 1.23619e-05 9.14074e-06 0 1.12212e-05 8.9661e-06 0 1.01506e-05 8.7037e-06 0 9.80831e-06 -9.77066e-06 0 1.09606e-05 -1.01193e-05 0 1.22058e-05 -1.03688e-05 0 1.35291e-05 -1.04936e-05 0 1.49071e-05 -1.04701e-05 0 1.631e-05 -1.02799e-05 0 1.77016e-05 -9.91348e-06 0 1.90465e-05 -9.36998e-06 0 2.03086e-05 -8.6583e-06 0 2.14579e-05 -7.79484e-06 0 2.24706e-05 -6.80082e-06 0 2.333e-05 -5.69955e-06 0 2.4025e-05 -4.51423e-06 0 2.45495e-05 -3.26659e-06 0 2.49002e-05 -1.97638e-06 0 2.50758e-05 -6.61488e-07 0 2.50758e-05 6.61488e-07 0 2.49002e-05 1.97638e-06 0 2.45495e-05 3.26659e-06 0 2.4025e-05 4.51423e-06 0 2.333e-05 5.69955e-06 0 2.24706e-05 6.80082e-06 0 2.14579e-05 7.79484e-06 0 2.03086e-05 8.6583e-06 0 1.90465e-05 9.36998e-06 0 1.77016e-05 9.91348e-06 0 1.631e-05 1.02799e-05 0 1.49071e-05 1.04701e-05 0 1.35291e-05 1.04936e-05 0 1.22058e-05 1.03688e-05 0 1.09606e-05 1.01193e-05 0 9.80831e-06 9.77066e-06 0 9.36426e-06 -1.09103e-05 0 1.06057e-05 -1.13712e-05 0 1.19706e-05 -1.1722e-05 0 1.34431e-05 -1.19279e-05 0 1.49962e-05 -1.19555e-05 0 1.65913e-05 -1.17792e-05 0 1.81837e-05 -1.13836e-05 0 1.97213e-05 -1.07692e-05 0 2.11609e-05 -9.94931e-06 0 2.24643e-05 -8.94799e-06 0 2.36046e-05 -7.79496e-06 0 2.45646e-05 -6.52135e-06 0 2.53352e-05 -5.15641e-06 0 2.59129e-05 -3.72596e-06 0 2.62973e-05 -2.25199e-06 0 2.64892e-05 -7.53329e-07 0 2.64892e-05 7.53329e-07 0 2.62973e-05 2.25199e-06 0 2.59129e-05 3.72596e-06 0 2.53352e-05 5.15641e-06 0 2.45646e-05 6.52135e-06 0 2.36046e-05 7.79496e-06 0 2.24643e-05 8.94799e-06 0 2.11609e-05 9.94931e-06 0 1.97213e-05 1.07692e-05 0 1.81837e-05 1.13836e-05 0 1.65913e-05 1.17792e-05 0 1.49962e-05 1.19555e-05 0 1.34431e-05 1.19279e-05 0 1.19706e-05 1.1722e-05 0 1.06057e-05 1.13712e-05 0 9.36426e-06 1.09103e-05 0 8.79e-06 -1.21252e-05 0 1.01257e-05 -1.27323e-05 0 1.16254e-05 -1.32206e-05 0 1.32748e-05 -1.35415e-05 0 1.50417e-05 -1.36477e-05 0 1.68767e-05 -1.34984e-05 0 1.8714e-05 -1.30749e-05 0 2.04925e-05 -1.23757e-05 0 2.21469e-05 -1.14228e-05 0 2.36318e-05 -1.0253e-05 0 2.49163e-05 -8.90935e-06 0 2.59856e-05 -7.43385e-06 0 2.68349e-05 -5.86346e-06 0 2.7466e-05 -4.22827e-06 0 2.7883e-05 -2.55194e-06 0 2.80903e-05 -8.53037e-07 0 2.80903e-05 8.53037e-07 0 2.7883e-05 2.55194e-06 0 2.7466e-05 4.22827e-06 0 2.68349e-05 5.86346e-06 0 2.59856e-05 7.43385e-06 0 2.49163e-05 8.90935e-06 0 2.36318e-05 1.0253e-05 0 2.21469e-05 1.14228e-05 0 2.04925e-05 1.23757e-05 0 1.8714e-05 1.30749e-05 0 1.68767e-05 1.34984e-05 0 1.50417e-05 1.36477e-05 0 1.32748e-05 1.35415e-05 0 1.16254e-05 1.32206e-05 0 1.01257e-05 1.27323e-05 0 8.79e-06 1.21252e-05 0 8.04938e-06 -1.34135e-05 0 9.47925e-06 -1.42112e-05 0 1.1128e-05 -1.48862e-05 0 1.29855e-05 -1.5372e-05 0 1.50167e-05 -1.55957e-05 0 1.71559e-05 -1.55008e-05 0 1.93192e-05 -1.50457e-05 0 2.13974e-05 -1.4238e-05 0 2.3315e-05 -1.31141e-05 0 2.50105e-05 -1.17318e-05 0 2.64541e-05 -1.01546e-05 0 2.76364e-05 -8.44008e-06 0 2.8562e-05 -6.63417e-06 0 2.92416e-05 -4.77088e-06 0 2.96869e-05 -2.87393e-06 0 2.99071e-05 -9.59734e-07 0 2.99071e-05 9.59734e-07 0 2.96869e-05 2.87393e-06 0 2.92416e-05 4.77088e-06 0 2.8562e-05 6.63417e-06 0 2.76364e-05 8.44008e-06 0 2.64541e-05 1.01546e-05 0 2.50105e-05 1.17318e-05 0 2.3315e-05 1.31141e-05 0 2.13974e-05 1.4238e-05 0 1.93192e-05 1.50457e-05 0 1.71559e-05 1.55008e-05 0 1.50167e-05 1.55957e-05 0 1.29855e-05 1.5372e-05 0 1.1128e-05 1.48862e-05 0 9.47925e-06 1.42112e-05 0 8.04938e-06 1.34135e-05 0 7.09711e-06 -1.47645e-05 0 8.61132e-06 -1.58099e-05 0 1.04165e-05 -1.67412e-05 0 1.25178e-05 -1.74641e-05 0 1.48796e-05 -1.78731e-05 0 1.74155e-05 -1.78574e-05 0 1.99807e-05 -1.73749e-05 0 2.24519e-05 -1.6421e-05 0 2.46893e-05 -1.50646e-05 0 2.66265e-05 -1.3404e-05 0 2.82361e-05 -1.15352e-05 0 2.95258e-05 -9.53556e-06 0 3.05161e-05 -7.46059e-06 0 3.12322e-05 -5.34585e-06 0 3.16962e-05 -3.21244e-06 0 3.1924e-05 -1.07145e-06 0 3.1924e-05 1.07145e-06 0 3.16962e-05 3.21244e-06 0 3.12322e-05 5.34585e-06 0 3.05161e-05 7.46059e-06 0 2.95258e-05 9.53556e-06 0 2.82361e-05 1.15352e-05 0 2.66265e-05 1.3404e-05 0 2.46893e-05 1.50646e-05 0 2.24519e-05 1.6421e-05 0 1.99807e-05 1.73749e-05 0 1.74155e-05 1.78574e-05 0 1.48796e-05 1.78731e-05 0 1.25178e-05 1.74641e-05 0 1.04165e-05 1.67412e-05 0 8.61132e-06 1.58099e-05 0 7.09711e-06 1.47645e-05 0 5.8785e-06 -1.61547e-05 0 7.44805e-06 -1.75184e-05 0 9.40342e-06 -1.88001e-05 0 1.1779e-05 -1.98756e-05 0 1.45588e-05 -2.05683e-05 0 1.76318e-05 -2.07223e-05 0 2.08059e-05 -2.01875e-05 0 2.37837e-05 -1.90094e-05 0 2.64162e-05 -1.73184e-05 0 2.86144e-05 -1.52813e-05 0 3.03821e-05 -1.30424e-05 0 3.17555e-05 -1.07032e-05 0 3.27847e-05 -8.32419e-06 0 3.35145e-05 -5.93795e-06 0 3.3981e-05 -3.55755e-06 0 3.42082e-05 -1.1848e-06 0 3.42082e-05 1.1848e-06 0 3.3981e-05 3.55755e-06 0 3.35145e-05 5.93795e-06 0 3.27847e-05 8.32419e-06 0 3.17555e-05 1.07032e-05 0 3.03821e-05 1.30424e-05 0 2.86144e-05 1.52813e-05 0 2.64162e-05 1.73184e-05 0 2.37837e-05 1.90094e-05 0 2.08059e-05 2.01875e-05 0 1.76318e-05 2.07223e-05 0 1.45588e-05 2.05683e-05 0 1.1779e-05 1.98756e-05 0 9.40342e-06 1.88001e-05 0 7.44805e-06 1.75184e-05 0 5.8785e-06 1.61547e-05 0 4.33132e-06 -1.75349e-05 0 5.89745e-06 -1.92998e-05 0 7.95929e-06 -2.10611e-05 0 1.06215e-05 -2.26573e-05 0 1.39277e-05 -2.38441e-05 0 1.77589e-05 -2.42324e-05 0 2.17101e-05 -2.36597e-05 0 2.54072e-05 -2.21202e-05 0 2.85002e-05 -1.99134e-05 0 3.09566e-05 -1.73515e-05 0 3.28373e-05 -1.4644e-05 0 3.42442e-05 -1.19054e-05 0 3.52655e-05 -9.19213e-06 0 3.59732e-05 -6.52217e-06 0 3.64179e-05 -3.8941e-06 0 3.66325e-05 -1.29464e-06 0 3.66325e-05 1.29464e-06 0 3.64179e-05 3.8941e-06 0 3.59732e-05 6.52217e-06 0 3.52655e-05 9.19213e-06 0 3.42442e-05 1.19054e-05 0 3.28373e-05 1.4644e-05 0 3.09566e-05 1.73515e-05 0 2.85002e-05 1.99134e-05 0 2.54072e-05 2.21202e-05 0 2.17101e-05 2.36597e-05 0 1.77589e-05 2.42324e-05 0 1.39277e-05 2.38441e-05 0 1.06215e-05 2.26573e-05 0 7.95929e-06 2.10611e-05 0 5.89745e-06 1.92998e-05 0 4.33132e-06 1.75349e-05 0 2.39479e-06 -1.88295e-05 0 3.8491e-06 -2.10743e-05 0 5.91088e-06 -2.34623e-05 0 8.79046e-06 -2.585e-05 0 1.27144e-05 -2.78618e-05 0 1.77091e-05 -2.89248e-05 0 2.31602e-05 -2.81576e-05 0 2.78265e-05 -2.58835e-05 0 3.14155e-05 -2.28426e-05 0 3.40403e-05 -1.95537e-05 0 3.59338e-05 -1.62651e-05 0 3.72812e-05 -1.30775e-05 0 3.82242e-05 -1.00129e-05 0 3.88587e-05 -7.063e-06 0 3.92496e-05 -4.20099e-06 0 3.94357e-05 -1.39417e-06 0 3.94357e-05 1.39417e-06 0 3.92496e-05 4.20099e-06 0 3.88587e-05 7.063e-06 0 3.82242e-05 1.00129e-05 0 3.72812e-05 1.30775e-05 0 3.59338e-05 1.62651e-05 0 3.40403e-05 1.95537e-05 0 3.14155e-05 2.28426e-05 0 2.78265e-05 2.58835e-05 0 2.31602e-05 2.81576e-05 0 1.77091e-05 2.89248e-05 0 1.27144e-05 2.78618e-05 0 8.79046e-06 2.585e-05 0 5.91088e-06 2.34623e-05 0 3.8491e-06 2.10743e-05 0 2.39479e-06 1.88295e-05 0 2.53872e-08 -1.99067e-05 0 1.20573e-06 -2.26869e-05 0 3.045e-06 -2.5851e-05 0 5.8976e-06 -2.93158e-05 0 1.03166e-05 -3.29246e-05 0 1.71195e-05 -3.53174e-05 0 2.53076e-05 -3.42186e-05 0 3.12423e-05 -3.03704e-05 0 3.51149e-05 -2.59767e-05 0 3.76767e-05 -2.17268e-05 0 3.93877e-05 -1.77777e-05 0 4.05405e-05 -1.41192e-05 0 4.13087e-05 -1.07179e-05 0 4.18074e-05 -7.51406e-06 0 4.21058e-05 -4.45263e-06 0 4.22456e-05 -1.47477e-06 0 4.22456e-05 1.47477e-06 0 4.21058e-05 4.45263e-06 0 4.18074e-05 7.51406e-06 0 4.13087e-05 1.07179e-05 0 4.05405e-05 1.41192e-05 0 3.93877e-05 1.77777e-05 0 3.76767e-05 2.17268e-05 0 3.51149e-05 2.59767e-05 0 3.12423e-05 3.03704e-05 0 2.53076e-05 3.42186e-05 0 1.71195e-05 3.53174e-05 0 1.03166e-05 3.29246e-05 0 5.8976e-06 2.93158e-05 0 3.045e-06 2.5851e-05 0 1.20573e-06 2.26869e-05 0 2.53872e-08 1.99067e-05 0 -2.77493e-06 -2.06428e-05 0 -2.08884e-06 -2.3926e-05 0 -7.81373e-07 -2.78387e-05 0 1.47472e-06 -3.27287e-05 0 5.50926e-06 -3.8258e-05 0 1.34092e-05 -4.64878e-05 0 2.54738e-05 -4.28338e-05 0 3.14192e-05 -3.50897e-05 0 3.49329e-05 -2.8889e-05 0 3.69288e-05 -2.35977e-05 0 3.82105e-05 -1.89828e-05 0 3.89848e-05 -1.49083e-05 0 3.94749e-05 -1.12214e-05 0 3.9767e-05 -7.82489e-06 0 3.99339e-05 -4.61975e-06 0 4.00084e-05 -1.52795e-06 0 4.00084e-05 1.52795e-06 0 3.99339e-05 4.61975e-06 0 3.9767e-05 7.82489e-06 0 3.94749e-05 1.12214e-05 0 3.89848e-05 1.49083e-05 0 3.82105e-05 1.89828e-05 0 3.69288e-05 2.35977e-05 0 3.49329e-05 2.8889e-05 0 3.14192e-05 3.50897e-05 0 2.54738e-05 4.28338e-05 0 1.34092e-05 4.64878e-05 0 5.50926e-06 3.8258e-05 0 1.47472e-06 3.27287e-05 0 -7.81373e-07 2.78387e-05 0 -2.08884e-06 2.3926e-05 0 -2.77493e-06 2.06428e-05 0 -5.93927e-06 -2.08318e-05 0 -5.94255e-06 -2.44991e-05 0 -5.5644e-06 -2.90358e-05 0 -4.51529e-06 -3.50608e-05 0 -2.38131e-06 -4.23704e-05 0 1.26274e-06 -5.44714e-05 0 5.3894e-06 -4.92661e-05 0 8.656e-06 -3.86212e-05 0 1.04893e-05 -3.0915e-05 0 1.15062e-05 -2.4778e-05 0 1.2018e-05 -1.96686e-05 0 1.22688e-05 -1.53041e-05 0 1.23683e-05 -1.14427e-05 0 1.23969e-05 -7.94328e-06 0 1.23951e-05 -4.67614e-06 0 1.23888e-05 -1.54451e-06 0 1.23888e-05 1.54451e-06 0 1.23951e-05 4.67614e-06 0 1.23969e-05 7.94328e-06 0 1.23683e-05 1.14427e-05 0 1.22688e-05 1.53041e-05 0 1.2018e-05 1.96686e-05 0 1.15062e-05 2.4778e-05 0 1.04893e-05 3.0915e-05 0 8.656e-06 3.86212e-05 0 5.3894e-06 4.92661e-05 0 1.26274e-06 5.44714e-05 0 -2.38131e-06 4.23704e-05 0 -4.51529e-06 3.50608e-05 0 -5.5644e-06 2.90358e-05 0 -5.94255e-06 2.44991e-05 0 -5.93927e-06 2.08318e-05 0 -9.32172e-06 -2.03185e-05 0 -1.01812e-05 -2.41726e-05 0 -1.09577e-05 -2.90213e-05 0 -1.15914e-05 -3.55646e-05 0 -1.19885e-05 -4.36977e-05 0 -1.20895e-05 -5.65811e-05 0 -1.19198e-05 -5.12026e-05 0 -1.20419e-05 -3.97676e-05 0 -1.23152e-05 -3.1437e-05 0 -1.27132e-05 -2.49383e-05 0 -1.31371e-05 -1.96432e-05 0 -1.35451e-05 -1.51958e-05 0 -1.38984e-05 -1.13133e-05 0 -1.41787e-05 -7.82969e-06 0 -1.43717e-05 -4.60032e-06 0 -1.447e-05 -1.51802e-06 0 -1.447e-05 1.51802e-06 0 -1.43717e-05 4.60032e-06 0 -1.41787e-05 7.82969e-06 0 -1.38984e-05 1.13133e-05 0 -1.35451e-05 1.51958e-05 0 -1.31371e-05 1.96432e-05 0 -1.27132e-05 2.49383e-05 0 -1.23152e-05 3.1437e-05 0 -1.20419e-05 3.97676e-05 0 -1.19198e-05 5.12026e-05 0 -1.20895e-05 5.65811e-05 0 -1.19885e-05 4.36977e-05 0 -1.15914e-05 3.55646e-05 0 -1.09577e-05 2.90213e-05 0 -1.01812e-05 2.41726e-05 0 -9.32172e-06 2.03185e-05 0 -1.27328e-05 -1.90636e-05 0 -1.44912e-05 -2.28196e-05 0 -1.65011e-05 -2.7573e-05 0 -1.88957e-05 -3.39578e-05 0 -2.19006e-05 -4.18938e-05 0 -2.56793e-05 -5.4499e-05 0 -2.97842e-05 -4.92958e-05 0 -3.31618e-05 -3.82063e-05 0 -3.5678e-05 -3.01774e-05 0 -3.75469e-05 -2.39116e-05 0 -3.89698e-05 -1.88073e-05 0 -4.00628e-05 -1.4525e-05 0 -4.0892e-05 -1.07976e-05 0 -4.14927e-05 -7.46307e-06 0 -4.18848e-05 -4.38104e-06 0 -4.20786e-05 -1.44493e-06 0 -4.20786e-05 1.44493e-06 0 -4.18848e-05 4.38104e-06 0 -4.14927e-05 7.46307e-06 0 -4.0892e-05 1.07976e-05 0 -4.00628e-05 1.4525e-05 0 -3.89698e-05 1.88073e-05 0 -3.75469e-05 2.39116e-05 0 -3.5678e-05 3.01774e-05 0 -3.31618e-05 3.82063e-05 0 -2.97842e-05 4.92958e-05 0 -2.56793e-05 5.4499e-05 0 -2.19006e-05 4.18938e-05 0 -1.88957e-05 3.39578e-05 0 -1.65011e-05 2.7573e-05 0 -1.44912e-05 2.28196e-05 0 -1.27328e-05 1.90636e-05 0 -1.59617e-05 -1.69965e-05 0 -1.85645e-05 -2.04661e-05 0 -2.16746e-05 -2.47301e-05 0 -2.55965e-05 -3.03498e-05 0 -3.09366e-05 -3.69162e-05 0 -3.88405e-05 -4.80733e-05 0 -4.86191e-05 -4.339e-05 0 -5.52654e-05 -3.39968e-05 0 -5.97461e-05 -2.72062e-05 0 -6.28867e-05 -2.1745e-05 0 -6.51958e-05 -1.71802e-05 0 -6.69133e-05 -1.33035e-05 0 -6.81842e-05 -9.89931e-06 0 -6.9087e-05 -6.84591e-06 0 -6.96682e-05 -4.01875e-06 0 -6.99532e-05 -1.32566e-06 0 -6.99532e-05 1.32566e-06 0 -6.96682e-05 4.01875e-06 0 -6.9087e-05 6.84591e-06 0 -6.81842e-05 9.89931e-06 0 -6.69133e-05 1.33035e-05 0 -6.51958e-05 1.71802e-05 0 -6.28867e-05 2.1745e-05 0 -5.97461e-05 2.72062e-05 0 -5.52654e-05 3.39968e-05 0 -4.86191e-05 4.339e-05 0 -3.88405e-05 4.80733e-05 0 -3.09366e-05 3.69162e-05 0 -2.55965e-05 3.03498e-05 0 -2.16746e-05 2.47301e-05 0 -1.85645e-05 2.04661e-05 0 -1.59617e-05 1.69965e-05 0 -1.88442e-05 -1.42887e-05 0 -2.21521e-05 -1.7231e-05 0 -2.60855e-05 -2.08514e-05 0 -3.09599e-05 -2.5125e-05 0 -3.75584e-05 -2.98932e-05 0 -4.775e-05 -3.47636e-05 0 -6.15789e-05 -3.30092e-05 0 -6.97828e-05 -2.78414e-05 0 -7.54293e-05 -2.29754e-05 0 -7.93753e-05 -1.86653e-05 0 -8.2347e-05 -1.49031e-05 0 -8.45503e-05 -1.16002e-05 0 -8.619e-05 -8.66358e-06 0 -8.73495e-05 -6.00029e-06 0 -8.80961e-05 -3.52653e-06 0 -8.84611e-05 -1.16329e-06 0 -8.84611e-05 1.16329e-06 0 -8.80961e-05 3.52653e-06 0 -8.73495e-05 6.00029e-06 0 -8.619e-05 8.66358e-06 0 -8.45503e-05 1.16002e-05 0 -8.2347e-05 1.49031e-05 0 -7.93753e-05 1.86653e-05 0 -7.54293e-05 2.29754e-05 0 -6.97828e-05 2.78414e-05 0 -6.15789e-05 3.30092e-05 0 -4.775e-05 3.47636e-05 0 -3.75584e-05 2.98932e-05 0 -3.09599e-05 2.5125e-05 0 -2.60855e-05 2.08514e-05 0 -2.21521e-05 1.7231e-05 0 -1.88442e-05 1.42887e-05 0 -2.13115e-05 -1.0799e-05 0 -2.51698e-05 -1.33844e-05 0 -2.95609e-05 -1.62884e-05 0 -3.47784e-05 -1.93926e-05 0 -4.12276e-05 -2.23289e-05 0 -4.91417e-05 -2.41781e-05 0 -5.73793e-05 -2.36656e-05 0 -6.47212e-05 -2.12277e-05 0 -7.03515e-05 -1.81372e-05 0 -7.46955e-05 -1.50415e-05 0 -7.80188e-05 -1.21586e-05 0 -8.05667e-05 -9.53543e-06 0 -8.24711e-05 -7.15344e-06 0 -8.3833e-05 -4.96757e-06 0 -8.47104e-05 -2.92366e-06 0 -8.51409e-05 -9.65092e-07 0 -8.51409e-05 9.65092e-07 0 -8.47104e-05 2.92366e-06 0 -8.3833e-05 4.96757e-06 0 -8.24711e-05 7.15344e-06 0 -8.05667e-05 9.53543e-06 0 -7.80188e-05 1.21586e-05 0 -7.46955e-05 1.50415e-05 0 -7.03515e-05 1.81372e-05 0 -6.47212e-05 2.12277e-05 0 -5.73793e-05 2.36656e-05 0 -4.91417e-05 2.41781e-05 0 -4.12276e-05 2.23289e-05 0 -3.47784e-05 1.93926e-05 0 -2.95609e-05 1.62884e-05 0 -2.51698e-05 1.33844e-05 0 -2.13115e-05 1.0799e-05 0 -2.3311e-05 -7.07478e-06 0 -2.76949e-05 -9.09416e-06 0 -3.22559e-05 -1.15071e-05 0 -3.73374e-05 -1.37722e-05 0 -4.31888e-05 -1.56086e-05 0 -4.97728e-05 -1.65771e-05 0 -5.66583e-05 -1.63788e-05 0 -6.28906e-05 -1.51091e-05 0 -6.82206e-05 -1.32419e-05 0 -7.2576e-05 -1.11804e-05 0 -7.60689e-05 -9.14466e-06 0 -7.88063e-05 -7.22562e-06 0 -8.08899e-05 -5.44603e-06 0 -8.23919e-05 -3.79244e-06 0 -8.33659e-05 -2.23557e-06 0 -8.38447e-05 -7.38448e-07 0 -8.38447e-05 7.38448e-07 0 -8.33659e-05 2.23557e-06 0 -8.23919e-05 3.79244e-06 0 -8.08899e-05 5.44603e-06 0 -7.88063e-05 7.22562e-06 0 -7.60689e-05 9.14466e-06 0 -7.2576e-05 1.11804e-05 0 -6.82206e-05 1.32419e-05 0 -6.28906e-05 1.51091e-05 0 -5.66583e-05 1.63788e-05 0 -4.97728e-05 1.65771e-05 0 -4.31888e-05 1.56086e-05 0 -3.73374e-05 1.37722e-05 0 -3.22559e-05 1.15071e-05 0 -2.76949e-05 9.09416e-06 0 -2.3311e-05 7.07478e-06 0 -2.53586e-05 -1.98386e-06 0 -3.00439e-05 -4.64482e-06 0 -3.4413e-05 -6.87336e-06 0 -3.90871e-05 -8.56143e-06 0 -4.4353e-05 -9.71942e-06 0 -5.00857e-05 -1.03064e-05 0 -5.59064e-05 -1.02223e-05 0 -6.14941e-05 -9.55865e-06 0 -6.64846e-05 -8.50708e-06 0 -7.07575e-05 -7.27376e-06 0 -7.42906e-05 -6.00239e-06 0 -7.71243e-05 -4.77137e-06 0 -7.93108e-05 -3.6098e-06 0 -8.09019e-05 -2.51967e-06 0 -8.19389e-05 -1.48719e-06 0 -8.24502e-05 -4.9156e-07 0 -8.24502e-05 4.9156e-07 0 -8.19389e-05 1.48719e-06 0 -8.09019e-05 2.51967e-06 0 -7.93108e-05 3.6098e-06 0 -7.71243e-05 4.77137e-06 0 -7.42906e-05 6.00239e-06 0 -7.07575e-05 7.27376e-06 0 -6.64846e-05 8.50708e-06 0 -6.14941e-05 9.55865e-06 0 -5.59064e-05 1.02223e-05 0 -5.00857e-05 1.03064e-05 0 -4.4353e-05 9.71942e-06 0 -3.90871e-05 8.56143e-06 0 -3.4413e-05 6.87336e-06 0 -3.00439e-05 4.64482e-06 0 -2.53586e-05 1.98386e-06 0 -2.72633e-05 4.18405e-06 0 -3.30087e-05 -5.97385e-07 0 -3.61182e-05 -2.8408e-06 0 -4.01933e-05 -3.8413e-06 0 -4.49952e-05 -4.42625e-06 0 -5.02829e-05 -4.68817e-06 0 -5.57011e-05 -4.67225e-06 0 -6.09264e-05 -4.39749e-06 0 -6.57084e-05 -3.94257e-06 0 -6.98984e-05 -3.39229e-06 0 -7.34309e-05 -2.81272e-06 0 -7.63035e-05 -2.24267e-06 0 -7.8541e-05 -1.70003e-06 0 -8.01793e-05 -1.18791e-06 0 -8.12508e-05 -7.01587e-07 0 -8.17802e-05 -2.31937e-07 0 -8.17802e-05 2.31937e-07 0 -8.12508e-05 7.01587e-07 0 -8.01793e-05 1.18791e-06 0 -7.8541e-05 1.70003e-06 0 -7.63035e-05 2.24267e-06 0 -7.34309e-05 2.81272e-06 0 -6.98984e-05 3.39229e-06 0 -6.57084e-05 3.94257e-06 0 -6.09264e-05 4.39749e-06 0 -5.57011e-05 4.67225e-06 0 -5.02829e-05 4.68817e-06 0 -4.49952e-05 4.42625e-06 0 -4.01933e-05 3.8413e-06 0 -3.61182e-05 2.8408e-06 0 -3.30087e-05 5.97385e-07 0 -2.72633e-05 -4.18405e-06 0 -4.77739e-05 1.24263e-05 0 -3.53377e-05 -1.27495e-06 0 -3.72125e-05 6.1083e-07 0 -4.02678e-05 4.31313e-07 0 -4.533e-05 6.00522e-07 0 -5.02507e-05 6.11768e-07 0 -5.56897e-05 6.11816e-07 0 -6.07418e-05 5.86613e-07 0 -6.55048e-05 5.28245e-07 0 -6.96482e-05 4.65856e-07 0 -7.319e-05 3.89384e-07 0 -7.60666e-05 3.16284e-07 0 -7.83211e-05 2.41244e-07 0 -7.99709e-05 1.70506e-07 0 -8.10529e-05 1.00871e-07 0 -8.15871e-05 3.36312e-08 0 -8.15871e-05 -3.36312e-08 0 -8.10529e-05 -1.00871e-07 0 -7.99709e-05 -1.70506e-07 0 -7.83211e-05 -2.41244e-07 0 -7.60666e-05 -3.16284e-07 0 -7.319e-05 -3.89384e-07 0 -6.96482e-05 -4.65856e-07 0 -6.55048e-05 -5.28245e-07 0 -6.07418e-05 -5.86613e-07 0 -5.56897e-05 -6.11816e-07 0 -5.02507e-05 -6.11768e-07 0 -4.533e-05 -6.00522e-07 0 -4.02678e-05 -4.31313e-07 0 -3.72125e-05 -6.1083e-07 0 -3.53377e-05 1.27495e-06 0 -4.77739e-05 -1.24263e-05 0 </DataArray> 
</PointData> 
<Points> 
<DataArray type="Float32" NumberOfComponents="3"> 