<?xml version="1.0"?> 
<VTKFile type="StructuredGrid" version="0.1"> 
<StructuredGrid WholeExtent="0 31 0 31 0 0"> 
<Piece Extent="0 31 0 31 0 0"> 
<PointData>
<DataArray type="Float32" Name="B" format="ascii" NumberOfComponents="3"> 
2.8782e-05 -5.2398e-06 0 0.000128063 -6.1421e-07 0 0.00013948 9.99287e-07 0 0.000146472 1.2795e-06 0 0.000165953 1.50829e-06 0 0.000181833 1.59347e-06 0 0.000201008 1.5884e-06 0 0.000218194 1.50735e-06 0 0.000234848 1.36084e-06 0 0.000249261 1.18458e-06 0 0.000261755 9.89802e-07 0 0.000271933 7.96383e-07 0 0.000279974 6.06931e-07 0 0.000285878 4.26425e-07 0 0.000289766 2.5242e-07 0 0.000291688 8.36923e-08 0 0.000291688 -8.36923e-08 0 0.000289766 -2.5242e-07 0 0.000285878 -4.26425e-07 0 0.000279974 -6.06931e-07 0 0.000271933 -7.96383e-07 0 0.000261755 -9.89802e-07 0 0.000249261 -1.18458e-06 0 0.000234848 -1.36084e-06 0 0.000218194 -1.50735e-06 0 0.000201008 -1.5884e-06 0 0.000181833 -1.59347e-06 0 0.000165953 -1.50829e-06 0 0.000146472 -1.2795e-06 0 0.00013948 -9.99287e-07 0 0.000128063 6.1421e-07 0 2.8782e-05 5.2398e-06 0 1.59339e-05 -2.60442e-05 0 -5.47644e-06 2.12182e-06 0 -6.52059e-06 -4.36994e-07 0 -6.25696e-06 1.07862e-07 0 -7.39848e-06 -4.98414e-08 0 -7.90224e-06 -1.02197e-08 0 -8.79956e-06 -1.35628e-08 0 -9.48336e-06 -1.94883e-08 0 -1.02137e-05 -1.00908e-08 0 -1.08184e-05 -1.44055e-08 0 -1.13602e-05 -8.1177e-09 0 -1.17966e-05 -8.87998e-09 0 -1.2146e-05 -5.30034e-09 0 -1.24017e-05 -4.53083e-09 0 -1.25712e-05 -2.20798e-09 0 -1.26548e-05 -9.9009e-10 0 -1.26548e-05 9.9009e-10 0 -1.25712e-05 2.20798e-09 0 -1.24017e-05 4.53083e-09 0 -1.2146e-05 5.30034e-09 0 -1.17966e-05 8.87998e-09 0 -1.13602e-05 8.1177e-09 0 -1.08184e-05 1.44055e-08 0 -1.02137e-05 1.00908e-08 0 -9.48336e-06 1.94883e-08 0 -8.79956e-06 1.35628e-08 0 -7.90224e-06 1.02197e-08 0 -7.39848e-06 4.98414e-08 0 -6.25696e-06 -1.07862e-07 0 -6.52059e-06 4.36994e-07 0 -5.47644e-06 -2.12182e-06 0 1.59339e-05 2.60442e-05 0 2.27126e-06 -1.64859e-05 0 9.63825e-07 1.27044e-06 0 8.27623e-07 -2.63906e-07 0 1.06649e-06 6.40855e-08 0 1.07634e-06 -3.13905e-08 0 1.24065e-06 -7.25358e-09 0 1.32831e-06 -9.51637e-09 0 1.45635e-06 -1.29819e-08 0 1.55344e-06 -7.48439e-09 0 1.65169e-06 -9.98703e-09 0 1.73036e-06 -6.17649e-09 0 1.79843e-06 -6.44623e-09 0 1.85073e-06 -4.11273e-09 0 1.89016e-06 -3.39418e-09 0 1.91581e-06 -1.74474e-09 0 1.92867e-06 -7.31086e-10 0 1.92867e-06 7.31086e-10 0 1.91581e-06 1.74474e-09 0 1.89016e-06 3.39418e-09 0 1.85073e-06 4.11273e-09 0 1.79843e-06 6.44623e-09 0 1.73036e-06 6.17649e-09 0 1.65169e-06 9.98703e-09 0 1.55344e-06 7.48439e-09 0 1.45635e-06 1.29819e-08 0 1.32831e-06 9.51637e-09 0 1.24065e-06 7.25358e-09 0 1.07634e-06 3.13905e-08 0 1.06649e-06 -6.40855e-08 0 8.27623e-07 2.63906e-07 0 9.63825e-07 -1.27044e-06 0 2.27126e-06 1.64859e-05 0 2.11781e-06 -1.137e-05 0 -2.20034e-07 9.22988e-07 0 -3.46955e-07 -1.8334e-07 0 -2.6152e-07 5.76822e-08 0 -3.56167e-07 -9.49869e-09 0 -3.55919e-07 8.48694e-09 0 -4.0921e-07 7.04953e-09 0 -4.33853e-07 3.75919e-09 0 -4.70605e-07 6.74686e-09 0 -4.96488e-07 3.40738e-09 0 -5.22198e-07 4.60462e-09 0 -5.41747e-07 2.67759e-09 0 -5.58014e-07 2.70086e-09 0 -5.69652e-07 1.54366e-09 0 -5.77496e-07 1.12657e-09 0 -5.81322e-07 2.58816e-10 0 -5.81322e-07 -2.58816e-10 0 -5.77496e-07 -1.12657e-09 0 -5.69652e-07 -1.54366e-09 0 -5.58014e-07 -2.70086e-09 0 -5.41747e-07 -2.67759e-09 0 -5.22198e-07 -4.60462e-09 0 -4.96488e-07 -3.40738e-09 0 -4.70605e-07 -6.74686e-09 0 -4.33853e-07 -3.75919e-09 0 -4.0921e-07 -7.04953e-09 0 -3.55919e-07 -8.48694e-09 0 -3.56167e-07 9.49869e-09 0 -2.6152e-07 -5.76822e-08 0 -3.46955e-07 1.8334e-07 0 -2.20034e-07 -9.22988e-07 0 2.11781e-06 1.137e-05 0 1.18595e-06 -9.53849e-06 0 1.24937e-07 7.38209e-07 0 6.13029e-08 -1.50926e-07 0 1.33938e-07 4.04156e-08 0 1.08542e-07 -1.44957e-08 0 1.41364e-07 -2.72551e-10 0 1.43574e-07 -1.59027e-09 0 1.6195e-07 -3.78844e-09 0 1.7073e-07 -9.32033e-10 0 1.82767e-07 -2.80448e-09 0 1.90969e-07 -1.06218e-09 0 1.98794e-07 -1.69827e-09 0 2.04443e-07 -8.20112e-10 0 2.08865e-07 -8.6461e-10 0 2.11663e-07 -3.56246e-10 0 2.13092e-07 -2.06455e-10 0 2.13092e-07 2.06455e-10 0 2.11663e-07 3.56246e-10 0 2.08865e-07 8.6461e-10 0 2.04443e-07 8.20112e-10 0 1.98794e-07 1.69827e-09 0 1.90969e-07 1.06218e-09 0 1.82767e-07 2.80448e-09 0 1.7073e-07 9.32033e-10 0 1.6195e-07 3.78844e-09 0 1.43574e-07 1.59027e-09 0 1.41364e-07 2.72551e-10 0 1.08542e-07 1.44957e-08 0 1.33938e-07 -4.04156e-08 0 6.13029e-08 1.50926e-07 0 1.24937e-07 -7.38209e-07 0 1.18595e-06 9.53849e-06 0 9.38625e-07 -7.51777e-06 0 -1.48581e-08 5.9965e-07 0 -7.03638e-08 -1.20732e-07 0 -2.26859e-08 3.50741e-08 0 -5.69301e-08 -8.99026e-09 0 -4.5755e-08 2.59728e-09 0 -5.94836e-08 1.60697e-09 0 -5.9931e-08 -3.44162e-10 0 -6.69014e-08 1.80479e-09 0 -6.97799e-08 -2.48578e-11 0 -7.38979e-08 1.08286e-09 0 -7.64598e-08 2.03458e-10 0 -7.88756e-08 5.6764e-10 0 -8.04637e-08 1.69504e-10 0 -8.15936e-08 2.33824e-10 0 -8.21211e-08 4.54236e-12 0 -8.21211e-08 -4.54236e-12 0 -8.15936e-08 -2.33824e-10 0 -8.04637e-08 -1.69504e-10 0 -7.88756e-08 -5.6764e-10 0 -7.64598e-08 -2.03458e-10 0 -7.38979e-08 -1.08286e-09 0 -6.97799e-08 2.48578e-11 0 -6.69014e-08 -1.80479e-09 0 -5.9931e-08 3.44162e-10 0 -5.94836e-08 -1.60697e-09 0 -4.5755e-08 -2.59728e-09 0 -5.69301e-08 8.99026e-09 0 -2.26859e-08 -3.50741e-08 0 -7.03638e-08 1.20732e-07 0 -1.48581e-08 -5.9965e-07 0 9.38625e-07 7.51777e-06 0 7.31243e-07 -6.33868e-06 0 3.17258e-08 4.94435e-07 0 -7.52309e-09 -1.00222e-07 0 3.16415e-08 2.82059e-08 0 1.18694e-08 -8.3529e-09 0 2.59306e-08 1.22599e-09 0 2.18872e-08 3.58185e-10 0 2.74207e-08 -1.18842e-09 0 2.77207e-08 6.17065e-10 0 3.04102e-08 -7.90098e-10 0 3.14768e-08 2.13908e-10 0 3.29526e-08 -3.87539e-10 0 3.38105e-08 2.91841e-11 0 3.45813e-08 -1.71037e-10 0 3.50226e-08 4.68191e-12 0 3.52644e-08 -5.78314e-11 0 3.52644e-08 5.78314e-11 0 3.50226e-08 -4.68191e-12 0 3.45813e-08 1.71037e-10 0 3.38105e-08 -2.91841e-11 0 3.29526e-08 3.87539e-10 0 3.14768e-08 -2.13908e-10 0 3.04102e-08 7.90098e-10 0 2.77207e-08 -6.17065e-10 0 2.74207e-08 1.18842e-09 0 2.18872e-08 -3.58185e-10 0 2.59306e-08 -1.22599e-09 0 1.18694e-08 8.3529e-09 0 3.16415e-08 -2.82059e-08 0 -7.52309e-09 1.00222e-07 0 3.17258e-08 -4.94435e-07 0 7.31243e-07 6.33868e-06 0 5.89865e-07 -5.23056e-06 0 5.94368e-09 4.13331e-07 0 -2.83178e-08 -8.35697e-08 0 3.08149e-09 2.36872e-08 0 -1.67162e-08 -6.7874e-09 0 -7.73415e-09 1.19146e-09 0 -1.4399e-08 4.8862e-10 0 -1.27328e-08 -8.1465e-10 0 -1.53198e-08 7.01878e-10 0 -1.55122e-08 -4.88665e-10 0 -1.67158e-08 3.39478e-10 0 -1.71758e-08 -1.8813e-10 0 -1.77871e-08 1.35438e-10 0 -1.81126e-08 -6.29767e-11 0 -1.83799e-08 5.31434e-11 0 -1.84915e-08 -3.22233e-11 0 -1.84915e-08 3.22233e-11 0 -1.83799e-08 -5.31434e-11 0 -1.81126e-08 6.29767e-11 0 -1.77871e-08 -1.35438e-10 0 -1.71758e-08 1.8813e-10 0 -1.67158e-08 -3.39478e-10 0 -1.55122e-08 4.88665e-10 0 -1.53198e-08 -7.01878e-10 0 -1.27328e-08 8.1465e-10 0 -1.4399e-08 -4.8862e-10 0 -7.73415e-09 -1.19146e-09 0 -1.67162e-08 6.7874e-09 0 3.08149e-09 -2.36872e-08 0 -2.83178e-08 8.35697e-08 0 5.94368e-09 -4.13331e-07 0 5.89865e-07 5.23056e-06 0 5.1537e-07 -4.37243e-06 0 1.63277e-08 3.42327e-07 0 -1.14065e-08 -6.92285e-08 0 1.55295e-08 1.9702e-08 0 9.50028e-10 -5.56398e-09 0 1.00348e-08 1.07157e-09 0 6.40788e-09 4.75045e-10 0 9.5094e-09 -6.06232e-10 0 9.00405e-09 6.2911e-10 0 1.02477e-08 -3.67689e-10 0 1.04488e-08 3.02553e-10 0 1.10309e-08 -1.41787e-10 0 1.12771e-08 1.18658e-10 0 1.15547e-08 -4.85304e-11 0 1.16914e-08 4.50846e-11 0 1.17753e-08 -2.61764e-11 0 1.17753e-08 2.61764e-11 0 1.16914e-08 -4.50846e-11 0 1.15547e-08 4.85304e-11 0 1.12771e-08 -1.18658e-10 0 1.10309e-08 1.41787e-10 0 1.04488e-08 -3.02553e-10 0 1.02477e-08 3.67689e-10 0 9.00405e-09 -6.2911e-10 0 9.5094e-09 6.06232e-10 0 6.40788e-09 -4.75045e-10 0 1.00348e-08 -1.07157e-09 0 9.50028e-10 5.56398e-09 0 1.55295e-08 -1.9702e-08 0 -1.14065e-08 6.92285e-08 0 1.63277e-08 -3.42327e-07 0 5.1537e-07 4.37243e-06 0 4.40093e-07 -3.60634e-06 0 6.68033e-09 2.83785e-07 0 -1.84198e-08 -5.742e-08 0 4.9093e-09 1.62149e-08 0 -9.33846e-09 -4.72553e-09 0 -2.40233e-09 7.57257e-10 0 -6.95326e-09 2.68432e-10 0 -5.39552e-09 -6.20323e-10 0 -6.98705e-09 4.20928e-10 0 -6.8573e-09 -3.8873e-10 0 -7.51086e-09 1.84905e-10 0 -7.66103e-09 -1.68334e-10 0 -7.96312e-09 6.15329e-11 0 -8.09471e-09 -6.54041e-11 0 -8.22052e-09 2.29132e-11 0 -8.26768e-09 -2.64994e-11 0 -8.26768e-09 2.64994e-11 0 -8.22052e-09 -2.29132e-11 0 -8.09471e-09 6.54041e-11 0 -7.96312e-09 -6.15329e-11 0 -7.66103e-09 1.68334e-10 0 -7.51086e-09 -1.84905e-10 0 -6.8573e-09 3.8873e-10 0 -6.98705e-09 -4.20928e-10 0 -5.39552e-09 6.20323e-10 0 -6.95326e-09 -2.68432e-10 0 -2.40233e-09 -7.57257e-10 0 -9.33846e-09 4.72553e-09 0 4.9093e-09 -1.62149e-08 0 -1.84198e-08 5.742e-08 0 6.68033e-09 -2.83785e-07 0 4.40093e-07 3.60634e-06 0 4.01584e-07 -2.93705e-06 0 1.14025e-08 2.30253e-07 0 -1.03982e-08 -4.65469e-08 0 1.06032e-08 1.32525e-08 0 -1.05309e-09 -3.73518e-09 0 5.86156e-09 7.25956e-10 0 2.78265e-09 3.25473e-10 0 4.99782e-09 -4.01122e-10 0 4.39821e-09 4.30364e-10 0 5.19834e-09 -2.39613e-10 0 5.20789e-09 2.10948e-10 0 5.54521e-09 -8.85611e-11 0 5.64572e-09 8.54542e-11 0 5.79606e-09 -2.84066e-11 0 5.85943e-09 3.29227e-11 0 5.90358e-09 -1.67228e-11 0 5.90358e-09 1.67228e-11 0 5.85943e-09 -3.29227e-11 0 5.79606e-09 2.84066e-11 0 5.64572e-09 -8.54542e-11 0 5.54521e-09 8.85611e-11 0 5.20789e-09 -2.10948e-10 0 5.19834e-09 2.39613e-10 0 4.39821e-09 -4.30364e-10 0 4.99782e-09 4.01122e-10 0 2.78265e-09 -3.25473e-10 0 5.86156e-09 -7.25956e-10 0 -1.05309e-09 3.73518e-09 0 1.06032e-08 -1.32525e-08 0 -1.03982e-08 4.65469e-08 0 1.14025e-08 -2.30253e-07 0 4.01584e-07 2.93705e-06 0 3.6256e-07 -2.32985e-06 0 6.49505e-09 1.83003e-07 0 -1.38534e-08 -3.70249e-08 0 5.21389e-09 1.04657e-08 0 -6.1922e-09 -3.03953e-09 0 -3.89432e-10 4.99038e-10 0 -3.90058e-09 1.82007e-10 0 -2.4642e-09 -3.90856e-10 0 -3.59581e-09 2.78177e-10 0 -3.35296e-09 -2.44843e-10 0 -3.76704e-09 1.23148e-10 0 -3.7958e-09 -1.05507e-10 0 -3.96859e-09 4.15814e-11 0 -4.02298e-09 -4.08548e-11 0 -4.09086e-09 1.54387e-11 0 -4.11233e-09 -1.68348e-11 0 -4.11233e-09 1.68348e-11 0 -4.09086e-09 -1.54387e-11 0 -4.02298e-09 4.08548e-11 0 -3.96859e-09 -4.15814e-11 0 -3.7958e-09 1.05507e-10 0 -3.76704e-09 -1.23148e-10 0 -3.35296e-09 2.44843e-10 0 -3.59581e-09 -2.78177e-10 0 -2.4642e-09 3.90856e-10 0 -3.90058e-09 -1.82007e-10 0 -3.89432e-10 -4.99038e-10 0 -6.1922e-09 3.03953e-09 0 5.21389e-09 -1.04657e-08 0 -1.38534e-08 3.70249e-08 0 6.49505e-09 -1.83003e-07 0 3.6256e-07 2.32985e-06 0 3.40952e-07 -1.76876e-06 0 8.77658e-09 1.38714e-07 0 -9.88037e-09 -2.80429e-08 0 7.97203e-09 7.97471e-09 0 -2.1374e-09 -2.25904e-09 0 3.62381e-09 4.27555e-10 0 8.31844e-10 1.86283e-10 0 2.57416e-09 -2.5051e-10 0 1.92156e-09 2.51389e-10 0 2.48418e-09 -1.50761e-10 0 2.39009e-09 1.21882e-10 0 2.59604e-09 -5.72946e-11 0 2.61806e-09 4.8549e-11 0 2.7001e-09 -1.90893e-11 0 2.72396e-09 1.86726e-11 0 2.74679e-09 -1.04467e-11 0 2.74679e-09 1.04467e-11 0 2.72396e-09 -1.86726e-11 0 2.7001e-09 1.90893e-11 0 2.61806e-09 -4.8549e-11 0 2.59604e-09 5.72946e-11 0 2.39009e-09 -1.21882e-10 0 2.48418e-09 1.50761e-10 0 1.92156e-09 -2.51389e-10 0 2.57416e-09 2.5051e-10 0 8.31844e-10 -1.86283e-10 0 3.62381e-09 -4.27555e-10 0 -2.1374e-09 2.25904e-09 0 7.97203e-09 -7.97471e-09 0 -9.88037e-09 2.80429e-08 0 8.77658e-09 -1.38714e-07 0 3.40952e-07 1.76876e-06 0 3.22128e-07 -1.24186e-06 0 6.52245e-09 9.74714e-08 0 -1.13687e-08 -1.97175e-08 0 5.50806e-09 5.579e-09 0 -4.41821e-09 -1.61403e-09 0 8.14046e-10 2.71512e-10 0 -2.14618e-09 1.02235e-10 0 -7.57878e-10 -2.02969e-10 0 -1.63891e-09 1.52534e-10 0 -1.32547e-09 -1.26584e-10 0 -1.60553e-09 6.85842e-11 0 -1.56281e-09 -5.37949e-11 0 -1.66193e-09 2.3888e-11 0 -1.67126e-09 -2.0535e-11 0 -1.70583e-09 8.92224e-12 0 -1.71232e-09 -8.72646e-12 0 -1.71232e-09 8.72646e-12 0 -1.70583e-09 -8.92224e-12 0 -1.67126e-09 2.0535e-11 0 -1.66193e-09 -2.3888e-11 0 -1.56281e-09 5.37949e-11 0 -1.60553e-09 -6.85842e-11 0 -1.32547e-09 1.26584e-10 0 -1.63891e-09 -1.52534e-10 0 -7.57878e-10 2.02969e-10 0 -2.14618e-09 -1.02235e-10 0 8.14046e-10 -2.71512e-10 0 -4.41821e-09 1.61403e-09 0 5.50806e-09 -5.579e-09 0 -1.13687e-08 1.97175e-08 0 6.52245e-09 -9.74714e-08 0 3.22128e-07 1.24186e-06 0 3.12215e-07 -7.36313e-07 0 7.38303e-09 5.77453e-08 0 -9.788e-09 -1.16739e-08 0 6.55631e-09 3.31888e-09 0 -2.83578e-09 -9.41257e-10 0 2.3591e-09 1.77079e-10 0 -3.15693e-10 7.65969e-11 0 1.18337e-09 -1.05101e-10 0 4.88263e-10 1.03898e-10 0 9.22528e-10 -6.33445e-11 0 7.65882e-10 5.02527e-11 0 8.98374e-10 -2.42053e-11 0 8.74377e-10 1.99424e-11 0 9.17506e-10 -8.12188e-12 0 9.18356e-10 7.66812e-12 0 9.28929e-10 -4.38088e-12 0 9.28929e-10 4.38088e-12 0 9.18356e-10 -7.66812e-12 0 9.17506e-10 8.12188e-12 0 8.74377e-10 -1.99424e-11 0 8.98374e-10 2.42053e-11 0 7.65882e-10 -5.02527e-11 0 9.22528e-10 6.33445e-11 0 4.88263e-10 -1.03898e-10 0 1.18337e-09 1.05101e-10 0 -3.15693e-10 -7.65969e-11 0 2.3591e-09 -1.77079e-10 0 -2.83578e-09 9.41257e-10 0 6.55631e-09 -3.31888e-09 0 -9.788e-09 1.16739e-08 0 7.38303e-09 -5.77453e-08 0 3.12215e-07 7.36313e-07 0 3.06579e-07 -2.4423e-07 0 6.74945e-09 1.91716e-08 0 -1.0179e-08 -3.87973e-09 0 5.8668e-09 1.0945e-09 0 -3.45611e-09 -3.20588e-10 0 1.5844e-09 5.00621e-11 0 -1.13042e-09 1.67652e-11 0 2.69393e-10 -4.3056e-11 0 -4.86312e-10 2.71669e-11 0 -1.2075e-10 -2.73311e-11 0 -3.27733e-10 1.14592e-11 0 -2.40044e-10 -1.2197e-11 0 -2.97071e-10 3.46867e-12 0 -2.79007e-10 -4.89688e-12 0 -2.94144e-10 1.24676e-12 0 -2.91614e-10 -1.88367e-12 0 -2.91614e-10 1.88367e-12 0 -2.94144e-10 -1.24676e-12 0 -2.79007e-10 4.89688e-12 0 -2.97071e-10 -3.46867e-12 0 -2.40044e-10 1.2197e-11 0 -3.27733e-10 -1.14592e-11 0 -1.2075e-10 2.73311e-11 0 -4.86312e-10 -2.71669e-11 0 2.69393e-10 4.3056e-11 0 -1.13042e-09 -1.67652e-11 0 1.5844e-09 -5.00621e-11 0 -3.45611e-09 3.20588e-10 0 5.8668e-09 -1.0945e-09 0 -1.0179e-08 3.87973e-09 0 6.74945e-09 -1.91716e-08 0 3.06579e-07 2.4423e-07 0 3.06579e-07 2.4423e-07 0 6.74945e-09 -1.91716e-08 0 -1.0179e-08 3.87973e-09 0 5.8668e-09 -1.0945e-09 0 -3.45611e-09 3.20588e-10 0 1.5844e-09 -5.00621e-11 0 -1.13042e-09 -1.67652e-11 0 2.69393e-10 4.3056e-11 0 -4.86312e-10 -2.71669e-11 0 -1.2075e-10 2.73311e-11 0 -3.27733e-10 -1.14592e-11 0 -2.40044e-10 1.2197e-11 0 -2.97071e-10 -3.46867e-12 0 -2.79007e-10 4.89688e-12 0 -2.94144e-10 -1.24676e-12 0 -2.91614e-10 1.88367e-12 0 -2.91614e-10 -1.88367e-12 0 -2.94144e-10 1.24676e-12 0 -2.79007e-10 -4.89688e-12 0 -2.97071e-10 3.46867e-12 0 -2.40044e-10 -1.2197e-11 0 -3.27733e-10 1.14592e-11 0 -1.2075e-10 -2.73311e-11 0 -4.86312e-10 2.71669e-11 0 2.69393e-10 -4.3056e-11 0 -1.13042e-09 1.67652e-11 0 1.5844e-09 5.00621e-11 0 -3.45611e-09 -3.20588e-10 0 5.8668e-09 1.0945e-09 0 -1.0179e-08 -3.87973e-09 0 6.74945e-09 1.91716e-08 0 3.06579e-07 -2.4423e-07 0 3.12215e-07 7.36313e-07 0 7.38303e-09 -5.77453e-08 0 -9.788e-09 1.16739e-08 0 6.55631e-09 -3.31888e-09 0 -2.83578e-09 9.41257e-10 0 2.3591e-09 -1.77079e-10 0 -3.15693e-10 -7.65969e-11 0 1.18337e-09 1.05101e-10 0 4.88263e-10 -1.03898e-10 0 9.22528e-10 6.33445e-11 0 7.65882e-10 -5.02527e-11 0 8.98374e-10 2.42053e-11 0 8.74377e-10 -1.99424e-11 0 9.17506e-10 8.12188e-12 0 9.18356e-10 -7.66812e-12 0 9.28929e-10 4.38088e-12 0 9.28929e-10 -4.38088e-12 0 9.18356e-10 7.66812e-12 0 9.17506e-10 -8.12188e-12 0 8.74377e-10 1.99424e-11 0 8.98374e-10 -2.42053e-11 0 7.65882e-10 5.02527e-11 0 9.22528e-10 -6.33445e-11 0 4.88263e-10 1.03898e-10 0 1.18337e-09 -1.05101e-10 0 -3.15693e-10 7.65969e-11 0 2.3591e-09 1.77079e-10 0 -2.83578e-09 -9.41257e-10 0 6.55631e-09 3.31888e-09 0 -9.788e-09 -1.16739e-08 0 7.38303e-09 5.77453e-08 0 3.12215e-07 -7.36313e-07 0 3.22128e-07 1.24186e-06 0 6.52245e-09 -9.74714e-08 0 -1.13687e-08 1.97175e-08 0 5.50806e-09 -5.579e-09 0 -4.41821e-09 1.61403e-09 0 8.14046e-10 -2.71512e-10 0 -2.14618e-09 -1.02235e-10 0 -7.57878e-10 2.02969e-10 0 -1.63891e-09 -1.52534e-10 0 -1.32547e-09 1.26584e-10 0 -1.60553e-09 -6.85842e-11 0 -1.56281e-09 5.37949e-11 0 -1.66193e-09 -2.3888e-11 0 -1.67126e-09 2.0535e-11 0 -1.70583e-09 -8.92224e-12 0 -1.71232e-09 8.72646e-12 0 -1.71232e-09 -8.72646e-12 0 -1.70583e-09 8.92224e-12 0 -1.67126e-09 -2.0535e-11 0 -1.66193e-09 2.3888e-11 0 -1.56281e-09 -5.37949e-11 0 -1.60553e-09 6.85842e-11 0 -1.32547e-09 -1.26584e-10 0 -1.63891e-09 1.52534e-10 0 -7.57878e-10 -2.02969e-10 0 -2.14618e-09 1.02235e-10 0 8.14046e-10 2.71512e-10 0 -4.41821e-09 -1.61403e-09 0 5.50806e-09 5.579e-09 0 -1.13687e-08 -1.97175e-08 0 6.52245e-09 9.74714e-08 0 3.22128e-07 -1.24186e-06 0 3.40952e-07 1.76876e-06 0 8.77658e-09 -1.38714e-07 0 -9.88037e-09 2.80429e-08 0 7.97203e-09 -7.97471e-09 0 -2.1374e-09 2.25904e-09 0 3.62381e-09 -4.27555e-10 0 8.31844e-10 -1.86283e-10 0 2.57416e-09 2.5051e-10 0 1.92156e-09 -2.51389e-10 0 2.48418e-09 1.50761e-10 0 2.39009e-09 -1.21882e-10 0 2.59604e-09 5.72946e-11 0 2.61806e-09 -4.8549e-11 0 2.7001e-09 1.90893e-11 0 2.72396e-09 -1.86726e-11 0 2.74679e-09 1.04467e-11 0 2.74679e-09 -1.04467e-11 0 2.72396e-09 1.86726e-11 0 2.7001e-09 -1.90893e-11 0 2.61806e-09 4.8549e-11 0 2.59604e-09 -5.72946e-11 0 2.39009e-09 1.21882e-10 0 2.48418e-09 -1.50761e-10 0 1.92156e-09 2.51389e-10 0 2.57416e-09 -2.5051e-10 0 8.31844e-10 1.86283e-10 0 3.62381e-09 4.27555e-10 0 -2.1374e-09 -2.25904e-09 0 7.97203e-09 7.97471e-09 0 -9.88037e-09 -2.80429e-08 0 8.77658e-09 1.38714e-07 0 3.40952e-07 -1.76876e-06 0 3.6256e-07 2.32985e-06 0 6.49505e-09 -1.83003e-07 0 -1.38534e-08 3.70249e-08 0 5.21389e-09 -1.04657e-08 0 -6.1922e-09 3.03953e-09 0 -3.89432e-10 -4.99038e-10 0 -3.90058e-09 -1.82007e-10 0 -2.4642e-09 3.90856e-10 0 -3.59581e-09 -2.78177e-10 0 -3.35296e-09 2.44843e-10 0 -3.76704e-09 -1.23148e-10 0 -3.7958e-09 1.05507e-10 0 -3.96859e-09 -4.15814e-11 0 -4.02298e-09 4.08548e-11 0 -4.09086e-09 -1.54387e-11 0 -4.11233e-09 1.68348e-11 0 -4.11233e-09 -1.68348e-11 0 -4.09086e-09 1.54387e-11 0 -4.02298e-09 -4.08548e-11 0 -3.96859e-09 4.15814e-11 0 -3.7958e-09 -1.05507e-10 0 -3.76704e-09 1.23148e-10 0 -3.35296e-09 -2.44843e-10 0 -3.59581e-09 2.78177e-10 0 -2.4642e-09 -3.90856e-10 0 -3.90058e-09 1.82007e-10 0 -3.89432e-10 4.99038e-10 0 -6.1922e-09 -3.03953e-09 0 5.21389e-09 1.04657e-08 0 -1.38534e-08 -3.70249e-08 0 6.49505e-09 1.83003e-07 0 3.6256e-07 -2.32985e-06 0 4.01584e-07 2.93705e-06 0 1.14025e-08 -2.30253e-07 0 -1.03982e-08 4.65469e-08 0 1.06032e-08 -1.32525e-08 0 -1.05309e-09 3.73518e-09 0 5.86156e-09 -7.25956e-10 0 2.78265e-09 -3.25473e-10 0 4.99782e-09 4.01122e-10 0 4.39821e-09 -4.30364e-10 0 5.19834e-09 2.39613e-10 0 5.20789e-09 -2.10948e-10 0 5.54521e-09 8.85611e-11 0 5.64572e-09 -8.54542e-11 0 5.79606e-09 2.84066e-11 0 5.85943e-09 -3.29227e-11 0 5.90358e-09 1.67228e-11 0 5.90358e-09 -1.67228e-11 0 5.85943e-09 3.29227e-11 0 5.79606e-09 -2.84066e-11 0 5.64572e-09 8.54542e-11 0 5.54521e-09 -8.85611e-11 0 5.20789e-09 2.10948e-10 0 5.19834e-09 -2.39613e-10 0 4.39821e-09 4.30364e-10 0 4.99782e-09 -4.01122e-10 0 2.78265e-09 3.25473e-10 0 5.86156e-09 7.25956e-10 0 -1.05309e-09 -3.73518e-09 0 1.06032e-08 1.32525e-08 0 -1.03982e-08 -4.65469e-08 0 1.14025e-08 2.30253e-07 0 4.01584e-07 -2.93705e-06 0 4.40093e-07 3.60634e-06 0 6.68033e-09 -2.83785e-07 0 -1.84198e-08 5.742e-08 0 4.9093e-09 -1.62149e-08 0 -9.33846e-09 4.72553e-09 0 -2.40233e-09 -7.57257e-10 0 -6.95326e-09 -2.68432e-10 0 -5.39552e-09 6.20323e-10 0 -6.98705e-09 -4.20928e-10 0 -6.8573e-09 3.8873e-10 0 -7.51086e-09 -1.84905e-10 0 -7.66103e-09 1.68334e-10 0 -7.96312e-09 -6.15329e-11 0 -8.09471e-09 6.54041e-11 0 -8.22052e-09 -2.29132e-11 0 -8.26768e-09 2.64994e-11 0 -8.26768e-09 -2.64994e-11 0 -8.22052e-09 2.29132e-11 0 -8.09471e-09 -6.54041e-11 0 -7.96312e-09 6.15329e-11 0 -7.66103e-09 -1.68334e-10 0 -7.51086e-09 1.84905e-10 0 -6.8573e-09 -3.8873e-10 0 -6.98705e-09 4.20928e-10 0 -5.39552e-09 -6.20323e-10 0 -6.95326e-09 2.68432e-10 0 -2.40233e-09 7.57257e-10 0 -9.33846e-09 -4.72553e-09 0 4.9093e-09 1.62149e-08 0 -1.84198e-08 -5.742e-08 0 6.68033e-09 2.83785e-07 0 4.40093e-07 -3.60634e-06 0 5.1537e-07 4.37243e-06 0 1.63277e-08 -3.42327e-07 0 -1.14065e-08 6.92285e-08 0 1.55295e-08 -1.9702e-08 0 9.50028e-10 5.56398e-09 0 1.00348e-08 -1.07157e-09 0 6.40788e-09 -4.75045e-10 0 9.5094e-09 6.06232e-10 0 9.00405e-09 -6.2911e-10 0 1.02477e-08 3.67689e-10 0 1.04488e-08 -3.02553e-10 0 1.10309e-08 1.41787e-10 0 1.12771e-08 -1.18658e-10 0 1.15547e-08 4.85304e-11 0 1.16914e-08 -4.50846e-11 0 1.17753e-08 2.61764e-11 0 1.17753e-08 -2.61764e-11 0 1.16914e-08 4.50846e-11 0 1.15547e-08 -4.85304e-11 0 1.12771e-08 1.18658e-10 0 1.10309e-08 -1.41787e-10 0 1.04488e-08 3.02553e-10 0 1.02477e-08 -3.67689e-10 0 9.00405e-09 6.2911e-10 0 9.5094e-09 -6.06232e-10 0 6.40788e-09 4.75045e-10 0 1.00348e-08 1.07157e-09 0 9.50028e-10 -5.56398e-09 0 1.55295e-08 1.9702e-08 0 -1.14065e-08 -6.92285e-08 0 1.63277e-08 3.42327e-07 0 5.1537e-07 -4.37243e-06 0 5.89865e-07 5.23056e-06 0 5.94368e-09 -4.13331e-07 0 -2.83178e-08 8.35697e-08 0 3.08149e-09 -2.36872e-08 0 -1.67162e-08 6.7874e-09 0 -7.73415e-09 -1.19146e-09 0 -1.4399e-08 -4.8862e-10 0 -1.27328e-08 8.1465e-10 0 -1.53198e-08 -7.01878e-10 0 -1.55122e-08 4.88665e-10 0 -1.67158e-08 -3.39478e-10 0 -1.71758e-08 1.8813e-10 0 -1.77871e-08 -1.35438e-10 0 -1.81126e-08 6.29767e-11 0 -1.83799e-08 -5.31434e-11 0 -1.84915e-08 3.22233e-11 0 -1.84915e-08 -3.22233e-11 0 -1.83799e-08 5.31434e-11 0 -1.81126e-08 -6.29767e-11 0 -1.77871e-08 1.35438e-10 0 -1.71758e-08 -1.8813e-10 0 -1.67158e-08 3.39478e-10 0 -1.55122e-08 -4.88665e-10 0 -1.53198e-08 7.01878e-10 0 -1.27328e-08 -8.1465e-10 0 -1.4399e-08 4.8862e-10 0 -7.73415e-09 1.19146e-09 0 -1.67162e-08 -6.7874e-09 0 3.08149e-09 2.36872e-08 0 -2.83178e-08 -8.35697e-08 0 5.94368e-09 4.13331e-07 0 5.89865e-07 -5.23056e-06 0 7.31243e-07 6.33868e-06 0 3.17258e-08 -4.94435e-07 0 -7.52309e-09 1.00222e-07 0 3.16415e-08 -2.82059e-08 0 1.18694e-08 8.3529e-09 0 2.59306e-08 -1.22599e-09 0 2.18872e-08 -3.58185e-10 0 2.74207e-08 1.18842e-09 0 2.77207e-08 -6.17065e-10 0 3.04102e-08 7.90098e-10 0 3.14768e-08 -2.13908e-10 0 3.29526e-08 3.87539e-10 0 3.38105e-08 -2.91841e-11 0 3.45813e-08 1.71037e-10 0 3.50226e-08 -4.68191e-12 0 3.52644e-08 5.78314e-11 0 3.52644e-08 -5.78314e-11 0 3.50226e-08 4.68191e-12 0 3.45813e-08 -1.71037e-10 0 3.38105e-08 2.91841e-11 0 3.29526e-08 -3.87539e-10 0 3.14768e-08 2.13908e-10 0 3.04102e-08 -7.90098e-10 0 2.77207e-08 6.17065e-10 0 2.74207e-08 -1.18842e-09 0 2.18872e-08 3.58185e-10 0 2.59306e-08 1.22599e-09 0 1.18694e-08 -8.3529e-09 0 3.16415e-08 2.82059e-08 0 -7.52309e-09 -1.00222e-07 0 3.17258e-08 4.94435e-07 0 7.31243e-07 -6.33868e-06 0 9.38625e-07 7.51777e-06 0 -1.48581e-08 -5.9965e-07 0 -7.03638e-08 1.20732e-07 0 -2.26859e-08 -3.50741e-08 0 -5.69301e-08 8.99026e-09 0 -4.5755e-08 -2.59728e-09 0 -5.94836e-08 -1.60697e-09 0 -5.9931e-08 3.44162e-10 0 -6.69014e-08 -1.80479e-09 0 -6.97799e-08 2.48578e-11 0 -7.38979e-08 -1.08286e-09 0 -7.64598e-08 -2.03458e-10 0 -7.88756e-08 -5.6764e-10 0 -8.04637e-08 -1.69504e-10 0 -8.15936e-08 -2.33824e-10 0 -8.21211e-08 -4.54236e-12 0 -8.21211e-08 4.54236e-12 0 -8.15936e-08 2.33824e-10 0 -8.04637e-08 1.69504e-10 0 -7.88756e-08 5.6764e-10 0 -7.64598e-08 2.03458e-10 0 -7.38979e-08 1.08286e-09 0 -6.97799e-08 -2.48578e-11 0 -6.69014e-08 1.80479e-09 0 -5.9931e-08 -3.44162e-10 0 -5.94836e-08 1.60697e-09 0 -4.5755e-08 2.59728e-09 0 -5.69301e-08 -8.99026e-09 0 -2.26859e-08 3.50741e-08 0 -7.03638e-08 -1.20732e-07 0 -1.48581e-08 5.9965e-07 0 9.38625e-07 -7.51777e-06 0 1.18595e-06 9.53849e-06 0 1.24937e-07 -7.38209e-07 0 6.13029e-08 1.50926e-07 0 1.33938e-07 -4.04156e-08 0 1.08542e-07 1.44957e-08 0 1.41364e-07 2.72551e-10 0 1.43574e-07 1.59027e-09 0 1.6195e-07 3.78844e-09 0 1.7073e-07 9.32033e-10 0 1.82767e-07 2.80448e-09 0 1.90969e-07 1.06218e-09 0 1.98794e-07 1.69827e-09 0 2.04443e-07 8.20112e-10 0 2.08865e-07 8.6461e-10 0 2.11663e-07 3.56246e-10 0 2.13092e-07 2.06455e-10 0 2.13092e-07 -2.06455e-10 0 2.11663e-07 -3.56246e-10 0 2.08865e-07 -8.6461e-10 0 2.04443e-07 -8.20112e-10 0 1.98794e-07 -1.69827e-09 0 1.90969e-07 -1.06218e-09 0 1.82767e-07 -2.80448e-09 0 1.7073e-07 -9.32033e-10 0 1.6195e-07 -3.78844e-09 0 1.43574e-07 -1.59027e-09 0 1.41364e-07 -2.72551e-10 0 1.08542e-07 -1.44957e-08 0 1.33938e-07 4.04156e-08 0 6.13029e-08 -1.50926e-07 0 1.24937e-07 7.38209e-07 0 1.18595e-06 -9.53849e-06 0 2.11781e-06 1.137e-05 0 -2.20034e-07 -9.22988e-07 0 -3.46955e-07 1.8334e-07 0 -2.6152e-07 -5.76822e-08 0 -3.56167e-07 9.49869e-09 0 -3.55919e-07 -8.48694e-09 0 -4.0921e-07 -7.04953e-09 0 -4.33853e-07 -3.75919e-09 0 -4.70605e-07 -6.74686e-09 0 -4.96488e-07 -3.40738e-09 0 -5.22198e-07 -4.60462e-09 0 -5.41747e-07 -2.67759e-09 0 -5.58014e-07 -2.70086e-09 0 -5.69652e-07 -1.54366e-09 0 -5.77496e-07 -1.12657e-09 0 -5.81322e-07 -2.58816e-10 0 -5.81322e-07 2.58816e-10 0 -5.77496e-07 1.12657e-09 0 -5.69652e-07 1.54366e-09 0 -5.58014e-07 2.70086e-09 0 -5.41747e-07 2.67759e-09 0 -5.22198e-07 4.60462e-09 0 -4.96488e-07 3.40738e-09 0 -4.70605e-07 6.74686e-09 0 -4.33853e-07 3.75919e-09 0 -4.0921e-07 7.04953e-09 0 -3.55919e-07 8.48694e-09 0 -3.56167e-07 -9.49869e-09 0 -2.6152e-07 5.76822e-08 0 -3.46955e-07 -1.8334e-07 0 -2.20034e-07 9.22988e-07 0 2.11781e-06 -1.137e-05 0 2.27126e-06 1.64859e-05 0 9.63825e-07 -1.27044e-06 0 8.27623e-07 2.63906e-07 0 1.06649e-06 -6.40855e-08 0 1.07634e-06 3.13905e-08 0 1.24065e-06 7.25358e-09 0 1.32831e-06 9.51637e-09 0 1.45635e-06 1.29819e-08 0 1.55344e-06 7.48439e-09 0 1.65169e-06 9.98703e-09 0 1.73036e-06 6.17649e-09 0 1.79843e-06 6.44623e-09 0 1.85073e-06 4.11273e-09 0 1.89016e-06 3.39418e-09 0 1.91581e-06 1.74474e-09 0 1.92867e-06 7.31086e-10 0 1.92867e-06 -7.31086e-10 0 1.91581e-06 -1.74474e-09 0 1.89016e-06 -3.39418e-09 0 1.85073e-06 -4.11273e-09 0 1.79843e-06 -6.44623e-09 0 1.73036e-06 -6.17649e-09 0 1.65169e-06 -9.98703e-09 0 1.55344e-06 -7.48439e-09 0 1.45635e-06 -1.29819e-08 0 1.32831e-06 -9.51637e-09 0 1.24065e-06 -7.25358e-09 0 1.07634e-06 -3.13905e-08 0 1.06649e-06 6.40855e-08 0 8.27623e-07 -2.63906e-07 0 9.63825e-07 1.27044e-06 0 2.27126e-06 -1.64859e-05 0 1.59339e-05 2.60442e-05 0 -5.47644e-06 -2.12182e-06 0 -6.52059e-06 4.36994e-07 0 -6.25696e-06 -1.07862e-07 0 -7.39848e-06 4.98414e-08 0 -7.90224e-06 1.02197e-08 0 -8.79956e-06 1.35628e-08 0 -9.48336e-06 1.94883e-08 0 -1.02137e-05 1.00908e-08 0 -1.08184e-05 1.44055e-08 0 -1.13602e-05 8.1177e-09 0 -1.17966e-05 8.87998e-09 0 -1.2146e-05 5.30034e-09 0 -1.24017e-05 4.53083e-09 0 -1.25712e-05 2.20798e-09 0 -1.26548e-05 9.9009e-10 0 -1.26548e-05 -9.9009e-10 0 -1.25712e-05 -2.20798e-09 0 -1.24017e-05 -4.53083e-09 0 -1.2146e-05 -5.30034e-09 0 -1.17966e-05 -8.87998e-09 0 -1.13602e-05 -8.1177e-09 0 -1.08184e-05 -1.44055e-08 0 -1.02137e-05 -1.00908e-08 0 -9.48336e-06 -1.94883e-08 0 -8.79956e-06 -1.35628e-08 0 -7.90224e-06 -1.02197e-08 0 -7.39848e-06 -4.98414e-08 0 -6.25696e-06 1.07862e-07 0 -6.52059e-06 -4.36994e-07 0 -5.47644e-06 2.12182e-06 0 1.59339e-05 -2.60442e-05 0 2.8782e-05 5.2398e-06 0 0.000128063 6.1421e-07 0 0.00013948 -9.99287e-07 0 0.000146472 -1.2795e-06 0 0.000165953 -1.50829e-06 0 0.000181833 -1.59347e-06 0 0.000201008 -1.5884e-06 0 0.000218194 -1.50735e-06 0 0.000234848 -1.36084e-06 0 0.000249261 -1.18458e-06 0 0.000261755 -9.89802e-07 0 0.000271933 -7.96383e-07 0 0.000279974 -6.06931e-07 0 0.000285878 -4.26425e-07 0 0.000289766 -2.5242e-07 0 0.000291688 -8.36923e-08 0 0.000291688 8.36923e-08 0 0.000289766 2.5242e-07 0 0.000285878 4.26425e-07 0 0.000279974 6.06931e-07 0 0.000271933 7.96383e-07 0 0.000261755 9.89802e-07 0 0.000249261 1.18458e-06 0 0.000234848 1.36084e-06 0 0.000218194 1.50735e-06 0 0.000201008 1.5884e-06 0 0.000181833 1.59347e-06 0 0.000165953 1.50829e-06 0 0.000146472 1.2795e-06 0 0.00013948 9.99287e-07 0 0.000128063 -6.1421e-07 0 2.8782e-05 -5.2398e-06 0 </DataArray> 
</PointData> 
<Points> 
<DataArray type="Float32" NumberOfComponents="3"> 