<?xml version="1.0"?> 
<VTKFile type="StructuredGrid" version="0.1"> 
<StructuredGrid WholeExtent="0 31 0 31 0 0"> 
<Piece Extent="0 31 0 31 0 0"> 
<PointData>
<DataArray type="Float32" Name="B" format="ascii" NumberOfComponents="3"> 
0 7.99326e-07 0 -1.45097e-07 8.02157e-07 0 -2.91264e-07 8.10659e-07 0 -4.3958e-07 8.2486e-07 0 -5.91136e-07 8.44802e-07 0 -7.47047e-07 8.70541e-07 0 -9.08453e-07 9.02135e-07 0 -1.07653e-06 9.39637e-07 0 -1.25251e-06 9.83081e-07 0 -1.43765e-06 1.03246e-06 0 -1.6333e-06 1.08771e-06 0 -1.84085e-06 1.14865e-06 0 -2.0618e-06 1.21496e-06 0 -2.29772e-06 1.2861e-06 0 -2.55032e-06 1.36118e-06 0 -2.82138e-06 1.43893e-06 0 -3.11304e-06 1.51734e-06 0 -3.42721e-06 1.59368e-06 0 -3.76707e-06 1.6637e-06 0 -4.13416e-06 1.72189e-06 0 -4.5349e-06 1.75939e-06 0 -4.9676e-06 1.7654e-06 0 -5.45049e-06 1.72142e-06 0 -5.96538e-06 1.60579e-06 0 -6.57511e-06 1.37966e-06 0 -7.18986e-06 9.93627e-07 0 -8.04104e-06 3.6623e-07 0 -8.75429e-06 -6.57309e-07 0 -1.01866e-05 -2.25767e-06 0 -1.09894e-05 -5.25092e-06 0 -1.40607e-05 -1.05877e-05 0 -4.77739e-05 -4.14771e-05 0 0 9.41237e-07 0 -1.38901e-07 9.44597e-07 0 -2.78851e-07 9.54692e-07 0 -4.20906e-07 9.71559e-07 0 -5.6614e-07 9.95263e-07 0 -7.15654e-07 1.02589e-06 0 -8.70587e-07 1.06352e-06 0 -1.03212e-06 1.10828e-06 0 -1.20151e-06 1.16023e-06 0 -1.38006e-06 1.21946e-06 0 -1.56918e-06 1.28597e-06 0 -1.7704e-06 1.35969e-06 0 -1.98538e-06 1.44042e-06 0 -2.21595e-06 1.52775e-06 0 -2.46415e-06 1.62102e-06 0 -2.73234e-06 1.71915e-06 0 -3.02319e-06 1.8205e-06 0 -3.33998e-06 1.92267e-06 0 -3.68649e-06 2.02216e-06 0 -4.06782e-06 2.11401e-06 0 -4.48975e-06 2.19102e-06 0 -4.96146e-06 2.24332e-06 0 -5.49229e-06 2.25646e-06 0 -6.10182e-06 2.21069e-06 0 -6.8053e-06 2.07661e-06 0 -7.6529e-06 1.81312e-06 0 -8.67015e-06 1.35743e-06 0 -1.0014e-05 6.15377e-07 0 -1.17617e-05 -5.56205e-07 0 -1.45764e-05 -2.36764e-06 0 -1.94217e-05 -4.65992e-06 0 -2.72633e-05 -4.49298e-06 0 0 1.07643e-06 0 -1.3166e-07 1.08031e-06 0 -2.64336e-07 1.09195e-06 0 -3.99057e-07 1.11142e-06 0 -5.36869e-07 1.13881e-06 0 -6.78852e-07 1.17422e-06 0 -8.26128e-07 1.21779e-06 0 -9.79877e-07 1.2697e-06 0 -1.14135e-06 1.33011e-06 0 -1.3119e-06 1.39916e-06 0 -1.49299e-06 1.477e-06 0 -1.68622e-06 1.56369e-06 0 -1.8934e-06 1.65922e-06 0 -2.11657e-06 1.76341e-06 0 -2.35806e-06 1.8759e-06 0 -2.62064e-06 1.99601e-06 0 -2.90758e-06 2.12265e-06 0 -3.22292e-06 2.25411e-06 0 -3.57167e-06 2.38792e-06 0 -3.9602e-06 2.52046e-06 0 -4.39697e-06 2.64671e-06 0 -4.89294e-06 2.75943e-06 0 -5.46384e-06 2.84904e-06 0 -6.13024e-06 2.90178e-06 0 -6.92478e-06 2.89997e-06 0 -7.89011e-06 2.81903e-06 0 -9.10396e-06 2.62921e-06 0 -1.06685e-05 2.29859e-06 0 -1.28009e-05 1.80999e-06 0 -1.57777e-05 1.27084e-06 0 -2.00354e-05 1.04724e-06 0 -2.53586e-05 2.67515e-06 0 0 1.20388e-06 0 -1.23403e-07 1.20825e-06 0 -2.47781e-07 1.2214e-06 0 -3.74122e-07 1.24338e-06 0 -5.03436e-07 1.27433e-06 0 -6.36766e-07 1.31438e-06 0 -7.75207e-07 1.36374e-06 0 -9.19919e-07 1.42264e-06 0 -1.07214e-06 1.49132e-06 0 -1.23323e-06 1.57008e-06 0 -1.40468e-06 1.65916e-06 0 -1.58814e-06 1.75884e-06 0 -1.78549e-06 1.86931e-06 0 -1.99893e-06 1.99073e-06 0 -2.23098e-06 2.1231e-06 0 -2.48469e-06 2.26626e-06 0 -2.76374e-06 2.41982e-06 0 -3.0727e-06 2.58303e-06 0 -3.41731e-06 2.75466e-06 0 -3.80498e-06 2.93296e-06 0 -4.24531e-06 3.11531e-06 0 -4.75122e-06 3.29832e-06 0 -5.33999e-06 3.47732e-06 0 -6.03579e-06 3.64696e-06 0 -6.87182e-06 3.80073e-06 0 -7.89676e-06 3.93352e-06 0 -9.17802e-06 4.04452e-06 0 -1.08179e-05 4.14737e-06 0 -1.29474e-05 4.29867e-06 0 -1.57347e-05 4.62395e-06 0 -1.92527e-05 5.45002e-06 0 -2.3311e-05 6.69491e-06 0 0 1.32259e-06 0 -1.14172e-07 1.32744e-06 0 -2.29267e-07 1.34201e-06 0 -3.46221e-07 1.3664e-06 0 -4.65993e-07 1.40074e-06 0 -5.8958e-07 1.44524e-06 0 -7.18031e-07 1.50015e-06 0 -8.52466e-07 1.56578e-06 0 -9.94094e-07 1.64248e-06 0 -1.14424e-06 1.73065e-06 0 -1.30439e-06 1.83073e-06 0 -1.47619e-06 1.94317e-06 0 -1.66157e-06 2.06845e-06 0 -1.86274e-06 2.20705e-06 0 -2.08234e-06 2.35945e-06 0 -2.32353e-06 2.52607e-06 0 -2.59018e-06 2.70728e-06 0 -2.88708e-06 2.9034e-06 0 -3.22029e-06 3.11465e-06 0 -3.59755e-06 3.34118e-06 0 -4.02889e-06 3.58317e-06 0 -4.52751e-06 3.84085e-06 0 -5.11097e-06 4.1151e-06 0 -5.80271e-06 4.40774e-06 0 -6.63463e-06 4.72347e-06 0 -7.64942e-06 5.07179e-06 0 -8.90484e-06 5.47272e-06 0 -1.04738e-05 5.96564e-06 0 -1.24445e-05 6.62095e-06 0 -1.48943e-05 7.56471e-06 0 -1.78608e-05 8.92294e-06 0 -2.13115e-05 1.10102e-05 0 0 1.43161e-06 0 -1.04019e-07 1.4369e-06 0 -2.08898e-07 1.45282e-06 0 -3.15507e-07 1.47946e-06 0 -4.24744e-07 1.51701e-06 0 -5.37541e-07 1.5657e-06 0 -6.54886e-07 1.62585e-06 0 -7.77838e-07 1.69786e-06 0 -9.07547e-07 1.78217e-06 0 -1.04529e-06 1.87933e-06 0 -1.19247e-06 1.98993e-06 0 -1.35073e-06 2.11465e-06 0 -1.52192e-06 2.25426e-06 0 -1.70822e-06 2.40959e-06 0 -1.91223e-06 2.58157e-06 0 -2.13708e-06 2.77126e-06 0 -2.38657e-06 2.97982e-06 0 -2.66543e-06 3.20864e-06 0 -2.97959e-06 3.45934e-06 0 -3.33654e-06 3.73401e-06 0 -3.74589e-06 4.03534e-06 0 -4.22e-06 4.3671e-06 0 -4.7749e-06 4.73471e-06 0 -5.43146e-06 5.14645e-06 0 -6.21664e-06 5.61499e-06 0 -7.16498e-06 6.16054e-06 0 -8.31933e-06 6.81483e-06 0 -9.73027e-06 7.6272e-06 0 -1.14508e-05 8.67228e-06 0 -1.35273e-05 1.00463e-05 0 -1.5987e-05 1.18812e-05 0 -1.88442e-05 1.41789e-05 0 0 1.53006e-06 0 -9.30091e-08 1.53576e-06 0 -1.86802e-07 1.55291e-06 0 -2.82173e-07 1.58164e-06 0 -3.79943e-07 1.62214e-06 0 -4.80966e-07 1.6747e-06 0 -5.8615e-07 1.73971e-06 0 -6.96472e-07 1.81764e-06 0 -8.12998e-07 1.90904e-06 0 -9.3691e-07 2.01457e-06 0 -1.06954e-06 2.13502e-06 0 -1.21239e-06 2.27127e-06 0 -1.36722e-06 2.42437e-06 0 -1.53608e-06 2.59549e-06 0 -1.72141e-06 2.78602e-06 0 -1.92612e-06 2.9976e-06 0 -2.15378e-06 3.23215e-06 0 -2.40875e-06 3.49204e-06 0 -2.69644e-06 3.78019e-06 0 -3.02361e-06 4.10033e-06 0 -3.39872e-06 4.45738e-06 0 -3.83246e-06 4.85789e-06 0 -4.33823e-06 5.31099e-06 0 -4.93282e-06 5.82943e-06 0 -5.63698e-06 6.43151e-06 0 -6.47576e-06 7.14339e-06 0 -7.47813e-06 8.00264e-06 0 -8.67556e-06 9.06208e-06 0 -1.00985e-05 1.03926e-05 0 -1.17729e-05 1.20868e-05 0 -1.37186e-05 1.4243e-05 0 -1.59617e-05 1.7027e-05 0 0 1.61711e-06 0 -8.12174e-08 1.62318e-06 0 -1.63131e-07 1.64145e-06 0 -2.46448e-07 1.67205e-06 0 -3.31897e-07 1.71521e-06 0 -4.20241e-07 1.77128e-06 0 -5.12291e-07 1.84068e-06 0 -6.08921e-07 1.92396e-06 0 -7.11087e-07 2.02178e-06 0 -8.19851e-07 2.13493e-06 0 -9.36408e-07 2.26433e-06 0 -1.06212e-06 2.41108e-06 0 -1.19856e-06 2.57647e-06 0 -1.34756e-06 2.76201e-06 0 -1.51129e-06 2.96948e-06 0 -1.69235e-06 3.20103e-06 0 -1.89385e-06 3.45925e-06 0 -2.11956e-06 3.74732e-06 0 -2.3741e-06 4.06923e-06 0 -2.66308e-06 4.43005e-06 0 -2.9934e-06 4.83633e-06 0 -3.37345e-06 5.29673e-06 0 -3.81339e-06 5.82279e-06 0 -4.32534e-06 6.43014e-06 0 -4.92342e-06 7.14001e-06 0 -5.62338e-06 7.98141e-06 0 -6.44184e-06 8.99353e-06 0 -7.39439e-06 1.02285e-05 0 -8.4938e-06 1.17545e-05 0 -9.74719e-06 1.36557e-05 0 -1.11583e-05 1.60417e-05 0 -1.27328e-05 1.9014e-05 0 0 1.69203e-06 0 -6.87312e-08 1.69843e-06 0 -1.38061e-07 1.71767e-06 0 -2.08596e-07 1.74991e-06 0 -2.80964e-07 1.79541e-06 0 -3.55821e-07 1.85454e-06 0 -4.33865e-07 1.92779e-06 0 -5.1585e-07 2.01577e-06 0 -6.026e-07 2.11922e-06 0 -6.95028e-07 2.23905e-06 0 -7.94162e-07 2.37632e-06 0 -9.01167e-07 2.5323e-06 0 -1.01738e-06 2.70848e-06 0 -1.14437e-06 2.90665e-06 0 -1.28394e-06 3.12894e-06 0 -1.43825e-06 3.37789e-06 0 -1.60984e-06 3.65661e-06 0 -1.80173e-06 3.96894e-06 0 -2.01752e-06 4.31961e-06 0 -2.26147e-06 4.71463e-06 0 -2.53864e-06 5.16165e-06 0 -2.85488e-06 5.67056e-06 0 -3.21688e-06 6.25424e-06 0 -3.63205e-06 6.92955e-06 0 -4.10811e-06 7.71872e-06 0 -4.65245e-06 8.65087e-06 0 -5.2708e-06 9.76404e-06 0 -5.9657e-06 1.11073e-05 0 -6.73385e-06 1.27428e-05 0 -7.56463e-06 1.47496e-05 0 -8.43732e-06 1.72252e-05 0 -9.32172e-06 2.03105e-05 0 0 1.75418e-06 0 -5.56484e-08 1.76084e-06 0 -1.11788e-07 1.7809e-06 0 -1.68916e-07 1.81453e-06 0 -2.27549e-07 1.86199e-06 0 -2.88223e-07 1.9237e-06 0 -3.51511e-07 2.00019e-06 0 -4.18031e-07 2.09212e-06 0 -4.88453e-07 2.20032e-06 0 -5.63524e-07 2.32576e-06 0 -6.44072e-07 2.46964e-06 0 -7.31038e-07 2.63335e-06 0 -8.25488e-07 2.81856e-06 0 -9.28647e-07 3.02726e-06 0 -1.04193e-06 3.26182e-06 0 -1.16696e-06 3.52509e-06 0 -1.30563e-06 3.82054e-06 0 -1.46011e-06 4.15241e-06 0 -1.6329e-06 4.52591e-06 0 -1.8268e-06 4.94758e-06 0 -2.04495e-06 5.42559e-06 0 -2.29066e-06 5.9703e-06 0 -2.56728e-06 6.59491e-06 0 -2.87781e-06 7.31627e-06 0 -3.22431e-06 8.15588e-06 0 -3.6069e-06 9.14114e-06 0 -4.02241e-06 1.03067e-05 0 -4.46224e-06 1.16961e-05 0 -4.91006e-06 1.33637e-05 0 -5.33793e-06 1.53767e-05 0 -5.70287e-06 1.78217e-05 0 -5.93927e-06 2.08011e-05 0 0 1.803e-06 0 -4.20761e-08 1.80989e-06 0 -8.4528e-08 1.8306e-06 0 -1.27737e-07 1.86532e-06 0 -1.72097e-07 1.91435e-06 0 -2.18018e-07 1.97811e-06 0 -2.65936e-07 2.05717e-06 0 -3.16319e-07 2.15224e-06 0 -3.69674e-07 2.26419e-06 0 -4.26559e-07 2.39408e-06 0 -4.87589e-07 2.54317e-06 0 -5.53451e-07 2.71296e-06 0 -6.24914e-07 2.90522e-06 0 -7.02841e-07 3.12209e-06 0 -7.88201e-07 3.36609e-06 0 -8.82072e-07 3.64025e-06 0 -9.85652e-07 3.94823e-06 0 -1.10024e-06 4.29445e-06 0 -1.2272e-06 4.68434e-06 0 -1.36794e-06 5.12455e-06 0 -1.52371e-06 5.62328e-06 0 -1.69549e-06 6.19074e-06 0 -1.88362e-06 6.83962e-06 0 -2.0873e-06 7.58571e-06 0 -2.30385e-06 8.44861e-06 0 -2.5276e-06 9.45255e-06 0 -2.74831e-06 1.06273e-05 0 -2.9491e-06 1.2009e-05 0 -3.10337e-06 1.36415e-05 0 -3.17099e-06 1.55774e-05 0 -3.0916e-06 1.788e-05 0 -2.77493e-06 2.06292e-05 0 0 1.83808e-06 0 -2.8129e-08 1.84512e-06 0 -5.6513e-08 1.86631e-06 0 -8.54108e-08 1.90183e-06 0 -1.15088e-07 1.95199e-06 0 -1.45822e-07 2.01724e-06 0 -1.77903e-07 2.09817e-06 0 -2.11644e-07 2.19551e-06 0 -2.47376e-07 2.31017e-06 0 -2.8546e-07 2.44325e-06 0 -3.26286e-07 2.59605e-06 0 -3.70279e-07 2.77014e-06 0 -4.17894e-07 2.96735e-06 0 -4.69624e-07 3.18987e-06 0 -5.25983e-07 3.4403e-06 0 -5.87499e-07 3.72172e-06 0 -6.54685e-07 4.03782e-06 0 -7.27992e-07 4.39304e-06 0 -8.07736e-07 4.79272e-06 0 -8.9398e-07 5.24331e-06 0 -9.86354e-07 5.75266e-06 0 -1.08378e-06 6.33029e-06 0 -1.1841e-06 6.98776e-06 0 -1.28344e-06 7.7391e-06 0 -1.37547e-06 8.60119e-06 0 -1.45023e-06 9.59423e-06 0 -1.49259e-06 1.07421e-05 0 -1.48012e-06 1.20726e-05 0 -1.38025e-06 1.36178e-05 0 -1.14595e-06 1.54131e-05 0 -7.09927e-07 1.7498e-05 0 2.53872e-08 1.991e-05 0 0 1.85909e-06 0 -1.39274e-08 1.86623e-06 0 -2.79856e-08 1.88771e-06 0 -4.23066e-08 1.92372e-06 0 -5.70253e-08 1.97457e-06 0 -7.22805e-08 2.04072e-06 0 -8.8216e-08 2.12278e-06 0 -1.04981e-07 2.22148e-06 0 -1.22731e-07 2.33776e-06 0 -1.41625e-07 2.47272e-06 0 -1.61825e-07 2.6277e-06 0 -1.83489e-07 2.80425e-06 0 -2.06766e-07 3.00423e-06 0 -2.31779e-07 3.22983e-06 0 -2.58606e-07 3.48362e-06 0 -2.87247e-07 3.76863e-06 0 -3.17576e-07 4.08846e-06 0 -3.49269e-07 4.44736e-06 0 -3.81697e-07 4.85041e-06 0 -4.1378e-07 5.3036e-06 0 -4.43765e-07 5.8141e-06 0 -4.68925e-07 6.39039e-06 0 -4.85134e-07 7.04252e-06 0 -4.86285e-07 7.78229e-06 0 -4.63497e-07 8.62344e-06 0 -4.04058e-07 9.58174e-06 0 -2.9e-07 1.06749e-05 0 -9.6259e-08 1.19223e-05 0 2.11888e-07 1.33442e-05 0 6.82111e-07 1.496e-05 0 1.37987e-06 1.67858e-05 0 2.39479e-06 1.8829e-05 0 0 1.86585e-06 0 4.0457e-10 1.87302e-06 0 8.04166e-10 1.8946e-06 0 1.19455e-09 1.93078e-06 0 1.57311e-09 1.98187e-06 0 1.94004e-09 2.04833e-06 0 2.30009e-09 2.13077e-06 0 2.66508e-09 2.22992e-06 0 3.05755e-09 2.3467e-06 0 3.51617e-09 2.48223e-06 0 4.1035e-09 2.63781e-06 0 4.91722e-09 2.81499e-06 0 6.10608e-09 3.01557e-06 0 7.89269e-09 3.24168e-06 0 1.06057e-08 3.4958e-06 0 1.47252e-08 3.78083e-06 0 2.09458e-08 4.10015e-06 0 3.02652e-08 4.45771e-06 0 4.4106e-08 4.85814e-06 0 6.44828e-08 5.30681e-06 0 9.42306e-08 5.81e-06 0 1.37312e-07 6.37495e-06 0 1.99229e-07 7.00995e-06 0 2.87565e-07 7.72443e-06 0 4.1269e-07 8.52888e-06 0 5.88685e-07 9.43466e-06 0 8.34486e-07 1.04537e-05 0 1.17539e-06 1.15975e-05 0 1.64483e-06 1.2876e-05 0 2.28672e-06 1.42955e-05 0 3.15797e-06 1.58542e-05 0 4.33132e-06 1.75362e-05 0 0 1.85828e-06 0 1.47417e-08 1.86542e-06 0 2.96034e-08 1.88692e-06 0 4.4708e-08 1.92295e-06 0 6.01838e-08 1.97383e-06 0 7.61686e-08 2.04e-06 0 9.2813e-08 2.12206e-06 0 1.10286e-07 2.22075e-06 0 1.28784e-07 2.33694e-06 0 1.48534e-07 2.47173e-06 0 1.69814e-07 2.62638e-06 0 1.9296e-07 2.80237e-06 0 2.18398e-07 3.00144e-06 0 2.46663e-07 3.2256e-06 0 2.78446e-07 3.47717e-06 0 3.14646e-07 3.75884e-06 0 3.56439e-07 4.0737e-06 0 4.05376e-07 4.42532e-06 0 4.63509e-07 4.81776e-06 0 5.33562e-07 5.25568e-06 0 6.19148e-07 5.74434e-06 0 7.2506e-07 6.28963e-06 0 8.57639e-07 6.89809e-06 0 1.02524e-06 7.57677e-06 0 1.23883e-06 8.33306e-06 0 1.51267e-06 9.17434e-06 0 1.86525e-06 1.01074e-05 0 2.32022e-06 1.11372e-05 0 2.90755e-06 1.22658e-05 0 3.6646e-06 1.34895e-05 0 4.63701e-06 1.47951e-05 0 5.8785e-06 1.61555e-05 0 0 1.83645e-06 0 2.89592e-08 1.8435e-06 0 5.81607e-08 1.86472e-06 0 8.78516e-08 1.90029e-06 0 1.18288e-07 1.95051e-06 0 1.4974e-07 2.01581e-06 0 1.82501e-07 2.09677e-06 0 2.1689e-07 2.19409e-06 0 2.53265e-07 2.30862e-06 0 2.92034e-07 2.44141e-06 0 3.3367e-07 2.59364e-06 0 3.78732e-07 2.76672e-06 0 4.27887e-07 2.96227e-06 0 4.81948e-07 3.18216e-06 0 5.41916e-07 3.4285e-06 0 6.09036e-07 3.70373e-06 0 6.84872e-07 4.0106e-06 0 7.71401e-07 4.3522e-06 0 8.71141e-07 4.73202e-06 0 9.87304e-07 5.15392e-06 0 1.124e-06 5.62214e-06 0 1.28648e-06 6.14125e-06 0 1.48146e-06 6.71607e-06 0 1.71749e-06 7.35149e-06 0 2.0054e-06 8.05215e-06 0 2.3588e-06 8.82203e-06 0 2.79469e-06 9.66371e-06 0 3.33396e-06 1.05773e-05 0 4.00194e-06 1.15591e-05 0 4.82857e-06 1.25992e-05 0 5.84804e-06 1.36784e-05 0 7.09711e-06 1.47656e-05 0 0 1.80052e-06 0 4.2935e-08 1.80743e-06 0 8.62303e-08 1.82819e-06 0 1.30252e-07 1.86299e-06 0 1.75379e-07 1.91212e-06 0 2.22009e-07 1.97599e-06 0 2.70567e-07 2.05514e-06 0 3.21515e-07 2.15024e-06 0 3.75362e-07 2.26209e-06 0 4.3268e-07 2.39167e-06 0 4.9412e-07 2.54009e-06 0 5.60433e-07 2.70864e-06 0 6.32501e-07 2.89882e-06 0 7.11368e-07 3.11231e-06 0 7.98288e-07 3.351e-06 0 8.9478e-07 3.61705e-06 0 1.0027e-06 3.91281e-06 0 1.12433e-06 4.24093e-06 0 1.2625e-06 4.60426e-06 0 1.42071e-06 5.00589e-06 0 1.6033e-06 5.44908e-06 0 1.8157e-06 5.93717e-06 0 2.06462e-06 6.47343e-06 0 2.35834e-06 7.06086e-06 0 2.70704e-06 7.70181e-06 0 3.12312e-06 8.39754e-06 0 3.62149e-06 9.14748e-06 0 4.21979e-06 9.94833e-06 0 4.93843e-06 1.07927e-05 0 5.8002e-06 1.16674e-05 0 6.82934e-06 1.25515e-05 0 8.04938e-06 1.34143e-05 0 0 1.75082e-06 0 5.65516e-08 1.75751e-06 0 1.13575e-07 1.77765e-06 0 1.71551e-07 1.8114e-06 0 2.30972e-07 1.85902e-06 0 2.92356e-07 1.92092e-06 0 3.56252e-07 1.99759e-06 0 4.23251e-07 2.08965e-06 0 4.94002e-07 2.19786e-06 0 5.69222e-07 2.32311e-06 0 6.49718e-07 2.46643e-06 0 7.36408e-07 2.62898e-06 0 8.30351e-07 2.8121e-06 0 9.32779e-07 3.01728e-06 0 1.04514e-06 3.2462e-06 0 1.16917e-06 3.50068e-06 0 1.30691e-06 3.78272e-06 0 1.46084e-06 4.09448e-06 0 1.63396e-06 4.43823e-06 0 1.82989e-06 4.81632e-06 0 2.05303e-06 5.23112e-06 0 2.30868e-06 5.68487e-06 0 2.60329e-06 6.17953e-06 0 2.94457e-06 6.71651e-06 0 3.34173e-06 7.29639e-06 0 3.80562e-06 7.91837e-06 0 4.34884e-06 8.5797e-06 0 4.98572e-06 9.27488e-06 0 5.73203e-06 9.99458e-06 0 6.6044e-06 1.07246e-05 0 7.61908e-06 1.14442e-05 0 8.79e-06 1.21259e-05 0 0 1.68773e-06 0 6.96973e-08 1.69417e-06 0 1.39972e-07 1.71352e-06 0 2.11408e-07 1.74593e-06 0 2.84607e-07 1.79167e-06 0 3.60198e-07 1.85109e-06 0 4.38841e-07 1.92466e-06 0 5.21248e-07 2.01294e-06 0 6.08188e-07 2.11663e-06 0 7.00507e-07 2.23652e-06 0 7.99145e-07 2.37355e-06 0 9.05159e-07 2.52877e-06 0 1.01975e-06 2.70334e-06 0 1.1443e-06 2.89856e-06 0 1.2804e-06 3.11586e-06 0 1.42991e-06 3.35678e-06 0 1.59501e-06 3.62294e-06 0 1.77828e-06 3.91605e-06 0 1.98275e-06 4.23785e-06 0 2.21204e-06 4.59003e-06 0 2.47041e-06 4.97417e-06 0 2.76293e-06 5.39158e-06 0 3.09554e-06 5.84314e-06 0 3.4752e-06 6.32906e-06 0 3.90998e-06 6.84855e-06 0 4.40908e-06 7.39939e-06 0 4.9828e-06 7.97747e-06 0 5.64237e-06 8.57607e-06 0 6.39955e-06 9.18521e-06 0 7.26591e-06 9.79082e-06 0 8.25171e-06 1.0374e-05 0 9.36426e-06 1.09108e-05 0 0 1.6118e-06 0 8.22674e-08 1.61792e-06 0 1.65208e-07 1.63633e-06 0 2.49505e-07 1.66717e-06 0 3.35858e-07 1.71066e-06 0 4.24994e-07 1.76714e-06 0 5.17678e-07 1.83703e-06 0 6.14725e-07 1.92084e-06 0 7.17011e-07 2.0192e-06 0 8.25492e-07 2.13282e-06 0 9.4122e-07 2.26252e-06 0 1.06536e-06 2.40922e-06 0 1.19923e-06 2.57394e-06 0 1.34431e-06 2.75778e-06 0 1.5023e-06 2.96193e-06 0 1.67512e-06 3.18764e-06 0 1.86502e-06 3.43621e-06 0 2.07459e-06 3.70894e-06 0 2.30683e-06 4.00707e-06 0 2.56522e-06 4.33175e-06 0 2.85381e-06 4.68387e-06 0 3.17726e-06 5.06402e-06 0 3.54092e-06 5.47224e-06 0 3.95092e-06 5.90782e-06 0 4.41411e-06 6.36903e-06 0 4.93808e-06 6.85277e-06 0 5.531e-06 7.35416e-06 0 6.2014e-06 7.86606e-06 0 6.95768e-06 8.37857e-06 0 7.8075e-06 8.87862e-06 0 8.75674e-06 9.34946e-06 0 9.80831e-06 9.77109e-06 0 0 1.52365e-06 0 9.41654e-08 1.52941e-06 0 1.89092e-07 1.54674e-06 0 2.85552e-07 1.57576e-06 0 3.84332e-07 1.61668e-06 0 4.86251e-07 1.6698e-06 0 5.92163e-07 1.73549e-06 0 7.02975e-07 1.81421e-06 0 8.19655e-07 1.90652e-06 0 9.43251e-07 2.01305e-06 0 1.0749e-06 2.13451e-06 0 1.21587e-06 2.27168e-06 0 1.36754e-06 2.42544e-06 0 1.53147e-06 2.5967e-06 0 1.7094e-06 2.78644e-06 0 1.90331e-06 2.99565e-06 0 2.11544e-06 3.22532e-06 0 2.34832e-06 3.47639e-06 0 2.60486e-06 3.74972e-06 0 2.88833e-06 4.04594e-06 0 3.20246e-06 4.36547e-06 0 3.55148e-06 4.70828e-06 0 3.94011e-06 5.0738e-06 0 4.37357e-06 5.46071e-06 0 4.85756e-06 5.86668e-06 0 5.39818e-06 6.28813e-06 0 6.00172e-06 6.71989e-06 0 6.67441e-06 7.15489e-06 0 7.42201e-06 7.58384e-06 0 8.24915e-06 7.99497e-06 0 9.15867e-06 8.37389e-06 0 1.01506e-05 8.70403e-06 0 0 1.42398e-06 0 1.05303e-07 1.42934e-06 0 2.11447e-07 1.44546e-06 0 3.19282e-07 1.47246e-06 0 4.29674e-07 1.51052e-06 0 5.43522e-07 1.55989e-06 0 6.61759e-07 1.62093e-06 0 7.8537e-07 1.69402e-06 0 9.154e-07 1.77965e-06 0 1.05297e-06 1.87837e-06 0 1.1993e-06 1.99078e-06 0 1.3557e-06 2.11757e-06 0 1.52362e-06 2.25944e-06 0 1.70465e-06 2.41715e-06 0 1.90057e-06 2.59148e-06 0 2.11335e-06 2.78319e-06 0 2.34516e-06 2.99301e-06 0 2.59847e-06 3.22158e-06 0 2.87602e-06 3.4694e-06 0 3.18084e-06 3.73678e-06 0 3.51632e-06 4.02369e-06 0 3.8862e-06 4.3297e-06 0 4.29454e-06 4.65382e-06 0 4.74574e-06 4.99432e-06 0 5.24442e-06 5.34859e-06 0 5.79534e-06 5.71286e-06 0 6.4032e-06 6.08202e-06 0 7.07236e-06 6.44938e-06 0 7.80646e-06 6.8065e-06 0 8.60797e-06 7.14309e-06 0 9.47756e-06 7.44697e-06 0 1.04134e-05 7.70456e-06 0 0 1.3136e-06 0 1.15602e-07 1.31852e-06 0 2.32115e-07 1.33333e-06 0 3.50458e-07 1.35812e-06 0 4.71568e-07 1.39305e-06 0 5.96412e-07 1.43835e-06 0 7.25992e-07 1.49431e-06 0 8.61358e-07 1.56129e-06 0 1.00362e-06 1.6397e-06 0 1.15396e-06 1.73e-06 0 1.31364e-06 1.8327e-06 0 1.48403e-06 1.94837e-06 0 1.66661e-06 2.0776e-06 0 1.86299e-06 2.22099e-06 0 2.07493e-06 2.37913e-06 0 2.30438e-06 2.5526e-06 0 2.55344e-06 2.74192e-06 0 2.82445e-06 2.94747e-06 0 3.11996e-06 3.1695e-06 0 3.44275e-06 3.40801e-06 0 3.79584e-06 3.66272e-06 0 4.1825e-06 3.93289e-06 0 4.60617e-06 4.21729e-06 0 5.07046e-06 4.51399e-06 0 5.57904e-06 4.82028e-06 0 6.13552e-06 5.13244e-06 0 6.74327e-06 5.44565e-06 0 7.40515e-06 5.75379e-06 0 8.12321e-06 6.0494e-06 0 8.8983e-06 6.32364e-06 0 9.72963e-06 6.56632e-06 0 1.06143e-05 6.7664e-06 0 0 1.19338e-06 0 1.24992e-07 1.19783e-06 0 2.50955e-07 1.21123e-06 0 3.7887e-07 1.23364e-06 0 5.09736e-07 1.26522e-06 0 6.44575e-07 1.30615e-06 0 7.84449e-07 1.3567e-06 0 9.30462e-07 1.41715e-06 0 1.08378e-06 1.48786e-06 0 1.24562e-06 1.56922e-06 0 1.41729e-06 1.66166e-06 0 1.60019e-06 1.76563e-06 0 1.79582e-06 1.8816e-06 0 2.00579e-06 2.01006e-06 0 2.23183e-06 2.15144e-06 0 2.47582e-06 2.30616e-06 0 2.7398e-06 2.47456e-06 0 3.02596e-06 2.65684e-06 0 3.33665e-06 2.85305e-06 0 3.67439e-06 3.06299e-06 0 4.04184e-06 3.28618e-06 0 4.44181e-06 3.52175e-06 0 4.87718e-06 3.76831e-06 0 5.35087e-06 4.02392e-06 0 5.86571e-06 4.2859e-06 0 6.42435e-06 4.55078e-06 0 7.02907e-06 4.81412e-06 0 7.68155e-06 5.07051e-06 0 8.38265e-06 5.31347e-06 0 9.13204e-06 5.53554e-06 0 9.92794e-06 5.72829e-06 0 1.07668e-05 5.8828e-06 0 0 1.06426e-06 0 1.33411e-07 1.06822e-06 0 2.67846e-07 1.08011e-06 0 4.04338e-07 1.10001e-06 0 5.43935e-07 1.12804e-06 0 6.87711e-07 1.16436e-06 0 8.36775e-07 1.20918e-06 0 9.92276e-07 1.26276e-06 0 1.15542e-06 1.32539e-06 0 1.32746e-06 1.39738e-06 0 1.50973e-06 1.47909e-06 0 1.70366e-06 1.57088e-06 0 1.91072e-06 1.67312e-06 0 2.13253e-06 1.78619e-06 0 2.37079e-06 1.9104e-06 0 2.62731e-06 2.04603e-06 0 2.90402e-06 2.19329e-06 0 3.20297e-06 2.35225e-06 0 3.52632e-06 2.52281e-06 0 3.87633e-06 2.70465e-06 0 4.25534e-06 2.8972e-06 0 4.66573e-06 3.0995e-06 0 5.10988e-06 3.31017e-06 0 5.5901e-06 3.52733e-06 0 6.10853e-06 3.74849e-06 0 6.66701e-06 3.97047e-06 0 7.26696e-06 4.18936e-06 0 7.90916e-06 4.40047e-06 0 8.59354e-06 4.5983e-06 0 9.31896e-06 4.77662e-06 0 1.0083e-05 4.92857e-06 0 1.08816e-05 5.04697e-06 0 0 9.27238e-07 0 1.40808e-07 9.30671e-07 0 2.82684e-07 9.4099e-07 0 4.26704e-07 9.58257e-07 0 5.7396e-07 9.82569e-07 0 7.25567e-07 1.01406e-06 0 8.82673e-07 1.05292e-06 0 1.04646e-06 1.09933e-06 0 1.21817e-06 1.15354e-06 0 1.39908e-06 1.21582e-06 0 1.59055e-06 1.28643e-06 0 1.79399e-06 1.36567e-06 0 2.0109e-06 1.45383e-06 0 2.24285e-06 1.55116e-06 0 2.49151e-06 1.65791e-06 0 2.75862e-06 1.77426e-06 0 3.04602e-06 1.9003e-06 0 3.3556e-06 2.03602e-06 0 3.68935e-06 2.18123e-06 0 4.04929e-06 2.33556e-06 0 4.43745e-06 2.49839e-06 0 4.85587e-06 2.66879e-06 0 5.30647e-06 2.84545e-06 0 5.79107e-06 3.02664e-06 0 6.31121e-06 3.21012e-06 0 6.8681e-06 3.39312e-06 0 7.46247e-06 3.57227e-06 0 8.0944e-06 3.7436e-06 0 8.76316e-06 3.90254e-06 0 9.46702e-06 4.044e-06 0 1.02031e-05 4.16245e-06 0 1.09672e-05 4.2522e-06 0 0 7.83355e-07 0 1.47137e-07 7.86245e-07 0 2.95379e-07 7.94933e-07 0 4.45838e-07 8.09466e-07 0 5.99639e-07 8.29924e-07 0 7.57932e-07 8.5642e-07 0 9.21894e-07 8.89092e-07 0 1.09274e-06 9.28105e-07 0 1.27173e-06 9.73647e-07 0 1.46016e-06 1.02592e-06 0 1.6594e-06 1.08515e-06 0 1.87086e-06 1.15155e-06 0 2.09604e-06 1.22534e-06 0 2.33648e-06 1.30671e-06 0 2.5938e-06 1.39582e-06 0 2.86967e-06 1.49278e-06 0 3.16584e-06 1.59761e-06 0 3.48407e-06 1.71025e-06 0 3.8262e-06 1.83048e-06 0 4.19401e-06 1.95792e-06 0 4.58931e-06 2.09196e-06 0 5.01379e-06 2.23175e-06 0 5.46904e-06 2.37612e-06 0 5.95643e-06 2.52355e-06 0 6.47705e-06 2.67213e-06 0 7.03161e-06 2.81952e-06 0 7.62029e-06 2.9629e-06 0 8.24265e-06 3.09902e-06 0 8.89747e-06 3.22419e-06 0 9.58264e-06 3.33434e-06 0 1.0295e-05 3.4251e-06 0 1.10302e-05 3.49204e-06 0 0 6.33697e-07 0 1.52364e-07 6.36028e-07 0 3.05861e-07 6.43035e-07 0 4.61632e-07 6.54754e-07 0 6.20832e-07 6.71248e-07 0 7.84634e-07 6.92605e-07 0 9.5424e-07 7.1893e-07 0 1.13089e-06 7.50353e-07 0 1.31585e-06 7.87016e-07 0 1.51044e-06 8.29077e-07 0 1.71603e-06 8.76697e-07 0 1.93404e-06 9.30042e-07 0 2.16593e-06 9.89265e-07 0 2.41324e-06 1.0545e-06 0 2.67753e-06 1.12586e-06 0 2.96043e-06 1.2034e-06 0 3.26359e-06 1.2871e-06 0 3.58867e-06 1.37687e-06 0 3.93734e-06 1.4725e-06 0 4.31125e-06 1.57363e-06 0 4.71195e-06 1.67973e-06 0 5.14091e-06 1.79007e-06 0 5.59941e-06 1.90366e-06 0 6.0885e-06 2.01925e-06 0 6.60888e-06 2.13527e-06 0 7.16088e-06 2.24984e-06 0 7.74429e-06 2.36072e-06 0 8.35828e-06 2.46534e-06 0 9.00128e-06 2.56082e-06 0 9.67088e-06 2.64403e-06 0 1.03638e-05 2.71163e-06 0 1.10756e-05 2.76026e-06 0 0 4.79382e-07 0 1.56458e-07 4.81141e-07 0 3.14072e-07 4.86428e-07 0 4.74003e-07 4.9527e-07 0 6.37426e-07 5.07714e-07 0 8.05536e-07 5.23823e-07 0 9.79553e-07 5.43675e-07 0 1.16073e-06 5.67363e-07 0 1.35034e-06 5.9499e-07 0 1.54973e-06 6.2667e-07 0 1.76025e-06 6.62518e-07 0 1.98333e-06 7.02649e-07 0 2.22042e-06 7.47171e-07 0 2.47302e-06 7.96172e-07 0 2.74267e-06 8.49719e-07 0 3.03094e-06 9.07836e-07 0 3.33941e-06 9.70497e-07 0 3.66966e-06 1.03761e-06 0 4.02324e-06 1.10898e-06 0 4.40166e-06 1.18433e-06 0 4.80631e-06 1.26322e-06 0 5.23846e-06 1.34508e-06 0 5.69915e-06 1.42915e-06 0 6.18919e-06 1.51445e-06 0 6.70901e-06 1.59981e-06 0 7.25865e-06 1.68379e-06 0 7.8376e-06 1.76474e-06 0 8.44476e-06 1.84075e-06 0 9.07832e-06 1.9097e-06 0 9.73569e-06 1.96932e-06 0 1.04134e-05 2.01718e-06 0 1.11072e-05 2.05088e-06 0 0 3.2155e-07 0 1.59398e-07 3.22728e-07 0 3.19967e-07 3.26268e-07 0 4.82883e-07 3.32188e-07 0 6.49338e-07 3.40519e-07 0 8.20537e-07 3.51301e-07 0 9.97714e-07 3.64586e-07 0 1.18213e-06 3.80434e-07 0 1.37508e-06 3.98913e-07 0 1.57789e-06 4.20095e-07 0 1.79193e-06 4.44054e-07 0 2.01862e-06 4.70864e-07 0 2.2594e-06 5.00591e-07 0 2.51575e-06 5.33289e-07 0 2.78919e-06 5.68995e-07 0 3.08125e-06 6.07718e-07 0 3.39345e-06 6.49432e-07 0 3.72731e-06 6.94061e-07 0 4.0843e-06 7.41472e-07 0 4.46582e-06 7.91457e-07 0 4.87315e-06 8.43721e-07 0 5.30741e-06 8.97862e-07 0 5.76949e-06 9.53361e-07 0 6.26002e-06 1.00957e-06 0 6.77925e-06 1.06568e-06 0 7.327e-06 1.12074e-06 0 7.90258e-06 1.17366e-06 0 8.5047e-06 1.22318e-06 0 9.13141e-06 1.2679e-06 0 9.77998e-06 1.30634e-06 0 1.04469e-05 1.33693e-06 0 1.11279e-05 1.35811e-06 0 0 1.61365e-07 0 1.61168e-07 1.61956e-07 0 3.23516e-07 1.6373e-07 0 4.8823e-07 1.66698e-07 0 6.56508e-07 1.70873e-07 0 8.29566e-07 1.76277e-07 0 1.00864e-06 1.82934e-07 0 1.19501e-06 1.90875e-07 0 1.38995e-06 2.00132e-07 0 1.59482e-06 2.10742e-07 0 1.81098e-06 2.22739e-07 0 2.03983e-06 2.3616e-07 0 2.28281e-06 2.51037e-07 0 2.54141e-06 2.67394e-07 0 2.8171e-06 2.85249e-07 0 3.11141e-06 3.04603e-07 0 3.42582e-06 3.2544e-07 0 3.76181e-06 3.4772e-07 0 4.12081e-06 3.71372e-07 0 4.50414e-06 3.96289e-07 0 4.91302e-06 4.2232e-07 0 5.34849e-06 4.49259e-07 0 5.81134e-06 4.76845e-07 0 6.30208e-06 5.04747e-07 0 6.82087e-06 5.32565e-07 0 7.36742e-06 5.59823e-07 0 7.94091e-06 5.85969e-07 0 8.53995e-06 6.10382e-07 0 9.16249e-06 6.32373e-07 0 9.80576e-06 6.51207e-07 0 1.04662e-05 6.66112e-07 0 1.11396e-05 6.76324e-07 0 0 -0 0 1.61759e-07 -0 0 3.24701e-07 -0 0 4.90015e-07 -0 0 6.58902e-07 -0 0 8.3258e-07 -0 0 1.01229e-06 -0 0 1.1993e-06 -0 0 1.39492e-06 -0 0 1.60047e-06 -0 0 1.81733e-06 -0 0 2.0469e-06 -0 0 2.29062e-06 -0 0 2.54996e-06 -0 0 2.82641e-06 -0 0 3.12146e-06 -0 0 3.4366e-06 -0 0 3.7733e-06 -0 0 4.13295e-06 -0 0 4.51688e-06 -0 0 4.92627e-06 -0 0 5.36213e-06 -0 0 5.82522e-06 -0 0 6.31603e-06 -0 0 6.83466e-06 -0 0 7.38079e-06 -0 0 7.95357e-06 -0 0 8.55158e-06 -0 0 9.17273e-06 -0 0 9.81422e-06 -0 0 1.04725e-05 -0 0 1.11433e-05 -0 0 </DataArray> 
</PointData> 
<Points> 
<DataArray type="Float32" NumberOfComponents="3"> 