<?xml version="1.0"?> 
<VTKFile type="StructuredGrid" version="0.1"> 
<StructuredGrid WholeExtent="0 31 0 31 0 0"> 
<Piece Extent="0 31 0 31 0 0"> 
<PointData>
<DataArray type="Float32" Name="B" format="ascii" NumberOfComponents="3"> 
6.67928e-05 -8.8709e-05 0 5.84166e-05 -5.54581e-05 0 5.31839e-05 -4.53444e-05 0 4.87872e-05 -3.79775e-05 0 4.39895e-05 -3.25655e-05 0 3.99507e-05 -2.81915e-05 0 3.60638e-05 -2.46106e-05 0 3.26456e-05 -2.16175e-05 0 2.94918e-05 -1.90836e-05 0 2.66687e-05 -1.69254e-05 0 2.40982e-05 -1.50701e-05 0 2.17786e-05 -1.34698e-05 0 1.96715e-05 -1.20812e-05 0 1.77604e-05 -1.08732e-05 0 1.60209e-05 -9.81846e-06 0 1.44358e-05 -8.89593e-06 0 1.29871e-05 -8.08753e-06 0 1.166e-05 -7.37867e-06 0 1.04406e-05 -6.75699e-06 0 9.31651e-06 -6.21225e-06 0 8.27661e-06 -5.73579e-06 0 7.31075e-06 -5.32036e-06 0 6.40968e-06 -4.95985e-06 0 5.56497e-06 -4.64913e-06 0 4.76883e-06 -4.3839e-06 0 4.01404e-06 -4.16059e-06 0 3.29386e-06 -3.97625e-06 0 2.60197e-06 -3.8285e-06 0 1.93232e-06 -3.71546e-06 0 1.27916e-06 -3.6357e-06 0 6.36871e-07 -3.58824e-06 0 0 -3.57249e-06 0 8.07226e-05 -7.48048e-05 0 6.30915e-05 -5.4057e-05 0 5.61971e-05 -4.3389e-05 0 5.07026e-05 -3.63533e-05 0 4.56495e-05 -3.10391e-05 0 4.1201e-05 -2.682e-05 0 3.71523e-05 -2.33686e-05 0 3.35307e-05 -2.0494e-05 0 3.02586e-05 -1.80714e-05 0 2.73159e-05 -1.60097e-05 0 2.46594e-05 -1.42436e-05 0 2.22617e-05 -1.27212e-05 0 2.00922e-05 -1.14032e-05 0 1.81263e-05 -1.02573e-05 0 1.63408e-05 -9.25823e-06 0 1.47156e-05 -8.38491e-06 0 1.32324e-05 -7.6203e-06 0 1.18751e-05 -6.95021e-06 0 1.06291e-05 -6.36288e-06 0 9.48155e-06 -5.84846e-06 0 8.42074e-06 -5.39871e-06 0 7.43613e-06 -5.0067e-06 0 6.51814e-06 -4.66663e-06 0 5.65803e-06 -4.37359e-06 0 4.84776e-06 -4.12352e-06 0 4.0799e-06 -3.91301e-06 0 3.34751e-06 -3.73926e-06 0 2.6441e-06 -3.60002e-06 0 1.96347e-06 -3.49349e-06 0 1.29971e-06 -3.41834e-06 0 6.47084e-07 -3.37362e-06 0 0 -3.35878e-06 0 8.40824e-05 -6.42745e-05 0 6.73537e-05 -5.0992e-05 0 5.90009e-05 -4.12087e-05 0 5.26187e-05 -3.45076e-05 0 4.7212e-05 -2.94047e-05 0 4.24253e-05 -2.53626e-05 0 3.81823e-05 -2.20623e-05 0 3.43832e-05 -1.9322e-05 0 3.09851e-05 -1.70181e-05 0 2.79333e-05 -1.50621e-05 0 2.51909e-05 -1.33896e-05 0 2.27199e-05 -1.19504e-05 0 2.04899e-05 -1.07059e-05 0 1.84723e-05 -9.62532e-06 0 1.66429e-05 -8.68399e-06 0 1.49797e-05 -7.86187e-06 0 1.34637e-05 -7.14258e-06 0 1.20778e-05 -6.51258e-06 0 1.08067e-05 -5.96068e-06 0 9.63696e-06 -5.4775e-06 0 8.55641e-06 -5.05522e-06 0 7.55412e-06 -4.68729e-06 0 6.62017e-06 -4.36818e-06 0 5.74555e-06 -4.09329e-06 0 4.92198e-06 -3.85874e-06 0 4.14182e-06 -3.66134e-06 0 3.39795e-06 -3.49844e-06 0 2.6837e-06 -3.3679e-06 0 1.99274e-06 -3.26805e-06 0 1.31902e-06 -3.19761e-06 0 6.56682e-07 -3.15569e-06 0 0 -3.14178e-06 0 8.66634e-05 -5.66029e-05 0 7.09288e-05 -4.72237e-05 0 6.1518e-05 -3.87368e-05 0 5.44949e-05 -3.24804e-05 0 4.86725e-05 -2.76582e-05 0 4.36079e-05 -2.38228e-05 0 3.91537e-05 -2.06945e-05 0 3.51962e-05 -1.81019e-05 0 3.16707e-05 -1.59263e-05 0 2.85176e-05 -1.40833e-05 0 2.56916e-05 -1.25098e-05 0 2.31518e-05 -1.1158e-05 0 2.08638e-05 -9.99049e-06 0 1.87975e-05 -8.97787e-06 0 1.69264e-05 -8.09655e-06 0 1.52276e-05 -7.32744e-06 0 1.36806e-05 -6.65496e-06 0 1.22678e-05 -6.0663e-06 0 1.09731e-05 -5.55085e-06 0 9.78248e-06 -5.09978e-06 0 8.6834e-06 -4.70571e-06 0 7.66452e-06 -4.36246e-06 0 6.71562e-06 -4.06484e-06 0 5.82741e-06 -3.80851e-06 0 4.99138e-06 -3.58985e-06 0 4.19971e-06 -3.40585e-06 0 3.4451e-06 -3.25402e-06 0 2.72072e-06 -3.13238e-06 0 2.0201e-06 -3.03933e-06 0 1.33707e-06 -2.9737e-06 0 6.65651e-07 -2.93465e-06 0 0 -2.92169e-06 0 8.8618e-05 -5.03542e-05 0 7.38162e-05 -4.32239e-05 0 6.37911e-05 -3.60147e-05 0 5.62481e-05 -3.02969e-05 0 5.00491e-05 -2.58042e-05 0 4.47238e-05 -2.22052e-05 0 4.007e-05 -1.92679e-05 0 3.59614e-05 -1.68357e-05 0 3.23151e-05 -1.47979e-05 0 2.90657e-05 -1.30745e-05 0 2.61606e-05 -1.16055e-05 0 2.35557e-05 -1.03451e-05 0 2.12133e-05 -9.25792e-06 0 1.9101e-05 -8.31589e-06 0 1.71909e-05 -7.49668e-06 0 1.54585e-05 -6.78229e-06 0 1.38827e-05 -6.15805e-06 0 1.24446e-05 -5.6119e-06 0 1.11279e-05 -5.13389e-06 0 9.91785e-06 -4.71575e-06 0 8.80149e-06 -4.35056e-06 0 7.76716e-06 -4.03256e-06 0 6.80433e-06 -3.75691e-06 0 5.90347e-06 -3.51955e-06 0 5.05586e-06 -3.31711e-06 0 4.25349e-06 -3.14678e-06 0 3.48889e-06 -3.00626e-06 0 2.7551e-06 -2.89368e-06 0 2.04551e-06 -2.80758e-06 0 1.35384e-06 -2.74685e-06 0 6.7398e-07 -2.71072e-06 0 0 -2.69872e-06 0 9.01943e-05 -4.47788e-05 0 7.6147e-05 -3.91913e-05 0 6.58065e-05 -3.31094e-05 0 5.78574e-05 -2.79795e-05 0 5.13313e-05 -2.38516e-05 0 4.57654e-05 -2.05149e-05 0 4.09264e-05 -1.77856e-05 0 3.66752e-05 -1.55259e-05 0 3.29156e-05 -1.36348e-05 0 2.95754e-05 -1.20377e-05 0 2.65964e-05 -1.06781e-05 0 2.39304e-05 -9.51314e-06 0 2.15372e-05 -8.50929e-06 0 1.93821e-05 -7.64029e-06 0 1.74356e-05 -6.8852e-06 0 1.56721e-05 -6.22716e-06 0 1.40694e-05 -5.65249e-06 0 1.2608e-05 -5.14995e-06 0 1.12709e-05 -4.7103e-06 0 1.00428e-05 -4.32584e-06 0 8.91048e-06 -3.99018e-06 0 7.86186e-06 -3.69797e-06 0 6.88617e-06 -3.44473e-06 0 5.97363e-06 -3.22672e-06 0 5.11533e-06 -3.04081e-06 0 4.30307e-06 -2.88441e-06 0 3.52926e-06 -2.7554e-06 0 2.78679e-06 -2.65205e-06 0 2.06893e-06 -2.57301e-06 0 1.36929e-06 -2.51727e-06 0 6.81658e-07 -2.4841e-06 0 0 -2.47309e-06 0 9.14608e-05 -3.96748e-05 0 7.80391e-05 -3.51921e-05 0 6.7567e-05 -3.00834e-05 0 5.93122e-05 -2.55502e-05 0 5.25099e-05 -2.18112e-05 0 4.67265e-05 -1.87577e-05 0 4.17182e-05 -1.62515e-05 0 3.73344e-05 -1.41754e-05 0 3.34698e-05 -1.24392e-05 0 3.00451e-05 -1.09745e-05 0 2.69974e-05 -9.72922e-06 0 2.42749e-05 -8.66331e-06 0 2.18346e-05 -7.74573e-06 0 1.964e-05 -6.95208e-06 0 1.766e-05 -6.26296e-06 0 1.58679e-05 -5.66279e-06 0 1.42405e-05 -5.13893e-06 0 1.27576e-05 -4.68103e-06 0 1.14017e-05 -4.28058e-06 0 1.01572e-05 -3.93052e-06 0 9.01018e-06 -3.62498e-06 0 7.94847e-06 -3.35906e-06 0 6.961e-06 -3.12865e-06 0 6.03776e-06 -2.93033e-06 0 5.16968e-06 -2.76123e-06 0 4.34839e-06 -2.619e-06 0 3.56616e-06 -2.50169e-06 0 2.81575e-06 -2.40772e-06 0 2.09033e-06 -2.33586e-06 0 1.3834e-06 -2.28518e-06 0 6.88672e-07 -2.25503e-06 0 0 -2.24502e-06 0 9.24902e-05 -3.48782e-05 0 7.95835e-05 -3.12561e-05 0 6.90849e-05 -2.69813e-05 0 6.06087e-05 -2.30309e-05 0 5.35774e-05 -1.96944e-05 0 4.76023e-05 -1.694e-05 0 4.2441e-05 -1.46699e-05 0 3.79362e-05 -1.27873e-05 0 3.39752e-05 -1.12136e-05 0 3.04731e-05 -9.88714e-06 0 2.73624e-05 -8.76048e-06 0 2.45882e-05 -7.79706e-06 0 2.21049e-05 -6.96845e-06 0 1.98742e-05 -6.2523e-06 0 1.78636e-05 -5.63088e-06 0 1.60454e-05 -5.08997e-06 0 1.43955e-05 -4.61806e-06 0 1.28932e-05 -4.20574e-06 0 1.15202e-05 -3.84527e-06 0 1.02607e-05 -3.53027e-06 0 9.10041e-06 -3.25539e-06 0 8.02684e-06 -3.01621e-06 0 7.02869e-06 -2.80901e-06 0 6.09578e-06 -2.63069e-06 0 5.21884e-06 -2.47868e-06 0 4.38937e-06 -2.35083e-06 0 3.59952e-06 -2.24538e-06 0 2.84193e-06 -2.16093e-06 0 2.10968e-06 -2.09635e-06 0 1.39617e-06 -2.05081e-06 0 6.95013e-07 -2.02372e-06 0 0 -2.01472e-06 0 9.33269e-05 -3.03261e-05 0 8.08463e-05 -2.7389e-05 0 7.03783e-05 -2.38346e-05 0 6.17467e-05 -2.04409e-05 0 5.45293e-05 -1.75123e-05 0 4.83884e-05 -1.50687e-05 0 4.30914e-05 -1.30453e-05 0 3.84778e-05 -1.13652e-05 0 3.44298e-05 -9.9607e-06 0 3.08577e-05 -8.77766e-06 0 2.76901e-05 -7.77368e-06 0 2.48692e-05 -6.9159e-06 0 2.23471e-05 -6.17872e-06 0 2.00839e-05 -5.54202e-06 0 1.80459e-05 -4.98987e-06 0 1.62042e-05 -4.5095e-06 0 1.45342e-05 -4.09058e-06 0 1.30144e-05 -3.7247e-06 0 1.16262e-05 -3.40493e-06 0 1.03532e-05 -3.12556e-06 0 9.18103e-06 -2.88184e-06 0 8.09685e-06 -2.66981e-06 0 7.08915e-06 -2.48616e-06 0 6.14759e-06 -2.32814e-06 0 5.26273e-06 -2.19344e-06 0 4.42596e-06 -2.08017e-06 0 3.6293e-06 -1.98675e-06 0 2.8653e-06 -1.91194e-06 0 2.12695e-06 -1.85474e-06 0 1.40756e-06 -1.8144e-06 0 7.00673e-07 -1.7904e-06 0 0 -1.78243e-06 0 9.40033e-05 -2.59584e-05 0 8.18754e-05 -2.35897e-05 0 7.14661e-05 -2.06639e-05 0 6.27286e-05 -1.77968e-05 0 5.53627e-05 -1.52757e-05 0 4.90815e-05 -1.31505e-05 0 4.36664e-05 -1.13828e-05 0 3.89568e-05 -9.91252e-06 0 3.48317e-05 -8.68331e-06 0 3.11975e-05 -7.64838e-06 0 2.79794e-05 -6.77072e-06 0 2.5117e-05 -6.0214e-06 0 2.25606e-05 -5.37787e-06 0 2.02687e-05 -4.82239e-06 0 1.82064e-05 -4.34092e-06 0 1.6344e-05 -3.92222e-06 0 1.46562e-05 -3.55723e-06 0 1.3121e-05 -3.23855e-06 0 1.17193e-05 -2.96011e-06 0 1.04345e-05 -2.71691e-06 0 9.25188e-06 -2.50478e-06 0 8.15837e-06 -2.32027e-06 0 7.14228e-06 -2.16048e-06 0 6.1931e-06 -2.023e-06 0 5.30129e-06 -1.90583e-06 0 4.4581e-06 -1.8073e-06 0 3.65546e-06 -1.72606e-06 0 2.88583e-06 -1.66099e-06 0 2.14212e-06 -1.61125e-06 0 1.41756e-06 -1.57617e-06 0 7.05643e-07 -1.5553e-06 0 0 -1.54837e-06 0 9.45454e-05 -2.174e-05 0 8.27065e-05 -1.98519e-05 0 7.2366e-05 -1.74825e-05 0 6.35586e-05 -1.51121e-05 0 5.60763e-05 -1.29942e-05 0 4.96789e-05 -1.11925e-05 0 4.41633e-05 -9.68727e-06 0 3.93711e-05 -8.43319e-06 0 3.51793e-05 -7.38442e-06 0 3.14911e-05 -6.50171e-06 0 2.82292e-05 -5.75356e-06 0 2.5331e-05 -5.1152e-06 0 2.27448e-05 -4.56727e-06 0 2.0428e-05 -4.09456e-06 0 1.83447e-05 -3.68501e-06 0 1.64644e-05 -3.329e-06 0 1.47612e-05 -3.01875e-06 0 1.32127e-05 -2.74794e-06 0 1.17995e-05 -2.51138e-06 0 1.05045e-05 -2.3048e-06 0 9.31285e-06 -2.12465e-06 0 8.21129e-06 -1.96798e-06 0 7.18797e-06 -1.83231e-06 0 6.23225e-06 -1.71561e-06 0 5.33445e-06 -1.61615e-06 0 4.48574e-06 -1.53252e-06 0 3.67795e-06 -1.46357e-06 0 2.90348e-06 -1.40835e-06 0 2.15516e-06 -1.36613e-06 0 1.42617e-06 -1.33636e-06 0 7.09917e-07 -1.31866e-06 0 0 -1.31278e-06 0 9.49717e-05 -1.76384e-05 0 8.33658e-05 -1.61678e-05 0 7.30933e-05 -1.42983e-05 0 6.42412e-05 -1.23975e-05 0 5.667e-05 -1.06768e-05 0 5.01788e-05 -9.20142e-06 0 4.45802e-05 -7.96384e-06 0 3.9719e-05 -6.93113e-06 0 3.54712e-05 -6.06717e-06 0 3.17376e-05 -5.34016e-06 0 2.84388e-05 -4.72425e-06 0 2.55103e-05 -4.19899e-06 0 2.28991e-05 -3.74835e-06 0 2.05614e-05 -3.35974e-06 0 1.84605e-05 -3.02318e-06 0 1.65652e-05 -2.7307e-06 0 1.48491e-05 -2.47589e-06 0 1.32895e-05 -2.25353e-06 0 1.18665e-05 -2.05933e-06 0 1.0563e-05 -1.88977e-06 0 9.36383e-06 -1.74192e-06 0 8.25553e-06 -1.61336e-06 0 7.22617e-06 -1.50205e-06 0 6.26496e-06 -1.4063e-06 0 5.36216e-06 -1.32471e-06 0 4.50883e-06 -1.25611e-06 0 3.69675e-06 -1.19955e-06 0 2.91823e-06 -1.15426e-06 0 2.16606e-06 -1.11964e-06 0 1.43335e-06 -1.09522e-06 0 7.13487e-07 -1.0807e-06 0 0 -1.07588e-06 0 9.52971e-05 -1.36285e-05 0 8.38726e-05 -1.25282e-05 0 7.36606e-05 -1.11156e-05 0 6.4781e-05 -9.66144e-06 0 5.71438e-05 -8.33146e-06 0 5.05799e-05 -7.18367e-06 0 4.49155e-05 -6.21762e-06 0 3.9999e-05 -5.41036e-06 0 3.5706e-05 -4.73476e-06 0 3.19359e-05 -4.16633e-06 0 2.86074e-05 -3.68492e-06 0 2.56545e-05 -3.27452e-06 0 2.30232e-05 -2.92256e-06 0 2.06686e-05 -2.61915e-06 0 1.85535e-05 -2.35646e-06 0 1.66461e-05 -2.12824e-06 0 1.49197e-05 -1.92945e-06 0 1.33511e-05 -1.756e-06 0 1.19203e-05 -1.60455e-06 0 1.061e-05 -1.47233e-06 0 9.40472e-06 -1.35706e-06 0 8.29102e-06 -1.25683e-06 0 7.2568e-06 -1.17006e-06 0 6.2912e-06 -1.09542e-06 0 5.38438e-06 -1.03183e-06 0 4.52735e-06 -9.78364e-07 0 3.71182e-06 -9.34284e-07 0 2.93006e-06 -8.98989e-07 0 2.1748e-06 -8.72006e-07 0 1.43912e-06 -8.5298e-07 0 7.1635e-07 -8.41662e-07 0 0 -8.37906e-07 0 9.55322e-05 -9.68704e-06 0 8.42413e-05 -8.92364e-06 0 7.40776e-05 -7.93613e-06 0 6.51819e-05 -6.91052e-06 0 5.74984e-05 -5.9653e-06 0 5.08813e-05 -5.14553e-06 0 4.51679e-05 -4.45374e-06 0 4.021e-05 -3.875e-06 0 3.5883e-05 -3.39049e-06 0 3.20853e-05 -2.98287e-06 0 2.87343e-05 -2.63773e-06 0 2.5763e-05 -2.34359e-06 0 2.31165e-05 -2.09141e-06 0 2.07493e-05 -1.87406e-06 0 1.86234e-05 -1.68592e-06 0 1.6707e-05 -1.52251e-06 0 1.49728e-05 -1.38019e-06 0 1.33974e-05 -1.25603e-06 0 1.19608e-05 -1.14763e-06 0 1.06453e-05 -1.05301e-06 0 9.43545e-06 -9.70521e-07 0 8.31769e-06 -8.98803e-07 0 7.27982e-06 -8.36719e-07 0 6.31092e-06 -7.83322e-07 0 5.40108e-06 -7.37825e-07 0 4.54126e-06 -6.99576e-07 0 3.72314e-06 -6.68043e-07 0 2.93894e-06 -6.42795e-07 0 2.18136e-06 -6.23493e-07 0 1.44344e-06 -6.09884e-07 0 7.185e-07 -6.01788e-07 0 0 -5.99101e-07 0 9.56849e-05 -5.79344e-06 0 8.44819e-05 -5.34412e-06 0 7.43516e-05 -4.76005e-06 0 6.54474e-05 -4.14992e-06 0 5.77343e-05 -3.58478e-06 0 5.10825e-05 -3.09301e-06 0 4.53367e-05 -2.67727e-06 0 4.03511e-05 -2.32919e-06 0 3.60014e-05 -2.03771e-06 0 3.21852e-05 -1.7925e-06 0 2.88192e-05 -1.5849e-06 0 2.58356e-05 -1.40802e-06 0 2.31789e-05 -1.25639e-06 0 2.08032e-05 -1.12573e-06 0 1.86702e-05 -1.01265e-06 0 1.67476e-05 -9.14442e-07 0 1.50082e-05 -8.2892e-07 0 1.34283e-05 -7.5432e-07 0 1.19878e-05 -6.89192e-07 0 1.06688e-05 -6.32345e-07 0 9.45596e-06 -5.82791e-07 0 8.33549e-06 -5.3971e-07 0 7.29519e-06 -5.02417e-07 0 6.32408e-06 -4.70344e-07 0 5.41222e-06 -4.43017e-07 0 4.55055e-06 -4.20044e-07 0 3.7307e-06 -4.01105e-07 0 2.94487e-06 -3.85941e-07 0 2.18574e-06 -3.74349e-07 0 1.44633e-06 -3.66175e-07 0 7.19936e-07 -3.61313e-07 0 0 -3.59699e-07 0 9.576e-05 -1.92803e-06 0 8.46007e-05 -1.77969e-06 0 7.44875e-05 -1.58639e-06 0 6.55796e-05 -1.38389e-06 0 5.78522e-05 -1.19585e-06 0 5.11832e-05 -1.03195e-06 0 4.54212e-05 -8.9326e-07 0 4.04218e-05 -7.77093e-07 0 3.60607e-05 -6.79806e-07 0 3.22353e-05 -5.97962e-07 0 2.88617e-05 -5.28679e-07 0 2.58719e-05 -4.6965e-07 0 2.32101e-05 -4.19055e-07 0 2.08301e-05 -3.75461e-07 0 1.86936e-05 -3.37734e-07 0 1.6768e-05 -3.0497e-07 0 1.50259e-05 -2.76441e-07 0 1.34438e-05 -2.51557e-07 0 1.20013e-05 -2.29833e-07 0 1.06806e-05 -2.10872e-07 0 9.46623e-06 -1.94344e-07 0 8.3444e-06 -1.79975e-07 0 7.30288e-06 -1.67537e-07 0 6.33066e-06 -1.5684e-07 0 5.4178e-06 -1.47726e-07 0 4.5552e-06 -1.40065e-07 0 3.73448e-06 -1.33748e-07 0 2.94784e-06 -1.28691e-07 0 2.18793e-06 -1.24825e-07 0 1.44778e-06 -1.22099e-07 0 7.20654e-07 -1.20478e-07 0 0 -1.1994e-07 0 9.576e-05 1.92803e-06 0 8.46007e-05 1.77969e-06 0 7.44875e-05 1.58639e-06 0 6.55796e-05 1.38389e-06 0 5.78522e-05 1.19585e-06 0 5.11832e-05 1.03195e-06 0 4.54212e-05 8.9326e-07 0 4.04218e-05 7.77093e-07 0 3.60607e-05 6.79806e-07 0 3.22353e-05 5.97962e-07 0 2.88617e-05 5.28679e-07 0 2.58719e-05 4.6965e-07 0 2.32101e-05 4.19055e-07 0 2.08301e-05 3.75461e-07 0 1.86936e-05 3.37734e-07 0 1.6768e-05 3.0497e-07 0 1.50259e-05 2.76441e-07 0 1.34438e-05 2.51557e-07 0 1.20013e-05 2.29833e-07 0 1.06806e-05 2.10872e-07 0 9.46623e-06 1.94344e-07 0 8.3444e-06 1.79975e-07 0 7.30288e-06 1.67537e-07 0 6.33066e-06 1.5684e-07 0 5.4178e-06 1.47726e-07 0 4.5552e-06 1.40065e-07 0 3.73448e-06 1.33748e-07 0 2.94784e-06 1.28691e-07 0 2.18793e-06 1.24825e-07 0 1.44778e-06 1.22099e-07 0 7.20654e-07 1.20478e-07 0 0 1.1994e-07 0 9.56849e-05 5.79344e-06 0 8.44819e-05 5.34412e-06 0 7.43516e-05 4.76005e-06 0 6.54474e-05 4.14992e-06 0 5.77343e-05 3.58478e-06 0 5.10825e-05 3.09301e-06 0 4.53367e-05 2.67727e-06 0 4.03511e-05 2.32919e-06 0 3.60014e-05 2.03771e-06 0 3.21852e-05 1.7925e-06 0 2.88192e-05 1.5849e-06 0 2.58356e-05 1.40802e-06 0 2.31789e-05 1.25639e-06 0 2.08032e-05 1.12573e-06 0 1.86702e-05 1.01265e-06 0 1.67476e-05 9.14442e-07 0 1.50082e-05 8.2892e-07 0 1.34283e-05 7.5432e-07 0 1.19878e-05 6.89192e-07 0 1.06688e-05 6.32345e-07 0 9.45596e-06 5.82791e-07 0 8.33549e-06 5.3971e-07 0 7.29519e-06 5.02417e-07 0 6.32408e-06 4.70344e-07 0 5.41222e-06 4.43017e-07 0 4.55055e-06 4.20044e-07 0 3.7307e-06 4.01105e-07 0 2.94487e-06 3.85941e-07 0 2.18574e-06 3.74349e-07 0 1.44633e-06 3.66175e-07 0 7.19936e-07 3.61313e-07 0 0 3.59699e-07 0 9.55322e-05 9.68704e-06 0 8.42413e-05 8.92364e-06 0 7.40776e-05 7.93613e-06 0 6.51819e-05 6.91052e-06 0 5.74984e-05 5.9653e-06 0 5.08813e-05 5.14553e-06 0 4.51679e-05 4.45374e-06 0 4.021e-05 3.875e-06 0 3.5883e-05 3.39049e-06 0 3.20853e-05 2.98287e-06 0 2.87343e-05 2.63773e-06 0 2.5763e-05 2.34359e-06 0 2.31165e-05 2.09141e-06 0 2.07493e-05 1.87406e-06 0 1.86234e-05 1.68592e-06 0 1.6707e-05 1.52251e-06 0 1.49728e-05 1.38019e-06 0 1.33974e-05 1.25603e-06 0 1.19608e-05 1.14763e-06 0 1.06453e-05 1.05301e-06 0 9.43545e-06 9.70521e-07 0 8.31769e-06 8.98803e-07 0 7.27982e-06 8.36719e-07 0 6.31092e-06 7.83322e-07 0 5.40108e-06 7.37825e-07 0 4.54126e-06 6.99576e-07 0 3.72314e-06 6.68043e-07 0 2.93894e-06 6.42795e-07 0 2.18136e-06 6.23493e-07 0 1.44344e-06 6.09884e-07 0 7.185e-07 6.01788e-07 0 0 5.99101e-07 0 9.52971e-05 1.36285e-05 0 8.38726e-05 1.25282e-05 0 7.36606e-05 1.11156e-05 0 6.4781e-05 9.66144e-06 0 5.71438e-05 8.33146e-06 0 5.05799e-05 7.18367e-06 0 4.49155e-05 6.21762e-06 0 3.9999e-05 5.41036e-06 0 3.5706e-05 4.73476e-06 0 3.19359e-05 4.16633e-06 0 2.86074e-05 3.68492e-06 0 2.56545e-05 3.27452e-06 0 2.30232e-05 2.92256e-06 0 2.06686e-05 2.61915e-06 0 1.85535e-05 2.35646e-06 0 1.66461e-05 2.12824e-06 0 1.49197e-05 1.92945e-06 0 1.33511e-05 1.756e-06 0 1.19203e-05 1.60455e-06 0 1.061e-05 1.47233e-06 0 9.40472e-06 1.35706e-06 0 8.29102e-06 1.25683e-06 0 7.2568e-06 1.17006e-06 0 6.2912e-06 1.09542e-06 0 5.38438e-06 1.03183e-06 0 4.52735e-06 9.78364e-07 0 3.71182e-06 9.34284e-07 0 2.93006e-06 8.98989e-07 0 2.1748e-06 8.72006e-07 0 1.43912e-06 8.5298e-07 0 7.1635e-07 8.41662e-07 0 0 8.37906e-07 0 9.49717e-05 1.76384e-05 0 8.33658e-05 1.61678e-05 0 7.30933e-05 1.42983e-05 0 6.42412e-05 1.23975e-05 0 5.667e-05 1.06768e-05 0 5.01788e-05 9.20142e-06 0 4.45802e-05 7.96384e-06 0 3.9719e-05 6.93113e-06 0 3.54712e-05 6.06717e-06 0 3.17376e-05 5.34016e-06 0 2.84388e-05 4.72425e-06 0 2.55103e-05 4.19899e-06 0 2.28991e-05 3.74835e-06 0 2.05614e-05 3.35974e-06 0 1.84605e-05 3.02318e-06 0 1.65652e-05 2.7307e-06 0 1.48491e-05 2.47589e-06 0 1.32895e-05 2.25353e-06 0 1.18665e-05 2.05933e-06 0 1.0563e-05 1.88977e-06 0 9.36383e-06 1.74192e-06 0 8.25553e-06 1.61336e-06 0 7.22617e-06 1.50205e-06 0 6.26496e-06 1.4063e-06 0 5.36216e-06 1.32471e-06 0 4.50883e-06 1.25611e-06 0 3.69675e-06 1.19955e-06 0 2.91823e-06 1.15426e-06 0 2.16606e-06 1.11964e-06 0 1.43335e-06 1.09522e-06 0 7.13487e-07 1.0807e-06 0 0 1.07588e-06 0 9.45454e-05 2.174e-05 0 8.27065e-05 1.98519e-05 0 7.2366e-05 1.74825e-05 0 6.35586e-05 1.51121e-05 0 5.60763e-05 1.29942e-05 0 4.96789e-05 1.11925e-05 0 4.41633e-05 9.68727e-06 0 3.93711e-05 8.43319e-06 0 3.51793e-05 7.38442e-06 0 3.14911e-05 6.50171e-06 0 2.82292e-05 5.75356e-06 0 2.5331e-05 5.1152e-06 0 2.27448e-05 4.56727e-06 0 2.0428e-05 4.09456e-06 0 1.83447e-05 3.68501e-06 0 1.64644e-05 3.329e-06 0 1.47612e-05 3.01875e-06 0 1.32127e-05 2.74794e-06 0 1.17995e-05 2.51138e-06 0 1.05045e-05 2.3048e-06 0 9.31285e-06 2.12465e-06 0 8.21129e-06 1.96798e-06 0 7.18797e-06 1.83231e-06 0 6.23225e-06 1.71561e-06 0 5.33445e-06 1.61615e-06 0 4.48574e-06 1.53252e-06 0 3.67795e-06 1.46357e-06 0 2.90348e-06 1.40835e-06 0 2.15516e-06 1.36613e-06 0 1.42617e-06 1.33636e-06 0 7.09917e-07 1.31866e-06 0 0 1.31278e-06 0 9.40033e-05 2.59584e-05 0 8.18754e-05 2.35897e-05 0 7.14661e-05 2.06639e-05 0 6.27286e-05 1.77968e-05 0 5.53627e-05 1.52757e-05 0 4.90815e-05 1.31505e-05 0 4.36664e-05 1.13828e-05 0 3.89568e-05 9.91252e-06 0 3.48317e-05 8.68331e-06 0 3.11975e-05 7.64838e-06 0 2.79794e-05 6.77072e-06 0 2.5117e-05 6.0214e-06 0 2.25606e-05 5.37787e-06 0 2.02687e-05 4.82239e-06 0 1.82064e-05 4.34092e-06 0 1.6344e-05 3.92222e-06 0 1.46562e-05 3.55723e-06 0 1.3121e-05 3.23855e-06 0 1.17193e-05 2.96011e-06 0 1.04345e-05 2.71691e-06 0 9.25188e-06 2.50478e-06 0 8.15837e-06 2.32027e-06 0 7.14228e-06 2.16048e-06 0 6.1931e-06 2.023e-06 0 5.30129e-06 1.90583e-06 0 4.4581e-06 1.8073e-06 0 3.65546e-06 1.72606e-06 0 2.88583e-06 1.66099e-06 0 2.14212e-06 1.61125e-06 0 1.41756e-06 1.57617e-06 0 7.05643e-07 1.5553e-06 0 0 1.54837e-06 0 9.33269e-05 3.03261e-05 0 8.08463e-05 2.7389e-05 0 7.03783e-05 2.38346e-05 0 6.17467e-05 2.04409e-05 0 5.45293e-05 1.75123e-05 0 4.83884e-05 1.50687e-05 0 4.30914e-05 1.30453e-05 0 3.84778e-05 1.13652e-05 0 3.44298e-05 9.9607e-06 0 3.08577e-05 8.77766e-06 0 2.76901e-05 7.77368e-06 0 2.48692e-05 6.9159e-06 0 2.23471e-05 6.17872e-06 0 2.00839e-05 5.54202e-06 0 1.80459e-05 4.98987e-06 0 1.62042e-05 4.5095e-06 0 1.45342e-05 4.09058e-06 0 1.30144e-05 3.7247e-06 0 1.16262e-05 3.40493e-06 0 1.03532e-05 3.12556e-06 0 9.18103e-06 2.88184e-06 0 8.09685e-06 2.66981e-06 0 7.08915e-06 2.48616e-06 0 6.14759e-06 2.32814e-06 0 5.26273e-06 2.19344e-06 0 4.42596e-06 2.08017e-06 0 3.6293e-06 1.98675e-06 0 2.8653e-06 1.91194e-06 0 2.12695e-06 1.85474e-06 0 1.40756e-06 1.8144e-06 0 7.00673e-07 1.7904e-06 0 0 1.78243e-06 0 9.24902e-05 3.48782e-05 0 7.95835e-05 3.12561e-05 0 6.90849e-05 2.69813e-05 0 6.06087e-05 2.30309e-05 0 5.35774e-05 1.96944e-05 0 4.76023e-05 1.694e-05 0 4.2441e-05 1.46699e-05 0 3.79362e-05 1.27873e-05 0 3.39752e-05 1.12136e-05 0 3.04731e-05 9.88714e-06 0 2.73624e-05 8.76048e-06 0 2.45882e-05 7.79706e-06 0 2.21049e-05 6.96845e-06 0 1.98742e-05 6.2523e-06 0 1.78636e-05 5.63088e-06 0 1.60454e-05 5.08997e-06 0 1.43955e-05 4.61806e-06 0 1.28932e-05 4.20574e-06 0 1.15202e-05 3.84527e-06 0 1.02607e-05 3.53027e-06 0 9.10041e-06 3.25539e-06 0 8.02684e-06 3.01621e-06 0 7.02869e-06 2.80901e-06 0 6.09578e-06 2.63069e-06 0 5.21884e-06 2.47868e-06 0 4.38937e-06 2.35083e-06 0 3.59952e-06 2.24538e-06 0 2.84193e-06 2.16093e-06 0 2.10968e-06 2.09635e-06 0 1.39617e-06 2.05081e-06 0 6.95013e-07 2.02372e-06 0 0 2.01472e-06 0 9.14608e-05 3.96748e-05 0 7.80391e-05 3.51921e-05 0 6.7567e-05 3.00834e-05 0 5.93122e-05 2.55502e-05 0 5.25099e-05 2.18112e-05 0 4.67265e-05 1.87577e-05 0 4.17182e-05 1.62515e-05 0 3.73344e-05 1.41754e-05 0 3.34698e-05 1.24392e-05 0 3.00451e-05 1.09745e-05 0 2.69974e-05 9.72922e-06 0 2.42749e-05 8.66331e-06 0 2.18346e-05 7.74573e-06 0 1.964e-05 6.95208e-06 0 1.766e-05 6.26296e-06 0 1.58679e-05 5.66279e-06 0 1.42405e-05 5.13893e-06 0 1.27576e-05 4.68103e-06 0 1.14017e-05 4.28058e-06 0 1.01572e-05 3.93052e-06 0 9.01018e-06 3.62498e-06 0 7.94847e-06 3.35906e-06 0 6.961e-06 3.12865e-06 0 6.03776e-06 2.93033e-06 0 5.16968e-06 2.76123e-06 0 4.34839e-06 2.619e-06 0 3.56616e-06 2.50169e-06 0 2.81575e-06 2.40772e-06 0 2.09033e-06 2.33586e-06 0 1.3834e-06 2.28518e-06 0 6.88672e-07 2.25503e-06 0 0 2.24502e-06 0 9.01943e-05 4.47788e-05 0 7.6147e-05 3.91913e-05 0 6.58065e-05 3.31094e-05 0 5.78574e-05 2.79795e-05 0 5.13313e-05 2.38516e-05 0 4.57654e-05 2.05149e-05 0 4.09264e-05 1.77856e-05 0 3.66752e-05 1.55259e-05 0 3.29156e-05 1.36348e-05 0 2.95754e-05 1.20377e-05 0 2.65964e-05 1.06781e-05 0 2.39304e-05 9.51314e-06 0 2.15372e-05 8.50929e-06 0 1.93821e-05 7.64029e-06 0 1.74356e-05 6.8852e-06 0 1.56721e-05 6.22716e-06 0 1.40694e-05 5.65249e-06 0 1.2608e-05 5.14995e-06 0 1.12709e-05 4.7103e-06 0 1.00428e-05 4.32584e-06 0 8.91048e-06 3.99018e-06 0 7.86186e-06 3.69797e-06 0 6.88617e-06 3.44473e-06 0 5.97363e-06 3.22672e-06 0 5.11533e-06 3.04081e-06 0 4.30307e-06 2.88441e-06 0 3.52926e-06 2.7554e-06 0 2.78679e-06 2.65205e-06 0 2.06893e-06 2.57301e-06 0 1.36929e-06 2.51727e-06 0 6.81658e-07 2.4841e-06 0 0 2.47309e-06 0 8.8618e-05 5.03542e-05 0 7.38162e-05 4.32239e-05 0 6.37911e-05 3.60147e-05 0 5.62481e-05 3.02969e-05 0 5.00491e-05 2.58042e-05 0 4.47238e-05 2.22052e-05 0 4.007e-05 1.92679e-05 0 3.59614e-05 1.68357e-05 0 3.23151e-05 1.47979e-05 0 2.90657e-05 1.30745e-05 0 2.61606e-05 1.16055e-05 0 2.35557e-05 1.03451e-05 0 2.12133e-05 9.25792e-06 0 1.9101e-05 8.31589e-06 0 1.71909e-05 7.49668e-06 0 1.54585e-05 6.78229e-06 0 1.38827e-05 6.15805e-06 0 1.24446e-05 5.6119e-06 0 1.11279e-05 5.13389e-06 0 9.91785e-06 4.71575e-06 0 8.80149e-06 4.35056e-06 0 7.76716e-06 4.03256e-06 0 6.80433e-06 3.75691e-06 0 5.90347e-06 3.51955e-06 0 5.05586e-06 3.31711e-06 0 4.25349e-06 3.14678e-06 0 3.48889e-06 3.00626e-06 0 2.7551e-06 2.89368e-06 0 2.04551e-06 2.80758e-06 0 1.35384e-06 2.74685e-06 0 6.7398e-07 2.71072e-06 0 0 2.69872e-06 0 8.66634e-05 5.66029e-05 0 7.09288e-05 4.72237e-05 0 6.1518e-05 3.87368e-05 0 5.44949e-05 3.24804e-05 0 4.86725e-05 2.76582e-05 0 4.36079e-05 2.38228e-05 0 3.91537e-05 2.06945e-05 0 3.51962e-05 1.81019e-05 0 3.16707e-05 1.59263e-05 0 2.85176e-05 1.40833e-05 0 2.56916e-05 1.25098e-05 0 2.31518e-05 1.1158e-05 0 2.08638e-05 9.99049e-06 0 1.87975e-05 8.97787e-06 0 1.69264e-05 8.09655e-06 0 1.52276e-05 7.32744e-06 0 1.36806e-05 6.65496e-06 0 1.22678e-05 6.0663e-06 0 1.09731e-05 5.55085e-06 0 9.78248e-06 5.09978e-06 0 8.6834e-06 4.70571e-06 0 7.66452e-06 4.36246e-06 0 6.71562e-06 4.06484e-06 0 5.82741e-06 3.80851e-06 0 4.99138e-06 3.58985e-06 0 4.19971e-06 3.40585e-06 0 3.4451e-06 3.25402e-06 0 2.72072e-06 3.13238e-06 0 2.0201e-06 3.03933e-06 0 1.33707e-06 2.9737e-06 0 6.65651e-07 2.93465e-06 0 0 2.92169e-06 0 8.40824e-05 6.42745e-05 0 6.73537e-05 5.0992e-05 0 5.90009e-05 4.12087e-05 0 5.26187e-05 3.45076e-05 0 4.7212e-05 2.94047e-05 0 4.24253e-05 2.53626e-05 0 3.81823e-05 2.20623e-05 0 3.43832e-05 1.9322e-05 0 3.09851e-05 1.70181e-05 0 2.79333e-05 1.50621e-05 0 2.51909e-05 1.33896e-05 0 2.27199e-05 1.19504e-05 0 2.04899e-05 1.07059e-05 0 1.84723e-05 9.62532e-06 0 1.66429e-05 8.68399e-06 0 1.49797e-05 7.86187e-06 0 1.34637e-05 7.14258e-06 0 1.20778e-05 6.51258e-06 0 1.08067e-05 5.96068e-06 0 9.63696e-06 5.4775e-06 0 8.55641e-06 5.05522e-06 0 7.55412e-06 4.68729e-06 0 6.62017e-06 4.36818e-06 0 5.74555e-06 4.09329e-06 0 4.92198e-06 3.85874e-06 0 4.14182e-06 3.66134e-06 0 3.39795e-06 3.49844e-06 0 2.6837e-06 3.3679e-06 0 1.99274e-06 3.26805e-06 0 1.31902e-06 3.19761e-06 0 6.56682e-07 3.15569e-06 0 0 3.14178e-06 0 8.07226e-05 7.48048e-05 0 6.30915e-05 5.4057e-05 0 5.61971e-05 4.3389e-05 0 5.07026e-05 3.63533e-05 0 4.56495e-05 3.10391e-05 0 4.1201e-05 2.682e-05 0 3.71523e-05 2.33686e-05 0 3.35307e-05 2.0494e-05 0 3.02586e-05 1.80714e-05 0 2.73159e-05 1.60097e-05 0 2.46594e-05 1.42436e-05 0 2.22617e-05 1.27212e-05 0 2.00922e-05 1.14032e-05 0 1.81263e-05 1.02573e-05 0 1.63408e-05 9.25823e-06 0 1.47156e-05 8.38491e-06 0 1.32324e-05 7.6203e-06 0 1.18751e-05 6.95021e-06 0 1.06291e-05 6.36288e-06 0 9.48155e-06 5.84846e-06 0 8.42074e-06 5.39871e-06 0 7.43613e-06 5.0067e-06 0 6.51814e-06 4.66663e-06 0 5.65803e-06 4.37359e-06 0 4.84776e-06 4.12352e-06 0 4.0799e-06 3.91301e-06 0 3.34751e-06 3.73926e-06 0 2.6441e-06 3.60002e-06 0 1.96347e-06 3.49349e-06 0 1.29971e-06 3.41834e-06 0 6.47084e-07 3.37362e-06 0 0 3.35878e-06 0 6.67928e-05 8.8709e-05 0 5.84166e-05 5.54581e-05 0 5.31839e-05 4.53444e-05 0 4.87872e-05 3.79775e-05 0 4.39895e-05 3.25655e-05 0 3.99507e-05 2.81915e-05 0 3.60638e-05 2.46106e-05 0 3.26456e-05 2.16175e-05 0 2.94918e-05 1.90836e-05 0 2.66687e-05 1.69254e-05 0 2.40982e-05 1.50701e-05 0 2.17786e-05 1.34698e-05 0 1.96715e-05 1.20812e-05 0 1.77604e-05 1.08732e-05 0 1.60209e-05 9.81846e-06 0 1.44358e-05 8.89593e-06 0 1.29871e-05 8.08753e-06 0 1.166e-05 7.37867e-06 0 1.04406e-05 6.75699e-06 0 9.31651e-06 6.21225e-06 0 8.27661e-06 5.73579e-06 0 7.31075e-06 5.32036e-06 0 6.40968e-06 4.95985e-06 0 5.56497e-06 4.64913e-06 0 4.76883e-06 4.3839e-06 0 4.01404e-06 4.16059e-06 0 3.29386e-06 3.97625e-06 0 2.60197e-06 3.8285e-06 0 1.93232e-06 3.71546e-06 0 1.27916e-06 3.6357e-06 0 6.36871e-07 3.58824e-06 0 0 3.57249e-06 0 </DataArray> 
</PointData> 
<Points> 
<DataArray type="Float32" NumberOfComponents="3"> 