<?xml version="1.0"?> 
<VTKFile type="StructuredGrid" version="0.1"> 
<StructuredGrid WholeExtent="0 31 0 31 0 0"> 
<Piece Extent="0 31 0 31 0 0"> 
<PointData>
<DataArray type="Float32" Name="B" format="ascii" NumberOfComponents="3"> 
-4.89047e-05 -0 0 -4.56991e-05 -0 0 -4.26267e-05 -0 0 -3.96938e-05 -0 0 -3.6904e-05 -0 0 -3.42584e-05 -0 0 -3.17562e-05 -0 0 -2.93948e-05 -0 0 -2.71704e-05 -0 0 -2.50783e-05 -0 0 -2.31129e-05 -0 0 -2.12682e-05 -0 0 -1.95379e-05 -0 0 -1.79154e-05 -0 0 -1.6394e-05 -0 0 -1.4967e-05 -0 0 -1.36279e-05 -0 0 -1.23702e-05 -0 0 -1.11873e-05 -0 0 -1.00732e-05 -0 0 -9.02162e-06 -0 0 -8.02676e-06 -0 0 -7.08285e-06 -0 0 -6.18428e-06 -0 0 -5.32561e-06 -0 0 -4.50153e-06 -0 0 -3.70687e-06 -0 0 -2.93654e-06 -0 0 -2.18557e-06 -0 0 -1.44905e-06 -0 0 -7.22127e-07 -0 0 0 -0 0 -4.88427e-05 -3.27107e-06 0 -4.56323e-05 -3.14165e-06 0 -4.25567e-05 -3.0043e-06 0 -3.9622e-05 -2.86209e-06 0 -3.68317e-05 -2.71768e-06 0 -3.41866e-05 -2.57328e-06 0 -3.16857e-05 -2.43071e-06 0 -2.93262e-05 -2.29141e-06 0 -2.71042e-05 -2.1565e-06 0 -2.50149e-05 -2.02681e-06 0 -2.30525e-05 -1.90295e-06 0 -2.12111e-05 -1.78533e-06 0 -1.9484e-05 -1.67422e-06 0 -1.78648e-05 -1.56975e-06 0 -1.63468e-05 -1.47196e-06 0 -1.49231e-05 -1.38083e-06 0 -1.35873e-05 -1.29629e-06 0 -1.23327e-05 -1.2182e-06 0 -1.1153e-05 -1.14644e-06 0 -1.00419e-05 -1.08085e-06 0 -8.99328e-06 -1.02125e-06 0 -8.00131e-06 -9.67491e-07 0 -7.06019e-06 -9.19401e-07 0 -6.16434e-06 -8.76828e-07 0 -5.30832e-06 -8.39625e-07 0 -4.48684e-06 -8.07663e-07 0 -3.69471e-06 -7.80823e-07 0 -2.92687e-06 -7.59004e-07 0 -2.17835e-06 -7.42122e-07 0 -1.44425e-06 -7.30111e-07 0 -7.19733e-07 -7.22924e-07 0 -1.43841e-20 -7.20532e-07 0 -4.86549e-05 -6.55354e-06 0 -4.54302e-05 -6.29118e-06 0 -4.23452e-05 -6.0134e-06 0 -3.94055e-05 -5.72632e-06 0 -3.66138e-05 -5.43528e-06 0 -3.39704e-05 -5.14467e-06 0 -3.14735e-05 -4.8581e-06 0 -2.91199e-05 -4.57839e-06 0 -2.69054e-05 -4.30773e-06 0 -2.48244e-05 -4.04776e-06 0 -2.28712e-05 -3.79963e-06 0 -2.10394e-05 -3.56414e-06 0 -1.93223e-05 -3.34178e-06 0 -1.77131e-05 -3.13279e-06 0 -1.62051e-05 -2.93725e-06 0 -1.47914e-05 -2.75508e-06 0 -1.34654e-05 -2.5861e-06 0 -1.22204e-05 -2.43008e-06 0 -1.10501e-05 -2.28672e-06 0 -9.94808e-06 -2.1557e-06 0 -8.90837e-06 -2.03667e-06 0 -7.92502e-06 -1.92931e-06 0 -6.99228e-06 -1.83329e-06 0 -6.1046e-06 -1.74829e-06 0 -5.25653e-06 -1.67401e-06 0 -4.4428e-06 -1.61021e-06 0 -3.65827e-06 -1.55663e-06 0 -2.89789e-06 -1.51307e-06 0 -2.15671e-06 -1.47938e-06 0 -1.42987e-06 -1.4554e-06 0 -7.1256e-07 -1.44106e-06 0 0 -1.43628e-06 0 -4.83358e-05 -9.85845e-06 0 -4.50879e-05 -9.45607e-06 0 -4.1988e-05 -9.03163e-06 0 -3.90407e-05 -8.59438e-06 0 -3.62474e-05 -8.15229e-06 0 -3.36073e-05 -7.71191e-06 0 -3.11177e-05 -7.27851e-06 0 -2.87746e-05 -6.85623e-06 0 -2.65727e-05 -6.44821e-06 0 -2.45062e-05 -6.0568e-06 0 -2.25685e-05 -5.68363e-06 0 -2.0753e-05 -5.32979e-06 0 -1.90526e-05 -4.99593e-06 0 -1.74603e-05 -4.68237e-06 0 -1.59691e-05 -4.38915e-06 0 -1.45721e-05 -4.11611e-06 0 -1.32625e-05 -3.86296e-06 0 -1.20335e-05 -3.6293e-06 0 -1.08788e-05 -3.41466e-06 0 -9.79204e-06 -3.21854e-06 0 -8.76712e-06 -3.04043e-06 0 -7.79814e-06 -2.8798e-06 0 -6.87936e-06 -2.73616e-06 0 -6.00525e-06 -2.60902e-06 0 -5.17041e-06 -2.49794e-06 0 -4.3696e-06 -2.40253e-06 0 -3.5977e-06 -2.32241e-06 0 -2.84971e-06 -2.25729e-06 0 -2.12075e-06 -2.20691e-06 0 -1.40598e-06 -2.17107e-06 0 -7.00637e-07 -2.14963e-06 0 0 -2.14249e-06 0 -4.78758e-05 -1.31961e-05 0 -4.45969e-05 -1.26429e-05 0 -4.14778e-05 -1.20624e-05 0 -3.85214e-05 -1.14671e-05 0 -3.57274e-05 -1.08674e-05 0 -3.30935e-05 -1.0272e-05 0 -3.06154e-05 -9.68764e-06 0 -2.82878e-05 -9.11965e-06 0 -2.61046e-05 -8.57198e-06 0 -2.40589e-05 -8.04751e-06 0 -2.21436e-05 -7.54821e-06 0 -2.03514e-05 -7.07539e-06 0 -1.86748e-05 -6.62975e-06 0 -1.71064e-05 -6.21158e-06 0 -1.5639e-05 -5.82084e-06 0 -1.42655e-05 -5.45724e-06 0 -1.29789e-05 -5.12032e-06 0 -1.17724e-05 -4.80948e-06 0 -1.06397e-05 -4.52407e-06 0 -9.57419e-06 -4.26338e-06 0 -8.56997e-06 -4.0267e-06 0 -7.62107e-06 -3.81331e-06 0 -6.72181e-06 -3.62253e-06 0 -5.86666e-06 -3.4537e-06 0 -5.05029e-06 -3.30622e-06 0 -4.26749e-06 -3.17955e-06 0 -3.51322e-06 -3.07321e-06 0 -2.78254e-06 -2.98678e-06 0 -2.0706e-06 -2.91992e-06 0 -1.37266e-06 -2.87236e-06 0 -6.84012e-07 -2.8439e-06 0 0 -2.83442e-06 0 -4.72615e-05 -1.65755e-05 0 -4.39453e-05 -1.58569e-05 0 -4.08045e-05 -1.51077e-05 0 -3.78394e-05 -1.43437e-05 0 -3.50472e-05 -1.35779e-05 0 -3.24236e-05 -1.28207e-05 0 -2.99624e-05 -1.20802e-05 0 -2.76567e-05 -1.13626e-05 0 -2.5499e-05 -1.06724e-05 0 -2.34813e-05 -1.00129e-05 0 -2.15957e-05 -9.38624e-06 0 -1.98342e-05 -8.79373e-06 0 -1.81887e-05 -8.23604e-06 0 -1.66515e-05 -7.71332e-06 0 -1.5215e-05 -7.22537e-06 0 -1.38719e-05 -6.77168e-06 0 -1.26151e-05 -6.35157e-06 0 -1.14377e-05 -5.96423e-06 0 -1.03332e-05 -5.60876e-06 0 -9.29515e-06 -5.28423e-06 0 -8.31751e-06 -4.98969e-06 0 -7.3944e-06 -4.72422e-06 0 -6.52016e-06 -4.48695e-06 0 -5.68932e-06 -4.27703e-06 0 -4.89661e-06 -4.0937e-06 0 -4.13688e-06 -3.93626e-06 0 -3.40518e-06 -3.80411e-06 0 -2.69663e-06 -3.69671e-06 0 -2.00648e-06 -3.61364e-06 0 -1.33006e-06 -3.55455e-06 0 -6.62754e-07 -3.51919e-06 0 0 -3.50742e-06 0 -4.64749e-05 -2.00039e-05 0 -4.31178e-05 -1.9101e-05 0 -3.99552e-05 -1.81674e-05 0 -3.69839e-05 -1.72218e-05 0 -3.41983e-05 -1.62795e-05 0 -3.1591e-05 -1.53524e-05 0 -2.91537e-05 -1.44496e-05 0 -2.68775e-05 -1.35779e-05 0 -2.47532e-05 -1.2742e-05 0 -2.27716e-05 -1.19453e-05 0 -2.09238e-05 -1.119e-05 0 -1.92009e-05 -1.04772e-05 0 -1.75944e-05 -9.80729e-06 0 -1.6096e-05 -9.18026e-06 0 -1.46978e-05 -8.59559e-06 0 -1.33922e-05 -8.05251e-06 0 -1.2172e-05 -7.55005e-06 0 -1.10302e-05 -7.0871e-06 0 -9.96027e-06 -6.66251e-06 0 -8.95575e-06 -6.27507e-06 0 -8.01057e-06 -5.92361e-06 0 -7.1189e-06 -5.60696e-06 0 -6.27514e-06 -5.32402e-06 0 -5.4739e-06 -5.07378e-06 0 -4.70995e-06 -4.85529e-06 0 -3.97828e-06 -4.6677e-06 0 -3.27399e-06 -4.51027e-06 0 -2.59233e-06 -4.38234e-06 0 -1.92863e-06 -4.2834e-06 0 -1.27834e-06 -4.21302e-06 0 -6.36951e-07 -4.17092e-06 0 0 -4.1569e-06 0 -4.54934e-05 -2.34855e-05 0 -4.20952e-05 -2.23753e-05 0 -3.89141e-05 -2.12384e-05 0 -3.59426e-05 -2.00961e-05 0 -3.31709e-05 -1.89655e-05 0 -3.05884e-05 -1.78595e-05 0 -2.8184e-05 -1.67877e-05 0 -2.59464e-05 -1.5757e-05 0 -2.38647e-05 -1.47721e-05 0 -2.19283e-05 -1.38363e-05 0 -2.01271e-05 -1.29512e-05 0 -1.84514e-05 -1.21176e-05 0 -1.6892e-05 -1.13356e-05 0 -1.54402e-05 -1.06048e-05 0 -1.40879e-05 -9.92419e-06 0 -1.28271e-05 -9.2927e-06 0 -1.16505e-05 -8.70899e-06 0 -1.0551e-05 -8.17162e-06 0 -9.52196e-06 -7.67911e-06 0 -8.55703e-06 -7.22996e-06 0 -7.65015e-06 -6.82272e-06 0 -6.79553e-06 -6.45598e-06 0 -5.98765e-06 -6.12842e-06 0 -5.22119e-06 -5.83881e-06 0 -4.49106e-06 -5.58601e-06 0 -3.79232e-06 -5.36901e-06 0 -3.1202e-06 -5.18693e-06 0 -2.47007e-06 -5.03901e-06 0 -1.83739e-06 -4.92461e-06 0 -1.21773e-06 -4.84325e-06 0 -6.06712e-07 -4.79457e-06 0 0 -4.77837e-06 0 -4.42895e-05 -2.70203e-05 0 -4.08548e-05 -2.56759e-05 0 -3.76632e-05 -2.4314e-05 0 -3.47012e-05 -2.29581e-05 0 -3.19543e-05 -2.16263e-05 0 -2.94078e-05 -2.03318e-05 0 -2.70474e-05 -1.90842e-05 0 -2.48594e-05 -1.78899e-05 0 -2.28309e-05 -1.67531e-05 0 -2.09498e-05 -1.56763e-05 0 -1.92049e-05 -1.46606e-05 0 -1.75855e-05 -1.37063e-05 0 -1.6082e-05 -1.28128e-05 0 -1.46852e-05 -1.1979e-05 0 -1.33865e-05 -1.12037e-05 0 -1.21779e-05 -1.04851e-05 0 -1.10519e-05 -9.82159e-06 0 -1.00013e-05 -9.21128e-06 0 -9.0196e-06 -8.65234e-06 0 -8.10032e-06 -8.14295e-06 0 -7.2375e-06 -7.68134e-06 0 -6.42546e-06 -7.26585e-06 0 -5.65876e-06 -6.8949e-06 0 -4.93219e-06 -6.56703e-06 0 -4.24079e-06 -6.28094e-06 0 -3.57975e-06 -6.03543e-06 0 -2.94444e-06 -5.82946e-06 0 -2.33037e-06 -5.66216e-06 0 -1.73315e-06 -5.5328e-06 0 -1.14849e-06 -5.44081e-06 0 -5.72167e-07 -5.38578e-06 0 0 -5.36746e-06 0 -4.28309e-05 -3.06026e-05 0 -3.93711e-05 -2.89932e-05 0 -3.61825e-05 -2.73825e-05 0 -3.32446e-05 -2.57951e-05 0 -3.05372e-05 -2.42491e-05 0 -2.80411e-05 -2.27569e-05 0 -2.57385e-05 -2.13271e-05 0 -2.36131e-05 -1.99651e-05 0 -2.16499e-05 -1.86739e-05 0 -1.98354e-05 -1.74551e-05 0 -1.81572e-05 -1.63087e-05 0 -1.6604e-05 -1.52341e-05 0 -1.51655e-05 -1.42301e-05 0 -1.38322e-05 -1.32948e-05 0 -1.25951e-05 -1.24263e-05 0 -1.14462e-05 -1.16225e-05 0 -1.03779e-05 -1.0881e-05 0 -9.38297e-06 -1.01996e-05 0 -8.45482e-06 -9.57604e-06 0 -7.58718e-06 -9.00816e-06 0 -6.77414e-06 -8.49387e-06 0 -6.0101e-06 -8.03119e-06 0 -5.28976e-06 -7.6183e-06 0 -4.60807e-06 -7.25352e-06 0 -3.96019e-06 -6.93531e-06 0 -3.34148e-06 -6.66232e-06 0 -2.74747e-06 -6.43336e-06 0 -2.17384e-06 -6.24741e-06 0 -1.61636e-06 -6.10365e-06 0 -1.07092e-06 -6.00144e-06 0 -5.3347e-07 -5.94029e-06 0 0 -5.91994e-06 0 -4.10811e-05 -3.42185e-05 0 -3.76158e-05 -3.23106e-05 0 -3.44511e-05 -3.04266e-05 0 -3.15578e-05 -2.859e-05 0 -2.89092e-05 -2.68174e-05 0 -2.64813e-05 -2.51192e-05 0 -2.42528e-05 -2.35019e-05 0 -2.22047e-05 -2.19691e-05 0 -2.03204e-05 -2.05222e-05 0 -1.85847e-05 -1.91612e-05 0 -1.69846e-05 -1.78848e-05 0 -1.55079e-05 -1.66913e-05 0 -1.4144e-05 -1.55785e-05 0 -1.28829e-05 -1.45438e-05 0 -1.17157e-05 -1.35843e-05 0 -1.06341e-05 -1.26974e-05 0 -9.63053e-06 -1.18803e-05 0 -8.69789e-06 -1.113e-05 0 -7.8296e-06 -1.04441e-05 0 -7.0195e-06 -9.81981e-06 0 -6.26181e-06 -9.2548e-06 0 -5.55107e-06 -8.74677e-06 0 -4.88215e-06 -8.29364e-06 0 -4.25016e-06 -7.89345e-06 0 -3.65044e-06 -7.54449e-06 0 -3.07853e-06 -7.24521e-06 0 -2.53015e-06 -6.99426e-06 0 -2.00116e-06 -6.7905e-06 0 -1.48754e-06 -6.633e-06 0 -9.85373e-07 -6.52102e-06 0 -4.90794e-07 -6.45404e-06 0 0 -6.43175e-06 0 -3.9e-05 -3.78432e-05 0 -3.55604e-05 -3.56029e-05 0 -3.24487e-05 -3.34218e-05 0 -2.96267e-05 -3.13201e-05 0 -2.70608e-05 -2.93105e-05 0 -2.47225e-05 -2.73999e-05 0 -2.25869e-05 -2.55919e-05 0 -2.0633e-05 -2.3887e-05 0 -1.88423e-05 -2.22846e-05 0 -1.71989e-05 -2.07824e-05 0 -1.56887e-05 -1.93779e-05 0 -1.42994e-05 -1.80679e-05 0 -1.30197e-05 -1.68489e-05 0 -1.18399e-05 -1.57174e-05 0 -1.07507e-05 -1.46698e-05 0 -9.74405e-06 -1.37027e-05 0 -8.81231e-06 -1.28126e-05 0 -7.94854e-06 -1.19963e-05 0 -7.14626e-06 -1.12505e-05 0 -6.39947e-06 -1.05722e-05 0 -5.70257e-06 -9.95877e-06 0 -5.05028e-06 -9.4075e-06 0 -4.43766e-06 -8.91604e-06 0 -3.86002e-06 -8.4822e-06 0 -3.3129e-06 -8.10403e-06 0 -2.79207e-06 -7.7798e-06 0 -2.29345e-06 -7.50801e-06 0 -1.81313e-06 -7.28737e-06 0 -1.34729e-06 -7.11685e-06 0 -8.92239e-07 -6.99564e-06 0 -4.44338e-07 -6.92314e-06 0 0 -6.89901e-06 0 -3.65487e-05 -4.14386e-05 0 -3.31778e-05 -3.88346e-05 0 -3.01576e-05 -3.63364e-05 0 -2.74401e-05 -3.39573e-05 0 -2.49857e-05 -3.17039e-05 0 -2.27614e-05 -2.95779e-05 0 -2.074e-05 -2.75783e-05 0 -1.88985e-05 -2.57024e-05 0 -1.72174e-05 -2.39464e-05 0 -1.56801e-05 -2.2306e-05 0 -1.42723e-05 -2.07766e-05 0 -1.29812e-05 -1.93534e-05 0 -1.17959e-05 -1.80317e-05 0 -1.07062e-05 -1.6807e-05 0 -9.70337e-06 -1.56749e-05 0 -8.77917e-06 -1.4631e-05 0 -7.92623e-06 -1.36713e-05 0 -7.13776e-06 -1.2792e-05 0 -6.40749e-06 -1.19893e-05 0 -5.72962e-06 -1.12599e-05 0 -5.09876e-06 -1.06006e-05 0 -4.50987e-06 -1.00085e-05 0 -3.95823e-06 -9.48086e-06 0 -3.43938e-06 -9.01532e-06 0 -2.94912e-06 -8.60967e-06 0 -2.48343e-06 -8.262e-06 0 -2.03849e-06 -7.97063e-06 0 -1.61062e-06 -7.73417e-06 0 -1.19627e-06 -7.55145e-06 0 -7.91964e-07 -7.42157e-06 0 -3.94322e-07 -7.3439e-06 0 0 -7.31806e-06 0 -3.36905e-05 -4.49505e-05 0 -3.04463e-05 -4.19589e-05 0 -2.75652e-05 -3.91306e-05 0 -2.49917e-05 -3.64682e-05 0 -2.26813e-05 -3.39693e-05 0 -2.05983e-05 -3.16291e-05 0 -1.87137e-05 -2.94409e-05 0 -1.70039e-05 -2.73978e-05 0 -1.5449e-05 -2.54927e-05 0 -1.40322e-05 -2.37186e-05 0 -1.27392e-05 -2.2069e-05 0 -1.15576e-05 -2.05373e-05 0 -1.04764e-05 -1.91176e-05 0 -9.48596e-06 -1.78042e-05 0 -8.57748e-06 -1.65917e-05 0 -7.74314e-06 -1.54751e-05 0 -6.97577e-06 -1.44497e-05 0 -6.26886e-06 -1.3511e-05 0 -5.61638e-06 -1.26549e-05 0 -5.01282e-06 -1.18775e-05 0 -4.45304e-06 -1.11753e-05 0 -3.93226e-06 -1.0545e-05 0 -3.44604e-06 -9.98365e-06 0 -2.9902e-06 -9.48858e-06 0 -2.56078e-06 -9.05738e-06 0 -2.15406e-06 -8.68793e-06 0 -1.76647e-06 -8.37841e-06 0 -1.39462e-06 -8.12726e-06 0 -1.0352e-06 -7.93323e-06 0 -6.85035e-07 -7.79534e-06 0 -3.40992e-07 -7.71289e-06 0 0 -7.68545e-06 0 -3.04029e-05 -4.83085e-05 0 -2.7354e-05 -4.49187e-05 0 -2.46672e-05 -4.17581e-05 0 -2.22816e-05 -3.8815e-05 0 -2.01505e-05 -3.60761e-05 0 -1.82375e-05 -3.35281e-05 0 -1.65134e-05 -3.11583e-05 0 -1.4955e-05 -2.89551e-05 0 -1.35428e-05 -2.69079e-05 0 -1.22608e-05 -2.50069e-05 0 -1.10951e-05 -2.32434e-05 0 -1.00338e-05 -2.16093e-05 0 -9.06647e-06 -2.00973e-05 0 -8.18384e-06 -1.87005e-05 0 -7.37759e-06 -1.74127e-05 0 -6.64023e-06 -1.62282e-05 0 -5.96496e-06 -1.51414e-05 0 -5.34559e-06 -1.41475e-05 0 -4.77644e-06 -1.32418e-05 0 -4.2523e-06 -1.24199e-05 0 -3.76836e-06 -1.16781e-05 0 -3.32015e-06 -1.10126e-05 0 -2.90353e-06 -1.04202e-05 0 -2.51462e-06 -9.89803e-06 0 -2.14978e-06 -9.44338e-06 0 -1.80558e-06 -9.05399e-06 0 -1.47875e-06 -8.72785e-06 0 -1.16619e-06 -8.46328e-06 0 -8.64904e-07 -8.25893e-06 0 -5.71987e-07 -8.11372e-06 0 -2.84614e-07 -8.0269e-06 0 0 -7.99801e-06 0 -2.66768e-05 -5.14285e-05 0 -2.39028e-05 -4.76486e-05 0 -2.14702e-05 -4.41679e-05 0 -1.93187e-05 -4.09576e-05 0 -1.74031e-05 -3.79921e-05 0 -1.56886e-05 -3.5249e-05 0 -1.41483e-05 -3.27094e-05 0 -1.27603e-05 -3.03568e-05 0 -1.15069e-05 -2.8177e-05 0 -1.03733e-05 -2.61579e-05 0 -9.34673e-06 -2.42885e-05 0 -8.4162e-06 -2.25594e-05 0 -7.57199e-06 -2.09617e-05 0 -6.80549e-06 -1.94878e-05 0 -6.10893e-06 -1.81306e-05 0 -5.47533e-06 -1.68835e-05 0 -4.89833e-06 -1.57404e-05 0 -4.37217e-06 -1.46959e-05 0 -3.89155e-06 -1.37448e-05 0 -3.45164e-06 -1.28825e-05 0 -3.04799e-06 -1.21046e-05 0 -2.67649e-06 -1.14071e-05 0 -2.33334e-06 -1.07867e-05 0 -2.015e-06 -1.024e-05 0 -1.71817e-06 -9.76419e-06 0 -1.43974e-06 -9.35684e-06 0 -1.17679e-06 -9.01576e-06 0 -9.26511e-07 -8.73915e-06 0 -6.86245e-07 -8.52553e-06 0 -4.53405e-07 -8.37377e-06 0 -2.2548e-07 -8.28303e-06 0 1.37294e-20 -8.25284e-06 0 -2.25331e-05 -5.42163e-05 0 -2.01138e-05 -5.00794e-05 0 -1.79945e-05 -4.63079e-05 0 -1.61217e-05 -4.28561e-05 0 -1.44556e-05 -3.9686e-05 0 -1.29666e-05 -3.67669e-05 0 -1.16314e-05 -3.40737e-05 0 -1.04315e-05 -3.15858e-05 0 -9.35165e-06 -2.92858e-05 0 -8.37906e-06 -2.71593e-05 0 -7.50259e-06 -2.51937e-05 0 -6.71246e-06 -2.3378e-05 0 -5.99996e-06 -2.17025e-05 0 -5.3573e-06 -2.01587e-05 0 -4.77742e-06 -1.87385e-05 0 -4.25391e-06 -1.74348e-05 0 -3.78096e-06 -1.62409e-05 0 -3.35327e-06 -1.51509e-05 0 -2.96602e-06 -1.41592e-05 0 -2.61479e-06 -1.32606e-05 0 -2.29553e-06 -1.24506e-05 0 -2.00453e-06 -1.17248e-05 0 -1.73838e-06 -1.10794e-05 0 -1.49391e-06 -1.05111e-05 0 -1.26819e-06 -1.00166e-05 0 -1.05846e-06 -9.59346e-06 0 -8.62158e-07 -9.23926e-06 0 -6.76837e-07 -8.95208e-06 0 -5.0017e-07 -8.73034e-06 0 -3.29917e-07 -8.57283e-06 0 -1.63904e-07 -8.47867e-06 0 9.00017e-20 -8.44734e-06 0 -1.80204e-05 -5.65834e-05 0 -1.60281e-05 -5.21458e-05 0 -1.42748e-05 -4.81298e-05 0 -1.27194e-05 -4.4474e-05 0 -1.13323e-05 -4.11299e-05 0 -1.00915e-05 -3.80597e-05 0 -8.9797e-06 -3.52335e-05 0 -7.98294e-06 -3.26273e-05 0 -7.08945e-06 -3.02216e-05 0 -6.28894e-06 -2.80001e-05 0 -5.57228e-06 -2.5949e-05 0 -4.93122e-06 -2.40565e-05 0 -4.35823e-06 -2.23119e-05 0 -3.84646e-06 -2.07059e-05 0 -3.38963e-06 -1.92299e-05 0 -2.98202e-06 -1.78762e-05 0 -2.6184e-06 -1.66377e-05 0 -2.29402e-06 -1.55078e-05 0 -2.00454e-06 -1.44805e-05 0 -1.74601e-06 -1.35504e-05 0 -1.51485e-06 -1.27124e-05 0 -1.30777e-06 -1.19621e-05 0 -1.12178e-06 -1.12953e-05 0 -9.54109e-07 -1.07083e-05 0 -8.02228e-07 -1.01979e-05 0 -6.6378e-07 -9.76119e-06 0 -5.36567e-07 -9.39579e-06 0 -4.18524e-07 -9.09962e-06 0 -3.07692e-07 -8.87098e-06 0 -2.02195e-07 -8.7086e-06 0 -1.00222e-07 -8.61154e-06 0 1.24329e-20 -8.57925e-06 0 -1.3214e-05 -5.84508e-05 0 -1.17065e-05 -5.37928e-05 0 -1.03591e-05 -4.95939e-05 0 -9.15003e-06 -4.57819e-05 0 -8.0636e-06 -4.23012e-05 0 -7.08792e-06 -3.91094e-05 0 -6.21333e-06 -3.61739e-05 0 -5.43141e-06 -3.34688e-05 0 -4.73443e-06 -3.09734e-05 0 -4.11511e-06 -2.86707e-05 0 -3.56651e-06 -2.65461e-05 0 -3.08201e-06 -2.45872e-05 0 -2.65538e-06 -2.27829e-05 0 -2.28076e-06 -2.11233e-05 0 -1.95271e-06 -1.95993e-05 0 -1.66622e-06 -1.82027e-05 0 -1.41668e-06 -1.69259e-05 0 -1.19993e-06 -1.5762e-05 0 -1.01216e-06 -1.47047e-05 0 -8.4993e-07 -1.3748e-05 0 -7.10141e-07 -1.28867e-05 0 -5.89974e-07 -1.2116e-05 0 -4.86883e-07 -1.14313e-05 0 -3.98551e-07 -1.0829e-05 0 -3.22864e-07 -1.03054e-05 0 -2.57886e-07 -9.85771e-06 0 -2.01825e-07 -9.48317e-06 0 -1.53014e-07 -9.17968e-06 0 -1.09888e-07 -8.94544e-06 0 -7.09572e-08 -8.77911e-06 0 -3.47919e-08 -8.67969e-06 0 0 -8.64662e-06 0 -8.21896e-06 -5.97655e-05 0 -7.22616e-06 -5.49836e-05 0 -6.30606e-06 -5.06741e-05 0 -5.45863e-06 -4.67606e-05 0 -4.68446e-06 -4.3185e-05 0 -3.98343e-06 -3.9904e-05 0 -3.3544e-06 -3.68846e-05 0 -2.795e-06 -3.41012e-05 0 -2.30182e-06 -3.15331e-05 0 -1.87062e-06 -2.91635e-05 0 -1.49668e-06 -2.69778e-05 0 -1.17501e-06 -2.49636e-05 0 -9.00594e-07 -2.31094e-05 0 -6.68567e-07 -2.14051e-05 0 -4.74308e-07 -1.98413e-05 0 -3.13517e-07 -1.84093e-05 0 -1.82248e-07 -1.71013e-05 0 -7.69143e-08 -1.59099e-05 0 5.7155e-09 -1.48283e-05 0 6.85403e-08 -1.38504e-05 0 1.14151e-07 -1.29706e-05 0 1.44862e-07 -1.21837e-05 0 1.62738e-07 -1.14852e-05 0 1.69625e-07 -1.08709e-05 0 1.67182e-07 -1.03373e-05 0 1.56905e-07 -9.88108e-06 0 1.40151e-07 -9.49959e-06 0 1.18166e-07 -9.19054e-06 0 9.21019e-08 -8.95207e-06 0 6.30399e-08 -8.78275e-06 0 3.20081e-08 -8.68157e-06 0 0 -8.64791e-06 0 -3.14945e-06 -6.05077e-05 0 -2.67364e-06 -5.5705e-05 0 -2.18035e-06 -5.13617e-05 0 -1.69389e-06 -4.74036e-05 0 -1.23196e-06 -4.37759e-05 0 -8.06752e-07 -4.04382e-05 0 -4.25663e-07 -3.73603e-05 0 -9.22497e-08 -3.45187e-05 0 1.92873e-07 -3.18947e-05 0 4.31158e-07 -2.94725e-05 0 6.25416e-07 -2.72384e-05 0 7.7923e-07 -2.518e-05 0 8.96539e-07 -2.32862e-05 0 9.81342e-07 -2.15466e-05 0 1.0375e-06 -1.99516e-05 0 1.06864e-06 -1.84922e-05 0 1.07806e-06 -1.71602e-05 0 1.06875e-06 -1.5948e-05 0 1.04334e-06 -1.48483e-05 0 1.00418e-06 -1.38548e-05 0 9.53303e-07 -1.29616e-05 0 8.92498e-07 -1.21632e-05 0 8.23315e-07 -1.14549e-05 0 7.47104e-07 -1.08324e-05 0 6.65041e-07 -1.02918e-05 0 5.78153e-07 -9.82981e-06 0 4.87344e-07 -9.44363e-06 0 3.93413e-07 -9.13088e-06 0 2.97081e-07 -8.88961e-06 0 1.99001e-07 -8.71834e-06 0 9.97817e-08 -8.616e-06 0 0 -8.58195e-06 0 1.87207e-06 -6.06918e-05 0 1.86283e-06 -5.5971e-05 0 1.9532e-06 -5.16674e-05 0 2.09637e-06 -4.77187e-05 0 2.25805e-06 -4.40784e-05 0 2.41471e-06 -4.07137e-05 0 2.55124e-06 -3.76003e-05 0 2.65915e-06 -3.47192e-05 0 2.73462e-06 -3.20549e-05 0 2.7771e-06 -2.95938e-05 0 2.78801e-06 -2.73233e-05 0 2.76998e-06 -2.5232e-05 0 2.72616e-06 -2.33089e-05 0 2.65985e-06 -2.15436e-05 0 2.57429e-06 -1.99263e-05 0 2.47246e-06 -1.84478e-05 0 2.35706e-06 -1.70995e-05 0 2.23045e-06 -1.58735e-05 0 2.09468e-06 -1.47623e-05 0 1.95149e-06 -1.37591e-05 0 1.80235e-06 -1.28578e-05 0 1.64848e-06 -1.20528e-05 0 1.49089e-06 -1.1339e-05 0 1.33041e-06 -1.07119e-05 0 1.1677e-06 -1.01677e-05 0 1.00331e-06 -9.70281e-06 0 8.37643e-07 -9.31434e-06 0 6.71053e-07 -8.99981e-06 0 5.038e-07 -8.75723e-06 0 3.36097e-07 -8.58506e-06 0 1.68115e-07 -8.48219e-06 0 0 -8.44797e-06 0 6.73508e-06 -6.03748e-05 0 6.30199e-06 -5.58215e-05 0 6.0362e-06 -5.16218e-05 0 5.86984e-06 -4.77272e-05 0 5.75457e-06 -4.41066e-05 0 5.65736e-06 -4.07388e-05 0 5.55757e-06 -3.76085e-05 0 5.4435e-06 -3.47033e-05 0 5.30972e-06 -3.20122e-05 0 5.15478e-06 -2.95244e-05 0 4.97965e-06 -2.72293e-05 0 4.78655e-06 -2.51159e-05 0 4.57823e-06 -2.31738e-05 0 4.35758e-06 -2.13926e-05 0 4.12729e-06 -1.97623e-05 0 3.8898e-06 -1.82733e-05 0 3.64721e-06 -1.69167e-05 0 3.40126e-06 -1.56843e-05 0 3.15338e-06 -1.45683e-05 0 2.9047e-06 -1.35616e-05 0 2.65608e-06 -1.26578e-05 0 2.40815e-06 -1.18512e-05 0 2.16134e-06 -1.11364e-05 0 1.91592e-06 -1.05088e-05 0 1.67204e-06 -9.96434e-06 0 1.42971e-06 -9.49949e-06 0 1.18886e-06 -9.11118e-06 0 9.49345e-07 -8.79688e-06 0 7.10963e-07 -8.55453e-06 0 4.73467e-07 -8.38254e-06 0 2.36579e-07 -8.2798e-06 0 2.95078e-20 -8.24563e-06 0 1.13444e-05 -5.96348e-05 0 1.0578e-05 -5.53242e-05 0 1.00228e-05 -5.1273e-05 0 9.59497e-06 -4.74634e-05 0 9.23499e-06 -4.3883e-05 0 8.90412e-06 -4.05269e-05 0 8.57919e-06 -3.73916e-05 0 8.24824e-06 -3.44733e-05 0 7.90635e-06 -3.17661e-05 0 7.55287e-06 -2.92625e-05 0 7.18935e-06 -2.69533e-05 0 6.81834e-06 -2.48287e-05 0 6.44263e-06 -2.2878e-05 0 6.06489e-06 -2.10909e-05 0 5.68743e-06 -1.9457e-05 0 5.31219e-06 -1.79664e-05 0 4.94065e-06 -1.66099e-05 0 4.57395e-06 -1.53788e-05 0 4.21285e-06 -1.42651e-05 0 3.85783e-06 -1.32613e-05 0 3.50909e-06 -1.23609e-05 0 3.16666e-06 -1.15578e-05 0 2.83036e-06 -1.08466e-05 0 2.49989e-06 -1.02226e-05 0 2.17481e-06 -9.68149e-06 0 1.85462e-06 -9.2197e-06 0 1.53873e-06 -8.83409e-06 0 1.2265e-06 -8.52206e-06 0 9.17235e-07 -8.28153e-06 0 6.10227e-07 -8.11086e-06 0 3.04733e-07 -8.00892e-06 0 7.83652e-20 -7.97502e-06 0 1.56356e-05 -5.86083e-05 0 1.46472e-05 -5.45636e-05 0 1.38863e-05 -5.06858e-05 0 1.32556e-05 -4.6971e-05 0 1.2689e-05 -4.34354e-05 0 1.21467e-05 -4.00938e-05 0 1.1608e-05 -3.69576e-05 0 1.10646e-05 -3.40319e-05 0 1.05149e-05 -3.13163e-05 0 9.96114e-06 -2.88059e-05 0 9.40658e-06 -2.64929e-05 0 8.8548e-06 -2.43674e-05 0 8.30901e-06 -2.24187e-05 0 7.77184e-06 -2.0636e-05 0 7.2453e-06 -1.90084e-05 0 6.7308e-06 -1.75256e-05 0 6.22922e-06 -1.61779e-05 0 5.74099e-06 -1.49561e-05 0 5.26621e-06 -1.38519e-05 0 4.80462e-06 -1.28578e-05 0 4.35578e-06 -1.19667e-05 0 3.91902e-06 -1.11726e-05 0 3.49355e-06 -1.04698e-05 0 3.07843e-06 -9.85354e-06 0 2.67268e-06 -9.31944e-06 0 2.27522e-06 -8.86381e-06 0 1.88494e-06 -8.48349e-06 0 1.50067e-06 -8.17584e-06 0 1.12125e-06 -7.93874e-06 0 7.45469e-07 -7.77053e-06 0 3.72125e-07 -7.67008e-06 0 2.76673e-21 -7.63667e-06 0 1.95754e-05 -5.73884e-05 0 1.84945e-05 -5.36514e-05 0 1.76248e-05 -4.99346e-05 0 1.68565e-05 -4.63002e-05 0 1.61219e-05 -4.27929e-05 0 1.53877e-05 -3.94545e-05 0 1.46428e-05 -3.6312e-05 0 1.38876e-05 -3.33796e-05 0 1.31279e-05 -3.06607e-05 0 1.23702e-05 -2.81517e-05 0 1.1621e-05 -2.58447e-05 0 1.08852e-05 -2.37291e-05 0 1.01667e-05 -2.17935e-05 0 9.46808e-06 -2.0026e-05 0 8.79105e-06 -1.84152e-05 0 8.13642e-06 -1.69499e-05 0 7.50436e-06 -1.562e-05 0 6.89456e-06 -1.44159e-05 0 6.30632e-06 -1.33289e-05 0 5.73865e-06 -1.23512e-05 0 5.19036e-06 -1.14758e-05 0 4.66008e-06 -1.06961e-05 0 4.14635e-06 -1.00067e-05 0 3.64761e-06 -9.40241e-06 0 3.16226e-06 -8.87901e-06 0 2.68865e-06 -8.4327e-06 0 2.22512e-06 -8.06031e-06 0 1.77001e-06 -7.75916e-06 0 1.32162e-06 -7.52712e-06 0 8.78276e-07 -7.36254e-06 0 4.38297e-07 -7.26426e-06 0 0 -7.23157e-06 0 2.31591e-05 -5.62154e-05 0 2.21375e-05 -5.26977e-05 0 2.12693e-05 -4.91067e-05 0 2.04295e-05 -4.54995e-05 0 1.95581e-05 -4.19795e-05 0 1.86414e-05 -3.86168e-05 0 1.76884e-05 -3.54547e-05 0 1.67155e-05 -3.25126e-05 0 1.57385e-05 -2.97944e-05 0 1.47707e-05 -2.72952e-05 0 1.38217e-05 -2.50049e-05 0 1.28981e-05 -2.2911e-05 0 1.20042e-05 -2.10002e-05 0 1.11426e-05 -1.92596e-05 0 1.03143e-05 -1.76764e-05 0 9.51938e-06 -1.6239e-05 0 8.75718e-06 -1.49364e-05 0 8.02651e-06 -1.37586e-05 0 7.32582e-06 -1.26967e-05 0 6.65328e-06 -1.17427e-05 0 6.00691e-06 -1.08891e-05 0 5.38459e-06 -1.01296e-05 0 4.78416e-06 -9.4584e-06 0 4.2034e-06 -8.87052e-06 0 3.64008e-06 -8.36157e-06 0 3.09199e-06 -7.92778e-06 0 2.5569e-06 -7.56596e-06 0 2.03261e-06 -7.27345e-06 0 1.51694e-06 -7.04812e-06 0 1.00772e-06 -6.88833e-06 0 5.02788e-07 -6.79291e-06 0 0 -6.76119e-06 0 2.6407e-05 -5.51117e-05 0 2.56368e-05 -5.1873e-05 0 2.48975e-05 -4.82848e-05 0 2.40415e-05 -4.46094e-05 0 2.30432e-05 -4.10031e-05 0 2.19321e-05 -3.75748e-05 0 2.07539e-05 -3.43749e-05 0 1.95467e-05 -3.142e-05 0 1.83396e-05 -2.87085e-05 0 1.71519e-05 -2.62295e-05 0 1.59965e-05 -2.39685e-05 0 1.48809e-05 -2.19096e-05 0 1.38094e-05 -2.0037e-05 0 1.27837e-05 -1.83358e-05 0 1.18041e-05 -1.67922e-05 0 1.08695e-05 -1.53934e-05 0 9.97841e-06 -1.4128e-05 0 9.12845e-06 -1.29856e-05 0 8.31713e-06 -1.19569e-05 0 7.54173e-06 -1.10337e-05 0 6.79939e-06 -1.02085e-05 0 6.08721e-06 -9.47483e-06 0 5.40229e-06 -8.82694e-06 0 4.74174e-06 -8.25981e-06 0 4.10269e-06 -7.76907e-06 0 3.48233e-06 -7.35099e-06 0 2.87787e-06 -7.00239e-06 0 2.2866e-06 -6.72065e-06 0 1.70582e-06 -6.50366e-06 0 1.13287e-06 -6.34982e-06 0 5.65137e-07 -6.25796e-06 0 0 -6.22742e-06 0 2.93764e-05 -5.464e-05 0 2.91309e-05 -5.13198e-05 0 2.86602e-05 -4.75631e-05 0 2.78071e-05 -4.36339e-05 0 2.6641e-05 -3.98405e-05 0 2.52895e-05 -3.62989e-05 0 2.38461e-05 -3.30471e-05 0 2.23766e-05 -3.00828e-05 0 2.09199e-05 -2.73894e-05 0 1.95002e-05 -2.49458e-05 0 1.81309e-05 -2.27301e-05 0 1.68193e-05 -2.0722e-05 0 1.55683e-05 -1.89025e-05 0 1.43785e-05 -1.72546e-05 0 1.32486e-05 -1.57632e-05 0 1.21762e-05 -1.44147e-05 0 1.11584e-05 -1.31968e-05 0 1.01917e-05 -1.20991e-05 0 9.27253e-06 -1.11119e-05 0 8.39711e-06 -1.02268e-05 0 7.5617e-06 -9.43651e-06 0 6.76258e-06 -8.73442e-06 0 5.99607e-06 -8.11484e-06 0 5.25859e-06 -7.57281e-06 0 4.54662e-06 -7.10402e-06 0 3.85676e-06 -6.70479e-06 0 3.18568e-06 -6.37203e-06 0 2.53011e-06 -6.10317e-06 0 1.88687e-06 -5.89615e-06 0 1.25282e-06 -5.74939e-06 0 6.24888e-07 -5.66177e-06 0 0 -5.63264e-06 0 3.20301e-05 -5.46914e-05 0 3.29149e-05 -5.14084e-05 0 3.28541e-05 -4.69455e-05 0 3.18809e-05 -4.25049e-05 0 3.04237e-05 -3.84105e-05 0 2.87304e-05 -3.4728e-05 0 2.6962e-05 -3.14298e-05 0 2.51905e-05 -2.8474e-05 0 2.34621e-05 -2.58206e-05 0 2.17969e-05 -2.34341e-05 0 2.02071e-05 -2.12845e-05 0 1.86965e-05 -1.9346e-05 0 1.72659e-05 -1.75966e-05 0 1.59133e-05 -1.60173e-05 0 1.46355e-05 -1.45917e-05 0 1.34283e-05 -1.33054e-05 0 1.22873e-05 -1.21458e-05 0 1.12075e-05 -1.11022e-05 0 1.01842e-05 -1.01648e-05 0 9.21248e-06 -9.32537e-06 0 8.28774e-06 -8.57644e-06 0 7.40535e-06 -7.91162e-06 0 6.56084e-06 -7.32531e-06 0 5.74993e-06 -6.81266e-06 0 4.96847e-06 -6.36949e-06 0 4.21244e-06 -5.99223e-06 0 3.47797e-06 -5.67787e-06 0 2.76129e-06 -5.42394e-06 0 2.05872e-06 -5.22845e-06 0 1.36667e-06 -5.08988e-06 0 6.81596e-07 -5.00717e-06 0 0 -4.97967e-06 0 3.46528e-05 -5.75645e-05 0 3.79794e-05 -5.23786e-05 0 3.79189e-05 -4.6227e-05 0 3.64486e-05 -4.09791e-05 0 3.43996e-05 -3.65606e-05 0 3.22479e-05 -3.27711e-05 0 3.00688e-05 -2.94701e-05 0 2.79616e-05 -2.65639e-05 0 2.59373e-05 -2.39856e-05 0 2.40181e-05 -2.16864e-05 0 2.2203e-05 -1.96284e-05 0 2.04936e-05 -1.77815e-05 0 1.88852e-05 -1.61211e-05 0 1.73733e-05 -1.46268e-05 0 1.59517e-05 -1.32812e-05 0 1.46143e-05 -1.20695e-05 0 1.33548e-05 -1.09792e-05 0 1.21668e-05 -9.99921e-06 0 1.10441e-05 -9.12007e-06 0 9.98094e-06 -8.33352e-06 0 8.97147e-06 -7.63239e-06 0 8.01024e-06 -7.01043e-06 0 7.09203e-06 -6.46224e-06 0 6.21184e-06 -5.98315e-06 0 5.36489e-06 -5.56916e-06 0 4.54658e-06 -5.21685e-06 0 3.7525e-06 -4.92336e-06 0 2.97838e-06 -4.68634e-06 0 2.22007e-06 -4.5039e-06 0 1.47355e-06 -4.3746e-06 0 7.34827e-07 -4.29742e-06 0 0 -4.27176e-06 0 3.3468e-05 -7.85563e-05 0 4.6648e-05 -5.24004e-05 0 4.4572e-05 -4.45279e-05 0 4.12359e-05 -3.86004e-05 0 3.8607e-05 -3.41019e-05 0 3.57024e-05 -3.03305e-05 0 3.31418e-05 -2.71203e-05 0 3.06263e-05 -2.43292e-05 0 2.83178e-05 -2.18728e-05 0 2.61291e-05 -1.96992e-05 0 2.40958e-05 -1.77617e-05 0 2.21884e-05 -1.60313e-05 0 2.04087e-05 -1.448e-05 0 1.87427e-05 -1.30879e-05 0 1.71839e-05 -1.18369e-05 0 1.57225e-05 -1.07127e-05 0 1.43509e-05 -9.70244e-06 0 1.30608e-05 -8.7956e-06 0 1.18448e-05 -7.9829e-06 0 1.06958e-05 -7.25643e-06 0 9.60704e-06 -6.6093e-06 0 8.57221e-06 -6.03559e-06 0 7.58529e-06 -5.53017e-06 0 6.6406e-06 -5.08864e-06 0 5.73273e-06 -4.70723e-06 0 4.85654e-06 -4.38273e-06 0 4.0071e-06 -4.11247e-06 0 3.17968e-06 -3.89424e-06 0 2.36967e-06 -3.72628e-06 0 1.57263e-06 -3.60726e-06 0 7.84175e-07 -3.53622e-06 0 0 -3.5126e-06 0 </DataArray> 
</PointData> 
<Points> 
<DataArray type="Float32" NumberOfComponents="3"> 