<?xml version="1.0"?> 
<VTKFile type="StructuredGrid" version="0.1"> 
<StructuredGrid WholeExtent="0 31 0 31 0 0"> 
<Piece Extent="0 31 0 31 0 0"> 
<PointData>
<DataArray type="Float32" Name="B" format="ascii" NumberOfComponents="3"> 
3.73405e-05 8.16744e-05 0 5.01809e-05 5.49113e-05 0 4.7847e-05 4.70629e-05 0 4.44903e-05 4.13892e-05 0 4.15865e-05 3.71769e-05 0 3.85846e-05 3.37145e-05 0 3.58484e-05 3.08165e-05 0 3.32103e-05 2.83334e-05 0 3.07591e-05 2.61771e-05 0 2.84443e-05 2.42921e-05 0 2.62812e-05 2.2631e-05 0 2.42501e-05 2.11631e-05 0 2.23477e-05 1.98604e-05 0 2.05622e-05 1.87024e-05 0 1.88859e-05 1.76711e-05 0 1.73096e-05 1.67521e-05 0 1.58253e-05 1.59329e-05 0 1.44248e-05 1.5203e-05 0 1.31006e-05 1.45535e-05 0 1.18456e-05 1.39767e-05 0 1.06528e-05 1.34659e-05 0 9.51604e-06 1.30157e-05 0 8.429e-06 1.2621e-05 0 7.38592e-06 1.22778e-05 0 6.38125e-06 1.19825e-05 0 5.40968e-06 1.17322e-05 0 4.4661e-06 1.15243e-05 0 3.54559e-06 1.13569e-05 0 2.64335e-06 1.12283e-05 0 1.75472e-06 1.11373e-05 0 8.75109e-07 1.10831e-05 0 0 1.10651e-05 0 3.69985e-05 5.80106e-05 0 3.88311e-05 5.41647e-05 0 3.89177e-05 4.93506e-05 0 3.76946e-05 4.48011e-05 0 3.58495e-05 4.08408e-05 0 3.38084e-05 3.74042e-05 0 3.16973e-05 3.44074e-05 0 2.96153e-05 3.17758e-05 0 2.75922e-05 2.94517e-05 0 2.56529e-05 2.73906e-05 0 2.38036e-05 2.55563e-05 0 2.20479e-05 2.39201e-05 0 2.03844e-05 2.24578e-05 0 1.88103e-05 2.11494e-05 0 1.73209e-05 1.99781e-05 0 1.59115e-05 1.89291e-05 0 1.45767e-05 1.79902e-05 0 1.33109e-05 1.71505e-05 0 1.21086e-05 1.64007e-05 0 1.09646e-05 1.5733e-05 0 9.87335e-06 1.51402e-05 0 8.82987e-06 1.46163e-05 0 7.82916e-06 1.41562e-05 0 6.8664e-06 1.37554e-05 0 5.93696e-06 1.341e-05 0 5.03633e-06 1.31168e-05 0 4.16015e-06 1.28731e-05 0 3.30415e-06 1.26766e-05 0 2.46419e-06 1.25255e-05 0 1.63618e-06 1.24186e-05 0 8.16112e-07 1.23548e-05 0 1.64146e-19 1.23336e-05 0 3.35187e-05 5.62757e-05 0 3.33128e-05 5.37978e-05 0 3.28086e-05 5.03411e-05 0 3.18665e-05 4.67779e-05 0 3.05867e-05 4.33233e-05 0 2.90914e-05 4.01151e-05 0 2.74951e-05 3.71861e-05 0 2.58631e-05 3.45338e-05 0 2.42409e-05 3.21402e-05 0 2.26533e-05 2.99826e-05 0 2.11161e-05 2.8039e-05 0 1.96373e-05 2.62879e-05 0 1.82207e-05 2.47106e-05 0 1.68675e-05 2.32899e-05 0 1.55766e-05 2.20107e-05 0 1.43461e-05 2.08597e-05 0 1.31731e-05 1.9825e-05 0 1.20543e-05 1.88962e-05 0 1.09862e-05 1.80643e-05 0 9.96496e-06 1.73212e-05 0 8.98676e-06 1.66598e-05 0 8.04776e-06 1.6074e-05 0 7.14415e-06 1.55585e-05 0 6.27215e-06 1.51087e-05 0 5.42803e-06 1.47204e-05 0 4.60815e-06 1.43904e-05 0 3.8089e-06 1.41158e-05 0 3.02675e-06 1.38942e-05 0 2.25821e-06 1.37237e-05 0 1.49984e-06 1.3603e-05 0 7.48233e-07 1.35309e-05 0 0 1.3507e-05 0 2.97247e-05 5.78111e-05 0 2.87267e-05 5.47164e-05 0 2.78133e-05 5.16135e-05 0 2.68404e-05 4.8383e-05 0 2.57611e-05 4.52085e-05 0 2.45891e-05 4.21749e-05 0 2.33518e-05 3.93348e-05 0 2.20817e-05 3.67081e-05 0 2.08037e-05 3.42971e-05 0 1.95369e-05 3.20948e-05 0 1.82943e-05 3.00891e-05 0 1.70848e-05 2.82663e-05 0 1.59135e-05 2.66122e-05 0 1.47835e-05 2.5113e-05 0 1.36959e-05 2.3756e-05 0 1.26508e-05 2.25293e-05 0 1.16473e-05 2.14221e-05 0 1.06837e-05 2.04248e-05 0 9.75823e-06 1.95287e-05 0 8.86846e-06 1.87259e-05 0 8.01194e-06 1.80098e-05 0 7.18604e-06 1.73741e-05 0 6.38804e-06 1.68136e-05 0 5.61516e-06 1.63236e-05 0 4.8646e-06 1.59001e-05 0 4.13355e-06 1.55397e-05 0 3.4192e-06 1.52395e-05 0 2.71873e-06 1.4997e-05 0 2.02936e-06 1.48103e-05 0 1.3483e-06 1.46781e-05 0 6.72766e-07 1.45991e-05 0 0 1.45729e-05 0 2.52311e-05 5.9456e-05 0 2.4027e-05 5.63121e-05 0 2.30103e-05 5.30475e-05 0 2.20761e-05 4.98494e-05 0 2.11598e-05 4.67449e-05 0 2.02302e-05 4.37832e-05 0 1.92803e-05 4.09932e-05 0 1.83135e-05 3.83913e-05 0 1.73382e-05 3.59823e-05 0 1.63632e-05 3.37635e-05 0 1.53966e-05 3.17279e-05 0 1.44447e-05 2.98655e-05 0 1.35125e-05 2.81656e-05 0 1.26033e-05 2.6617e-05 0 1.17193e-05 2.52088e-05 0 1.08618e-05 2.39306e-05 0 1.00312e-05 2.27727e-05 0 9.22743e-06 2.17263e-05 0 8.44972e-06 2.07833e-05 0 7.69707e-06 1.99364e-05 0 6.96819e-06 1.91791e-05 0 6.26153e-06 1.85054e-05 0 5.5754e-06 1.79104e-05 0 4.90796e-06 1.73893e-05 0 4.2573e-06 1.69383e-05 0 3.62141e-06 1.6554e-05 0 2.99826e-06 1.62335e-05 0 2.38577e-06 1.59744e-05 0 1.78183e-06 1.57749e-05 0 1.18431e-06 1.56334e-05 0 5.91081e-07 1.55489e-05 0 0 1.55208e-05 0 2.00069e-05 6.15563e-05 0 1.89238e-05 5.78603e-05 0 1.80501e-05 5.43974e-05 0 1.72958e-05 5.1089e-05 0 1.65997e-05 4.79531e-05 0 1.59241e-05 4.49951e-05 0 1.52486e-05 4.22218e-05 0 1.45648e-05 3.9636e-05 0 1.38712e-05 3.72365e-05 0 1.31698e-05 3.50189e-05 0 1.24646e-05 3.29759e-05 0 1.17597e-05 3.10991e-05 0 1.10589e-05 2.93788e-05 0 1.03657e-05 2.78055e-05 0 9.68263e-06 2.63695e-05 0 9.01184e-06 2.50616e-05 0 8.35473e-06 2.3873e-05 0 7.71218e-06 2.27957e-05 0 7.08462e-06 2.18223e-05 0 6.47211e-06 2.09459e-05 0 5.87434e-06 2.01605e-05 0 5.29078e-06 1.94604e-05 0 4.72064e-06 1.88409e-05 0 4.16298e-06 1.82976e-05 0 3.6167e-06 1.78267e-05 0 3.08059e-06 1.7425e-05 0 2.55333e-06 1.70896e-05 0 2.03356e-06 1.68182e-05 0 1.51983e-06 1.66091e-05 0 1.01067e-06 1.64607e-05 0 5.04566e-07 1.63721e-05 0 0 1.63426e-05 0 1.40602e-05 6.30391e-05 0 1.33697e-05 5.90682e-05 0 1.28377e-05 5.53724e-05 0 1.23983e-05 5.19478e-05 0 1.20042e-05 4.87589e-05 0 1.16244e-05 4.57892e-05 0 1.12398e-05 4.30259e-05 0 1.08404e-05 4.04592e-05 0 1.04223e-05 3.80803e-05 0 9.98539e-06 3.58801e-05 0 9.53187e-06 3.38498e-05 0 9.06491e-06 3.198e-05 0 8.58804e-06 3.02616e-05 0 8.1047e-06 2.86853e-05 0 7.61805e-06 2.72423e-05 0 7.1308e-06 2.59243e-05 0 6.64517e-06 2.47233e-05 0 6.16296e-06 2.36319e-05 0 5.68551e-06 2.26433e-05 0 5.21379e-06 2.17512e-05 0 4.74841e-06 2.095e-05 0 4.28971e-06 2.02346e-05 0 3.83773e-06 1.96004e-05 0 3.39234e-06 1.90433e-05 0 2.95319e-06 1.85599e-05 0 2.5198e-06 1.81469e-05 0 2.09155e-06 1.78018e-05 0 1.66772e-06 1.75223e-05 0 1.24754e-06 1.73068e-05 0 8.30126e-07 1.71539e-05 0 4.1459e-07 1.70625e-05 0 0 1.70321e-05 0 7.57188e-06 6.38028e-05 0 7.47226e-06 5.9577e-05 0 7.42922e-06 5.57643e-05 0 7.4081e-06 5.22786e-05 0 7.38429e-06 4.90755e-05 0 7.3409e-06 4.61202e-05 0 7.2679e-06 4.33881e-05 0 7.16028e-06 4.08601e-05 0 7.01686e-06 3.85214e-05 0 6.83898e-06 3.63592e-05 0 6.62957e-06 3.43624e-05 0 6.39238e-06 3.25207e-05 0 6.13148e-06 3.08246e-05 0 5.85094e-06 2.92653e-05 0 5.55457e-06 2.78344e-05 0 5.2458e-06 2.65242e-05 0 4.92767e-06 2.53273e-05 0 4.60278e-06 2.42371e-05 0 4.2733e-06 2.32474e-05 0 3.94101e-06 2.23523e-05 0 3.60733e-06 2.15469e-05 0 3.27336e-06 2.08264e-05 0 2.93991e-06 2.01866e-05 0 2.60755e-06 1.96238e-05 0 2.27665e-06 1.91347e-05 0 1.94737e-06 1.87164e-05 0 1.61974e-06 1.83665e-05 0 1.29368e-06 1.80829e-05 0 9.6897e-07 1.78641e-05 0 6.45349e-07 1.77087e-05 0 3.22481e-07 1.76158e-05 0 0 1.75849e-05 0 8.61475e-07 6.34277e-05 0 1.45448e-06 5.92171e-05 0 1.97675e-06 5.54234e-05 0 2.42922e-06 5.19831e-05 0 2.81229e-06 4.88395e-05 0 3.12722e-06 4.59528e-05 0 3.37611e-06 4.32929e-05 0 3.56227e-06 4.08367e-05 0 3.68992e-06 3.85662e-05 0 3.76403e-06 3.64669e-05 0 3.78995e-06 3.45264e-05 0 3.77314e-06 3.27339e-05 0 3.71899e-06 3.10802e-05 0 3.6326e-06 2.95566e-05 0 3.5187e-06 2.81554e-05 0 3.3816e-06 2.68693e-05 0 3.22515e-06 2.56917e-05 0 3.0527e-06 2.46167e-05 0 2.86721e-06 2.36385e-05 0 2.67117e-06 2.27522e-05 0 2.46673e-06 2.19531e-05 0 2.25568e-06 2.12369e-05 0 2.0395e-06 2.05999e-05 0 1.8194e-06 2.00387e-05 0 1.59635e-06 1.95503e-05 0 1.37115e-06 1.91322e-05 0 1.14438e-06 1.87821e-05 0 9.16526e-07 1.84981e-05 0 6.87929e-07 1.82788e-05 0 4.58852e-07 1.8123e-05 0 2.29491e-07 1.80299e-05 0 0 1.79989e-05 0 -5.68646e-06 6.19127e-05 0 -4.40504e-06 5.79094e-05 0 -3.31847e-06 5.43039e-05 0 -2.39337e-06 5.10274e-05 0 -1.6056e-06 4.80317e-05 0 -9.37224e-07 4.52795e-05 0 -3.73887e-07 4.27421e-05 0 9.6299e-08 4.03973e-05 0 4.83708e-07 3.82275e-05 0 7.97596e-07 3.62182e-05 0 1.04639e-06 3.43577e-05 0 1.23777e-06 3.26357e-05 0 1.3788e-06 3.10435e-05 0 1.47586e-06 2.95731e-05 0 1.53476e-06 2.82175e-05 0 1.56069e-06 2.69704e-05 0 1.55832e-06 2.58258e-05 0 1.53174e-06 2.47785e-05 0 1.48459e-06 2.38234e-05 0 1.42003e-06 2.29563e-05 0 1.34083e-06 2.21728e-05 0 1.24939e-06 2.14695e-05 0 1.14777e-06 2.08428e-05 0 1.03774e-06 2.02899e-05 0 9.20829e-07 1.98082e-05 0 7.98345e-07 1.93952e-05 0 6.71408e-07 1.90491e-05 0 5.40988e-07 1.87681e-05 0 4.07926e-07 1.8551e-05 0 2.72967e-07 1.83966e-05 0 1.36784e-07 1.83043e-05 0 0 1.82736e-05 0 -1.17007e-05 5.9319e-05 0 -9.83499e-06 5.57291e-05 0 -8.25623e-06 5.24516e-05 0 -6.91026e-06 4.94473e-05 0 -5.75718e-06 4.66813e-05 0 -4.76667e-06 4.41264e-05 0 -3.91524e-06 4.17607e-05 0 -3.18405e-06 3.95663e-05 0 -2.55759e-06 3.75287e-05 0 -2.0228e-06 3.5636e-05 0 -1.56842e-06 3.38781e-05 0 -1.18466e-06 3.22463e-05 0 -8.62857e-07 3.0733e-05 0 -5.95363e-07 2.93316e-05 0 -3.75371e-07 2.80361e-05 0 -1.96831e-07 2.68411e-05 0 -5.43661e-08 2.57415e-05 0 5.67932e-08 2.47328e-05 0 1.40872e-07 2.38109e-05 0 2.01605e-07 2.29721e-05 0 2.4229e-07 2.22127e-05 0 2.65833e-07 2.15296e-05 0 2.74794e-07 2.09201e-05 0 2.71431e-07 2.03814e-05 0 2.57734e-07 1.99114e-05 0 2.35466e-07 1.9508e-05 0 2.06197e-07 1.91696e-05 0 1.71333e-07 1.88947e-05 0 1.32147e-07 1.8682e-05 0 8.981e-08 1.85308e-05 0 4.54134e-08 1.84403e-05 0 0 1.84102e-05 0 -1.69192e-05 5.59121e-05 0 -1.46316e-05 5.28445e-05 0 -1.26785e-05 4.99911e-05 0 -1.09991e-05 4.73345e-05 0 -9.54691e-06 4.48591e-05 0 -8.28603e-06 4.25504e-05 0 -7.18806e-06 4.03957e-05 0 -6.23021e-06 3.83838e-05 0 -5.39376e-06 3.65052e-05 0 -4.66312e-06 3.47515e-05 0 -4.02507e-06 3.31154e-05 0 -3.46827e-06 3.15906e-05 0 -2.98284e-06 3.01713e-05 0 -2.56017e-06 2.88523e-05 0 -2.19264e-06 2.7629e-05 0 -1.87356e-06 2.64971e-05 0 -1.59694e-06 2.54527e-05 0 -1.35752e-06 2.44921e-05 0 -1.15058e-06 2.36119e-05 0 -9.71949e-07 2.28092e-05 0 -8.17895e-07 2.20809e-05 0 -6.85102e-07 2.14246e-05 0 -5.70609e-07 2.08379e-05 0 -4.71767e-07 2.03186e-05 0 -3.86197e-07 1.98648e-05 0 -3.11758e-07 1.94749e-05 0 -2.46505e-07 1.91475e-05 0 -1.88661e-07 1.88812e-05 0 -1.36586e-07 1.86751e-05 0 -8.87456e-08 1.85285e-05 0 -4.36844e-08 1.84407e-05 0 0 1.84115e-05 0 -2.12192e-05 5.19855e-05 0 -1.86877e-05 4.94801e-05 0 -1.64939e-05 4.70878e-05 0 -1.45829e-05 4.48151e-05 0 -1.29108e-05 4.26628e-05 0 -1.14422e-05 4.06289e-05 0 -1.01481e-05 3.87101e-05 0 -9.00507e-06 3.69023e-05 0 -7.99329e-06 3.52012e-05 0 -7.09624e-06 3.36028e-05 0 -6.29984e-06 3.21029e-05 0 -5.59202e-06 3.06979e-05 0 -4.96226e-06 2.9384e-05 0 -4.40142e-06 2.81579e-05 0 -3.90141e-06 2.70165e-05 0 -3.45512e-06 2.59566e-05 0 -3.05621e-06 2.49755e-05 0 -2.69906e-06 2.40705e-05 0 -2.37864e-06 2.3239e-05 0 -2.09045e-06 2.24787e-05 0 -1.83046e-06 2.17875e-05 0 -1.59505e-06 2.11632e-05 0 -1.38097e-06 2.06041e-05 0 -1.18524e-06 2.01085e-05 0 -1.00521e-06 1.96747e-05 0 -8.38415e-07 1.93015e-05 0 -6.8262e-07 1.89877e-05 0 -5.35743e-07 1.87324e-05 0 -3.95841e-07 1.85346e-05 0 -2.61079e-07 1.83938e-05 0 -1.297e-07 1.83095e-05 0 0 1.82814e-05 0 -2.4616e-05 4.78307e-05 0 -2.19925e-05 4.58549e-05 0 -1.96795e-05 4.39127e-05 0 -1.76344e-05 4.20232e-05 0 -1.5821e-05 4.01992e-05 0 -1.42085e-05 3.84483e-05 0 -1.2771e-05 3.67747e-05 0 -1.14865e-05 3.51805e-05 0 -1.03362e-05 3.36665e-05 0 -9.30408e-06 3.22324e-05 0 -8.37633e-06 3.08773e-05 0 -7.54091e-06 2.96001e-05 0 -6.78733e-06 2.83993e-05 0 -6.10635e-06 2.72733e-05 0 -5.48981e-06 2.62205e-05 0 -4.93048e-06 2.5239e-05 0 -4.4219e-06 2.43272e-05 0 -3.95828e-06 2.34834e-05 0 -3.53445e-06 2.27059e-05 0 -3.14574e-06 2.19931e-05 0 -2.78794e-06 2.13434e-05 0 -2.45724e-06 2.07554e-05 0 -2.15017e-06 2.02277e-05 0 -1.86357e-06 1.97591e-05 0 -1.59454e-06 1.93484e-05 0 -1.34043e-06 1.89946e-05 0 -1.09875e-06 1.86967e-05 0 -8.67195e-07 1.84541e-05 0 -6.4358e-07 1.8266e-05 0 -4.25833e-07 1.81321e-05 0 -2.11956e-07 1.80518e-05 0 0 1.80251e-05 0 -2.72076e-05 4.36613e-05 0 -2.46031e-05 4.21495e-05 0 -2.22663e-05 4.06141e-05 0 -2.01682e-05 3.90811e-05 0 -1.8282e-05 3.75694e-05 0 -1.65836e-05 3.60924e-05 0 -1.50517e-05 3.46598e-05 0 -1.36675e-05 3.3278e-05 0 -1.24145e-05 3.19517e-05 0 -1.12783e-05 3.06838e-05 0 -1.0246e-05 2.94763e-05 0 -9.30646e-06 2.83303e-05 0 -8.4497e-06 2.72462e-05 0 -7.66684e-06 2.62241e-05 0 -6.95e-06 2.52638e-05 0 -6.29209e-06 2.43646e-05 0 -5.68677e-06 2.35261e-05 0 -5.1283e-06 2.27473e-05 0 -4.61152e-06 2.20274e-05 0 -4.13173e-06 2.13655e-05 0 -3.68467e-06 2.07606e-05 0 -3.26644e-06 2.0212e-05 0 -2.87347e-06 1.97185e-05 0 -2.50248e-06 1.92795e-05 0 -2.15046e-06 1.88942e-05 0 -1.81457e-06 1.85617e-05 0 -1.49219e-06 1.82815e-05 0 -1.18084e-06 1.80531e-05 0 -8.78165e-07 1.78759e-05 0 -5.81913e-07 1.77495e-05 0 -2.89902e-07 1.76739e-05 0 0 1.76487e-05 0 -2.91282e-05 3.96193e-05 0 -2.66121e-05 3.84918e-05 0 -2.43176e-05 3.73058e-05 0 -2.22269e-05 3.60879e-05 0 -2.0322e-05 3.4859e-05 0 -1.85856e-05 3.36352e-05 0 -1.70014e-05 3.2429e-05 0 -1.55545e-05 3.12498e-05 0 -1.42313e-05 3.01046e-05 0 -1.30194e-05 2.8999e-05 0 -1.19078e-05 2.79367e-05 0 -1.08865e-05 2.69208e-05 0 -9.94635e-06 2.59534e-05 0 -9.07932e-06 2.50359e-05 0 -8.27801e-06 2.41692e-05 0 -7.53577e-06 2.33539e-05 0 -6.84654e-06 2.25904e-05 0 -6.20484e-06 2.18786e-05 0 -5.60563e-06 2.12183e-05 0 -5.04433e-06 2.06094e-05 0 -4.51673e-06 2.00515e-05 0 -4.01897e-06 1.95442e-05 0 -3.54746e-06 1.90869e-05 0 -3.09889e-06 1.86793e-05 0 -2.67017e-06 1.83209e-05 0 -2.25841e-06 1.80113e-05 0 -1.86089e-06 1.775e-05 0 -1.47502e-06 1.75368e-05 0 -1.09835e-06 1.73712e-05 0 -7.28481e-07 1.72532e-05 0 -3.6312e-07 1.71824e-05 0 -1.90303e-20 1.71588e-05 0 -3.05112e-05 3.5781e-05 0 -2.81216e-05 3.49621e-05 0 -2.59104e-05 3.40659e-05 0 -2.38681e-05 3.31166e-05 0 -2.19838e-05 3.21347e-05 0 -2.02459e-05 3.11368e-05 0 -1.86431e-05 3.01362e-05 0 -1.7164e-05 2.91438e-05 0 -1.57982e-05 2.8168e-05 0 -1.45357e-05 2.72157e-05 0 -1.33672e-05 2.62923e-05 0 -1.22843e-05 2.5402e-05 0 -1.12791e-05 2.4548e-05 0 -1.03443e-05 2.37329e-05 0 -9.47351e-06 2.29587e-05 0 -8.6605e-06 2.22268e-05 0 -7.89971e-06 2.15382e-05 0 -7.18601e-06 2.08937e-05 0 -6.51467e-06 2.02937e-05 0 -5.8813e-06 1.97387e-05 0 -5.28186e-06 1.92286e-05 0 -4.71258e-06 1.87636e-05 0 -4.16997e-06 1.83436e-05 0 -3.65074e-06 1.79685e-05 0 -3.15182e-06 1.7638e-05 0 -2.6703e-06 1.73521e-05 0 -2.20344e-06 1.71105e-05 0 -1.74859e-06 1.69132e-05 0 -1.30324e-06 1.67598e-05 0 -8.64941e-07 1.66504e-05 0 -4.31309e-07 1.65848e-05 0 -1.17646e-19 1.65629e-05 0 -3.1475e-05 3.2181e-05 0 -2.92283e-05 3.16045e-05 0 -2.71224e-05 3.09426e-05 0 -2.51535e-05 3.02165e-05 0 -2.33159e-05 2.94446e-05 0 -2.16028e-05 2.86427e-05 0 -2.00065e-05 2.78239e-05 0 -1.85192e-05 2.69992e-05 0 -1.71332e-05 2.61777e-05 0 -1.58407e-05 2.53669e-05 0 -1.46345e-05 2.45729e-05 0 -1.35076e-05 2.38008e-05 0 -1.24535e-05 2.30547e-05 0 -1.1466e-05 2.23378e-05 0 -1.05392e-05 2.16529e-05 0 -9.66799e-06 2.10019e-05 0 -8.84717e-06 2.03867e-05 0 -8.07212e-06 1.98084e-05 0 -7.33845e-06 1.92681e-05 0 -6.64211e-06 1.87666e-05 0 -5.97927e-06 1.83044e-05 0 -5.34635e-06 1.78818e-05 0 -4.73999e-06 1.74993e-05 0 -4.15701e-06 1.7157e-05 0 -3.59441e-06 1.68549e-05 0 -3.04931e-06 1.65931e-05 0 -2.519e-06 1.63716e-05 0 -2.00085e-06 1.61905e-05 0 -1.49231e-06 1.60497e-05 0 -9.90926e-07 1.59491e-05 0 -4.94282e-07 1.58888e-05 0 -1.5331e-20 1.58687e-05 0 -3.21172e-05 2.88269e-05 0 -3.00163e-05 2.84376e-05 0 -2.80248e-05 2.79619e-05 0 -2.61427e-05 2.74176e-05 0 -2.43678e-05 2.68207e-05 0 -2.26966e-05 2.61853e-05 0 -2.11246e-05 2.55237e-05 0 -1.96468e-05 2.48464e-05 0 -1.82577e-05 2.41624e-05 0 -1.69519e-05 2.34794e-05 0 -1.57236e-05 2.28037e-05 0 -1.45675e-05 2.21408e-05 0 -1.34784e-05 2.14952e-05 0 -1.24509e-05 2.08706e-05 0 -1.14804e-05 2.02702e-05 0 -1.05622e-05 1.96965e-05 0 -9.69187e-06 1.91517e-05 0 -8.86526e-06 1.86375e-05 0 -8.07844e-06 1.81551e-05 0 -7.32769e-06 1.77059e-05 0 -6.60949e-06 1.72906e-05 0 -5.92049e-06 1.691e-05 0 -5.25751e-06 1.65646e-05 0 -4.61754e-06 1.62548e-05 0 -3.99767e-06 1.5981e-05 0 -3.39513e-06 1.57433e-05 0 -2.80727e-06 1.5542e-05 0 -2.2315e-06 1.53772e-05 0 -1.66531e-06 1.52489e-05 0 -1.10627e-06 1.51573e-05 0 -5.51953e-07 1.51022e-05 0 0 1.50839e-05 0 -3.25164e-05 2.57113e-05 0 -3.05563e-05 2.54645e-05 0 -2.86802e-05 2.51344e-05 0 -2.68899e-05 2.47358e-05 0 -2.51857e-05 2.42821e-05 0 -2.35667e-05 2.37859e-05 0 -2.20306e-05 2.32579e-05 0 -2.05746e-05 2.27079e-05 0 -1.91951e-05 2.21444e-05 0 -1.78884e-05 2.15747e-05 0 -1.66504e-05 2.10052e-05 0 -1.54771e-05 2.04414e-05 0 -1.43644e-05 1.98879e-05 0 -1.3308e-05 1.93487e-05 0 -1.23041e-05 1.88271e-05 0 -1.13488e-05 1.8326e-05 0 -1.04383e-05 1.78478e-05 0 -9.56899e-06 1.73945e-05 0 -8.73739e-06 1.69676e-05 0 -7.94016e-06 1.65687e-05 0 -7.17411e-06 1.61988e-05 0 -6.43616e-06 1.58589e-05 0 -5.72337e-06 1.55497e-05 0 -5.03289e-06 1.52718e-05 0 -4.36198e-06 1.50257e-05 0 -3.708e-06 1.48118e-05 0 -3.06838e-06 1.46303e-05 0 -2.44062e-06 1.44816e-05 0 -1.82229e-06 1.43658e-05 0 -1.21097e-06 1.42829e-05 0 -6.04323e-07 1.42332e-05 0 0 1.42166e-05 0 -3.27348e-05 2.28187e-05 0 -3.09064e-05 2.26785e-05 0 -2.91411e-05 2.24605e-05 0 -2.74422e-05 2.21768e-05 0 -2.58116e-05 2.18388e-05 0 -2.42498e-05 2.14569e-05 0 -2.27563e-05 2.10408e-05 0 -2.13299e-05 2.05991e-05 0 -1.99686e-05 2.01396e-05 0 -1.86702e-05 1.96691e-05 0 -1.74318e-05 1.91936e-05 0 -1.62506e-05 1.87184e-05 0 -1.51234e-05 1.82481e-05 0 -1.40472e-05 1.77867e-05 0 -1.30187e-05 1.73376e-05 0 -1.20347e-05 1.69038e-05 0 -1.10922e-05 1.64877e-05 0 -1.0188e-05 1.60916e-05 0 -9.31907e-06 1.57172e-05 0 -8.48256e-06 1.53661e-05 0 -7.67557e-06 1.50395e-05 0 -6.89531e-06 1.47386e-05 0 -6.13908e-06 1.44642e-05 0 -5.40425e-06 1.42171e-05 0 -4.68826e-06 1.39979e-05 0 -3.9886e-06 1.38071e-05 0 -3.30284e-06 1.3645e-05 0 -2.62858e-06 1.3512e-05 0 -1.96347e-06 1.34083e-05 0 -1.3052e-06 1.33341e-05 0 -6.51466e-07 1.32896e-05 0 0 1.32747e-05 0 -3.28217e-05 2.01295e-05 0 -3.11136e-05 2.00673e-05 0 -2.94517e-05 1.99341e-05 0 -2.78403e-05 1.97397e-05 0 -2.6282e-05 1.94935e-05 0 -2.47785e-05 1.92045e-05 0 -2.33307e-05 1.88808e-05 0 -2.19383e-05 1.853e-05 0 -2.06007e-05 1.81591e-05 0 -1.93166e-05 1.77741e-05 0 -1.80845e-05 1.73808e-05 0 -1.69023e-05 1.6984e-05 0 -1.57679e-05 1.6588e-05 0 -1.46789e-05 1.61968e-05 0 -1.3633e-05 1.58136e-05 0 -1.26274e-05 1.54414e-05 0 -1.16598e-05 1.50827e-05 0 -1.07275e-05 1.47397e-05 0 -9.82795e-06 1.44143e-05 0 -8.9586e-06 1.41081e-05 0 -8.11693e-06 1.38224e-05 0 -7.30044e-06 1.35585e-05 0 -6.5067e-06 1.33173e-05 0 -5.73328e-06 1.30997e-05 0 -4.97781e-06 1.29062e-05 0 -4.23797e-06 1.27376e-05 0 -3.51144e-06 1.25941e-05 0 -2.79597e-06 1.24763e-05 0 -2.0893e-06 1.23844e-05 0 -1.38922e-06 1.23186e-05 0 -6.93514e-07 1.22791e-05 0 0 1.22659e-05 0 -3.2816e-05 1.76229e-05 0 -3.12157e-05 1.76158e-05 0 -2.96482e-05 1.75451e-05 0 -2.8118e-05 1.74187e-05 0 -2.66284e-05 1.72444e-05 0 -2.51818e-05 1.70295e-05 0 -2.37797e-05 1.67812e-05 0 -2.24231e-05 1.65059e-05 0 -2.1112e-05 1.62096e-05 0 -1.98461e-05 1.58978e-05 0 -1.86246e-05 1.55755e-05 0 -1.74464e-05 1.52472e-05 0 -1.63101e-05 1.4917e-05 0 -1.52139e-05 1.45884e-05 0 -1.41562e-05 1.42645e-05 0 -1.31349e-05 1.39483e-05 0 -1.2148e-05 1.36421e-05 0 -1.11934e-05 1.3348e-05 0 -1.02689e-05 1.3068e-05 0 -9.37239e-06 1.28036e-05 0 -8.50164e-06 1.25563e-05 0 -7.65444e-06 1.23272e-05 0 -6.8286e-06 1.21174e-05 0 -6.02192e-06 1.19276e-05 0 -5.23224e-06 1.17587e-05 0 -4.45738e-06 1.16112e-05 0 -3.6952e-06 1.14856e-05 0 -2.94355e-06 1.13824e-05 0 -2.20032e-06 1.13018e-05 0 -1.46338e-06 1.1244e-05 0 -7.30643e-07 1.12093e-05 0 -2.67147e-20 1.11977e-05 0 -3.27484e-05 1.52777e-05 0 -3.12433e-05 1.53074e-05 0 -2.97602e-05 1.52812e-05 0 -2.83037e-05 1.52053e-05 0 -2.68774e-05 1.50861e-05 0 -2.54842e-05 1.49297e-05 0 -2.41263e-05 1.47421e-05 0 -2.28051e-05 1.45286e-05 0 -2.15214e-05 1.42946e-05 0 -2.02754e-05 1.40447e-05 0 -1.90672e-05 1.37834e-05 0 -1.78963e-05 1.35147e-05 0 -1.67617e-05 1.32421e-05 0 -1.56625e-05 1.2969e-05 0 -1.45974e-05 1.26983e-05 0 -1.35649e-05 1.24324e-05 0 -1.25635e-05 1.21739e-05 0 -1.15914e-05 1.19246e-05 0 -1.06469e-05 1.16864e-05 0 -9.72822e-06 1.14608e-05 0 -8.83334e-06 1.12491e-05 0 -7.96038e-06 1.10525e-05 0 -7.10738e-06 1.08721e-05 0 -6.27235e-06 1.07087e-05 0 -5.45332e-06 1.05629e-05 0 -4.64829e-06 1.04355e-05 0 -3.85525e-06 1.03269e-05 0 -3.07221e-06 1.02375e-05 0 -2.29717e-06 1.01676e-05 0 -1.52811e-06 1.01175e-05 0 -7.63058e-07 1.00874e-05 0 -6.60159e-20 1.00774e-05 0 -3.26432e-05 1.30732e-05 0 -3.12209e-05 1.31252e-05 0 -2.98118e-05 1.31289e-05 0 -2.84207e-05 1.30892e-05 0 -2.70514e-05 1.30113e-05 0 -2.5707e-05 1.29002e-05 0 -2.43901e-05 1.27607e-05 0 -2.31024e-05 1.25975e-05 0 -2.18453e-05 1.2415e-05 0 -2.06197e-05 1.22172e-05 0 -1.94259e-05 1.20078e-05 0 -1.8264e-05 1.17905e-05 0 -1.71336e-05 1.15683e-05 0 -1.60342e-05 1.13441e-05 0 -1.4965e-05 1.11206e-05 0 -1.39249e-05 1.09001e-05 0 -1.29128e-05 1.06847e-05 0 -1.19273e-05 1.04762e-05 0 -1.0967e-05 1.02763e-05 0 -1.00304e-05 1.00864e-05 0 -9.11572e-06 9.90775e-06 0 -8.22141e-06 9.7415e-06 0 -7.34569e-06 9.58857e-06 0 -6.4868e-06 9.4498e-06 0 -5.64291e-06 9.32587e-06 0 -4.8122e-06 9.21736e-06 0 -3.99282e-06 9.12478e-06 0 -3.18288e-06 9.04851e-06 0 -2.38053e-06 8.98888e-06 0 -1.58386e-06 8.94612e-06 0 -7.90979e-07 8.92039e-06 0 -2.15247e-21 8.91181e-06 0 -3.25197e-05 1.09893e-05 0 -3.11679e-05 1.10522e-05 0 -2.98226e-05 1.10741e-05 0 -2.84883e-05 1.1059e-05 0 -2.71689e-05 1.10111e-05 0 -2.58678e-05 1.09343e-05 0 -2.45876e-05 1.08326e-05 0 -2.33305e-05 1.07098e-05 0 -2.20983e-05 1.05696e-05 0 -2.08921e-05 1.04153e-05 0 -1.97127e-05 1.02501e-05 0 -1.85605e-05 1.0077e-05 0 -1.74357e-05 9.89867e-06 0 -1.6338e-05 9.71764e-06 0 -1.5267e-05 9.53615e-06 0 -1.4222e-05 9.35625e-06 0 -1.32022e-05 9.17978e-06 0 -1.22065e-05 9.00839e-06 0 -1.12339e-05 8.84353e-06 0 -1.02829e-05 8.68651e-06 0 -9.35232e-06 8.53846e-06 0 -8.44057e-06 8.40037e-06 0 -7.54614e-06 8.27313e-06 0 -6.66745e-06 8.15747e-06 0 -5.80284e-06 8.05403e-06 0 -4.95063e-06 7.96337e-06 0 -4.1091e-06 7.88594e-06 0 -3.27651e-06 7.82209e-06 0 -2.45109e-06 7.77214e-06 0 -1.63106e-06 7.73631e-06 0 -8.14628e-07 7.71474e-06 0 0 7.70755e-06 0 -3.2393e-05 9.00688e-06 0 -3.11001e-05 9.07161e-06 0 -2.98082e-05 9.10254e-06 0 -2.85219e-05 9.10282e-06 0 -2.7245e-05 9.07566e-06 0 -2.5981e-05 9.02429e-06 0 -2.47327e-05 8.95183e-06 0 -2.35026e-05 8.86134e-06 0 -2.22925e-05 8.75572e-06 0 -2.11039e-05 8.63777e-06 0 -1.9938e-05 8.51007e-06 0 -1.87953e-05 8.37507e-06 0 -1.76765e-05 8.23503e-06 0 -1.65815e-05 8.09202e-06 0 -1.55102e-05 7.94794e-06 0 -1.44623e-05 7.80453e-06 0 -1.34371e-05 7.66333e-06 0 -1.24339e-05 7.52576e-06 0 -1.14518e-05 7.39306e-06 0 -1.04897e-05 7.26637e-06 0 -9.54643e-06 7.14666e-06 0 -8.62071e-06 7.03479e-06 0 -7.71117e-06 6.93154e-06 0 -6.81639e-06 6.83756e-06 0 -5.93485e-06 6.75341e-06 0 -5.06501e-06 6.67958e-06 0 -4.20527e-06 6.61645e-06 0 -3.35399e-06 6.56438e-06 0 -2.50951e-06 6.52361e-06 0 -1.67015e-06 6.49435e-06 0 -8.34221e-07 6.47674e-06 0 0 6.47086e-06 0 -3.22749e-05 7.10771e-06 0 -3.10295e-05 7.16722e-06 0 -2.9781e-05 7.19995e-06 0 -2.85338e-05 7.2083e-06 0 -2.72918e-05 7.19472e-06 0 -2.60585e-05 7.16167e-06 0 -2.48368e-05 7.11156e-06 0 -2.36293e-05 7.04675e-06 0 -2.2438e-05 6.96952e-06 0 -2.12646e-05 6.88204e-06 0 -2.01105e-05 6.78635e-06 0 -1.89766e-05 6.6844e-06 0 -1.78634e-05 6.57796e-06 0 -1.67715e-05 6.4687e-06 0 -1.57009e-05 6.35816e-06 0 -1.46513e-05 6.24771e-06 0 -1.36225e-05 6.13863e-06 0 -1.26138e-05 6.03206e-06 0 -1.16247e-05 5.92903e-06 0 -1.0654e-05 5.83044e-06 0 -9.70099e-06 5.73712e-06 0 -8.76437e-06 5.64978e-06 0 -7.84298e-06 5.56905e-06 0 -6.93549e-06 5.49548e-06 0 -6.04053e-06 5.42954e-06 0 -5.15666e-06 5.37163e-06 0 -4.28237e-06 5.32208e-06 0 -3.41615e-06 5.28118e-06 0 -2.5564e-06 5.24915e-06 0 -1.70155e-06 5.22615e-06 0 -8.49954e-07 5.2123e-06 0 0 5.20768e-06 0 -3.21744e-05 5.27418e-06 0 -3.09655e-05 5.32317e-06 0 -2.97505e-05 5.35225e-06 0 -2.85337e-05 5.36313e-06 0 -2.73189e-05 5.35758e-06 0 -2.61096e-05 5.33739e-06 0 -2.49088e-05 5.30431e-06 0 -2.37192e-05 5.26006e-06 0 -2.2543e-05 5.20632e-06 0 -2.13819e-05 5.14469e-06 0 -2.02374e-05 5.07667e-06 0 -1.91107e-05 5.00371e-06 0 -1.80026e-05 4.92715e-06 0 -1.69136e-05 4.84821e-06 0 -1.58439e-05 4.76806e-06 0 -1.47935e-05 4.68775e-06 0 -1.37623e-05 4.60822e-06 0 -1.27499e-05 4.53034e-06 0 -1.17556e-05 4.45491e-06 0 -1.07788e-05 4.38261e-06 0 -9.8185e-06 4.31407e-06 0 -8.87375e-06 4.24984e-06 0 -7.94344e-06 4.19041e-06 0 -7.02636e-06 4.13619e-06 0 -6.12123e-06 4.08756e-06 0 -5.22669e-06 4.04481e-06 0 -4.34134e-06 4.00822e-06 0 -3.4637e-06 3.978e-06 0 -2.59229e-06 3.95433e-06 0 -1.72558e-06 3.93732e-06 0 -8.62001e-07 3.92708e-06 0 0 3.92366e-06 0 -3.20981e-05 3.48933e-06 0 -3.09151e-05 3.52402e-06 0 -2.97239e-05 3.54551e-06 0 -2.85286e-05 3.55491e-06 0 -2.73333e-05 3.55338e-06 0 -2.61412e-05 3.54208e-06 0 -2.49556e-05 3.52214e-06 0 -2.37789e-05 3.49469e-06 0 -2.26136e-05 3.46084e-06 0 -2.14615e-05 3.42163e-06 0 -2.03242e-05 3.37806e-06 0 -1.92029e-05 3.33109e-06 0 -1.80986e-05 3.28159e-06 0 -1.70119e-05 3.23041e-06 0 -1.59432e-05 3.17829e-06 0 -1.48925e-05 3.12595e-06 0 -1.38599e-05 3.07402e-06 0 -1.2845e-05 3.02309e-06 0 -1.18473e-05 2.97369e-06 0 -1.08662e-05 2.92628e-06 0 -9.90097e-06 2.88128e-06 0 -8.95059e-06 2.83908e-06 0 -8.01408e-06 2.79999e-06 0 -7.09031e-06 2.76432e-06 0 -6.17806e-06 2.73229e-06 0 -5.27604e-06 2.70413e-06 0 -4.3829e-06 2.68001e-06 0 -3.49724e-06 2.66008e-06 0 -2.61761e-06 2.64447e-06 0 -1.74253e-06 2.63325e-06 0 -8.70502e-07 2.62649e-06 0 0 2.62424e-06 0 -3.20506e-05 1.73666e-06 0 -3.0883e-05 1.7546e-06 0 -2.9706e-05 1.76597e-06 0 -2.85237e-05 1.77131e-06 0 -2.734e-05 1.77119e-06 0 -2.61583e-05 1.76617e-06 0 -2.49817e-05 1.75683e-06 0 -2.38129e-05 1.74372e-06 0 -2.26542e-05 1.72738e-06 0 -2.15076e-05 1.70834e-06 0 -2.03747e-05 1.68709e-06 0 -1.92568e-05 1.6641e-06 0 -1.81549e-05 1.63982e-06 0 -1.70697e-05 1.61465e-06 0 -1.60016e-05 1.58899e-06 0 -1.49509e-05 1.56318e-06 0 -1.39175e-05 1.53754e-06 0 -1.29012e-05 1.51238e-06 0 -1.19016e-05 1.48794e-06 0 -1.0918e-05 1.46447e-06 0 -9.94986e-06 1.44219e-06 0 -8.99618e-06 1.42127e-06 0 -8.05601e-06 1.40189e-06 0 -7.12829e-06 1.3842e-06 0 -6.21182e-06 1.3683e-06 0 -5.30537e-06 1.35432e-06 0 -4.40761e-06 1.34235e-06 0 -3.51718e-06 1.33245e-06 0 -2.63267e-06 1.32469e-06 0 -1.75262e-06 1.31912e-06 0 -8.75559e-07 1.31577e-06 0 0 1.31464e-06 0 -3.20344e-05 -0 0 -3.0872e-05 -2.33054e-19 0 -2.96997e-05 -1.84678e-19 0 -2.85217e-05 -0 0 -2.73419e-05 -3.23456e-21 0 -2.61637e-05 -2.36201e-19 0 -2.49901e-05 -1.15482e-19 0 -2.38239e-05 -0 0 -2.26675e-05 -0 0 -2.15227e-05 -0 0 -2.03913e-05 -0 0 -1.92745e-05 -0 0 -1.81734e-05 -0 0 -1.70887e-05 2.13532e-20 0 -1.60209e-05 1.7022e-19 0 -1.49702e-05 2.83357e-20 0 -1.39366e-05 -0 0 -1.29198e-05 -0 0 -1.19195e-05 2.85543e-20 0 -1.09352e-05 1.14568e-19 0 -9.96605e-06 8.91611e-21 0 -9.01128e-06 -0 0 -8.06991e-06 -0 0 -7.14088e-06 -0 0 -6.22302e-06 -0 0 -5.3151e-06 -0 0 -4.41581e-06 -0 0 -3.5238e-06 -0 0 -2.63767e-06 -0 0 -1.75597e-06 -0 0 -8.77238e-07 -0 0 0 -0 0 </DataArray> 
</PointData> 
<Points> 
<DataArray type="Float32" NumberOfComponents="3"> 