<?xml version="1.0"?> 
<VTKFile type="StructuredGrid" version="0.1"> 
<StructuredGrid WholeExtent="0 31 0 31 0 0"> 
<Piece Extent="0 31 0 31 0 0"> 
<PointData>
<DataArray type="Float32" Name="u" format="ascii" NumberOfComponents="3"> 
0 0 0 4.28697e-05 3.48681e-05 0 7.3003e-05 5.07412e-05 0 0.000101878 6.02895e-05 0 0.000130849 6.59305e-05 0 0.000160383 6.92462e-05 0 0.000190505 7.10397e-05 0 0.000221211 7.19314e-05 0 0.000252378 7.2281e-05 0 0.000283914 7.23402e-05 0 0.000315715 7.22564e-05 0 0.000347702 7.2119e-05 0 0.000379813 7.19753e-05 0 0.000412003 7.18484e-05 0 0.00044424 7.17464e-05 0 0.000476504 7.16698e-05 0 0.00050878 7.16152e-05 0 0.000541061 7.15782e-05 0 0.000573343 7.15543e-05 0 0.000605625 7.15397e-05 0 0.000637904 7.15313e-05 0 0.000670181 7.15269e-05 0 0.000702456 7.1525e-05 0 0.00073473 7.15244e-05 0 0.000767002 7.15246e-05 0 0.000799274 7.15251e-05 0 0.000831545 7.15256e-05 0 0.000863816 7.15261e-05 0 0.000896087 7.15265e-05 0 0.000928357 7.15268e-05 0 0.000960628 7.1527e-05 0 0.000992898 7.15271e-05 0 0 0 0 3.68337e-05 3.01024e-05 0 6.91043e-05 4.64086e-05 0 9.9464e-05 5.6106e-05 0 0.00012936 6.16975e-05 0 0.00015949 6.49429e-05 0 0.000190018 6.66696e-05 0 0.000220958 6.74887e-05 0 0.000252276 6.77888e-05 0 0.000283889 6.78042e-05 0 0.000315732 6.76923e-05 0 0.000347735 6.75336e-05 0 0.000379849 6.7377e-05 0 0.000412035 6.72415e-05 0 0.000444267 6.71347e-05 0 0.000476523 6.70554e-05 0 0.000508794 6.69995e-05 0 0.000541071 6.69621e-05 0 0.00057335 6.69382e-05 0 0.000605629 6.69237e-05 0 0.000637906 6.69156e-05 0 0.000670182 6.69115e-05 0 0.000702456 6.69098e-05 0 0.00073473 6.69094e-05 0 0.000767002 6.69097e-05 0 0.000799274 6.69103e-05 0 0.000831545 6.69109e-05 0 0.000863816 6.69114e-05 0 0.000896086 6.69118e-05 0 0.000928357 6.69121e-05 0 0.000960628 6.69123e-05 0 0.000992898 6.69125e-05 0 0 0 0 3.28222e-05 2.5599e-05 0 6.58574e-05 4.20796e-05 0 9.70825e-05 5.17498e-05 0 0.000127824 5.73908e-05 0 0.000158489 6.05692e-05 0 0.000189413 6.22512e-05 0 0.000220608 6.30174e-05 0 0.000252091 6.32743e-05 0 0.000283805 6.32574e-05 0 0.000315704 6.31202e-05 0 0.000347738 6.2945e-05 0 0.000379865 6.27767e-05 0 0.000412056 6.26342e-05 0 0.000444286 6.2523e-05 0 0.00047654 6.24413e-05 0 0.000508807 6.23843e-05 0 0.00054108 6.23464e-05 0 0.000573356 6.23224e-05 0 0.000605633 6.23081e-05 0 0.000637909 6.23001e-05 0 0.000670184 6.22962e-05 0 0.000702457 6.22947e-05 0 0.00073473 6.22945e-05 0 0.000767002 6.22948e-05 0 0.000799274 6.22955e-05 0 0.000831545 6.22961e-05 0 0.000863816 6.22967e-05 0 0.000896086 6.22971e-05 0 0.000928357 6.22974e-05 0 0.000960627 6.22976e-05 0 0.000992898 6.22978e-05 0 0 0 0 3.04329e-05 2.18703e-05 0 6.31401e-05 3.7776e-05 0 9.49381e-05 4.73737e-05 0 0.000126273 5.30003e-05 0 0.000157442 5.61453e-05 0 0.000188726 5.77822e-05 0 0.000220185 5.85126e-05 0 0.000251841 5.87348e-05 0 0.000283671 5.86936e-05 0 0.00031564 5.85373e-05 0 0.000347715 5.83494e-05 0 0.000379864 5.81725e-05 0 0.000412065 5.80247e-05 0 0.000444298 5.79103e-05 0 0.000476552 5.78269e-05 0 0.000508817 5.77691e-05 0 0.000541089 5.77308e-05 0 0.000573363 5.77068e-05 0 0.000605637 5.76926e-05 0 0.000637912 5.76848e-05 0 0.000670185 5.76811e-05 0 0.000702458 5.76797e-05 0 0.000734731 5.76796e-05 0 0.000767003 5.768e-05 0 0.000799274 5.76807e-05 0 0.000831545 5.76814e-05 0 0.000863816 5.7682e-05 0 0.000896086 5.76824e-05 0 0.000928357 5.76828e-05 0 0.000960627 5.7683e-05 0 0.000992898 5.76831e-05 0 0 0 0 2.89861e-05 1.88203e-05 0 6.09912e-05 3.36499e-05 0 9.30415e-05 4.30237e-05 0 0.000124789 4.85692e-05 0 0.000156383 5.16746e-05 0 0.000187996 5.32697e-05 0 0.000219709 5.39713e-05 0 0.000251544 5.41681e-05 0 0.000283497 5.41096e-05 0 0.000315546 5.39406e-05 0 0.00034767 5.37447e-05 0 0.000379848 5.35626e-05 0 0.000412064 5.34118e-05 0 0.000444305 5.32958e-05 0 0.000476561 5.32116e-05 0 0.000508826 5.31535e-05 0 0.000541096 5.31153e-05 0 0.000573368 5.30914e-05 0 0.000605642 5.30773e-05 0 0.000637915 5.30697e-05 0 0.000670187 5.30661e-05 0 0.00070246 5.30648e-05 0 0.000734732 5.30647e-05 0 0.000767003 5.30653e-05 0 0.000799274 5.3066e-05 0 0.000831545 5.30667e-05 0 0.000863816 5.30673e-05 0 0.000896086 5.30678e-05 0 0.000928357 5.30681e-05 0 0.000960627 5.30683e-05 0 0.000992898 5.30684e-05 0 0 0 0 2.80696e-05 1.62719e-05 0 5.93464e-05 2.97815e-05 0 9.13974e-05 3.87399e-05 0 0.000123417 4.41324e-05 0 0.000155344 4.71677e-05 0 0.000187254 4.87199e-05 0 0.000219204 4.93937e-05 0 0.000251217 4.9573e-05 0 0.000283294 4.95032e-05 0 0.000315429 4.93282e-05 0 0.000347608 4.91289e-05 0 0.00037982 4.89455e-05 0 0.000412055 4.87944e-05 0 0.000444306 4.86786e-05 0 0.000476567 4.85949e-05 0 0.000508833 4.85373e-05 0 0.000541103 4.84995e-05 0 0.000573374 4.84759e-05 0 0.000605646 4.84621e-05 0 0.000637918 4.84547e-05 0 0.00067019 4.84512e-05 0 0.000702461 4.845e-05 0 0.000734733 4.845e-05 0 0.000767004 4.84506e-05 0 0.000799274 4.84513e-05 0 0.000831545 4.8452e-05 0 0.000863816 4.84526e-05 0 0.000896086 4.84531e-05 0 0.000928357 4.84534e-05 0 0.000960627 4.84536e-05 0 0.000992898 4.84537e-05 0 0 0 0 2.7465e-05 1.40844e-05 0 5.80987e-05 2.61821e-05 0 9.00045e-05 3.45581e-05 0 0.000122175 3.97131e-05 0 0.000154357 4.26397e-05 0 0.000186522 4.41376e-05 0 0.00021869 4.47829e-05 0 0.000250872 4.4949e-05 0 0.000283075 4.48741e-05 0 0.000315296 4.46986e-05 0 0.000347533 4.45011e-05 0 0.000379782 4.43203e-05 0 0.00041204 4.41718e-05 0 0.000444303 4.40583e-05 0 0.000476569 4.39764e-05 0 0.000508838 4.39201e-05 0 0.000541108 4.38833e-05 0 0.000573379 4.38604e-05 0 0.00060565 4.3847e-05 0 0.000637921 4.38398e-05 0 0.000670192 4.38365e-05 0 0.000702463 4.38353e-05 0 0.000734734 4.38354e-05 0 0.000767004 4.3836e-05 0 0.000799275 4.38367e-05 0 0.000831545 4.38374e-05 0 0.000863816 4.3838e-05 0 0.000896086 4.38385e-05 0 0.000928357 4.38388e-05 0 0.000960627 4.3839e-05 0 0.000992898 4.38391e-05 0 0 0 0 2.70507e-05 1.2155e-05 0 5.71538e-05 2.28322e-05 0 8.88439e-05 3.04978e-05 0 0.000121075 3.53299e-05 0 0.000153442 3.81032e-05 0 0.000185822 3.95295e-05 0 0.000218183 4.01421e-05 0 0.000250525 4.02973e-05 0 0.000282847 4.02221e-05 0 0.000315155 4.00516e-05 0 0.000347451 3.98606e-05 0 0.000379738 3.96863e-05 0 0.000412019 3.95434e-05 0 0.000444296 3.94344e-05 0 0.00047657 3.93557e-05 0 0.000508842 3.93018e-05 0 0.000541113 3.92665e-05 0 0.000573383 3.92446e-05 0 0.000605654 3.92319e-05 0 0.000637924 3.9225e-05 0 0.000670194 3.92219e-05 0 0.000702464 3.92208e-05 0 0.000734735 3.92208e-05 0 0.000767005 3.92214e-05 0 0.000799275 3.92221e-05 0 0.000831546 3.92228e-05 0 0.000863816 3.92234e-05 0 0.000896086 3.92238e-05 0 0.000928357 3.92241e-05 0 0.000960627 3.92243e-05 0 0.000992898 3.92244e-05 0 0 0 0 2.67586e-05 1.04136e-05 0 5.6436e-05 1.9699e-05 0 8.78907e-05 2.65652e-05 0 0.000120119 3.09947e-05 0 0.000152615 3.35691e-05 0 0.000185169 3.49018e-05 0 0.000217701 3.5475e-05 0 0.000250186 3.56196e-05 0 0.000282621 3.55481e-05 0 0.000315011 3.53872e-05 0 0.000347365 3.52074e-05 0 0.00037969 3.50434e-05 0 0.000411995 3.49091e-05 0 0.000444286 3.48067e-05 0 0.000476568 3.47328e-05 0 0.000508844 3.46822e-05 0 0.000541116 3.46491e-05 0 0.000573387 3.46286e-05 0 0.000605657 3.46167e-05 0 0.000637927 3.46103e-05 0 0.000670196 3.46073e-05 0 0.000702466 3.46063e-05 0 0.000734735 3.46064e-05 0 0.000767005 3.46069e-05 0 0.000799276 3.46076e-05 0 0.000831546 3.46082e-05 0 0.000863816 3.46088e-05 0 0.000896087 3.46092e-05 0 0.000928357 3.46095e-05 0 0.000960627 3.46097e-05 0 0.000992898 3.46097e-05 0 0 0 0 2.65483e-05 8.81081e-06 0 5.58896e-05 1.67475e-05 0 8.71174e-05 2.27558e-05 0 0.000119305 2.67142e-05 0 0.000151885 2.90447e-05 0 0.000184577 3.02605e-05 0 0.000217254 3.07854e-05 0 0.000249867 3.09185e-05 0 0.000282405 3.08534e-05 0 0.000314872 3.07063e-05 0 0.000347279 3.05418e-05 0 0.000379641 3.03918e-05 0 0.00041197 3.02689e-05 0 0.000444275 3.01752e-05 0 0.000476565 3.01076e-05 0 0.000508845 3.00613e-05 0 0.000541119 3.00311e-05 0 0.00057339 3.00123e-05 0 0.00060566 3.00014e-05 0 0.000637929 2.99956e-05 0 0.000670198 2.99929e-05 0 0.000702467 2.9992e-05 0 0.000734736 2.9992e-05 0 0.000767006 2.99925e-05 0 0.000799276 2.99931e-05 0 0.000831546 2.99937e-05 0 0.000863816 2.99942e-05 0 0.000896087 2.99946e-05 0 0.000928357 2.99949e-05 0 0.000960627 2.9995e-05 0 0.000992898 2.99951e-05 0 0 0 0 2.63951e-05 7.31171e-06 0 5.54743e-05 1.39444e-05 0 8.64993e-05 1.90587e-05 0 0.000118625 2.24898e-05 0 0.000151257 2.45351e-05 0 0.000184055 2.56106e-05 0 0.000216853 2.60774e-05 0 0.000249578 2.61969e-05 0 0.000282206 2.61401e-05 0 0.000314742 2.60102e-05 0 0.000347199 2.58647e-05 0 0.000379594 2.57318e-05 0 0.000411945 2.5623e-05 0 0.000444263 2.554e-05 0 0.000476561 2.54802e-05 0 0.000508845 2.54392e-05 0 0.000541121 2.54124e-05 0 0.000573393 2.53957e-05 0 0.000605663 2.53861e-05 0 0.000637931 2.53809e-05 0 0.0006702 2.53785e-05 0 0.000702468 2.53777e-05 0 0.000734737 2.53777e-05 0 0.000767007 2.53782e-05 0 0.000799276 2.53787e-05 0 0.000831546 2.53792e-05 0 0.000863816 2.53797e-05 0 0.000896087 2.538e-05 0 0.000928357 2.53803e-05 0 0.000960627 2.53804e-05 0 0.000992898 2.53804e-05 0 0 0 0 2.62833e-05 5.89041e-06 0 5.51614e-05 1.126e-05 0 8.60148e-05 1.54591e-05 0 0.000118074 1.83188e-05 0 0.000150733 2.00426e-05 0 0.000183612 2.09558e-05 0 0.000216508 2.13544e-05 0 0.000249325 2.14577e-05 0 0.00028203 2.14104e-05 0 0.000314625 2.13006e-05 0 0.000347126 2.11772e-05 0 0.000379551 2.10644e-05 0 0.000411921 2.0972e-05 0 0.000444252 2.09015e-05 0 0.000476557 2.08506e-05 0 0.000508845 2.08158e-05 0 0.000541123 2.0793e-05 0 0.000573395 2.07788e-05 0 0.000605665 2.07706e-05 0 0.000637933 2.07662e-05 0 0.000670201 2.07642e-05 0 0.000702469 2.07635e-05 0 0.000734738 2.07635e-05 0 0.000767007 2.07639e-05 0 0.000799277 2.07643e-05 0 0.000831546 2.07648e-05 0 0.000863816 2.07652e-05 0 0.000896087 2.07654e-05 0 0.000928357 2.07656e-05 0 0.000960627 2.07658e-05 0 0.000992898 2.07658e-05 0 0 0 0 2.6203e-05 4.527e-06 0 5.49307e-05 8.66768e-06 0 8.56466e-05 1.194e-05 0 0.000117643 1.41952e-05 0 0.000150315 1.55673e-05 0 0.000183253 1.6299e-05 0 0.000216224 1.662e-05 0 0.000249115 1.67041e-05 0 0.000281883 1.66671e-05 0 0.000314528 1.65795e-05 0 0.000347064 1.64808e-05 0 0.000379514 1.63906e-05 0 0.000411901 1.63165e-05 0 0.000444242 1.626e-05 0 0.000476553 1.62192e-05 0 0.000508844 1.61913e-05 0 0.000541124 1.6173e-05 0 0.000573397 1.61616e-05 0 0.000605666 1.6155e-05 0 0.000637935 1.61515e-05 0 0.000670202 1.61499e-05 0 0.00070247 1.61493e-05 0 0.000734739 1.61493e-05 0 0.000767008 1.61496e-05 0 0.000799277 1.615e-05 0 0.000831547 1.61504e-05 0 0.000863817 1.61507e-05 0 0.000896087 1.61509e-05 0 0.000928357 1.6151e-05 0 0.000960627 1.61511e-05 0 0.000992898 1.61512e-05 0 0 0 0 2.61475e-05 3.20547e-06 0 5.47683e-05 6.14405e-06 0 8.53815e-05 8.48374e-06 0 0.000117326 1.01104e-05 0 0.000150002 1.11073e-05 0 0.000182981 1.16417e-05 0 0.000216007 1.18771e-05 0 0.000248953 1.19394e-05 0 0.000281769 1.19129e-05 0 0.000314451 1.18492e-05 0 0.000347015 1.17773e-05 0 0.000379485 1.17114e-05 0 0.000411884 1.16574e-05 0 0.000444234 1.16161e-05 0 0.00047655 1.15863e-05 0 0.000508844 1.15659e-05 0 0.000541125 1.15525e-05 0 0.000573398 1.15442e-05 0 0.000605668 1.15394e-05 0 0.000637936 1.15368e-05 0 0.000670203 1.15356e-05 0 0.000702471 1.15352e-05 0 0.000734739 1.15352e-05 0 0.000767008 1.15354e-05 0 0.000799277 1.15357e-05 0 0.000831547 1.1536e-05 0 0.000863817 1.15362e-05 0 0.000896087 1.15363e-05 0 0.000928357 1.15365e-05 0 0.000960627 1.15365e-05 0 0.000992898 1.15365e-05 0 0 0 0 2.61126e-05 1.91233e-06 0 5.46648e-05 3.66789e-06 0 8.52099e-05 5.07234e-06 0 0.000117118 6.05446e-06 0 0.000149794 6.65929e-06 0 0.000182798 6.98467e-06 0 0.000215861 7.12851e-06 0 0.000248843 7.16681e-06 0 0.000281692 7.1509e-06 0 0.000314399 7.11226e-06 0 0.000346982 7.06851e-06 0 0.000379465 7.02843e-06 0 0.000411873 6.99551e-06 0 0.000444228 6.97038e-06 0 0.000476547 6.95225e-06 0 0.000508843 6.9398e-06 0 0.000541125 6.93166e-06 0 0.000573399 6.92661e-06 0 0.000605669 6.92366e-06 0 0.000637936 6.92208e-06 0 0.000670204 6.92135e-06 0 0.000702471 6.9211e-06 0 0.00073474 6.92112e-06 0 0.000767008 6.92124e-06 0 0.000799277 6.92141e-06 0 0.000831547 6.92157e-06 0 0.000863817 6.9217e-06 0 0.000896087 6.9218e-06 0 0.000928357 6.92187e-06 0 0.000960627 6.92192e-06 0 0.000992898 6.92193e-06 0 0 0 0 2.60957e-05 6.35643e-07 0 5.46144e-05 1.21957e-06 0 8.51256e-05 1.6878e-06 0 0.000117015 2.01617e-06 0 0.00014969 2.21889e-06 0 0.000182706 2.32816e-06 0 0.000215787 2.37654e-06 0 0.000248788 2.38946e-06 0 0.000281652 2.38416e-06 0 0.000314372 2.37121e-06 0 0.000346965 2.35653e-06 0 0.000379455 2.34308e-06 0 0.000411867 2.33202e-06 0 0.000444225 2.32358e-06 0 0.000476546 2.31749e-06 0 0.000508843 2.31331e-06 0 0.000541125 2.31058e-06 0 0.000573399 2.30888e-06 0 0.000605669 2.30789e-06 0 0.000637937 2.30736e-06 0 0.000670204 2.30712e-06 0 0.000702472 2.30703e-06 0 0.00073474 2.30704e-06 0 0.000767008 2.30708e-06 0 0.000799277 2.30713e-06 0 0.000831547 2.30719e-06 0 0.000863817 2.30723e-06 0 0.000896087 2.30727e-06 0 0.000928357 2.30729e-06 0 0.000960627 2.30731e-06 0 0.000992898 2.30731e-06 0 0 0 0 2.60957e-05 -6.35643e-07 0 5.46144e-05 -1.21957e-06 0 8.51256e-05 -1.6878e-06 0 0.000117015 -2.01617e-06 0 0.00014969 -2.21889e-06 0 0.000182706 -2.32816e-06 0 0.000215787 -2.37654e-06 0 0.000248788 -2.38946e-06 0 0.000281652 -2.38416e-06 0 0.000314372 -2.37121e-06 0 0.000346965 -2.35653e-06 0 0.000379455 -2.34308e-06 0 0.000411867 -2.33202e-06 0 0.000444225 -2.32358e-06 0 0.000476546 -2.31749e-06 0 0.000508843 -2.31331e-06 0 0.000541125 -2.31058e-06 0 0.000573399 -2.30888e-06 0 0.000605669 -2.30789e-06 0 0.000637937 -2.30736e-06 0 0.000670204 -2.30712e-06 0 0.000702472 -2.30703e-06 0 0.00073474 -2.30704e-06 0 0.000767008 -2.30708e-06 0 0.000799277 -2.30713e-06 0 0.000831547 -2.30719e-06 0 0.000863817 -2.30723e-06 0 0.000896087 -2.30727e-06 0 0.000928357 -2.30729e-06 0 0.000960627 -2.30731e-06 0 0.000992898 -2.30731e-06 0 0 0 0 2.61126e-05 -1.91233e-06 0 5.46648e-05 -3.66789e-06 0 8.52099e-05 -5.07234e-06 0 0.000117118 -6.05446e-06 0 0.000149794 -6.65929e-06 0 0.000182798 -6.98467e-06 0 0.000215861 -7.12851e-06 0 0.000248843 -7.16681e-06 0 0.000281692 -7.1509e-06 0 0.000314399 -7.11226e-06 0 0.000346982 -7.06851e-06 0 0.000379465 -7.02843e-06 0 0.000411873 -6.99551e-06 0 0.000444228 -6.97038e-06 0 0.000476547 -6.95225e-06 0 0.000508843 -6.9398e-06 0 0.000541125 -6.93166e-06 0 0.000573399 -6.92661e-06 0 0.000605669 -6.92366e-06 0 0.000637936 -6.92208e-06 0 0.000670204 -6.92135e-06 0 0.000702471 -6.9211e-06 0 0.00073474 -6.92112e-06 0 0.000767008 -6.92124e-06 0 0.000799277 -6.92141e-06 0 0.000831547 -6.92157e-06 0 0.000863817 -6.9217e-06 0 0.000896087 -6.9218e-06 0 0.000928357 -6.92187e-06 0 0.000960627 -6.92192e-06 0 0.000992898 -6.92193e-06 0 0 0 0 2.61475e-05 -3.20547e-06 0 5.47683e-05 -6.14405e-06 0 8.53815e-05 -8.48374e-06 0 0.000117326 -1.01104e-05 0 0.000150002 -1.11073e-05 0 0.000182981 -1.16417e-05 0 0.000216007 -1.18771e-05 0 0.000248953 -1.19394e-05 0 0.000281769 -1.19129e-05 0 0.000314451 -1.18492e-05 0 0.000347015 -1.17773e-05 0 0.000379485 -1.17114e-05 0 0.000411884 -1.16574e-05 0 0.000444234 -1.16161e-05 0 0.00047655 -1.15863e-05 0 0.000508844 -1.15659e-05 0 0.000541125 -1.15525e-05 0 0.000573398 -1.15442e-05 0 0.000605668 -1.15394e-05 0 0.000637936 -1.15368e-05 0 0.000670203 -1.15356e-05 0 0.000702471 -1.15352e-05 0 0.000734739 -1.15352e-05 0 0.000767008 -1.15354e-05 0 0.000799277 -1.15357e-05 0 0.000831547 -1.1536e-05 0 0.000863817 -1.15362e-05 0 0.000896087 -1.15363e-05 0 0.000928357 -1.15365e-05 0 0.000960627 -1.15365e-05 0 0.000992898 -1.15365e-05 0 0 0 0 2.6203e-05 -4.527e-06 0 5.49307e-05 -8.66768e-06 0 8.56466e-05 -1.194e-05 0 0.000117643 -1.41952e-05 0 0.000150315 -1.55673e-05 0 0.000183253 -1.6299e-05 0 0.000216224 -1.662e-05 0 0.000249115 -1.67041e-05 0 0.000281883 -1.66671e-05 0 0.000314528 -1.65795e-05 0 0.000347064 -1.64808e-05 0 0.000379514 -1.63906e-05 0 0.000411901 -1.63165e-05 0 0.000444242 -1.626e-05 0 0.000476553 -1.62192e-05 0 0.000508844 -1.61913e-05 0 0.000541124 -1.6173e-05 0 0.000573397 -1.61616e-05 0 0.000605666 -1.6155e-05 0 0.000637935 -1.61515e-05 0 0.000670202 -1.61499e-05 0 0.00070247 -1.61493e-05 0 0.000734739 -1.61493e-05 0 0.000767008 -1.61496e-05 0 0.000799277 -1.615e-05 0 0.000831547 -1.61504e-05 0 0.000863817 -1.61507e-05 0 0.000896087 -1.61509e-05 0 0.000928357 -1.6151e-05 0 0.000960627 -1.61511e-05 0 0.000992898 -1.61512e-05 0 0 0 0 2.62833e-05 -5.89041e-06 0 5.51614e-05 -1.126e-05 0 8.60148e-05 -1.54591e-05 0 0.000118074 -1.83188e-05 0 0.000150733 -2.00426e-05 0 0.000183612 -2.09558e-05 0 0.000216508 -2.13544e-05 0 0.000249325 -2.14577e-05 0 0.00028203 -2.14104e-05 0 0.000314625 -2.13006e-05 0 0.000347126 -2.11772e-05 0 0.000379551 -2.10644e-05 0 0.000411921 -2.0972e-05 0 0.000444252 -2.09015e-05 0 0.000476557 -2.08506e-05 0 0.000508845 -2.08158e-05 0 0.000541123 -2.0793e-05 0 0.000573395 -2.07788e-05 0 0.000605665 -2.07706e-05 0 0.000637933 -2.07662e-05 0 0.000670201 -2.07642e-05 0 0.000702469 -2.07635e-05 0 0.000734738 -2.07635e-05 0 0.000767007 -2.07639e-05 0 0.000799277 -2.07643e-05 0 0.000831546 -2.07648e-05 0 0.000863816 -2.07652e-05 0 0.000896087 -2.07654e-05 0 0.000928357 -2.07656e-05 0 0.000960627 -2.07658e-05 0 0.000992898 -2.07658e-05 0 0 0 0 2.63951e-05 -7.31171e-06 0 5.54743e-05 -1.39444e-05 0 8.64993e-05 -1.90587e-05 0 0.000118625 -2.24898e-05 0 0.000151257 -2.45351e-05 0 0.000184055 -2.56106e-05 0 0.000216853 -2.60774e-05 0 0.000249578 -2.61969e-05 0 0.000282206 -2.61401e-05 0 0.000314742 -2.60102e-05 0 0.000347199 -2.58647e-05 0 0.000379594 -2.57318e-05 0 0.000411945 -2.5623e-05 0 0.000444263 -2.554e-05 0 0.000476561 -2.54802e-05 0 0.000508845 -2.54392e-05 0 0.000541121 -2.54124e-05 0 0.000573393 -2.53957e-05 0 0.000605663 -2.53861e-05 0 0.000637931 -2.53809e-05 0 0.0006702 -2.53785e-05 0 0.000702468 -2.53777e-05 0 0.000734737 -2.53777e-05 0 0.000767007 -2.53782e-05 0 0.000799276 -2.53787e-05 0 0.000831546 -2.53792e-05 0 0.000863816 -2.53797e-05 0 0.000896087 -2.538e-05 0 0.000928357 -2.53803e-05 0 0.000960627 -2.53804e-05 0 0.000992898 -2.53804e-05 0 0 0 0 2.65483e-05 -8.81081e-06 0 5.58896e-05 -1.67475e-05 0 8.71174e-05 -2.27558e-05 0 0.000119305 -2.67142e-05 0 0.000151885 -2.90447e-05 0 0.000184577 -3.02605e-05 0 0.000217254 -3.07854e-05 0 0.000249867 -3.09185e-05 0 0.000282405 -3.08534e-05 0 0.000314872 -3.07063e-05 0 0.000347279 -3.05418e-05 0 0.000379641 -3.03918e-05 0 0.00041197 -3.02689e-05 0 0.000444275 -3.01752e-05 0 0.000476565 -3.01076e-05 0 0.000508845 -3.00613e-05 0 0.000541119 -3.00311e-05 0 0.00057339 -3.00123e-05 0 0.00060566 -3.00014e-05 0 0.000637929 -2.99956e-05 0 0.000670198 -2.99929e-05 0 0.000702467 -2.9992e-05 0 0.000734736 -2.9992e-05 0 0.000767006 -2.99925e-05 0 0.000799276 -2.99931e-05 0 0.000831546 -2.99937e-05 0 0.000863816 -2.99942e-05 0 0.000896087 -2.99946e-05 0 0.000928357 -2.99949e-05 0 0.000960627 -2.9995e-05 0 0.000992898 -2.99951e-05 0 0 0 0 2.67586e-05 -1.04136e-05 0 5.6436e-05 -1.9699e-05 0 8.78907e-05 -2.65652e-05 0 0.000120119 -3.09947e-05 0 0.000152615 -3.35691e-05 0 0.000185169 -3.49018e-05 0 0.000217701 -3.5475e-05 0 0.000250186 -3.56196e-05 0 0.000282621 -3.55481e-05 0 0.000315011 -3.53872e-05 0 0.000347365 -3.52074e-05 0 0.00037969 -3.50434e-05 0 0.000411995 -3.49091e-05 0 0.000444286 -3.48067e-05 0 0.000476568 -3.47328e-05 0 0.000508844 -3.46822e-05 0 0.000541116 -3.46491e-05 0 0.000573387 -3.46286e-05 0 0.000605657 -3.46167e-05 0 0.000637927 -3.46103e-05 0 0.000670196 -3.46073e-05 0 0.000702466 -3.46063e-05 0 0.000734735 -3.46064e-05 0 0.000767005 -3.46069e-05 0 0.000799276 -3.46076e-05 0 0.000831546 -3.46082e-05 0 0.000863816 -3.46088e-05 0 0.000896087 -3.46092e-05 0 0.000928357 -3.46095e-05 0 0.000960627 -3.46097e-05 0 0.000992898 -3.46097e-05 0 0 0 0 2.70507e-05 -1.2155e-05 0 5.71538e-05 -2.28322e-05 0 8.88439e-05 -3.04978e-05 0 0.000121075 -3.53299e-05 0 0.000153442 -3.81032e-05 0 0.000185822 -3.95295e-05 0 0.000218183 -4.01421e-05 0 0.000250525 -4.02973e-05 0 0.000282847 -4.02221e-05 0 0.000315155 -4.00516e-05 0 0.000347451 -3.98606e-05 0 0.000379738 -3.96863e-05 0 0.000412019 -3.95434e-05 0 0.000444296 -3.94344e-05 0 0.00047657 -3.93557e-05 0 0.000508842 -3.93018e-05 0 0.000541113 -3.92665e-05 0 0.000573383 -3.92446e-05 0 0.000605654 -3.92319e-05 0 0.000637924 -3.9225e-05 0 0.000670194 -3.92219e-05 0 0.000702464 -3.92208e-05 0 0.000734735 -3.92208e-05 0 0.000767005 -3.92214e-05 0 0.000799275 -3.92221e-05 0 0.000831546 -3.92228e-05 0 0.000863816 -3.92234e-05 0 0.000896086 -3.92238e-05 0 0.000928357 -3.92241e-05 0 0.000960627 -3.92243e-05 0 0.000992898 -3.92244e-05 0 0 0 0 2.7465e-05 -1.40844e-05 0 5.80987e-05 -2.61821e-05 0 9.00045e-05 -3.45581e-05 0 0.000122175 -3.97131e-05 0 0.000154357 -4.26397e-05 0 0.000186522 -4.41376e-05 0 0.00021869 -4.47829e-05 0 0.000250872 -4.4949e-05 0 0.000283075 -4.48741e-05 0 0.000315296 -4.46986e-05 0 0.000347533 -4.45011e-05 0 0.000379782 -4.43203e-05 0 0.00041204 -4.41718e-05 0 0.000444303 -4.40583e-05 0 0.000476569 -4.39764e-05 0 0.000508838 -4.39201e-05 0 0.000541108 -4.38833e-05 0 0.000573379 -4.38604e-05 0 0.00060565 -4.3847e-05 0 0.000637921 -4.38398e-05 0 0.000670192 -4.38365e-05 0 0.000702463 -4.38353e-05 0 0.000734734 -4.38354e-05 0 0.000767004 -4.3836e-05 0 0.000799275 -4.38367e-05 0 0.000831545 -4.38374e-05 0 0.000863816 -4.3838e-05 0 0.000896086 -4.38385e-05 0 0.000928357 -4.38388e-05 0 0.000960627 -4.3839e-05 0 0.000992898 -4.38391e-05 0 0 0 0 2.80696e-05 -1.62719e-05 0 5.93464e-05 -2.97815e-05 0 9.13974e-05 -3.87399e-05 0 0.000123417 -4.41324e-05 0 0.000155344 -4.71677e-05 0 0.000187254 -4.87199e-05 0 0.000219204 -4.93937e-05 0 0.000251217 -4.9573e-05 0 0.000283294 -4.95032e-05 0 0.000315429 -4.93282e-05 0 0.000347608 -4.91289e-05 0 0.00037982 -4.89455e-05 0 0.000412055 -4.87944e-05 0 0.000444306 -4.86786e-05 0 0.000476567 -4.85949e-05 0 0.000508833 -4.85373e-05 0 0.000541103 -4.84995e-05 0 0.000573374 -4.84759e-05 0 0.000605646 -4.84621e-05 0 0.000637918 -4.84547e-05 0 0.00067019 -4.84512e-05 0 0.000702461 -4.845e-05 0 0.000734733 -4.845e-05 0 0.000767004 -4.84506e-05 0 0.000799274 -4.84513e-05 0 0.000831545 -4.8452e-05 0 0.000863816 -4.84526e-05 0 0.000896086 -4.84531e-05 0 0.000928357 -4.84534e-05 0 0.000960627 -4.84536e-05 0 0.000992898 -4.84537e-05 0 0 0 0 2.89861e-05 -1.88203e-05 0 6.09912e-05 -3.36499e-05 0 9.30415e-05 -4.30237e-05 0 0.000124789 -4.85692e-05 0 0.000156383 -5.16746e-05 0 0.000187996 -5.32697e-05 0 0.000219709 -5.39713e-05 0 0.000251544 -5.41681e-05 0 0.000283497 -5.41096e-05 0 0.000315546 -5.39406e-05 0 0.00034767 -5.37447e-05 0 0.000379848 -5.35626e-05 0 0.000412064 -5.34118e-05 0 0.000444305 -5.32958e-05 0 0.000476561 -5.32116e-05 0 0.000508826 -5.31535e-05 0 0.000541096 -5.31153e-05 0 0.000573368 -5.30914e-05 0 0.000605642 -5.30773e-05 0 0.000637915 -5.30697e-05 0 0.000670187 -5.30661e-05 0 0.00070246 -5.30648e-05 0 0.000734732 -5.30647e-05 0 0.000767003 -5.30653e-05 0 0.000799274 -5.3066e-05 0 0.000831545 -5.30667e-05 0 0.000863816 -5.30673e-05 0 0.000896086 -5.30678e-05 0 0.000928357 -5.30681e-05 0 0.000960627 -5.30683e-05 0 0.000992898 -5.30684e-05 0 0 0 0 3.04329e-05 -2.18703e-05 0 6.31401e-05 -3.7776e-05 0 9.49381e-05 -4.73737e-05 0 0.000126273 -5.30003e-05 0 0.000157442 -5.61453e-05 0 0.000188726 -5.77822e-05 0 0.000220185 -5.85126e-05 0 0.000251841 -5.87348e-05 0 0.000283671 -5.86936e-05 0 0.00031564 -5.85373e-05 0 0.000347715 -5.83494e-05 0 0.000379864 -5.81725e-05 0 0.000412065 -5.80247e-05 0 0.000444298 -5.79103e-05 0 0.000476552 -5.78269e-05 0 0.000508817 -5.77691e-05 0 0.000541089 -5.77308e-05 0 0.000573363 -5.77068e-05 0 0.000605637 -5.76926e-05 0 0.000637912 -5.76848e-05 0 0.000670185 -5.76811e-05 0 0.000702458 -5.76797e-05 0 0.000734731 -5.76796e-05 0 0.000767003 -5.768e-05 0 0.000799274 -5.76807e-05 0 0.000831545 -5.76814e-05 0 0.000863816 -5.7682e-05 0 0.000896086 -5.76824e-05 0 0.000928357 -5.76828e-05 0 0.000960627 -5.7683e-05 0 0.000992898 -5.76831e-05 0 0 0 0 3.28222e-05 -2.5599e-05 0 6.58574e-05 -4.20796e-05 0 9.70825e-05 -5.17498e-05 0 0.000127824 -5.73908e-05 0 0.000158489 -6.05692e-05 0 0.000189413 -6.22512e-05 0 0.000220608 -6.30174e-05 0 0.000252091 -6.32743e-05 0 0.000283805 -6.32574e-05 0 0.000315704 -6.31202e-05 0 0.000347738 -6.2945e-05 0 0.000379865 -6.27767e-05 0 0.000412056 -6.26342e-05 0 0.000444286 -6.2523e-05 0 0.00047654 -6.24413e-05 0 0.000508807 -6.23843e-05 0 0.00054108 -6.23464e-05 0 0.000573356 -6.23224e-05 0 0.000605633 -6.23081e-05 0 0.000637909 -6.23001e-05 0 0.000670184 -6.22962e-05 0 0.000702457 -6.22947e-05 0 0.00073473 -6.22945e-05 0 0.000767002 -6.22948e-05 0 0.000799274 -6.22955e-05 0 0.000831545 -6.22961e-05 0 0.000863816 -6.22967e-05 0 0.000896086 -6.22971e-05 0 0.000928357 -6.22974e-05 0 0.000960627 -6.22976e-05 0 0.000992898 -6.22978e-05 0 0 0 0 3.68337e-05 -3.01024e-05 0 6.91043e-05 -4.64086e-05 0 9.9464e-05 -5.6106e-05 0 0.00012936 -6.16975e-05 0 0.00015949 -6.49429e-05 0 0.000190018 -6.66696e-05 0 0.000220958 -6.74887e-05 0 0.000252276 -6.77888e-05 0 0.000283889 -6.78042e-05 0 0.000315732 -6.76923e-05 0 0.000347735 -6.75336e-05 0 0.000379849 -6.7377e-05 0 0.000412035 -6.72415e-05 0 0.000444267 -6.71347e-05 0 0.000476523 -6.70554e-05 0 0.000508794 -6.69995e-05 0 0.000541071 -6.69621e-05 0 0.00057335 -6.69382e-05 0 0.000605629 -6.69237e-05 0 0.000637906 -6.69156e-05 0 0.000670182 -6.69115e-05 0 0.000702456 -6.69098e-05 0 0.00073473 -6.69094e-05 0 0.000767002 -6.69097e-05 0 0.000799274 -6.69103e-05 0 0.000831545 -6.69109e-05 0 0.000863816 -6.69114e-05 0 0.000896086 -6.69118e-05 0 0.000928357 -6.69121e-05 0 0.000960628 -6.69123e-05 0 0.000992898 -6.69125e-05 0 0 0 0 4.28697e-05 -3.48681e-05 0 7.3003e-05 -5.07412e-05 0 0.000101878 -6.02895e-05 0 0.000130849 -6.59305e-05 0 0.000160383 -6.92462e-05 0 0.000190505 -7.10397e-05 0 0.000221211 -7.19314e-05 0 0.000252378 -7.2281e-05 0 0.000283914 -7.23402e-05 0 0.000315715 -7.22564e-05 0 0.000347702 -7.2119e-05 0 0.000379813 -7.19753e-05 0 0.000412003 -7.18484e-05 0 0.00044424 -7.17464e-05 0 0.000476504 -7.16698e-05 0 0.00050878 -7.16152e-05 0 0.000541061 -7.15782e-05 0 0.000573343 -7.15543e-05 0 0.000605625 -7.15397e-05 0 0.000637904 -7.15313e-05 0 0.000670181 -7.15269e-05 0 0.000702456 -7.1525e-05 0 0.00073473 -7.15244e-05 0 0.000767002 -7.15246e-05 0 0.000799274 -7.15251e-05 0 0.000831545 -7.15256e-05 0 0.000863816 -7.15261e-05 0 0.000896087 -7.15265e-05 0 0.000928357 -7.15268e-05 0 0.000960628 -7.1527e-05 0 0.000992898 -7.15271e-05 0 </DataArray> 
</PointData> 
<Points> 
<DataArray type="Float32" NumberOfComponents="3"> 