<?xml version="1.0"?> 
<VTKFile type="StructuredGrid" version="0.1"> 
<StructuredGrid WholeExtent="0 31 0 31 0 0"> 
<Piece Extent="0 31 0 31 0 0"> 
<PointData>
<DataArray type="Float32" Name="u" format="ascii" NumberOfComponents="3"> 
0 0 0 0 0 0 0 0 0 0 0 0 0 0 0 0 0 0 0 0 0 0 0 0 0 0 0 0 0 0 0 0 0 0 0 0 0 0 0 0 0 0 0 0 0 0 0 0 0 0 0 0 0 0 0 0 0 0 0 0 0 0 0 0 0 0 0 0 0 0 0 0 0 0 0 0 0 0 0 0 0 0 0 0 0 0 0 0 0 0 0 0 0 0 0 0 0 0 0 0 0 0 0 0 0 0 0 0 0 0 0 0 0 0 0 0 0 0 0 0 0 0 0 0 0 0 0 0 0 0 0 0 0 0 0 0 0 0 0 0 0 0 0 0 0 0 0 0 0 0 0 0 0 0 0 0 0 0 0 0 0 0 0 0 0 0 0 0 0 0 0 0 0 0 0 0 0 0 0 0 0 0 0 0 0 0 0 0 0 0 0 0 0 0 0 0 0 0 0 0 0 0 0 0 0 0 0 0 0 0 0 0 0 0 0 0 0 0 0 0 0 0 0 0 0 0 0 0 0 0 0 0 0 0 0 0 0 0 0 0 0 0 0 0 0 0 0 0 0 0 0 0 0 0 0 0 0 0 0 0 0 0 0 0 0 0 0 0 0 0 0 0 0 0 0 0 0 0 0 0 0 0 0 0 0 0 0 0 0 0 0 0 0 0 0 0 0 0 0 0 0 0 0 0 0 0 0 0 0 0 0 0 0 0 0 0 0 0 0 0 0 0 0 0 0 0 0 0 0 0 0 0 0 0 0 0 0 0 0 0 0 0 0 0 0 0 0 0 0 0 0 0 0 0 0 0 0 0 0 0 0 0 0 0 0 0 0 0 0 0 0 0 0 0 0 0 0 0 0 0 0 0 0 0 0 0 0 0 0 0 0 0 0 0 0 0 0 0 0 0 0 0 0 0 0 0 0 0 0 0 0 0 0 0 0 0 0 0 0 0 0 0 0 0 0 0 0 0 0 0 0 0 0 0 0 0 0 0 0 0 0 0 0 0 0 0 0 0 0 0 0 0 0 0 0 0 0 0 0 0 0 0 0 0 0 0 0 0 0 0 0 0 0 0 0 0 0 0 0 0 0 0 0 0 0 0 0 0 0 0 0 0 0 0 0 0 0 0 0 0 0 0 0 0 0 0 0 0 0 0 0 0 0 0 0 0 0 0 0 0 0 0 0 0 0 0 0 0 0 0 0 0 0 0 0 0 0 0 0 0 0 0 0 0 0 0 0 0 0 0 0 0 0 0 0 0 0 0 0 0 0 0 0 0 0 0 0 0 0 0 0 0 0 0 0 0 0 0 0 0 0 0 0 0 0 0 0 0 0 0 0 0 0 0 0 0 0 0 0 0 0 0 0 0 0 0 0 0 0 0 0 0 0 0 0 0 0 0 0 0 0 0 0 0 0 0 0 0 0 0 0 0 0 0 0 0 0 0 0 0 0 0 0 0 0 0 0 0 0 0 0 0 0 0 0 0 0 0 0 0 0 0 0 0 0 0 0 0 0 0 0 0 0 0 0 0 0 0 0 0 0 0 0 0 0 0 0 0 0 0 0 0 0 0 0 0 0 0 0 0 0 0 0 0 0 0 0 0 0 0 0 0 0 0 0 0 0 0 0 0 0 0 0 0 0 0 0 0 0 0 0 0 0 0 0 0 0 0 0 0 0 0 0 0 0 0 0 0 0 0 0 0 0 0 0 0 0 0 0 0 0 0 0 0 0 0 0 0 0 0 0 0 0 0 0 0 0 0 0 0 0 0 0 0 0 0 0 0 0 0 0 0 0 0 0 0 0 0 0 0 0 0 0 0 0 0 0 0 0 0 0 0 0 0 0 0 0 0 0 0 0 0 0 0 0 0 0 0 0 0 0 0 0 0 0 0 0 0 0 0 0 0 0 0 0 0 0 0 0 0 0 0 0 0 0 0 0 0 0 0 0 0 0 0 0 0 0 0 0 0 0 0 0 0 0 0 0 0 0 0 0 0 0 0 0 0 0 0 0 0 0 0 0 0 0 0 0 0 0 0 0 0 0 0 0 0 0 0 0 0 0 0 0 0 0 0 0 0 0 0 0 0 0 0 0 0 0 0 0 0 0 0 0 0 0 0 0 0 0 0 0 0 0 0 0 0 0 0 0 0 0 0 0 0 0 0 0 0 0 0 0 0 0 0 0 0 0 0 0 0 0 0 0 0 0 0 0 0 0 0 0 0 0 0 0 0 0 0 0 0 0 0 0 0 0 0 0 0 0 0 0 0 0 0 0 0 0 0 0 0 0 0 0 0 0 0 0 0 0 0 0 0 0 0 0 0 0 0 0 0 0 0 0 0 0 0 0 0 0 0 0 0 0 0 0 0 0 0 0 0 0 0 0 0 0 0 0 0 0 0 0 0 0 0 0 0 0 0 0 0 0 0 0 0 0 0 0 0 0 0 0 0 0 0 0 0 0 0 0 0 0 0 0 0 0 0 0 0 0 0 0 0 0 0 0 0 0 0 0 0 0 0 0 0 0 0 0 0 0 0 0 0 0 0 0 0 0 0 0 0 0 0 0 0 0 0 0 0 0 0 0 0 0 0 0 0 0 0 0 0 0 0 0 0 0 0 0 0 0 0 0 0 0 0 0 0 0 0 0 0 0 0 0 0 0 0 0 0 0 0 0 0 0 0 0 0 0 0 0 0 0 0 0 0 0 0 0 0 0 0 0 0 0 0 0 0 0 0 0 0 0 0 0 0 0 0 0 0 0 0 0 0 0 0 0 0 0 0 0 0 0 0 0 0 0 0 0 0 0 0 0 0 0 0 0 0 0 0 0 0 0 0 0 0 0 0 0 0 0 0 0 0 0 0 0 0 0 0 0 0 0 0 0 0 0 0 0 0 0 0 0 0 0 0 0 0 0 0 0 0 0 0 0 0 0 0 0 0 0 0 0 0 0 0 0 0 0 0 0 0 0 0 0 0 0 0 0 0 0 0 0 0 0 0 0 0 0 0 0 0 0 0 0 0 0 0 0 0 0 0 0 0 0 0 0 0 0 0 0 0 0 0 0 0 0 0 0 0 0 0 0 0 0 0 0 0 0 0 0 0 0 0 0 0 0 0 0 0 0 0 0 0 0 0 0 0 0 0 0 0 0 0 0 0 0 0 0 0 0 0 0 0 0 0 0 0 0 0 0 0 0 0 0 0 0 0 0 0 0 0 0 0 0 0 0 0 0 0 0 0 0 0 0 0 0 0 0 0 0 0 0 0 0 0 0 0 0 0 0 0 0 0 0 0 0 0 0 0 0 0 0 0 0 0 0 0 0 0 0 0 0 0 0 0 0 0 0 0 0 0 0 0 0 0 0 0 0 0 0 0 0 0 0 0 0 0 0 0 0 0 0 0 0 0 0 0 0 0 0 0 0 0 0 0 0 0 0 0 0 0 0 0 0 0 0 0 0 0 0 0 0 0 0 0 0 0 0 0 0 0 0 0 0 0 0 0 0 0 0 0 0 0 0 0 0 0 0 0 0 0 0 0 0 0 0 0 0 0 0 0 0 0 0 0 0 0 0 0 0 0 0 0 0 0 0 0 0 0 0 0 0 0 0 0 0 0 0 0 0 0 0 0 0 0 0 0 0 0 0 0 0 0 0 0 0 0 0 0 0 0 0 0 0 0 0 0 0 0 0 0 0 0 0 0 0 0 0 0 0 0 0 0 0 0 0 0 0 0 0 0 0 0 0 0 0 0 0 0 0 0 0 0 0 0 0 0 0 0 0 0 0 0 0 0 0 0 0 0 0 0 0 0 0 0 0 0 0 0 0 0 0 0 0 0 0 0 0 0 0 0 0 0 0 0 0 0 0 0 0 0 0 0 0 0 0 0 0 0 0 0 0 0 0 0 0 0 0 0 0 0 0 0 0 0 0 0 0 0 0 0 0 0 0 0 0 0 0 0 0 0 0 0 0 0 0 0 0 0 0 0 0 0 0 0 0 0 0 0 0 0 0 0 0 0 0 0 0 0 0 0 0 0 0 0 0 0 0 0 0 0 0 0 0 0 0 0 0 0 0 0 0 0 0 0 0 0 0 0 0 0 0 0 0 0 0 0 0 0 0 0 0 0 0 0 0 0 0 0 0 0 0 0 0 0 0 0 0 0 0 0 0 0 0 0 0 0 0 0 0 0 0 0 0 0 0 0 0 0 0 0 0 0 0 0 0 0 0 0 0 0 0 0 0 0 0 0 0 0 0 0 0 0 0 0 0 0 0 0 0 0 0 0 0 0 0 0 0 0 0 0 0 0 0 0 0 0 0 0 0 0 0 0 0 0 0 0 0 0 0 0 0 0 0 0 0 0 0 0 0 0 0 0 0 0 0 0 0 0 0 0 0 0 0 0 0 0 0 0 0 0 0 0 0 0 0 0 0 0 0 0 0 0 0 0 0 0 0 0 0 0 0 0 0 0 0 0 0 0 0 0 0 0 0 0 0 0 0 0 0 0 0 0 0 0 0 0 0 0 0 0 0 0 0 0 0 0 0 0 0 0 0 0 0 0 0 0 0 0 0 0 0 0 0 0 0 0 0 0 0 0 0 0 0 0 0 0 0 0 0 0 0 0 0 0 0 0 0 0 0 0 0 0 0 0 0 0 0 0 0 0 0 0 0 0 0 0 0 0 0 0 0 0 0 0 0 0 0 0 0 0 0 0 0 0 0 0 0 0 0 0 0 0 0 0 0 0 0 0 0 0 0 0 0 0 0 0 0 0 0 0 0 0 0 0 0 0 0 0 0 0 0 0 0 0 0 0 0 0 0 0 0 0 0 0 0 0 0 0 0 0 0 0 0 0 0 0 0 0 0 0 0 0 0 0 0 0 0 0 0 0 0 0 0 0 0 0 0 0 0 0 0 0 0 0 0 0 0 0 0 0 0 0 0 0 0 0 0 0 0 0 0 0 0 0 0 0 0 0 0 0 0 0 0 0 0 0 0 0 0 0 0 0 0 0 0 0 0 0 0 0 0 0 0 0 0 0 0 0 0 0 0 0 0 0 0 0 0 0 0 0 0 0 0 0 0 0 0 0 0 0 0 0 0 0 0 0 0 0 0 0 0 0 0 0 0 0 0 0 0 0 0 0 0 0 0 0 0 0 0 0 0 0 0 0 0 0 0 0 0 0 0 0 0 0 0 0 0 0 0 0 0 0 0 0 0 0 0 0 0 0 0 0 0 0 0 0 0 0 0 0 0 0 0 0 0 0 0 0 0 0 0 0 0 0 0 0 0 0 0 0 0 0 0 0 0 0 0 0 0 0 0 0 0 0 0 0 0 0 0 0 0 0 0 0 0 0 0 0 0 0 0 0 0 0 0 0 0 0 0 0 0 0 0 0 0 0 0 0 0 0 0 0 0 0 0 0 0 0 0 0 0 0 0 0 0 0 0 0 0 0 0 0 0 0 0 0 0 0 0 0 0 0 0 0 0 0 0 0 0 0 0 0 0 0 0 0 0 0 0 0 0 0 0 0 0 0 0 0 0 0 0 0 0 0 0 0 0 0 0 0 0 0 0 0 0 0 0 0 0 0 0 0 0 0 0 0 0 0 0 0 0 0 0 0 0 0 0 0 0 0 0 0 0 0 0 0 0 0 0 0 0 0 0 0 0 0 0 0 0 0 0 0 0 0 0 0 0 0 0 0 0 0 0 0 0 0 0 0 0 0 0 0 0 0 0 0 0 0 0 0 0 0 0 0 0 0 0 0 0 0 0 0 0 0 0 0 0 0 0 0 0 0 0 0 0 0 0 0 0 0 0 0 0 0 0 0 0 0 0 0 0 0 0 0 0 0 0 0 0 0 0 0 0 0 0 0 0 0 0 0 0 0 0 0 0 0 0 0 0 0 0 0 0 0 0 0 0 0 0 0 0 0 0 0 0 0 0 0 0 0 0 0 0 0 0 0 0 0 0 0 0 0 0 0 0 0 0 0 0 0 0 0 0 0 0 0 0 0 0 0 0 0 0 0 0 0 0 0 0 0 0 0 0 0 0 0 0 0 0 0 0 0 0 0 0 0 0 0 0 0 0 0 0 0 0 0 0 0 0 0 0 0 0 0 0 0 0 0 0 0 0 0 0 0 0 0 0 0 0 0 0 0 0 0 0 0 0 0 0 0 0 0 0 0 0 0 0 0 0 0 0 0 0 0 0 0 0 0 0 0 0 0 0 0 0 0 0 0 0 0 0 0 0 0 0 0 0 0 0 0 0 0 0 0 0 0 0 0 0 0 0 0 0 0 0 0 0 0 0 0 0 0 0 0 0 0 0 0 0 0 0 0 0 0 0 0 0 0 0 0 0 0 0 0 0 0 0 0 0 0 0 0 0 0 0 0 0 0 0 0 0 0 0 0 0 0 0 0 0 0 0 0 0 0 0 0 0 0 0 0 0 0 0 0 0 0 0 0 0 0 0 0 0 0 0 0 0 0 0 0 0 0 0 0 0 0 0 0 0 0 0 0 0 0 0 0 0 0 0 0 0 0 0 0 0 0 0 0 0 0 0 0 0 0 0 0 0 0 0 0 0 0 0 0 0 0 0 0 0 0 0 0 0 0 0 0 0 0 0 0 0 0 0 0 0 0 0 0 0 0 0 0 0 0 0 0 0 0 0 0 0 0 0 0 0 0 0 0 0 0 0 0 0 0 0 0 0 0 0 0 0 0 0 0 0 0 0.000992898 7.15271e-05 0 0 0 0 0 0 0 0 0 0 0 0 0 0 0 0 0 0 0 0 0 0 0 0 0 0 0 0 0 0 0 0 0 0 0 0 0 0 0 0 0 0 0 0 0 0 0 0 0 0 0 0 0 0 0 0 0 0 0 0 0 0 0 0 0 0 0 0 0 0 0 0 0 0 0 0 0 0 0 0 0 0 0 0 0 0 0 0 0 0 0 0 0 0 </DataArray> 
</PointData> 
<Points> 
<DataArray type="Float32" NumberOfComponents="3"> 
3 0 0 3.09677 0 0 3.19355 0 0 3.29032 0 0 3.3871 0 0 3.48387 0 0 3.58065 0 0 3.67742 0 0 3.77419 0 0 3.87097 0 0 3.96774 0 0 4.06452 0 0 4.16129 0 0 4.25806 0 0 4.35484 0 0 4.45161 0 0 4.54839 0 0 4.64516 0 0 4.74194 0 0 4.83871 0 0 4.93548 0 0 5.03226 0 0 5.12903 0 0 5.22581 0 0 5.32258 0 0 5.41935 0 0 5.51613 0 0 5.6129 0 0 5.70968 0 0 5.80645 0 0 5.90323 0 0 6 0 0 3 0.0967742 0 3.09677 0.0967742 0 3.19355 0.0967742 0 3.29032 0.0967742 0 3.3871 0.0967742 0 3.48387 0.0967742 0 3.58065 0.0967742 0 3.67742 0.0967742 0 3.77419 0.0967742 0 3.87097 0.0967742 0 3.96774 0.0967742 0 4.06452 0.0967742 0 4.16129 0.0967742 0 4.25806 0.0967742 0 4.35484 0.0967742 0 4.45161 0.0967742 0 4.54839 0.0967742 0 4.64516 0.0967742 0 4.74194 0.0967742 0 4.83871 0.0967742 0 4.93548 0.0967742 0 5.03226 0.0967742 0 5.12903 0.0967742 0 5.22581 0.0967742 0 5.32258 0.0967742 0 5.41935 0.0967742 0 5.51613 0.0967742 0 5.6129 0.0967742 0 5.70968 0.0967742 0 5.80645 0.0967742 0 5.90323 0.0967742 0 6 0.0967742 0 3 0.193548 0 3.09677 0.193548 0 3.19355 0.193548 0 3.29032 0.193548 0 3.3871 0.193548 0 3.48387 0.193548 0 3.58065 0.193548 0 3.67742 0.193548 0 3.77419 0.193548 0 3.87097 0.193548 0 3.96774 0.193548 0 4.06452 0.193548 0 4.16129 0.193548 0 4.25806 0.193548 0 4.35484 0.193548 0 4.45161 0.193548 0 4.54839 0.193548 0 4.64516 0.193548 0 4.74194 0.193548 0 4.83871 0.193548 0 4.93548 0.193548 0 5.03226 0.193548 0 5.12903 0.193548 0 5.22581 0.193548 0 5.32258 0.193548 0 5.41935 0.193548 0 5.51613 0.193548 0 5.6129 0.193548 0 5.70968 0.193548 0 5.80645 0.193548 0 5.90323 0.193548 0 6 0.193548 0 3 0.290323 0 3.09677 0.290323 0 3.19355 0.290323 0 3.29032 0.290323 0 3.3871 0.290323 0 3.48387 0.290323 0 3.58065 0.290323 0 3.67742 0.290323 0 3.77419 0.290323 0 3.87097 0.290323 0 3.96774 0.290323 0 4.06452 0.290323 0 4.16129 0.290323 0 4.25806 0.290323 0 4.35484 0.290323 0 4.45161 0.290323 0 4.54839 0.290323 0 4.64516 0.290323 0 4.74194 0.290323 0 4.83871 0.290323 0 4.93548 0.290323 0 5.03226 0.290323 0 5.12903 0.290323 0 5.22581 0.290323 0 5.32258 0.290323 0 5.41935 0.290323 0 5.51613 0.290323 0 5.6129 0.290323 0 5.70968 0.290323 0 5.80645 0.290323 0 5.90323 0.290323 0 6 0.290323 0 3 0.387097 0 3.09677 0.387097 0 3.19355 0.387097 0 3.29032 0.387097 0 3.3871 0.387097 0 3.48387 0.387097 0 3.58065 0.387097 0 3.67742 0.387097 0 3.77419 0.387097 0 3.87097 0.387097 0 3.96774 0.387097 0 4.06452 0.387097 0 4.16129 0.387097 0 4.25806 0.387097 0 4.35484 0.387097 0 4.45161 0.387097 0 4.54839 0.387097 0 4.64516 0.387097 0 4.74194 0.387097 0 4.83871 0.387097 0 4.93548 0.387097 0 5.03226 0.387097 0 5.12903 0.387097 0 5.22581 0.387097 0 5.32258 0.387097 0 5.41935 0.387097 0 5.51613 0.387097 0 5.6129 0.387097 0 5.70968 0.387097 0 5.80645 0.387097 0 5.90323 0.387097 0 6 0.387097 0 3 0.483871 0 3.09677 0.483871 0 3.19355 0.483871 0 3.29032 0.483871 0 3.3871 0.483871 0 3.48387 0.483871 0 3.58065 0.483871 0 3.67742 0.483871 0 3.77419 0.483871 0 3.87097 0.483871 0 3.96774 0.483871 0 4.06452 0.483871 0 4.16129 0.483871 0 4.25806 0.483871 0 4.35484 0.483871 0 4.45161 0.483871 0 4.54839 0.483871 0 4.64516 0.483871 0 4.74194 0.483871 0 4.83871 0.483871 0 4.93548 0.483871 0 5.03226 0.483871 0 5.12903 0.483871 0 5.22581 0.483871 0 5.32258 0.483871 0 5.41935 0.483871 0 5.51613 0.483871 0 5.6129 0.483871 0 5.70968 0.483871 0 5.80645 0.483871 0 5.90323 0.483871 0 6 0.483871 0 3 0.580645 0 3.09677 0.580645 0 3.19355 0.580645 0 3.29032 0.580645 0 3.3871 0.580645 0 3.48387 0.580645 0 3.58065 0.580645 0 3.67742 0.580645 0 3.77419 0.580645 0 3.87097 0.580645 0 3.96774 0.580645 0 4.06452 0.580645 0 4.16129 0.580645 0 4.25806 0.580645 0 4.35484 0.580645 0 4.45161 0.580645 0 4.54839 0.580645 0 4.64516 0.580645 0 4.74194 0.580645 0 4.83871 0.580645 0 4.93548 0.580645 0 5.03226 0.580645 0 5.12903 0.580645 0 5.22581 0.580645 0 5.32258 0.580645 0 5.41935 0.580645 0 5.51613 0.580645 0 5.6129 0.580645 0 5.70968 0.580645 0 5.80645 0.580645 0 5.90323 0.580645 0 6 0.580645 0 3 0.677419 0 3.09677 0.677419 0 3.19355 0.677419 0 3.29032 0.677419 0 3.3871 0.677419 0 3.48387 0.677419 0 3.58065 0.677419 0 3.67742 0.677419 0 3.77419 0.677419 0 3.87097 0.677419 0 3.96774 0.677419 0 4.06452 0.677419 0 4.16129 0.677419 0 4.25806 0.677419 0 4.35484 0.677419 0 4.45161 0.677419 0 4.54839 0.677419 0 4.64516 0.677419 0 4.74194 0.677419 0 4.83871 0.677419 0 4.93548 0.677419 0 5.03226 0.677419 0 5.12903 0.677419 0 5.22581 0.677419 0 5.32258 0.677419 0 5.41935 0.677419 0 5.51613 0.677419 0 5.6129 0.677419 0 5.70968 0.677419 0 5.80645 0.677419 0 5.90323 0.677419 0 6 0.677419 0 3 0.774194 0 3.09677 0.774194 0 3.19355 0.774194 0 3.29032 0.774194 0 3.3871 0.774194 0 3.48387 0.774194 0 3.58065 0.774194 0 3.67742 0.774194 0 3.77419 0.774194 0 3.87097 0.774194 0 3.96774 0.774194 0 4.06452 0.774194 0 4.16129 0.774194 0 4.25806 0.774194 0 4.35484 0.774194 0 4.45161 0.774194 0 4.54839 0.774194 0 4.64516 0.774194 0 4.74194 0.774194 0 4.83871 0.774194 0 4.93548 0.774194 0 5.03226 0.774194 0 5.12903 0.774194 0 5.22581 0.774194 0 5.32258 0.774194 0 5.41935 0.774194 0 5.51613 0.774194 0 5.6129 0.774194 0 5.70968 0.774194 0 5.80645 0.774194 0 5.90323 0.774194 0 6 0.774194 0 3 0.870968 0 3.09677 0.870968 0 3.19355 0.870968 0 3.29032 0.870968 0 3.3871 0.870968 0 3.48387 0.870968 0 3.58065 0.870968 0 3.67742 0.870968 0 3.77419 0.870968 0 3.87097 0.870968 0 3.96774 0.870968 0 4.06452 0.870968 0 4.16129 0.870968 0 4.25806 0.870968 0 4.35484 0.870968 0 4.45161 0.870968 0 4.54839 0.870968 0 4.64516 0.870968 0 4.74194 0.870968 0 4.83871 0.870968 0 4.93548 0.870968 0 5.03226 0.870968 0 5.12903 0.870968 0 5.22581 0.870968 0 5.32258 0.870968 0 5.41935 0.870968 0 5.51613 0.870968 0 5.6129 0.870968 0 5.70968 0.870968 0 5.80645 0.870968 0 5.90323 0.870968 0 6 0.870968 0 3 0.967742 0 3.09677 0.967742 0 3.19355 0.967742 0 3.29032 0.967742 0 3.3871 0.967742 0 3.48387 0.967742 0 3.58065 0.967742 0 3.67742 0.967742 0 3.77419 0.967742 0 3.87097 0.967742 0 3.96774 0.967742 0 4.06452 0.967742 0 4.16129 0.967742 0 4.25806 0.967742 0 4.35484 0.967742 0 4.45161 0.967742 0 4.54839 0.967742 0 4.64516 0.967742 0 4.74194 0.967742 0 4.83871 0.967742 0 4.93548 0.967742 0 5.03226 0.967742 0 5.12903 0.967742 0 5.22581 0.967742 0 5.32258 0.967742 0 5.41935 0.967742 0 5.51613 0.967742 0 5.6129 0.967742 0 5.70968 0.967742 0 5.80645 0.967742 0 5.90323 0.967742 0 6 0.967742 0 3 1.06452 0 3.09677 1.06452 0 3.19355 1.06452 0 3.29032 1.06452 0 3.3871 1.06452 0 3.48387 1.06452 0 3.58065 1.06452 0 3.67742 1.06452 0 3.77419 1.06452 0 3.87097 1.06452 0 3.96774 1.06452 0 4.06452 1.06452 0 4.16129 1.06452 0 4.25806 1.06452 0 4.35484 1.06452 0 4.45161 1.06452 0 4.54839 1.06452 0 4.64516 1.06452 0 4.74194 1.06452 0 4.83871 1.06452 0 4.93548 1.06452 0 5.03226 1.06452 0 5.12903 1.06452 0 5.22581 1.06452 0 5.32258 1.06452 0 5.41935 1.06452 0 5.51613 1.06452 0 5.6129 1.06452 0 5.70968 1.06452 0 5.80645 1.06452 0 5.90323 1.06452 0 6 1.06452 0 3 1.16129 0 3.09677 1.16129 0 3.19355 1.16129 0 3.29032 1.16129 0 3.3871 1.16129 0 3.48387 1.16129 0 3.58065 1.16129 0 3.67742 1.16129 0 3.77419 1.16129 0 3.87097 1.16129 0 3.96774 1.16129 0 4.06452 1.16129 0 4.16129 1.16129 0 4.25806 1.16129 0 4.35484 1.16129 0 4.45161 1.16129 0 4.54839 1.16129 0 4.64516 1.16129 0 4.74194 1.16129 0 4.83871 1.16129 0 4.93548 1.16129 0 5.03226 1.16129 0 5.12903 1.16129 0 5.22581 1.16129 0 5.32258 1.16129 0 5.41935 1.16129 0 5.51613 1.16129 0 5.6129 1.16129 0 5.70968 1.16129 0 5.80645 1.16129 0 5.90323 1.16129 0 6 1.16129 0 3 1.25806 0 3.09677 1.25806 0 3.19355 1.25806 0 3.29032 1.25806 0 3.3871 1.25806 0 3.48387 1.25806 0 3.58065 1.25806 0 3.67742 1.25806 0 3.77419 1.25806 0 3.87097 1.25806 0 3.96774 1.25806 0 4.06452 1.25806 0 4.16129 1.25806 0 4.25806 1.25806 0 4.35484 1.25806 0 4.45161 1.25806 0 4.54839 1.25806 0 4.64516 1.25806 0 4.74194 1.25806 0 4.83871 1.25806 0 4.93548 1.25806 0 5.03226 1.25806 0 5.12903 1.25806 0 5.22581 1.25806 0 5.32258 1.25806 0 5.41935 1.25806 0 5.51613 1.25806 0 5.6129 1.25806 0 5.70968 1.25806 0 5.80645 1.25806 0 5.90323 1.25806 0 6 1.25806 0 3 1.35484 0 3.09677 1.35484 0 3.19355 1.35484 0 3.29032 1.35484 0 3.3871 1.35484 0 3.48387 1.35484 0 3.58065 1.35484 0 3.67742 1.35484 0 3.77419 1.35484 0 3.87097 1.35484 0 3.96774 1.35484 0 4.06452 1.35484 0 4.16129 1.35484 0 4.25806 1.35484 0 4.35484 1.35484 0 4.45161 1.35484 0 4.54839 1.35484 0 4.64516 1.35484 0 4.74194 1.35484 0 4.83871 1.35484 0 4.93548 1.35484 0 5.03226 1.35484 0 5.12903 1.35484 0 5.22581 1.35484 0 5.32258 1.35484 0 5.41935 1.35484 0 5.51613 1.35484 0 5.6129 1.35484 0 5.70968 1.35484 0 5.80645 1.35484 0 5.90323 1.35484 0 6 1.35484 0 3 1.45161 0 3.09677 1.45161 0 3.19355 1.45161 0 3.29032 1.45161 0 3.3871 1.45161 0 3.48387 1.45161 0 3.58065 1.45161 0 3.67742 1.45161 0 3.77419 1.45161 0 3.87097 1.45161 0 3.96774 1.45161 0 4.06452 1.45161 0 4.16129 1.45161 0 4.25806 1.45161 0 4.35484 1.45161 0 4.45161 1.45161 0 4.54839 1.45161 0 4.64516 1.45161 0 4.74194 1.45161 0 4.83871 1.45161 0 4.93548 1.45161 0 5.03226 1.45161 0 5.12903 1.45161 0 5.22581 1.45161 0 5.32258 1.45161 0 5.41935 1.45161 0 5.51613 1.45161 0 5.6129 1.45161 0 5.70968 1.45161 0 5.80645 1.45161 0 5.90323 1.45161 0 6 1.45161 0 3 1.54839 0 3.09677 1.54839 0 3.19355 1.54839 0 3.29032 1.54839 0 3.3871 1.54839 0 3.48387 1.54839 0 3.58065 1.54839 0 3.67742 1.54839 0 3.77419 1.54839 0 3.87097 1.54839 0 3.96774 1.54839 0 4.06452 1.54839 0 4.16129 1.54839 0 4.25806 1.54839 0 4.35484 1.54839 0 4.45161 1.54839 0 4.54839 1.54839 0 4.64516 1.54839 0 4.74194 1.54839 0 4.83871 1.54839 0 4.93548 1.54839 0 5.03226 1.54839 0 5.12903 1.54839 0 5.22581 1.54839 0 5.32258 1.54839 0 5.41935 1.54839 0 5.51613 1.54839 0 5.6129 1.54839 0 5.70968 1.54839 0 5.80645 1.54839 0 5.90323 1.54839 0 6 1.54839 0 3 1.64516 0 3.09677 1.64516 0 3.19355 1.64516 0 3.29032 1.64516 0 3.3871 1.64516 0 3.48387 1.64516 0 3.58065 1.64516 0 3.67742 1.64516 0 3.77419 1.64516 0 3.87097 1.64516 0 3.96774 1.64516 0 4.06452 1.64516 0 4.16129 1.64516 0 4.25806 1.64516 0 4.35484 1.64516 0 4.45161 1.64516 0 4.54839 1.64516 0 4.64516 1.64516 0 4.74194 1.64516 0 4.83871 1.64516 0 4.93548 1.64516 0 5.03226 1.64516 0 5.12903 1.64516 0 5.22581 1.64516 0 5.32258 1.64516 0 5.41935 1.64516 0 5.51613 1.64516 0 5.6129 1.64516 0 5.70968 1.64516 0 5.80645 1.64516 0 5.90323 1.64516 0 6 1.64516 0 3 1.74194 0 3.09677 1.74194 0 3.19355 1.74194 0 3.29032 1.74194 0 3.3871 1.74194 0 3.48387 1.74194 0 3.58065 1.74194 0 3.67742 1.74194 0 3.77419 1.74194 0 3.87097 1.74194 0 3.96774 1.74194 0 4.06452 1.74194 0 4.16129 1.74194 0 4.25806 1.74194 0 4.35484 1.74194 0 4.45161 1.74194 0 4.54839 1.74194 0 4.64516 1.74194 0 4.74194 1.74194 0 4.83871 1.74194 0 4.93548 1.74194 0 5.03226 1.74194 0 5.12903 1.74194 0 5.22581 1.74194 0 5.32258 1.74194 0 5.41935 1.74194 0 5.51613 1.74194 0 5.6129 1.74194 0 5.70968 1.74194 0 5.80645 1.74194 0 5.90323 1.74194 0 6 1.74194 0 3 1.83871 0 3.09677 1.83871 0 3.19355 1.83871 0 3.29032 1.83871 0 3.3871 1.83871 0 3.48387 1.83871 0 3.58065 1.83871 0 3.67742 1.83871 0 3.77419 1.83871 0 3.87097 1.83871 0 3.96774 1.83871 0 4.06452 1.83871 0 4.16129 1.83871 0 4.25806 1.83871 0 4.35484 1.83871 0 4.45161 1.83871 0 4.54839 1.83871 0 4.64516 1.83871 0 4.74194 1.83871 0 4.83871 1.83871 0 4.93548 1.83871 0 5.03226 1.83871 0 5.12903 1.83871 0 5.22581 1.83871 0 5.32258 1.83871 0 5.41935 1.83871 0 5.51613 1.83871 0 5.6129 1.83871 0 5.70968 1.83871 0 5.80645 1.83871 0 5.90323 1.83871 0 6 1.83871 0 3 1.93548 0 3.09677 1.93548 0 3.19355 1.93548 0 3.29032 1.93548 0 3.3871 1.93548 0 3.48387 1.93548 0 3.58065 1.93548 0 3.67742 1.93548 0 3.77419 1.93548 0 3.87097 1.93548 0 3.96774 1.93548 0 4.06452 1.93548 0 4.16129 1.93548 0 4.25806 1.93548 0 4.35484 1.93548 0 4.45161 1.93548 0 4.54839 1.93548 0 4.64516 1.93548 0 4.74194 1.93548 0 4.83871 1.93548 0 4.93548 1.93548 0 5.03226 1.93548 0 5.12903 1.93548 0 5.22581 1.93548 0 5.32258 1.93548 0 5.41935 1.93548 0 5.51613 1.93548 0 5.6129 1.93548 0 5.70968 1.93548 0 5.80645 1.93548 0 5.90323 1.93548 0 6 1.93548 0 3 2.03226 0 3.09677 2.03226 0 3.19355 2.03226 0 3.29032 2.03226 0 3.3871 2.03226 0 3.48387 2.03226 0 3.58065 2.03226 0 3.67742 2.03226 0 3.77419 2.03226 0 3.87097 2.03226 0 3.96774 2.03226 0 4.06452 2.03226 0 4.16129 2.03226 0 4.25806 2.03226 0 4.35484 2.03226 0 4.45161 2.03226 0 4.54839 2.03226 0 4.64516 2.03226 0 4.74194 2.03226 0 4.83871 2.03226 0 4.93548 2.03226 0 5.03226 2.03226 0 5.12903 2.03226 0 5.22581 2.03226 0 5.32258 2.03226 0 5.41935 2.03226 0 5.51613 2.03226 0 5.6129 2.03226 0 5.70968 2.03226 0 5.80645 2.03226 0 5.90323 2.03226 0 6 2.03226 0 3 2.12903 0 3.09677 2.12903 0 3.19355 2.12903 0 3.29032 2.12903 0 3.3871 2.12903 0 3.48387 2.12903 0 3.58065 2.12903 0 3.67742 2.12903 0 3.77419 2.12903 0 3.87097 2.12903 0 3.96774 2.12903 0 4.06452 2.12903 0 4.16129 2.12903 0 4.25806 2.12903 0 4.35484 2.12903 0 4.45161 2.12903 0 4.54839 2.12903 0 4.64516 2.12903 0 4.74194 2.12903 0 4.83871 2.12903 0 4.93548 2.12903 0 5.03226 2.12903 0 5.12903 2.12903 0 5.22581 2.12903 0 5.32258 2.12903 0 5.41935 2.12903 0 5.51613 2.12903 0 5.6129 2.12903 0 5.70968 2.12903 0 5.80645 2.12903 0 5.90323 2.12903 0 6 2.12903 0 3 2.22581 0 3.09677 2.22581 0 3.19355 2.22581 0 3.29032 2.22581 0 3.3871 2.22581 0 3.48387 2.22581 0 3.58065 2.22581 0 3.67742 2.22581 0 3.77419 2.22581 0 3.87097 2.22581 0 3.96774 2.22581 0 4.06452 2.22581 0 4.16129 2.22581 0 4.25806 2.22581 0 4.35484 2.22581 0 4.45161 2.22581 0 4.54839 2.22581 0 4.64516 2.22581 0 4.74194 2.22581 0 4.83871 2.22581 0 4.93548 2.22581 0 5.03226 2.22581 0 5.12903 2.22581 0 5.22581 2.22581 0 5.32258 2.22581 0 5.41935 2.22581 0 5.51613 2.22581 0 5.6129 2.22581 0 5.70968 2.22581 0 5.80645 2.22581 0 5.90323 2.22581 0 6 2.22581 0 3 2.32258 0 3.09677 2.32258 0 3.19355 2.32258 0 3.29032 2.32258 0 3.3871 2.32258 0 3.48387 2.32258 0 3.58065 2.32258 0 3.67742 2.32258 0 3.77419 2.32258 0 3.87097 2.32258 0 3.96774 2.32258 0 4.06452 2.32258 0 4.16129 2.32258 0 4.25806 2.32258 0 4.35484 2.32258 0 4.45161 2.32258 0 4.54839 2.32258 0 4.64516 2.32258 0 4.74194 2.32258 0 4.83871 2.32258 0 4.93548 2.32258 0 5.03226 2.32258 0 5.12903 2.32258 0 5.22581 2.32258 0 5.32258 2.32258 0 5.41935 2.32258 0 5.51613 2.32258 0 5.6129 2.32258 0 5.70968 2.32258 0 5.80645 2.32258 0 5.90323 2.32258 0 6 2.32258 0 3 2.41935 0 3.09677 2.41935 0 3.19355 2.41935 0 3.29032 2.41935 0 3.3871 2.41935 0 3.48387 2.41935 0 3.58065 2.41935 0 3.67742 2.41935 0 3.77419 2.41935 0 3.87097 2.41935 0 3.96774 2.41935 0 4.06452 2.41935 0 4.16129 2.41935 0 4.25806 2.41935 0 4.35484 2.41935 0 4.45161 2.41935 0 4.54839 2.41935 0 4.64516 2.41935 0 4.74194 2.41935 0 4.83871 2.41935 0 4.93548 2.41935 0 5.03226 2.41935 0 5.12903 2.41935 0 5.22581 2.41935 0 5.32258 2.41935 0 5.41935 2.41935 0 5.51613 2.41935 0 5.6129 2.41935 0 5.70968 2.41935 0 5.80645 2.41935 0 5.90323 2.41935 0 6 2.41935 0 3 2.51613 0 3.09677 2.51613 0 3.19355 2.51613 0 3.29032 2.51613 0 3.3871 2.51613 0 3.48387 2.51613 0 3.58065 2.51613 0 3.67742 2.51613 0 3.77419 2.51613 0 3.87097 2.51613 0 3.96774 2.51613 0 4.06452 2.51613 0 4.16129 2.51613 0 4.25806 2.51613 0 4.35484 2.51613 0 4.45161 2.51613 0 4.54839 2.51613 0 4.64516 2.51613 0 4.74194 2.51613 0 4.83871 2.51613 0 4.93548 2.51613 0 5.03226 2.51613 0 5.12903 2.51613 0 5.22581 2.51613 0 5.32258 2.51613 0 5.41935 2.51613 0 5.51613 2.51613 0 5.6129 2.51613 0 5.70968 2.51613 0 5.80645 2.51613 0 5.90323 2.51613 0 6 2.51613 0 3 2.6129 0 3.09677 2.6129 0 3.19355 2.6129 0 3.29032 2.6129 0 3.3871 2.6129 0 3.48387 2.6129 0 3.58065 2.6129 0 3.67742 2.6129 0 3.77419 2.6129 0 3.87097 2.6129 0 3.96774 2.6129 0 4.06452 2.6129 0 4.16129 2.6129 0 4.25806 2.6129 0 4.35484 2.6129 0 4.45161 2.6129 0 4.54839 2.6129 0 4.64516 2.6129 0 4.74194 2.6129 0 4.83871 2.6129 0 4.93548 2.6129 0 5.03226 2.6129 0 5.12903 2.6129 0 5.22581 2.6129 0 5.32258 2.6129 0 5.41935 2.6129 0 5.51613 2.6129 0 5.6129 2.6129 0 5.70968 2.6129 0 5.80645 2.6129 0 5.90323 2.6129 0 6 2.6129 0 3 2.70968 0 3.09677 2.70968 0 3.19355 2.70968 0 3.29032 2.70968 0 3.3871 2.70968 0 3.48387 2.70968 0 3.58065 2.70968 0 3.67742 2.70968 0 3.77419 2.70968 0 3.87097 2.70968 0 3.96774 2.70968 0 4.06452 2.70968 0 4.16129 2.70968 0 4.25806 2.70968 0 4.35484 2.70968 0 4.45161 2.70968 0 4.54839 2.70968 0 4.64516 2.70968 0 4.74194 2.70968 0 4.83871 2.70968 0 4.93548 2.70968 0 5.03226 2.70968 0 5.12903 2.70968 0 5.22581 2.70968 0 5.32258 2.70968 0 5.41935 2.70968 0 5.51613 2.70968 0 5.6129 2.70968 0 5.70968 2.70968 0 5.80645 2.70968 0 5.90323 2.70968 0 6 2.70968 0 3 2.80645 0 3.09677 2.80645 0 3.19355 2.80645 0 3.29032 2.80645 0 3.3871 2.80645 0 3.48387 2.80645 0 3.58065 2.80645 0 3.67742 2.80645 0 3.77419 2.80645 0 3.87097 2.80645 0 3.96774 2.80645 0 4.06452 2.80645 0 4.16129 2.80645 0 4.25806 2.80645 0 4.35484 2.80645 0 4.45161 2.80645 0 4.54839 2.80645 0 4.64516 2.80645 0 4.74194 2.80645 0 4.83871 2.80645 0 4.93548 2.80645 0 5.03226 2.80645 0 5.12903 2.80645 0 5.22581 2.80645 0 5.32258 2.80645 0 5.41935 2.80645 0 5.51613 2.80645 0 5.6129 2.80645 0 5.70968 2.80645 0 5.80645 2.80645 0 5.90323 2.80645 0 6 2.80645 0 3 2.90323 0 3.09677 2.90323 0 3.19355 2.90323 0 3.29032 2.90323 0 3.3871 2.90323 0 3.48387 2.90323 0 3.58065 2.90323 0 3.67742 2.90323 0 3.77419 2.90323 0 3.87097 2.90323 0 3.96774 2.90323 0 4.06452 2.90323 0 4.16129 2.90323 0 4.25806 2.90323 0 4.35484 2.90323 0 4.45161 2.90323 0 4.54839 2.90323 0 4.64516 2.90323 0 4.74194 2.90323 0 4.83871 2.90323 0 4.93548 2.90323 0 5.03226 2.90323 0 5.12903 2.90323 0 5.22581 2.90323 0 5.32258 2.90323 0 5.41935 2.90323 0 5.51613 2.90323 0 5.6129 2.90323 0 5.70968 2.90323 0 5.80645 2.90323 0 5.90323 2.90323 0 6 2.90323 0 3 3 0 3.09677 3 0 3.19355 3 0 3.29032 3 0 3.3871 3 0 3.48387 3 0 3.58065 3 0 3.67742 3 0 3.77419 3 0 3.87097 3 0 3.96774 3 0 4.06452 3 0 4.16129 3 0 4.25806 3 0 4.35484 3 0 4.45161 3 0 4.54839 3 0 4.64516 3 0 4.74194 3 0 4.83871 3 0 4.93548 3 0 5.03226 3 0 5.12903 3 0 5.22581 3 0 5.32258 3 0 5.41935 3 0 5.51613 3 0 5.6129 3 0 5.70968 3 0 5.80645 3 0 5.90323 3 0 6 3 0 
</DataArray>
</Points> 
</Piece> 
</StructuredGrid> 
</VTKFile> 
