<?xml version="1.0"?> 
<VTKFile type="StructuredGrid" version="0.1"> 
<StructuredGrid WholeExtent="0 31 0 31 0 0"> 
<Piece Extent="0 31 0 31 0 0"> 
<PointData>
<DataArray type="Float32" Name="B" format="ascii" NumberOfComponents="3"> 
5.36825e-05 -7.85563e-05 0 4.69701e-05 -5.24004e-05 0 4.40017e-05 -4.45279e-05 0 4.15538e-05 -3.86004e-05 0 3.84265e-05 -3.41019e-05 0 3.57953e-05 -3.03305e-05 0 3.3091e-05 -2.71203e-05 0 3.06516e-05 -2.43292e-05 0 2.83039e-05 -2.18728e-05 0 2.61356e-05 -1.96992e-05 0 2.40921e-05 -1.77617e-05 0 2.21899e-05 -1.60313e-05 0 2.04077e-05 -1.448e-05 0 1.87429e-05 -1.30879e-05 0 1.71836e-05 -1.18369e-05 0 1.57225e-05 -1.07127e-05 0 1.43508e-05 -9.70244e-06 0 1.30607e-05 -8.7956e-06 0 1.18447e-05 -7.9829e-06 0 1.06957e-05 -7.25643e-06 0 9.60699e-06 -6.6093e-06 0 8.57216e-06 -6.03559e-06 0 7.58525e-06 -5.53017e-06 0 6.64056e-06 -5.08864e-06 0 5.7327e-06 -4.70723e-06 0 4.85652e-06 -4.38273e-06 0 4.00709e-06 -4.11247e-06 0 3.17966e-06 -3.89424e-06 0 2.36966e-06 -3.72628e-06 0 1.57262e-06 -3.60726e-06 0 7.84171e-07 -3.53622e-06 0 0 -3.5126e-06 0 6.42379e-05 -6.40077e-05 0 5.2344e-05 -5.09728e-05 0 4.76271e-05 -4.26985e-05 0 4.39033e-05 -3.70314e-05 0 4.05453e-05 -3.25804e-05 0 3.74553e-05 -2.89133e-05 0 3.45887e-05 -2.57911e-05 0 3.19235e-05 -2.30852e-05 0 2.94451e-05 -2.07129e-05 0 2.71383e-05 -1.86155e-05 0 2.49913e-05 -1.67516e-05 0 2.29915e-05 -1.50881e-05 0 2.11276e-05 -1.35997e-05 0 1.93885e-05 -1.2265e-05 0 1.77639e-05 -1.1067e-05 0 1.62437e-05 -9.99105e-06 0 1.48188e-05 -9.02491e-06 0 1.34805e-05 -8.15809e-06 0 1.22204e-05 -7.38161e-06 0 1.10309e-05 -6.68776e-06 0 9.9049e-06 -6.06988e-06 0 8.83547e-06 -5.52223e-06 0 7.81629e-06 -5.03987e-06 0 6.84134e-06 -4.61854e-06 0 5.90492e-06 -4.25463e-06 0 5.00162e-06 -3.94505e-06 0 4.12626e-06 -3.68724e-06 0 3.27387e-06 -3.47907e-06 0 2.43967e-06 -3.31887e-06 0 1.61899e-06 -3.20534e-06 0 8.07264e-07 -3.13758e-06 0 -1.24373e-19 -3.11506e-06 0 6.75317e-05 -5.53118e-05 0 5.68952e-05 -4.74518e-05 0 5.08214e-05 -4.04396e-05 0 4.63142e-05 -3.51275e-05 0 4.25138e-05 -3.08814e-05 0 3.91062e-05 -2.73594e-05 0 3.60106e-05 -2.43584e-05 0 3.31625e-05 -2.17597e-05 0 3.0536e-05 -1.94836e-05 0 2.81048e-05 -1.74745e-05 0 2.58517e-05 -1.56911e-05 0 2.37601e-05 -1.41016e-05 0 2.18158e-05 -1.26808e-05 0 2.00057e-05 -1.14081e-05 0 1.83179e-05 -1.02666e-05 0 1.67412e-05 -9.24204e-06 0 1.52653e-05 -8.32258e-06 0 1.38806e-05 -7.49803e-06 0 1.25784e-05 -6.7597e-06 0 1.13503e-05 -6.10013e-06 0 1.01887e-05 -5.51293e-06 0 9.08622e-06 -4.99258e-06 0 8.03628e-06 -4.53433e-06 0 7.03249e-06 -4.13411e-06 0 6.06887e-06 -3.78847e-06 0 5.13973e-06 -3.49445e-06 0 4.23969e-06 -3.24961e-06 0 3.36354e-06 -3.05193e-06 0 2.5063e-06 -2.8998e-06 0 1.66312e-06 -2.79199e-06 0 8.29241e-07 -2.72765e-06 0 0 -2.70626e-06 0 7.00755e-05 -4.89752e-05 0 6.03507e-05 -4.34725e-05 0 5.36422e-05 -3.77538e-05 0 4.85835e-05 -3.29634e-05 0 4.43763e-05 -2.90059e-05 0 4.06859e-05 -2.56767e-05 0 3.73684e-05 -2.28265e-05 0 3.43475e-05 -2.03539e-05 0 3.15776e-05 -1.81879e-05 0 2.90271e-05 -1.62771e-05 0 2.66718e-05 -1.45823e-05 0 2.44919e-05 -1.30731e-05 0 2.24705e-05 -1.17251e-05 0 2.05924e-05 -1.05185e-05 0 1.88442e-05 -9.43694e-06 0 1.72134e-05 -8.46681e-06 0 1.56889e-05 -7.59657e-06 0 1.42602e-05 -6.81645e-06 0 1.29179e-05 -6.11812e-06 0 1.16531e-05 -5.49444e-06 0 1.04576e-05 -4.93929e-06 0 9.32386e-06 -4.44741e-06 0 8.24475e-06 -4.01429e-06 0 7.21361e-06 -3.63605e-06 0 6.2242e-06 -3.30941e-06 0 5.27059e-06 -3.03157e-06 0 4.34715e-06 -2.8002e-06 0 3.44849e-06 -2.61341e-06 0 2.56943e-06 -2.46966e-06 0 1.70492e-06 -2.36779e-06 0 8.5006e-07 -2.30699e-06 0 0 -2.28678e-06 0 7.20027e-05 -4.37041e-05 0 6.30024e-05 -3.94679e-05 0 5.60811e-05 -3.48083e-05 0 5.06472e-05 -3.05923e-05 0 4.6116e-05 -2.69745e-05 0 4.21724e-05 -2.38756e-05 0 3.86536e-05 -2.12008e-05 0 3.54698e-05 -1.88719e-05 0 3.25648e-05 -1.68289e-05 0 2.99006e-05 -1.5026e-05 0 2.74481e-05 -1.34273e-05 0 2.51842e-05 -1.20043e-05 0 2.30893e-05 -1.0734e-05 0 2.11467e-05 -9.59763e-06 0 1.93411e-05 -8.57951e-06 0 1.76591e-05 -7.66665e-06 0 1.60886e-05 -6.84806e-06 0 1.46183e-05 -6.11445e-06 0 1.3238e-05 -5.4579e-06 0 1.19386e-05 -4.87163e-06 0 1.07112e-05 -4.34985e-06 0 9.54786e-06 -3.88757e-06 0 8.44122e-06 -3.48054e-06 0 7.3843e-06 -3.12511e-06 0 6.37058e-06 -2.81816e-06 0 5.3939e-06 -2.55707e-06 0 4.44842e-06 -2.33966e-06 0 3.52854e-06 -2.16413e-06 0 2.62891e-06 -2.02905e-06 0 1.74432e-06 -1.93333e-06 0 8.69679e-07 -1.8762e-06 0 0 -1.8572e-06 0 7.35627e-05 -3.89117e-05 0 6.50955e-05 -3.55611e-05 0 5.81562e-05 -3.17282e-05 0 5.24917e-05 -2.80689e-05 0 4.77131e-05 -2.48131e-05 0 4.35543e-05 -2.19691e-05 0 3.9856e-05 -1.94892e-05 0 3.65226e-05 -1.73187e-05 0 3.34921e-05 -1.54101e-05 0 3.07212e-05 -1.3724e-05 0 2.81773e-05 -1.22285e-05 0 2.58342e-05 -1.08975e-05 0 2.36702e-05 -9.70961e-06 0 2.16667e-05 -8.64729e-06 0 1.98072e-05 -7.69583e-06 0 1.8077e-05 -6.84297e-06 0 1.64632e-05 -6.07835e-06 0 1.49538e-05 -5.39322e-06 0 1.3538e-05 -4.78014e-06 0 1.2206e-05 -4.23272e-06 0 1.09487e-05 -3.74555e-06 0 9.7577e-06 -3.31394e-06 0 8.62528e-06 -2.93391e-06 0 7.54421e-06 -2.60205e-06 0 6.50772e-06 -2.31546e-06 0 5.50942e-06 -2.07167e-06 0 4.54329e-06 -1.86866e-06 0 3.60354e-06 -1.70476e-06 0 2.68464e-06 -1.57861e-06 0 1.78122e-06 -1.48922e-06 0 8.8806e-07 -1.43587e-06 0 0 -1.41814e-06 0 7.48307e-05 -3.44963e-05 0 6.67852e-05 -3.17671e-05 0 5.99121e-05 -2.85918e-05 0 5.41184e-05 -2.544e-05 0 4.91582e-05 -2.25474e-05 0 4.48225e-05 -1.99716e-05 0 4.0968e-05 -1.77003e-05 0 3.75002e-05 -1.57003e-05 0 3.43548e-05 -1.39358e-05 0 3.14853e-05 -1.23745e-05 0 2.88564e-05 -1.09887e-05 0 2.64395e-05 -9.75494e-06 0 2.42111e-05 -8.6539e-06 0 2.21508e-05 -7.66929e-06 0 2.02409e-05 -6.78755e-06 0 1.84659e-05 -5.99726e-06 0 1.68117e-05 -5.2888e-06 0 1.52659e-05 -4.65401e-06 0 1.38171e-05 -4.08598e-06 0 1.24548e-05 -3.57878e-06 0 1.11696e-05 -3.12737e-06 0 9.95291e-06 -2.72743e-06 0 8.79651e-06 -2.37526e-06 0 7.69298e-06 -2.06769e-06 0 6.63531e-06 -1.80206e-06 0 5.61691e-06 -1.57609e-06 0 4.63157e-06 -1.3879e-06 0 3.67333e-06 -1.23594e-06 0 2.7365e-06 -1.119e-06 0 1.81557e-06 -1.03612e-06 0 9.05166e-07 -9.8665e-07 0 0 -9.70205e-07 0 7.58758e-05 -3.03255e-05 0 6.81693e-05 -2.80866e-05 0 6.13953e-05 -2.54413e-05 0 5.55381e-05 -2.27422e-05 0 5.0449e-05 -2.02009e-05 0 4.59717e-05 -1.78975e-05 0 4.1984e-05 -1.58437e-05 0 3.83976e-05 -1.40231e-05 0 3.51487e-05 -1.24109e-05 0 3.21895e-05 -1.09813e-05 0 2.94826e-05 -9.71092e-06 0 2.69979e-05 -8.57933e-06 0 2.47099e-05 -7.56914e-06 0 2.25973e-05 -6.66564e-06 0 2.0641e-05 -5.85646e-06 0 1.88245e-05 -5.13114e-06 0 1.71332e-05 -4.48086e-06 0 1.55539e-05 -3.89814e-06 0 1.40745e-05 -3.37663e-06 0 1.26843e-05 -2.91091e-06 0 1.13735e-05 -2.49635e-06 0 1.0133e-05 -2.129e-06 0 8.95454e-06 -1.80546e-06 0 7.8303e-06 -1.52287e-06 0 6.75309e-06 -1.27876e-06 0 5.71615e-06 -1.07107e-06 0 4.71307e-06 -8.98083e-07 0 3.73777e-06 -7.5839e-07 0 2.78439e-06 -6.50868e-07 0 1.84729e-06 -5.74665e-07 0 9.20963e-07 -5.2918e-07 0 0 -5.14059e-07 0 7.67421e-05 -2.63615e-05 0 6.93126e-05 -2.45072e-05 0 6.2646e-05 -2.22998e-05 0 5.6766e-05 -2.00017e-05 0 5.15879e-05 -1.77934e-05 0 4.69995e-05 -1.57603e-05 0 4.29003e-05 -1.39285e-05 0 3.9211e-05 -1.22939e-05 0 3.58705e-05 -1.08404e-05 0 3.28307e-05 -9.54837e-06 0 3.00534e-05 -8.39855e-06 0 2.75071e-05 -7.37344e-06 0 2.51651e-05 -6.45777e-06 0 2.30047e-05 -5.63847e-06 0 2.10061e-05 -4.90444e-06 0 1.9152e-05 -4.24629e-06 0 1.74268e-05 -3.65606e-06 0 1.58168e-05 -3.12699e-06 0 1.43096e-05 -2.65336e-06 0 1.2894e-05 -2.23027e-06 0 1.15598e-05 -1.85354e-06 0 1.02977e-05 -1.51962e-06 0 9.09903e-06 -1.22544e-06 0 7.95587e-06 -9.68424e-07 0 6.86082e-06 -7.46357e-07 0 5.80693e-06 -5.57382e-07 0 4.78764e-06 -3.99951e-07 0 3.79673e-06 -2.72799e-07 0 2.82821e-06 -1.74917e-07 0 1.87632e-06 -1.05539e-07 0 9.35421e-07 -6.41257e-08 0 0 -5.03574e-08 0 7.74616e-05 -2.25537e-05 0 7.02603e-05 -2.10175e-05 0 6.36972e-05 -1.91782e-05 0 5.78178e-05 -1.72362e-05 0 5.25799e-05 -1.53405e-05 0 4.79055e-05 -1.35722e-05 0 4.37146e-05 -1.19638e-05 0 3.99377e-05 -1.05193e-05 0 3.65173e-05 -9.22949e-06 0 3.34065e-05 -8.07993e-06 0 3.05666e-05 -7.05507e-06 0 2.79653e-05 -6.14024e-06 0 2.55749e-05 -5.32235e-06 0 2.33718e-05 -4.59001e-06 0 2.13353e-05 -3.93349e-06 0 1.94472e-05 -3.34449e-06 0 1.76916e-05 -2.81599e-06 0 1.60541e-05 -2.34201e-06 0 1.45219e-05 -1.91747e-06 0 1.30834e-05 -1.53805e-06 0 1.17282e-05 -1.20005e-06 0 1.04465e-05 -9.0031e-07 0 9.22964e-06 -6.36145e-07 0 8.06942e-06 -4.05255e-07 0 6.95826e-06 -2.05693e-07 0 5.88906e-06 -3.58157e-08 0 4.85513e-06 1.05743e-07 0 3.8501e-06 2.20103e-07 0 2.86789e-06 3.08153e-07 0 1.9026e-06 3.70572e-07 0 9.48511e-07 4.07834e-07 0 0 4.20223e-07 0 7.80605e-05 -1.88757e-05 0 7.10451e-05 -1.76039e-05 0 6.45752e-05 -1.60806e-05 0 5.87085e-05 -1.44575e-05 0 5.34309e-05 -1.28545e-05 0 4.86909e-05 -1.13434e-05 0 4.44258e-05 -9.95768e-06 0 4.05755e-05 -8.70588e-06 0 3.70869e-05 -7.58354e-06 0 3.39147e-05 -6.58034e-06 0 3.10203e-05 -5.68412e-06 0 2.83709e-05 -4.88286e-06 0 2.5938e-05 -4.16559e-06 0 2.36973e-05 -3.52265e-06 0 2.16273e-05 -2.94569e-06 0 1.97094e-05 -2.4276e-06 0 1.79269e-05 -1.96232e-06 0 1.62651e-05 -1.54469e-06 0 1.47108e-05 -1.17032e-06 0 1.3252e-05 -8.35489e-07 0 1.18781e-05 -5.36996e-07 0 1.05791e-05 -2.72121e-07 0 9.34611e-06 -3.85372e-08 0 8.17072e-06 1.65738e-07 0 7.04522e-06 3.42385e-07 0 5.96239e-06 4.92823e-07 0 4.9154e-06 6.18232e-07 0 3.89778e-06 7.19577e-07 0 2.90333e-06 7.97627e-07 0 1.92608e-06 8.52967e-07 0 9.60209e-07 8.86008e-07 0 0 8.96994e-07 0 7.85575e-05 -1.52994e-05 0 7.1691e-05 -1.42539e-05 0 6.53004e-05 -1.30068e-05 0 5.94509e-05 -1.16724e-05 0 5.41474e-05 -1.03444e-05 0 4.93577e-05 -9.0827e-06 0 4.50335e-05 -7.91781e-06 0 4.1123e-05 -6.85997e-06 0 3.75776e-05 -5.90776e-06 0 3.43536e-05 -5.05402e-06 0 3.14129e-05 -4.28946e-06 0 2.87224e-05 -3.60452e-06 0 2.62531e-05 -2.99029e-06 0 2.39801e-05 -2.43882e-06 0 2.18814e-05 -1.94321e-06 0 1.99377e-05 -1.49754e-06 0 1.81321e-05 -1.09675e-06 0 1.64492e-05 -7.36565e-07 0 1.48758e-05 -4.13306e-07 0 1.33995e-05 -1.23856e-07 0 1.20093e-05 1.34447e-07 0 1.06953e-05 3.63881e-07 0 9.44819e-06 5.6639e-07 0 8.25956e-06 7.4363e-07 0 7.12153e-06 8.9701e-07 0 6.02676e-06 1.02771e-06 0 4.96833e-06 1.13673e-06 0 3.93966e-06 1.22487e-06 0 2.93448e-06 1.29277e-06 0 1.94672e-06 1.34093e-06 0 9.70492e-07 1.36969e-06 0 0 1.37925e-06 0 7.8968e-05 -1.18033e-05 0 7.22161e-05 -1.09547e-05 0 6.58887e-05 -9.95414e-06 0 6.00558e-05 -8.88493e-06 0 5.4735e-05 -7.81706e-06 0 4.99081e-05 -6.79726e-06 0 4.55378e-05 -5.85087e-06 0 4.15794e-05 -4.98752e-06 0 3.7988e-05 -4.20731e-06 0 3.47218e-05 -3.5054e-06 0 3.17431e-05 -2.87491e-06 0 2.90187e-05 -2.30853e-06 0 2.65193e-05 -1.79932e-06 0 2.42195e-05 -1.34105e-06 0 2.20968e-05 -9.2826e-07 0 2.01316e-05 -5.56266e-07 0 1.83065e-05 -2.21059e-07 0 1.66061e-05 8.07765e-08 0 1.50165e-05 3.52152e-07 0 1.35254e-05 5.95552e-07 0 1.21215e-05 8.13099e-07 0 1.07947e-05 1.00661e-06 0 9.53567e-06 1.17763e-06 0 8.33576e-06 1.32748e-06 0 7.18704e-06 1.4573e-06 0 6.08206e-06 1.56802e-06 0 5.01383e-06 1.66045e-06 0 3.97568e-06 1.73522e-06 0 2.96128e-06 1.79285e-06 0 1.96448e-06 1.83374e-06 0 9.79342e-07 1.85817e-06 0 0 1.86629e-06 0 7.9303e-05 -8.36648e-06 0 7.26335e-05 -7.69386e-06 0 6.63521e-05 -6.91819e-06 0 6.05317e-05 -6.09651e-06 0 5.51986e-05 -5.27711e-06 0 5.03443e-05 -4.49308e-06 0 4.59392e-05 -3.76294e-06 0 4.19441e-05 -3.09416e-06 0 3.83173e-05 -2.48723e-06 0 3.50183e-05 -1.93891e-06 0 3.20098e-05 -1.44434e-06 0 2.92588e-05 -9.98264e-07 0 2.67356e-05 -5.95644e-07 0 2.44146e-05 -2.31929e-07 0 2.22729e-05 9.68676e-08 0 2.02905e-05 3.94185e-07 0 1.84499e-05 6.62966e-07 0 1.67353e-05 9.05721e-07 0 1.51327e-05 1.12459e-06 0 1.36295e-05 1.32142e-06 0 1.22145e-05 1.49775e-06 0 1.08773e-05 1.65495e-06 0 9.60838e-06 1.79415e-06 0 8.39918e-06 1.91634e-06 0 7.24162e-06 2.02235e-06 0 6.12819e-06 2.1129e-06 0 5.05181e-06 2.18857e-06 0 4.00577e-06 2.24985e-06 0 2.98367e-06 2.29711e-06 0 1.97934e-06 2.33067e-06 0 9.86745e-07 2.35072e-06 0 0 2.35739e-06 0 7.95708e-05 -4.97028e-06 0 7.29525e-05 -4.45892e-06 0 6.66989e-05 -3.89346e-06 0 6.08849e-05 -3.30711e-06 0 5.5542e-05 -2.72792e-06 0 5.06678e-05 -2.17513e-06 0 4.6238e-05 -1.6595e-06 0 4.22169e-05 -1.18525e-06 0 3.85647e-05 -7.52467e-07 0 3.52422e-05 -3.5898e-07 0 3.22123e-05 -1.65727e-09 0 2.9442e-05 3.22852e-07 0 2.69015e-05 6.17746e-07 0 2.45649e-05 8.85906e-07 0 2.24092e-05 1.12985e-06 0 2.04141e-05 1.35176e-06 0 1.85618e-05 1.55349e-06 0 1.68365e-05 1.73663e-06 0 1.5224e-05 1.90254e-06 0 1.37117e-05 2.0524e-06 0 1.2288e-05 2.18719e-06 0 1.09427e-05 2.30778e-06 0 9.66618e-06 2.41492e-06 0 8.44971e-06 2.50924e-06 0 7.28519e-06 2.59128e-06 0 6.16506e-06 2.6615e-06 0 5.08221e-06 2.72029e-06 0 4.02988e-06 2.76797e-06 0 3.00164e-06 2.8048e-06 0 1.99125e-06 2.83097e-06 0 9.92687e-07 2.84662e-06 0 0 2.85182e-06 0 7.97765e-05 -1.59628e-06 0 7.31791e-05 -1.23762e-06 0 6.69347e-05 -8.73783e-07 0 6.11195e-05 -5.15705e-07 0 5.57677e-05 -1.71918e-07 0 5.088e-05 1.52269e-07 0 4.64345e-05 4.544e-07 0 4.23974e-05 7.34082e-07 0 3.87299e-05 9.92145e-07 0 3.5393e-05 1.23e-06 0 3.23501e-05 1.44922e-06 0 2.95678e-05 1.65136e-06 0 2.70166e-05 1.83781e-06 0 2.46701e-05 2.00978e-06 0 2.25054e-05 2.16834e-06 0 2.0502e-05 2.31437e-06 0 1.8642e-05 2.44865e-06 0 1.69096e-05 2.57184e-06 0 1.52903e-05 2.6845e-06 0 1.37717e-05 2.78714e-06 0 1.2342e-05 2.88017e-06 0 1.0991e-05 2.96398e-06 0 9.70898e-06 3.0389e-06 0 8.48725e-06 3.1052e-06 0 7.31767e-06 3.16315e-06 0 6.19262e-06 3.21295e-06 0 5.10498e-06 3.25479e-06 0 4.04798e-06 3.28881e-06 0 3.01514e-06 3.31515e-06 0 2.00022e-06 3.3339e-06 0 9.9716e-07 3.34512e-06 0 -1.11423e-20 3.34886e-06 0 7.99231e-05 1.77329e-06 0 7.33162e-05 1.98238e-06 0 6.7062e-05 2.14741e-06 0 6.12373e-05 2.27936e-06 0 5.58768e-05 2.38906e-06 0 5.09812e-05 2.48524e-06 0 4.65288e-05 2.57394e-06 0 4.24855e-05 2.65883e-06 0 3.88124e-05 2.74181e-06 0 3.54704e-05 2.82363e-06 0 3.24227e-05 2.90437e-06 0 2.9636e-05 2.98379e-06 0 2.70805e-05 3.06149e-06 0 2.473e-05 3.13701e-06 0 2.25613e-05 3.20995e-06 0 2.05541e-05 3.27992e-06 0 1.86904e-05 3.34658e-06 0 1.69543e-05 3.40968e-06 0 1.53316e-05 3.46897e-06 0 1.38094e-05 3.52427e-06 0 1.23764e-05 3.57546e-06 0 1.1022e-05 3.6224e-06 0 9.73673e-06 3.66502e-06 0 8.51178e-06 3.70326e-06 0 7.33902e-06 3.73706e-06 0 6.21085e-06 3.76639e-06 0 5.12011e-06 3.79123e-06 0 4.06004e-06 3.81157e-06 0 3.02416e-06 3.8274e-06 0 2.00623e-06 3.83871e-06 0 1.00016e-06 3.84549e-06 0 -8.19914e-20 3.84776e-06 0 8.00108e-05 5.15629e-06 0 7.3364e-05 5.21348e-06 0 6.70807e-05 5.17685e-06 0 6.12382e-05 5.07993e-06 0 5.58691e-05 4.95336e-06 0 5.09714e-05 4.82001e-06 0 4.65207e-05 4.69439e-06 0 4.24811e-05 4.58404e-06 0 3.88122e-05 4.49176e-06 0 3.54743e-05 4.41752e-06 0 3.24302e-05 4.35985e-06 0 2.96465e-05 4.31665e-06 0 2.70933e-05 4.28571e-06 0 2.47445e-05 4.26489e-06 0 2.25769e-05 4.25231e-06 0 2.05704e-05 4.24629e-06 0 1.8707e-05 4.24541e-06 0 1.69708e-05 4.24846e-06 0 1.53477e-05 4.25443e-06 0 1.38249e-05 4.26245e-06 0 1.23911e-05 4.2718e-06 0 1.10358e-05 4.2819e-06 0 9.74942e-06 4.29225e-06 0 8.52328e-06 4.30242e-06 0 7.34924e-06 4.31208e-06 0 6.21972e-06 4.32095e-06 0 5.12758e-06 4.32881e-06 0 4.06606e-06 4.33546e-06 0 3.02871e-06 4.34078e-06 0 2.00927e-06 4.34465e-06 0 1.00168e-06 4.347e-06 0 -1.26015e-20 4.34779e-06 0 8.00374e-05 8.5707e-06 0 7.33196e-05 8.46823e-06 0 6.69882e-05 8.22126e-06 0 6.11199e-05 7.88771e-06 0 5.5743e-05 7.51912e-06 0 5.08495e-05 7.15268e-06 0 4.64098e-05 6.8109e-06 0 4.23839e-05 6.50465e-06 0 3.87293e-05 6.23715e-06 0 3.54048e-05 6.00726e-06 0 3.23727e-05 5.81171e-06 0 2.95994e-05 5.64645e-06 0 2.70551e-05 5.5074e-06 0 2.47137e-05 5.39072e-06 0 2.25523e-05 5.29303e-06 0 2.05509e-05 5.21138e-06 0 1.86917e-05 5.14326e-06 0 1.6959e-05 5.08653e-06 0 1.53387e-05 5.03938e-06 0 1.38183e-05 5.00028e-06 0 1.23862e-05 4.96797e-06 0 1.10323e-05 4.94135e-06 0 9.74707e-06 4.91951e-06 0 8.52176e-06 4.90171e-06 0 7.34834e-06 4.88731e-06 0 6.21925e-06 4.87577e-06 0 5.1274e-06 4.86668e-06 0 4.06605e-06 4.85969e-06 0 3.02877e-06 4.85452e-06 0 2.00935e-06 4.85097e-06 0 1.00173e-06 4.84889e-06 0 0 4.84821e-06 0 7.99984e-05 1.20354e-05 0 7.31772e-05 1.17594e-05 0 6.67785e-05 1.12871e-05 0 6.08777e-05 1.07039e-05 0 5.54954e-05 1.0084e-05 0 5.06139e-05 9.47887e-06 0 4.61954e-05 8.91833e-06 0 4.21941e-05 8.41547e-06 0 3.8564e-05 7.97309e-06 0 3.52624e-05 7.58839e-06 0 3.22507e-05 7.25599e-06 0 2.94952e-05 6.96971e-06 0 2.69662e-05 6.72351e-06 0 2.46379e-05 6.51182e-06 0 2.24878e-05 6.32975e-06 0 2.0496e-05 6.17311e-06 0 1.8645e-05 6.03828e-06 0 1.69192e-05 5.92221e-06 0 1.53049e-05 5.82232e-06 0 1.37895e-05 5.73644e-06 0 1.23618e-05 5.66271e-06 0 1.10117e-05 5.59959e-06 0 9.72975e-06 5.54578e-06 0 8.5073e-06 5.50016e-06 0 7.33637e-06 5.46181e-06 0 6.20948e-06 5.42998e-06 0 5.1196e-06 5.40404e-06 0 4.06003e-06 5.38346e-06 0 3.02438e-06 5.36786e-06 0 2.00648e-06 5.35692e-06 0 1.00032e-06 5.35044e-06 0 0 5.3483e-06 0 7.98862e-05 1.557e-05 0 7.29275e-05 1.51e-05 0 6.64429e-05 1.43802e-05 0 6.0505e-05 1.35286e-05 0 5.51221e-05 1.26445e-05 0 5.02624e-05 1.17935e-05 0 4.58766e-05 1.10111e-05 0 4.19115e-05 1.0311e-05 0 3.83167e-05 9.69455e-06 0 3.50475e-05 9.15643e-06 0 3.20647e-05 8.68874e-06 0 2.93344e-05 8.28297e-06 0 2.68272e-05 7.931e-06 0 2.45177e-05 7.62552e-06 0 2.23838e-05 7.36014e-06 0 2.04059e-05 7.12939e-06 0 1.85669e-05 6.92861e-06 0 1.68515e-05 6.75385e-06 0 1.52463e-05 6.60177e-06 0 1.37388e-05 6.46955e-06 0 1.23181e-05 6.35481e-06 0 1.09741e-05 6.25552e-06 0 9.69756e-06 6.16999e-06 0 8.47996e-06 6.09679e-06 0 7.3134e-06 6.0347e-06 0 6.19048e-06 5.98273e-06 0 5.10423e-06 5.94005e-06 0 4.04804e-06 5.90599e-06 0 3.01556e-06 5.88003e-06 0 2.00068e-06 5.86176e-06 0 9.9744e-07 5.85091e-06 0 0 5.84731e-06 0 7.96904e-05 1.91965e-05 0 7.25573e-05 1.85035e-05 0 6.59689e-05 1.75058e-05 0 5.99924e-05 1.63607e-05 0 5.46175e-05 1.51959e-05 0 4.97924e-05 1.40905e-05 0 4.54528e-05 1.30829e-05 0 4.15364e-05 1.21855e-05 0 3.79882e-05 1.13964e-05 0 3.47612e-05 1.07068e-05 0 3.18157e-05 1.0106e-05 0 2.91179e-05 9.5828e-06 0 2.66389e-05 9.1269e-06 0 2.43537e-05 8.72922e-06 0 2.22408e-05 8.38189e-06 0 2.02811e-05 8.0782e-06 0 1.84579e-05 7.81246e-06 0 1.67564e-05 7.57984e-06 0 1.51632e-05 7.37627e-06 0 1.36665e-05 7.19831e-06 0 1.22552e-05 7.04305e-06 0 1.09196e-05 6.90802e-06 0 9.65065e-06 6.79114e-06 0 8.43987e-06 6.69064e-06 0 7.27953e-06 6.60506e-06 0 6.16231e-06 6.53315e-06 0 5.08136e-06 6.47391e-06 0 4.03012e-06 6.4265e-06 0 3.00234e-06 6.39028e-06 0 1.99197e-06 6.36475e-06 0 9.93115e-07 6.34957e-06 0 0 6.34453e-06 0 7.93963e-05 2.29379e-05 0 7.20483e-05 2.19841e-05 0 6.53399e-05 2.06671e-05 0 5.93284e-05 1.91963e-05 0 5.39752e-05 1.77315e-05 0 4.92011e-05 1.63623e-05 0 4.49234e-05 1.51268e-05 0 4.10695e-05 1.40328e-05 0 3.75795e-05 1.30732e-05 0 3.44047e-05 1.22351e-05 0 3.1505e-05 1.15039e-05 0 2.88469e-05 1.08658e-05 0 2.64022e-05 1.03083e-05 0 2.41468e-05 9.82036e-06 0 2.20596e-05 9.39276e-06 0 2.01223e-05 9.01755e-06 0 1.83186e-05 8.68804e-06 0 1.66342e-05 8.39858e-06 0 1.50562e-05 8.14438e-06 0 1.35728e-05 7.92141e-06 0 1.21734e-05 7.72625e-06 0 1.08485e-05 7.55599e-06 0 9.5892e-06 7.40819e-06 0 8.3872e-06 7.28078e-06 0 7.23488e-06 7.172e-06 0 6.12509e-06 7.08042e-06 0 5.05106e-06 7.00481e-06 0 4.00634e-06 6.94422e-06 0 2.98477e-06 6.89786e-06 0 1.98038e-06 6.86516e-06 0 9.87358e-07 6.8457e-06 0 -4.89497e-20 6.83924e-06 0 7.89861e-05 2.68248e-05 0 7.13758e-05 2.55561e-05 0 6.45341e-05 2.38652e-05 0 5.84989e-05 2.20287e-05 0 5.3188e-05 2.02418e-05 0 4.84861e-05 1.86e-05 0 4.42885e-05 1.71351e-05 0 4.05119e-05 1.58463e-05 0 3.70923e-05 1.47197e-05 0 3.39796e-05 1.37366e-05 0 3.11339e-05 1.28786e-05 0 2.85226e-05 1.21288e-05 0 2.61183e-05 1.14723e-05 0 2.38978e-05 1.08965e-05 0 2.18409e-05 1.03906e-05 0 1.993e-05 9.9455e-06 0 1.81495e-05 9.55363e-06 0 1.64855e-05 9.20852e-06 0 1.49254e-05 8.9047e-06 0 1.34581e-05 8.63757e-06 0 1.20731e-05 8.40323e-06 0 1.07611e-05 8.19836e-06 0 9.51344e-06 8.02016e-06 0 8.32211e-06 7.86626e-06 0 7.17962e-06 7.73466e-06 0 6.07894e-06 7.62369e-06 0 5.01344e-06 7.53197e-06 0 3.97678e-06 7.45838e-06 0 2.96291e-06 7.40204e-06 0 1.96595e-06 7.36226e-06 0 9.80187e-07 7.33858e-06 0 -1.44068e-19 7.33071e-06 0 7.84339e-05 3.08864e-05 0 7.05058e-05 2.92354e-05 0 6.35236e-05 2.70968e-05 0 5.74877e-05 2.48461e-05 0 5.2249e-05 2.27143e-05 0 4.76455e-05 2.07927e-05 0 4.35487e-05 1.90989e-05 0 3.98655e-05 1.76193e-05 0 3.65287e-05 1.63302e-05 0 3.3488e-05 1.52069e-05 0 3.07044e-05 1.42263e-05 0 2.81466e-05 1.33684e-05 0 2.57885e-05 1.26162e-05 0 2.3608e-05 1.19551e-05 0 2.15858e-05 1.13732e-05 0 1.97053e-05 1.08602e-05 0 1.79514e-05 1.04076e-05 0 1.63108e-05 1.00082e-05 0 1.47716e-05 9.65587e-06 0 1.33228e-05 9.34555e-06 0 1.19545e-05 9.07286e-06 0 1.06575e-05 8.83407e-06 0 9.4236e-06 8.62606e-06 0 8.24483e-06 8.44617e-06 0 7.11391e-06 8.29216e-06 0 6.02401e-06 8.16216e-06 0 4.96861e-06 8.0546e-06 0 3.94153e-06 7.96824e-06 0 2.93682e-06 7.90207e-06 0 1.94872e-06 7.85534e-06 0 9.71624e-07 7.82751e-06 0 -5.66504e-21 7.81826e-06 0 7.77087e-05 3.51791e-05 0 6.93912e-05 3.30365e-05 0 6.22728e-05 3.03518e-05 0 5.62771e-05 2.76302e-05 0 5.11523e-05 2.51324e-05 0 4.66793e-05 2.29278e-05 0 4.27062e-05 2.1009e-05 0 3.91329e-05 1.93445e-05 0 3.58912e-05 1.78994e-05 0 3.29322e-05 1.66416e-05 0 3.02186e-05 1.55434e-05 0 2.77208e-05 1.45818e-05 0 2.54144e-05 1.37373e-05 0 2.32786e-05 1.29941e-05 0 2.12954e-05 1.23386e-05 0 1.94489e-05 1.17598e-05 0 1.77249e-05 1.12482e-05 0 1.61108e-05 1.0796e-05 0 1.45951e-05 1.03966e-05 0 1.31674e-05 1.00441e-05 0 1.1818e-05 9.73402e-06 0 1.05383e-05 9.4621e-06 0 9.31999e-06 9.22495e-06 0 8.15559e-06 9.01963e-06 0 7.03797e-06 8.84368e-06 0 5.96045e-06 8.69502e-06 0 4.91671e-06 8.57195e-06 0 3.9007e-06 8.47306e-06 0 2.90659e-06 8.39726e-06 0 1.92875e-06 8.3437e-06 0 9.61692e-07 8.31179e-06 0 0 8.3012e-06 0 7.67667e-05 3.97453e-05 0 6.7963e-05 3.69758e-05 0 6.07378e-05 3.36074e-05 0 5.48502e-05 3.03539e-05 0 4.98946e-05 2.74754e-05 0 4.55894e-05 2.49909e-05 0 4.17645e-05 2.28554e-05 0 3.83179e-05 2.10151e-05 0 3.51835e-05 1.94219e-05 0 3.23153e-05 1.80365e-05 0 2.96789e-05 1.68265e-05 0 2.72472e-05 1.57659e-05 0 2.49977e-05 1.48333e-05 0 2.29112e-05 1.40111e-05 0 2.09708e-05 1.3285e-05 0 1.91619e-05 1.26426e-05 0 1.7471e-05 1.20741e-05 0 1.58863e-05 1.15708e-05 0 1.43967e-05 1.11255e-05 0 1.29924e-05 1.07322e-05 0 1.16642e-05 1.03856e-05 0 1.04037e-05 1.00815e-05 0 9.20293e-06 9.81589e-06 0 8.05466e-06 9.58575e-06 0 6.952e-06 9.38837e-06 0 5.88846e-06 9.22149e-06 0 4.85789e-06 9.08325e-06 0 3.85439e-06 8.97211e-06 0 2.87229e-06 8.88689e-06 0 1.90609e-06 8.82665e-06 0 9.50421e-07 8.79076e-06 0 0 8.77884e-06 0 7.55384e-05 4.47338e-05 0 6.61166e-05 4.10568e-05 0 5.88675e-05 3.68206e-05 0 5.3194e-05 3.29787e-05 0 4.84775e-05 2.97186e-05 0 4.43809e-05 2.69666e-05 0 4.07291e-05 2.46283e-05 0 3.74253e-05 2.2624e-05 0 3.44094e-05 2.08927e-05 0 3.16405e-05 1.93876e-05 0 2.90882e-05 1.80724e-05 0 2.67282e-05 1.69181e-05 0 2.45404e-05 1.59017e-05 0 2.25072e-05 1.50043e-05 0 2.06135e-05 1.42104e-05 0 1.88454e-05 1.35071e-05 0 1.71906e-05 1.28837e-05 0 1.56379e-05 1.2331e-05 0 1.4177e-05 1.18415e-05 0 1.27984e-05 1.14086e-05 0 1.14935e-05 1.10267e-05 0 1.02541e-05 1.06912e-05 0 9.07275e-06 1.0398e-05 0 7.94234e-06 1.01437e-05 0 6.85626e-06 9.92546e-06 0 5.80824e-06 9.74082e-06 0 4.7923e-06 9.58778e-06 0 3.80273e-06 9.4647e-06 0 2.83401e-06 9.37028e-06 0 1.88079e-06 9.30352e-06 0 9.37839e-07 9.26374e-06 0 0 9.25053e-06 0 7.39505e-05 5.0257e-05 0 6.36839e-05 4.52709e-05 0 5.66111e-05 3.99093e-05 0 5.13054e-05 3.54549e-05 0 4.69099e-05 3.18341e-05 0 4.30629e-05 2.88397e-05 0 3.96077e-05 2.63181e-05 0 3.64612e-05 2.4165e-05 0 3.35739e-05 2.23072e-05 0 3.09118e-05 2.06915e-05 0 2.84495e-05 1.92781e-05 0 2.61663e-05 1.80359e-05 0 2.40444e-05 1.69404e-05 0 2.20685e-05 1.59716e-05 0 2.02247e-05 1.51132e-05 0 1.85006e-05 1.43516e-05 0 1.68847e-05 1.36756e-05 0 1.53666e-05 1.30755e-05 0 1.39367e-05 1.25434e-05 0 1.25861e-05 1.20722e-05 0 1.13064e-05 1.16562e-05 0 1.00901e-05 1.12903e-05 0 8.92984e-06 1.09704e-05 0 7.81895e-06 1.06927e-05 0 6.75102e-06 1.04541e-05 0 5.72e-06 1.02523e-05 0 4.72013e-06 1.00848e-05 0 3.74587e-06 9.95013e-06 0 2.79187e-06 9.84676e-06 0 1.85293e-06 9.77366e-06 0 9.2398e-07 9.73009e-06 0 0 9.71562e-06 0 7.17413e-05 5.69665e-05 0 6.03956e-05 4.94942e-05 0 5.39457e-05 4.27405e-05 0 4.91968e-05 3.77238e-05 0 4.52123e-05 3.37942e-05 0 4.16471e-05 3.05958e-05 0 3.84108e-05 2.79166e-05 0 3.54322e-05 2.56328e-05 0 3.26824e-05 2.36614e-05 0 3.01332e-05 2.19451e-05 0 2.77662e-05 2.04412e-05 0 2.5564e-05 1.91172e-05 0 2.3512e-05 1.79475e-05 0 2.15967e-05 1.69114e-05 0 1.98061e-05 1.59918e-05 0 1.81288e-05 1.51748e-05 0 1.65544e-05 1.44486e-05 0 1.50734e-05 1.38031e-05 0 1.36767e-05 1.323e-05 0 1.2356e-05 1.27221e-05 0 1.11035e-05 1.22731e-05 0 9.91203e-06 1.1878e-05 0 8.77461e-06 1.15322e-05 0 7.68482e-06 1.12318e-05 0 6.63655e-06 1.09737e-05 0 5.62398e-06 1.07551e-05 0 4.64156e-06 1.05737e-05 0 3.68394e-06 1.04277e-05 0 2.74596e-06 1.03157e-05 0 1.82258e-06 1.02364e-05 0 9.08878e-07 1.01892e-05 0 0 1.01735e-05 0 6.8795e-05 6.6257e-05 0 5.5921e-05 5.32777e-05 0 5.08764e-05 4.51319e-05 0 4.69337e-05 3.97278e-05 0 4.3402e-05 3.5576e-05 0 4.0156e-05 3.22237e-05 0 3.71475e-05 2.94176e-05 0 3.43475e-05 2.70228e-05 0 3.17405e-05 2.49525e-05 0 2.93093e-05 2.31457e-05 0 2.70417e-05 2.15596e-05 0 2.49242e-05 2.01601e-05 0 2.29454e-05 1.89214e-05 0 2.10938e-05 1.78221e-05 0 1.93591e-05 1.68449e-05 0 1.77312e-05 1.59754e-05 0 1.62008e-05 1.52014e-05 0 1.4759e-05 1.45126e-05 0 1.33976e-05 1.39004e-05 0 1.21088e-05 1.33572e-05 0 1.08854e-05 1.28767e-05 0 9.72046e-06 1.24534e-05 0 8.60748e-06 1.20826e-05 0 7.54032e-06 1.17604e-05 0 6.51316e-06 1.14834e-05 0 5.52044e-06 1.12486e-05 0 4.5568e-06 1.10538e-05 0 3.61712e-06 1.08969e-05 0 2.6964e-06 1.07764e-05 0 1.78981e-06 1.06912e-05 0 8.92571e-07 1.06404e-05 0 0 1.06235e-05 0 5.78448e-05 8.16744e-05 0 5.04784e-05 5.49113e-05 0 4.73735e-05 4.70629e-05 0 4.47107e-05 4.13892e-05 0 4.14436e-05 3.71769e-05 0 3.86488e-05 3.37145e-05 0 3.58085e-05 3.08165e-05 0 3.3227e-05 2.83334e-05 0 3.07479e-05 2.61771e-05 0 2.8448e-05 2.42921e-05 0 2.62778e-05 2.2631e-05 0 2.42506e-05 2.11631e-05 0 2.23465e-05 1.98604e-05 0 2.0562e-05 1.87024e-05 0 1.88854e-05 1.76711e-05 0 1.73094e-05 1.67521e-05 0 1.5825e-05 1.59329e-05 0 1.44245e-05 1.5203e-05 0 1.31004e-05 1.45535e-05 0 1.18454e-05 1.39767e-05 0 1.06527e-05 1.34659e-05 0 9.5159e-06 1.30157e-05 0 8.42889e-06 1.2621e-05 0 7.38583e-06 1.22778e-05 0 6.38117e-06 1.19825e-05 0 5.40962e-06 1.17322e-05 0 4.46605e-06 1.15243e-05 0 3.54554e-06 1.13569e-05 0 2.64332e-06 1.12283e-05 0 1.7547e-06 1.11373e-05 0 8.75099e-07 1.10831e-05 0 0 1.10651e-05 0 </DataArray> 
</PointData> 
<Points> 
<DataArray type="Float32" NumberOfComponents="3"> 