<?xml version="1.0"?> 
<VTKFile type="StructuredGrid" version="0.1"> 
<StructuredGrid WholeExtent="0 31 0 31 0 0"> 
<Piece Extent="0 31 0 31 0 0"> 
<PointData>
<DataArray type="Float32" Name="B" format="ascii" NumberOfComponents="3"> 
0 8.08384e-05 0 1.95725e-05 8.06483e-05 0 3.93115e-05 8.00321e-05 0 5.92984e-05 7.88647e-05 0 7.94479e-05 7.6969e-05 0 9.94595e-05 7.41719e-05 0 0.000118844 7.03749e-05 0 0.000137044 6.56028e-05 0 0.000153587 5.99966e-05 0 0.000168178 5.37594e-05 0 0.000180704 4.70978e-05 0 0.00019118 4.01849e-05 0 0.000199687 3.31491e-05 0 0.000206333 2.60769e-05 0 0.000211217 1.90224e-05 0 0.000214417 1.20169e-05 0 0.000215983 5.07883e-06 0 0.000215934 -1.77772e-06 0 0.000214254 -8.53511e-06 0 0.000210906 -1.51626e-05 0 0.000205823 -2.16094e-05 0 0.000198957 -2.77913e-05 0 0.000190246 -3.35888e-05 0 0.000179787 -3.88363e-05 0 0.000167648 -4.33501e-05 0 0.000154407 -4.69512e-05 0 0.000140219 -4.9551e-05 0 0.000126503 -5.12226e-05 0 0.000112426 -5.21716e-05 0 0.000100963 -5.31342e-05 0 8.8335e-05 -5.45571e-05 0 5.36825e-05 -7.05882e-05 0 0 7.44056e-05 0 1.90602e-05 7.41937e-05 0 3.81944e-05 7.35247e-05 0 5.7412e-05 7.23108e-05 0 7.66019e-05 7.0431e-05 0 9.55068e-05 6.77719e-05 0 0.000113746 6.42729e-05 0 0.000130895 5.99561e-05 0 0.00014658 5.49232e-05 0 0.000160544 4.93243e-05 0 0.000172658 4.332e-05 0 0.000182896 3.70536e-05 0 0.000191293 3.06387e-05 0 0.000197914 2.41584e-05 0 0.000202828 1.76698e-05 0 0.000206093 1.12111e-05 0 0.000207748 4.80945e-06 0 0.000207811 -1.51212e-06 0 0.000206278 -7.72739e-06 0 0.000203126 -1.37998e-05 0 0.000198326 -1.96754e-05 0 0.000191853 -2.52763e-05 0 0.000183718 -3.04969e-05 0 0.000173991 -3.5207e-05 0 0.000162864 -3.92658e-05 0 0.000150627 -4.2555e-05 0 0.000137748 -4.50237e-05 0 0.000124611 -4.67311e-05 0 0.000111716 -4.78918e-05 0 9.88255e-05 -4.88697e-05 0 8.51035e-05 -5.04052e-05 0 6.42379e-05 -5.13995e-05 0 0 6.81455e-05 0 1.85146e-05 6.79252e-05 0 3.70377e-05 6.72413e-05 0 5.55304e-05 6.60328e-05 0 7.38684e-05 6.42182e-05 0 9.18274e-05 6.17238e-05 0 0.000109102 5.85135e-05 0 0.000125357 5.46082e-05 0 0.00014029 5.00845e-05 0 0.000153679 4.50561e-05 0 0.000165391 3.96493e-05 0 0.000175375 3.39822e-05 0 0.000183634 2.81542e-05 0 0.000190202 2.22424e-05 0 0.000195121 1.63041e-05 0 0.000198434 1.03815e-05 0 0.00020017 4.50705e-06 0 0.000200348 -1.28998e-06 0 0.00019897 -6.97801e-06 0 0.00019603 -1.25172e-05 0 0.00019152 -1.78539e-05 0 0.000185445 -2.2917e-05 0 0.000177841 -2.76163e-05 0 0.000168802 -3.18473e-05 0 0.0001585 -3.55041e-05 0 0.000147198 -3.85038e-05 0 0.000135221 -4.08154e-05 0 0.000122901 -4.24873e-05 0 0.000110435 -4.36582e-05 0 9.77059e-05 -4.45295e-05 0 8.38085e-05 -4.51683e-05 0 6.75317e-05 -4.43716e-05 0 0 6.20656e-05 0 1.7963e-05 6.18467e-05 0 3.58892e-05 6.1174e-05 0 5.37076e-05 6.00061e-05 0 7.12875e-05 5.82888e-05 0 8.84298e-05 5.59749e-05 0 0.000104881 5.30447e-05 0 0.00012037 4.95181e-05 0 0.000134645 4.54552e-05 0 0.000147512 4.09441e-05 0 0.000158842 3.60852e-05 0 0.00016857 3.09763e-05 0 0.000176676 2.57034e-05 0 0.000183171 2.03366e-05 0 0.000188078 1.49316e-05 0 0.000191426 9.53172e-06 0 0.000193237 4.17275e-06 0 0.000193529 -1.11254e-06 0 0.000192309 -6.28958e-06 0 0.000189585 -1.13174e-05 0 0.000185364 -1.61447e-05 0 0.000179672 -2.07075e-05 0 0.000172564 -2.49294e-05 0 0.000164139 -2.87262e-05 0 0.000154558 -3.20171e-05 0 0.000144042 -3.47412e-05 0 0.000132846 -3.68767e-05 0 0.00012121 -3.8454e-05 0 0.000109271 -3.95484e-05 0 9.69373e-05 -4.02351e-05 0 8.38509e-05 -4.03817e-05 0 7.00755e-05 -3.94506e-05 0 0 5.61655e-05 0 1.74251e-05 5.59546e-05 0 3.47824e-05 5.5311e-05 0 5.19801e-05 5.42072e-05 0 6.8885e-05 5.26076e-05 0 8.53171e-05 5.04831e-05 0 0.000101061 4.78247e-05 0 0.000115887 4.46516e-05 0 0.000129586 4.10119e-05 0 0.000141984 3.69758e-05 0 0.000152959 3.2624e-05 0 0.000162437 2.80376e-05 0 0.000170386 2.32905e-05 0 0.000176797 1.84461e-05 0 0.000181681 1.35565e-05 0 0.000185054 8.66488e-06 0 0.000186933 3.80804e-06 0 0.000187335 -9.79601e-07 0 0.000186272 -5.66239e-06 0 0.000183759 -1.01999e-05 0 0.000179818 -1.45443e-05 0 0.000174488 -1.86388e-05 0 0.000167834 -2.24186e-05 0 0.000159957 -2.58156e-05 0 0.000151005 -2.87666e-05 0 0.000141166 -3.1225e-05 0 0.000130647 -3.31717e-05 0 0.000119637 -3.46202e-05 0 0.00010825 -3.56034e-05 0 9.64895e-05 -3.61269e-05 0 8.43009e-05 -3.6074e-05 0 7.20027e-05 -3.51605e-05 0 0 5.0439e-05 0 1.69139e-05 5.02406e-05 0 3.37394e-05 4.96382e-05 0 5.03715e-05 4.86137e-05 0 6.66763e-05 4.71446e-05 0 8.24888e-05 4.52139e-05 0 9.76201e-05 4.28192e-05 0 0.000111874 3.99792e-05 0 0.000125068 3.67333e-05 0 0.000137047 3.31382e-05 0 0.000147697 2.92595e-05 0 0.000156939 2.51648e-05 0 0.000164732 2.09175e-05 0 0.000171056 1.65738e-05 0 0.000175909 1.2182e-05 0 0.0001793 7.78351e-06 0 0.000181241 3.41475e-06 0 0.000181747 -8.89814e-07 0 0.000180834 -5.09495e-06 0 0.000178524 -9.162e-06 0 0.000174849 -1.3047e-05 0 0.000169855 -1.67001e-05 0 0.000163612 -2.00664e-05 0 0.000156223 -2.30904e-05 0 0.000147821 -2.57215e-05 0 0.000138571 -2.79222e-05 0 0.000128647 -2.96741e-05 0 0.000118212 -3.09782e-05 0 0.000107382 -3.18421e-05 0 9.62289e-05 -3.22495e-05 0 8.48494e-05 -3.21174e-05 0 7.35627e-05 -3.13404e-05 0 0 4.48762e-05 0 1.64385e-05 4.46933e-05 0 3.27752e-05 4.41399e-05 0 4.88967e-05 4.32045e-05 0 6.46702e-05 4.18735e-05 0 7.99421e-05 4.01377e-05 0 9.45433e-05 3.79993e-05 0 0.000108301 3.54755e-05 0 0.000121054 3.25997e-05 0 0.000132663 2.9418e-05 0 0.000143019 2.59843e-05 0 0.000152043 2.23548e-05 0 0.000159687 1.85839e-05 0 0.000165923 1.4721e-05 0 0.000170743 1.08101e-05 0 0.000174147 6.88971e-06 0 0.000176143 2.99493e-06 0 0.000176746 -8.4101e-07 0 0.000175975 -4.58438e-06 0 0.000173856 -8.1991e-06 0 0.000170427 -1.16455e-05 0 0.000165739 -1.48799e-05 0 0.000159867 -1.78562e-05 0 0.000152908 -2.05284e-05 0 0.000144989 -2.28555e-05 0 0.000136254 -2.48061e-05 0 0.000126857 -2.63623e-05 0 0.000116947 -2.75174e-05 0 0.000106648 -2.82669e-05 0 9.60738e-05 -2.85906e-05 0 8.53764e-05 -2.84418e-05 0 7.48307e-05 -2.77708e-05 0 0 3.94644e-05 0 1.60047e-05 3.92989e-05 0 3.1899e-05 3.87996e-05 0 4.75648e-05 3.79594e-05 0 6.2871e-05 3.67704e-05 0 7.76728e-05 3.52289e-05 0 9.18161e-05 3.33395e-05 0 0.000105146 3.11183e-05 0 0.000117516 2.85932e-05 0 0.000128799 2.58023e-05 0 0.000138893 2.27899e-05 0 0.000147719 1.96031e-05 0 0.000155225 1.6288e-05 0 0.000161378 1.28879e-05 0 0.000166163 9.44182e-06 0 0.000169576 5.98525e-06 0 0.000171622 2.55077e-06 0 0.000172315 -8.30402e-07 0 0.000171675 -4.12687e-06 0 0.000169732 -7.30568e-06 0 0.000166526 -1.03315e-05 0 0.000162115 -1.31667e-05 0 0.000156572 -1.57721e-05 0 0.000149993 -1.81098e-05 0 0.000142495 -2.01459e-05 0 0.00013421 -2.1854e-05 0 0.000125279 -2.32167e-05 0 0.000115842 -2.42237e-05 0 0.00010603 -2.48662e-05 0 9.59761e-05 -2.51276e-05 0 8.58478e-05 -2.49828e-05 0 7.58758e-05 -2.44216e-05 0 0 3.41894e-05 0 1.56161e-05 3.40426e-05 0 3.11167e-05 3.36003e-05 0 4.63811e-05 3.28587e-05 0 6.12801e-05 3.18137e-05 0 7.56761e-05 3.04648e-05 0 8.9426e-05 2.88178e-05 0 0.000102388 2.68873e-05 0 0.000114428 2.4697e-05 0 0.000125429 2.22783e-05 0 0.000135293 1.96677e-05 0 0.000143943 1.69043e-05 0 0.000151324 1.40272e-05 0 0.0001574 1.10736e-05 0 0.000162152 8.07778e-06 0 0.000165571 5.07157e-06 0 0.000167661 2.08456e-06 0 0.000168435 -8.54775e-07 0 0.000167914 -3.71793e-06 0 0.00016613 -6.47546e-06 0 0.000163126 -9.09643e-06 0 0.00015896 -1.15485e-05 0 0.000153707 -1.3799e-05 0 0.000147459 -1.58164e-05 0 0.000140327 -1.75726e-05 0 0.000132433 -1.90453e-05 0 0.00012391 -2.02183e-05 0 0.000114892 -2.10806e-05 0 0.000105513 -2.16227e-05 0 9.59129e-05 -2.18328e-05 0 8.62571e-05 -2.17002e-05 0 7.67421e-05 -2.1226e-05 0 0 2.90357e-05 0 1.52751e-05 2.89083e-05 0 3.04317e-05 2.8525e-05 0 4.53481e-05 2.78838e-05 0 5.98972e-05 2.69832e-05 0 7.39469e-05 2.58244e-05 0 8.73626e-05 2.44138e-05 0 0.000100012 2.27643e-05 0 0.000111772 2.08957e-05 0 0.000122531 1.88338e-05 0 0.000132196 1.66087e-05 0 0.000140692 1.42525e-05 0 0.000147963 1.1798e-05 0 0.000153971 9.27655e-06 0 0.000158692 6.71794e-06 0 0.000162117 4.14989e-06 0 0.000164246 1.59861e-06 0 0.000165092 -9.10631e-07 0 0.000164677 -3.35263e-06 0 0.000163034 -5.70168e-06 0 0.000160207 -7.9312e-06 0 0.000156256 -1.00139e-05 0 0.000151254 -1.19226e-05 0 0.000145292 -1.36313e-05 0 0.000138474 -1.51171e-05 0 0.000130917 -1.63609e-05 0 0.000122747 -1.73487e-05 0 0.000114092 -1.80699e-05 0 0.000105088 -1.85164e-05 0 9.58748e-05 -1.86808e-05 0 8.66089e-05 -1.85596e-05 0 7.74616e-05 -1.8162e-05 0 0 2.39875e-05 0 1.4983e-05 2.38798e-05 0 2.98459e-05 2.35565e-05 0 4.44669e-05 2.30165e-05 0 5.87209e-05 2.22597e-05 0 7.24801e-05 2.12885e-05 0 8.56166e-05 2.0109e-05 0 9.80059e-05 1.87322e-05 0 0.000109531 1.71746e-05 0 0.000120087 1.54571e-05 0 0.000129585 1.36039e-05 0 0.00013795 1.16414e-05 0 0.000145127 9.59632e-06 0 0.000151075 7.49482e-06 0 0.00015577 5.36192e-06 0 0.000159199 3.22124e-06 0 0.000161363 1.09524e-06 0 0.000162272 -9.94288e-07 0 0.00016195 -3.02576e-06 0 0.000160429 -4.97734e-06 0 0.000157755 -6.82674e-06 0 0.000153988 -8.5514e-06 0 0.0001492 -1.01291e-05 0 0.00014348 -1.15388e-05 0 0.000136928 -1.27618e-05 0 0.000129655 -1.37827e-05 0 0.000121783 -1.45894e-05 0 0.000113438 -1.5173e-05 0 0.00010475 -1.55271e-05 0 9.58593e-05 -1.56474e-05 0 8.69118e-05 -1.55349e-05 0 7.80605e-05 -1.51995e-05 0 0 1.90283e-05 0 1.47404e-05 1.89407e-05 0 2.93602e-05 1.86776e-05 0 4.37375e-05 1.8239e-05 0 5.77493e-05 1.76253e-05 0 7.12712e-05 1.68392e-05 0 8.41803e-05 1.58861e-05 0 9.63577e-05 1.47753e-05 0 0.000107692 1.35199e-05 0 0.000118082 1.21366e-05 0 0.000127442 1.06445e-05 0 0.0001357 9.06445e-06 0 0.000142799 7.41794e-06 0 0.000148698 5.72603e-06 0 0.000153372 4.00907e-06 0 0.000156805 2.28646e-06 0 0.000158999 5.76781e-07 0 0.000159962 -1.10196e-06 0 0.000159718 -2.73195e-06 0 0.000158301 -4.29529e-06 0 0.000155756 -5.77392e-06 0 0.000152142 -7.14978e-06 0 0.000147533 -8.40522e-06 0 0.000142013 -9.52369e-06 0 0.00013568 -1.04905e-05 0 0.000128642 -1.12933e-05 0 0.000121016 -1.19226e-05 0 0.000112925 -1.23713e-05 0 0.000104497 -1.26347e-05 0 9.58677e-05 -1.27109e-05 0 8.71746e-05 -1.26027e-05 0 7.85575e-05 -1.23201e-05 0 0 1.41416e-05 0 1.45477e-05 1.40741e-05 0 2.89746e-05 1.38715e-05 0 4.31595e-05 1.3534e-05 0 5.69805e-05 1.30624e-05 0 7.03162e-05 1.24591e-05 0 8.30473e-05 1.17287e-05 0 9.5059e-05 1.08784e-05 0 0.000106244 9.91831e-06 0 0.000116505 8.86111e-06 0 0.000125757 7.72139e-06 0 0.000133931 6.51501e-06 0 0.000140969 5.25831e-06 0 0.00014683 3.96755e-06 0 0.000151487 2.65851e-06 0 0.000154926 1.34631e-06 0 0.000157144 4.55015e-08 0 0.000158153 -1.22981e-06 0 0.000157974 -2.4657e-06 0 0.000156641 -3.64829e-06 0 0.0001542 -4.76367e-06 0 0.00015071 -5.79806e-06 0 0.000146243 -6.73814e-06 0 0.000140883 -7.57149e-06 0 0.000134724 -8.28712e-06 0 0.000127872 -8.87587e-06 0 0.000120441 -9.33063e-06 0 0.000112551 -9.64632e-06 0 0.000104328 -9.81996e-06 0 9.59024e-05 -9.85111e-06 0 8.74056e-05 -9.74317e-06 0 7.8968e-05 -9.50467e-06 0 0 9.31088e-06 0 1.4405e-05 9.26347e-06 0 2.86892e-05 9.12127e-06 0 4.2732e-05 8.88453e-06 0 5.64126e-05 8.55406e-06 0 6.96117e-05 8.13175e-06 0 8.22124e-05 7.62099e-06 0 9.4103e-05 7.02702e-06 0 0.000105179 6.35701e-06 0 0.000115345 5.61989e-06 0 0.00012452 4.82595e-06 0 0.000132632 3.98638e-06 0 0.000139626 3.11275e-06 0 0.000145461 2.21661e-06 0 0.000150108 1.30923e-06 0 0.000153552 4.01432e-07 0 0.000155792 -4.96344e-07 0 0.000156836 -1.37398e-06 0 0.000156707 -2.22152e-06 0 0.000155439 -3.02911e-06 0 0.000153078 -3.78695e-06 0 0.000149683 -4.48543e-06 0 0.000145324 -5.11532e-06 0 0.000140083 -5.66812e-06 0 0.000134055 -6.13638e-06 0 0.000127342 -6.51399e-06 0 0.000120057 -6.79633e-06 0 0.000112316 -6.98028e-06 0 0.000104244 -7.06439e-06 0 9.59665e-05 -7.04917e-06 0 8.76116e-05 -6.93788e-06 0 7.9303e-05 -6.73728e-06 0 0 4.51937e-06 0 1.43122e-05 4.49207e-06 0 2.85038e-05 4.41019e-06 0 4.24544e-05 4.27394e-06 0 5.60442e-05 4.08385e-06 0 6.91551e-05 3.84113e-06 0 8.16719e-05 3.54786e-06 0 9.34847e-05 3.20723e-06 0 0.000104491 2.82356e-06 0 0.000114597 2.40223e-06 0 0.000123722 1.94941e-06 0 0.000131796 1.47184e-06 0 0.000138764 9.76488e-07 0 0.000144584 4.70308e-07 0 0.000149227 -3.99051e-08 0 0.000152678 -5.47613e-07 0 0.000154934 -1.04654e-06 0 0.000156005 -1.5306e-06 0 0.000155913 -1.99388e-06 0 0.000154691 -2.43053e-06 0 0.000152386 -2.83483e-06 0 0.000149055 -3.20122e-06 0 0.00014477 -3.52445e-06 0 0.000139611 -3.79979e-06 0 0.00013367 -4.02323e-06 0 0.00012705 -4.19163e-06 0 0.000119861 -4.30283e-06 0 0.000112218 -4.35567e-06 0 0.000104244 -4.35007e-06 0 9.60624e-05 -4.28717e-06 0 8.7798e-05 -4.16974e-06 0 7.95708e-05 -4.00238e-06 0 0 -2.49533e-07 0 1.42694e-05 -2.5674e-07 0 2.84182e-05 -2.78358e-07 0 4.23263e-05 -3.1434e-07 0 5.58743e-05 -3.64522e-07 0 6.89446e-05 -4.28517e-07 0 8.14231e-05 -5.05612e-07 0 9.32007e-05 -5.94699e-07 0 0.000104176 -6.94254e-07 0 0.000114256 -8.02375e-07 0 0.00012336 -9.16862e-07 0 0.00013142 -1.03533e-06 0 0.000138378 -1.1553e-06 0 0.000144195 -1.27434e-06 0 0.00014884 -1.39009e-06 0 0.000152299 -1.50031e-06 0 0.000154567 -1.60288e-06 0 0.000155656 -1.69583e-06 0 0.000155586 -1.77726e-06 0 0.000154392 -1.84536e-06 0 0.000152118 -1.89842e-06 0 0.000148824 -1.9349e-06 0 0.000144578 -1.95344e-06 0 0.000139462 -1.953e-06 0 0.000133567 -1.93292e-06 0 0.000126994 -1.893e-06 0 0.000119853 -1.83354e-06 0 0.000112258 -1.75531e-06 0 0.00010433 -1.65953e-06 0 9.61925e-05 -1.54785e-06 0 8.79685e-05 -1.42233e-06 0 7.97765e-05 -1.28542e-06 0 0 -5.01247e-06 0 1.42764e-05 -4.99958e-06 0 2.84322e-05 -4.96096e-06 0 4.23473e-05 -4.89673e-06 0 5.59021e-05 -4.80716e-06 0 6.89794e-05 -4.69272e-06 0 8.14647e-05 -4.5541e-06 0 9.32494e-05 -4.39227e-06 0 0.000104232 -4.20851e-06 0 0.000114319 -4.00433e-06 0 0.000123431 -3.78149e-06 0 0.000131499 -3.54187e-06 0 0.000138466 -3.28748e-06 0 0.000144291 -3.02036e-06 0 0.000148945 -2.74257e-06 0 0.000152412 -2.45616e-06 0 0.00015469 -2.16323e-06 0 0.000155787 -1.86584e-06 0 0.000155726 -1.56616e-06 0 0.000154539 -1.26641e-06 0 0.000152274 -9.68888e-07 0 0.000148986 -6.7602e-07 0 0.000144747 -3.90311e-07 0 0.000139636 -1.14362e-07 0 0.000133745 1.49157e-07 0 0.000127174 3.97518e-07 0 0.000120032 6.27964e-07 0 0.000112435 8.37774e-07 0 0.000104503 1.0244e-06 0 9.63583e-05 1.18572e-06 0 8.81254e-05 1.32035e-06 0 7.99231e-05 1.42802e-06 0 0 -9.78608e-06 0 1.43334e-05 -9.75308e-06 0 2.8546e-05 -9.65416e-06 0 4.25175e-05 -9.48962e-06 0 5.61279e-05 -9.26012e-06 0 6.92593e-05 -8.96695e-06 0 8.17968e-05 -8.6122e-06 0 9.36307e-05 -8.19894e-06 0 0.000104658 -7.73123e-06 0 0.000114787 -7.21403e-06 0 0.000123936 -6.65306e-06 0 0.000132034 -6.05454e-06 0 0.000139027 -5.42493e-06 0 0.000144873 -4.77079e-06 0 0.000149542 -4.09861e-06 0 0.000153019 -3.41473e-06 0 0.000155302 -2.72541e-06 0 0.000156399 -2.0368e-06 0 0.000156332 -1.3551e-06 0 0.000155135 -6.86537e-07 0 0.000152853 -3.74344e-08 0 0.000149544 5.85821e-07 0 0.000145277 1.17686e-06 0 0.000140133 1.72942e-06 0 0.000134204 2.23751e-06 0 0.00012759 2.69545e-06 0 0.000120401 3.09802e-06 0 0.000112751 3.44047e-06 0 0.000104763 3.71885e-06 0 9.65605e-05 3.93039e-06 0 8.82692e-05 4.07426e-06 0 8.00108e-05 4.15222e-06 0 0 -1.4587e-05 0 1.44403e-05 -1.45339e-05 0 2.87597e-05 -1.43745e-05 0 4.28371e-05 -1.41094e-05 0 5.65521e-05 -1.37395e-05 0 6.97854e-05 -1.32667e-05 0 8.24205e-05 -1.26946e-05 0 9.4346e-05 -1.20282e-05 0 0.000105458 -1.12745e-05 0 0.000115662 -1.04419e-05 0 0.000124875 -9.54019e-06 0 0.000133028 -8.58007e-06 0 0.000140064 -7.57253e-06 0 0.000145942 -6.52869e-06 0 0.000150633 -5.45948e-06 0 0.000154121 -4.37555e-06 0 0.000156405 -3.28729e-06 0 0.000157493 -2.20491e-06 0 0.000157406 -1.13861e-06 0 0.000156179 -9.86155e-08 0 0.000153857 9.04719e-07 0 0.000150498 1.861e-06 0 0.000146171 2.75996e-06 0 0.000140956 3.59163e-06 0 0.000134948 4.34664e-06 0 0.000128245 5.01634e-06 0 0.00012096 5.59298e-06 0 0.000113208 6.06975e-06 0 0.000105112 6.44106e-06 0 9.67994e-05 6.70321e-06 0 8.8399e-05 6.85556e-06 0 8.00374e-05 6.90179e-06 0 0 -1.94319e-05 0 1.45973e-05 -1.93586e-05 0 2.90734e-05 -1.91388e-05 0 4.33069e-05 -1.87727e-05 0 5.71759e-05 -1.82614e-05 0 7.05593e-05 -1.76077e-05 0 8.33383e-05 -1.6816e-05 0 9.53986e-05 -1.58937e-05 0 0.000106634 -1.48504e-05 0 0.000116947 -1.36983e-05 0 0.000126254 -1.24515e-05 0 0.000134484 -1.11252e-05 0 0.000141581 -9.73515e-06 0 0.000147503 -8.29708e-06 0 0.000152222 -6.82644e-06 0 0.000155723 -5.33816e-06 0 0.000158003 -3.84673e-06 0 0.000159073 -2.36638e-06 0 0.000158953 -9.11229e-07 0 0.000157678 5.04478e-07 0 0.000155292 1.86635e-06 0 0.000151853 3.15994e-06 0 0.000147432 4.37094e-06 0 0.000142109 5.48561e-06 0 0.000135978 6.49111e-06 0 0.000129142 7.3758e-06 0 0.000121713 8.12934e-06 0 0.000113807 8.74276e-06 0 0.000105551 9.20859e-06 0 9.70745e-05 9.52169e-06 0 8.85122e-05 9.68103e-06 0 7.99984e-05 9.69168e-06 0 0 -2.43376e-05 0 1.48044e-05 -2.42441e-05 0 2.94876e-05 -2.39635e-05 0 4.39275e-05 -2.3496e-05 0 5.80007e-05 -2.28425e-05 0 7.15836e-05 -2.20059e-05 0 8.45538e-05 -2.09918e-05 0 9.67934e-05 -1.98094e-05 0 0.000108192 -1.84715e-05 0 0.000118649 -1.69941e-05 0 0.000128079 -1.53958e-05 0 0.00013641 -1.36968e-05 0 0.000143585 -1.19176e-05 0 0.000149563 -1.00789e-05 0 0.000154316 -8.20067e-06 0 0.00015783 -6.30205e-06 0 0.000160103 -4.40159e-06 0 0.000161146 -2.51741e-06 0 0.00016098 -6.67532e-07 0 0.000159637 1.12985e-06 0 0.000157163 2.85626e-06 0 0.000153616 4.49308e-06 0 0.000149066 6.02184e-06 0 0.000143596 7.42485e-06 0 0.000137301 8.68567e-06 0 0.000130285 9.7896e-06 0 0.000122662 1.07238e-05 0 0.000114552 1.1477e-05 0 0.000106081 1.20395e-05 0 9.73851e-05 1.24041e-05 0 8.86049e-05 1.25683e-05 0 7.98862e-05 1.25381e-05 0 0 -2.93206e-05 0 1.50617e-05 -2.92069e-05 0 3.00025e-05 -2.88657e-05 0 4.46999e-05 -2.82965e-05 0 5.90286e-05 -2.74995e-05 0 7.28617e-05 -2.64777e-05 0 8.60722e-05 -2.52373e-05 0 9.85368e-05 -2.37896e-05 0 0.00011014 -2.21504e-05 0 0.000120778 -2.034e-05 0 0.000130361 -1.83819e-05 0 0.000138816 -1.63015e-05 0 0.000146086 -1.41247e-05 0 0.00015213 -1.18771e-05 0 0.000156923 -9.5833e-06 0 0.000160451 -7.26668e-06 0 0.000162713 -4.9497e-06 0 0.00016372 -2.65425e-06 0 0.000163493 -4.02121e-07 0 0.000162065 1.78458e-06 0 0.00015948 3.88327e-06 0 0.000155795 5.87097e-06 0 0.000151082 7.72487e-06 0 0.000145426 9.42302e-06 0 0.000138923 1.09452e-05 0 0.00013168 1.22737e-05 0 0.000123814 1.33932e-05 0 0.000115446 1.42902e-05 0 0.000106706 1.49526e-05 0 9.77306e-05 1.53699e-05 0 8.8672e-05 1.55367e-05 0 7.96904e-05 1.54578e-05 0 0 -3.43976e-05 0 1.53689e-05 -3.4264e-05 0 3.0618e-05 -3.38624e-05 0 4.56247e-05 -3.31913e-05 0 6.02617e-05 -3.22498e-05 0 7.43977e-05 -3.10401e-05 0 8.78997e-05 -2.9569e-05 0 0.000100637 -2.78492e-05 0 0.000112488 -2.59003e-05 0 0.000123343 -2.37471e-05 0 0.00013311 -2.14186e-05 0 0.000141712 -1.8946e-05 0 0.000149094 -1.6361e-05 0 0.000155216 -1.36944e-05 0 0.000160054 -1.09753e-05 0 0.000163597 -8.23144e-06 0 0.000165844 -5.48891e-06 0 0.000166806 -2.77318e-06 0 0.000166505 -1.09654e-07 0 0.000164972 2.47574e-06 0 0.000162251 4.95621e-06 0 0.0001584 7.3043e-06 0 0.00015349 9.49245e-06 0 0.000147607 1.14941e-05 0 0.000140851 1.32851e-05 0 0.000133333 1.48445e-05 0 0.000125174 1.61547e-05 0 0.000116495 1.72006e-05 0 0.000107427 1.79673e-05 0 9.81113e-05 1.844e-05 0 8.8707e-05 1.86072e-05 0 7.93963e-05 1.84715e-05 0 0 -3.95852e-05 0 1.57255e-05 -3.94319e-05 0 3.13336e-05 -3.89706e-05 0 4.67023e-05 -3.81981e-05 0 6.17021e-05 -3.71114e-05 0 7.61963e-05 -3.57111e-05 0 9.00439e-05 -3.40038e-05 0 0.000103105 -3.20041e-05 0 0.00011525 -2.9735e-05 0 0.000126361 -2.72268e-05 0 0.000136341 -2.45149e-05 0 0.000145114 -2.16371e-05 0 0.000152625 -1.8631e-05 0 0.000158835 -1.55332e-05 0 0.000163722 -1.23776e-05 0 0.000167279 -9.19559e-06 0 0.000169506 -6.01701e-06 0 0.000170415 -2.87053e-06 0 0.000170027 2.1511e-07 0 0.000168371 3.21027e-06 0 0.000165492 6.08396e-06 0 0.000161444 8.80388e-06 0 0.0001563 1.13373e-05 0 0.000150149 1.36526e-05 0 0.000143094 1.57211e-05 0 0.000135253 1.75186e-05 0 0.000126748 1.90257e-05 0 0.000117706 2.02265e-05 0 0.000108253 2.11039e-05 0 9.85295e-05 2.16371e-05 0 8.87035e-05 2.18046e-05 0 7.89861e-05 2.1599e-05 0 0 -4.48996e-05 0 1.61306e-05 -4.47272e-05 0 3.2148e-05 -4.42077e-05 0 4.79321e-05 -4.33351e-05 0 6.33515e-05 -4.21032e-05 0 7.82626e-05 -4.05096e-05 0 9.2514e-05 -3.85601e-05 0 0.000105954 -3.62707e-05 0 0.00011844 -3.36689e-05 0 0.000129847 -3.0791e-05 0 0.000140073 -2.768e-05 0 0.00014904 -2.43811e-05 0 0.000156694 -2.0939e-05 0 0.000163001 -1.73959e-05 0 0.000167942 -1.37906e-05 0 0.000171512 -1.01583e-05 0 0.000173715 -6.53183e-06 0 0.000174562 -2.94274e-06 0 0.000174074 5.77252e-07 0 0.000172278 3.99503e-06 0 0.000169217 7.27532e-06 0 0.000164943 1.03807e-05 0 0.000159529 1.32726e-05 0 0.000153066 1.59135e-05 0 0.000145664 1.82695e-05 0 0.000137447 2.03129e-05 0 0.000128545 2.20235e-05 0 0.000119087 2.3386e-05 0 0.000109193 2.43829e-05 0 9.89924e-05 2.49864e-05 0 8.86563e-05 2.51573e-05 0 7.84339e-05 2.48737e-05 0 0 -5.03565e-05 0 1.65821e-05 -5.01661e-05 0 3.30583e-05 -4.95908e-05 0 4.93124e-05 -4.8621e-05 0 6.52109e-05 -4.7245e-05 0 8.0602e-05 -4.5456e-05 0 9.53203e-05 -4.32576e-05 0 0.000109198 -4.06672e-05 0 0.000122078 -3.77173e-05 0 0.000133824 -3.44519e-05 0 0.000144328 -3.09228e-05 0 0.000153511 -2.71842e-05 0 0.000161323 -2.32885e-05 0 0.000167733 -1.92842e-05 0 0.00017273 -1.52146e-05 0 0.000176311 -1.11185e-05 0 0.000178485 -7.03119e-06 0 0.000179262 -2.98643e-06 0 0.000178662 9.81592e-07 0 0.00017671 4.83658e-06 0 0.000173444 8.53901e-06 0 0.000168914 1.20459e-05 0 0.000163192 1.53121e-05 0 0.000156372 1.82927e-05 0 0.000148571 2.09476e-05 0 0.000139924 2.32453e-05 0 0.000130573 2.51654e-05 0 0.000120648 2.66962e-05 0 0.000110261 2.78241e-05 0 9.95157e-05 2.85147e-05 0 8.85653e-05 2.87029e-05 0 7.77087e-05 2.832e-05 0 0 -5.59706e-05 0 1.70769e-05 -5.57639e-05 0 3.40596e-05 -5.51373e-05 0 5.08388e-05 -5.40752e-05 0 6.72797e-05 -5.25583e-05 0 8.32197e-05 -5.05726e-05 0 9.8475e-05 -4.8118e-05 0 0.000112856 -4.52132e-05 0 0.000126187 -4.18966e-05 0 0.000138316 -3.82221e-05 0 0.00014913 -3.42523e-05 0 0.00015855 -3.00521e-05 0 0.000166531 -2.56827e-05 0 0.000173051 -2.11993e-05 0 0.000178104 -1.66495e-05 0 0.000181694 -1.2075e-05 0 0.000183833 -7.51295e-06 0 0.000184533 -2.99845e-06 0 0.00018381 1.43255e-06 0 0.000181687 5.74111e-06 0 0.000178195 9.88351e-06 0 0.00017338 1.38108e-05 0 0.000167311 1.74699e-05 0 0.000160085 2.08072e-05 0 0.000151829 2.37742e-05 0 0.000142693 2.63345e-05 0 0.000132836 2.84683e-05 0 0.0001224 3.01723e-05 0 0.000111481 3.14442e-05 0 0.000100131 3.22514e-05 0 8.84439e-05 3.24854e-05 0 7.67667e-05 3.20129e-05 0 0 -6.17554e-05 0 1.761e-05 -6.15349e-05 0 3.51439e-05 -6.08638e-05 0 5.25039e-05 -5.97179e-05 0 6.95549e-05 -5.80663e-05 0 8.61204e-05 -5.58843e-05 0 0.000101992 -5.31658e-05 0 0.000116951 -4.99304e-05 0 0.000130794 -4.62245e-05 0 0.000143355 -4.21145e-05 0 0.00015451 -3.7677e-05 0 0.000164187 -3.29897e-05 0 0.000172346 -2.81238e-05 0 0.000178976 -2.31414e-05 0 0.000184083 -1.80944e-05 0 0.000187678 -1.30263e-05 0 0.000189776 -7.97504e-06 0 0.000190392 -2.97607e-06 0 0.000189539 1.93395e-06 0 0.000187232 6.71413e-06 0 0.000183495 1.13169e-05 0 0.000178366 1.56866e-05 0 0.000171911 1.97611e-05 0 0.000164226 2.34755e-05 0 0.000155451 2.67701e-05 0 0.000145759 2.9601e-05 0 0.000135336 3.19495e-05 0 0.000124348 3.38257e-05 0 0.000112879 3.52534e-05 0 0.0001009 3.62202e-05 0 8.83376e-05 3.65759e-05 0 7.55384e-05 3.59866e-05 0 0 -6.77219e-05 0 1.81735e-05 -6.74916e-05 0 3.62983e-05 -6.67866e-05 0 5.42947e-05 -6.55702e-05 0 7.20293e-05 -6.37947e-05 0 8.93078e-05 -6.14194e-05 0 0.000105888 -5.84288e-05 0 0.00012151 -5.48435e-05 0 0.000135936 -5.07202e-05 0 0.000148976 -4.61424e-05 0 0.000160505 -4.12048e-05 0 0.000170453 -3.60006e-05 0 0.000178794 -3.06127e-05 0 0.000185533 -2.51099e-05 0 0.000190688 -1.95478e-05 0 0.000194281 -1.39706e-05 0 0.000196334 -8.41553e-06 0 0.00019686 -2.9171e-06 0 0.000195869 2.48874e-06 0 0.000193369 7.76021e-06 0 0.000189372 1.28463e-05 0 0.000183904 1.76845e-05 0 0.000177021 2.22016e-05 0 0.00016882 2.63183e-05 0 0.000159454 2.99592e-05 0 0.000149126 3.30686e-05 0 0.000138068 3.56271e-05 0 0.000126488 3.76637e-05 0 0.000114486 3.9246e-05 0 0.000101923 4.04331e-05 0 8.8388e-05 4.10522e-05 0 7.39505e-05 4.04864e-05 0 0 -7.38777e-05 0 1.87557e-05 -7.36436e-05 0 3.75031e-05 -7.29206e-05 0 5.61907e-05 -7.16543e-05 0 7.46901e-05 -6.97726e-05 0 9.27835e-05 -6.72111e-05 0 0.000110181 -6.39399e-05 0 0.000126566 -5.99804e-05 0 0.000141653 -5.54047e-05 0 0.000155227 -5.03192e-05 0 0.000167157 -4.48424e-05 0 0.000177385 -3.90869e-05 0 0.000185906 -3.31483e-05 0 0.000192745 -2.71025e-05 0 0.000197939 -2.1007e-05 0 0.000201522 -1.49055e-05 0 0.000203522 -8.83268e-06 0 0.000203955 -2.82008e-06 0 0.000202824 3.09869e-06 0 0.000200127 8.88246e-06 0 0.000195859 1.44777e-05 0 0.000190029 1.9815e-05 0 0.000182679 2.48081e-05 0 0.0001739 2.9359e-05 0 0.000163857 3.33701e-05 0 0.000152795 3.67666e-05 0 0.000141009 3.95232e-05 0 0.000128795 4.16888e-05 0 0.000116304 4.33975e-05 0 0.000103359 4.48403e-05 0 8.89469e-05 4.60552e-05 0 7.17413e-05 4.56893e-05 0 0 -8.02255e-05 0 1.93392e-05 -7.99962e-05 0 3.87288e-05 -7.92785e-05 0 5.816e-05 -7.79935e-05 0 7.75153e-05 -7.60336e-05 0 9.6546e-05 -7.32991e-05 0 0.000114894 -6.97385e-05 0 0.000132163 -6.53741e-05 0 0.000148001 -6.03007e-05 0 0.000162162 -5.46575e-05 0 0.000174515 -4.85946e-05 0 0.000185025 -4.2248e-05 0 0.000193715 -3.57275e-05 0 0.000200639 -2.91149e-05 0 0.000205856 -2.24683e-05 0 0.000209418 -1.58283e-05 0 0.000211359 -9.22502e-06 0 0.000211697 -2.6846e-06 0 0.000210428 3.76389e-06 0 0.000207535 1.00819e-05 0 0.000202994 1.62151e-05 0 0.000196787 2.20872e-05 0 0.000188933 2.75975e-05 0 0.000179504 3.26241e-05 0 0.000168689 3.7038e-05 0 0.000156754 4.07332e-05 0 0.000144138 4.36685e-05 0 0.000131172 4.59061e-05 0 0.00011832 4.76586e-05 0 0.000105258 4.92868e-05 0 9.10486e-05 5.15549e-05 0 6.8795e-05 5.32159e-05 0 0 -8.67604e-05 0 1.98995e-05 -8.65483e-05 0 3.99324e-05 -8.58698e-05 0 6.01551e-05 -8.46122e-05 0 8.04696e-05 -8.26179e-05 0 0.00010059 -7.97328e-05 0 0.000120056 -7.58735e-05 0 0.000138357 -7.10635e-05 0 0.000155048 -6.54331e-05 0 0.000169849 -5.91686e-05 0 0.000182639 -5.24628e-05 0 0.000193419 -4.54797e-05 0 0.000202255 -3.83435e-05 0 0.000209238 -3.11404e-05 0 0.000214457 -2.39263e-05 0 0.000217983 -1.67358e-05 0 0.000219859 -9.59146e-06 0 0.000220103 -2.51157e-06 0 0.000218703 4.48237e-06 0 0.000215627 1.13568e-05 0 0.000210816 1.80594e-05 0 0.000204234 2.45077e-05 0 0.00019583 3.05873e-05 0 0.000185712 3.61431e-05 0 0.00017394 4.10072e-05 0 0.000161088 4.50195e-05 0 0.000147236 4.81056e-05 0 0.000133811 5.03468e-05 0 0.000119801 5.19381e-05 0 0.000108374 5.36388e-05 0 9.53673e-05 5.58717e-05 0 5.78448e-05 7.41068e-05 0 </DataArray> 
</PointData> 
<Points> 
<DataArray type="Float32" NumberOfComponents="3"> 