<?xml version="1.0"?> 
<VTKFile type="StructuredGrid" version="0.1"> 
<StructuredGrid WholeExtent="0 31 0 31 0 0"> 
<Piece Extent="0 31 0 31 0 0"> 
<PointData>
<DataArray type="Float32" Name="u" format="ascii" NumberOfComponents="3"> 
0 0 0 3.68323e-05 -4.47385e-05 0 6.55186e-05 -6.16958e-05 0 9.52269e-05 -6.98502e-05 0 0.000126022 -7.38879e-05 0 0.000158038 -7.58839e-05 0 0.000190807 -7.69182e-05 0 0.000224206 -7.74782e-05 0 0.000257997 -7.7829e-05 0 0.000292082 -7.80782e-05 0 0.000326361 -7.82857e-05 0 0.000360779 -7.84712e-05 0 0.000395291 -7.8645e-05 0 0.00042987 -7.8808e-05 0 0.000464497 -7.89597e-05 0 0.00049916 -7.90981e-05 0 0.000533849 -7.92213e-05 0 0.000568559 -7.93275e-05 0 0.000603288 -7.94155e-05 0 0.000638035 -7.94846e-05 0 0.000672799 -7.95343e-05 0 0.000707581 -7.95653e-05 0 0.000742382 -7.9578e-05 0 0.000777201 -7.95738e-05 0 0.000812038 -7.95517e-05 0 0.000846891 -7.9512e-05 0 0.000881746 -7.94392e-05 0 0.000916601 -7.93184e-05 0 0.000951417 -7.90644e-05 0 0.000986212 -7.85699e-05 0 0.00102093 -7.74251e-05 0 0.00105582 -7.42587e-05 0 0 0 0 0 0 0 0 0 0 0 0 0 0 0 0 0 0 0 0 0 0 0 0 0 0 0 0 0 0 0 0 0 0 0 0 0 0 0 0 0 0 0 0 0 0 0 0 0 0 0 0 0 0 0 0 0 0 0 0 0 0 0 0 0 0 0 0 0 0 0 0 0 0 0 0 0 0 0 0 0 0 0 0 0 0 0 0 0 0 0 0 0 0 0 0 0 0 0 0 0 0 0 0 0 0 0 0 0 0 0 0 0 0 0 0 0 0 0 0 0 0 0 0 0 0 0 0 0 0 0 0 0 0 0 0 0 0 0 0 0 0 0 0 0 0 0 0 0 0 0 0 0 0 0 0 0 0 0 0 0 0 0 0 0 0 0 0 0 0 0 0 0 0 0 0 0 0 0 0 0 0 0 0 0 0 0 0 0 0 0 0 0 0 0 0 0 0 0 0 0 0 0 0 0 0 0 0 0 0 0 0 0 0 0 0 0 0 0 0 0 0 0 0 0 0 0 0 0 0 0 0 0 0 0 0 0 0 0 0 0 0 0 0 0 0 0 0 0 0 0 0 0 0 0 0 0 0 0 0 0 0 0 0 0 0 0 0 0 0 0 0 0 0 0 0 0 0 0 0 0 0 0 0 0 0 0 0 0 0 0 0 0 0 0 0 0 0 0 0 0 0 0 0 0 0 0 0 0 0 0 0 0 0 0 0 0 0 0 0 0 0 0 0 0 0 0 0 0 0 0 0 0 0 0 0 0 0 0 0 0 0 0 0 0 0 0 0 0 0 0 0 0 0 0 0 0 0 0 0 0 0 0 0 0 0 0 0 0 0 0 0 0 0 0 0 0 0 0 0 0 0 0 0 0 0 0 0 0 0 0 0 0 0 0 0 0 0 0 0 0 0 0 0 0 0 0 0 0 0 0 0 0 0 0 0 0 0 0 0 0 0 0 0 0 0 0 0 0 0 0 0 0 0 0 0 0 0 0 0 0 0 0 0 0 0 0 0 0 0 0 0 0 0 0 0 0 0 0 0 0 0 0 0 0 0 0 0 0 0 0 0 0 0 0 0 0 0 0 0 0 0 0 0 0 0 0 0 0 0 0 0 0 0 0 0 0 0 0 0 0 0 0 0 0 0 0 0 0 0 0 0 0 0 0 0 0 0 0 0 0 0 0 0 0 0 0 0 0 0 0 0 0 0 0 0 0 0 0 0 0 0 0 0 0 0 0 0 0 0 0 0 0 0 0 0 0 0 0 0 0 0 0 0 0 0 0 0 0 0 0 0 0 0 0 0 0 0 0 0 0 0 0 0 0 0 0 0 0 0 0 0 0 0 0 0 0 0 0 0 0 0 0 0 0 0 0 0 0 0 0 0 0 0 0 0 0 0 0 0 0 0 0 0 0 0 0 0 0 0 0 0 0 0 0 0 0 0 0 0 0 0 0 0 0 0 0 0 0 0 0 0 0 0 0 0 0 0 0 0 0 0 0 0 0 0 0 0 0 0 0 0 0 0 0 0 0 0 0 0 0 0 0 0 0 0 0 0 0 0 0 0 0 0 0 0 0 0 0 0 0 0 0 0 0 0 0 0 0 0 0 0 0 0 0 0 0 0 0 0 0 0 0 0 0 0 0 0 0 0 0 0 0 0 0 0 0 0 0 0 0 0 0 0 0 0 0 0 0 0 0 0 0 0 0 0 0 0 0 0 0 0 0 0 0 0 0 0 0 0 0 0 0 0 0 0 0 0 0 0 0 0 0 0 0 0 0 0 0 0 0 0 0 0 0 0 0 0 0 0 0 0 0 0 0 0 0 0 0 0 0 0 0 0 0 0 0 0 0 0 0 0 0 0 0 0 0 0 0 0 0 0 0 0 0 0 0 0 0 0 0 0 0 0 0 0 0 0 0 0 0 0 0 0 0 0 0 0 0 0 0 0 0 0 0 0 0 0 0 0 0 0 0 0 0 0 0 0 0 0 0 0 0 0 0 0 0 0 0 0 0 0 0 0 0 0 0 0 0 0 0 0 0 0 0 0 0 0 0 0 0 0 0 0 0 0 0 0 0 0 0 0 0 0 0 0 0 0 0 0 0 0 0 0 0 0 0 0 0 0 0 0 0 0 0 0 0 0 0 0 0 0 0 0 0 0 0 0 0 0 0 0 0 0 0 0 0 0 0 0 0 0 0 0 0 0 0 0 0 0 0 0 0 0 0 0 0 0 0 0 0 0 0 0 0 0 0 0 0 0 0 0 0 0 0 0 0 0 0 0 0 0 0 0 0 0 0 0 0 0 0 0 0 0 0 0 0 0 0 0 0 0 0 0 0 0 0 0 0 0 0 0 0 0 0 0 0 0 0 0 0 0 0 0 0 0 0 0 0 0 0 0 0 0 0 0 0 0 0 0 0 0 0 0 0 0 0 0 0 0 0 0 0 0 0 0 0 0 0 0 0 0 0 0 0 0 0 0 0 0 0 0 0 0 0 0 0 0 0 0 0 0 0 0 0 0 0 0 0 0 0 0 0 0 0 0 0 0 0 0 0 0 0 0 0 0 0 0 0 0 0 0 0 0 0 0 0 0 0 0 0 0 0 0 0 0 0 0 0 0 0 0 0 0 0 0 0 0 0 0 0 0 0 0 0 0 0 0 0 0 0 0 0 0 0 0 0 0 0 0 0 0 0 0 0 0 0 0 0 0 0 0 0 0 0 0 0 0 0 0 0 0 0 0 0 0 0 0 0 0 0 0 0 0 0 0 0 0 0 0 0 0 0 0 0 0 0 0 0 0 0 0 0 0 0 0 0 0 0 0 0 0 0 0 0 0 0 0 0 0 0 0 0 0 0 0 0 0 0 0 0 0 0 0 0 0 0 0 0 0 0 0 0 0 0 0 0 0 0 0 0 0 0 0 0 0 0 0 0 0 0 0 0 0 0 0 0 0 0 0 0 0 0 0 0 0 0 0 0 0 0 0 0 0 0 0 0 0 0 0 0 0 0 0 0 0 0 0 0 0 0 0 0 0 0 0 0 0 0 0 0 0 0 0 0 0 0 0 0 0 0 0 0 0 0 0 0 0 0 0 0 0 0 0 0 0 0 0 0 0 0 0 0 0 0 0 0 0 0 0 0 0 0 0 0 0 0 0 0 0 0 0 0 0 0 0 0 0 0 0 0 0 0 0 0 0 0 0 0 0 0 0 0 0 0 0 0 0 0 0 0 0 0 0 0 0 0 0 0 0 0 0 0 0 0 0 0 0 0 0 0 0 0 0 0 0 0 0 0 0 0 0 0 0 0 0 0 0 0 0 0 0 0 0 0 0 0 0 0 0 0 0 0 0 0 0 0 0 0 0 0 0 0 0 0 0 0 0 0 0 0 0 0 0 0 0 0 0 0 0 0 0 0 0 0 0 0 0 0 0 0 0 0 0 0 0 0 0 0 0 0 0 0 0 0 0 0 0 0 0 0 0 0 0 0 0 0 0 0 0 0 0 0 0 0 0 0 0 0 0 0 0 0 0 0 0 0 0 0 0 0 0 0 0 0 0 0 0 0 0 0 0 0 0 0 0 0 0 0 0 0 0 0 0 0 0 0 0 0 0 0 0 0 0 0 0 0 0 0 0 0 0 0 0 0 0 0 0 0 0 0 0 0 0 0 0 0 0 0 0 0 0 0 0 0 0 0 0 0 0 0 0 0 0 0 0 0 0 0 0 0 0 0 0 0 0 0 0 0 0 0 0 0 0 0 0 0 0 0 0 0 0 0 0 0 0 0 0 0 0 0 0 0 0 0 0 0 0 0 0 0 0 0 0 0 0 0 0 0 0 0 0 0 0 0 0 0 0 0 0 0 0 0 0 0 0 0 0 0 0 0 0 0 0 0 0 0 0 0 0 0 0 0 0 0 0 0 0 0 0 0 0 0 0 0 0 0 0 0 0 0 0 0 0 0 0 0 0 0 0 0 0 0 0 0 0 0 0 0 0 0 0 0 0 0 0 0 0 0 0 0 0 0 0 0 0 0 0 0 0 0 0 0 0 0 0 0 0 0 0 0 0 0 0 0 0 0 0 0 0 0 0 0 0 0 0 0 0 0 0 0 0 0 0 0 0 0 0 0 0 0 0 0 0 0 0 0 0 0 0 0 0 0 0 0 0 0 0 0 0 0 0 0 0 0 0 0 0 0 0 0 0 0 0 0 0 0 0 0 0 0 0 0 0 0 0 0 0 0 0 0 0 0 0 0 0 0 0 0 0 0 0 0 0 0 0 0 0 0 0 0 0 0 0 0 0 0 0 0 0 0 0 0 0 0 0 0 0 0 0 0 0 0 0 0 0 0 0 0 0 0 0 0 0 0 0 0 0 0 0 0 0 0 0 0 0 0 0 0 0 0 0 0 0 0 0 0 0 0 0 0 0 0 0 0 0 0 0 0 0 0 0 0 0 0 0 0 0 0 0 0 0 0 0 0 0 0 0 0 0 0 0 0 0 0 0 0 0 0 0 0 0 0 0 0 0 0 0 0 0 0 0 0 0 0 0 0 0 0 0 0 0 0 0 0 0 0 0 0 0 0 0 0 0 0 0 0 0 0 0 0 0 0 0 0 0 0 0 0 0 0 0 0 0 0 0 0 0 0 0 0 0 0 0 0 0 0 0 0 0 0 0 0 0 0 0 0 0 0 0 0 0 0 0 0 0 0 0 0 0 0 0 0 0 0 0 0 0 0 0 0 0 0 0 0 0 0 0 0 0 0 0 0 0 0 0 0 0 0 0 0 0 0 0 0 0 0 0 0 0 0 0 0 0 0 0 0 0 0 0 0 0 0 0 0 0 0 0 0 0 0 0 0 0 0 0 0 0 0 0 0 0 0 0 0 0 0 0 0 0 0 0 0 0 0 0 0 0 0 0 0 0 0 0 0 0 0 0 0 0 0 0 0 0 0 0 0 0 0 0 0 0 0 0 0 0 0 0 0 0 0 0 0 0 0 0 0 0 0 0 0 0 0 0 0 0 0 0 0 0 0 0 0 0 0 0 0 0 0 0 0 0 0 0 0 0 0 0 0 0 0 0 0 0 0 0 0 0 0 0 0 0 0 0 0 0 0 0 0 0 0 0 0 0 0 0 0 0 0 0 0 0 0 0 0 0 0 0 0 0 0 0 0 0 0 0 0 0 0 0 0 0 0 0 0 0 0 0 0 0 0 0 0 0 0 0 0 0 0 0 0 0 0 0 0 0 0 0 0 0 0 0 0 0 0 0 0 0 0 0 0 0 0 0 0 0 0 0 0 0 0 0 0 0 0 0 0 0 0 0 0 0 0 0 0 0 0 0 0 0 0 0 0 0 0 0 0 0 0 0 0 0 0 0 0 0 0 0 0 0 0 0 0 0 0 0 0 0 0 0 0 0 0 0 0 0 0 0 0 0 0 0 0 0 0 0 0 0 0 0 0 0 0 0 0 0 0 0 0 0 0 0 0 0 0 0 0 0 0 0 0 0 0 0 0 0 0 0 0 0 0 0 0 0 0 0 0 0 0 0 0 0 0 0 0 0 0 0 0 0 0 0 0 0 0 0 0 0 0 0 0 0 0 0 0 0 0 0 0 0 0 0 0 0 0 0 0 0 0 0 0 0 0 0 0 0 0 0 0 0 0 0 0 0 0 0 0 0 0 0 0 0 0 0 0 0 0 0 0 0 0 0 0 0 0 0 0 0 0 0 0 0 0 0 0 0 0 0 0 0 0 0 0 0 0 0 0 0 0 0 0 0 0 0 0 0 0 0 0 0 0 0 0 0 0 0 0 0 0 0 0 0 0 0 0 0 0 0 0 0 0 0 0 0 0 0 0 0 0 0 0 0 0 0 0 0 0 0 0 0 0 0 0 0 0 0 0 0 0 0 0 0 0 0 0 0 0 0 0 0 0 0 0 0 0 0 0 0 0 0 0 0 0 0 0 0 0 0 0 0 0 0 0 0 0 0 0 0 0 0 0 0 0 0 0 0 0 0 0 0 0 0 0 0 0 0 0 0 0 0 0 0 0 0 0 0 0 0 0 0 0 0 0 0 0 0 0 0 0 0 0 0 0 0 0 0 0 0 0 0 0 0 0 0 0 0 0 0 0 0 0 0 0 0 0 0 0 0 0 0 0 0 0 0 0 0 0 0 0 0 0 0 0 0 0 0 0 0 0 0 0 0 0 0 0 0 0 0 0 0 0 0 0 0 0 0 0 0 0 0 0 0 0 0 0 0 0 0 0 0 0 0 0 0 0 0 0 0 0 0 0 0 0 0 0 0 0 0 0 0 0 0 0 0 0 0 0 0 0 0 0 0 0 0 0 0 0 0 0 0 0 0 0 0 0 0 0 0 0 0 0 0 0 0 0 0 0 0 0 0 0 0 0 0 0 0 0 0 0 0 0 0 0 0 0 0 0 0 0 0 0 0 0 0 0 0 0 0 0 0 0 0 0 0 0 0 0 0 0 0 0 0 0 0 0 0 0 0 0 0 0 0 0 0 0 0 0 0 0 0 0 0 0 0 0 0 0 0 0 0 0 0 0 0 0 0 0 0 0 0 0 0 0 0 0 0 0 0 0 0 0 0 0 0 0 0 0 0 0 0 0 0 0 0 0 0 0 0 0 0 0 0 0 0 0 0 0 0 0 0 0 0 0 0 0 0 0 0 0 0 0 0 0 0 0 0 0 </DataArray> 
</PointData> 
<Points> 
<DataArray type="Float32" NumberOfComponents="3"> 
0 3 0 0.0967742 3 0 0.193548 3 0 0.290323 3 0 0.387097 3 0 0.483871 3 0 0.580645 3 0 0.677419 3 0 0.774194 3 0 0.870968 3 0 0.967742 3 0 1.06452 3 0 1.16129 3 0 1.25806 3 0 1.35484 3 0 1.45161 3 0 1.54839 3 0 1.64516 3 0 1.74194 3 0 1.83871 3 0 1.93548 3 0 2.03226 3 0 2.12903 3 0 2.22581 3 0 2.32258 3 0 2.41935 3 0 2.51613 3 0 2.6129 3 0 2.70968 3 0 2.80645 3 0 2.90323 3 0 3 3 0 0 3.09677 0 0.0967742 3.09677 0 0.193548 3.09677 0 0.290323 3.09677 0 0.387097 3.09677 0 0.483871 3.09677 0 0.580645 3.09677 0 0.677419 3.09677 0 0.774194 3.09677 0 0.870968 3.09677 0 0.967742 3.09677 0 1.06452 3.09677 0 1.16129 3.09677 0 1.25806 3.09677 0 1.35484 3.09677 0 1.45161 3.09677 0 1.54839 3.09677 0 1.64516 3.09677 0 1.74194 3.09677 0 1.83871 3.09677 0 1.93548 3.09677 0 2.03226 3.09677 0 2.12903 3.09677 0 2.22581 3.09677 0 2.32258 3.09677 0 2.41935 3.09677 0 2.51613 3.09677 0 2.6129 3.09677 0 2.70968 3.09677 0 2.80645 3.09677 0 2.90323 3.09677 0 3 3.09677 0 0 3.19355 0 0.0967742 3.19355 0 0.193548 3.19355 0 0.290323 3.19355 0 0.387097 3.19355 0 0.483871 3.19355 0 0.580645 3.19355 0 0.677419 3.19355 0 0.774194 3.19355 0 0.870968 3.19355 0 0.967742 3.19355 0 1.06452 3.19355 0 1.16129 3.19355 0 1.25806 3.19355 0 1.35484 3.19355 0 1.45161 3.19355 0 1.54839 3.19355 0 1.64516 3.19355 0 1.74194 3.19355 0 1.83871 3.19355 0 1.93548 3.19355 0 2.03226 3.19355 0 2.12903 3.19355 0 2.22581 3.19355 0 2.32258 3.19355 0 2.41935 3.19355 0 2.51613 3.19355 0 2.6129 3.19355 0 2.70968 3.19355 0 2.80645 3.19355 0 2.90323 3.19355 0 3 3.19355 0 0 3.29032 0 0.0967742 3.29032 0 0.193548 3.29032 0 0.290323 3.29032 0 0.387097 3.29032 0 0.483871 3.29032 0 0.580645 3.29032 0 0.677419 3.29032 0 0.774194 3.29032 0 0.870968 3.29032 0 0.967742 3.29032 0 1.06452 3.29032 0 1.16129 3.29032 0 1.25806 3.29032 0 1.35484 3.29032 0 1.45161 3.29032 0 1.54839 3.29032 0 1.64516 3.29032 0 1.74194 3.29032 0 1.83871 3.29032 0 1.93548 3.29032 0 2.03226 3.29032 0 2.12903 3.29032 0 2.22581 3.29032 0 2.32258 3.29032 0 2.41935 3.29032 0 2.51613 3.29032 0 2.6129 3.29032 0 2.70968 3.29032 0 2.80645 3.29032 0 2.90323 3.29032 0 3 3.29032 0 0 3.3871 0 0.0967742 3.3871 0 0.193548 3.3871 0 0.290323 3.3871 0 0.387097 3.3871 0 0.483871 3.3871 0 0.580645 3.3871 0 0.677419 3.3871 0 0.774194 3.3871 0 0.870968 3.3871 0 0.967742 3.3871 0 1.06452 3.3871 0 1.16129 3.3871 0 1.25806 3.3871 0 1.35484 3.3871 0 1.45161 3.3871 0 1.54839 3.3871 0 1.64516 3.3871 0 1.74194 3.3871 0 1.83871 3.3871 0 1.93548 3.3871 0 2.03226 3.3871 0 2.12903 3.3871 0 2.22581 3.3871 0 2.32258 3.3871 0 2.41935 3.3871 0 2.51613 3.3871 0 2.6129 3.3871 0 2.70968 3.3871 0 2.80645 3.3871 0 2.90323 3.3871 0 3 3.3871 0 0 3.48387 0 0.0967742 3.48387 0 0.193548 3.48387 0 0.290323 3.48387 0 0.387097 3.48387 0 0.483871 3.48387 0 0.580645 3.48387 0 0.677419 3.48387 0 0.774194 3.48387 0 0.870968 3.48387 0 0.967742 3.48387 0 1.06452 3.48387 0 1.16129 3.48387 0 1.25806 3.48387 0 1.35484 3.48387 0 1.45161 3.48387 0 1.54839 3.48387 0 1.64516 3.48387 0 1.74194 3.48387 0 1.83871 3.48387 0 1.93548 3.48387 0 2.03226 3.48387 0 2.12903 3.48387 0 2.22581 3.48387 0 2.32258 3.48387 0 2.41935 3.48387 0 2.51613 3.48387 0 2.6129 3.48387 0 2.70968 3.48387 0 2.80645 3.48387 0 2.90323 3.48387 0 3 3.48387 0 0 3.58065 0 0.0967742 3.58065 0 0.193548 3.58065 0 0.290323 3.58065 0 0.387097 3.58065 0 0.483871 3.58065 0 0.580645 3.58065 0 0.677419 3.58065 0 0.774194 3.58065 0 0.870968 3.58065 0 0.967742 3.58065 0 1.06452 3.58065 0 1.16129 3.58065 0 1.25806 3.58065 0 1.35484 3.58065 0 1.45161 3.58065 0 1.54839 3.58065 0 1.64516 3.58065 0 1.74194 3.58065 0 1.83871 3.58065 0 1.93548 3.58065 0 2.03226 3.58065 0 2.12903 3.58065 0 2.22581 3.58065 0 2.32258 3.58065 0 2.41935 3.58065 0 2.51613 3.58065 0 2.6129 3.58065 0 2.70968 3.58065 0 2.80645 3.58065 0 2.90323 3.58065 0 3 3.58065 0 0 3.67742 0 0.0967742 3.67742 0 0.193548 3.67742 0 0.290323 3.67742 0 0.387097 3.67742 0 0.483871 3.67742 0 0.580645 3.67742 0 0.677419 3.67742 0 0.774194 3.67742 0 0.870968 3.67742 0 0.967742 3.67742 0 1.06452 3.67742 0 1.16129 3.67742 0 1.25806 3.67742 0 1.35484 3.67742 0 1.45161 3.67742 0 1.54839 3.67742 0 1.64516 3.67742 0 1.74194 3.67742 0 1.83871 3.67742 0 1.93548 3.67742 0 2.03226 3.67742 0 2.12903 3.67742 0 2.22581 3.67742 0 2.32258 3.67742 0 2.41935 3.67742 0 2.51613 3.67742 0 2.6129 3.67742 0 2.70968 3.67742 0 2.80645 3.67742 0 2.90323 3.67742 0 3 3.67742 0 0 3.77419 0 0.0967742 3.77419 0 0.193548 3.77419 0 0.290323 3.77419 0 0.387097 3.77419 0 0.483871 3.77419 0 0.580645 3.77419 0 0.677419 3.77419 0 0.774194 3.77419 0 0.870968 3.77419 0 0.967742 3.77419 0 1.06452 3.77419 0 1.16129 3.77419 0 1.25806 3.77419 0 1.35484 3.77419 0 1.45161 3.77419 0 1.54839 3.77419 0 1.64516 3.77419 0 1.74194 3.77419 0 1.83871 3.77419 0 1.93548 3.77419 0 2.03226 3.77419 0 2.12903 3.77419 0 2.22581 3.77419 0 2.32258 3.77419 0 2.41935 3.77419 0 2.51613 3.77419 0 2.6129 3.77419 0 2.70968 3.77419 0 2.80645 3.77419 0 2.90323 3.77419 0 3 3.77419 0 0 3.87097 0 0.0967742 3.87097 0 0.193548 3.87097 0 0.290323 3.87097 0 0.387097 3.87097 0 0.483871 3.87097 0 0.580645 3.87097 0 0.677419 3.87097 0 0.774194 3.87097 0 0.870968 3.87097 0 0.967742 3.87097 0 1.06452 3.87097 0 1.16129 3.87097 0 1.25806 3.87097 0 1.35484 3.87097 0 1.45161 3.87097 0 1.54839 3.87097 0 1.64516 3.87097 0 1.74194 3.87097 0 1.83871 3.87097 0 1.93548 3.87097 0 2.03226 3.87097 0 2.12903 3.87097 0 2.22581 3.87097 0 2.32258 3.87097 0 2.41935 3.87097 0 2.51613 3.87097 0 2.6129 3.87097 0 2.70968 3.87097 0 2.80645 3.87097 0 2.90323 3.87097 0 3 3.87097 0 0 3.96774 0 0.0967742 3.96774 0 0.193548 3.96774 0 0.290323 3.96774 0 0.387097 3.96774 0 0.483871 3.96774 0 0.580645 3.96774 0 0.677419 3.96774 0 0.774194 3.96774 0 0.870968 3.96774 0 0.967742 3.96774 0 1.06452 3.96774 0 1.16129 3.96774 0 1.25806 3.96774 0 1.35484 3.96774 0 1.45161 3.96774 0 1.54839 3.96774 0 1.64516 3.96774 0 1.74194 3.96774 0 1.83871 3.96774 0 1.93548 3.96774 0 2.03226 3.96774 0 2.12903 3.96774 0 2.22581 3.96774 0 2.32258 3.96774 0 2.41935 3.96774 0 2.51613 3.96774 0 2.6129 3.96774 0 2.70968 3.96774 0 2.80645 3.96774 0 2.90323 3.96774 0 3 3.96774 0 0 4.06452 0 0.0967742 4.06452 0 0.193548 4.06452 0 0.290323 4.06452 0 0.387097 4.06452 0 0.483871 4.06452 0 0.580645 4.06452 0 0.677419 4.06452 0 0.774194 4.06452 0 0.870968 4.06452 0 0.967742 4.06452 0 1.06452 4.06452 0 1.16129 4.06452 0 1.25806 4.06452 0 1.35484 4.06452 0 1.45161 4.06452 0 1.54839 4.06452 0 1.64516 4.06452 0 1.74194 4.06452 0 1.83871 4.06452 0 1.93548 4.06452 0 2.03226 4.06452 0 2.12903 4.06452 0 2.22581 4.06452 0 2.32258 4.06452 0 2.41935 4.06452 0 2.51613 4.06452 0 2.6129 4.06452 0 2.70968 4.06452 0 2.80645 4.06452 0 2.90323 4.06452 0 3 4.06452 0 0 4.16129 0 0.0967742 4.16129 0 0.193548 4.16129 0 0.290323 4.16129 0 0.387097 4.16129 0 0.483871 4.16129 0 0.580645 4.16129 0 0.677419 4.16129 0 0.774194 4.16129 0 0.870968 4.16129 0 0.967742 4.16129 0 1.06452 4.16129 0 1.16129 4.16129 0 1.25806 4.16129 0 1.35484 4.16129 0 1.45161 4.16129 0 1.54839 4.16129 0 1.64516 4.16129 0 1.74194 4.16129 0 1.83871 4.16129 0 1.93548 4.16129 0 2.03226 4.16129 0 2.12903 4.16129 0 2.22581 4.16129 0 2.32258 4.16129 0 2.41935 4.16129 0 2.51613 4.16129 0 2.6129 4.16129 0 2.70968 4.16129 0 2.80645 4.16129 0 2.90323 4.16129 0 3 4.16129 0 0 4.25806 0 0.0967742 4.25806 0 0.193548 4.25806 0 0.290323 4.25806 0 0.387097 4.25806 0 0.483871 4.25806 0 0.580645 4.25806 0 0.677419 4.25806 0 0.774194 4.25806 0 0.870968 4.25806 0 0.967742 4.25806 0 1.06452 4.25806 0 1.16129 4.25806 0 1.25806 4.25806 0 1.35484 4.25806 0 1.45161 4.25806 0 1.54839 4.25806 0 1.64516 4.25806 0 1.74194 4.25806 0 1.83871 4.25806 0 1.93548 4.25806 0 2.03226 4.25806 0 2.12903 4.25806 0 2.22581 4.25806 0 2.32258 4.25806 0 2.41935 4.25806 0 2.51613 4.25806 0 2.6129 4.25806 0 2.70968 4.25806 0 2.80645 4.25806 0 2.90323 4.25806 0 3 4.25806 0 0 4.35484 0 0.0967742 4.35484 0 0.193548 4.35484 0 0.290323 4.35484 0 0.387097 4.35484 0 0.483871 4.35484 0 0.580645 4.35484 0 0.677419 4.35484 0 0.774194 4.35484 0 0.870968 4.35484 0 0.967742 4.35484 0 1.06452 4.35484 0 1.16129 4.35484 0 1.25806 4.35484 0 1.35484 4.35484 0 1.45161 4.35484 0 1.54839 4.35484 0 1.64516 4.35484 0 1.74194 4.35484 0 1.83871 4.35484 0 1.93548 4.35484 0 2.03226 4.35484 0 2.12903 4.35484 0 2.22581 4.35484 0 2.32258 4.35484 0 2.41935 4.35484 0 2.51613 4.35484 0 2.6129 4.35484 0 2.70968 4.35484 0 2.80645 4.35484 0 2.90323 4.35484 0 3 4.35484 0 0 4.45161 0 0.0967742 4.45161 0 0.193548 4.45161 0 0.290323 4.45161 0 0.387097 4.45161 0 0.483871 4.45161 0 0.580645 4.45161 0 0.677419 4.45161 0 0.774194 4.45161 0 0.870968 4.45161 0 0.967742 4.45161 0 1.06452 4.45161 0 1.16129 4.45161 0 1.25806 4.45161 0 1.35484 4.45161 0 1.45161 4.45161 0 1.54839 4.45161 0 1.64516 4.45161 0 1.74194 4.45161 0 1.83871 4.45161 0 1.93548 4.45161 0 2.03226 4.45161 0 2.12903 4.45161 0 2.22581 4.45161 0 2.32258 4.45161 0 2.41935 4.45161 0 2.51613 4.45161 0 2.6129 4.45161 0 2.70968 4.45161 0 2.80645 4.45161 0 2.90323 4.45161 0 3 4.45161 0 0 4.54839 0 0.0967742 4.54839 0 0.193548 4.54839 0 0.290323 4.54839 0 0.387097 4.54839 0 0.483871 4.54839 0 0.580645 4.54839 0 0.677419 4.54839 0 0.774194 4.54839 0 0.870968 4.54839 0 0.967742 4.54839 0 1.06452 4.54839 0 1.16129 4.54839 0 1.25806 4.54839 0 1.35484 4.54839 0 1.45161 4.54839 0 1.54839 4.54839 0 1.64516 4.54839 0 1.74194 4.54839 0 1.83871 4.54839 0 1.93548 4.54839 0 2.03226 4.54839 0 2.12903 4.54839 0 2.22581 4.54839 0 2.32258 4.54839 0 2.41935 4.54839 0 2.51613 4.54839 0 2.6129 4.54839 0 2.70968 4.54839 0 2.80645 4.54839 0 2.90323 4.54839 0 3 4.54839 0 0 4.64516 0 0.0967742 4.64516 0 0.193548 4.64516 0 0.290323 4.64516 0 0.387097 4.64516 0 0.483871 4.64516 0 0.580645 4.64516 0 0.677419 4.64516 0 0.774194 4.64516 0 0.870968 4.64516 0 0.967742 4.64516 0 1.06452 4.64516 0 1.16129 4.64516 0 1.25806 4.64516 0 1.35484 4.64516 0 1.45161 4.64516 0 1.54839 4.64516 0 1.64516 4.64516 0 1.74194 4.64516 0 1.83871 4.64516 0 1.93548 4.64516 0 2.03226 4.64516 0 2.12903 4.64516 0 2.22581 4.64516 0 2.32258 4.64516 0 2.41935 4.64516 0 2.51613 4.64516 0 2.6129 4.64516 0 2.70968 4.64516 0 2.80645 4.64516 0 2.90323 4.64516 0 3 4.64516 0 0 4.74194 0 0.0967742 4.74194 0 0.193548 4.74194 0 0.290323 4.74194 0 0.387097 4.74194 0 0.483871 4.74194 0 0.580645 4.74194 0 0.677419 4.74194 0 0.774194 4.74194 0 0.870968 4.74194 0 0.967742 4.74194 0 1.06452 4.74194 0 1.16129 4.74194 0 1.25806 4.74194 0 1.35484 4.74194 0 1.45161 4.74194 0 1.54839 4.74194 0 1.64516 4.74194 0 1.74194 4.74194 0 1.83871 4.74194 0 1.93548 4.74194 0 2.03226 4.74194 0 2.12903 4.74194 0 2.22581 4.74194 0 2.32258 4.74194 0 2.41935 4.74194 0 2.51613 4.74194 0 2.6129 4.74194 0 2.70968 4.74194 0 2.80645 4.74194 0 2.90323 4.74194 0 3 4.74194 0 0 4.83871 0 0.0967742 4.83871 0 0.193548 4.83871 0 0.290323 4.83871 0 0.387097 4.83871 0 0.483871 4.83871 0 0.580645 4.83871 0 0.677419 4.83871 0 0.774194 4.83871 0 0.870968 4.83871 0 0.967742 4.83871 0 1.06452 4.83871 0 1.16129 4.83871 0 1.25806 4.83871 0 1.35484 4.83871 0 1.45161 4.83871 0 1.54839 4.83871 0 1.64516 4.83871 0 1.74194 4.83871 0 1.83871 4.83871 0 1.93548 4.83871 0 2.03226 4.83871 0 2.12903 4.83871 0 2.22581 4.83871 0 2.32258 4.83871 0 2.41935 4.83871 0 2.51613 4.83871 0 2.6129 4.83871 0 2.70968 4.83871 0 2.80645 4.83871 0 2.90323 4.83871 0 3 4.83871 0 0 4.93548 0 0.0967742 4.93548 0 0.193548 4.93548 0 0.290323 4.93548 0 0.387097 4.93548 0 0.483871 4.93548 0 0.580645 4.93548 0 0.677419 4.93548 0 0.774194 4.93548 0 0.870968 4.93548 0 0.967742 4.93548 0 1.06452 4.93548 0 1.16129 4.93548 0 1.25806 4.93548 0 1.35484 4.93548 0 1.45161 4.93548 0 1.54839 4.93548 0 1.64516 4.93548 0 1.74194 4.93548 0 1.83871 4.93548 0 1.93548 4.93548 0 2.03226 4.93548 0 2.12903 4.93548 0 2.22581 4.93548 0 2.32258 4.93548 0 2.41935 4.93548 0 2.51613 4.93548 0 2.6129 4.93548 0 2.70968 4.93548 0 2.80645 4.93548 0 2.90323 4.93548 0 3 4.93548 0 0 5.03226 0 0.0967742 5.03226 0 0.193548 5.03226 0 0.290323 5.03226 0 0.387097 5.03226 0 0.483871 5.03226 0 0.580645 5.03226 0 0.677419 5.03226 0 0.774194 5.03226 0 0.870968 5.03226 0 0.967742 5.03226 0 1.06452 5.03226 0 1.16129 5.03226 0 1.25806 5.03226 0 1.35484 5.03226 0 1.45161 5.03226 0 1.54839 5.03226 0 1.64516 5.03226 0 1.74194 5.03226 0 1.83871 5.03226 0 1.93548 5.03226 0 2.03226 5.03226 0 2.12903 5.03226 0 2.22581 5.03226 0 2.32258 5.03226 0 2.41935 5.03226 0 2.51613 5.03226 0 2.6129 5.03226 0 2.70968 5.03226 0 2.80645 5.03226 0 2.90323 5.03226 0 3 5.03226 0 0 5.12903 0 0.0967742 5.12903 0 0.193548 5.12903 0 0.290323 5.12903 0 0.387097 5.12903 0 0.483871 5.12903 0 0.580645 5.12903 0 0.677419 5.12903 0 0.774194 5.12903 0 0.870968 5.12903 0 0.967742 5.12903 0 1.06452 5.12903 0 1.16129 5.12903 0 1.25806 5.12903 0 1.35484 5.12903 0 1.45161 5.12903 0 1.54839 5.12903 0 1.64516 5.12903 0 1.74194 5.12903 0 1.83871 5.12903 0 1.93548 5.12903 0 2.03226 5.12903 0 2.12903 5.12903 0 2.22581 5.12903 0 2.32258 5.12903 0 2.41935 5.12903 0 2.51613 5.12903 0 2.6129 5.12903 0 2.70968 5.12903 0 2.80645 5.12903 0 2.90323 5.12903 0 3 5.12903 0 0 5.22581 0 0.0967742 5.22581 0 0.193548 5.22581 0 0.290323 5.22581 0 0.387097 5.22581 0 0.483871 5.22581 0 0.580645 5.22581 0 0.677419 5.22581 0 0.774194 5.22581 0 0.870968 5.22581 0 0.967742 5.22581 0 1.06452 5.22581 0 1.16129 5.22581 0 1.25806 5.22581 0 1.35484 5.22581 0 1.45161 5.22581 0 1.54839 5.22581 0 1.64516 5.22581 0 1.74194 5.22581 0 1.83871 5.22581 0 1.93548 5.22581 0 2.03226 5.22581 0 2.12903 5.22581 0 2.22581 5.22581 0 2.32258 5.22581 0 2.41935 5.22581 0 2.51613 5.22581 0 2.6129 5.22581 0 2.70968 5.22581 0 2.80645 5.22581 0 2.90323 5.22581 0 3 5.22581 0 0 5.32258 0 0.0967742 5.32258 0 0.193548 5.32258 0 0.290323 5.32258 0 0.387097 5.32258 0 0.483871 5.32258 0 0.580645 5.32258 0 0.677419 5.32258 0 0.774194 5.32258 0 0.870968 5.32258 0 0.967742 5.32258 0 1.06452 5.32258 0 1.16129 5.32258 0 1.25806 5.32258 0 1.35484 5.32258 0 1.45161 5.32258 0 1.54839 5.32258 0 1.64516 5.32258 0 1.74194 5.32258 0 1.83871 5.32258 0 1.93548 5.32258 0 2.03226 5.32258 0 2.12903 5.32258 0 2.22581 5.32258 0 2.32258 5.32258 0 2.41935 5.32258 0 2.51613 5.32258 0 2.6129 5.32258 0 2.70968 5.32258 0 2.80645 5.32258 0 2.90323 5.32258 0 3 5.32258 0 0 5.41935 0 0.0967742 5.41935 0 0.193548 5.41935 0 0.290323 5.41935 0 0.387097 5.41935 0 0.483871 5.41935 0 0.580645 5.41935 0 0.677419 5.41935 0 0.774194 5.41935 0 0.870968 5.41935 0 0.967742 5.41935 0 1.06452 5.41935 0 1.16129 5.41935 0 1.25806 5.41935 0 1.35484 5.41935 0 1.45161 5.41935 0 1.54839 5.41935 0 1.64516 5.41935 0 1.74194 5.41935 0 1.83871 5.41935 0 1.93548 5.41935 0 2.03226 5.41935 0 2.12903 5.41935 0 2.22581 5.41935 0 2.32258 5.41935 0 2.41935 5.41935 0 2.51613 5.41935 0 2.6129 5.41935 0 2.70968 5.41935 0 2.80645 5.41935 0 2.90323 5.41935 0 3 5.41935 0 0 5.51613 0 0.0967742 5.51613 0 0.193548 5.51613 0 0.290323 5.51613 0 0.387097 5.51613 0 0.483871 5.51613 0 0.580645 5.51613 0 0.677419 5.51613 0 0.774194 5.51613 0 0.870968 5.51613 0 0.967742 5.51613 0 1.06452 5.51613 0 1.16129 5.51613 0 1.25806 5.51613 0 1.35484 5.51613 0 1.45161 5.51613 0 1.54839 5.51613 0 1.64516 5.51613 0 1.74194 5.51613 0 1.83871 5.51613 0 1.93548 5.51613 0 2.03226 5.51613 0 2.12903 5.51613 0 2.22581 5.51613 0 2.32258 5.51613 0 2.41935 5.51613 0 2.51613 5.51613 0 2.6129 5.51613 0 2.70968 5.51613 0 2.80645 5.51613 0 2.90323 5.51613 0 3 5.51613 0 0 5.6129 0 0.0967742 5.6129 0 0.193548 5.6129 0 0.290323 5.6129 0 0.387097 5.6129 0 0.483871 5.6129 0 0.580645 5.6129 0 0.677419 5.6129 0 0.774194 5.6129 0 0.870968 5.6129 0 0.967742 5.6129 0 1.06452 5.6129 0 1.16129 5.6129 0 1.25806 5.6129 0 1.35484 5.6129 0 1.45161 5.6129 0 1.54839 5.6129 0 1.64516 5.6129 0 1.74194 5.6129 0 1.83871 5.6129 0 1.93548 5.6129 0 2.03226 5.6129 0 2.12903 5.6129 0 2.22581 5.6129 0 2.32258 5.6129 0 2.41935 5.6129 0 2.51613 5.6129 0 2.6129 5.6129 0 2.70968 5.6129 0 2.80645 5.6129 0 2.90323 5.6129 0 3 5.6129 0 0 5.70968 0 0.0967742 5.70968 0 0.193548 5.70968 0 0.290323 5.70968 0 0.387097 5.70968 0 0.483871 5.70968 0 0.580645 5.70968 0 0.677419 5.70968 0 0.774194 5.70968 0 0.870968 5.70968 0 0.967742 5.70968 0 1.06452 5.70968 0 1.16129 5.70968 0 1.25806 5.70968 0 1.35484 5.70968 0 1.45161 5.70968 0 1.54839 5.70968 0 1.64516 5.70968 0 1.74194 5.70968 0 1.83871 5.70968 0 1.93548 5.70968 0 2.03226 5.70968 0 2.12903 5.70968 0 2.22581 5.70968 0 2.32258 5.70968 0 2.41935 5.70968 0 2.51613 5.70968 0 2.6129 5.70968 0 2.70968 5.70968 0 2.80645 5.70968 0 2.90323 5.70968 0 3 5.70968 0 0 5.80645 0 0.0967742 5.80645 0 0.193548 5.80645 0 0.290323 5.80645 0 0.387097 5.80645 0 0.483871 5.80645 0 0.580645 5.80645 0 0.677419 5.80645 0 0.774194 5.80645 0 0.870968 5.80645 0 0.967742 5.80645 0 1.06452 5.80645 0 1.16129 5.80645 0 1.25806 5.80645 0 1.35484 5.80645 0 1.45161 5.80645 0 1.54839 5.80645 0 1.64516 5.80645 0 1.74194 5.80645 0 1.83871 5.80645 0 1.93548 5.80645 0 2.03226 5.80645 0 2.12903 5.80645 0 2.22581 5.80645 0 2.32258 5.80645 0 2.41935 5.80645 0 2.51613 5.80645 0 2.6129 5.80645 0 2.70968 5.80645 0 2.80645 5.80645 0 2.90323 5.80645 0 3 5.80645 0 0 5.90323 0 0.0967742 5.90323 0 0.193548 5.90323 0 0.290323 5.90323 0 0.387097 5.90323 0 0.483871 5.90323 0 0.580645 5.90323 0 0.677419 5.90323 0 0.774194 5.90323 0 0.870968 5.90323 0 0.967742 5.90323 0 1.06452 5.90323 0 1.16129 5.90323 0 1.25806 5.90323 0 1.35484 5.90323 0 1.45161 5.90323 0 1.54839 5.90323 0 1.64516 5.90323 0 1.74194 5.90323 0 1.83871 5.90323 0 1.93548 5.90323 0 2.03226 5.90323 0 2.12903 5.90323 0 2.22581 5.90323 0 2.32258 5.90323 0 2.41935 5.90323 0 2.51613 5.90323 0 2.6129 5.90323 0 2.70968 5.90323 0 2.80645 5.90323 0 2.90323 5.90323 0 3 5.90323 0 0 6 0 0.0967742 6 0 0.193548 6 0 0.290323 6 0 0.387097 6 0 0.483871 6 0 0.580645 6 0 0.677419 6 0 0.774194 6 0 0.870968 6 0 0.967742 6 0 1.06452 6 0 1.16129 6 0 1.25806 6 0 1.35484 6 0 1.45161 6 0 1.54839 6 0 1.64516 6 0 1.74194 6 0 1.83871 6 0 1.93548 6 0 2.03226 6 0 2.12903 6 0 2.22581 6 0 2.32258 6 0 2.41935 6 0 2.51613 6 0 2.6129 6 0 2.70968 6 0 2.80645 6 0 2.90323 6 0 3 6 0 
</DataArray>
</Points> 
</Piece> 
</StructuredGrid> 
</VTKFile> 
