<?xml version="1.0"?> 
<VTKFile type="StructuredGrid" version="0.1"> 
<StructuredGrid WholeExtent="0 31 0 31 0 0"> 
<Piece Extent="0 31 0 31 0 0"> 
<PointData>
<DataArray type="Float32" Name="B" format="ascii" NumberOfComponents="3"> 
0 -0 0 8.68306e-07 -0 0 1.74219e-06 -0 0 2.62722e-06 -0 0 3.52901e-06 -0 0 4.45317e-06 -0 0 5.40533e-06 -0 0 6.39115e-06 -0 0 7.41631e-06 -0 0 8.48646e-06 -0 0 9.60725e-06 -0 0 1.07843e-05 -0 0 1.2023e-05 -0 0 1.33288e-05 -0 0 1.47068e-05 -0 0 1.61619e-05 -0 0 1.76984e-05 -0 0 1.93205e-05 -0 0 2.10313e-05 -0 0 2.28336e-05 -0 0 2.4729e-05 -0 0 2.67182e-05 -0 0 2.88007e-05 -0 0 3.09744e-05 -0 0 3.32359e-05 -0 0 3.55801e-05 -0 0 3.79999e-05 -0 0 4.04864e-05 -0 0 4.30286e-05 -0 0 4.56137e-05 -0 0 4.82267e-05 -0 0 5.08507e-05 -0 0 2.18029e-21 -8.66448e-07 0 8.65519e-07 -8.69234e-07 0 1.73661e-06 -8.77595e-07 0 2.61885e-06 -8.91543e-07 0 3.51783e-06 -9.11096e-07 0 4.43916e-06 -9.36277e-07 0 5.3885e-06 -9.67105e-07 0 6.37149e-06 -1.0036e-06 0 7.39381e-06 -1.04577e-06 0 8.46114e-06 -1.0936e-06 0 9.57913e-06 -1.14706e-06 0 1.07534e-05 -1.20607e-06 0 1.19895e-05 -1.27052e-06 0 1.32927e-05 -1.34024e-06 0 1.46683e-05 -1.41497e-06 0 1.61211e-05 -1.49439e-06 0 1.76557e-05 -1.57806e-06 0 1.9276e-05 -1.66543e-06 0 2.09855e-05 -1.75583e-06 0 2.27869e-05 -1.84844e-06 0 2.4682e-05 -1.94228e-06 0 2.66715e-05 -2.03622e-06 0 2.87549e-05 -2.12897e-06 0 3.09304e-05 -2.21905e-06 0 3.31945e-05 -2.30485e-06 0 3.55421e-05 -2.38461e-06 0 3.79664e-05 -2.45642e-06 0 4.04583e-05 -2.51833e-06 0 4.3007e-05 -2.56831e-06 0 4.55996e-05 -2.60433e-06 0 4.8221e-05 -2.62442e-06 0 5.08543e-05 -2.62675e-06 0 3.58027e-21 -1.72733e-06 0 8.57164e-07 -1.73289e-06 0 1.71989e-06 -1.7496e-06 0 2.59373e-06 -1.77748e-06 0 3.48429e-06 -1.81657e-06 0 4.39717e-06 -1.8669e-06 0 5.33801e-06 -1.92854e-06 0 6.31249e-06 -2.00152e-06 0 7.3263e-06 -2.08587e-06 0 8.38514e-06 -2.18156e-06 0 9.49472e-06 -2.28855e-06 0 1.06607e-05 -2.40669e-06 0 1.18887e-05 -2.53577e-06 0 1.31842e-05 -2.67545e-06 0 1.45524e-05 -2.82524e-06 0 1.59985e-05 -2.98451e-06 0 1.7527e-05 -3.15239e-06 0 1.91422e-05 -3.32781e-06 0 2.08477e-05 -3.50942e-06 0 2.26464e-05 -3.69561e-06 0 2.45404e-05 -3.88443e-06 0 2.65306e-05 -4.07362e-06 0 2.86168e-05 -4.26057e-06 0 3.07974e-05 -4.44237e-06 0 3.30692e-05 -4.61574e-06 0 3.54273e-05 -4.77713e-06 0 3.78648e-05 -4.92275e-06 0 4.03731e-05 -5.0486e-06 0 4.29413e-05 -5.15058e-06 0 4.55563e-05 -5.2246e-06 0 4.82031e-05 -5.26664e-06 0 5.08645e-05 -5.27298e-06 0 0 -2.57707e-06 0 8.43253e-07 -2.58541e-06 0 1.69204e-06 -2.61045e-06 0 2.55191e-06 -2.65222e-06 0 3.42844e-06 -2.71078e-06 0 4.32722e-06 -2.78623e-06 0 5.2539e-06 -2.87864e-06 0 6.21417e-06 -2.98808e-06 0 7.21375e-06 -3.11461e-06 0 8.2584e-06 -3.25823e-06 0 9.35389e-06 -3.41887e-06 0 1.0506e-05 -3.59636e-06 0 1.17204e-05 -3.7904e-06 0 1.30029e-05 -4.00051e-06 0 1.43587e-05 -4.22601e-06 0 1.57933e-05 -4.46597e-06 0 1.73116e-05 -4.71914e-06 0 1.8918e-05 -4.98394e-06 0 2.06165e-05 -5.2584e-06 0 2.24105e-05 -5.54009e-06 0 2.43024e-05 -5.82615e-06 0 2.62935e-05 -6.11318e-06 0 2.83841e-05 -6.39729e-06 0 3.05729e-05 -6.67406e-06 0 3.28573e-05 -6.93856e-06 0 3.52325e-05 -7.18541e-06 0 3.76922e-05 -7.40883e-06 0 4.02278e-05 -7.60273e-06 0 4.28284e-05 -7.76085e-06 0 4.5481e-05 -7.87688e-06 0 4.81703e-05 -7.94465e-06 0 5.08788e-05 -7.95841e-06 0 1.34474e-22 -3.41015e-06 0 8.23809e-07 -3.42124e-06 0 1.65312e-06 -3.45456e-06 0 2.49345e-06 -3.51015e-06 0 3.35033e-06 -3.58812e-06 0 4.22937e-06 -3.68859e-06 0 5.13621e-06 -3.81169e-06 0 6.07654e-06 -3.95754e-06 0 7.05613e-06 -4.12625e-06 0 8.08081e-06 -4.31786e-06 0 9.15644e-06 -4.53231e-06 0 1.02889e-05 -4.76945e-06 0 1.14842e-05 -5.02891e-06 0 1.2748e-05 -5.31014e-06 0 1.40863e-05 -5.61228e-06 0 1.55044e-05 -5.93416e-06 0 1.70079e-05 -6.27419e-06 0 1.86015e-05 -6.63035e-06 0 2.02898e-05 -7.00005e-06 0 2.20766e-05 -7.38013e-06 0 2.39649e-05 -7.76681e-06 0 2.59567e-05 -8.15559e-06 0 2.80528e-05 -8.54127e-06 0 3.02527e-05 -8.91793e-06 0 3.25541e-05 -9.27896e-06 0 3.4953e-05 -9.61706e-06 0 3.74434e-05 -9.92439e-06 0 4.0017e-05 -1.01926e-05 0 4.2663e-05 -1.04132e-05 0 4.53686e-05 -1.05775e-05 0 4.81179e-05 -1.06768e-05 0 5.08931e-05 -1.07033e-05 0 1.27022e-20 -4.22103e-06 0 7.98867e-07 -4.23486e-06 0 1.60318e-06 -4.2764e-06 0 2.41842e-06 -4.34572e-06 0 3.25009e-06 -4.44297e-06 0 4.10374e-06 -4.56832e-06 0 4.98503e-06 -4.72198e-06 0 5.89966e-06 -4.90414e-06 0 6.85344e-06 -5.11498e-06 0 7.85227e-06 -5.35461e-06 0 8.90214e-06 -5.62306e-06 0 1.00091e-05 -5.92017e-06 0 1.11793e-05 -6.24562e-06 0 1.24188e-05 -6.59879e-06 0 1.37338e-05 -6.97874e-06 0 1.51302e-05 -7.38411e-06 0 1.66138e-05 -7.81304e-06 0 1.81902e-05 -8.26311e-06 0 1.98645e-05 -8.7312e-06 0 2.1641e-05 -9.21347e-06 0 2.35237e-05 -9.70525e-06 0 2.55154e-05 -1.0201e-05 0 2.76176e-05 -1.06941e-05 0 2.98306e-05 -1.11773e-05 0 3.21531e-05 -1.16422e-05 0 3.45817e-05 -1.20794e-05 0 3.7111e-05 -1.2479e-05 0 3.97332e-05 -1.28302e-05 0 4.24378e-05 -1.3122e-05 0 4.52119e-05 -1.3343e-05 0 4.80394e-05 -1.34821e-05 0 5.09017e-05 -1.35286e-05 0 7.70841e-21 -5.00425e-06 0 7.68479e-07 -5.02079e-06 0 1.54234e-06 -5.07046e-06 0 2.32698e-06 -5.15337e-06 0 3.12786e-06 -5.26971e-06 0 3.9505e-06 -5.41975e-06 0 4.80052e-06 -5.60375e-06 0 5.68364e-06 -5.82204e-06 0 6.6057e-06 -6.07489e-06 0 7.5727e-06 -6.36254e-06 0 8.59074e-06 -6.68509e-06 0 9.66607e-06 -7.04252e-06 0 1.08051e-05 -7.43454e-06 0 1.20142e-05 -7.86059e-06 0 1.32999e-05 -8.3197e-06 0 1.46687e-05 -8.8104e-06 0 1.6127e-05 -9.33065e-06 0 1.7681e-05 -9.87771e-06 0 1.93366e-05 -1.0448e-05 0 2.10992e-05 -1.10372e-05 0 2.29734e-05 -1.16396e-05 0 2.49632e-05 -1.22487e-05 0 2.70712e-05 -1.28568e-05 0 2.92988e-05 -1.3455e-05 0 3.16456e-05 -1.40329e-05 0 3.41093e-05 -1.45793e-05 0 3.66853e-05 -1.50819e-05 0 3.93665e-05 -1.55272e-05 0 4.21428e-05 -1.59015e-05 0 4.50012e-05 -1.61905e-05 0 4.79256e-05 -1.638e-05 0 5.08965e-05 -1.64565e-05 0 0 -5.7544e-06 0 7.32714e-07 -5.77361e-06 0 1.47071e-06 -5.83129e-06 0 2.21931e-06 -5.92759e-06 0 2.98389e-06 -6.06278e-06 0 3.76991e-06 -6.2372e-06 0 4.58293e-06 -6.45125e-06 0 5.4287e-06 -6.70537e-06 0 6.31307e-06 -7e-06 0 7.2421e-06 -7.33552e-06 0 8.22206e-06 -7.71222e-06 0 9.25939e-06 -8.13021e-06 0 1.03607e-05 -8.58938e-06 0 1.15329e-05 -9.08926e-06 0 1.27829e-05 -9.62896e-06 0 1.41177e-05 -1.0207e-05 0 1.55444e-05 -1.08213e-05 0 1.70702e-05 -1.14689e-05 0 1.87017e-05 -1.21459e-05 0 2.04455e-05 -1.28473e-05 0 2.23074e-05 -1.3567e-05 0 2.42925e-05 -1.42973e-05 0 2.6405e-05 -1.50293e-05 0 2.86474e-05 -1.57526e-05 0 3.10208e-05 -1.64549e-05 0 3.35242e-05 -1.7123e-05 0 3.6154e-05 -1.77418e-05 0 3.89041e-05 -1.82953e-05 0 4.17651e-05 -1.87664e-05 0 4.47241e-05 -1.91377e-05 0 4.77648e-05 -1.93913e-05 0 5.08669e-05 -1.95104e-05 0 0 -6.46616e-06 0 6.91668e-07 -6.48798e-06 0 1.3885e-06 -6.5535e-06 0 2.09569e-06 -6.66294e-06 0 2.8185e-06 -6.81663e-06 0 3.56232e-06 -7.01503e-06 0 4.33264e-06 -7.25868e-06 0 5.13517e-06 -7.54819e-06 0 5.97579e-06 -7.8842e-06 0 6.86063e-06 -8.26729e-06 0 7.79605e-06 -8.698e-06 0 8.78873e-06 -9.17668e-06 0 9.84558e-06 -9.70344e-06 0 1.09738e-05 -1.0278e-05 0 1.2181e-05 -1.08997e-05 0 1.34747e-05 -1.15673e-05 0 1.48629e-05 -1.22785e-05 0 1.63535e-05 -1.30305e-05 0 1.79545e-05 -1.38191e-05 0 1.96735e-05 -1.46391e-05 0 2.15179e-05 -1.54835e-05 0 2.34943e-05 -1.6344e-05 0 2.56085e-05 -1.72104e-05 0 2.78647e-05 -1.80707e-05 0 3.02657e-05 -1.89111e-05 0 3.28121e-05 -1.97156e-05 0 3.5502e-05 -2.04669e-05 0 3.83303e-05 -2.11455e-05 0 4.12886e-05 -2.17312e-05 0 4.43647e-05 -2.22025e-05 0 4.75419e-05 -2.25375e-05 0 5.07992e-05 -2.27153e-05 0 0 -7.13431e-06 0 6.45467e-07 -7.15866e-06 0 1.29594e-06 -7.23182e-06 0 1.95645e-06 -7.35405e-06 0 2.63213e-06 -7.52579e-06 0 3.32824e-06 -7.74761e-06 0 4.05019e-06 -8.02025e-06 0 4.8036e-06 -8.34452e-06 0 5.59435e-06 -8.72129e-06 0 6.4286e-06 -9.15143e-06 0 7.31285e-06 -9.63578e-06 0 8.25393e-06 -1.0175e-05 0 9.25908e-06 -1.07696e-05 0 1.03359e-05 -1.14196e-05 0 1.14925e-05 -1.21246e-05 0 1.27372e-05 -1.28836e-05 0 1.40789e-05 -1.36948e-05 0 1.55264e-05 -1.45552e-05 0 1.70891e-05 -1.54608e-05 0 1.8776e-05 -1.64061e-05 0 2.05962e-05 -1.73836e-05 0 2.25582e-05 -1.83844e-05 0 2.46696e-05 -1.93972e-05 0 2.69368e-05 -2.04086e-05 0 2.93648e-05 -2.14027e-05 0 3.19561e-05 -2.23614e-05 0 3.47109e-05 -2.32643e-05 0 3.76258e-05 -2.40887e-05 0 4.06938e-05 -2.48103e-05 0 4.39034e-05 -2.54035e-05 0 4.72382e-05 -2.58415e-05 0 5.06767e-05 -2.60983e-05 0 0 -7.75377e-06 0 5.94271e-07 -7.78057e-06 0 1.19334e-06 -7.8611e-06 0 1.80206e-06 -7.99568e-06 0 2.42537e-06 -8.18487e-06 0 3.06836e-06 -8.42941e-06 0 3.73631e-06 -8.73021e-06 0 4.43473e-06 -9.08835e-06 0 5.16946e-06 -9.50498e-06 0 5.94665e-06 -9.98135e-06 0 6.77287e-06 -1.05186e-05 0 7.65513e-06 -1.1118e-05 0 8.60095e-06 -1.17802e-05 0 9.61837e-06 -1.2506e-05 0 1.0716e-05 -1.32953e-05 0 1.19029e-05 -1.41476e-05 0 1.31889e-05 -1.50616e-05 0 1.45842e-05 -1.60345e-05 0 1.60994e-05 -1.70626e-05 0 1.77452e-05 -1.81403e-05 0 1.95327e-05 -1.92602e-05 0 2.14725e-05 -2.04125e-05 0 2.35745e-05 -2.15851e-05 0 2.58479e-05 -2.27633e-05 0 2.83e-05 -2.39293e-05 0 3.09362e-05 -2.50627e-05 0 3.3759e-05 -2.61398e-05 0 3.67674e-05 -2.71344e-05 0 3.99564e-05 -2.80179e-05 0 4.33159e-05 -2.87595e-05 0 4.683e-05 -2.93271e-05 0 5.04765e-05 -2.96883e-05 0 0 -8.31966e-06 0 5.38283e-07 -8.3488e-06 0 1.08112e-06 -8.43636e-06 0 1.63311e-06 -8.58275e-06 0 2.19897e-06 -8.78864e-06 0 2.78357e-06 -9.05495e-06 0 3.392e-06 -9.38285e-06 0 4.02963e-06 -9.77368e-06 0 4.70217e-06 -1.0229e-05 0 5.41574e-06 -1.07503e-05 0 6.17693e-06 -1.13394e-05 0 6.99287e-06 -1.19979e-05 0 7.87133e-06 -1.27273e-05 0 8.82071e-06 -1.35286e-05 0 9.85018e-06 -1.44028e-05 0 1.09696e-05 -1.53499e-05 0 1.21898e-05 -1.63691e-05 0 1.35222e-05 -1.74585e-05 0 1.4979e-05 -1.86145e-05 0 1.65728e-05 -1.98321e-05 0 1.83168e-05 -2.11038e-05 0 2.02242e-05 -2.24197e-05 0 2.23079e-05 -2.3767e-05 0 2.45798e-05 -2.51297e-05 0 2.70507e-05 -2.64882e-05 0 2.97291e-05 -2.78197e-05 0 3.26207e-05 -2.90973e-05 0 3.57277e-05 -3.0291e-05 0 3.90477e-05 -3.13672e-05 0 4.25726e-05 -3.22895e-05 0 4.62881e-05 -3.30193e-05 0 5.01727e-05 -3.35174e-05 0 0 -8.82731e-06 0 4.77752e-07 -8.85865e-06 0 9.59755e-07 -8.95283e-06 0 1.45032e-06 -9.11035e-06 0 1.95386e-06 -9.33202e-06 0 2.47499e-06 -9.61895e-06 0 3.01854e-06 -9.97258e-06 0 3.58968e-06 -1.03946e-05 0 4.19393e-06 -1.08869e-05 0 4.8373e-06 -1.14515e-05 0 5.52633e-06 -1.20908e-05 0 6.26822e-06 -1.2807e-05 0 7.07089e-06 -1.36022e-05 0 7.9431e-06 -1.44784e-05 0 8.8945e-06 -1.54373e-05 0 9.93578e-06 -1.64799e-05 0 1.10787e-05 -1.76062e-05 0 1.2336e-05 -1.88153e-05 0 1.37215e-05 -2.01045e-05 0 1.52502e-05 -2.14694e-05 0 1.69375e-05 -2.29028e-05 0 1.87996e-05 -2.43951e-05 0 2.08527e-05 -2.5933e-05 0 2.31125e-05 -2.74995e-05 0 2.55933e-05 -2.90736e-05 0 2.8308e-05 -3.06299e-05 0 3.12663e-05 -3.21383e-05 0 3.44742e-05 -3.35646e-05 0 3.79328e-05 -3.487e-05 0 4.16374e-05 -3.60118e-05 0 4.5576e-05 -3.6944e-05 0 4.97271e-05 -3.76178e-05 0 -3.86208e-21 -9.27234e-06 0 4.12981e-07 -9.30571e-06 0 8.29853e-07 -9.40602e-06 0 1.25457e-06 -9.57385e-06 0 1.69121e-06 -9.81017e-06 0 2.14404e-06 -1.01163e-05 0 2.61758e-06 -1.0494e-05 0 3.11669e-06 -1.09452e-05 0 3.64666e-06 -1.14724e-05 0 4.2133e-06 -1.20781e-05 0 4.823e-06 -1.27653e-05 0 5.48293e-06 -1.35369e-05 0 6.20109e-06 -1.4396e-05 0 6.98645e-06 -1.53455e-05 0 7.84914e-06 -1.63881e-05 0 8.8005e-06 -1.75259e-05 0 9.85326e-06 -1.87604e-05 0 1.10216e-05 -2.00917e-05 0 1.23211e-05 -2.15186e-05 0 1.37689e-05 -2.30375e-05 0 1.53834e-05 -2.46425e-05 0 1.7184e-05 -2.63242e-05 0 1.91908e-05 -2.80696e-05 0 2.14236e-05 -2.9861e-05 0 2.39018e-05 -3.16761e-05 0 2.66428e-05 -3.34871e-05 0 2.96615e-05 -3.52608e-05 0 3.29689e-05 -3.69584e-05 0 3.65708e-05 -3.85357e-05 0 4.04668e-05 -3.99433e-05 0 4.46489e-05 -4.11266e-05 0 4.91007e-05 -4.20292e-05 0 -3.41791e-20 -9.65069e-06 0 3.44327e-07 -9.6859e-06 0 6.92127e-07 -9.79176e-06 0 1.04694e-06 -9.96894e-06 0 1.41241e-06 -1.02186e-05 0 1.79243e-06 -1.05422e-05 0 2.1911e-06 -1.09419e-05 0 2.61293e-06 -1.142e-05 0 3.06285e-06 -1.19794e-05 0 3.54635e-06 -1.26234e-05 0 4.0696e-06 -1.33554e-05 0 4.63958e-06 -1.41794e-05 0 5.26425e-06 -1.50993e-05 0 5.9527e-06 -1.61193e-05 0 6.71533e-06 -1.72434e-05 0 7.56407e-06 -1.84751e-05 0 8.51255e-06 -1.98174e-05 0 9.57624e-06 -2.12722e-05 0 1.07726e-05 -2.284e-05 0 1.21212e-05 -2.4519e-05 0 1.36433e-05 -2.63047e-05 0 1.53623e-05 -2.8189e-05 0 1.73025e-05 -3.01593e-05 0 1.94891e-05 -3.2198e-05 0 2.19468e-05 -3.42818e-05 0 2.46992e-05 -3.63808e-05 0 2.77672e-05 -3.84585e-05 0 3.1168e-05 -4.04717e-05 0 3.49132e-05 -4.23704e-05 0 3.90087e-05 -4.40982e-05 0 4.34516e-05 -4.5592e-05 0 4.8227e-05 -4.67789e-05 0 -6.2833e-21 -9.95869e-06 0 2.72212e-07 -9.99552e-06 0 5.47414e-07 -1.01062e-05 0 8.28661e-07 -1.02916e-05 0 1.11913e-06 -1.0553e-05 0 1.42221e-06 -1.08921e-05 0 1.74155e-06 -1.13114e-05 0 2.08118e-06 -1.18135e-05 0 2.44556e-06 -1.24019e-05 0 2.83978e-06 -1.30805e-05 0 3.26962e-06 -1.38536e-05 0 3.74174e-06 -1.47259e-05 0 4.26387e-06 -1.57026e-05 0 4.84501e-06 -1.67891e-05 0 5.4957e-06 -1.79909e-05 0 6.22823e-06 -1.93134e-05 0 7.05695e-06 -2.07616e-05 0 7.99856e-06 -2.23394e-05 0 9.07228e-06 -2.40498e-05 0 1.03001e-05 -2.58933e-05 0 1.17067e-05 -2.78677e-05 0 1.33195e-05 -2.99668e-05 0 1.51679e-05 -3.21795e-05 0 1.72832e-05 -3.4489e-05 0 1.96968e-05 -3.68712e-05 0 2.24394e-05 -3.92946e-05 0 2.55395e-05 -4.17195e-05 0 2.90213e-05 -4.40983e-05 0 3.29043e-05 -4.6375e-05 0 3.72009e-05 -4.84864e-05 0 4.19171e-05 -5.03594e-05 0 4.70533e-05 -5.19226e-05 0 0 -1.01931e-05 0 1.97117e-07 -1.02313e-05 0 3.96679e-07 -1.03461e-05 0 6.01194e-07 -1.05385e-05 0 8.13293e-07 -1.08098e-05 0 1.0358e-06 -1.11621e-05 0 1.2718e-06 -1.1598e-05 0 1.52475e-06 -1.21208e-05 0 1.79857e-06 -1.27344e-05 0 2.09775e-06 -1.34433e-05 0 2.42754e-06 -1.42526e-05 0 2.7941e-06 -1.51681e-05 0 3.20472e-06 -1.61961e-05 0 3.66809e-06 -1.73436e-05 0 4.19457e-06 -1.86177e-05 0 4.79657e-06 -2.0026e-05 0 5.48892e-06 -2.15758e-05 0 6.28923e-06 -2.32738e-05 0 7.21834e-06 -2.5126e-05 0 8.30065e-06 -2.71361e-05 0 9.56428e-06 -2.93051e-05 0 1.10412e-05 -3.16299e-05 0 1.27666e-05 -3.41019e-05 0 1.47788e-05 -3.67059e-05 0 1.71173e-05 -3.94181e-05 0 1.98216e-05 -4.22055e-05 0 2.29288e-05 -4.50255e-05 0 2.64726e-05 -4.78255e-05 0 3.048e-05 -5.05439e-05 0 3.4973e-05 -5.311e-05 0 3.99654e-05 -5.54463e-05 0 4.5456e-05 -5.74447e-05 0 0 -1.03513e-05 0 1.19585e-07 -1.03906e-05 0 2.41012e-07 -1.05086e-05 0 3.66177e-07 -1.07064e-05 0 4.97091e-07 -1.09856e-05 0 6.35944e-07 -1.13485e-05 0 7.85175e-07 -1.17979e-05 0 9.47564e-07 -1.23375e-05 0 1.12633e-06 -1.29717e-05 0 1.32527e-06 -1.37057e-05 0 1.54889e-06 -1.45455e-05 0 1.80264e-06 -1.54978e-05 0 2.09312e-06 -1.65703e-05 0 2.42839e-06 -1.77714e-05 0 2.81833e-06 -1.91104e-05 0 3.27506e-06 -2.0597e-05 0 3.81346e-06 -2.22415e-05 0 4.4517e-06 -2.40539e-05 0 5.21186e-06 -2.60438e-05 0 6.12052e-06 -2.82192e-05 0 7.20921e-06 -3.05857e-05 0 8.51472e-06 -3.31445e-05 0 1.00789e-05 -3.58911e-05 0 1.19481e-05 -3.8813e-05 0 1.41718e-05 -4.1888e-05 0 1.67999e-05 -4.50823e-05 0 1.98811e-05 -4.83499e-05 0 2.34586e-05 -5.16331e-05 0 2.757e-05 -5.48632e-05 0 3.22434e-05 -5.79643e-05 0 3.75044e-05 -6.08472e-05 0 4.33911e-05 -6.34572e-05 0 -8.32952e-21 -1.04311e-05 0 4.02216e-08 -1.04711e-05 0 8.1625e-08 -1.05914e-05 0 1.2544e-07 -1.07932e-05 0 1.72993e-07 -1.1078e-05 0 2.25768e-07 -1.14484e-05 0 2.85467e-07 -1.19076e-05 0 3.54092e-07 -1.24597e-05 0 4.34044e-07 -1.31094e-05 0 5.28246e-07 -1.38625e-05 0 6.403e-07 -1.4726e-05 0 7.74687e-07 -1.57075e-05 0 9.37025e-07 -1.6816e-05 0 1.1344e-06 -1.80615e-05 0 1.37575e-06 -1.94555e-05 0 1.67244e-06 -2.10102e-05 0 2.03881e-06 -2.27391e-05 0 2.493e-06 -2.46561e-05 0 3.05773e-06 -2.67756e-05 0 3.76125e-06 -2.91107e-05 0 4.63821e-06 -3.16731e-05 0 5.73035e-06 -3.44701e-05 0 7.08672e-06 -3.75033e-05 0 8.76328e-06 -4.07652e-05 0 1.08213e-05 -4.42365e-05 0 1.33246e-05 -4.78837e-05 0 1.63353e-05 -5.16572e-05 0 1.99103e-05 -5.54921e-05 0 2.40951e-05 -5.93117e-05 0 2.89279e-05 -6.30296e-05 0 3.44357e-05 -6.65662e-05 0 4.06219e-05 -6.97526e-05 0 -3.64284e-20 -1.0431e-05 0 -4.03159e-08 -1.04714e-05 0 -8.01568e-08 -1.0593e-05 0 -1.19011e-07 -1.07969e-05 0 -1.56289e-07 -1.10849e-05 0 -1.91281e-07 -1.14597e-05 0 -2.23102e-07 -1.19247e-05 0 -2.5062e-07 -1.24843e-05 0 -2.72379e-07 -1.31437e-05 0 -2.86479e-07 -1.39093e-05 0 -2.90433e-07 -1.47886e-05 0 -2.80971e-07 -1.57903e-05 0 -2.53785e-07 -1.69247e-05 0 -2.03185e-07 -1.82035e-05 0 -1.21649e-07 -1.964e-05 0 7.58037e-10 -2.12494e-05 0 1.77136e-07 -2.30486e-05 0 4.24694e-07 -2.5056e-05 0 7.65886e-07 -2.72912e-05 0 1.22975e-06 -2.97744e-05 0 1.8533e-06 -3.25246e-05 0 2.68292e-06 -3.5558e-05 0 3.77528e-06 -3.88848e-05 0 5.19739e-06 -4.25055e-05 0 7.02535e-06 -4.64066e-05 0 9.34047e-06 -5.05561e-05 0 1.22243e-05 -5.49007e-05 0 1.57489e-05 -5.93658e-05 0 1.99739e-05 -6.38593e-05 0 2.49345e-05 -6.82864e-05 0 3.06593e-05 -7.25391e-05 0 3.7229e-05 -7.67026e-05 0 -3.08658e-21 -1.03501e-05 0 -1.21322e-07 -1.03906e-05 0 -2.42913e-07 -1.05124e-05 0 -3.65017e-07 -1.07166e-05 0 -4.87828e-07 -1.10052e-05 0 -6.11463e-07 -1.13809e-05 0 -7.35917e-07 -1.18474e-05 0 -8.6102e-07 -1.24093e-05 0 -9.86364e-07 -1.30721e-05 0 -1.11122e-06 -1.38426e-05 0 -1.23441e-06 -1.4729e-05 0 -1.35412e-06 -1.57408e-05 0 -1.46771e-06 -1.68894e-05 0 -1.5713e-06 -1.81879e-05 0 -1.65939e-06 -1.96519e-05 0 -1.72421e-06 -2.12991e-05 0 -1.75484e-06 -2.315e-05 0 -1.73615e-06 -2.5228e-05 0 -1.64727e-06 -2.75589e-05 0 -1.45987e-06 -3.01706e-05 0 -1.13592e-06 -3.30921e-05 0 -6.25454e-07 -3.63509e-05 0 1.35611e-07 -3.997e-05 0 1.22675e-06 -4.39622e-05 0 2.74205e-06 -4.83245e-05 0 4.78689e-06 -5.30298e-05 0 7.46848e-06 -5.80212e-05 0 1.08861e-05 -6.32087e-05 0 1.51098e-05 -6.84786e-05 0 2.01823e-05 -7.36999e-05 0 2.61005e-05 -7.87971e-05 0 3.27692e-05 -8.33901e-05 0 0 -1.01885e-05 0 -2.02056e-07 -1.02286e-05 0 -4.05148e-07 -1.03494e-05 0 -6.10301e-07 -1.05521e-05 0 -8.18526e-07 -1.08385e-05 0 -1.0308e-06 -1.12116e-05 0 -1.24805e-06 -1.1675e-05 0 -1.47112e-06 -1.22335e-05 0 -1.70076e-06 -1.28929e-05 0 -1.93753e-06 -1.36603e-05 0 -2.18171e-06 -1.45442e-05 0 -2.43322e-06 -1.55549e-05 0 -2.69135e-06 -1.67045e-05 0 -2.95453e-06 -1.80074e-05 0 -3.2199e-06 -1.9481e-05 0 -3.48266e-06 -2.11454e-05 0 -3.73521e-06 -2.30249e-05 0 -3.96591e-06 -2.51475e-05 0 -4.15735e-06 -2.75458e-05 0 -4.28402e-06 -3.0257e-05 0 -4.30928e-06 -3.33215e-05 0 -4.1818e-06 -3.67821e-05 0 -3.83152e-06 -4.06791e-05 0 -3.16624e-06 -4.5045e-05 0 -2.06986e-06 -4.98943e-05 0 -4.05842e-07 -5.52121e-05 0 1.97427e-06 -6.094e-05 0 5.20693e-06 -6.697e-05 0 9.39795e-06 -7.31415e-05 0 1.45741e-05 -7.92851e-05 0 2.07005e-05 -8.51874e-05 0 2.78244e-05 -9.14168e-05 0 0 -9.9467e-06 0 -2.81754e-07 -9.98613e-06 0 -5.65318e-07 -1.01048e-05 0 -8.52511e-07 -1.03039e-05 0 -1.14517e-06 -1.05853e-05 0 -1.44514e-06 -1.0952e-05 0 -1.75433e-06 -1.14076e-05 0 -2.07464e-06 -1.1957e-05 0 -2.408e-06 -1.26059e-05 0 -2.75635e-06 -1.33617e-05 0 -3.1216e-06 -1.4233e-05 0 -3.50554e-06 -1.52305e-05 0 -3.90972e-06 -1.63666e-05 0 -4.33528e-06 -1.76569e-05 0 -4.78256e-06 -1.91198e-05 0 -5.25064e-06 -2.07775e-05 0 -5.73646e-06 -2.26574e-05 0 -6.2336e-06 -2.4792e-05 0 -6.73037e-06 -2.72207e-05 0 -7.20711e-06 -2.99901e-05 0 -7.63224e-06 -3.31548e-05 0 -7.95716e-06 -3.67754e-05 0 -8.10961e-06 -4.09167e-05 0 -7.98646e-06 -4.56392e-05 0 -7.44779e-06 -5.09886e-05 0 -6.31476e-06 -5.69748e-05 0 -4.38139e-06 -6.355e-05 0 -1.43608e-06 -7.05806e-05 0 2.6754e-06 -7.785e-05 0 8.01605e-06 -8.50527e-05 0 1.44649e-05 -9.20281e-05 0 2.15346e-05 -9.74117e-05 0 0 -9.62618e-06 0 -3.59644e-07 -9.66451e-06 0 -7.21864e-07 -9.77988e-06 0 -1.08926e-06 -9.97344e-06 0 -1.46449e-06 -1.02471e-05 0 -1.85029e-06 -1.06037e-05 0 -2.2495e-06 -1.10468e-05 0 -2.66509e-06 -1.15811e-05 0 -3.10023e-06 -1.22124e-05 0 -3.55827e-06 -1.29479e-05 0 -4.04277e-06 -1.37961e-05 0 -4.55755e-06 -1.47677e-05 0 -5.1066e-06 -1.58753e-05 0 -5.69408e-06 -1.71345e-05 0 -6.32409e-06 -1.85644e-05 0 -7.00035e-06 -2.01886e-05 0 -7.72556e-06 -2.20362e-05 0 -8.50035e-06 -2.41436e-05 0 -9.32149e-06 -2.6556e-05 0 -1.0179e-05 -2.93294e-05 0 -1.10515e-05 -3.25325e-05 0 -1.18998e-05 -3.6248e-05 0 -1.26569e-05 -4.05702e-05 0 -1.32157e-05 -4.56015e-05 0 -1.34141e-05 -5.14357e-05 0 -1.30248e-05 -5.81356e-05 0 -1.17526e-05 -6.56854e-05 0 -9.27273e-06 -7.39484e-05 0 -5.28771e-06 -8.26019e-05 0 3.05883e-07 -9.1207e-05 0 7.34935e-06 -9.90431e-05 0 1.5631e-05 -0.000108142 0 0 -9.22912e-06 0 -4.34962e-07 -9.26598e-06 0 -8.7324e-07 -9.37692e-06 0 -1.31819e-06 -9.56303e-06 0 -1.77327e-06 -9.82615e-06 0 -2.24205e-06 -1.01689e-05 0 -2.7283e-06 -1.05949e-05 0 -3.23604e-06 -1.11084e-05 0 -3.76962e-06 -1.1715e-05 0 -4.33376e-06 -1.24216e-05 0 -4.93371e-06 -1.32363e-05 0 -5.5753e-06 -1.41693e-05 0 -6.26506e-06 -1.52328e-05 0 -7.01031e-06 -1.6442e-05 0 -7.81923e-06 -1.78157e-05 0 -8.70077e-06 -1.93773e-05 0 -9.66445e-06 -2.11568e-05 0 -1.07197e-05 -2.31921e-05 0 -1.18744e-05 -2.55325e-05 0 -1.31328e-05 -2.82412e-05 0 -1.44905e-05 -3.14006e-05 0 -1.5927e-05 -3.51146e-05 0 -1.73936e-05 -3.95145e-05 0 -1.87937e-05 -4.47546e-05 0 -1.99575e-05 -5.10067e-05 0 -2.06081e-05 -5.84224e-05 0 -2.03424e-05 -6.70841e-05 0 -1.8629e-05 -7.68819e-05 0 -1.49356e-05 -8.74327e-05 0 -8.89295e-06 -9.79117e-05 0 -7.09895e-07 -0.000107672 0 8.37596e-06 -0.000111371 0 0 -8.75845e-06 0 -5.0697e-07 -8.79348e-06 0 -1.01795e-06 -8.8989e-06 0 -1.53703e-06 -9.07573e-06 0 -2.06838e-06 -9.32569e-06 0 -2.61638e-06 -9.6512e-06 0 -3.18567e-06 -1.00555e-05 0 -3.78123e-06 -1.05428e-05 0 -4.40851e-06 -1.1118e-05 0 -5.07355e-06 -1.17875e-05 0 -5.78313e-06 -1.25587e-05 0 -6.54502e-06 -1.34409e-05 0 -7.36816e-06 -1.44454e-05 0 -8.26301e-06 -1.5586e-05 0 -9.24184e-06 -1.688e-05 0 -1.03191e-05 -1.83497e-05 0 -1.15116e-05 -2.00232e-05 0 -1.28389e-05 -2.19381e-05 0 -1.43225e-05 -2.41434e-05 0 -1.59849e-05 -2.67067e-05 0 -1.7846e-05 -2.97176e-05 0 -1.99166e-05 -3.33008e-05 0 -2.21842e-05 -3.76201e-05 0 -2.45911e-05 -4.28966e-05 0 -2.69899e-05 -4.93988e-05 0 -2.90899e-05 -5.74404e-05 0 -3.03632e-05 -6.72842e-05 0 -3.00153e-05 -7.90217e-05 0 -2.69862e-05 -9.22194e-05 0 -2.04063e-05 -0.000105793 0 -1.01229e-05 -0.000117175 0 2.49168e-06 -0.000132935 0 0 -8.21784e-06 0 -5.74973e-07 -8.2507e-06 0 -1.1546e-06 -8.3496e-06 0 -1.74361e-06 -8.51544e-06 0 -2.34687e-06 -8.74978e-06 0 -2.96948e-06 -9.05482e-06 0 -3.61684e-06 -9.43345e-06 0 -4.29479e-06 -9.88933e-06 0 -5.00977e-06 -1.0427e-05 0 -5.76894e-06 -1.10518e-05 0 -6.58045e-06 -1.17704e-05 0 -7.45373e-06 -1.25907e-05 0 -8.39987e-06 -1.35223e-05 0 -9.4321e-06 -1.45772e-05 0 -1.05665e-05 -1.577e-05 0 -1.18225e-05 -1.71195e-05 0 -1.32244e-05 -1.86507e-05 0 -1.48019e-05 -2.03959e-05 0 -1.65915e-05 -2.24012e-05 0 -1.86368e-05 -2.47288e-05 0 -2.09889e-05 -2.74713e-05 0 -2.37013e-05 -3.07572e-05 0 -2.68231e-05 -3.47816e-05 0 -3.037e-05 -3.98148e-05 0 -3.42881e-05 -4.62557e-05 0 -3.83387e-05 -5.46156e-05 0 -4.19778e-05 -6.55355e-05 0 -4.40567e-05 -7.95235e-05 0 -4.27784e-05 -9.65885e-05 0 -3.58058e-05 -0.000115098 0 -2.21242e-05 -0.000132482 0 -2.76704e-06 -0.00012845 0 0 -7.61159e-06 0 -6.38332e-07 -7.64198e-06 0 -1.28189e-06 -7.73344e-06 0 -1.93599e-06 -7.88676e-06 0 -2.60608e-06 -8.1033e-06 0 -3.29789e-06 -8.38497e-06 0 -4.0175e-06 -8.73427e-06 0 -4.77147e-06 -9.15432e-06 0 -5.56701e-06 -9.64891e-06 0 -6.4122e-06 -1.02226e-05 0 -7.31627e-06 -1.08806e-05 0 -8.28995e-06 -1.16295e-05 0 -9.34595e-06 -1.24766e-05 0 -1.04997e-05 -1.34311e-05 0 -1.17701e-05 -1.45039e-05 0 -1.31811e-05 -1.57095e-05 0 -1.47627e-05 -1.70655e-05 0 -1.65542e-05 -1.85976e-05 0 -1.86056e-05 -2.03396e-05 0 -2.09831e-05 -2.2345e-05 0 -2.37698e-05 -2.4688e-05 0 -2.70745e-05 -2.74945e-05 0 -3.10213e-05 -3.09463e-05 0 -3.57588e-05 -3.53592e-05 0 -4.13883e-05 -4.11988e-05 0 -4.79303e-05 -4.92481e-05 0 -5.49812e-05 -6.05983e-05 0 -6.14234e-05 -7.67795e-05 0 -6.42985e-05 -9.89662e-05 0 -5.87631e-05 -0.000126516 0 -3.90999e-05 -0.000151318 0 -1.20994e-05 -0.000190874 0 0 -6.94464e-06 0 -6.96475e-07 -6.9723e-06 0 -1.39867e-06 -7.05551e-06 0 -2.1124e-06 -7.19496e-06 0 -2.84363e-06 -7.39178e-06 0 -3.5986e-06 -7.64759e-06 0 -4.38392e-06 -7.96444e-06 0 -5.2067e-06 -8.34489e-06 0 -6.07477e-06 -8.79194e-06 0 -6.99684e-06 -9.30909e-06 0 -7.98283e-06 -9.90037e-06 0 -9.04427e-06 -1.05702e-05 0 -1.01949e-05 -1.13239e-05 0 -1.14513e-05 -1.2167e-05 0 -1.28343e-05 -1.31063e-05 0 -1.43702e-05 -1.41493e-05 0 -1.60933e-05 -1.53068e-05 0 -1.80486e-05 -1.65904e-05 0 -2.02978e-05 -1.80217e-05 0 -2.29222e-05 -1.96261e-05 0 -2.60399e-05 -2.14593e-05 0 -2.98019e-05 -2.35941e-05 0 -3.44379e-05 -2.61944e-05 0 -4.02187e-05 -2.95e-05 0 -4.75599e-05 -3.40266e-05 0 -5.6826e-05 -4.06051e-05 0 -6.8425e-05 -5.08989e-05 0 -8.17825e-05 -6.76367e-05 0 -9.42186e-05 -9.52236e-05 0 -9.63338e-05 -0.000137462 0 -7.18512e-05 -0.000189662 0 6.15613e-07 -0.000170196 0 0 -6.22244e-06 0 -7.48908e-07 -6.24714e-06 0 -1.50395e-06 -6.32142e-06 0 -2.27136e-06 -6.44585e-06 0 -3.05751e-06 -6.62136e-06 0 -3.86904e-06 -6.84924e-06 0 -4.71297e-06 -7.13111e-06 0 -5.59681e-06 -7.46893e-06 0 -6.52874e-06 -7.86494e-06 0 -7.51782e-06 -8.32161e-06 0 -8.57427e-06 -8.84153e-06 0 -9.70991e-06 -9.42744e-06 0 -1.09386e-05 -1.00818e-05 0 -1.22774e-05 -1.08071e-05 0 -1.37468e-05 -1.16047e-05 0 -1.53742e-05 -1.24765e-05 0 -1.71936e-05 -1.34211e-05 0 -1.9254e-05 -1.44402e-05 0 -2.16168e-05 -1.55284e-05 0 -2.4381e-05 -1.66923e-05 0 -2.76646e-05 -1.79261e-05 0 -3.16875e-05 -1.92666e-05 0 -3.66895e-05 -2.0742e-05 0 -4.31889e-05 -2.25234e-05 0 -5.16975e-05 -2.48609e-05 0 -6.34542e-05 -2.85187e-05 0 -7.95368e-05 -3.49494e-05 0 -0.000102403 -4.78873e-05 0 -0.000132325 -7.54832e-05 0 -0.00016242 -0.000135553 0 -0.00014414 -0.000241728 0 -5.37249e-05 -0.000396198 0 0 -5.4509e-06 0 -7.95215e-07 -5.47245e-06 0 -1.5969e-06 -5.53725e-06 0 -2.41161e-06 -5.64573e-06 0 -3.24605e-06 -5.79864e-06 0 -4.10716e-06 -5.99694e-06 0 -5.00222e-06 -6.24188e-06 0 -5.93897e-06 -6.53483e-06 0 -6.92575e-06 -6.87732e-06 0 -7.97167e-06 -7.27084e-06 0 -9.0869e-06 -7.71676e-06 0 -1.02829e-05 -8.21601e-06 0 -1.15732e-05 -8.76885e-06 0 -1.29732e-05 -9.37427e-06 0 -1.45036e-05 -1.00296e-05 0 -1.61864e-05 -1.07291e-05 0 -1.80593e-05 -1.14633e-05 0 -2.01543e-05 -1.2217e-05 0 -2.2555e-05 -1.29667e-05 0 -2.53028e-05 -1.36804e-05 0 -2.86169e-05 -1.43071e-05 0 -3.25215e-05 -1.47927e-05 0 -3.76534e-05 -1.50428e-05 0 -4.38964e-05 -1.50002e-05 0 -5.31999e-05 -1.45722e-05 0 -6.49451e-05 -1.38432e-05 0 -8.52935e-05 -1.34092e-05 0 -0.000112855 -1.46124e-05 0 -0.000168101 -2.61443e-05 0 -0.000254266 -7.00253e-05 0 -0.00039651 -0.000293965 0 0.000210047 -0.000758126 0 0 -4.63631e-06 0 -8.35061e-07 -4.65456e-06 0 -1.67686e-06 -4.70943e-06 0 -2.53219e-06 -4.80124e-06 0 -3.408e-06 -4.93055e-06 0 -4.31141e-06 -5.09804e-06 0 -5.2499e-06 -5.30467e-06 0 -6.23124e-06 -5.55113e-06 0 -7.26378e-06 -5.83875e-06 0 -8.35651e-06 -6.16741e-06 0 -9.51882e-06 -6.53897e-06 0 -1.07625e-05 -6.95e-06 0 -1.2097e-05 -7.40454e-06 0 -1.3543e-05 -7.88837e-06 0 -1.51012e-05 -8.41476e-06 0 -1.68268e-05 -8.9365e-06 0 -1.86706e-05 -9.50188e-06 0 -2.08235e-05 -9.96518e-06 0 -2.30091e-05 -1.04935e-05 0 -2.59514e-05 -1.06583e-05 0 -2.84399e-05 -1.09856e-05 0 -3.32271e-05 -1.02951e-05 0 -3.55076e-05 -1.00335e-05 0 -4.54878e-05 -7.33363e-06 0 -4.52397e-05 -5.2515e-06 0 -7.13855e-05 1.20905e-06 0 -6.06135e-05 1.05279e-05 0 -0.000139971 2.00136e-05 0 -0.00010239 6.69603e-05 0 -0.000376713 4.30505e-05 0 -0.00070069 0.000513115 0 -0.00346352 -0.00283106 0 </DataArray> 
</PointData> 
<Points> 
<DataArray type="Float32" NumberOfComponents="3"> 