<?xml version="1.0"?> 
<VTKFile type="StructuredGrid" version="0.1"> 
<StructuredGrid WholeExtent="0 31 0 31 0 0"> 
<Piece Extent="0 31 0 31 0 0"> 
<PointData>
<DataArray type="Float32" Name="B" format="ascii" NumberOfComponents="3"> 
-2.07596e-05 -0 0 -1.95495e-05 -0 0 -1.83594e-05 -0 0 -1.71967e-05 -0 0 -1.60679e-05 -0 0 -1.49779e-05 -0 0 -1.39306e-05 -0 0 -1.29288e-05 -0 0 -1.19743e-05 -0 0 -1.10678e-05 -0 0 -1.02095e-05 -0 0 -9.39895e-06 -0 0 -8.63491e-06 -0 0 -7.91591e-06 -0 0 -7.24007e-06 -0 0 -6.60527e-06 -0 0 -6.00917e-06 -0 0 -5.44933e-06 -0 0 -4.92319e-06 -0 0 -4.42817e-06 -0 0 -3.96168e-06 -0 0 -3.52113e-06 -0 0 -3.10396e-06 -0 0 -2.70764e-06 -0 0 -2.32969e-06 -0 0 -1.96769e-06 -0 0 -1.61926e-06 -0 0 -1.28205e-06 -0 0 -9.5377e-07 -0 0 -6.32157e-07 -0 0 -3.14974e-07 -0 0 0 -0 0 -2.0754e-05 -1.21884e-06 0 -1.95394e-05 -1.20286e-06 0 -1.83455e-05 -1.1787e-06 0 -1.71797e-05 -1.14762e-06 0 -1.60483e-05 -1.11088e-06 0 -1.49564e-05 -1.06972e-06 0 -1.39078e-05 -1.02527e-06 0 -1.29051e-05 -9.78599e-07 0 -1.19501e-05 -9.30657e-07 0 -1.10436e-05 -8.82268e-07 0 -1.01857e-05 -8.34141e-07 0 -9.37563e-06 -7.86871e-07 0 -8.61236e-06 -7.40943e-07 0 -7.89431e-06 -6.96743e-07 0 -7.21954e-06 -6.5457e-07 0 -6.58591e-06 -6.14648e-07 0 -5.99104e-06 -5.77135e-07 0 -5.43247e-06 -5.42136e-07 0 -4.90763e-06 -5.09711e-07 0 -4.41391e-06 -4.79886e-07 0 -3.94872e-06 -4.52661e-07 0 -3.50945e-06 -4.28015e-07 0 -3.09353e-06 -4.05914e-07 0 -2.69845e-06 -3.86315e-07 0 -2.32172e-06 -3.6917e-07 0 -1.96091e-06 -3.5443e-07 0 -1.61365e-06 -3.42049e-07 0 -1.27759e-06 -3.31984e-07 0 -9.50439e-07 -3.24196e-07 0 -6.29944e-07 -3.18656e-07 0 -3.13869e-07 -3.15341e-07 0 -1.58146e-21 -3.14238e-07 0 -2.07363e-05 -2.4471e-06 0 -1.95086e-05 -2.41392e-06 0 -1.83033e-05 -2.36433e-06 0 -1.71281e-05 -2.3009e-06 0 -1.59892e-05 -2.22619e-06 0 -1.48915e-05 -2.14269e-06 0 -1.38388e-05 -2.05274e-06 0 -1.28336e-05 -1.95845e-06 0 -1.18774e-05 -1.86174e-06 0 -1.09709e-05 -1.76425e-06 0 -1.01138e-05 -1.66741e-06 0 -9.30546e-06 -1.57238e-06 0 -8.54456e-06 -1.48014e-06 0 -7.82937e-06 -1.39144e-06 0 -7.15786e-06 -1.30688e-06 0 -6.52775e-06 -1.22688e-06 0 -5.93661e-06 -1.15175e-06 0 -5.38188e-06 -1.08169e-06 0 -4.86093e-06 -1.01682e-06 0 -4.37113e-06 -9.57169e-07 0 -3.90983e-06 -9.0274e-07 0 -3.47441e-06 -8.53484e-07 0 -3.06229e-06 -8.09325e-07 0 -2.67092e-06 -7.70175e-07 0 -2.29784e-06 -7.35935e-07 0 -1.9406e-06 -7.06503e-07 0 -1.59684e-06 -6.81784e-07 0 -1.26422e-06 -6.61691e-07 0 -9.40459e-07 -6.46146e-07 0 -6.23314e-07 -6.35088e-07 0 -3.10561e-07 -6.28472e-07 0 -2.59617e-21 -6.2627e-07 0 -2.0705e-05 -3.69432e-06 0 -1.9455e-05 -3.64142e-06 0 -1.82308e-05 -3.5638e-06 0 -1.70399e-05 -3.46543e-06 0 -1.58885e-05 -3.35026e-06 0 -1.47815e-05 -3.2221e-06 0 -1.37222e-05 -3.0845e-06 0 -1.2713e-05 -2.9407e-06 0 -1.17549e-05 -2.79355e-06 0 -1.08485e-05 -2.64556e-06 0 -9.9931e-06 -2.49882e-06 0 -9.1878e-06 -2.35508e-06 0 -8.43098e-06 -2.21577e-06 0 -7.72071e-06 -2.08199e-06 0 -7.05473e-06 -1.9546e-06 0 -6.43061e-06 -1.83422e-06 0 -5.84576e-06 -1.72128e-06 0 -5.29749e-06 -1.61605e-06 0 -4.78309e-06 -1.51869e-06 0 -4.29986e-06 -1.42923e-06 0 -3.84507e-06 -1.34764e-06 0 -3.41609e-06 -1.27385e-06 0 -3.01029e-06 -1.20773e-06 0 -2.62513e-06 -1.14913e-06 0 -2.25811e-06 -1.09789e-06 0 -1.90682e-06 -1.05386e-06 0 -1.56889e-06 -1.0169e-06 0 -1.24199e-06 -9.86851e-07 0 -9.23872e-07 -9.63612e-07 0 -6.12294e-07 -9.47082e-07 0 -3.05063e-07 -9.37192e-07 0 0 -9.33901e-07 0 -2.06567e-05 -4.97021e-06 0 -1.93755e-05 -4.89369e-06 0 -1.81246e-05 -4.78403e-06 0 -1.69119e-05 -4.64673e-06 0 -1.57434e-05 -4.48727e-06 0 -1.46235e-05 -4.31088e-06 0 -1.35554e-05 -4.12241e-06 0 -1.25409e-05 -3.92622e-06 0 -1.15808e-05 -3.72616e-06 0 -1.06748e-05 -3.52555e-06 0 -9.82227e-06 -3.32716e-06 0 -9.02158e-06 -3.13331e-06 0 -8.27082e-06 -2.94581e-06 0 -7.56771e-06 -2.76611e-06 0 -6.90974e-06 -2.59528e-06 0 -6.2942e-06 -2.43409e-06 0 -5.71831e-06 -2.28307e-06 0 -5.17922e-06 -2.14254e-06 0 -4.6741e-06 -2.01264e-06 0 -4.20013e-06 -1.8934e-06 0 -3.75453e-06 -1.78475e-06 0 -3.33459e-06 -1.68655e-06 0 -2.93766e-06 -1.59861e-06 0 -2.56119e-06 -1.52071e-06 0 -2.20268e-06 -1.45264e-06 0 -1.8597e-06 -1.39417e-06 0 -1.52991e-06 -1.34509e-06 0 -1.211e-06 -1.30521e-06 0 -9.00744e-07 -1.27437e-06 0 -5.96932e-07 -1.25244e-06 0 -2.97399e-07 -1.23932e-06 0 -9.73971e-23 -1.23495e-06 0 -2.05872e-05 -6.28479e-06 0 -1.92652e-05 -6.17918e-06 0 -1.79801e-05 -6.03188e-06 0 -1.67396e-05 -5.85014e-06 0 -1.55494e-05 -5.64115e-06 0 -1.44136e-05 -5.41168e-06 0 -1.33348e-05 -5.16795e-06 0 -1.23143e-05 -4.91552e-06 0 -1.13522e-05 -4.65923e-06 0 -1.04478e-05 -4.40322e-06 0 -9.59949e-06 -4.15091e-06 0 -8.80536e-06 -3.90511e-06 0 -8.06295e-06 -3.66801e-06 0 -7.36956e-06 -3.44131e-06 0 -6.72229e-06 -3.22627e-06 0 -6.11813e-06 -3.02376e-06 0 -5.55405e-06 -2.83435e-06 0 -5.027e-06 -2.65836e-06 0 -4.53398e-06 -2.49591e-06 0 -4.07204e-06 -2.34697e-06 0 -3.63833e-06 -2.2114e-06 0 -3.23008e-06 -2.08898e-06 0 -2.8446e-06 -1.97943e-06 0 -2.47931e-06 -1.88247e-06 0 -2.13172e-06 -1.79779e-06 0 -1.79941e-06 -1.72509e-06 0 -1.48005e-06 -1.66408e-06 0 -1.17137e-06 -1.61454e-06 0 -8.71175e-07 -1.57623e-06 0 -5.77294e-07 -1.54899e-06 0 -2.87602e-07 -1.5327e-06 0 -9.19199e-21 -1.52728e-06 0 -2.049e-05 -7.64845e-06 0 -1.91178e-05 -7.50647e-06 0 -1.77908e-05 -7.31414e-06 0 -1.65166e-05 -7.08075e-06 0 -1.53006e-05 -6.81541e-06 0 -1.41464e-05 -6.52662e-06 0 -1.30558e-05 -6.22207e-06 0 -1.20292e-05 -5.90855e-06 0 -1.10659e-05 -5.59192e-06 0 -1.01645e-05 -5.27707e-06 0 -9.3225e-06 -4.96806e-06 0 -8.53738e-06 -4.66811e-06 0 -7.80605e-06 -4.37972e-06 0 -7.12527e-06 -4.10479e-06 0 -6.49171e-06 -3.84468e-06 0 -5.90199e-06 -3.60029e-06 0 -5.35277e-06 -3.37218e-06 0 -4.84076e-06 -3.16062e-06 0 -4.36278e-06 -2.96566e-06 0 -3.91574e-06 -2.78716e-06 0 -3.4967e-06 -2.62489e-06 0 -3.10281e-06 -2.47853e-06 0 -2.73136e-06 -2.34768e-06 0 -2.37975e-06 -2.23196e-06 0 -2.04548e-06 -2.13096e-06 0 -1.72617e-06 -2.04431e-06 0 -1.41951e-06 -1.97163e-06 0 -1.12327e-06 -1.91263e-06 0 -8.35297e-07 -1.86702e-06 0 -5.53469e-07 -1.83461e-06 0 -2.75718e-07 -1.81522e-06 0 -5.57235e-21 -1.80877e-06 0 -2.03571e-05 -9.07202e-06 0 -1.89247e-05 -8.88423e-06 0 -1.75482e-05 -8.63738e-06 0 -1.6235e-05 -8.3432e-06 0 -1.49898e-05 -8.013e-06 0 -1.38154e-05 -7.65718e-06 0 -1.27125e-05 -7.28501e-06 0 -1.16806e-05 -6.90456e-06 0 -1.07178e-05 -6.52266e-06 0 -9.82151e-06 -6.14496e-06 0 -8.98862e-06 -5.77603e-06 0 -8.21557e-06 -5.41944e-06 0 -7.49857e-06 -5.0779e-06 0 -6.83377e-06 -4.75339e-06 0 -6.2173e-06 -4.4473e-06 0 -5.64537e-06 -4.16049e-06 0 -5.11429e-06 -3.89342e-06 0 -4.62051e-06 -3.64626e-06 0 -4.16065e-06 -3.41891e-06 0 -3.73148e-06 -3.21111e-06 0 -3.32993e-06 -3.02248e-06 0 -2.95313e-06 -2.85255e-06 0 -2.5983e-06 -2.7008e-06 0 -2.26286e-06 -2.56672e-06 0 -1.94431e-06 -2.4498e-06 0 -1.6403e-06 -2.34955e-06 0 -1.34856e-06 -2.26552e-06 0 -1.06692e-06 -2.19733e-06 0 -7.93276e-07 -2.14464e-06 0 -5.25571e-07 -2.1072e-06 0 -2.61804e-07 -2.08481e-06 0 0 -2.07736e-06 0 -2.0178e-05 -1.05668e-05 0 -1.86753e-05 -1.03212e-05 0 -1.7242e-05 -1.00079e-05 0 -1.5885e-05 -9.64153e-06 0 -1.4608e-05 -9.23604e-06 0 -1.34126e-05 -8.80388e-06 0 -1.22982e-05 -8.35602e-06 0 -1.12627e-05 -7.90181e-06 0 -1.0303e-05 -7.44901e-06 0 -9.41512e-06 -7.00393e-06 0 -8.59488e-06 -6.57152e-06 0 -7.83768e-06 -6.15559e-06 0 -7.13889e-06 -5.75893e-06 0 -6.49394e-06 -5.38349e-06 0 -5.89837e-06 -5.03057e-06 0 -5.34792e-06 -4.70088e-06 0 -4.83853e-06 -4.39472e-06 0 -4.36637e-06 -4.11205e-06 0 -3.92786e-06 -3.8526e-06 0 -3.5196e-06 -3.61589e-06 0 -3.13846e-06 -3.40136e-06 0 -2.78148e-06 -3.20837e-06 0 -2.44589e-06 -3.03625e-06 0 -2.12908e-06 -2.88434e-06 0 -1.82862e-06 -2.75198e-06 0 -1.54217e-06 -2.63857e-06 0 -1.26753e-06 -2.54358e-06 0 -1.00259e-06 -2.46654e-06 0 -7.45318e-07 -2.40703e-06 0 -4.93739e-07 -2.36475e-06 0 -2.4593e-07 -2.33948e-06 0 0 -2.33107e-06 0 -1.9939e-05 -1.21446e-05 0 -1.83559e-05 -1.18258e-05 0 -1.6859e-05 -1.14312e-05 0 -1.54544e-05 -1.09788e-05 0 -1.41444e-05 -1.04855e-05 0 -1.29286e-05 -9.96601e-06 0 -1.18048e-05 -9.43312e-06 0 -1.07689e-05 -8.89739e-06 0 -9.81615e-06 -8.36743e-06 0 -8.94111e-06 -7.85003e-06 0 -8.1381e-06 -7.35038e-06 0 -7.40139e-06 -6.87233e-06 0 -6.72541e-06 -6.41861e-06 0 -6.10476e-06 -5.99099e-06 0 -5.53436e-06 -5.59053e-06 0 -5.00945e-06 -5.21769e-06 0 -4.52558e-06 -4.87249e-06 0 -4.07864e-06 -4.55461e-06 0 -3.66483e-06 -4.26351e-06 0 -3.28065e-06 -3.99847e-06 0 -2.92286e-06 -3.7587e-06 0 -2.58847e-06 -3.54333e-06 0 -2.27471e-06 -3.35151e-06 0 -1.979e-06 -3.1824e-06 0 -1.69893e-06 -3.03521e-06 0 -1.43225e-06 -2.9092e-06 0 -1.17682e-06 -2.80372e-06 0 -9.30606e-07 -2.71821e-06 0 -6.91673e-07 -2.6522e-06 0 -4.58141e-07 -2.60532e-06 0 -2.28181e-07 -2.5773e-06 0 0 -2.56798e-06 0 -1.9623e-05 -1.38176e-05 0 -1.79495e-05 -1.34063e-05 0 -1.63833e-05 -1.2912e-05 0 -1.49287e-05 -1.23567e-05 0 -1.3586e-05 -1.17607e-05 0 -1.23525e-05 -1.11412e-05 0 -1.12232e-05 -1.05127e-05 0 -1.01919e-05 -9.88691e-06 0 -9.2516e-06 -9.27303e-06 0 -8.39506e-06 -8.67814e-06 0 -7.61502e-06 -8.10743e-06 0 -6.90443e-06 -7.5646e-06 0 -6.25663e-06 -7.05206e-06 0 -5.66538e-06 -6.57124e-06 0 -5.12492e-06 -6.1228e-06 0 -4.62999e-06 -5.70681e-06 0 -4.17575e-06 -5.32289e-06 0 -3.75782e-06 -4.97037e-06 0 -3.37223e-06 -4.64834e-06 0 -3.01535e-06 -4.35579e-06 0 -2.6839e-06 -4.09162e-06 0 -2.37486e-06 -3.85475e-06 0 -2.0855e-06 -3.64407e-06 0 -1.81329e-06 -3.45856e-06 0 -1.55587e-06 -3.29726e-06 0 -1.31109e-06 -3.1593e-06 0 -1.07689e-06 -3.0439e-06 0 -8.51354e-07 -2.95041e-06 0 -6.32637e-07 -2.87826e-06 0 -4.18976e-07 -2.82704e-06 0 -2.08657e-07 -2.79643e-06 0 0 -2.78625e-06 0 -1.92081e-05 -1.5598e-05 0 -1.74348e-05 -1.50699e-05 0 -1.57952e-05 -1.44532e-05 0 -1.42906e-05 -1.3775e-05 0 -1.29183e-05 -1.30589e-05 0 -1.16719e-05 -1.2325e-05 0 -1.05435e-05 -1.15892e-05 0 -9.52379e-06 -1.08641e-05 0 -8.6033e-06 -1.01593e-05 0 -7.77257e-06 -9.4818e-06 0 -7.02255e-06 -8.83642e-06 0 -6.34475e-06 -8.22641e-06 0 -5.73137e-06 -7.65366e-06 0 -5.17528e-06 -7.11901e-06 0 -4.67005e-06 -6.62256e-06 0 -4.2099e-06 -6.1638e-06 0 -3.78967e-06 -5.74187e-06 0 -3.40473e-06 -5.3556e-06 0 -3.05097e-06 -5.00368e-06 0 -2.72468e-06 -4.68471e-06 0 -2.42256e-06 -4.39727e-06 0 -2.14162e-06 -4.13997e-06 0 -1.87919e-06 -3.91147e-06 0 -1.6328e-06 -3.71053e-06 0 -1.40022e-06 -3.536e-06 0 -1.17936e-06 -3.38686e-06 0 -9.68325e-07 -3.2622e-06 0 -7.65291e-07 -3.16127e-06 0 -5.68553e-07 -3.08342e-06 0 -3.76474e-07 -3.02817e-06 0 -1.87472e-07 -2.99516e-06 0 0 -2.98418e-06 0 -1.8666e-05 -1.74974e-05 0 -1.67856e-05 -1.6822e-05 0 -1.50711e-05 -1.60554e-05 0 -1.35199e-05 -1.52303e-05 0 -1.21241e-05 -1.43744e-05 0 -1.08733e-05 -1.35101e-05 0 -9.75499e-06 -1.26545e-05 0 -8.75652e-06 -1.18207e-05 0 -7.86531e-06 -1.1018e-05 0 -7.06947e-06 -1.0253e-05 0 -6.35796e-06 -9.5298e-06 0 -5.72078e-06 -8.85079e-06 0 -5.14894e-06 -8.21702e-06 0 -4.63443e-06 -7.6285e-06 0 -4.17019e-06 -7.08454e-06 0 -3.75e-06 -6.58394e-06 0 -3.36838e-06 -6.12516e-06 0 -3.02055e-06 -5.70647e-06 0 -2.70229e-06 -5.32607e-06 0 -2.40989e-06 -4.98211e-06 0 -2.14007e-06 -4.67279e-06 0 -1.88993e-06 -4.3964e-06 0 -1.65686e-06 -4.15133e-06 0 -1.43854e-06 -3.9361e-06 0 -1.23285e-06 -3.74937e-06 0 -1.03785e-06 -3.58995e-06 0 -8.51769e-07 -3.45681e-06 0 -6.72946e-07 -3.34907e-06 0 -4.99819e-07 -3.26601e-06 0 -3.30902e-07 -3.20708e-06 0 -1.64761e-07 -3.17189e-06 0 0 -3.16018e-06 0 -1.79611e-05 -1.95261e-05 0 -1.59693e-05 -1.8665e-05 0 -1.41831e-05 -1.77151e-05 0 -1.2593e-05 -1.67155e-05 0 -1.11849e-05 -1.56976e-05 0 -9.94197e-06 -1.46856e-05 0 -8.84671e-06 -1.36974e-05 0 -7.88209e-06 -1.27456e-05 0 -7.03212e-06 -1.18387e-05 0 -6.28219e-06 -1.09821e-05 0 -5.61923e-06 -1.01788e-05 0 -5.03165e-06 -9.42978e-06 0 -4.50933e-06 -8.735e-06 0 -4.04346e-06 -8.09335e-06 0 -3.62642e-06 -7.50311e-06 0 -3.25163e-06 -6.96221e-06 0 -2.91341e-06 -6.46833e-06 0 -2.60688e-06 -6.01906e-06 0 -2.32782e-06 -5.61202e-06 0 -2.07258e-06 -5.24487e-06 0 -1.83797e-06 -4.9154e-06 0 -1.6212e-06 -4.62154e-06 0 -1.41983e-06 -4.36138e-06 0 -1.23168e-06 -4.1332e-06 0 -1.05481e-06 -3.93546e-06 0 -8.87438e-07 -3.76679e-06 0 -7.27971e-07 -3.62604e-06 0 -5.74917e-07 -3.51221e-06 0 -4.26885e-07 -3.4245e-06 0 -2.82558e-07 -3.36229e-06 0 -1.40673e-07 -3.32514e-06 0 2.75966e-21 -3.31279e-06 0 -1.70475e-05 -2.16904e-05 0 -1.4946e-05 -2.0596e-05 0 -1.30979e-05 -1.94233e-05 0 -1.14839e-05 -1.82177e-05 0 -1.00804e-05 -1.70138e-05 0 -8.86306e-06 -1.58366e-05 0 -7.80798e-06 -1.47033e-05 0 -6.89325e-06 -1.36251e-05 0 -6.09913e-06 -1.26087e-05 0 -5.40821e-06 -1.16577e-05 0 -4.80534e-06 -1.07731e-05 0 -4.27748e-06 -9.9544e-06 0 -3.81348e-06 -9.19975e-06 0 -3.40385e-06 -8.5067e-06 0 -3.04056e-06 -7.87232e-06 0 -2.71681e-06 -7.29345e-06 0 -2.42686e-06 -6.76688e-06 0 -2.16584e-06 -6.28945e-06 0 -1.92963e-06 -5.8581e-06 0 -1.71471e-06 -5.46999e-06 0 -1.51807e-06 -5.12243e-06 0 -1.33712e-06 -4.813e-06 0 -1.16962e-06 -4.53948e-06 0 -1.01359e-06 -4.2999e-06 0 -8.6728e-07 -4.0925e-06 0 -7.29147e-07 -3.91576e-06 0 -5.97776e-07 -3.76837e-06 0 -4.71878e-07 -3.64925e-06 0 -3.50254e-07 -3.55751e-06 0 -2.31779e-07 -3.49247e-06 0 -1.15376e-07 -3.45363e-06 0 2.43715e-20 -3.44072e-06 0 -1.58677e-05 -2.39905e-05 0 -1.36678e-05 -2.26037e-05 0 -1.17781e-05 -2.11623e-05 0 -1.0164e-05 -1.97165e-05 0 -8.79009e-06 -1.83021e-05 0 -7.62214e-06 -1.69428e-05 0 -6.62928e-06 -1.56533e-05 0 -5.78421e-06 -1.44421e-05 0 -5.06334e-06 -1.33129e-05 0 -4.44654e-06 -1.22666e-05 0 -3.91677e-06 -1.13015e-05 0 -3.45974e-06 -1.04148e-05 0 -3.06349e-06 -9.60284e-06 0 -2.7181e-06 -8.86136e-06 0 -2.41532e-06 -8.186e-06 0 -2.14834e-06 -7.5724e-06 0 -1.9115e-06 -7.01632e-06 0 -1.70009e-06 -6.51377e-06 0 -1.51022e-06 -6.061e-06 0 -1.33862e-06 -5.65458e-06 0 -1.18254e-06 -5.29138e-06 0 -1.03965e-06 -4.96859e-06 0 -9.07973e-07 -4.68369e-06 0 -7.8579e-07 -4.43444e-06 0 -6.71609e-07 -4.21891e-06 0 -5.64113e-07 -4.0354e-06 0 -4.62124e-07 -3.88248e-06 0 -3.64575e-07 -3.75896e-06 0 -2.70485e-07 -3.66387e-06 0 -1.78935e-07 -3.59647e-06 0 -8.90536e-08 -3.55623e-06 0 4.47064e-21 -3.54286e-06 0 -1.43478e-05 -2.64122e-05 0 -1.20788e-05 -2.4664e-05 0 -1.01823e-05 -2.29032e-05 0 -8.60443e-06 -2.11821e-05 0 -7.29424e-06 -1.9534e-05 0 -6.20679e-06 -1.7978e-05 0 -5.3034e-06 -1.65243e-05 0 -4.55155e-06 -1.51765e-05 0 -3.92401e-06 -1.39341e-05 0 -3.3983e-06 -1.27939e-05 0 -2.95587e-06 -1.17513e-05 0 -2.58154e-06 -1.08005e-05 0 -2.26293e-06 -9.9354e-06 0 -1.98997e-06 -9.1499e-06 0 -1.7545e-06 -8.43795e-06 0 -1.5499e-06 -7.79386e-06 0 -1.37083e-06 -7.21229e-06 0 -1.21292e-06 -6.68835e-06 0 -1.07264e-06 -6.21759e-06 0 -9.47083e-07 -5.79599e-06 0 -8.33869e-07 -5.41997e-06 0 -7.31016e-07 -5.08634e-06 0 -6.36868e-07 -4.79228e-06 0 -5.50021e-07 -4.53533e-06 0 -4.69276e-07 -4.31335e-06 0 -3.9359e-07 -4.1245e-06 0 -3.22047e-07 -3.96723e-06 0 -2.53826e-07 -3.84026e-06 0 -1.88182e-07 -3.74256e-06 0 -1.24425e-07 -3.67333e-06 0 -6.19065e-08 -3.63201e-06 0 0 -3.61828e-06 0 -1.24022e-05 -2.89225e-05 0 -1.01163e-05 -2.67329e-05 0 -8.26867e-06 -2.46011e-05 0 -6.77812e-06 -2.25726e-05 0 -5.57683e-06 -2.0672e-05 0 -4.60835e-06 -1.89101e-05 0 -3.82694e-06 -1.72888e-05 0 -3.19533e-06 -1.58051e-05 0 -2.68354e-06 -1.44527e-05 0 -2.26734e-06 -1.32236e-05 0 -1.92734e-06 -1.21092e-05 0 -1.64802e-06 -1.11004e-05 0 -1.41704e-06 -1.01884e-05 0 -1.22461e-06 -9.36493e-06 0 -1.06301e-06 -8.62212e-06 0 -9.26118e-07 -7.95287e-06 0 -8.09128e-07 -7.3507e-06 0 -7.0823e-07 -6.80983e-06 0 -6.20412e-07 -6.32509e-06 0 -5.43272e-07 -5.8919e-06 0 -4.74892e-07 -5.50624e-06 0 -4.1372e-07 -5.16458e-06 0 -3.58495e-07 -4.86382e-06 0 -3.08179e-07 -4.60129e-06 0 -2.61905e-07 -4.37469e-06 0 -2.18942e-07 -4.18205e-06 0 -1.78659e-07 -4.02173e-06 0 -1.40508e-07 -3.89235e-06 0 -1.03998e-07 -3.79282e-06 0 -6.86833e-08 -3.72232e-06 0 -3.4149e-08 -3.68025e-06 0 0 -3.66627e-06 0 -9.92766e-06 -3.14474e-05 0 -7.71841e-06 -2.87398e-05 0 -5.99974e-06 -2.61921e-05 0 -4.6648e-06 -2.38328e-05 0 -3.62821e-06 -2.16701e-05 0 -2.8244e-06 -1.97006e-05 0 -2.20181e-06 -1.79153e-05 0 -1.72032e-06 -1.63021e-05 0 -1.34826e-06 -1.48478e-05 0 -1.06084e-06 -1.35387e-05 0 -8.38651e-07 -1.23615e-05 0 -6.6658e-07 -1.13035e-05 0 -5.3293e-07 -1.03531e-05 0 -4.28705e-07 -9.49938e-06 0 -3.47014e-07 -8.73286e-06 0 -2.82601e-07 -8.0449e-06 0 -2.31465e-07 -7.42793e-06 0 -1.90565e-07 -6.87528e-06 0 -1.57586e-07 -6.38112e-06 0 -1.30765e-07 -5.94037e-06 0 -1.08753e-07 -5.5486e-06 0 -9.05132e-08 -5.20198e-06 0 -7.52426e-08 -4.89719e-06 0 -6.2316e-08 -4.63139e-06 0 -5.12409e-08 -4.40213e-06 0 -4.16248e-08 -4.20735e-06 0 -3.31504e-08 -4.04532e-06 0 -2.55567e-08 -3.91461e-06 0 -1.86243e-08 -3.8141e-06 0 -1.2164e-08 -3.74291e-06 0 -6.00765e-09 -3.70044e-06 0 5.88727e-21 -3.68632e-06 0 -6.83375e-06 -3.38729e-05 0 -4.83247e-06 -3.05809e-05 0 -3.35187e-06 -2.7591e-05 0 -2.2559e-06 -2.48949e-05 0 -1.44948e-06 -2.24741e-05 0 -8.60934e-07 -2.03066e-05 0 -4.37118e-07 -1.83694e-05 0 -1.36968e-07 -1.66402e-05 0 7.07495e-08 -1.50977e-05 0 2.10168e-07 -1.37219e-05 0 2.99575e-07 -1.24947e-05 0 3.52829e-07 -1.13993e-05 0 3.80247e-07 -1.04211e-05 0 3.89462e-07 -9.54687e-06 0 3.86046e-07 -8.7652e-06 0 3.74033e-07 -8.06611e-06 0 3.56312e-07 -7.44098e-06 0 3.34931e-07 -6.88237e-06 0 3.11329e-07 -6.38386e-06 0 2.86499e-07 -5.93995e-06 0 2.61118e-07 -5.54589e-06 0 2.35634e-07 -5.19762e-06 0 2.10332e-07 -4.89165e-06 0 1.85382e-07 -4.625e-06 0 1.6087e-07 -4.39515e-06 0 1.36824e-07 -4.19995e-06 0 1.13232e-07 -4.03763e-06 0 9.00511e-08 -3.90673e-06 0 6.72182e-08 -3.80609e-06 0 4.46569e-08 -3.73483e-06 0 2.22814e-08 -3.69231e-06 0 2.56909e-20 -3.67818e-06 0 -3.04084e-06 -3.60014e-05 0 -1.43851e-06 -3.21172e-05 0 -3.23978e-07 -2.86951e-05 0 4.37658e-07 -2.5681e-05 0 9.44689e-07 -2.30248e-05 0 1.2649e-06 -2.06823e-05 0 1.44984e-06 -1.86157e-05 0 1.53751e-06 -1.67919e-05 0 1.55715e-06 -1.51811e-05 0 1.53041e-06 -1.3757e-05 0 1.47339e-06 -1.24962e-05 0 1.39762e-06 -1.13783e-05 0 1.31129e-06 -1.03854e-05 0 1.22e-06 -9.50205e-06 0 1.12751e-06 -8.71517e-06 0 1.03624e-06 -8.01356e-06 0 9.47648e-07 -7.38769e-06 0 8.62577e-07 -6.8295e-06 0 7.81419e-07 -6.33214e-06 0 7.04276e-07 -5.88979e-06 0 6.31065e-07 -5.49749e-06 0 5.61579e-07 -5.15104e-06 0 4.95542e-07 -4.84685e-06 0 4.32632e-07 -4.58189e-06 0 3.72508e-07 -4.35357e-06 0 3.14816e-07 -4.15973e-06 0 2.59201e-07 -3.99858e-06 0 2.05308e-07 -3.86864e-06 0 1.52788e-07 -3.76876e-06 0 1.01291e-07 -3.69803e-06 0 5.04758e-08 -3.65584e-06 0 2.1721e-21 -3.64182e-06 0 1.42576e-06 -3.76217e-05 0 2.43851e-06 -3.31892e-05 0 3.04727e-06 -2.93908e-05 0 3.3827e-06 -2.61109e-05 0 3.52197e-06 -2.32625e-05 0 3.52444e-06 -2.07827e-05 0 3.43225e-06 -1.862e-05 0 3.27896e-06 -1.67309e-05 0 3.0889e-06 -1.50782e-05 0 2.88024e-06 -1.36292e-05 0 2.66535e-06 -1.23555e-05 0 2.45256e-06 -1.12328e-05 0 2.24697e-06 -1.02404e-05 0 2.05153e-06 -9.3611e-06 0 1.86762e-06 -8.58018e-06 0 1.69565e-06 -7.8855e-06 0 1.53539e-06 -7.26693e-06 0 1.38626e-06 -6.71599e-06 0 1.24746e-06 -6.22556e-06 0 1.1181e-06 -5.78969e-06 0 9.97275e-07 -5.40335e-06 0 8.8407e-07 -5.06229e-06 0 7.7762e-07 -4.76292e-06 0 6.77095e-07 -4.5022e-06 0 5.81713e-07 -4.27757e-06 0 4.90731e-07 -4.08688e-06 0 4.03447e-07 -3.92836e-06 0 3.19195e-07 -3.80055e-06 0 2.37333e-07 -3.7023e-06 0 1.57245e-07 -3.63274e-06 0 7.83307e-08 -3.59124e-06 0 0 -3.57745e-06 0 6.48438e-06 -3.84322e-05 0 6.6964e-06 -3.36337e-05 0 6.6895e-06 -2.95772e-05 0 6.51806e-06 -2.61109e-05 0 6.23512e-06 -2.3134e-05 0 5.87617e-06 -2.05675e-05 0 5.47485e-06 -1.83514e-05 0 5.05577e-06 -1.64346e-05 0 4.6385e-06 -1.47724e-05 0 4.23552e-06 -1.33267e-05 0 3.85474e-06 -1.20642e-05 0 3.4999e-06 -1.09574e-05 0 3.17228e-06 -9.983e-06 0 2.87135e-06 -9.12215e-06 0 2.59569e-06 -8.35926e-06 0 2.34328e-06 -7.68162e-06 0 2.11198e-06 -7.07878e-06 0 1.8996e-06 -6.54214e-06 0 1.70406e-06 -6.06458e-06 0 1.52341e-06 -5.6402e-06 0 1.35587e-06 -5.26404e-06 0 1.19981e-06 -4.93195e-06 0 1.05378e-06 -4.64041e-06 0 9.16425e-07 -4.38648e-06 0 7.86524e-07 -4.16768e-06 0 6.62953e-07 -3.98192e-06 0 5.44668e-07 -3.82748e-06 0 4.30694e-07 -3.70295e-06 0 3.20108e-07 -3.60721e-06 0 2.12028e-07 -3.53942e-06 0 1.05603e-07 -3.49898e-06 0 0 -3.48554e-06 0 1.18441e-05 -3.83251e-05 0 1.11834e-05 -3.33477e-05 0 1.04869e-05 -2.91726e-05 0 9.76696e-06 -2.56295e-05 0 9.02125e-06 -2.25968e-05 0 8.27043e-06 -2.00033e-05 0 7.53337e-06 -1.77847e-05 0 6.83014e-06 -1.58841e-05 0 6.1727e-06 -1.42514e-05 0 5.56811e-06 -1.28417e-05 0 5.01767e-06 -1.16183e-05 0 4.51979e-06 -1.05502e-05 0 4.0707e-06 -9.61262e-06 0 3.66586e-06 -8.78569e-06 0 3.30045e-06 -8.0535e-06 0 2.96982e-06 -7.40325e-06 0 2.66967e-06 -6.82467e-06 0 2.39614e-06 -6.3094e-06 0 2.14579e-06 -5.8506e-06 0 1.91563e-06 -5.44262e-06 0 1.70299e-06 -5.08078e-06 0 1.50556e-06 -4.76113e-06 0 1.32128e-06 -4.48037e-06 0 1.14832e-06 -4.23571e-06 0 9.85019e-07 -4.02481e-06 0 8.29899e-07 -3.84569e-06 0 6.81588e-07 -3.69673e-06 0 5.38813e-07 -3.57659e-06 0 4.00382e-07 -3.48421e-06 0 2.6516e-07 -3.41879e-06 0 1.32054e-07 -3.37976e-06 0 0 -3.36679e-06 0 1.72533e-05 -3.70686e-05 0 1.56828e-05 -3.22654e-05 0 1.43186e-05 -2.81672e-05 0 1.30393e-05 -2.46347e-05 0 1.18159e-05 -2.16239e-05 0 1.06488e-05 -1.90653e-05 0 9.55797e-06 -1.69004e-05 0 8.55708e-06 -1.50676e-05 0 7.65356e-06 -1.35079e-05 0 6.8458e-06 -1.2172e-05 0 6.12784e-06 -1.10179e-05 0 5.4907e-06 -1.00133e-05 0 4.92487e-06 -9.13222e-06 0 4.42097e-06 -8.35507e-06 0 3.9705e-06 -7.66618e-06 0 3.56595e-06 -7.05355e-06 0 3.20082e-06 -6.5075e-06 0 2.86955e-06 -6.02039e-06 0 2.56741e-06 -5.58594e-06 0 2.29037e-06 -5.19904e-06 0 2.03496e-06 -4.85543e-06 0 1.79821e-06 -4.55152e-06 0 1.5775e-06 -4.28431e-06 0 1.37056e-06 -4.05126e-06 0 1.17536e-06 -3.85021e-06 0 9.90055e-07 -3.67936e-06 0 8.12983e-07 -3.5372e-06 0 6.42598e-07 -3.42251e-06 0 4.77454e-07 -3.33429e-06 0 3.16179e-07 -3.27181e-06 0 1.57456e-07 -3.23452e-06 0 0 -3.22213e-06 0 2.22747e-05 -3.50272e-05 0 2.00103e-05 -3.05305e-05 0 1.80694e-05 -2.65606e-05 0 1.62664e-05 -2.31354e-05 0 1.45539e-05 -2.01944e-05 0 1.29515e-05 -1.77331e-05 0 1.14902e-05 -1.56858e-05 0 1.01859e-05 -1.39781e-05 0 9.03753e-06 -1.25431e-05 0 8.03347e-06 -1.13212e-05 0 7.15698e-06 -1.02696e-05 0 6.39042e-06 -9.35349e-06 0 5.71723e-06 -8.54886e-06 0 5.12283e-06 -7.83661e-06 0 4.59482e-06 -7.20311e-06 0 4.12282e-06 -6.63752e-06 0 3.69824e-06 -6.13166e-06 0 3.31395e-06 -5.67888e-06 0 2.96404e-06 -5.27389e-06 0 2.64356e-06 -4.9123e-06 0 2.34835e-06 -4.59046e-06 0 2.07485e-06 -4.30528e-06 0 1.81999e-06 -4.05416e-06 0 1.58111e-06 -3.83485e-06 0 1.35582e-06 -3.64546e-06 0 1.142e-06 -3.48438e-06 0 9.37708e-07 -3.35026e-06 0 7.41154e-07 -3.24199e-06 0 5.50665e-07 -3.15868e-06 0 3.64653e-07 -3.09966e-06 0 1.81593e-07 -3.06443e-06 0 0 -3.05272e-06 0 2.66402e-05 -3.20756e-05 0 2.40491e-05 -2.81922e-05 0 2.17007e-05 -2.45086e-05 0 1.94171e-05 -2.11113e-05 0 1.71805e-05 -1.82867e-05 0 1.51109e-05 -1.59854e-05 0 1.32622e-05 -1.41303e-05 0 1.16571e-05 -1.26207e-05 0 1.02764e-05 -1.13653e-05 0 9.09352e-06 -1.03035e-05 0 8.0764e-06 -9.38613e-06 0 7.19714e-06 -8.58396e-06 0 6.43116e-06 -7.87346e-06 0 5.75865e-06 -7.24019e-06 0 5.16341e-06 -6.67238e-06 0 4.63252e-06 -6.16215e-06 0 4.15556e-06 -5.7029e-06 0 3.72413e-06 -5.28976e-06 0 3.33135e-06 -4.91855e-06 0 2.97158e-06 -4.5859e-06 0 2.6401e-06 -4.2889e-06 0 2.33291e-06 -4.02507e-06 0 2.04657e-06 -3.79224e-06 0 1.7781e-06 -3.58858e-06 0 1.52485e-06 -3.41245e-06 0 1.28444e-06 -3.26248e-06 0 1.05471e-06 -3.1375e-06 0 8.3366e-07 -3.03655e-06 0 6.19408e-07 -2.95882e-06 0 4.10181e-07 -2.90373e-06 0 2.04268e-07 -2.87085e-06 0 0 -2.85992e-06 0 3.03112e-05 -2.9423e-05 0 2.77879e-05 -2.59473e-05 0 2.53744e-05 -2.19477e-05 0 2.24992e-05 -1.85551e-05 0 1.96503e-05 -1.58272e-05 0 1.70302e-05 -1.37892e-05 0 1.47913e-05 -1.22372e-05 0 1.28987e-05 -1.1008e-05 0 1.13189e-05 -1.00013e-05 0 9.98742e-06 -9.14069e-06 0 8.85919e-06 -8.39107e-06 0 7.89106e-06 -7.72255e-06 0 7.05237e-06 -7.12233e-06 0 6.31766e-06 -6.57829e-06 0 5.66809e-06 -6.08469e-06 0 5.08861e-06 -5.63582e-06 0 4.56763e-06 -5.22829e-06 0 4.09585e-06 -4.85877e-06 0 3.66582e-06 -4.52476e-06 0 3.27144e-06 -4.22391e-06 0 2.90765e-06 -3.95424e-06 0 2.57018e-06 -3.71388e-06 0 2.25534e-06 -3.50122e-06 0 1.95992e-06 -3.3148e-06 0 1.68108e-06 -3.15331e-06 0 1.41624e-06 -3.01562e-06 0 1.16306e-06 -2.90076e-06 0 9.19379e-07 -2.8079e-06 0 6.83139e-07 -2.73636e-06 0 4.52404e-07 -2.68564e-06 0 2.25299e-07 -2.65535e-06 0 0 -2.64528e-06 0 3.21987e-05 -2.7384e-05 0 3.21217e-05 -2.36729e-05 0 2.93829e-05 -1.90901e-05 0 2.56448e-05 -1.51251e-05 0 2.17885e-05 -1.26961e-05 0 1.85903e-05 -1.1115e-05 0 1.59463e-05 -1.00213e-05 0 1.38394e-05 -9.18924e-06 0 1.21075e-05 -8.48764e-06 0 1.06833e-05 -7.8751e-06 0 9.48142e-06 -7.31268e-06 0 8.45775e-06 -6.79615e-06 0 7.57003e-06 -6.31405e-06 0 6.79248e-06 -5.86718e-06 0 6.10309e-06 -5.4519e-06 0 5.48666e-06 -5.06859e-06 0 4.93078e-06 -4.71558e-06 0 4.42605e-06 -4.39241e-06 0 3.96479e-06 -4.0978e-06 0 3.54084e-06 -3.83082e-06 0 3.149e-06 -3.59026e-06 0 2.78489e-06 -3.37503e-06 0 2.44474e-06 -3.18399e-06 0 2.12521e-06 -3.01611e-06 0 1.82333e-06 -2.8704e-06 0 1.5364e-06 -2.74597e-06 0 1.26195e-06 -2.64204e-06 0 9.97667e-07 -2.55794e-06 0 7.41378e-07 -2.49312e-06 0 4.91002e-07 -2.44712e-06 0 2.4453e-07 -2.41965e-06 0 0 -2.41052e-06 0 3.53731e-05 -3.03443e-05 0 3.84614e-05 -2.36679e-05 0 3.50355e-05 -1.42779e-05 0 2.83816e-05 -1.0364e-05 0 2.3414e-05 -8.68164e-06 0 1.9452e-05 -7.98594e-06 0 1.66365e-05 -7.57752e-06 0 1.43686e-05 -7.23183e-06 0 1.26145e-05 -6.90361e-06 0 1.11479e-05 -6.55137e-06 0 9.93415e-06 -6.19627e-06 0 8.88668e-06 -5.83141e-06 0 7.98042e-06 -5.47345e-06 0 7.17905e-06 -5.12288e-06 0 6.46615e-06 -4.78815e-06 0 5.82438e-06 -4.47047e-06 0 5.24318e-06 -4.17334e-06 0 4.71294e-06 -3.89729e-06 0 4.22666e-06 -3.64331e-06 0 3.77823e-06 -3.41126e-06 0 3.3627e-06 -3.201e-06 0 2.97573e-06 -3.01198e-06 0 2.61358e-06 -2.84363e-06 0 2.2729e-06 -2.69526e-06 0 1.95066e-06 -2.56622e-06 0 1.64411e-06 -2.45583e-06 0 1.35068e-06 -2.36352e-06 0 1.06798e-06 -2.28874e-06 0 7.93715e-07 -2.23105e-06 0 5.25703e-07 -2.19011e-06 0 2.61824e-07 -2.16564e-06 0 0 -2.1575e-06 0 2.48177e-05 -6.63732e-05 0 6.07782e-05 -1.98195e-05 0 3.9575e-05 -4.24983e-06 0 3.06443e-05 -3.2909e-06 0 2.30255e-05 -3.90661e-06 0 1.97489e-05 -4.63063e-06 0 1.64783e-05 -5.06882e-06 0 1.45719e-05 -5.28836e-06 0 1.27447e-05 -5.32676e-06 0 1.14162e-05 -5.24518e-06 0 1.01958e-05 -5.0802e-06 0 9.19085e-06 -4.86564e-06 0 8.27968e-06 -4.6214e-06 0 7.48184e-06 -4.36482e-06 0 6.75676e-06 -4.10575e-06 0 6.10289e-06 -3.85245e-06 0 5.50444e-06 -3.60944e-06 0 4.95632e-06 -3.38027e-06 0 4.45073e-06 -3.1667e-06 0 3.9829e-06 -2.96995e-06 0 3.54791e-06 -2.79043e-06 0 3.14183e-06 -2.62826e-06 0 2.761e-06 -2.48326e-06 0 2.40217e-06 -2.35511e-06 0 2.06234e-06 -2.24338e-06 0 1.73872e-06 -2.14765e-06 0 1.42872e-06 -2.06747e-06 0 1.12987e-06 -2.00246e-06 0 8.3981e-07 -1.95227e-06 0 5.56279e-07 -1.91663e-06 0 2.77065e-07 -1.89532e-06 0 0 -1.88823e-06 0 0.000149745 -0.000555106 0 6.51044e-05 0.000100358 0 6.04984e-05 5.51412e-07 0 1.27737e-05 8.30436e-06 0 2.95387e-05 -3.08806e-07 0 1.39983e-05 -1.38394e-06 0 1.83248e-05 -2.70644e-06 0 1.29144e-05 -3.65498e-06 0 1.33407e-05 -3.75526e-06 0 1.1077e-05 -4.10136e-06 0 1.05069e-05 -3.95944e-06 0 9.2676e-06 -3.9613e-06 0 8.53533e-06 -3.76129e-06 0 7.6779e-06 -3.62012e-06 0 6.99369e-06 -3.41064e-06 0 6.31789e-06 -3.22751e-06 0 5.71957e-06 -3.02948e-06 0 5.15544e-06 -2.84861e-06 0 4.638e-06 -2.67257e-06 0 4.15443e-06 -2.51166e-06 0 3.70443e-06 -2.36229e-06 0 3.28268e-06 -2.22746e-06 0 2.88649e-06 -2.106e-06 0 2.51249e-06 -1.99855e-06 0 2.15783e-06 -1.90454e-06 0 1.81975e-06 -1.82391e-06 0 1.49563e-06 -1.75626e-06 0 1.18298e-06 -1.70137e-06 0 8.79391e-07 -1.65895e-06 0 5.82546e-07 -1.62882e-06 0 2.90161e-07 -1.6108e-06 0 0 -1.6048e-06 0 </DataArray> 
</PointData> 
<Points> 
<DataArray type="Float32" NumberOfComponents="3"> 