<?xml version="1.0"?> 
<VTKFile type="StructuredGrid" version="0.1"> 
<StructuredGrid WholeExtent="0 31 0 31 0 0"> 
<Piece Extent="0 31 0 31 0 0"> 
<PointData>
<DataArray type="Float32" Name="B" format="ascii" NumberOfComponents="3"> 
-0.00346352 0.013918 0 -3.98922e-05 -0.00195522 0 0.000831739 0.000265543 0 -0.000336624 -9.38661e-05 0 0.000289893 6.37199e-05 0 -8.27643e-05 3.27711e-05 0 9.94059e-05 3.4648e-05 0 -1.51332e-05 3.36173e-05 0 2.66911e-05 2.10094e-05 0 -1.26651e-05 1.97087e-05 0 -9.27641e-06 1.12547e-05 0 -2.59213e-05 9.33635e-06 0 -3.03253e-05 5.0663e-06 0 -3.83803e-05 3.66578e-06 0 -4.20967e-05 1.75469e-06 0 -4.53445e-05 9.85513e-07 0 -4.6289e-05 1.7036e-07 0 -4.5746e-05 -2.12918e-07 0 -4.34416e-05 -6.10879e-07 0 -3.91242e-05 -8.11094e-07 0 -3.33846e-05 -1.13638e-06 0 -2.44196e-05 -1.20659e-06 0 -1.54309e-05 -1.65689e-06 0 9.59108e-07 -1.51908e-06 0 1.0892e-05 -2.08088e-06 0 4.36711e-05 -2.12016e-06 0 4.42939e-05 -9.69344e-07 0 0.000125603 -6.83286e-06 0 8.59401e-05 1.19853e-05 0 0.000334959 -5.32405e-05 0 0.000473295 0.000221838 0 -0.000642377 -0.00382219 0 0.000210047 0.000945929 0 0.000391214 0.00023533 0 0.000148155 7.53586e-05 0 0.000124616 5.54027e-05 0 4.99602e-05 5.64515e-05 0 5.03829e-05 5.3919e-05 0 2.24125e-05 4.92709e-05 0 1.61082e-05 4.26635e-05 0 2.40271e-07 3.54915e-05 0 -8.69008e-06 2.85343e-05 0 -1.96238e-05 2.22309e-05 0 -2.75694e-05 1.68204e-05 0 -3.49452e-05 1.2268e-05 0 -4.03603e-05 8.50941e-06 0 -4.44463e-05 5.37293e-06 0 -4.68535e-05 2.71816e-06 0 -4.77303e-05 3.81715e-07 0 -4.69818e-05 -1.76258e-06 0 -4.45719e-05 -3.83944e-06 0 -4.04427e-05 -5.9438e-06 0 -3.43694e-05 -8.17129e-06 0 -2.63638e-05 -1.05896e-05 0 -1.57826e-05 -1.32827e-05 0 -3.11598e-06 -1.63136e-05 0 1.35742e-05 -1.98438e-05 0 3.18409e-05 -2.41665e-05 0 5.82836e-05 -3.02158e-05 0 8.41251e-05 -4.00965e-05 0 0.000132427 -6.02026e-05 0 0.000175069 -0.000108786 0 0.00023951 -0.00025385 0 4.04324e-05 -0.00050575 0 -5.37249e-05 0.000159139 0 0.000104265 0.000264524 0 0.000123974 0.000137763 0 8.0104e-05 0.000101546 0 5.93598e-05 8.16999e-05 0 3.48702e-05 7.22822e-05 0 2.07078e-05 6.40308e-05 0 5.55082e-06 5.53633e-05 0 -5.86594e-06 4.69919e-05 0 -1.67454e-05 3.85745e-05 0 -2.56206e-05 3.10536e-05 0 -3.33828e-05 2.41751e-05 0 -3.95954e-05 1.82337e-05 0 -4.44897e-05 1.29757e-05 0 -4.79412e-05 8.37425e-06 0 -5.0001e-05 4.21041e-06 0 -5.06212e-05 3.61912e-07 0 -4.97777e-05 -3.35075e-06 0 -4.74044e-05 -7.06032e-06 0 -4.33966e-05 -1.09236e-05 0 -3.76287e-05 -1.50592e-05 0 -2.98705e-05 -1.96225e-05 0 -1.99521e-05 -2.46993e-05 0 -7.44507e-06 -3.04725e-05 0 7.645e-06 -3.70275e-05 0 2.60238e-05 -4.48416e-05 0 4.65683e-05 -5.48664e-05 0 7.07797e-05 -6.95519e-05 0 9.37657e-05 -9.49831e-05 0 0.000113232 -0.000137948 0 9.30267e-05 -0.000212347 0 4.95051e-06 -0.000218981 0 6.15613e-07 0.000309888 0 4.74091e-05 0.000179094 0 6.20375e-05 0.000155562 0 5.91963e-05 0.000119845 0 4.212e-05 0.000102283 0 2.66365e-05 8.95799e-05 0 9.92679e-06 7.89233e-05 0 -3.71003e-06 6.85035e-05 0 -1.57995e-05 5.79381e-05 0 -2.56237e-05 4.81057e-05 0 -3.39438e-05 3.89272e-05 0 -4.07091e-05 3.0756e-05 0 -4.61772e-05 2.3397e-05 0 -5.03444e-05 1.68487e-05 0 -5.32745e-05 1.08976e-05 0 -5.4954e-05 5.41222e-06 0 -5.53745e-05 1.91902e-07 0 -5.44932e-05 -4.92858e-06 0 -5.22443e-05 -1.01393e-05 0 -4.85287e-05 -1.56129e-05 0 -4.31955e-05 -2.1544e-05 0 -3.60595e-05 -2.81014e-05 0 -2.68379e-05 -3.5483e-05 0 -1.52811e-05 -4.37932e-05 0 -1.02767e-06 -5.31494e-05 0 1.56699e-05 -6.34814e-05 0 3.43882e-05 -7.51307e-05 0 5.19932e-05 -8.97375e-05 0 6.58596e-05 -0.000109733 0 6.80854e-05 -0.000138696 0 5.15702e-05 -0.000165122 0 1.36819e-05 -0.000201088 0 -1.20994e-05 0.00011555 0 2.01865e-05 0.000168746 0 3.77068e-05 0.000143599 0 3.78877e-05 0.000129181 0 2.99404e-05 0.00011582 0 1.52843e-05 0.000105695 0 -3.56345e-07 9.42981e-05 0 -1.49037e-05 8.12904e-05 0 -2.62242e-05 6.85479e-05 0 -3.53302e-05 5.66433e-05 0 -4.25542e-05 4.59775e-05 0 -4.83789e-05 3.63818e-05 0 -5.29504e-05 2.78224e-05 0 -5.64096e-05 2.00736e-05 0 -5.87921e-05 1.29825e-05 0 -6.01188e-05 6.33167e-06 0 -6.03733e-05 -6.69287e-08 0 -5.95202e-05 -6.42501e-06 0 -5.74982e-05 -1.29469e-05 0 -5.42101e-05 -1.98571e-05 0 -4.95255e-05 -2.73829e-05 0 -4.3235e-05 -3.57799e-05 0 -3.50911e-05 -4.52817e-05 0 -2.4651e-05 -5.61114e-05 0 -1.15338e-05 -6.82387e-05 0 4.84451e-06 -8.10637e-05 0 2.23644e-05 -9.29433e-05 0 3.77786e-05 -0.000103842 0 4.65376e-05 -0.000116677 0 4.6196e-05 -0.000131111 0 3.37523e-05 -0.000146309 0 1.1716e-05 -0.000139841 0 -2.76704e-06 0.000168198 0 1.4366e-05 0.00013901 0 2.52321e-05 0.000138723 0 2.81715e-05 0.000131204 0 2.22558e-05 0.000126848 0 6.75638e-06 0.000124184 0 -1.72231e-05 0.00011136 0 -3.17393e-05 9.3865e-05 0 -4.20991e-05 7.79945e-05 0 -4.96194e-05 6.40798e-05 0 -5.55461e-05 5.18298e-05 0 -6.01582e-05 4.10368e-05 0 -6.37658e-05 3.13899e-05 0 -6.6452e-05 2.26659e-05 0 -6.82835e-05 1.4611e-05 0 -6.92668e-05 7.00779e-06 0 -6.93926e-05 -3.73312e-07 0 -6.86295e-05 -7.75455e-06 0 -6.69239e-05 -1.53734e-05 0 -6.42049e-05 -2.34816e-05 0 -6.03452e-05 -3.23621e-05 0 -5.52049e-05 -4.23312e-05 0 -4.84475e-05 -5.3752e-05 0 -3.97863e-05 -6.70071e-05 0 -2.80648e-05 -8.24139e-05 0 -1.20538e-05 -9.98222e-05 0 1.32859e-05 -0.000112789 0 3.00459e-05 -0.000115624 0 3.69919e-05 -0.000120179 0 3.59445e-05 -0.000126248 0 2.78216e-05 -0.000129876 0 1.4521e-05 -0.000135969 0 2.49168e-06 0.000112288 0 1.42483e-05 0.000131991 0 2.27424e-05 0.00013071 0 2.61235e-05 0.000132414 0 2.33929e-05 0.000134499 0 1.33767e-05 0.000145711 0 -1.8267e-06 0.000128893 0 -1.24072e-05 0.000104396 0 -1.97384e-05 8.55329e-05 0 -2.50744e-05 6.97763e-05 0 -2.91919e-05 5.62749e-05 0 -3.24167e-05 4.45177e-05 0 -3.49304e-05 3.40562e-05 0 -3.68058e-05 2.4579e-05 0 -3.80711e-05 1.57956e-05 0 -3.87254e-05 7.45735e-06 0 -3.87535e-05 -6.78837e-07 0 -3.81298e-05 -8.85069e-06 0 -3.68188e-05 -1.73148e-05 0 -3.4772e-05 -2.63395e-05 0 -3.19178e-05 -3.62617e-05 0 -2.81486e-05 -4.7433e-05 0 -2.32681e-05 -6.03902e-05 0 -1.69598e-05 -7.56858e-05 0 -8.495e-06 -9.4281e-05 0 3.31249e-06 -0.000118676 0 1.97507e-05 -0.000135586 0 3.10088e-05 -0.000124561 0 3.50729e-05 -0.000122494 0 3.34078e-05 -0.000121484 0 2.71279e-05 -0.000121552 0 1.77744e-05 -0.000116099 0 8.37596e-06 0.000122075 0 1.7889e-05 0.000119725 0 2.551e-05 0.000125344 0 3.01408e-05 0.000130461 0 3.15333e-05 0.000137905 0 2.94798e-05 0.000153666 0 2.53658e-05 0.000137234 0 2.14653e-05 0.000110573 0 1.83828e-05 9.00303e-05 0 1.59352e-05 7.32378e-05 0 1.39278e-05 5.90161e-05 0 1.22604e-05 4.67065e-05 0 1.09049e-05 3.57504e-05 0 9.86579e-06 2.58012e-05 0 9.16352e-06 1.65375e-05 0 8.82245e-06 7.70432e-06 0 8.86634e-06 -9.49108e-07 0 9.31537e-06 -9.66226e-06 0 1.01857e-05 -1.86951e-05 0 1.14896e-05 -2.83252e-05 0 1.32388e-05 -3.89012e-05 0 1.54496e-05 -5.08173e-05 0 1.81612e-05 -6.4669e-05 0 2.14596e-05 -8.11808e-05 0 2.55217e-05 -0.000101549 0 3.0475e-05 -0.000128192 0 3.57144e-05 -0.000144727 0 3.89121e-05 -0.000129173 0 3.88294e-05 -0.000122132 0 3.55818e-05 -0.000117306 0 2.96732e-05 -0.000113555 0 2.202e-05 -0.000110995 0 1.5631e-05 0.00010274 0 2.35195e-05 0.00011296 0 3.10113e-05 0.000118334 0 3.76853e-05 0.000126016 0 4.31965e-05 0.000135486 0 4.78972e-05 0.000153309 0 5.18397e-05 0.000137755 0 5.43045e-05 0.000111335 0 5.57391e-05 9.09022e-05 0 5.63945e-05 7.41434e-05 0 5.65836e-05 5.99179e-05 0 5.64983e-05 4.75393e-05 0 5.62924e-05 3.64624e-05 0 5.60681e-05 2.63372e-05 0 5.59034e-05 1.68557e-05 0 5.58515e-05 7.76953e-06 0 5.5947e-05 -1.1598e-06 0 5.62055e-05 -1.01613e-05 0 5.66228e-05 -1.94822e-05 0 5.71738e-05 -2.93863e-05 0 5.78025e-05 -4.02082e-05 0 5.84231e-05 -5.23249e-05 0 5.88846e-05 -6.63221e-05 0 5.8994e-05 -8.29119e-05 0 5.84134e-05 -0.000103276 0 5.68867e-05 -0.000129732 0 5.39217e-05 -0.000145448 0 5.02851e-05 -0.000127918 0 4.58467e-05 -0.000118853 0 4.04078e-05 -0.000111947 0 3.40301e-05 -0.000107058 0 2.70206e-05 -0.000101436 0 2.15346e-05 0.000100206 0 2.95371e-05 0.000104302 0 3.77312e-05 0.000110804 0 4.62336e-05 0.000118456 0 5.58086e-05 0.000127731 0 6.70642e-05 0.000145272 0 7.8281e-05 0.000131018 0 8.70959e-05 0.000106845 0 9.26325e-05 8.81688e-05 0 9.61384e-05 7.25558e-05 0 9.83043e-05 5.90305e-05 0 9.9666e-05 4.70796e-05 0 0.000100502 3.62412e-05 0 0.000101019 2.6233e-05 0 0.000101338 1.67834e-05 0 0.000101541 7.6773e-06 0 0.000101672 -1.29892e-06 0 0.000101743 -1.03478e-05 0 0.000101734 -1.96893e-05 0 0.000101582 -2.95521e-05 0 0.000101183 -4.02256e-05 0 0.000100341 -5.2017e-05 0 9.87826e-05 -6.54108e-05 0 9.59646e-05 -8.09504e-05 0 9.11928e-05 -9.96274e-05 0 8.31949e-05 -0.000123901 0 7.28554e-05 -0.000138363 0 6.24918e-05 -0.000121152 0 5.38778e-05 -0.000112377 0 4.62751e-05 -0.000105335 0 3.90415e-05 -9.99682e-05 0 3.19635e-05 -9.53945e-05 0 2.78244e-05 9.00704e-05 0 3.5447e-05 9.65817e-05 0 4.40247e-05 0.000102001 0 5.39011e-05 0.000108453 0 6.62855e-05 0.000115319 0 8.50123e-05 0.000126665 0 0.000110594 0.000116042 0 0.000124335 9.78487e-05 0 0.000133047 8.24944e-05 0 0.000138499 6.88842e-05 0 0.000142242 5.66323e-05 0 0.00014473 4.55012e-05 0 0.000146433 3.52109e-05 0 0.000147562 2.5569e-05 0 0.000148288 1.63734e-05 0 0.000148702 7.45339e-06 0 0.000148858 -1.36483e-06 0 0.000148762 -1.02482e-05 0 0.000148381 -1.93756e-05 0 0.000147639 -2.89278e-05 0 0.000146376 -3.91217e-05 0 0.000144389 -5.01663e-05 0 0.000141211 -6.23625e-05 0 0.000136386 -7.59652e-05 0 0.000128354 -9.13813e-05 0 0.00011534 -0.000109718 0 9.05109e-05 -0.000120584 0 7.25711e-05 -0.000109596 0 6.09507e-05 -0.000103211 0 5.18591e-05 -9.743e-05 0 4.39343e-05 -9.27059e-05 0 3.67807e-05 -8.7988e-05 0 3.27692e-05 8.40636e-05 0 4.04805e-05 8.82404e-05 0 4.91946e-05 9.28344e-05 0 5.93568e-05 9.71445e-05 0 7.19263e-05 0.000101144 0 8.82733e-05 0.000102482 0 0.00010659 9.71605e-05 0 0.000120237 8.66622e-05 0 0.000129624 7.51084e-05 0 0.000136177 6.38279e-05 0 0.000140801 5.31471e-05 0 0.000144087 4.3071e-05 0 0.000146401 3.35449e-05 0 0.000147996 2.44561e-05 0 0.000149032 1.56917e-05 0 0.000149609 7.12595e-06 0 0.000149779 -1.36476e-06 0 0.000149548 -9.90923e-06 0 0.000148877 -1.86351e-05 0 0.000147678 -2.76758e-05 0 0.000145799 -3.71552e-05 0 0.000142994 -4.71998e-05 0 0.000138897 -5.78784e-05 0 0.000132914 -6.92024e-05 0 0.000124138 -8.08585e-05 0 0.000111128 -9.15333e-05 0 9.34733e-05 -9.71171e-05 0 7.77842e-05 -9.6139e-05 0 6.58758e-05 -9.26148e-05 0 5.63101e-05 -8.88835e-05 0 4.81625e-05 -8.50665e-05 0 4.09447e-05 -8.13323e-05 0 3.7229e-05 7.63698e-05 0 4.45597e-05 8.03305e-05 0 5.29176e-05 8.36216e-05 0 6.25495e-05 8.63572e-05 0 7.37135e-05 8.78921e-05 0 8.64229e-05 8.73061e-05 0 9.95104e-05 8.30961e-05 0 0.000110722 7.59511e-05 0 0.000119543 6.7305e-05 0 0.00012622 5.81642e-05 0 0.000131216 4.90251e-05 0 0.000134913 4.00968e-05 0 0.000137608 3.14333e-05 0 0.000139507 2.30217e-05 0 0.000140756 1.48089e-05 0 0.000141446 6.72455e-06 0 0.000141624 -1.3127e-06 0 0.000141294 -9.3871e-06 0 0.000140419 -1.75831e-05 0 0.000138917 -2.59769e-05 0 0.000136647 -3.46304e-05 0 0.000133408 -4.35662e-05 0 0.000128901 -5.27425e-05 0 0.000122746 -6.19612e-05 0 0.000114472 -7.07387e-05 0 0.000103826 -7.80785e-05 0 9.13094e-05 -8.25577e-05 0 7.91711e-05 -8.34966e-05 0 6.8547e-05 -8.24031e-05 0 5.9428e-05 -8.02136e-05 0 5.14912e-05 -7.7529e-05 0 4.44633e-05 -7.4482e-05 0 4.06219e-05 6.99118e-05 0 4.76216e-05 7.26681e-05 0 5.54355e-05 7.50213e-05 0 6.41462e-05 7.65645e-05 0 7.37768e-05 7.69419e-05 0 8.40342e-05 7.55135e-05 0 9.41574e-05 7.20648e-05 0 0.000103449 6.66607e-05 0 0.000111282 5.99129e-05 0 0.000117614 5.24443e-05 0 0.000122586 4.46756e-05 0 0.000126409 3.68433e-05 0 0.000129274 2.90659e-05 0 0.000131336 2.13844e-05 0 0.000132709 1.37968e-05 0 0.000133466 6.27487e-06 0 0.000133647 -1.22283e-06 0 0.000133254 -8.74306e-06 0 0.000132257 -1.63295e-05 0 0.000130586 -2.40152e-05 0 0.000128132 -3.18084e-05 0 0.000124742 -3.96762e-05 0 0.000120227 -4.75087e-05 0 0.00011437 -5.5079e-05 0 0.00010703 -6.1975e-05 0 9.82388e-05 -6.75831e-05 0 8.8617e-05 -7.12986e-05 0 7.88458e-05 -7.30631e-05 0 6.96803e-05 -7.30966e-05 0 6.1382e-05 -7.20351e-05 0 5.39315e-05 -7.02519e-05 0 4.7226e-05 -6.80218e-05 0 4.33911e-05 6.33779e-05 0 4.98766e-05 6.55853e-05 0 5.70176e-05 6.71535e-05 0 6.47963e-05 6.79529e-05 0 7.31004e-05 6.76922e-05 0 8.16869e-05 6.61449e-05 0 9.01679e-05 6.3095e-05 0 9.7989e-05 5.86841e-05 0 0.000104875 5.32019e-05 0 0.000110674 4.69971e-05 0 0.000115408 4.03676e-05 0 0.000119161 3.35241e-05 0 0.000122043 2.65948e-05 0 0.000124155 1.96494e-05 0 0.000125576 1.27167e-05 0 0.000126362 5.80035e-06 0 0.000126542 -1.11025e-06 0 0.000126119 -8.03067e-06 0 0.000125068 -1.49734e-05 0 0.000123337 -2.19382e-05 0 0.00012085 -2.89013e-05 0 0.000117506 -3.5799e-05 0 0.000113197 -4.251e-05 0 0.000107834 -4.88306e-05 0 0.000101392 -5.44699e-05 0 9.40169e-05 -5.90857e-05 0 8.59749e-05 -6.23936e-05 0 7.78124e-05 -6.42566e-05 0 6.99009e-05 -6.48919e-05 0 6.24779e-05 -6.45282e-05 0 5.56288e-05 -6.34426e-05 0 4.93571e-05 -6.18147e-05 0 4.5456e-05 5.74792e-05 0 5.14699e-05 5.90388e-05 0 5.79643e-05 6.00672e-05 0 6.4885e-05 6.03758e-05 0 7.21208e-05 5.98075e-05 0 7.94656e-05 5.81983e-05 0 8.66288e-05 5.55153e-05 0 9.33661e-05 5.17945e-05 0 9.9417e-05 4.72031e-05 0 0.000104661 4.19567e-05 0 0.000109056 3.62609e-05 0 0.000112627 3.02802e-05 0 0.000115424 2.41334e-05 0 0.000117504 1.78974e-05 0 0.000118918 1.16179e-05 0 0.000119703 5.31915e-06 0 0.000119881 -9.87214e-07 0 0.000119451 -7.29408e-06 0 0.000118398 -1.35911e-05 0 0.000116686 -1.98568e-05 0 0.000114266 -2.60492e-05 0 0.000111081 -3.20961e-05 0 0.000107081 -3.78838e-05 0 0.000102237 -4.32532e-05 0 9.65892e-05 -4.80038e-05 0 9.02507e-05 -5.1925e-05 0 8.34765e-05 -5.48531e-05 0 7.65008e-05 -5.67547e-05 0 6.9607e-05 -5.76638e-05 0 6.29863e-05 -5.77416e-05 0 5.67456e-05 -5.71454e-05 0 5.09293e-05 -5.60292e-05 0 4.70533e-05 5.1904e-05 0 5.25777e-05 5.30605e-05 0 5.84657e-05 5.36871e-05 0 6.46484e-05 5.36888e-05 0 7.10127e-05 5.29516e-05 0 7.74049e-05 5.14012e-05 0 8.36434e-05 4.89948e-05 0 8.95115e-05 4.57801e-05 0 9.48614e-05 4.18565e-05 0 9.9578e-05 3.73593e-05 0 0.000103609 3.24303e-05 0 0.000106942 2.71957e-05 0 0.000109594 2.17559e-05 0 0.00011159 1.61854e-05 0 0.00011296 1.05363e-05 0 0.000113725 4.84483e-06 0 0.000113897 -8.63204e-07 0 0.000113479 -6.56539e-06 0 0.000112458 -1.22368e-05 0 0.000110815 -1.78435e-05 0 0.000108523 -2.3336e-05 0 0.000105553 -2.86435e-05 0 0.000101889 -3.36694e-05 0 9.75412e-05 -3.82915e-05 0 9.25577e-05 -4.23719e-05 0 8.70491e-05 -4.57783e-05 0 8.11567e-05 -4.84144e-05 0 7.50909e-05 -5.02333e-05 0 6.90242e-05 -5.1278e-05 0 6.31042e-05 -5.16211e-05 0 5.74321e-05 -5.13705e-05 0 5.20689e-05 -5.06275e-05 0 4.8227e-05 4.67852e-05 0 5.33166e-05 4.75896e-05 0 5.86697e-05 4.79371e-05 0 6.42194e-05 4.77403e-05 0 6.98727e-05 4.69291e-05 0 7.55068e-05 4.54498e-05 0 8.09776e-05 4.3293e-05 0 8.6156e-05 4.04822e-05 0 9.09112e-05 3.70841e-05 0 9.51547e-05 3.31903e-05 0 9.88286e-05 2.8901e-05 0 0.000101907 2.43117e-05 0 0.000104384 1.95053e-05 0 0.000106268 1.4549e-05 0 0.00010757 9.4956e-06 0 0.000108301 4.38638e-06 0 0.000108468 -7.44578e-07 0 0.000108072 -5.86599e-06 0 0.000107106 -1.09446e-05 0 0.00010556 -1.59406e-05 0 0.000103423 -2.08034e-05 0 0.000100687 -2.54683e-05 0 9.73555e-05 -2.98554e-05 0 9.34525e-05 -3.38722e-05 0 8.90324e-05 -3.7421e-05 0 8.41797e-05 -4.04126e-05 0 7.90199e-05 -4.27819e-05 0 7.36762e-05 -4.45061e-05 0 6.82869e-05 -4.55938e-05 0 6.2967e-05 -4.60964e-05 0 5.78052e-05 -4.60811e-05 0 5.28628e-05 -4.56246e-05 0 4.91007e-05 4.20247e-05 0 5.3788e-05 4.25833e-05 0 5.86697e-05 4.27308e-05 0 6.36835e-05 4.24119e-05 0 6.87477e-05 4.15759e-05 0 7.37662e-05 4.01925e-05 0 7.86347e-05 3.82517e-05 0 8.32418e-05 3.57754e-05 0 8.74965e-05 3.28089e-05 0 9.13215e-05 2.94159e-05 0 9.46637e-05 2.56693e-05 0 9.74902e-05 2.16422e-05 0 9.97852e-05 1.74021e-05 0 0.000101544 1.30079e-05 0 0.000102767 8.50941e-06 0 0.000103457 3.94924e-06 0 0.000103618 -6.35185e-07 0 0.000103249 -5.20828e-06 0 0.000102348 -9.73316e-06 0 0.000100912 -1.41685e-05 0 9.89403e-05 -1.8466e-05 0 9.6436e-05 -2.25685e-05 0 9.34138e-05 -2.64109e-05 0 8.99044e-05 -2.99221e-05 0 8.59578e-05 -3.3031e-05 0 8.16477e-05 -3.56755e-05 0 7.70607e-05 -3.78112e-05 0 7.23036e-05 -3.94163e-05 0 6.74752e-05 -4.04997e-05 0 6.26671e-05 -4.10898e-05 0 5.7955e-05 -4.12335e-05 0 5.33967e-05 -4.09843e-05 0 4.97271e-05 3.76185e-05 0 5.4062e-05 3.79839e-05 0 5.85359e-05 3.79935e-05 0 6.30935e-05 3.76026e-05 0 6.76672e-05 3.67765e-05 0 7.21784e-05 3.54934e-05 0 7.65423e-05 3.37504e-05 0 8.06779e-05 3.15621e-05 0 8.45074e-05 2.89616e-05 0 8.79677e-05 2.59951e-05 0 9.10098e-05 2.27171e-05 0 9.35998e-05 1.91842e-05 0 9.57163e-05 1.54515e-05 0 9.73476e-05 1.15696e-05 0 9.8488e-05 7.5841e-06 0 9.91356e-05 3.536e-06 0 9.92898e-05 -5.36886e-07 0 9.89506e-05 -4.59803e-06 0 9.81183e-05 -8.61006e-06 0 9.67947e-05 -1.25328e-05 0 9.49844e-05 -1.63219e-05 0 9.26982e-05 -1.9928e-05 0 8.99559e-05 -2.32976e-05 0 8.67892e-05 -2.63755e-05 0 8.32445e-05 -2.91087e-05 0 7.93815e-05 -3.14517e-05 0 7.52747e-05 -3.33718e-05 0 7.10007e-05 -3.48542e-05 0 6.66405e-05 -3.59008e-05 0 6.22682e-05 -3.65313e-05 0 5.7948e-05 -3.67778e-05 0 5.37322e-05 -3.66799e-05 0 5.01727e-05 3.35162e-05 0 5.41947e-05 3.37423e-05 0 5.83155e-05 3.36579e-05 0 6.2486e-05 3.3231e-05 0 6.66479e-05 3.24361e-05 0 7.07368e-05 3.1259e-05 0 7.46852e-05 2.96974e-05 0 7.84247e-05 2.77634e-05 0 8.18937e-05 2.54815e-05 0 8.50378e-05 2.28863e-05 0 8.78136e-05 2.00194e-05 0 9.01877e-05 1.69254e-05 0 9.2137e-05 1.36492e-05 0 9.36461e-05 1.02341e-05 0 9.47057e-05 6.72084e-06 0 9.53105e-05 3.14735e-06 0 9.54583e-05 -4.50192e-07 0 9.51488e-05 -4.03641e-06 0 9.43838e-05 -7.57549e-06 0 9.31678e-05 -1.103e-05 0 9.15092e-05 -1.43601e-05 0 8.9422e-05 -1.75235e-05 0 8.6928e-05 -2.04764e-05 0 8.40582e-05 -2.3175e-05 0 8.08538e-05 -2.55788e-05 0 7.73665e-05 -2.76535e-05 0 7.36544e-05 -2.93747e-05 0 6.97829e-05 -3.07299e-05 0 6.5816e-05 -3.17203e-05 0 6.1815e-05 -3.23582e-05 0 5.78346e-05 -3.26668e-05 0 5.39216e-05 -3.2675e-05 0 5.04765e-05 2.9688e-05 0 5.4227e-05 2.98109e-05 0 5.80444e-05 2.96662e-05 0 6.18856e-05 2.92289e-05 0 6.5701e-05 2.84805e-05 0 6.94365e-05 2.74108e-05 0 7.30353e-05 2.6019e-05 0 7.64424e-05 2.43144e-05 0 7.96049e-05 2.23158e-05 0 8.24769e-05 2.00498e-05 0 8.50191e-05 1.75488e-05 0 8.72004e-05 1.48483e-05 0 8.89975e-05 1.19853e-05 0 9.03935e-05 8.99647e-06 0 9.13771e-05 5.91745e-06 0 9.19413e-05 2.7826e-06 0 9.20829e-05 -3.74732e-07 0 9.18015e-05 -3.52167e-06 0 9.10995e-05 -6.62509e-06 0 8.99831e-05 -9.65107e-06 0 8.84624e-05 -1.25646e-05 0 8.65528e-05 -1.53296e-05 0 8.42763e-05 -1.79099e-05 0 8.16619e-05 -2.02705e-05 0 7.87466e-05 -2.23796e-05 0 7.55741e-05 -2.42108e-05 0 7.21945e-05 -2.57452e-05 0 6.866e-05 -2.6973e-05 0 6.50245e-05 -2.78936e-05 0 6.13396e-05 -2.85159e-05 0 5.76525e-05 -2.88562e-05 0 5.40043e-05 -2.89366e-05 0 5.06767e-05 2.60978e-05 0 5.4191e-05 2.61479e-05 0 5.77483e-05 2.5968e-05 0 6.13103e-05 2.55393e-05 0 6.48337e-05 2.48479e-05 0 6.82725e-05 2.38865e-05 0 7.1579e-05 2.26549e-05 0 7.47059e-05 2.11606e-05 0 7.76089e-05 1.94184e-05 0 8.02476e-05 1.74489e-05 0 8.25873e-05 1.52778e-05 0 8.45992e-05 1.29337e-05 0 8.62607e-05 1.0447e-05 0 8.75546e-05 7.84875e-06 0 8.8469e-05 5.1697e-06 0 8.8996e-05 2.44026e-06 0 8.91318e-05 -3.09631e-07 0 8.88758e-05 -3.05029e-06 0 8.82311e-05 -5.75193e-06 0 8.72042e-05 -8.3845e-06 0 8.58061e-05 -1.09175e-05 0 8.40524e-05 -1.33205e-05 0 8.19642e-05 -1.55636e-05 0 7.95685e-05 -1.76183e-05 0 7.6898e-05 -1.94596e-05 0 7.39908e-05 -2.10665e-05 0 7.0889e-05 -2.24242e-05 0 6.76376e-05 -2.35245e-05 0 6.42818e-05 -2.43666e-05 0 6.08656e-05 -2.49564e-05 0 5.74301e-05 -2.53059e-05 0 5.40121e-05 -2.54318e-05 0 5.07992e-05 2.2715e-05 0 5.4111e-05 2.27151e-05 0 5.7447e-05 2.25194e-05 0 6.07729e-05 2.21134e-05 0 6.40509e-05 2.14866e-05 0 6.7241e-05 2.06336e-05 0 7.03022e-05 1.95547e-05 0 7.3194e-05 1.82559e-05 0 7.58777e-05 1.6749e-05 0 7.83181e-05 1.50502e-05 0 8.04841e-05 1.31801e-05 0 8.23491e-05 1.11618e-05 0 8.38919e-05 9.02036e-06 0 8.50958e-05 6.78171e-06 0 8.59485e-05 4.47225e-06 0 8.64422e-05 2.11834e-06 0 8.65727e-05 -2.53755e-07 0 8.63393e-05 -2.61785e-06 0 8.57452e-05 -4.9478e-06 0 8.47972e-05 -7.21742e-06 0 8.35061e-05 -9.40063e-06 0 8.18873e-05 -1.14717e-05 0 7.99605e-05 -1.3406e-05 0 7.77505e-05 -1.51805e-05 0 7.52865e-05 -1.67749e-05 0 7.2602e-05 -1.81726e-05 0 6.97335e-05 -1.93617e-05 0 6.67194e-05 -2.03355e-05 0 6.35989e-05 -2.10929e-05 0 6.04102e-05 -2.16379e-05 0 5.71894e-05 -2.19796e-05 0 5.39695e-05 -2.21305e-05 0 5.08669e-05 1.95102e-05 0 5.40062e-05 1.94785e-05 0 5.71552e-05 1.92819e-05 0 6.02829e-05 1.89092e-05 0 6.33557e-05 1.83524e-05 0 6.63385e-05 1.76076e-05 0 6.91954e-05 1.66752e-05 0 7.18908e-05 1.55603e-05 0 7.43908e-05 1.4272e-05 0 7.66641e-05 1.28234e-05 0 7.86826e-05 1.12309e-05 0 8.04223e-05 9.51325e-06 0 8.1863e-05 7.69091e-06 0 8.29888e-05 5.7855e-06 0 8.37879e-05 3.81923e-06 0 8.42524e-05 1.81458e-06 0 8.43781e-05 -2.05875e-07 0 8.41643e-05 -2.21957e-06 0 8.3614e-05 -4.204e-06 0 8.2734e-05 -6.13681e-06 0 8.15348e-05 -7.99598e-06 0 8.00309e-05 -9.76008e-06 0 7.82409e-05 -1.14088e-05 0 7.61872e-05 -1.29234e-05 0 7.38963e-05 -1.42876e-05 0 7.13977e-05 -1.54881e-05 0 6.87235e-05 -1.65154e-05 0 6.59075e-05 -1.73639e-05 0 6.29839e-05 -1.80324e-05 0 5.99864e-05 -1.85236e-05 0 5.69471e-05 -1.88443e-05 0 5.3896e-05 -1.90041e-05 0 5.08965e-05 1.64563e-05 0 5.38912e-05 1.64071e-05 0 5.68842e-05 1.62211e-05 0 5.98474e-05 1.58897e-05 0 6.27505e-05 1.54069e-05 0 6.55621e-05 1.47699e-05 0 6.82502e-05 1.39791e-05 0 7.07833e-05 1.30386e-05 0 7.31311e-05 1.19558e-05 0 7.52654e-05 1.0741e-05 0 7.71607e-05 9.40719e-06 0 7.8795e-05 7.96954e-06 0 8.01495e-05 6.44463e-06 0 8.12092e-05 4.85019e-06 0 8.19626e-05 3.20459e-06 0 8.24021e-05 1.52662e-06 0 8.25235e-05 -1.64767e-07 0 8.23262e-05 -1.85056e-06 0 8.18131e-05 -3.51186e-06 0 8.09907e-05 -5.12996e-06 0 7.98689e-05 -6.68657e-06 0 7.84614e-05 -8.1641e-06 0 7.67855e-05 -9.54599e-06 0 7.48618e-05 -1.08172e-05 0 7.27142e-05 -1.19646e-05 0 7.03692e-05 -1.29777e-05 0 6.78555e-05 -1.38486e-05 0 6.52031e-05 -1.4573e-05 0 6.24425e-05 -1.51496e-05 0 5.96039e-05 -1.55803e-05 0 5.67162e-05 -1.58701e-05 0 5.38068e-05 -1.60264e-05 0 5.09017e-05 1.35285e-05 0 5.37775e-05 1.34727e-05 0 5.66428e-05 1.33061e-05 0 5.94717e-05 1.30221e-05 0 6.22367e-05 1.26163e-05 0 6.49093e-05 1.20865e-05 0 6.74604e-05 1.14333e-05 0 6.98615e-05 1.06598e-05 0 7.20853e-05 9.77195e-06 0 7.41061e-05 8.7778e-06 0 7.59006e-05 7.6876e-06 0 7.74482e-05 6.51325e-06 0 7.87315e-05 5.26801e-06 0 7.97363e-05 3.96609e-06 0 8.04518e-05 2.62235e-06 0 8.08704e-05 1.25207e-06 0 8.09882e-05 -1.29258e-07 0 8.08046e-05 -1.5061e-06 0 8.03222e-05 -2.86299e-06 0 7.95473e-05 -4.1847e-06 0 7.84893e-05 -5.45643e-06 0 7.71609e-05 -6.66401e-06 0 7.55784e-05 -7.79424e-06 0 7.37607e-05 -8.83515e-06 0 7.17297e-05 -9.77645e-06 0 6.95096e-05 -1.06098e-05 0 6.71263e-05 -1.1329e-05 0 6.46069e-05 -1.19305e-05 0 6.1979e-05 -1.24132e-05 0 5.92701e-05 -1.27784e-05 0 5.65067e-05 -1.30297e-05 0 5.3714e-05 -1.31727e-05 0 5.08931e-05 1.07032e-05 0 5.36738e-05 1.06493e-05 0 5.64374e-05 1.05089e-05 0 5.91598e-05 1.02769e-05 0 6.18154e-05 9.95007e-06 0 6.43779e-05 9.52698e-06 0 6.68206e-05 9.00809e-06 0 6.91174e-05 8.39588e-06 0 7.12429e-05 7.69477e-06 0 7.31736e-05 6.911e-06 0 7.48878e-05 6.05236e-06 0 7.63663e-05 5.12802e-06 0 7.75926e-05 4.14819e-06 0 7.85534e-05 3.12388e-06 0 7.92383e-05 2.0667e-06 0 7.96401e-05 9.88596e-07 0 7.9755e-05 -9.8254e-08 0 7.95823e-05 -1.18163e-06 0 7.91245e-05 -2.24937e-06 0 7.83876e-05 -3.28954e-06 0 7.73804e-05 -4.29059e-06 0 7.61152e-05 -5.2415e-06 0 7.46069e-05 -6.13207e-06 0 7.28734e-05 -6.95309e-06 0 7.09347e-05 -7.69666e-06 0 6.88134e-05 -8.35636e-06 0 6.65332e-05 -8.92752e-06 0 6.4119e-05 -9.40728e-06 0 6.15964e-05 -9.79468e-06 0 5.89905e-05 -1.00906e-05 0 5.63261e-05 -1.02978e-05 0 5.36268e-05 -1.04202e-05 0 5.08788e-05 7.95833e-06 0 5.35868e-05 7.91277e-06 0 5.62731e-05 7.80337e-06 0 5.89146e-05 7.62671e-06 0 6.14872e-05 7.38045e-06 0 6.39663e-05 7.0636e-06 0 6.6327e-05 6.67655e-06 0 6.85447e-05 6.22112e-06 0 7.05958e-05 5.70052e-06 0 7.2458e-05 5.11927e-06 0 7.41112e-05 4.48302e-06 0 7.5537e-05 3.79843e-06 0 7.67199e-05 3.07293e-06 0 7.7647e-05 2.31462e-06 0 7.83084e-05 1.53199e-06 0 7.86973e-05 7.33874e-07 0 7.88099e-05 -7.07407e-08 0 7.86455e-05 -8.72817e-07 0 7.82065e-05 -1.66338e-06 0 7.74986e-05 -2.43361e-06 0 7.65302e-05 -3.17501e-06 0 7.5313e-05 -3.87952e-06 0 7.38611e-05 -4.53966e-06 0 7.21914e-05 -5.14874e-06 0 7.03228e-05 -5.70101e-06 0 6.82762e-05 -6.19182e-06 0 6.60741e-05 -6.61774e-06 0 6.37397e-05 -6.97669e-06 0 6.12968e-05 -7.2679e-06 0 5.87693e-05 -7.49196e-06 0 5.61803e-05 -7.6507e-06 0 5.35522e-05 -7.74699e-06 0 5.08645e-05 5.27293e-06 0 5.35214e-05 5.24016e-06 0 5.61533e-05 5.16536e-06 0 5.8738e-05 5.04635e-06 0 6.12525e-05 4.88166e-06 0 6.36733e-05 4.67065e-06 0 6.59765e-05 4.41362e-06 0 6.81388e-05 4.11175e-06 0 7.01377e-05 3.76713e-06 0 7.1952e-05 3.38271e-06 0 7.35623e-05 2.96216e-06 0 7.4951e-05 2.50983e-06 0 7.61033e-05 2.03058e-06 0 7.70067e-05 1.52971e-06 0 7.76516e-05 1.0128e-06 0 7.80314e-05 4.85662e-07 0 7.81423e-05 -4.57762e-08 0 7.79837e-05 -5.75556e-07 0 7.7558e-05 -1.09776e-06 0 7.68704e-05 -1.60658e-06 0 7.59294e-05 -2.09643e-06 0 7.47459e-05 -2.56203e-06 0 7.33336e-05 -2.99847e-06 0 7.17086e-05 -3.40139e-06 0 6.9889e-05 -3.76704e-06 0 6.78949e-05 -4.09238e-06 0 6.57474e-05 -4.37517e-06 0 6.34688e-05 -4.61404e-06 0 6.10819e-05 -4.80848e-06 0 5.86093e-05 -4.95881e-06 0 5.60733e-05 -5.0662e-06 0 5.34955e-05 -5.13246e-06 0 5.08543e-05 2.62673e-06 0 5.34809e-05 2.60963e-06 0 5.60805e-05 2.57169e-06 0 5.86316e-05 2.51183e-06 0 6.11117e-05 2.42933e-06 0 6.34978e-05 2.32389e-06 0 6.5767e-05 2.19567e-06 0 6.78965e-05 2.04526e-06 0 6.98645e-05 1.87368e-06 0 7.16504e-05 1.68238e-06 0 7.32352e-05 1.47318e-06 0 7.4602e-05 1.24822e-06 0 7.57361e-05 1.00991e-06 0 7.66254e-05 7.60862e-07 0 7.72605e-05 5.03852e-07 0 7.76348e-05 2.41758e-07 0 7.77447e-05 -2.24769e-08 0 7.75896e-05 -2.85893e-07 0 7.71717e-05 -5.45551e-07 0 7.64963e-05 -7.98573e-07 0 7.55714e-05 -1.04218e-06 0 7.44079e-05 -1.27377e-06 0 7.30191e-05 -1.49091e-06 0 7.14206e-05 -1.69144e-06 0 6.96301e-05 -1.87351e-06 0 6.76669e-05 -2.03562e-06 0 6.55518e-05 -2.17668e-06 0 6.33064e-05 -2.29598e-06 0 6.09526e-05 -2.39328e-06 0 5.85126e-05 -2.46873e-06 0 5.60081e-05 -2.52288e-06 0 5.34601e-05 -2.55662e-06 0 5.08507e-05 -0 0 5.34672e-05 3.55529e-19 0 5.60561e-05 -2.97587e-19 0 5.8596e-05 -2.26443e-19 0 6.10647e-05 -0 0 6.34394e-05 -0 0 6.56973e-05 -0 0 6.7816e-05 -0 0 6.97737e-05 -0 0 7.15502e-05 -0 0 7.31266e-05 3.60455e-20 0 7.44861e-05 5.14386e-19 0 7.56142e-05 8.08795e-20 0 7.64988e-05 -5.38843e-19 0 7.71306e-05 -1.09875e-19 0 7.75031e-05 -0 0 7.76127e-05 -0 0 7.74587e-05 -0 0 7.70434e-05 -1.23043e-19 0 7.6372e-05 -5.33433e-19 0 7.54525e-05 -4.50023e-20 0 7.42956e-05 -0 0 7.29146e-05 -0 0 7.13248e-05 -0 0 6.9544e-05 1.9745e-19 0 6.75911e-05 4.20127e-19 0 6.54867e-05 8.06991e-21 0 6.32522e-05 -0 0 6.09094e-05 -0 0 5.84802e-05 -0 0 5.59861e-05 -0 0 5.3448e-05 -0 0 </DataArray> 
</PointData> 
<Points> 
<DataArray type="Float32" NumberOfComponents="3"> 