<?xml version="1.0"?> 
<VTKFile type="StructuredGrid" version="0.1"> 
<StructuredGrid WholeExtent="0 31 0 31 0 0"> 
<Piece Extent="0 31 0 31 0 0"> 
<PointData>
<DataArray type="Float32" Name="B" format="ascii" NumberOfComponents="3"> 
4.33086e-05 -0 0 4.55195e-05 -0 0 4.77037e-05 -0 0 4.9844e-05 -0 0 5.19224e-05 -0 0 5.39209e-05 -0 0 5.58213e-05 -0 0 5.76063e-05 -0 0 5.92592e-05 -0 0 6.07641e-05 -0 0 6.21069e-05 -0 0 6.32746e-05 -0 0 6.42563e-05 -0 0 6.50427e-05 -0 0 6.56266e-05 -0 0 6.60029e-05 -0 0 6.61685e-05 -0 0 6.61225e-05 -0 0 6.58661e-05 -0 0 6.54026e-05 -0 0 6.47374e-05 -0 0 6.38776e-05 -0 0 6.28325e-05 -0 0 6.16129e-05 -0 0 6.02312e-05 -0 0 5.87013e-05 -0 0 5.70381e-05 -0 0 5.52573e-05 -0 0 5.33752e-05 -0 0 5.14087e-05 -0 0 4.93743e-05 -0 0 4.72885e-05 -0 0 4.33135e-05 -2.22122e-06 0 4.55327e-05 -2.20326e-06 0 4.77257e-05 -2.16819e-06 0 4.9875e-05 -2.11537e-06 0 5.19624e-05 -2.04445e-06 0 5.39699e-05 -1.95538e-06 0 5.58791e-05 -1.84847e-06 0 5.76725e-05 -1.72434e-06 0 5.93332e-05 -1.58391e-06 0 6.08454e-05 -1.42839e-06 0 6.21945e-05 -1.25923e-06 0 6.33678e-05 -1.07808e-06 0 6.43541e-05 -8.8676e-07 0 6.51441e-05 -6.87209e-07 0 6.57306e-05 -4.81461e-07 0 6.61084e-05 -2.71607e-07 0 6.62745e-05 -5.97676e-08 0 6.62279e-05 1.51929e-07 0 6.59698e-05 3.61373e-07 0 6.55037e-05 5.6649e-07 0 6.48348e-05 7.65269e-07 0 6.39704e-05 9.5579e-07 0 6.29198e-05 1.13625e-06 0 6.1694e-05 1.30499e-06 0 6.03054e-05 1.46056e-06 0 5.87681e-05 1.6017e-06 0 5.70969e-05 1.72741e-06 0 5.53079e-05 1.83695e-06 0 5.34175e-05 1.92988e-06 0 5.14426e-05 2.00603e-06 0 4.93999e-05 2.06552e-06 0 4.73062e-05 2.10873e-06 0 4.33277e-05 -4.45864e-06 0 4.5572e-05 -4.42366e-06 0 4.77913e-05 -4.35419e-06 0 4.99677e-05 -4.24891e-06 0 5.20825e-05 -4.10709e-06 0 5.41171e-05 -3.92865e-06 0 5.60529e-05 -3.71421e-06 0 5.78716e-05 -3.46502e-06 0 5.9556e-05 -3.18296e-06 0 6.10898e-05 -2.87047e-06 0 6.24584e-05 -2.53048e-06 0 6.36484e-05 -2.16636e-06 0 6.46485e-05 -1.78176e-06 0 6.54494e-05 -1.38062e-06 0 6.60436e-05 -9.67033e-07 0 6.6426e-05 -5.452e-07 0 6.65934e-05 -1.1939e-07 0 6.6545e-05 3.06119e-07 0 6.6282e-05 7.27083e-07 0 6.58078e-05 1.13933e-06 0 6.51279e-05 1.53882e-06 0 6.42497e-05 1.92167e-06 0 6.31827e-05 2.28424e-06 0 6.19381e-05 2.6232e-06 0 6.05287e-05 2.93559e-06 0 5.89688e-05 3.21887e-06 0 5.72737e-05 3.47103e-06 0 5.54599e-05 3.69056e-06 0 5.35443e-05 3.87658e-06 0 5.15442e-05 4.02876e-06 0 4.94767e-05 4.14735e-06 0 4.73588e-05 4.23313e-06 0 4.33495e-05 -6.72873e-06 0 4.56361e-05 -6.67863e-06 0 4.78998e-05 -6.5761e-06 0 5.01218e-05 -6.41909e-06 0 5.22829e-05 -6.20645e-06 0 5.43633e-05 -5.93805e-06 0 5.63438e-05 -5.61481e-06 0 5.82052e-05 -5.23867e-06 0 5.99295e-05 -4.81251e-06 0 6.14999e-05 -4.3401e-06 0 6.2901e-05 -3.82593e-06 0 6.41191e-05 -3.27514e-06 0 6.51425e-05 -2.69334e-06 0 6.59616e-05 -2.08651e-06 0 6.65688e-05 -1.46086e-06 0 6.69589e-05 -8.22771e-07 0 6.71286e-05 -1.78707e-07 0 6.70771e-05 4.64866e-07 0 6.68058e-05 1.10153e-06 0 6.63181e-05 1.72497e-06 0 6.56196e-05 2.32904e-06 0 6.47181e-05 2.90787e-06 0 6.36234e-05 3.45591e-06 0 6.23472e-05 3.96806e-06 0 6.09026e-05 4.43981e-06 0 5.93047e-05 4.86727e-06 0 5.75694e-05 5.24736e-06 0 5.57139e-05 5.5778e-06 0 5.37557e-05 5.85722e-06 0 5.1713e-05 6.08516e-06 0 4.96036e-05 6.26205e-06 0 4.74453e-05 6.3891e-06 0 4.33763e-05 -9.04838e-06 0 4.5723e-05 -8.98614e-06 0 4.80498e-05 -8.85266e-06 0 5.03369e-05 -8.64507e-06 0 5.25638e-05 -8.36173e-06 0 5.47097e-05 -8.00245e-06 0 5.67538e-05 -7.56848e-06 0 5.86761e-05 -7.06248e-06 0 6.04573e-05 -6.48845e-06 0 6.20796e-05 -5.85158e-06 0 6.35269e-05 -5.15809e-06 0 6.47848e-05 -4.415e-06 0 6.58412e-05 -3.63e-06 0 6.6686e-05 -2.81123e-06 0 6.73116e-05 -1.96713e-06 0 6.77124e-05 -1.10632e-06 0 6.78854e-05 -2.37527e-07 0 6.78295e-05 6.30543e-07 0 6.75463e-05 1.48923e-06 0 6.70393e-05 2.33001e-06 0 6.63146e-05 3.14458e-06 0 6.53801e-05 3.92494e-06 0 6.42461e-05 4.66355e-06 0 6.29248e-05 5.35345e-06 0 6.14302e-05 5.98843e-06 0 5.97781e-05 6.56319e-06 0 5.79854e-05 7.07348e-06 0 5.60704e-05 7.51619e-06 0 5.40517e-05 7.88949e-06 0 5.19484e-05 8.19277e-06 0 4.97795e-05 8.42668e-06 0 4.75636e-05 8.59297e-06 0 4.3404e-05 -1.14353e-05 0 4.58295e-05 -1.1365e-05 0 4.82393e-05 -1.12036e-05 0 5.06121e-05 -1.0947e-05 0 5.29258e-05 -1.05932e-05 0 5.51579e-05 -1.01418e-05 0 5.7286e-05 -9.5944e-06 0 5.92883e-05 -8.95452e-06 0 6.11442e-05 -8.2274e-06 0 6.28347e-05 -7.41984e-06 0 6.43425e-05 -6.53994e-06 0 6.56524e-05 -5.59685e-06 0 6.67518e-05 -4.60049e-06 0 6.76302e-05 -3.56132e-06 0 6.82795e-05 -2.49012e-06 0 6.86943e-05 -1.39787e-06 0 6.88713e-05 -2.95608e-07 0 6.88096e-05 8.05624e-07 0 6.85109e-05 1.89487e-06 0 6.79788e-05 2.96132e-06 0 6.72197e-05 3.99439e-06 0 6.62419e-05 4.98386e-06 0 6.50563e-05 5.92003e-06 0 6.36759e-05 6.79391e-06 0 6.21155e-05 7.59746e-06 0 6.03921e-05 8.32379e-06 0 5.8524e-05 8.96737e-06 0 5.65307e-05 9.52422e-06 0 5.44323e-05 9.99197e-06 0 5.22494e-05 1.03699e-05 0 5.00023e-05 1.06591e-05 0 4.7711e-05 1.08617e-05 0 4.34271e-05 -1.39081e-05 0 4.59516e-05 -1.38353e-05 0 4.84657e-05 -1.36498e-05 0 5.09464e-05 -1.33466e-05 0 5.33694e-05 -1.29226e-05 0 5.57102e-05 -1.23774e-05 0 5.7944e-05 -1.17131e-05 0 6.00471e-05 -1.09341e-05 0 6.1997e-05 -1.0047e-05 0 6.37729e-05 -9.06061e-06 0 6.53562e-05 -7.98511e-06 0 6.67311e-05 -6.83205e-06 0 6.78838e-05 -5.61385e-06 0 6.88037e-05 -4.34345e-06 0 6.94824e-05 -3.03417e-06 0 6.99143e-05 -1.69942e-06 0 7.00962e-05 -3.5265e-07 0 7.00272e-05 9.92716e-07 0 6.97091e-05 2.32335e-06 0 6.91458e-05 3.62607e-06 0 6.83438e-05 4.88788e-06 0 6.7312e-05 6.0962e-06 0 6.60618e-05 7.23895e-06 0 6.46072e-05 8.3049e-06 0 6.29642e-05 9.28394e-06 0 6.11511e-05 1.01674e-05 0 5.9188e-05 1.09483e-05 0 5.7096e-05 1.16216e-05 0 5.48973e-05 1.21845e-05 0 5.26143e-05 1.26362e-05 0 5.02692e-05 1.29781e-05 0 4.78835e-05 1.32133e-05 0 4.34387e-05 -1.64867e-05 0 4.60837e-05 -1.64186e-05 0 4.87254e-05 -1.62143e-05 0 5.13382e-05 -1.58672e-05 0 5.38954e-05 -1.53735e-05 0 5.63695e-05 -1.47326e-05 0 5.8733e-05 -1.39469e-05 0 6.09595e-05 -1.3022e-05 0 6.3024e-05 -1.19663e-05 0 6.49039e-05 -1.07907e-05 0 6.6579e-05 -9.50799e-06 0 6.80322e-05 -8.13251e-06 0 6.92492e-05 -6.67944e-06 0 7.02188e-05 -5.16451e-06 0 7.09325e-05 -3.60369e-06 0 7.13848e-05 -2.01297e-06 0 7.15723e-05 -4.08278e-07 0 7.14945e-05 1.19456e-06 0 7.11529e-05 2.77979e-06 0 7.05519e-05 4.33177e-06 0 6.96981e-05 5.83498e-06 0 6.86008e-05 7.27423e-06 0 6.72722e-05 8.63485e-06 0 6.57272e-05 9.90304e-06 0 6.39832e-05 1.10663e-05 0 6.20605e-05 1.21139e-05 0 5.99809e-05 1.30371e-05 0 5.77681e-05 1.38298e-05 0 5.54466e-05 1.44886e-05 0 5.30413e-05 1.50127e-05 0 5.05766e-05 1.54039e-05 0 4.80761e-05 1.56666e-05 0 4.34295e-05 -1.91928e-05 0 4.62188e-05 -1.91385e-05 0 4.90136e-05 -1.8922e-05 0 5.17856e-05 -1.85349e-05 0 5.45046e-05 -1.79723e-05 0 5.71395e-05 -1.72331e-05 0 5.96593e-05 -1.63204e-05 0 6.20342e-05 -1.52411e-05 0 6.42362e-05 -1.40058e-05 0 6.62402e-05 -1.2628e-05 0 6.80243e-05 -1.11238e-05 0 6.957e-05 -9.51064e-06 0 7.08624e-05 -7.80691e-06 0 7.18901e-05 -6.03146e-06 0 7.26446e-05 -4.2031e-06 0 7.31203e-05 -2.34049e-06 0 7.33142e-05 -4.62034e-07 0 7.32258e-05 1.41402e-06 0 7.28567e-05 3.26952e-06 0 7.22112e-05 5.08628e-06 0 7.12962e-05 6.84614e-06 0 7.01214e-05 8.53105e-06 0 6.86994e-05 1.01234e-05 0 6.70464e-05 1.16064e-05 0 6.51815e-05 1.29647e-05 0 6.31268e-05 1.41851e-05 0 6.09071e-05 1.52568e-05 0 5.85489e-05 1.61724e-05 0 5.60797e-05 1.69278e-05 0 5.35276e-05 1.75223e-05 0 5.09197e-05 1.79587e-05 0 4.82821e-05 1.82424e-05 0 4.33884e-05 -2.20499e-05 0 4.63479e-05 -2.2021e-05 0 4.93244e-05 -2.18009e-05 0 5.22859e-05 -2.13788e-05 0 5.51978e-05 -2.07483e-05 0 5.80247e-05 -1.99078e-05 0 6.07309e-05 -1.8861e-05 0 6.32822e-05 -1.76167e-05 0 6.5647e-05 -1.61881e-05 0 6.77971e-05 -1.45922e-05 0 6.97085e-05 -1.28488e-05 0 7.13616e-05 -1.09794e-05 0 7.2741e-05 -9.00612e-06 0 7.38351e-05 -6.95128e-06 0 7.46359e-05 -4.83673e-06 0 7.51381e-05 -2.68382e-06 0 7.5339e-05 -5.13378e-07 0 7.52382e-05 1.65405e-06 0 7.48374e-05 3.79797e-06 0 7.41407e-05 5.89771e-06 0 7.31548e-05 7.9323e-06 0 7.18896e-05 9.88058e-06 0 7.03584e-05 1.17215e-05 0 6.85781e-05 1.34348e-05 0 6.657e-05 1.50016e-05 0 6.43587e-05 1.64055e-05 0 6.1972e-05 1.76333e-05 0 5.94406e-05 1.86759e-05 0 5.67958e-05 1.95285e-05 0 5.40693e-05 2.01907e-05 0 5.12921e-05 2.06663e-05 0 4.84932e-05 2.09628e-05 0 4.33002e-05 -2.50843e-05 0 4.64594e-05 -2.50952e-05 0 4.965e-05 -2.48824e-05 0 5.28354e-05 -2.44319e-05 0 5.59762e-05 -2.37351e-05 0 5.90308e-05 -2.27896e-05 0 6.19577e-05 -2.16001e-05 0 6.47173e-05 -2.01772e-05 0 6.72731e-05 -1.85381e-05 0 6.95933e-05 -1.67041e-05 0 7.16517e-05 -1.46999e-05 0 7.34275e-05 -1.2552e-05 0 7.49052e-05 -1.02868e-05 0 7.60739e-05 -7.9307e-06 0 7.6926e-05 -5.50864e-06 0 7.74574e-05 -3.04463e-06 0 7.76657e-05 -5.61704e-07 0 7.75508e-05 1.91756e-06 0 7.71142e-05 4.37056e-06 0 7.63596e-05 6.77425e-06 0 7.52932e-05 9.10478e-06 0 7.39244e-05 1.13376e-05 0 7.22668e-05 1.34476e-05 0 7.03383e-05 1.54101e-05 0 6.8162e-05 1.72019e-05 0 6.57659e-05 1.88026e-05 0 6.31821e-05 2.01957e-05 0 6.04457e-05 2.13701e-05 0 5.75933e-05 2.23201e-05 0 5.46615e-05 2.30461e-05 0 5.16858e-05 2.35535e-05 0 4.86988e-05 2.38521e-05 0 4.31481e-05 -2.83238e-05 0 4.65389e-05 -2.83939e-05 0 4.998e-05 -2.82025e-05 0 5.34295e-05 -2.77323e-05 0 5.68406e-05 -2.69715e-05 0 6.01648e-05 -2.59168e-05 0 6.33529e-05 -2.45733e-05 0 6.63573e-05 -2.29549e-05 0 6.91359e-05 -2.10835e-05 0 7.16526e-05 -1.89864e-05 0 7.38787e-05 -1.66949e-05 0 7.57926e-05 -1.42416e-05 0 7.73796e-05 -1.16584e-05 0 7.86298e-05 -8.97585e-06 0 7.95378e-05 -6.22236e-06 0 8.01004e-05 -3.42426e-06 0 8.03164e-05 -6.06368e-07 0 8.01858e-05 2.20723e-06 0 7.97099e-05 4.99233e-06 0 7.88913e-05 7.72379e-06 0 7.7735e-05 1.03749e-05 0 7.62493e-05 1.29174e-05 0 7.44472e-05 1.53213e-05 0 7.23474e-05 1.75566e-05 0 6.9975e-05 1.95941e-05 0 6.73619e-05 2.14081e-05 0 6.45451e-05 2.29779e-05 0 6.15667e-05 2.42895e-05 0 5.84698e-05 2.53368e-05 0 5.52974e-05 2.6121e-05 0 5.20902e-05 2.665e-05 0 4.88854e-05 2.69369e-05 0 4.29063e-05 -3.18031e-05 0 4.65671e-05 -3.19539e-05 0 5.03015e-05 -3.18028e-05 0 5.40611e-05 -3.13245e-05 0 5.77921e-05 -3.05036e-05 0 6.14355e-05 -2.93341e-05 0 6.49311e-05 -2.78226e-05 0 6.82235e-05 -2.59868e-05 0 7.12612e-05 -2.3855e-05 0 7.40031e-05 -2.14634e-05 0 7.64181e-05 -1.88518e-05 0 7.84849e-05 -1.60607e-05 0 8.01904e-05 -1.31289e-05 0 8.15279e-05 -1.00916e-05 0 8.24944e-05 -6.98043e-06 0 8.30893e-05 -3.82355e-06 0 8.3313e-05 -6.46763e-07 0 8.31656e-05 2.52524e-06 0 8.26478e-05 5.66748e-06 0 8.17604e-05 8.75335e-06 0 8.05061e-05 1.17536e-05 0 7.88908e-05 1.46356e-05 0 7.69257e-05 1.73639e-05 0 7.46294e-05 1.99013e-05 0 7.2029e-05 2.22107e-05 0 6.91608e-05 2.4259e-05 0 6.60703e-05 2.60192e-05 0 6.28061e-05 2.74746e-05 0 5.94215e-05 2.86177e-05 0 5.59674e-05 2.94519e-05 0 5.24915e-05 2.9989e-05 0 4.90358e-05 3.0247e-05 0 4.25516e-05 -3.55515e-05 0 4.65205e-05 -3.58185e-05 0 5.05957e-05 -3.57311e-05 0 5.47212e-05 -3.52613e-05 0 5.88307e-05 -3.43858e-05 0 6.28536e-05 -3.30962e-05 0 6.6717e-05 -3.1398e-05 0 7.03474e-05 -2.93157e-05 0 7.36859e-05 -2.68872e-05 0 7.6684e-05 -2.41605e-05 0 7.93089e-05 -2.11877e-05 0 8.15411e-05 -1.802e-05 0 8.33718e-05 -1.47042e-05 0 8.47989e-05 -1.12807e-05 0 8.58245e-05 -7.78378e-06 0 8.64514e-05 -4.24255e-06 0 8.66823e-05 -6.82424e-07 0 8.65178e-05 2.87273e-06 0 8.59573e-05 6.39852e-06 0 8.49987e-05 9.86799e-06 0 8.36408e-05 1.32498e-05 0 8.18851e-05 1.65072e-05 0 7.97388e-05 1.95977e-05 0 7.72189e-05 2.24744e-05 0 7.43537e-05 2.50897e-05 0 7.11863e-05 2.73993e-05 0 6.77686e-05 2.93681e-05 0 6.41659e-05 3.09732e-05 0 6.04418e-05 3.22089e-05 0 5.66584e-05 3.3081e-05 0 5.28715e-05 3.36079e-05 0 4.9129e-05 3.38134e-05 0 4.20363e-05 -3.96238e-05 0 4.63658e-05 -4.00337e-05 0 5.08399e-05 -4.00443e-05 0 5.53949e-05 -3.96053e-05 0 5.99561e-05 -3.86859e-05 0 6.44333e-05 -3.72677e-05 0 6.87304e-05 -3.53602e-05 0 7.27626e-05 -3.29926e-05 0 7.64493e-05 -3.02182e-05 0 7.97365e-05 -2.71033e-05 0 8.25902e-05 -2.37177e-05 0 8.49962e-05 -2.01265e-05 0 8.69533e-05 -1.63861e-05 0 8.84678e-05 -1.25422e-05 0 8.9549e-05 -8.63086e-06 0 9.02054e-05 -4.68016e-06 0 9.04426e-05 -7.13207e-07 0 9.0262e-05 3.24913e-06 0 8.96609e-05 7.18514e-06 0 8.86329e-05 1.10693e-05 0 8.71705e-05 1.48696e-05 0 8.52674e-05 1.8545e-05 0 8.29239e-05 2.20448e-05 0 8.01515e-05 2.53097e-05 0 7.69798e-05 2.8276e-05 0 7.34564e-05 3.08828e-05 0 6.96539e-05 3.30812e-05 0 6.56466e-05 3.48448e-05 0 6.15203e-05 3.61648e-05 0 5.73517e-05 3.70569e-05 0 5.32059e-05 3.75478e-05 0 4.91359e-05 3.76731e-05 0 4.13352e-05 -4.40289e-05 0 4.60647e-05 -4.46581e-05 0 5.09977e-05 -4.48068e-05 0 5.60623e-05 -4.4434e-05 0 6.11632e-05 -4.34858e-05 0 6.61913e-05 -4.19378e-05 0 7.10258e-05 -3.97861e-05 0 7.55339e-05 -3.70783e-05 0 7.96257e-05 -3.38902e-05 0 8.32341e-05 -3.03162e-05 0 8.63304e-05 -2.64515e-05 0 8.89103e-05 -2.23804e-05 0 9.09866e-05 -1.81698e-05 0 9.25786e-05 -1.387e-05 0 9.37066e-05 -9.51638e-06 0 9.43866e-05 -5.13365e-06 0 9.46286e-05 -7.39506e-07 0 9.44348e-05 3.65119e-06 0 9.37997e-05 8.02247e-06 0 9.27107e-05 1.23531e-05 0 9.11505e-05 1.66125e-05 0 8.9101e-05 2.07567e-05 0 8.65491e-05 2.4726e-05 0 8.34967e-05 2.84441e-05 0 7.99679e-05 3.18237e-05 0 7.60228e-05 3.47781e-05 0 7.17413e-05 3.72381e-05 0 6.72449e-05 3.91608e-05 0 6.2639e-05 4.05518e-05 0 5.80197e-05 4.14346e-05 0 5.34628e-05 4.1855e-05 0 4.9025e-05 4.18578e-05 0 4.03522e-05 -4.88888e-05 0 4.55572e-05 -4.97415e-05 0 5.1026e-05 -5.00968e-05 0 5.66864e-05 -4.98382e-05 0 6.24429e-05 -4.88975e-05 0 6.81481e-05 -4.72064e-05 0 7.36211e-05 -4.47739e-05 0 7.87119e-05 -4.16481e-05 0 8.32708e-05 -3.79483e-05 0 8.72301e-05 -3.38173e-05 0 9.05702e-05 -2.9389e-05 0 9.33102e-05 -2.47706e-05 0 9.54849e-05 -2.00403e-05 0 9.71338e-05 -1.52496e-05 0 9.82919e-05 -1.04299e-05 0 9.89855e-05 -5.59806e-06 0 9.923e-05 -7.62564e-07 0 9.90287e-05 4.07182e-06 0 9.83725e-05 8.89886e-06 0 9.72403e-05 1.37059e-05 0 9.56017e-05 1.84677e-05 0 9.34199e-05 2.31407e-05 0 9.06607e-05 2.76561e-05 0 8.73031e-05 3.1917e-05 0 8.33625e-05 3.58001e-05 0 7.88981e-05 3.91732e-05 0 7.40495e-05 4.19266e-05 0 6.89505e-05 4.40195e-05 0 6.37672e-05 4.54474e-05 0 5.86225e-05 4.62769e-05 0 5.35982e-05 4.65752e-05 0 4.87478e-05 4.64165e-05 0 3.90881e-05 -5.4087e-05 0 4.47835e-05 -5.53672e-05 0 5.08476e-05 -5.59908e-05 0 5.72134e-05 -5.59342e-05 0 6.37627e-05 -5.50534e-05 0 7.03285e-05 -5.32579e-05 0 7.66691e-05 -5.04664e-05 0 8.24679e-05 -4.67941e-05 0 8.75685e-05 -4.24353e-05 0 9.18908e-05 -3.76115e-05 0 9.54543e-05 -3.25111e-05 0 9.83163e-05 -2.72685e-05 0 0.000100549 -2.19678e-05 0 0.000102219 -1.6656e-05 0 0.00010338 -1.1354e-05 0 0.000104072 -6.06556e-06 0 0.000104316 -7.8471e-07 0 0.000104116 4.49864e-06 0 0.00010346 9.79331e-06 0 0.000102316 1.51006e-05 0 0.000100637 2.04076e-05 0 9.836e-05 2.56769e-05 0 9.54155e-05 3.08367e-05 0 9.17455e-05 3.57652e-05 0 8.73256e-05 4.02885e-05 0 8.22287e-05 4.41992e-05 0 7.65968e-05 4.73166e-05 0 7.07323e-05 4.95368e-05 0 6.48498e-05 5.09483e-05 0 5.90992e-05 5.16463e-05 0 5.35574e-05 5.17582e-05 0 4.82629e-05 5.13589e-05 0 3.73337e-05 -6.00199e-05 0 4.36374e-05 -6.15467e-05 0 5.03796e-05 -6.25833e-05 0 5.7533e-05 -6.28396e-05 0 6.506e-05 -6.21682e-05 0 7.2745e-05 -6.02616e-05 0 8.01473e-05 -5.7055e-05 0 8.68693e-05 -5.26346e-05 0 9.25696e-05 -4.73806e-05 0 9.72345e-05 -4.16717e-05 0 0.000100955 -3.57674e-05 0 0.000103866 -2.9818e-05 0 0.000106089 -2.39021e-05 0 0.000107725 -1.80498e-05 0 0.000108851 -1.22628e-05 0 0.000109519 -6.52477e-06 0 0.000109757 -8.09641e-07 0 0.000109573 4.91305e-06 0 0.000108947 1.06726e-05 0 0.00010784 1.64919e-05 0 0.000106183 2.23787e-05 0 0.000103882 2.83153e-05 0 0.00010082 3.42377e-05 0 9.68615e-05 4.00122e-05 0 9.19134e-05 4.53973e-05 0 8.59797e-05 5.00336e-05 0 7.93908e-05 5.35593e-05 0 7.25191e-05 5.59052e-05 0 6.57871e-05 5.71507e-05 0 5.93623e-05 5.76036e-05 0 5.32679e-05 5.74306e-05 0 4.74951e-05 5.67686e-05 0 3.523e-05 -6.59966e-05 0 4.20586e-05 -6.84198e-05 0 4.94643e-05 -6.98981e-05 0 5.74778e-05 -7.06881e-05 0 6.61345e-05 -7.04602e-05 0 7.54001e-05 -6.87862e-05 0 8.45969e-05 -6.49147e-05 0 9.24889e-05 -5.92908e-05 0 9.8801e-05 -5.27576e-05 0 0.000103689 -4.59109e-05 0 0.000107433 -3.90554e-05 0 0.000110267 -3.2327e-05 0 0.000112378 -2.57678e-05 0 0.000113904 -1.93757e-05 0 0.000114943 -1.31209e-05 0 0.000115558 -6.96046e-06 0 0.000115785 -8.42161e-07 0 0.000115632 5.28933e-06 0 0.000115079 1.14901e-05 0 0.000114076 1.78111e-05 0 0.000112536 2.42937e-05 0 0.000110333 3.09548e-05 0 0.000107286 3.77706e-05 0 0.000103162 4.46252e-05 0 9.76805e-05 5.12374e-05 0 9.06796e-05 5.70352e-05 0 8.24157e-05 6.12018e-05 0 7.41113e-05 6.3317e-05 0 6.63962e-05 6.4151e-05 0 5.92885e-05 6.41582e-05 0 5.266e-05 6.3621e-05 0 4.64223e-05 6.25499e-05 0 3.23081e-05 -7.35929e-05 0 3.9907e-05 -7.57993e-05 0 4.80119e-05 -7.79761e-05 0 5.67301e-05 -7.94341e-05 0 6.6518e-05 -8.03007e-05 0 7.80339e-05 -7.93759e-05 0 9.02759e-05 -7.45782e-05 0 9.96067e-05 -6.68106e-05 0 0.00010628 -5.84001e-05 0 0.000111109 -5.01274e-05 0 0.000114631 -4.22055e-05 0 0.000117206 -3.46578e-05 0 0.00011907 -2.74633e-05 0 0.000120389 -2.05611e-05 0 0.000121276 -1.38839e-05 0 0.000121804 -7.35306e-06 0 0.000122012 -8.88105e-07 0 0.000121911 5.5961e-06 0 0.00012148 1.21848e-05 0 0.000120664 1.89662e-05 0 0.000119368 2.60215e-05 0 0.000117438 3.34296e-05 0 0.000114648 4.12329e-05 0 0.000110642 4.94336e-05 0 0.000104887 5.78455e-05 0 9.65593e-05 6.57203e-05 0 8.54006e-05 7.07631e-05 0 7.50107e-05 7.21067e-05 0 6.63806e-05 7.1873e-05 0 5.87532e-05 7.12637e-05 0 5.16727e-05 7.02609e-05 0 4.4956e-05 6.89537e-05 0 2.91914e-05 -7.97677e-05 0 3.72825e-05 -8.41201e-05 0 4.59024e-05 -8.65185e-05 0 5.50306e-05 -8.89119e-05 0 6.51206e-05 -9.09748e-05 0 7.82376e-05 -9.51209e-05 0 9.46246e-05 -8.70125e-05 0 0.000104091 -7.46515e-05 0 0.000110406 -6.38237e-05 0 0.000114603 -5.3986e-05 0 0.000117586 -4.49622e-05 0 0.000119656 -3.66371e-05 0 0.000121115 -2.8861e-05 0 0.000122116 -2.15224e-05 0 0.00012278 -1.44987e-05 0 0.00012318 -7.68003e-06 0 0.00012336 -9.52221e-07 0 0.00012333 5.7973e-06 0 0.000123074 1.26886e-05 0 0.000122542 1.98426e-05 0 0.000121633 2.7399e-05 0 0.000120212 3.54899e-05 0 0.000117991 4.42922e-05 0 0.000114678 5.39487e-05 0 0.000109368 6.46713e-05 0 0.000101037 7.70368e-05 0 8.58917e-05 8.53054e-05 0 7.41274e-05 8.1524e-05 0 6.54206e-05 8.00719e-05 0 5.77145e-05 7.86384e-05 0 5.0344e-05 7.73778e-05 0 4.32057e-05 7.55242e-05 0 2.4808e-05 -9.10905e-05 0 3.41701e-05 -9.25799e-05 0 4.34725e-05 -9.56065e-05 0 5.24923e-05 -9.81906e-05 0 6.15603e-05 -0.000101064 0 7.0875e-05 -0.000108038 0 7.95503e-05 -9.74118e-05 0 8.63434e-05 -8.1311e-05 0 9.08766e-05 -6.82692e-05 0 9.39176e-05 -5.70143e-05 0 9.59286e-05 -4.70359e-05 0 9.7269e-05 -3.80605e-05 0 9.81475e-05 -2.9827e-05 0 9.87201e-05 -2.21667e-05 0 9.90874e-05 -1.49099e-05 0 9.93193e-05 -7.91498e-06 0 9.94565e-05 -1.03831e-06 0 9.95147e-05 5.85934e-06 0 9.94844e-05 1.29282e-05 0 9.93246e-05 2.03238e-05 0 9.89617e-05 2.82346e-05 0 9.82611e-05 3.68568e-05 0 9.70335e-05 4.64793e-05 0 9.49285e-05 5.74137e-05 0 9.14978e-05 7.02026e-05 0 8.59664e-05 8.61674e-05 0 7.87325e-05 9.68178e-05 0 7.09928e-05 9.00908e-05 0 6.36691e-05 8.77943e-05 0 5.63788e-05 8.6099e-05 0 4.8842e-05 8.47581e-05 0 4.11071e-05 8.33697e-05 0 2.08831e-05 -9.50006e-05 0 3.11822e-05 -0.000103157 0 4.11559e-05 -0.000104749 0 5.01091e-05 -0.000106824 0 5.7475e-05 -0.000108996 0 6.34972e-05 -0.000115362 0 6.82462e-05 -0.000103342 0 7.15034e-05 -8.54425e-05 0 7.36491e-05 -7.09929e-05 0 7.49609e-05 -5.87627e-05 0 7.5712e-05 -4.81407e-05 0 7.6093e-05 -3.87361e-05 0 7.6251e-05 -3.02313e-05 0 7.62918e-05 -2.2406e-05 0 7.62951e-05 -1.50622e-05 0 7.63176e-05 -8.03027e-06 0 7.6397e-05 -1.14555e-06 0 7.65529e-05 5.7539e-06 0 7.67857e-05 1.28413e-05 0 7.70753e-05 2.03008e-05 0 7.73748e-05 2.83561e-05 0 7.7608e-05 3.72549e-05 0 7.76473e-05 4.73563e-05 0 7.73221e-05 5.90831e-05 0 7.63608e-05 7.30991e-05 0 7.45106e-05 9.06641e-05 0 7.13749e-05 0.000102513 0 6.72384e-05 9.62124e-05 0 6.19379e-05 9.4406e-05 0 5.53308e-05 9.33648e-05 0 4.7574e-05 9.28135e-05 0 3.90685e-05 9.05855e-05 0 1.51748e-05 -0.000118157 0 2.85309e-05 -0.000113058 0 4.0286e-05 -0.000115077 0 4.91557e-05 -0.000114451 0 5.48918e-05 -0.000114414 0 5.73616e-05 -0.000118578 0 5.76262e-05 -0.000105212 0 5.71709e-05 -8.65251e-05 0 5.65768e-05 -7.15227e-05 0 5.59111e-05 -5.89266e-05 0 5.52018e-05 -4.8055e-05 0 5.44849e-05 -3.85179e-05 0 5.38155e-05 -2.99643e-05 0 5.32469e-05 -2.21662e-05 0 5.28295e-05 -1.49043e-05 0 5.26051e-05 -7.99804e-06 0 5.26074e-05 -1.26676e-06 0 5.28597e-05 5.46446e-06 0 5.33758e-05 1.23845e-05 0 5.41585e-05 1.96941e-05 0 5.51999e-05 2.76369e-05 0 5.6481e-05 3.64844e-05 0 5.79767e-05 4.66219e-05 0 5.96623e-05 5.85027e-05 0 6.15284e-05 7.28316e-05 0 6.34986e-05 9.09539e-05 0 6.50481e-05 0.000103876 0 6.46874e-05 9.94526e-05 0 6.1526e-05 9.96485e-05 0 5.55388e-05 0.000100679 0 4.70757e-05 0.000101291 0 3.69973e-05 0.000102015 0 1.03332e-05 -0.000110874 0 2.75692e-05 -0.000130415 0 4.2067e-05 -0.000125563 0 5.16642e-05 -0.000121736 0 5.55793e-05 -0.000116864 0 5.36084e-05 -0.000117134 0 4.74215e-05 -0.000102515 0 4.28608e-05 -8.42819e-05 0 3.94909e-05 -6.97234e-05 0 3.68422e-05 -5.73631e-05 0 3.46257e-05 -4.66802e-05 0 3.27577e-05 -3.73109e-05 0 3.12048e-05 -2.89578e-05 0 2.99769e-05 -2.13884e-05 0 2.90961e-05 -1.43951e-05 0 2.85916e-05 -7.78902e-06 0 2.84929e-05 -1.3878e-06 0 2.88281e-05 4.99082e-06 0 2.96244e-05 1.15406e-05 0 3.09084e-05 1.84668e-05 0 3.27103e-05 2.60172e-05 0 3.50673e-05 3.4457e-05 0 3.80457e-05 4.41605e-05 0 4.17479e-05 5.55226e-05 0 4.64579e-05 6.9162e-05 0 5.26442e-05 8.65322e-05 0 6.07488e-05 0.000100396 0 6.5047e-05 9.94801e-05 0 6.40443e-05 0.000103718 0 5.8236e-05 0.000108136 0 4.82698e-05 0.000112273 0 3.55299e-05 0.000110041 0 5.05208e-06 -0.000176197 0 2.98641e-05 -0.000144011 0 4.90187e-05 -0.000140745 0 5.99088e-05 -0.000127752 0 6.20231e-05 -0.000116948 0 5.63977e-05 -0.000107736 0 4.45565e-05 -9.41558e-05 0 3.70755e-05 -7.90877e-05 0 3.13912e-05 -6.57359e-05 0 2.70114e-05 -5.41529e-05 0 2.33617e-05 -4.40031e-05 0 2.03709e-05 -3.50985e-05 0 1.7921e-05 -2.71701e-05 0 1.60105e-05 -2.00392e-05 0 1.46362e-05 -1.34987e-05 0 1.3822e-05 -7.37555e-06 0 1.35939e-05 -1.48503e-06 0 1.39851e-05 4.35045e-06 0 1.50358e-05 1.03215e-05 0 1.67908e-05 1.66299e-05 0 1.93197e-05 2.35047e-05 0 2.26895e-05 3.12035e-05 0 2.70587e-05 4.00319e-05 0 3.25299e-05 5.03245e-05 0 3.96327e-05 6.24147e-05 0 4.88474e-05 7.63907e-05 0 6.26086e-05 8.88921e-05 0 7.05831e-05 9.68723e-05 0 7.13892e-05 0.000106552 0 6.52431e-05 0.000117231 0 5.24209e-05 0.000124687 0 3.47567e-05 0.000133375 0 -6.76961e-06 -0.000125762 0 3.7558e-05 -0.000184393 0 6.63906e-05 -0.000154737 0 7.6008e-05 -0.000134012 0 7.59699e-05 -0.000114011 0 6.88593e-05 -9.87979e-05 0 6.0186e-05 -8.5019e-05 0 5.15011e-05 -7.18952e-05 0 4.44729e-05 -6.00619e-05 0 3.85616e-05 -4.9439e-05 0 3.36949e-05 -4.01348e-05 0 2.96192e-05 -3.18819e-05 0 2.63035e-05 -2.46065e-05 0 2.36962e-05 -1.80893e-05 0 2.18103e-05 -1.21922e-05 0 2.06573e-05 -6.72525e-06 0 2.02674e-05 -1.52832e-06 0 2.06764e-05 3.57838e-06 0 2.19324e-05 8.76805e-06 0 2.41018e-05 1.42332e-05 0 2.72672e-05 2.01743e-05 0 3.15529e-05 2.68284e-05 0 3.70945e-05 3.44412e-05 0 4.41207e-05 4.33023e-05 0 5.27756e-05 5.36074e-05 0 6.32437e-05 6.53335e-05 0 7.40134e-05 7.79475e-05 0 8.26913e-05 9.17963e-05 0 8.55058e-05 0.000108683 0 7.95603e-05 0.000127334 0 6.15829e-05 0.000146065 0 3.4027e-05 0.000142511 0 2.62765e-06 -0.000345586 0 6.70446e-05 -0.000208404 0 9.80952e-05 -0.000178716 0 0.000105226 -0.000132869 0 9.45775e-05 -0.000107172 0 8.42665e-05 -8.89286e-05 0 7.24638e-05 -7.52216e-05 0 6.30748e-05 -6.35795e-05 0 5.45776e-05 -5.29268e-05 0 4.76291e-05 -4.35576e-05 0 4.15831e-05 -3.51068e-05 0 3.65546e-05 -2.77532e-05 0 3.23682e-05 -2.12437e-05 0 2.9075e-05 -1.55432e-05 0 2.66525e-05 -1.04415e-05 0 2.51363e-05 -5.8131e-06 0 2.4547e-05 -1.47526e-06 0 2.49258e-05 2.721e-06 0 2.63255e-05 6.94614e-06 0 2.88194e-05 1.13589e-05 0 3.2516e-05 1.61445e-05 0 3.75458e-05 2.14845e-05 0 4.41076e-05 2.76184e-05 0 5.23698e-05 3.4771e-05 0 6.25831e-05 4.32857e-05 0 7.45501e-05 5.35164e-05 0 8.79481e-05 6.62886e-05 0 0.000100329 8.34553e-05 0 0.000108984 0.00010728 0 0.000105686 0.000140663 0 8.25039e-05 0.000171304 0 3.75657e-05 0.000208826 0 -7.2185e-05 -0.00019839 0 0.000131348 -0.000322345 0 0.000174504 -0.000173981 0 0.000137543 -0.000120621 0 0.000119118 -9.04624e-05 0 9.67793e-05 -7.53473e-05 0 8.52189e-05 -6.40032e-05 0 7.30158e-05 -5.38647e-05 0 6.43921e-05 -4.49148e-05 0 5.6024e-05 -3.64652e-05 0 4.92268e-05 -2.91635e-05 0 4.31326e-05 -2.2655e-05 0 3.81664e-05 -1.71415e-05 0 3.41349e-05 -1.23537e-05 0 3.1176e-05 -8.24268e-06 0 2.92592e-05 -4.59553e-06 0 2.84373e-05 -1.29019e-06 0 2.8733e-05 1.84259e-06 0 3.02005e-05 4.93091e-06 0 3.29222e-05 8.12462e-06 0 3.69979e-05 1.15496e-05 0 4.26177e-05 1.53761e-05 0 4.99319e-05 1.97485e-05 0 5.93313e-05 2.49406e-05 0 7.08836e-05 3.12355e-05 0 8.53433e-05 3.93573e-05 0 0.000101988 5.06088e-05 0 0.000122289 6.77795e-05 0 0.000141579 9.72496e-05 0 0.000155976 0.00014618 0 0.000128169 0.000226324 0 2.96933e-05 0.00023681 0 0.000174854 -0.00106924 0 0.000456074 -0.000344755 0 0.000228486 -0.000116945 0 0.000197044 -7.30005e-05 0 0.000116499 -6.47334e-05 0 0.000115919 -5.81921e-05 0 8.89184e-05 -5.14291e-05 0 8.44871e-05 -4.36698e-05 0 7.09589e-05 -3.58784e-05 0 6.41517e-05 -2.85955e-05 0 5.51794e-05 -2.21552e-05 0 4.87734e-05 -1.6715e-05 0 4.26096e-05 -1.22083e-05 0 3.8008e-05 -8.54556e-06 0 3.43919e-05 -5.54483e-06 0 3.2096e-05 -3.05861e-06 0 3.09886e-05 -9.20304e-07 0 3.11562e-05 9.97582e-07 0 3.26224e-05 2.821e-06 0 3.54363e-05 4.64677e-06 0 3.9785e-05 6.57789e-06 0 4.56755e-05 8.6974e-06 0 5.36884e-05 1.11244e-05 0 6.3481e-05 1.39834e-05 0 7.68978e-05 1.75442e-05 0 9.20176e-05 2.22611e-05 0 0.000115192 2.93194e-05 0 0.000138943 4.12088e-05 0 0.000185181 6.52863e-05 0 0.000227225 0.000122007 0 0.000281253 0.000281372 0 6.32757e-05 0.000530857 0 -0.00421961 -0.0148704 0 0.000307543 0.00178263 0 0.000900469 -0.000243974 0 -0.000225495 8.27605e-05 0 0.000340571 -6.61143e-05 0 -4.00497e-06 -3.60332e-05 0 0.000159927 -3.90311e-05 0 5.79866e-05 -3.5773e-05 0 9.55532e-05 -2.42416e-05 0 6.18401e-05 -2.12944e-05 0 6.50526e-05 -1.32003e-05 0 5.09915e-05 -1.03763e-05 0 4.71356e-05 -6.11142e-06 0 4.01633e-05 -4.24836e-06 0 3.67129e-05 -2.24097e-06 0 3.3624e-05 -1.22598e-06 0 3.23887e-05 -3.08227e-07 0 3.23314e-05 2.32467e-07 0 3.37006e-05 7.13065e-07 0 3.66209e-05 1.05888e-06 0 4.07734e-05 1.42674e-06 0 4.7349e-05 1.70141e-06 0 5.4352e-05 2.10932e-06 0 6.69202e-05 2.3346e-06 0 7.56618e-05 2.7471e-06 0 0.000102108 3.37818e-06 0 0.000106199 2.44377e-06 0 0.000175627 8.5774e-06 0 0.000154805 -5.59025e-06 0 0.000382269 5.41376e-05 0 0.000572113 -0.000140033 0 -0.000636055 0.00373252 0 </DataArray> 
</PointData> 
<Points> 
<DataArray type="Float32" NumberOfComponents="3"> 