<?xml version="1.0"?> 
<VTKFile type="StructuredGrid" version="0.1"> 
<StructuredGrid WholeExtent="0 31 0 31 0 0"> 
<Piece Extent="0 31 0 31 0 0"> 
<PointData>
<DataArray type="Float32" Name="B" format="ascii" NumberOfComponents="3"> 
0 -0 0 -5.43281e-07 -0 0 -1.08986e-06 -0 0 -1.64304e-06 -0 0 -2.20613e-06 -0 0 -2.78244e-06 -0 0 -3.3753e-06 -0 0 -3.98805e-06 -0 0 -4.62402e-06 -0 0 -5.28657e-06 -0 0 -5.97901e-06 -0 0 -6.70465e-06 -0 0 -7.46675e-06 -0 0 -8.2685e-06 -0 0 -9.113e-06 -0 0 -1.00032e-05 -0 0 -1.09419e-05 -0 0 -1.19316e-05 -0 0 -1.29745e-05 -0 0 -1.40725e-05 -0 0 -1.52271e-05 -0 0 -1.6439e-05 -0 0 -1.77084e-05 -0 0 -1.90347e-05 -0 0 -2.04166e-05 -0 0 -2.18514e-05 -0 0 -2.33357e-05 -0 0 -2.48647e-05 -0 0 -2.64321e-05 -0 0 -2.80304e-05 -0 0 -2.96508e-05 -0 0 -3.12828e-05 -0 0 -1.36432e-21 5.42182e-07 0 -5.41633e-07 5.43831e-07 0 -1.08656e-06 5.48778e-07 0 -1.63809e-06 5.57028e-07 0 -2.19951e-06 5.68591e-07 0 -2.77416e-06 5.83476e-07 0 -3.36536e-06 6.01692e-07 0 -3.97643e-06 6.23248e-07 0 -4.61074e-06 6.48147e-07 0 -5.27162e-06 6.76385e-07 0 -5.9624e-06 7.07944e-07 0 -6.68641e-06 7.42793e-07 0 -7.44691e-06 7.80878e-07 0 -8.24712e-06 8.22116e-07 0 -9.09014e-06 8.66393e-07 0 -9.97895e-06 9.13551e-07 0 -1.09164e-05 9.63383e-07 0 -1.19049e-05 1.01562e-06 0 -1.29469e-05 1.06993e-06 0 -1.40443e-05 1.1259e-06 0 -1.51984e-05 1.18302e-06 0 -1.64101e-05 1.24069e-06 0 -1.76798e-05 1.29821e-06 0 -1.90069e-05 1.35474e-06 0 -2.039e-05 1.40935e-06 0 -2.18266e-05 1.46097e-06 0 -2.33133e-05 1.50842e-06 0 -2.48453e-05 1.55043e-06 0 -2.64165e-05 1.58562e-06 0 -2.80193e-05 1.61259e-06 0 -2.96449e-05 1.62987e-06 0 -3.12828e-05 1.63608e-06 0 -2.24076e-21 1.08107e-06 0 -5.36689e-07 1.08436e-06 0 -1.07667e-06 1.09425e-06 0 -1.62323e-06 1.11075e-06 0 -2.17969e-06 1.13386e-06 0 -2.74934e-06 1.16362e-06 0 -3.33553e-06 1.20004e-06 0 -3.94159e-06 1.24315e-06 0 -4.57088e-06 1.29295e-06 0 -5.22676e-06 1.34944e-06 0 -5.91257e-06 1.4126e-06 0 -6.63167e-06 1.48235e-06 0 -7.38736e-06 1.5586e-06 0 -8.1829e-06 1.64119e-06 0 -9.02145e-06 1.7299e-06 0 -9.90606e-06 1.82442e-06 0 -1.08396e-05 1.92435e-06 0 -1.18248e-05 2.02916e-06 0 -1.28639e-05 2.13819e-06 0 -1.39591e-05 2.25063e-06 0 -1.51119e-05 2.36547e-06 0 -1.63233e-05 2.48152e-06 0 -1.75937e-05 2.59738e-06 0 -1.89229e-05 2.71139e-06 0 -2.03096e-05 2.82166e-06 0 -2.17515e-05 2.92608e-06 0 -2.32454e-05 3.02227e-06 0 -2.47865e-05 3.10766e-06 0 -2.6369e-05 3.17948e-06 0 -2.79852e-05 3.23485e-06 0 -2.96264e-05 3.27085e-06 0 -3.1282e-05 3.28462e-06 0 0 1.61337e-06 0 -5.28455e-07 1.6183e-06 0 -1.06019e-06 1.63312e-06 0 -1.59849e-06 1.65784e-06 0 -2.14665e-06 1.69249e-06 0 -2.70799e-06 1.7371e-06 0 -3.28583e-06 1.79171e-06 0 -3.88353e-06 1.85636e-06 0 -4.50444e-06 1.93107e-06 0 -5.15195e-06 2.01584e-06 0 -5.82945e-06 2.11064e-06 0 -6.54033e-06 2.21539e-06 0 -7.28795e-06 2.32996e-06 0 -8.07564e-06 2.45413e-06 0 -8.90667e-06 2.58757e-06 0 -9.7842e-06 2.72986e-06 0 -1.07112e-05 2.88041e-06 0 -1.16906e-05 3.03845e-06 0 -1.27249e-05 3.20302e-06 0 -1.38162e-05 3.37292e-06 0 -1.49666e-05 3.54667e-06 0 -1.61772e-05 3.72252e-06 0 -1.74488e-05 3.89835e-06 0 -1.87813e-05 4.07172e-06 0 -2.01738e-05 4.2398e-06 0 -2.16244e-05 4.39939e-06 0 -2.313e-05 4.5469e-06 0 -2.46862e-05 4.67843e-06 0 -2.62873e-05 4.78977e-06 0 -2.7926e-05 4.8765e-06 0 -2.95933e-05 4.93412e-06 0 -3.12785e-05 4.9582e-06 0 -8.42218e-23 2.13579e-06 0 -5.16941e-07 2.14237e-06 0 -1.03715e-06 2.16209e-06 0 -1.56389e-06 2.19501e-06 0 -2.10045e-06 2.24115e-06 0 -2.65014e-06 2.30057e-06 0 -3.21629e-06 2.37334e-06 0 -3.80224e-06 2.45951e-06 0 -4.41139e-06 2.55912e-06 0 -5.04715e-06 2.6722e-06 0 -5.71295e-06 2.79872e-06 0 -6.41224e-06 2.93861e-06 0 -7.14846e-06 3.09171e-06 0 -7.92504e-06 3.25776e-06 0 -8.74538e-06 3.43638e-06 0 -9.61279e-06 3.62702e-06 0 -1.05305e-05 3.82894e-06 0 -1.15015e-05 4.04117e-06 0 -1.25286e-05 4.26247e-06 0 -1.36144e-05 4.4913e-06 0 -1.4761e-05 4.72573e-06 0 -1.59701e-05 4.96346e-06 0 -1.72428e-05 5.20173e-06 0 -1.85795e-05 5.43728e-06 0 -1.99797e-05 5.66637e-06 0 -2.1442e-05 5.88471e-06 0 -2.29637e-05 6.08747e-06 0 -2.45408e-05 6.26936e-06 0 -2.61679e-05 6.42465e-06 0 -2.78379e-05 6.54727e-06 0 -2.95419e-05 6.63099e-06 0 -3.1269e-05 6.66967e-06 0 -7.95975e-21 2.64507e-06 0 -5.02165e-07 2.65327e-06 0 -1.00757e-06 2.67789e-06 0 -1.51947e-06 2.71895e-06 0 -2.04113e-06 2.77653e-06 0 -2.57584e-06 2.8507e-06 0 -3.12694e-06 2.94156e-06 0 -3.69777e-06 3.0492e-06 0 -4.29175e-06 3.1737e-06 0 -4.91232e-06 3.3151e-06 0 -5.56296e-06 3.47342e-06 0 -6.24721e-06 3.6486e-06 0 -6.96859e-06 3.84049e-06 0 -7.73067e-06 4.04881e-06 0 -8.537e-06 4.27313e-06 0 -9.39108e-06 4.51285e-06 0 -1.02964e-05 4.76711e-06 0 -1.12561e-05 5.03476e-06 0 -1.22736e-05 5.31434e-06 0 -1.33516e-05 5.604e-06 0 -1.44927e-05 5.90142e-06 0 -1.56992e-05 6.20379e-06 0 -1.69726e-05 6.50773e-06 0 -1.8314e-05 6.80923e-06 0 -1.97233e-05 7.10361e-06 0 -2.11999e-05 7.38551e-06 0 -2.27416e-05 7.64884e-06 0 -2.43451e-05 7.88685e-06 0 -2.60054e-05 8.09217e-06 0 -2.77155e-05 8.25694e-06 0 -2.94669e-05 8.37302e-06 0 -3.12486e-05 8.43229e-06 0 -4.83363e-21 3.13796e-06 0 -4.84148e-07 3.14777e-06 0 -9.71506e-07 3.17723e-06 0 -1.46529e-06 3.22638e-06 0 -1.96876e-06 3.29532e-06 0 -2.48517e-06 3.38415e-06 0 -3.01785e-06 3.49301e-06 0 -3.57016e-06 3.62203e-06 0 -4.14552e-06 3.77135e-06 0 -4.74741e-06 3.94107e-06 0 -5.37939e-06 4.13125e-06 0 -6.04504e-06 4.34186e-06 0 -6.74802e-06 4.5728e-06 0 -7.49205e-06 4.82381e-06 0 -8.28085e-06 5.09446e-06 0 -9.11816e-06 5.38411e-06 0 -1.00077e-05 5.69182e-06 0 -1.09531e-05 6.01636e-06 0 -1.1958e-05 6.35607e-06 0 -1.30256e-05 6.70885e-06 0 -1.41591e-05 7.07206e-06 0 -1.53613e-05 7.44245e-06 0 -1.66345e-05 7.81606e-06 0 -1.79802e-05 8.18817e-06 0 -1.93996e-05 8.55322e-06 0 -2.08925e-05 8.90477e-06 0 -2.24576e-05 9.23544e-06 0 -2.40924e-05 9.53695e-06 0 -2.57925e-05 9.80018e-06 0 -2.75516e-05 1.00153e-05 0 -2.93612e-05 1.0172e-05 0 -3.12104e-05 1.02598e-05 0 0 3.61123e-06 0 -4.62922e-07 3.62264e-06 0 -9.29012e-07 3.65688e-06 0 -1.40145e-06 3.71403e-06 0 -1.88344e-06 3.79421e-06 0 -2.37824e-06 3.89757e-06 0 -2.88914e-06 4.02429e-06 0 -3.4195e-06 4.17457e-06 0 -3.97277e-06 4.34861e-06 0 -4.55244e-06 4.54658e-06 0 -5.16214e-06 4.76862e-06 0 -5.80554e-06 5.01478e-06 0 -6.48642e-06 5.28501e-06 0 -7.20866e-06 5.57913e-06 0 -7.97618e-06 5.89675e-06 0 -8.793e-06 6.23723e-06 0 -9.66314e-06 6.59965e-06 0 -1.05906e-05 6.9827e-06 0 -1.15795e-05 7.38463e-06 0 -1.26336e-05 7.80317e-06 0 -1.37568e-05 8.23542e-06 0 -1.49523e-05 8.67775e-06 0 -1.62235e-05 9.12574e-06 0 -1.75728e-05 9.57401e-06 0 -1.90021e-05 1.00162e-05 0 -2.05125e-05 1.04448e-05 0 -2.21037e-05 1.08511e-05 0 -2.37741e-05 1.12252e-05 0 -2.55203e-05 1.15562e-05 0 -2.73368e-05 1.18321e-05 0 -2.92155e-05 1.20399e-05 0 -3.11457e-05 1.21667e-05 0 0 4.0617e-06 0 -4.38532e-07 4.07467e-06 0 -8.80175e-07 4.11363e-06 0 -1.32806e-06 4.17866e-06 0 -1.78534e-06 4.26993e-06 0 -2.25522e-06 4.38763e-06 0 -2.74098e-06 4.53201e-06 0 -3.24597e-06 4.70334e-06 0 -3.77362e-06 4.90192e-06 0 -4.32747e-06 5.12801e-06 0 -4.9112e-06 5.38185e-06 0 -5.52856e-06 5.66359e-06 0 -6.18348e-06 5.97332e-06 0 -6.87998e-06 6.31092e-06 0 -7.62224e-06 6.67612e-06 0 -8.41452e-06 7.06836e-06 0 -9.26122e-06 7.48677e-06 0 -1.01668e-05 7.93007e-06 0 -1.11358e-05 8.39649e-06 0 -1.21726e-05 8.88367e-06 0 -1.32819e-05 9.38854e-06 0 -1.44677e-05 9.90725e-06 0 -1.57343e-05 1.0435e-05 0 -1.70852e-05 1.09658e-05 0 -1.85235e-05 1.14926e-05 0 -2.00514e-05 1.20068e-05 0 -2.16702e-05 1.24986e-05 0 -2.33796e-05 1.29565e-05 0 -2.51774e-05 1.33673e-05 0 -2.70593e-05 1.37167e-05 0 -2.90179e-05 1.3989e-05 0 -3.10428e-05 1.4168e-05 0 0 4.48623e-06 0 -4.11033e-07 4.50074e-06 0 -8.25105e-07 4.54431e-06 0 -1.24527e-06 4.61707e-06 0 -1.67463e-06 4.71922e-06 0 -2.11634e-06 4.85101e-06 0 -2.57361e-06 5.01277e-06 0 -3.04978e-06 5.20488e-06 0 -3.54828e-06 5.42772e-06 0 -4.07266e-06 5.68168e-06 0 -4.62663e-06 5.96714e-06 0 -5.21406e-06 6.28441e-06 0 -5.83898e-06 6.6337e-06 0 -6.50558e-06 7.01507e-06 0 -7.21828e-06 7.42839e-06 0 -7.98164e-06 7.87325e-06 0 -8.80043e-06 8.34892e-06 0 -9.67956e-06 8.85422e-06 0 -1.06241e-05 9.38747e-06 0 -1.16393e-05 9.94632e-06 0 -1.27303e-05 1.05277e-05 0 -1.39024e-05 1.11276e-05 0 -1.51606e-05 1.17409e-05 0 -1.651e-05 1.23613e-05 0 -1.79549e-05 1.29812e-05 0 -1.94993e-05 1.35911e-05 0 -2.11459e-05 1.41799e-05 0 -2.28962e-05 1.47345e-05 0 -2.475e-05 1.52397e-05 0 -2.67044e-05 1.56784e-05 0 -2.87534e-05 1.60317e-05 0 -3.08874e-05 1.62795e-05 0 0 4.88174e-06 0 -3.80499e-07 4.89775e-06 0 -7.63945e-07 4.94582e-06 0 -1.15331e-06 5.02611e-06 0 -1.5516e-06 5.13887e-06 0 -1.96189e-06 5.28442e-06 0 -2.38737e-06 5.4632e-06 0 -2.83129e-06 5.67568e-06 0 -3.29707e-06 5.92238e-06 0 -3.78828e-06 6.20385e-06 0 -4.30865e-06 6.52062e-06 0 -4.86211e-06 6.87319e-06 0 -5.45281e-06 7.26196e-06 0 -6.08513e-06 7.68723e-06 0 -6.76368e-06 8.14906e-06 0 -7.49336e-06 8.64727e-06 0 -8.27931e-06 9.18135e-06 0 -9.12692e-06 9.75033e-06 0 -1.00419e-05 1.03527e-05 0 -1.10301e-05 1.09863e-05 0 -1.20976e-05 1.16481e-05 0 -1.32507e-05 1.23342e-05 0 -1.44958e-05 1.30394e-05 0 -1.58392e-05 1.37572e-05 0 -1.72869e-05 1.44795e-05 0 -1.88446e-05 1.51962e-05 0 -2.05174e-05 1.5895e-05 0 -2.2309e-05 1.65615e-05 0 -2.42214e-05 1.71782e-05 0 -2.62541e-05 1.77253e-05 0 -2.84033e-05 1.81799e-05 0 -3.06604e-05 1.85176e-05 0 0 5.24526e-06 0 -3.47022e-07 5.26271e-06 0 -6.96877e-07 5.31513e-06 0 -1.05242e-06 5.4027e-06 0 -1.41657e-06 5.52572e-06 0 -1.7923e-06 5.68463e-06 0 -2.18269e-06 5.87994e-06 0 -2.59096e-06 6.11226e-06 0 -3.02048e-06 6.38227e-06 0 -3.47477e-06 6.6907e-06 0 -3.9576e-06 7.03828e-06 0 -4.47295e-06 7.42573e-06 0 -5.02506e-06 7.85371e-06 0 -5.61847e-06 8.32277e-06 0 -6.25801e-06 8.83328e-06 0 -6.94886e-06 9.38535e-06 0 -7.69656e-06 9.97878e-06 0 -8.50699e-06 1.06129e-05 0 -9.38643e-06 1.12866e-05 0 -1.03415e-05 1.19979e-05 0 -1.13793e-05 1.27441e-05 0 -1.25072e-05 1.35215e-05 0 -1.37327e-05 1.43251e-05 0 -1.50639e-05 1.51484e-05 0 -1.65086e-05 1.5983e-05 0 -1.80748e-05 1.68186e-05 0 -1.97699e-05 1.76422e-05 0 -2.16006e-05 1.84377e-05 0 -2.35719e-05 1.91861e-05 0 -2.56867e-05 1.98642e-05 0 -2.79442e-05 2.04452e-05 0 -3.03384e-05 2.08994e-05 0 0 5.5739e-06 0 -3.10716e-07 5.59273e-06 0 -6.24127e-07 5.64931e-06 0 -9.42954e-07 5.74384e-06 0 -1.26998e-06 5.87672e-06 0 -1.60806e-06 6.04845e-06 0 -1.96017e-06 6.25968e-06 0 -2.32943e-06 6.51116e-06 0 -2.71913e-06 6.80376e-06 0 -3.13277e-06 7.1384e-06 0 -3.57408e-06 7.51605e-06 0 -4.04708e-06 7.93772e-06 0 -4.55608e-06 8.40436e-06 0 -5.10574e-06 8.91683e-06 0 -5.70109e-06 9.47588e-06 0 -6.34759e-06 1.0082e-05 0 -7.05113e-06 1.07354e-05 0 -7.8181e-06 1.14359e-05 0 -8.65538e-06 1.21827e-05 0 -9.57037e-06 1.29744e-05 0 -1.0571e-05 1.38087e-05 0 -1.16659e-05 1.46824e-05 0 -1.28641e-05 1.55908e-05 0 -1.4175e-05 1.65278e-05 0 -1.56089e-05 1.74852e-05 0 -1.71759e-05 1.84526e-05 0 -1.88866e-05 1.94167e-05 0 -2.0751e-05 2.03606e-05 0 -2.27784e-05 2.12635e-05 0 -2.49759e-05 2.20994e-05 0 -2.73472e-05 2.28373e-05 0 -2.98904e-05 2.3441e-05 0 2.44283e-21 5.86491e-06 0 -2.7172e-07 5.88504e-06 0 -5.45968e-07 5.94554e-06 0 -8.25304e-07 6.04667e-06 0 -1.11235e-06 6.18888e-06 0 -1.40981e-06 6.37279e-06 0 -1.72052e-06 6.59918e-06 0 -2.04749e-06 6.86896e-06 0 -2.39388e-06 7.18321e-06 0 -2.76314e-06 7.54307e-06 0 -3.15893e-06 7.94982e-06 0 -3.58527e-06 8.40474e-06 0 -4.0465e-06 8.90914e-06 0 -4.54737e-06 9.46429e-06 0 -5.09309e-06 1.00714e-05 0 -5.68935e-06 1.07313e-05 0 -6.34238e-06 1.14449e-05 0 -7.059e-06 1.22124e-05 0 -7.8467e-06 1.30337e-05 0 -8.71363e-06 1.39081e-05 0 -9.66867e-06 1.48338e-05 0 -1.07215e-05 1.58083e-05 0 -1.18826e-05 1.68277e-05 0 -1.31633e-05 1.78864e-05 0 -1.45759e-05 1.89769e-05 0 -1.61333e-05 2.00894e-05 0 -1.78493e-05 2.12107e-05 0 -1.97383e-05 2.23239e-05 0 -2.18142e-05 2.34069e-05 0 -2.40903e-05 2.44318e-05 0 -2.65768e-05 2.53632e-05 0 -2.9279e-05 2.61586e-05 0 2.16594e-20 6.11566e-06 0 -2.30201e-07 6.13701e-06 0 -4.62733e-07 6.20117e-06 0 -6.99963e-07 6.30845e-06 0 -9.44319e-07 6.45938e-06 0 -1.19833e-06 6.65469e-06 0 -1.46466e-06 6.8953e-06 0 -1.74615e-06 7.18233e-06 0 -2.04583e-06 7.51705e-06 0 -2.36702e-06 7.90089e-06 0 -2.7133e-06 8.33541e-06 0 -3.08863e-06 8.82226e-06 0 -3.49735e-06 9.36315e-06 0 -3.94425e-06 9.9598e-06 0 -4.43465e-06 1.06139e-05 0 -4.97444e-06 1.13269e-05 0 -5.57012e-06 1.21003e-05 0 -6.22895e-06 1.2935e-05 0 -6.95892e-06 1.38316e-05 0 -7.76889e-06 1.47902e-05 0 -8.66864e-06 1.58099e-05 0 -9.66896e-06 1.68891e-05 0 -1.07817e-05 1.80248e-05 0 -1.202e-05 1.92126e-05 0 -1.33982e-05 2.04462e-05 0 -1.49321e-05 2.17167e-05 0 -1.66392e-05 2.30121e-05 0 -1.85383e-05 2.43162e-05 0 -2.06495e-05 2.56073e-05 0 -2.29934e-05 2.68563e-05 0 -2.55895e-05 2.80246e-05 0 -2.84522e-05 2.90619e-05 0 3.98989e-21 6.32376e-06 0 -1.86355e-07 6.34621e-06 0 -3.74813e-07 6.41371e-06 0 -5.67512e-07 6.52661e-06 0 -7.66658e-07 6.68553e-06 0 -9.74563e-07 6.89131e-06 0 -1.19368e-06 7.14504e-06 0 -1.42665e-06 7.44802e-06 0 -1.67633e-06 7.80178e-06 0 -1.94586e-06 8.20804e-06 0 -2.2387e-06 8.66867e-06 0 -2.55869e-06 9.18574e-06 0 -2.9101e-06 9.76139e-06 0 -3.29773e-06 1.03979e-05 0 -3.72694e-06 1.10974e-05 0 -4.20374e-06 1.18622e-05 0 -4.73487e-06 1.26943e-05 0 -5.3279e-06 1.35956e-05 0 -5.9913e-06 1.45675e-05 0 -6.73455e-06 1.5611e-05 0 -7.56824e-06 1.67263e-05 0 -8.50417e-06 1.79131e-05 0 -9.55551e-06 1.91696e-05 0 -1.0737e-05 2.04928e-05 0 -1.2065e-05 2.1878e-05 0 -1.35581e-05 2.33183e-05 0 -1.52373e-05 2.48038e-05 0 -1.71263e-05 2.63204e-05 0 -1.92519e-05 2.78483e-05 0 -2.16438e-05 2.93597e-05 0 -2.43334e-05 3.08145e-05 0 -2.73526e-05 3.21605e-05 0 0 6.48698e-06 0 -1.40411e-07 6.51042e-06 0 -2.82663e-07 6.58088e-06 0 -4.28631e-07 6.69879e-06 0 -5.80263e-07 6.86485e-06 0 -7.39614e-07 7.08002e-06 0 -9.08889e-07 7.34556e-06 0 -1.09048e-06 7.66298e-06 0 -1.28703e-06 8.03406e-06 0 -1.50145e-06 8.46083e-06 0 -1.73701e-06 8.94553e-06 0 -1.99739e-06 9.49065e-06 0 -2.28674e-06 1.00988e-05 0 -2.60975e-06 1.07729e-05 0 -2.97176e-06 1.15156e-05 0 -3.37884e-06 1.23301e-05 0 -3.83786e-06 1.32191e-05 0 -4.35664e-06 1.41855e-05 0 -4.94401e-06 1.52316e-05 0 -5.60998e-06 1.63597e-05 0 -6.36582e-06 1.75712e-05 0 -7.22423e-06 1.88671e-05 0 -8.19949e-06 2.02473e-05 0 -9.3077e-06 2.17105e-05 0 -1.05671e-05 2.32543e-05 0 -1.19986e-05 2.48742e-05 0 -1.36262e-05 2.65635e-05 0 -1.54782e-05 2.83119e-05 0 -1.75883e-05 3.01042e-05 0 -1.99962e-05 3.19167e-05 0 -2.27484e-05 3.37132e-05 0 -2.58929e-05 3.54343e-05 0 0 6.60336e-06 0 -9.26331e-08 6.62764e-06 0 -1.86809e-07 6.70066e-06 0 -2.84105e-07 6.82288e-06 0 -3.86173e-07 6.99509e-06 0 -4.94773e-07 7.2184e-06 0 -6.11817e-07 7.49424e-06 0 -7.39414e-07 7.82432e-06 0 -8.79915e-07 8.21069e-06 0 -1.03597e-06 8.65571e-06 0 -1.2106e-06 9.16201e-06 0 -1.40723e-06 9.73252e-06 0 -1.62981e-06 1.03704e-05 0 -1.88288e-06 1.10791e-05 0 -2.17166e-06 1.18622e-05 0 -2.50215e-06 1.27234e-05 0 -2.88128e-06 1.36666e-05 0 -3.31697e-06 1.46955e-05 0 -3.81834e-06 1.58138e-05 0 -4.39578e-06 1.70248e-05 0 -5.06111e-06 1.83316e-05 0 -5.82774e-06 1.97367e-05 0 -6.71086e-06 2.12417e-05 0 -7.72768e-06 2.28475e-05 0 -8.89772e-06 2.45541e-05 0 -1.02435e-05 2.63601e-05 0 -1.17914e-05 2.82631e-05 0 -1.35732e-05 3.02583e-05 0 -1.56281e-05 3.23376e-05 0 -1.80054e-05 3.44868e-05 0 -2.07677e-05 3.66785e-05 0 -2.39974e-05 3.88747e-05 0 5.32716e-21 6.67122e-06 0 -4.33184e-08 6.69619e-06 0 -8.78459e-08 6.77128e-06 0 -1.34827e-07 6.89702e-06 0 -1.85577e-07 7.07429e-06 0 -2.41521e-07 7.30433e-06 0 -3.04235e-07 7.58871e-06 0 -3.7549e-07 7.92941e-06 0 -4.57304e-07 8.32874e-06 0 -5.51997e-07 8.78936e-06 0 -6.62257e-07 9.31434e-06 0 -7.91213e-07 9.90705e-06 0 -9.42518e-07 1.05712e-05 0 -1.12044e-06 1.1311e-05 0 -1.32999e-06 1.21306e-05 0 -1.57701e-06 1.30348e-05 0 -1.86831e-06 1.40283e-05 0 -2.21186e-06 1.51161e-05 0 -2.61686e-06 1.63031e-05 0 -3.09395e-06 1.75941e-05 0 -3.65538e-06 1.89937e-05 0 -4.31509e-06 2.05062e-05 0 -5.08896e-06 2.21351e-05 0 -5.99489e-06 2.38835e-05 0 -7.05325e-06 2.57541e-05 0 -8.28723e-06 2.77489e-05 0 -9.7241e-06 2.987e-05 0 -1.13968e-05 3.21196e-05 0 -1.33475e-05 3.44996e-05 0 -1.56322e-05 3.701e-05 0 -1.83278e-05 3.96449e-05 0 -2.153e-05 4.23618e-05 0 2.33609e-20 6.68919e-06 0 7.19961e-09 6.71467e-06 0 1.35585e-08 6.79132e-06 0 1.82024e-08 6.9197e-06 0 2.01884e-08 7.10079e-06 0 1.8468e-08 7.33595e-06 0 1.18472e-08 7.62694e-06 0 -1.05873e-09 7.97594e-06 0 -2.18757e-08 8.38554e-06 0 -5.25288e-08 8.85873e-06 0 -9.53091e-08 9.39898e-06 0 -1.52951e-07 1.00101e-05 0 -2.28722e-07 1.06966e-05 0 -3.26526e-07 1.1463e-05 0 -4.51022e-07 1.23146e-05 0 -6.07759e-07 1.32568e-05 0 -8.03327e-07 1.42957e-05 0 -1.04552e-06 1.54374e-05 0 -1.34353e-06 1.66883e-05 0 -1.70809e-06 1.80547e-05 0 -2.15168e-06 1.95429e-05 0 -2.68866e-06 2.11591e-05 0 -3.33535e-06 2.29088e-05 0 -4.1102e-06 2.47974e-05 0 -5.03374e-06 2.68298e-05 0 -6.12907e-06 2.90114e-05 0 -7.4223e-06 3.13484e-05 0 -8.94482e-06 3.38501e-05 0 -1.07365e-05 3.65301e-05 0 -1.28532e-05 3.94077e-05 0 -1.53765e-05 4.25028e-05 0 -1.84491e-05 4.58694e-05 0 1.985e-21 6.65626e-06 0 5.85526e-08 6.68206e-06 0 1.16667e-07 6.75968e-06 0 1.73872e-07 6.88973e-06 0 2.29636e-07 7.07328e-06 0 2.83326e-07 7.31181e-06 0 3.34174e-07 7.60724e-06 0 3.81234e-07 7.96195e-06 0 4.23328e-07 8.3788e-06 0 4.58993e-07 8.86113e-06 0 4.86412e-07 9.41276e-06 0 5.03333e-07 1.00381e-05 0 5.06979e-07 1.0742e-05 0 4.93934e-07 1.15299e-05 0 4.60014e-07 1.24078e-05 0 4.00118e-07 1.33823e-05 0 3.08055e-07 1.44604e-05 0 1.76355e-07 1.56497e-05 0 -3.94896e-09 1.69579e-05 0 -2.43521e-07 1.83933e-05 0 -5.54945e-07 1.99641e-05 0 -9.52837e-07 2.16783e-05 0 -1.45399e-06 2.35437e-05 0 -2.07715e-06 2.55675e-05 0 -2.84304e-06 2.77568e-05 0 -3.77367e-06 3.01187e-05 0 -4.89281e-06 3.26628e-05 0 -6.22601e-06 3.54033e-05 0 -7.80495e-06 3.83642e-05 0 -9.67357e-06 4.15844e-05 0 -1.19058e-05 4.51277e-05 0 -1.45973e-05 4.90017e-05 0 0 6.5718e-06 0 1.10339e-07 6.59771e-06 0 2.20673e-07 6.67566e-06 0 3.30967e-07 6.80634e-06 0 4.41134e-07 6.99087e-06 0 5.50995e-07 7.23084e-06 0 6.60253e-07 7.52833e-06 0 7.68445e-07 7.88591e-06 0 8.74901e-07 8.30669e-06 0 9.78688e-07 8.7943e-06 0 1.07854e-06 9.35296e-06 0 1.17279e-06 9.98752e-06 0 1.25925e-06 1.07034e-05 0 1.33512e-06 1.15069e-05 0 1.39684e-06 1.24046e-05 0 1.43995e-06 1.34043e-05 0 1.45883e-06 1.45141e-05 0 1.44655e-06 1.57429e-05 0 1.39459e-06 1.71004e-05 0 1.29254e-06 1.85966e-05 0 1.12792e-06 2.02418e-05 0 8.85852e-07 2.20463e-05 0 5.49149e-07 2.40199e-05 0 9.82696e-08 2.61722e-05 0 -4.87653e-07 2.85111e-05 0 -1.23035e-06 3.10449e-05 0 -2.14969e-06 3.37823e-05 0 -3.26389e-06 3.67387e-05 0 -4.58766e-06 3.99419e-05 0 -6.14093e-06 4.34466e-05 0 -7.95772e-06 4.73408e-05 0 -1.01712e-05 5.191e-05 0 0 6.43558e-06 0 1.62127e-07 6.46138e-06 0 3.24708e-07 6.53901e-06 0 4.88177e-07 6.66918e-06 0 6.52917e-07 6.85309e-06 0 8.19242e-07 7.09244e-06 0 9.87362e-07 7.38941e-06 0 1.15735e-06 7.74677e-06 0 1.32909e-06 8.16783e-06 0 1.50225e-06 8.65651e-06 0 1.6762e-06 9.21739e-06 0 1.84993e-06 9.85572e-06 0 2.02197e-06 1.05775e-05 0 2.19029e-06 1.13896e-05 0 2.35211e-06 1.22997e-05 0 2.50377e-06 1.33162e-05 0 2.64049e-06 1.44487e-05 0 2.75612e-06 1.57077e-05 0 2.84284e-06 1.71044e-05 0 2.89082e-06 1.86509e-05 0 2.88779e-06 2.03601e-05 0 2.81887e-06 2.22448e-05 0 2.66605e-06 2.43177e-05 0 2.40885e-06 2.65899e-05 0 2.02439e-06 2.90712e-05 0 1.49058e-06 3.17678e-05 0 7.88081e-07 3.46855e-05 0 -9.16464e-08 3.78309e-05 0 -1.14472e-06 4.12251e-05 0 -2.34839e-06 4.4921e-05 0 -3.68208e-06 4.90454e-05 0 -5.07099e-06 5.3543e-05 0 0 6.24784e-06 0 2.13456e-07 6.27329e-06 0 4.2785e-07 6.34988e-06 0 6.44102e-07 6.47836e-06 0 8.63099e-07 6.65997e-06 0 1.08567e-06 6.89649e-06 0 1.31258e-06 7.19021e-06 0 1.54445e-06 7.54403e-06 0 1.78181e-06 7.96146e-06 0 2.02497e-06 8.44665e-06 0 2.27399e-06 9.00447e-06 0 2.52865e-06 9.64058e-06 0 2.78831e-06 1.03615e-05 0 3.05181e-06 1.11746e-05 0 3.31736e-06 1.20884e-05 0 3.58231e-06 1.31123e-05 0 3.84297e-06 1.42571e-05 0 4.09426e-06 1.55348e-05 0 4.32945e-06 1.69585e-05 0 4.53959e-06 1.85427e-05 0 4.71314e-06 2.03028e-05 0 4.83517e-06 2.22552e-05 0 4.88719e-06 2.44153e-05 0 4.84634e-06 2.67985e-05 0 4.68687e-06 2.94148e-05 0 4.38094e-06 3.22708e-05 0 3.90676e-06 3.53619e-05 0 3.25546e-06 3.86799e-05 0 2.45209e-06 4.22171e-05 0 1.56433e-06 4.59943e-05 0 7.18961e-07 5.00956e-05 0 -4.44728e-08 5.52462e-05 0 0 6.00929e-06 0 2.63845e-07 6.03414e-06 0 5.29127e-07 6.10896e-06 0 7.97273e-07 6.2345e-06 0 1.06969e-06 6.41205e-06 0 1.34776e-06 6.64342e-06 0 1.63279e-06 6.93101e-06 0 1.92605e-06 7.27781e-06 0 2.2287e-06 7.68745e-06 0 2.54176e-06 8.16428e-06 0 2.86609e-06 8.71341e-06 0 3.2023e-06 9.34081e-06 0 3.55069e-06 1.00534e-05 0 3.91115e-06 1.08591e-05 0 4.28303e-06 1.17671e-05 0 4.66493e-06 1.27877e-05 0 5.05451e-06 1.39329e-05 0 5.44817e-06 1.5216e-05 0 5.84064e-06 1.66523e-05 0 6.22448e-06 1.82585e-05 0 6.58927e-06 2.00536e-05 0 6.92094e-06 2.2057e-05 0 7.20033e-06 2.42902e-05 0 7.40261e-06 2.67718e-05 0 7.49575e-06 2.95189e-05 0 7.44294e-06 3.25354e-05 0 7.20626e-06 3.58131e-05 0 6.76443e-06 3.93137e-05 0 6.14025e-06 4.29776e-05 0 5.44731e-06 4.67533e-05 0 4.9196e-06 5.06798e-05 0 5.01373e-06 5.40467e-05 0 0 5.72111e-06 0 3.12795e-07 5.74511e-06 0 6.27536e-07 5.81739e-06 0 9.46168e-07 5.93872e-06 0 1.27063e-06 6.11039e-06 0 1.60286e-06 6.33424e-06 0 1.94477e-06 6.61271e-06 0 2.29825e-06 6.94885e-06 0 2.66514e-06 7.34637e-06 0 3.04725e-06 7.80975e-06 0 3.44625e-06 8.34424e-06 0 3.86369e-06 8.95605e-06 0 4.30091e-06 9.65237e-06 0 4.75897e-06 1.04416e-05 0 5.23852e-06 1.13334e-05 0 5.73966e-06 1.23389e-05 0 6.26171e-06 1.34709e-05 0 6.80291e-06 1.47445e-05 0 7.36002e-06 1.61763e-05 0 7.92773e-06 1.77861e-05 0 8.4978e-06 1.95954e-05 0 9.05787e-06 2.16298e-05 0 9.58963e-06 2.39147e-05 0 1.00667e-05 2.64802e-05 0 1.04508e-05 2.9348e-05 0 1.06904e-05 3.25377e-05 0 1.07184e-05 3.6034e-05 0 1.0471e-05 3.97826e-05 0 9.91834e-06 4.36486e-05 0 9.18278e-06 4.74024e-05 0 8.6174e-06 5.0848e-05 0 8.84855e-06 5.57134e-05 0 0 5.38499e-06 0 3.59798e-07 5.4079e-06 0 7.22053e-07 5.47687e-06 0 1.08923e-06 5.59269e-06 0 1.46381e-06 5.75663e-06 0 1.84828e-06 5.97055e-06 0 2.24516e-06 6.23686e-06 0 2.65701e-06 6.55863e-06 0 3.08637e-06 6.93959e-06 0 3.53583e-06 7.38424e-06 0 4.00794e-06 7.89793e-06 0 4.50525e-06 8.48695e-06 0 5.03023e-06 9.15869e-06 0 5.5852e-06 9.92174e-06 0 6.17231e-06 1.07862e-05 0 6.79331e-06 1.17637e-05 0 7.44951e-06 1.28681e-05 0 8.14138e-06 1.41149e-05 0 8.86834e-06 1.55232e-05 0 9.62794e-06 1.71139e-05 0 1.04154e-05 1.89138e-05 0 1.12216e-05 2.09504e-05 0 1.20321e-05 2.32613e-05 0 1.28206e-05 2.58806e-05 0 1.3549e-05 2.8857e-05 0 1.4146e-05 3.22193e-05 0 1.45167e-05 3.59941e-05 0 1.4494e-05 4.01225e-05 0 1.3941e-05 4.43995e-05 0 1.27758e-05 4.84206e-05 0 1.15326e-05 5.15085e-05 0 1.10692e-05 5.03437e-05 0 0 5.00314e-06 0 4.04346e-07 5.02469e-06 0 8.11653e-07 5.0896e-06 0 1.2249e-06 5.19862e-06 0 1.64709e-06 5.353e-06 0 2.08129e-06 5.55456e-06 0 2.53061e-06 5.80568e-06 0 2.99825e-06 6.10935e-06 0 3.4875e-06 6.46926e-06 0 4.00174e-06 6.88987e-06 0 4.54443e-06 7.37647e-06 0 5.11914e-06 7.93536e-06 0 5.72951e-06 8.57389e-06 0 6.37927e-06 9.30083e-06 0 7.0721e-06 1.01263e-05 0 7.81167e-06 1.10623e-05 0 8.60143e-06 1.21228e-05 0 9.44459e-06 1.33249e-05 0 1.03435e-05 1.46873e-05 0 1.12999e-05 1.6235e-05 0 1.23129e-05 1.79937e-05 0 1.33806e-05 2.00016e-05 0 1.44918e-05 2.22939e-05 0 1.56347e-05 2.4932e-05 0 1.67647e-05 2.7966e-05 0 1.78336e-05 3.14909e-05 0 1.8678e-05 3.55683e-05 0 1.91062e-05 4.02591e-05 0 1.85809e-05 4.54383e-05 0 1.67277e-05 5.0306e-05 0 1.32845e-05 5.33752e-05 0 1.1913e-05 5.81542e-05 0 0 4.57826e-06 0 4.45936e-07 4.59821e-06 0 8.9532e-07 4.65831e-06 0 1.35162e-06 4.75927e-06 0 1.81838e-06 4.90229e-06 0 2.29918e-06 5.08913e-06 0 2.79775e-06 5.32205e-06 0 3.31791e-06 5.60395e-06 0 3.86367e-06 5.93838e-06 0 4.43921e-06 6.32966e-06 0 5.0489e-06 6.78293e-06 0 5.69736e-06 7.30429e-06 0 6.38944e-06 7.90103e-06 0 7.13023e-06 8.58159e-06 0 7.92515e-06 9.35623e-06 0 8.77973e-06 1.02365e-05 0 9.69999e-06 1.12372e-05 0 1.06916e-05 1.2374e-05 0 1.17613e-05 1.36688e-05 0 1.29138e-05 1.51429e-05 0 1.4157e-05 1.68309e-05 0 1.54904e-05 1.87618e-05 0 1.69254e-05 2.09948e-05 0 1.84421e-05 2.35732e-05 0 2.0058e-05 2.6607e-05 0 2.168e-05 3.01835e-05 0 2.33044e-05 3.4519e-05 0 2.44996e-05 3.9854e-05 0 2.4836e-05 4.64194e-05 0 2.22087e-05 5.42285e-05 0 1.53175e-05 5.95879e-05 0 2.28056e-06 4.69093e-05 0 0 4.11356e-06 0 4.84083e-07 4.13167e-06 0 9.72075e-07 4.18624e-06 0 1.46792e-06 4.27793e-06 0 1.97563e-06 4.40788e-06 0 2.49934e-06 4.5777e-06 0 3.04331e-06 4.78955e-06 0 3.612e-06 5.04613e-06 0 4.21011e-06 5.3508e-06 0 4.84257e-06 5.70763e-06 0 5.51466e-06 6.12146e-06 0 6.23202e-06 6.59814e-06 0 7.00067e-06 7.14448e-06 0 7.82718e-06 7.76881e-06 0 8.71846e-06 8.48049e-06 0 9.6824e-06 9.29156e-06 0 1.07267e-05 1.02147e-05 0 1.18616e-05 1.1268e-05 0 1.30944e-05 1.24682e-05 0 1.44407e-05 1.38441e-05 0 1.5903e-05 1.54172e-05 0 1.75122e-05 1.72372e-05 0 1.92496e-05 1.9332e-05 0 2.1194e-05 2.17953e-05 0 2.32526e-05 2.46764e-05 0 2.56479e-05 2.81713e-05 0 2.80465e-05 3.24656e-05 0 3.10095e-05 3.80905e-05 0 3.31781e-05 4.6198e-05 0 3.38258e-05 5.85226e-05 0 1.99472e-05 7.60736e-05 0 -3.62954e-07 8.5676e-05 0 0 3.61269e-06 0 5.18327e-07 3.62875e-06 0 1.04099e-06 3.67712e-06 0 1.57236e-06 3.75841e-06 0 2.11691e-06 3.87366e-06 0 2.67926e-06 4.02435e-06 0 3.26419e-06 4.21242e-06 0 3.87673e-06 4.44035e-06 0 4.52222e-06 4.71122e-06 0 5.20635e-06 5.02873e-06 0 5.93523e-06 5.39736e-06 0 6.71542e-06 5.82245e-06 0 7.55423e-06 6.31038e-06 0 8.45921e-06 6.86864e-06 0 9.43971e-06 7.50633e-06 0 1.05037e-05 8.23391e-06 0 1.16652e-05 9.06446e-06 0 1.29292e-05 1.00127e-05 0 1.43229e-05 1.10978e-05 0 1.58345e-05 1.23411e-05 0 1.75353e-05 1.37711e-05 0 1.93435e-05 1.54206e-05 0 2.14835e-05 1.7334e-05 0 2.36188e-05 1.95668e-05 0 2.64948e-05 2.21995e-05 0 2.89249e-05 2.53356e-05 0 3.33765e-05 2.92166e-05 0 3.61075e-05 3.40774e-05 0 4.51923e-05 4.15523e-05 0 5.12106e-05 5.4826e-05 0 6.93821e-05 0.000105692 0 -0.000134326 0.000186002 0 0 3.07978e-06 0 5.48248e-07 3.09358e-06 0 1.10121e-06 3.13514e-06 0 1.66365e-06 3.20501e-06 0 2.24046e-06 3.30411e-06 0 2.83665e-06 3.43369e-06 0 3.45753e-06 3.59554e-06 0 4.1086e-06 3.79172e-06 0 4.79582e-06 4.02518e-06 0 5.52555e-06 4.29872e-06 0 6.30449e-06 4.61722e-06 0 7.14075e-06 4.98367e-06 0 8.04091e-06 5.40701e-06 0 9.01805e-06 5.8878e-06 0 1.00732e-05 6.44543e-06 0 1.12377e-05 7.06856e-06 0 1.24814e-05 7.80631e-06 0 1.39089e-05 8.60471e-06 0 1.53515e-05 9.59923e-06 0 1.72044e-05 1.06026e-05 0 1.87396e-05 1.19906e-05 0 2.1468e-05 1.32077e-05 0 2.25327e-05 1.52252e-05 0 2.75647e-05 1.66583e-05 0 2.59743e-05 1.95593e-05 0 3.80125e-05 2.15974e-05 0 2.62622e-05 2.45238e-05 0 6.06546e-05 3.07542e-05 0 1.63682e-05 2.30139e-05 0 0.000119634 6.3071e-05 0 0.000114532 -0.000146103 0 0.000525307 0.00147303 0 </DataArray> 
</PointData> 
<Points> 
<DataArray type="Float32" NumberOfComponents="3"> 