<?xml version="1.0"?> 
<VTKFile type="StructuredGrid" version="0.1"> 
<StructuredGrid WholeExtent="0 31 0 31 0 0"> 
<Piece Extent="0 31 0 31 0 0"> 
<PointData>
<DataArray type="Float32" Name="B" format="ascii" NumberOfComponents="3"> 
-0.0116681 -0.00163945 0 -0.0103165 0.000681723 0 -0.0105762 -8.98303e-05 0 -0.00842902 3.68828e-05 0 -0.00956026 -1.04021e-05 0 -0.0091483 -2.35792e-06 0 -0.00963884 -1.11656e-06 0 -0.0096428 -4.17304e-06 0 -0.00985454 1.69456e-07 0 -0.00991112 -1.97225e-06 0 -0.00999975 4.06144e-07 0 -0.0100351 -5.08807e-07 0 -0.0100682 4.32313e-07 0 -0.0100821 5.69758e-08 0 -0.0100915 3.32877e-07 0 -0.0100943 1.38855e-07 0 -0.010095 1.65887e-07 0 -0.010094 1.77436e-08 0 -0.0100922 -1.70119e-08 0 -0.0100907 -1.87768e-07 0 -0.0100882 -1.79379e-07 0 -0.0100883 -4.65284e-07 0 -0.0100839 -3.04374e-07 0 -0.01009 -8.69467e-07 0 -0.0100775 -5.26687e-07 0 -0.010106 -1.39003e-06 0 -0.0100639 -1.96047e-06 0 -0.0101731 -1.07662e-06 0 -0.0100361 -1.20424e-05 0 -0.0104174 1.03172e-05 0 -0.0103827 -0.000169025 0 -0.00672114 0.000967683 0 0.0030051 0.00223314 0 0.00184323 -0.000160829 0 0.0018539 -1.82216e-06 0 0.00167177 -1.03014e-05 0 0.00179318 -2.42602e-06 0 0.00178249 -3.52247e-06 0 0.00184427 -1.61507e-06 0 0.00186592 -1.68888e-06 0 0.00189716 -8.04766e-07 0 0.0019148 -7.63627e-07 0 0.00192981 -3.35791e-07 0 0.00193919 -2.93592e-07 0 0.00194561 -1.1035e-07 0 0.0019495 -8.7353e-08 0 0.00195173 -1.65707e-08 0 0.00195285 -1.01604e-08 0 0.00195322 1.98639e-08 0 0.00195314 1.30772e-08 0 0.00195271 4.16405e-08 0 0.00195212 1.22999e-08 0 0.00195123 7.49749e-08 0 0.00195043 -1.20981e-08 0 0.00194899 1.38738e-07 0 0.00194841 -6.41554e-08 0 0.00194572 1.95418e-07 0 0.00194703 1.73753e-08 0 0.00194036 -2.67929e-07 0 0.00194991 1.68479e-06 0 0.00192895 -5.17543e-06 0 0.00196667 1.91377e-05 0 0.0019363 -9.06176e-05 0 0.00117398 0.00106877 0 -0.000144271 0.00368905 0 -0.000332893 -0.000257442 0 -0.000436668 1.2857e-05 0 -0.000344282 -1.91042e-05 0 -0.000392238 -6.97417e-08 0 -0.000370651 -1.52744e-06 0 -0.000392221 -4.71179e-07 0 -0.000390803 6.29314e-07 0 -0.000400209 5.16269e-09 0 -0.000402376 6.1521e-07 0 -0.000406458 1.72555e-07 0 -0.000408158 3.62796e-07 0 -0.000409838 1.47763e-07 0 -0.000410667 1.75673e-07 0 -0.000411267 8.19791e-08 0 -0.000411546 6.90643e-08 0 -0.000411675 3.14138e-08 0 -0.000411687 1.35091e-08 0 -0.000411606 3.32893e-09 0 -0.000411509 -1.7694e-08 0 -0.000411283 -7.58876e-09 0 -0.000411198 -4.24444e-08 0 -0.000410718 -6.08434e-09 0 -0.000410941 -6.83068e-08 0 -0.000409666 -3.70033e-09 0 -0.00041133 -6.0266e-08 0 -0.000407188 -9.83762e-08 0 -0.000414396 3.00046e-07 0 -0.000400126 -1.0637e-06 0 -0.000424093 3.78882e-06 0 -0.000393942 -2.36019e-05 0 -4.15794e-06 0.000184017 0 -0.000129197 0.00304614 0 0.00015528 -0.000165259 0 0.000103134 1.34561e-05 0 9.09668e-05 -1.94124e-05 0 9.93405e-05 -3.03337e-06 0 0.000100309 -3.87021e-06 0 0.00010512 -2.37083e-06 0 0.000106388 -1.05491e-06 0 0.000108698 -1.08508e-06 0 0.000109534 -2.98742e-07 0 0.000110515 -3.62533e-07 0 0.000110931 -4.86669e-08 0 0.000111288 -7.25105e-08 0 0.000111445 2.59276e-08 0 0.000111543 1.47335e-08 0 0.000111575 3.69519e-08 0 0.000111576 3.13334e-08 0 0.000111555 3.09178e-08 0 0.00011152 3.39758e-08 0 0.000111475 2.37807e-08 0 0.00011142 4.38322e-08 0 0.000111361 1.55032e-08 0 0.000111275 6.80664e-08 0 0.000111222 1.26641e-09 0 0.00011107 9.21205e-08 0 0.000111097 2.25511e-08 0 0.000110804 -3.87059e-08 0 0.0001111 5.00827e-07 0 0.000110772 -1.54728e-06 0 0.000112219 4.75261e-06 0 0.000110609 -3.04558e-05 0 9.05552e-05 0.00037796 0 -0.000241689 0.00301611 0 6.11189e-06 -0.000186892 0 -1.99101e-05 2.40299e-05 0 -2.92601e-05 -2.13373e-05 0 -2.82911e-05 -1.90227e-06 0 -2.8563e-05 -3.31599e-06 0 -2.7823e-05 -1.49505e-06 0 -2.82218e-05 -2.43184e-07 0 -2.82288e-05 -4.7307e-07 0 -2.85525e-05 2.39004e-07 0 -2.87155e-05 -1.86751e-08 0 -2.89104e-05 2.2881e-07 0 -2.90346e-05 8.69547e-08 0 -2.91337e-05 1.43718e-07 0 -2.91977e-05 7.27745e-08 0 -2.92399e-05 7.34746e-08 0 -2.92635e-05 3.99636e-08 0 -2.92769e-05 3.03645e-08 0 -2.92777e-05 1.77008e-08 0 -2.92811e-05 7.28761e-09 0 -2.92642e-05 9.51082e-09 0 -2.92761e-05 -6.02592e-09 0 -2.92265e-05 1.30536e-08 0 -2.92866e-05 -1.84502e-08 0 -2.91391e-05 2.16977e-08 0 -2.93648e-05 -2.74107e-08 0 -2.88829e-05 -2.81793e-09 0 -2.96303e-05 2.60143e-08 0 -2.78736e-05 -4.43785e-07 0 -3.01356e-05 3.50729e-08 0 -2.95048e-05 -6.45916e-06 0 2.81422e-05 7.54338e-05 0 -0.000210578 0.00253416 0 2.45651e-05 -0.000145939 0 1.79567e-05 2.54047e-05 0 1.78614e-08 -1.86931e-05 0 3.30118e-06 -3.09928e-06 0 9.45704e-07 -4.12727e-06 0 2.90688e-06 -2.19722e-06 0 2.53236e-06 -9.03529e-07 0 3.11107e-06 -8.37753e-07 0 3.03616e-06 -1.04361e-07 0 3.16044e-06 -1.90216e-07 0 3.12876e-06 8.1501e-08 0 3.1363e-06 1.91929e-08 0 3.11362e-06 9.22454e-08 0 3.10078e-06 5.41782e-08 0 3.08537e-06 6.31572e-08 0 3.07446e-06 4.22675e-08 0 3.0651e-06 3.6997e-08 0 3.05889e-06 2.92492e-08 0 3.05225e-06 2.25499e-08 0 3.05064e-06 2.70558e-08 0 3.0407e-06 1.63276e-08 0 3.04906e-06 3.61881e-08 0 3.02227e-06 1.10886e-08 0 3.06668e-06 4.5382e-08 0 2.99109e-06 1.31829e-08 0 3.16881e-06 -2.62719e-08 0 2.99296e-06 1.2985e-07 0 3.64345e-06 -8.59814e-07 0 2.91914e-06 1.25536e-06 0 1.93588e-06 -1.01575e-05 0 2.31823e-05 0.000147621 0 -0.000202198 0.00231832 0 1.83236e-05 -0.000141963 0 1.98547e-05 2.7586e-05 0 3.84815e-06 -1.65154e-05 0 5.54799e-06 -2.72462e-06 0 2.88586e-06 -3.81856e-06 0 4.33062e-06 -1.9781e-06 0 3.95849e-06 -6.95394e-07 0 4.4534e-06 -6.58092e-07 0 4.40197e-06 3.99252e-08 0 4.5437e-06 -8.29308e-08 0 4.5336e-06 1.60708e-07 0 4.56833e-06 7.07857e-08 0 4.56192e-06 1.27511e-07 0 4.56688e-06 7.38903e-08 0 4.56123e-06 7.46545e-08 0 4.55906e-06 4.60401e-08 0 4.55413e-06 3.69928e-08 0 4.55093e-06 2.49388e-08 0 4.54555e-06 1.71153e-08 0 4.54328e-06 1.70701e-08 0 4.5343e-06 8.67088e-09 0 4.53753e-06 1.94993e-08 0 4.51664e-06 3.03362e-09 0 4.54562e-06 2.09876e-08 0 4.4922e-06 -7.92447e-09 0 4.62579e-06 -3.593e-08 0 4.49812e-06 -3.41541e-08 0 4.92599e-06 -5.71815e-07 0 4.12047e-06 2.49221e-07 0 3.56147e-06 -3.48537e-06 0 1.38701e-05 5.35565e-05 0 -0.000188556 0.00198613 0 3.22426e-06 -0.000120111 0 9.97262e-06 2.61914e-05 0 -3.42662e-06 -1.34989e-05 0 -2.59775e-06 -2.80578e-06 0 -5.83465e-06 -3.85512e-06 0 -4.99834e-06 -2.16218e-06 0 -5.66081e-06 -9.14917e-07 0 -5.39768e-06 -7.58256e-07 0 -5.56981e-06 -8.46758e-08 0 -5.51382e-06 -1.30525e-07 0 -5.56507e-06 1.05449e-07 0 -5.55735e-06 5.13474e-08 0 -5.5726e-06 1.07049e-07 0 -5.57243e-06 6.82205e-08 0 -5.57619e-06 6.95171e-08 0 -5.57573e-06 4.65209e-08 0 -5.5756e-06 3.83033e-08 0 -5.57368e-06 2.82574e-08 0 -5.57216e-06 2.15795e-08 0 -5.56779e-06 2.21852e-08 0 -5.56688e-06 1.53849e-08 0 -5.5557e-06 2.59902e-08 0 -5.56141e-06 1.12304e-08 0 -5.52443e-06 2.59694e-08 0 -5.55653e-06 -1.60539e-09 0 -5.41794e-06 -5.08978e-08 0 -5.55041e-06 -2.44108e-08 0 -5.16362e-06 -6.31788e-07 0 -6.0871e-06 7.58139e-07 0 -5.97983e-06 -4.58661e-06 0 8.56397e-06 7.18871e-05 0 -0.00017631 0.00174355 0 9.87038e-06 -0.000108412 0 1.80814e-05 2.44784e-05 0 6.37692e-06 -1.10404e-05 0 7.4691e-06 -2.33664e-06 0 4.01089e-06 -3.49206e-06 0 4.78217e-06 -2.0091e-06 0 4.10066e-06 -8.50717e-07 0 4.43376e-06 -6.82038e-07 0 4.32009e-06 -5.88981e-08 0 4.45113e-06 -9.58477e-08 0 4.45208e-06 1.1732e-07 0 4.50778e-06 6.4069e-08 0 4.52344e-06 1.11172e-07 0 4.54774e-06 7.13977e-08 0 4.55815e-06 6.98635e-08 0 4.56789e-06 4.60064e-08 0 4.57215e-06 3.69355e-08 0 4.57523e-06 2.60787e-08 0 4.5755e-06 1.92975e-08 0 4.57626e-06 1.85057e-08 0 4.57378e-06 1.25053e-08 0 4.57612e-06 1.99273e-08 0 4.57007e-06 7.42768e-09 0 4.58397e-06 1.60532e-08 0 4.57025e-06 -1.3559e-08 0 4.63028e-06 -5.8559e-08 0 4.57217e-06 -8.22573e-08 0 4.66734e-06 -4.71724e-07 0 4.10657e-06 4.98945e-07 0 4.139e-06 -2.57099e-06 0 7.83453e-06 4.04578e-05 0 -0.000168616 0.00147562 0 1.89368e-07 -9.194e-05 0 9.45714e-06 2.16322e-05 0 2.74697e-08 -8.74258e-06 0 1.00499e-06 -1.98814e-06 0 -2.63469e-06 -3.17844e-06 0 -2.3377e-06 -1.9208e-06 0 -3.26551e-06 -8.77955e-07 0 -3.15119e-06 -6.71448e-07 0 -3.37292e-06 -1.02872e-07 0 -3.32331e-06 -1.04422e-07 0 -3.358e-06 8.98501e-08 0 -3.32653e-06 5.45441e-08 0 -3.31789e-06 9.71053e-08 0 -3.29705e-06 6.5532e-08 0 -3.28451e-06 6.37692e-08 0 -3.27193e-06 4.34536e-08 0 -3.26323e-06 3.50351e-08 0 -3.25552e-06 2.54829e-08 0 -3.24996e-06 1.94821e-08 0 -3.24326e-06 1.87357e-08 0 -3.23954e-06 1.37409e-08 0 -3.2288e-06 2.00614e-08 0 -3.22899e-06 8.83346e-09 0 -3.20225e-06 1.45103e-08 0 -3.21926e-06 -1.48497e-08 0 -3.14074e-06 -6.29495e-08 0 -3.25116e-06 -7.92015e-08 0 -3.10749e-06 -4.07797e-07 0 -3.72282e-06 5.95978e-07 0 -3.33086e-06 -2.58824e-06 0 5.05623e-06 4.07176e-05 0 -0.000160897 0.00123861 0 4.12709e-06 -7.8196e-05 0 1.32394e-05 1.86058e-05 0 4.87111e-06 -6.86703e-06 0 6.37166e-06 -1.53017e-06 0 2.73956e-06 -2.72017e-06 0 2.97116e-06 -1.69754e-06 0 1.98426e-06 -7.96571e-07 0 2.09107e-06 -5.96405e-07 0 1.8789e-06 -9.65392e-08 0 1.95481e-06 -8.80151e-08 0 1.94429e-06 8.16101e-08 0 2.00018e-06 5.25371e-08 0 2.02672e-06 8.86689e-08 0 2.06214e-06 6.05312e-08 0 2.08416e-06 5.80868e-08 0 2.10333e-06 3.95643e-08 0 2.11562e-06 3.16474e-08 0 2.125e-06 2.27315e-08 0 2.13083e-06 1.72598e-08 0 2.13623e-06 1.6081e-08 0 2.13884e-06 1.18342e-08 0 2.14523e-06 1.6319e-08 0 2.14479e-06 6.69921e-09 0 2.15882e-06 8.92695e-09 0 2.14692e-06 -1.91797e-08 0 2.17969e-06 -6.25288e-08 0 2.09665e-06 -8.61784e-08 0 2.11069e-06 -3.01281e-07 0 1.73767e-06 4.68512e-07 0 2.00763e-06 -1.80132e-06 0 5.08261e-06 2.78273e-05 0 -0.000155981 0.000999587 0 -8.21244e-08 -6.334e-05 0 9.03861e-06 1.52844e-05 0 1.83887e-06 -5.24169e-06 0 3.54069e-06 -1.16083e-06 0 -5.793e-08 -2.26091e-06 0 -6.8276e-08 -1.4616e-06 0 -1.20724e-06 -7.1488e-07 0 -1.23938e-06 -5.25532e-07 0 -1.52062e-06 -1.01828e-07 0 -1.4929e-06 -8.10932e-08 0 -1.5228e-06 6.2787e-08 0 -1.47807e-06 4.34874e-08 0 -1.45306e-06 7.3889e-08 0 -1.41717e-06 5.18017e-08 0 -1.39219e-06 4.94826e-08 0 -1.37002e-06 3.42619e-08 0 -1.35436e-06 2.74099e-08 0 -1.34182e-06 1.9928e-08 0 -1.3328e-06 1.53005e-08 0 -1.32403e-06 1.42251e-08 0 -1.31816e-06 1.07633e-08 0 -1.30753e-06 1.42077e-08 0 -1.30559e-06 5.98862e-09 0 -1.28647e-06 6.46147e-09 0 -1.3035e-06 -1.87494e-08 0 -1.26738e-06 -5.73556e-08 0 -1.37899e-06 -7.31685e-08 0 -1.32887e-06 -2.31252e-07 0 -1.68985e-06 4.22966e-07 0 -1.3047e-06 -1.53656e-06 0 3.75918e-06 2.37405e-05 0 -0.000151602 0.000772485 0 1.45682e-06 -4.92651e-05 0 1.02407e-05 1.19232e-05 0 3.60275e-06 -3.86472e-06 0 5.67154e-06 -8.17982e-07 0 2.17769e-06 -1.75926e-06 0 2.11731e-06 -1.16729e-06 0 9.22982e-07 -5.83776e-07 0 8.52397e-07 -4.25211e-07 0 5.56976e-07 -8.69609e-08 0 5.84605e-07 -6.51244e-08 0 5.61097e-07 4.96578e-08 0 6.15089e-07 3.57583e-08 0 6.48497e-07 5.97277e-08 0 6.91883e-07 4.22621e-08 0 7.22354e-07 4.01516e-08 0 7.48613e-07 2.78647e-08 0 7.66905e-07 2.22329e-08 0 7.8103e-07 1.61026e-08 0 7.90924e-07 1.23511e-08 0 7.99696e-07 1.1305e-08 0 8.05695e-07 8.59603e-09 0 8.14692e-07 1.09088e-08 0 8.16747e-07 4.36925e-09 0 8.29422e-07 3.4978e-09 0 8.12363e-07 -1.74678e-08 0 8.25138e-07 -4.86355e-08 0 7.22687e-07 -6.09447e-08 0 7.32263e-07 -1.62251e-07 0 4.86124e-07 3.19988e-07 0 7.97668e-07 -1.09722e-06 0 3.73288e-06 1.66601e-05 0 -0.000148796 0.000547627 0 -9.18517e-08 -3.50084e-05 0 8.54344e-06 8.51171e-06 0 2.41042e-06 -2.64664e-06 0 4.65998e-06 -5.42749e-07 0 1.24971e-06 -1.25994e-06 0 1.09103e-06 -8.5489e-07 0 -1.81227e-07 -4.37388e-07 0 -3.26903e-07 -3.16475e-07 0 -6.61072e-07 -6.98012e-08 0 -6.58582e-07 -4.96291e-08 0 -6.91654e-07 3.4209e-08 0 -6.42064e-07 2.57522e-08 0 -6.083e-07 4.31865e-08 0 -5.63525e-07 3.09925e-08 0 -5.3072e-07 2.93745e-08 0 -5.023e-07 2.05565e-08 0 -4.81905e-07 1.63966e-08 0 -4.6594e-07 1.19459e-08 0 -4.54352e-07 9.20035e-09 0 -4.4391e-07 8.4124e-09 0 -4.36392e-07 6.45636e-09 0 -4.2564e-07 8.01919e-09 0 -4.22755e-07 3.17117e-09 0 -4.09073e-07 2.03727e-09 0 -4.29629e-07 -1.37333e-08 0 -4.19223e-07 -3.66764e-08 0 -5.31544e-07 -4.35899e-08 0 -5.03171e-07 -1.09363e-07 0 -7.29577e-07 2.361e-07 0 -3.92013e-07 -7.92077e-07 0 3.16213e-06 1.20429e-05 0 -0.000146798 0.000327564 0 3.73235e-07 -2.10008e-05 0 8.81447e-06 5.10636e-06 0 2.91598e-06 -1.54585e-06 0 5.33796e-06 -3.04927e-07 0 2.00704e-06 -7.53797e-07 0 1.82639e-06 -5.18685e-07 0 5.2384e-07 -2.6839e-07 0 3.50567e-07 -1.93619e-07 0 3.48674e-09 -4.37047e-08 0 1.05886e-09 -3.03217e-08 0 -3.15856e-08 2.06584e-08 0 2.06856e-08 1.58426e-08 0 5.76708e-08 2.63968e-08 0 1.05579e-07 1.90187e-08 0 1.40905e-07 1.79905e-08 0 1.71295e-07 1.25986e-08 0 1.93074e-07 1.00408e-08 0 2.09963e-07 7.29838e-09 0 2.22172e-07 5.62033e-09 0 2.32854e-07 5.0958e-09 0 2.40654e-07 3.92079e-09 0 2.50932e-07 4.76472e-09 0 2.53897e-07 1.8218e-09 0 2.64826e-07 8.36876e-10 0 2.43371e-07 -8.89321e-09 0 2.44083e-07 -2.28554e-08 0 1.3515e-07 -2.66297e-08 0 1.54344e-07 -6.18788e-08 0 -2.90987e-08 1.39301e-07 0 2.77162e-07 -4.56621e-07 0 3.12137e-06 6.85638e-06 0 -0.000145885 0.000108811 0 -5.79475e-09 -6.97734e-06 0 8.3702e-06 1.70054e-06 0 2.61033e-06 -5.0787e-07 0 5.09721e-06 -9.91539e-08 0 1.80369e-06 -2.51681e-07 0 1.59826e-06 -1.74631e-07 0 2.72177e-07 -9.12107e-08 0 7.51203e-08 -6.56734e-08 0 -2.846e-07 -1.53339e-08 0 -2.94962e-07 -1.04596e-08 0 -3.3056e-07 6.67795e-09 0 -2.79462e-07 5.2363e-09 0 -2.4219e-07 8.78255e-09 0 -1.93666e-07 6.37612e-09 0 -1.57483e-07 6.02741e-09 0 -1.26319e-07 4.24412e-09 0 -1.03825e-07 3.38208e-09 0 -8.63289e-08 2.4724e-09 0 -7.3585e-08 1.9073e-09 0 -6.23961e-08 1.73843e-09 0 -5.41523e-08 1.34007e-09 0 -4.34077e-08 1.62948e-09 0 -4.02621e-08 6.2129e-10 0 -2.93191e-08 2.8167e-10 0 -5.19996e-08 -3.03468e-09 0 -5.26679e-08 -7.71047e-09 0 -1.63578e-07 -8.75416e-09 0 -1.38707e-07 -2.03226e-08 0 -3.14423e-07 4.75992e-08 0 -4.9386e-09 -1.5582e-07 0 2.9638e-06 2.36481e-06 0 -0.000145885 -0.000108811 0 -5.79475e-09 6.97734e-06 0 8.3702e-06 -1.70054e-06 0 2.61033e-06 5.0787e-07 0 5.09721e-06 9.91539e-08 0 1.80369e-06 2.51681e-07 0 1.59826e-06 1.74631e-07 0 2.72177e-07 9.12107e-08 0 7.51203e-08 6.56734e-08 0 -2.846e-07 1.53339e-08 0 -2.94962e-07 1.04596e-08 0 -3.3056e-07 -6.67795e-09 0 -2.79462e-07 -5.2363e-09 0 -2.4219e-07 -8.78255e-09 0 -1.93666e-07 -6.37612e-09 0 -1.57483e-07 -6.02741e-09 0 -1.26319e-07 -4.24412e-09 0 -1.03825e-07 -3.38208e-09 0 -8.63289e-08 -2.4724e-09 0 -7.3585e-08 -1.9073e-09 0 -6.23961e-08 -1.73843e-09 0 -5.41523e-08 -1.34007e-09 0 -4.34077e-08 -1.62948e-09 0 -4.02621e-08 -6.2129e-10 0 -2.93191e-08 -2.8167e-10 0 -5.19996e-08 3.03468e-09 0 -5.26679e-08 7.71047e-09 0 -1.63578e-07 8.75416e-09 0 -1.38707e-07 2.03226e-08 0 -3.14423e-07 -4.75992e-08 0 -4.9386e-09 1.5582e-07 0 2.9638e-06 -2.36481e-06 0 -0.000146798 -0.000327564 0 3.73235e-07 2.10008e-05 0 8.81447e-06 -5.10636e-06 0 2.91598e-06 1.54585e-06 0 5.33796e-06 3.04927e-07 0 2.00704e-06 7.53797e-07 0 1.82639e-06 5.18685e-07 0 5.2384e-07 2.6839e-07 0 3.50567e-07 1.93619e-07 0 3.48674e-09 4.37047e-08 0 1.05886e-09 3.03217e-08 0 -3.15856e-08 -2.06584e-08 0 2.06856e-08 -1.58426e-08 0 5.76708e-08 -2.63968e-08 0 1.05579e-07 -1.90187e-08 0 1.40905e-07 -1.79905e-08 0 1.71295e-07 -1.25986e-08 0 1.93074e-07 -1.00408e-08 0 2.09963e-07 -7.29838e-09 0 2.22172e-07 -5.62033e-09 0 2.32854e-07 -5.0958e-09 0 2.40654e-07 -3.92079e-09 0 2.50932e-07 -4.76472e-09 0 2.53897e-07 -1.8218e-09 0 2.64826e-07 -8.36876e-10 0 2.43371e-07 8.89321e-09 0 2.44083e-07 2.28554e-08 0 1.3515e-07 2.66297e-08 0 1.54344e-07 6.18788e-08 0 -2.90987e-08 -1.39301e-07 0 2.77162e-07 4.56621e-07 0 3.12137e-06 -6.85638e-06 0 -0.000148796 -0.000547627 0 -9.18517e-08 3.50084e-05 0 8.54344e-06 -8.51171e-06 0 2.41042e-06 2.64664e-06 0 4.65998e-06 5.42749e-07 0 1.24971e-06 1.25994e-06 0 1.09103e-06 8.5489e-07 0 -1.81227e-07 4.37388e-07 0 -3.26903e-07 3.16475e-07 0 -6.61072e-07 6.98012e-08 0 -6.58582e-07 4.96291e-08 0 -6.91654e-07 -3.4209e-08 0 -6.42064e-07 -2.57522e-08 0 -6.083e-07 -4.31865e-08 0 -5.63525e-07 -3.09925e-08 0 -5.3072e-07 -2.93745e-08 0 -5.023e-07 -2.05565e-08 0 -4.81905e-07 -1.63966e-08 0 -4.6594e-07 -1.19459e-08 0 -4.54352e-07 -9.20035e-09 0 -4.4391e-07 -8.4124e-09 0 -4.36392e-07 -6.45636e-09 0 -4.2564e-07 -8.01919e-09 0 -4.22755e-07 -3.17117e-09 0 -4.09073e-07 -2.03727e-09 0 -4.29629e-07 1.37333e-08 0 -4.19223e-07 3.66764e-08 0 -5.31544e-07 4.35899e-08 0 -5.03171e-07 1.09363e-07 0 -7.29577e-07 -2.361e-07 0 -3.92013e-07 7.92077e-07 0 3.16213e-06 -1.20429e-05 0 -0.000151602 -0.000772485 0 1.45682e-06 4.92651e-05 0 1.02407e-05 -1.19232e-05 0 3.60275e-06 3.86472e-06 0 5.67154e-06 8.17982e-07 0 2.17769e-06 1.75926e-06 0 2.11731e-06 1.16729e-06 0 9.22982e-07 5.83776e-07 0 8.52397e-07 4.25211e-07 0 5.56976e-07 8.69609e-08 0 5.84605e-07 6.51244e-08 0 5.61097e-07 -4.96578e-08 0 6.15089e-07 -3.57583e-08 0 6.48497e-07 -5.97277e-08 0 6.91883e-07 -4.22621e-08 0 7.22354e-07 -4.01516e-08 0 7.48613e-07 -2.78647e-08 0 7.66905e-07 -2.22329e-08 0 7.8103e-07 -1.61026e-08 0 7.90924e-07 -1.23511e-08 0 7.99696e-07 -1.1305e-08 0 8.05695e-07 -8.59603e-09 0 8.14692e-07 -1.09088e-08 0 8.16747e-07 -4.36925e-09 0 8.29422e-07 -3.4978e-09 0 8.12363e-07 1.74678e-08 0 8.25138e-07 4.86355e-08 0 7.22687e-07 6.09447e-08 0 7.32263e-07 1.62251e-07 0 4.86124e-07 -3.19988e-07 0 7.97668e-07 1.09722e-06 0 3.73288e-06 -1.66601e-05 0 -0.000155981 -0.000999587 0 -8.21244e-08 6.334e-05 0 9.03861e-06 -1.52844e-05 0 1.83887e-06 5.24169e-06 0 3.54069e-06 1.16083e-06 0 -5.793e-08 2.26091e-06 0 -6.8276e-08 1.4616e-06 0 -1.20724e-06 7.1488e-07 0 -1.23938e-06 5.25532e-07 0 -1.52062e-06 1.01828e-07 0 -1.4929e-06 8.10932e-08 0 -1.5228e-06 -6.2787e-08 0 -1.47807e-06 -4.34874e-08 0 -1.45306e-06 -7.3889e-08 0 -1.41717e-06 -5.18017e-08 0 -1.39219e-06 -4.94826e-08 0 -1.37002e-06 -3.42619e-08 0 -1.35436e-06 -2.74099e-08 0 -1.34182e-06 -1.9928e-08 0 -1.3328e-06 -1.53005e-08 0 -1.32403e-06 -1.42251e-08 0 -1.31816e-06 -1.07633e-08 0 -1.30753e-06 -1.42077e-08 0 -1.30559e-06 -5.98862e-09 0 -1.28647e-06 -6.46147e-09 0 -1.3035e-06 1.87494e-08 0 -1.26738e-06 5.73556e-08 0 -1.37899e-06 7.31685e-08 0 -1.32887e-06 2.31252e-07 0 -1.68985e-06 -4.22966e-07 0 -1.3047e-06 1.53656e-06 0 3.75918e-06 -2.37405e-05 0 -0.000160897 -0.00123861 0 4.12709e-06 7.8196e-05 0 1.32394e-05 -1.86058e-05 0 4.87111e-06 6.86703e-06 0 6.37166e-06 1.53017e-06 0 2.73956e-06 2.72017e-06 0 2.97116e-06 1.69754e-06 0 1.98426e-06 7.96571e-07 0 2.09107e-06 5.96405e-07 0 1.8789e-06 9.65392e-08 0 1.95481e-06 8.80151e-08 0 1.94429e-06 -8.16101e-08 0 2.00018e-06 -5.25371e-08 0 2.02672e-06 -8.86689e-08 0 2.06214e-06 -6.05312e-08 0 2.08416e-06 -5.80868e-08 0 2.10333e-06 -3.95643e-08 0 2.11562e-06 -3.16474e-08 0 2.125e-06 -2.27315e-08 0 2.13083e-06 -1.72598e-08 0 2.13623e-06 -1.6081e-08 0 2.13884e-06 -1.18342e-08 0 2.14523e-06 -1.6319e-08 0 2.14479e-06 -6.69921e-09 0 2.15882e-06 -8.92695e-09 0 2.14692e-06 1.91797e-08 0 2.17969e-06 6.25288e-08 0 2.09665e-06 8.61784e-08 0 2.11069e-06 3.01281e-07 0 1.73767e-06 -4.68512e-07 0 2.00763e-06 1.80132e-06 0 5.08261e-06 -2.78273e-05 0 -0.000168616 -0.00147562 0 1.89368e-07 9.194e-05 0 9.45714e-06 -2.16322e-05 0 2.74697e-08 8.74258e-06 0 1.00499e-06 1.98814e-06 0 -2.63469e-06 3.17844e-06 0 -2.3377e-06 1.9208e-06 0 -3.26551e-06 8.77955e-07 0 -3.15119e-06 6.71448e-07 0 -3.37292e-06 1.02872e-07 0 -3.32331e-06 1.04422e-07 0 -3.358e-06 -8.98501e-08 0 -3.32653e-06 -5.45441e-08 0 -3.31789e-06 -9.71053e-08 0 -3.29705e-06 -6.5532e-08 0 -3.28451e-06 -6.37692e-08 0 -3.27193e-06 -4.34536e-08 0 -3.26323e-06 -3.50351e-08 0 -3.25552e-06 -2.54829e-08 0 -3.24996e-06 -1.94821e-08 0 -3.24326e-06 -1.87357e-08 0 -3.23954e-06 -1.37409e-08 0 -3.2288e-06 -2.00614e-08 0 -3.22899e-06 -8.83346e-09 0 -3.20225e-06 -1.45103e-08 0 -3.21926e-06 1.48497e-08 0 -3.14074e-06 6.29495e-08 0 -3.25116e-06 7.92015e-08 0 -3.10749e-06 4.07797e-07 0 -3.72282e-06 -5.95978e-07 0 -3.33086e-06 2.58824e-06 0 5.05623e-06 -4.07176e-05 0 -0.00017631 -0.00174355 0 9.87038e-06 0.000108412 0 1.80814e-05 -2.44784e-05 0 6.37692e-06 1.10404e-05 0 7.4691e-06 2.33664e-06 0 4.01089e-06 3.49206e-06 0 4.78217e-06 2.0091e-06 0 4.10066e-06 8.50717e-07 0 4.43376e-06 6.82038e-07 0 4.32009e-06 5.88981e-08 0 4.45113e-06 9.58477e-08 0 4.45208e-06 -1.1732e-07 0 4.50778e-06 -6.4069e-08 0 4.52344e-06 -1.11172e-07 0 4.54774e-06 -7.13977e-08 0 4.55815e-06 -6.98635e-08 0 4.56789e-06 -4.60064e-08 0 4.57215e-06 -3.69355e-08 0 4.57523e-06 -2.60787e-08 0 4.5755e-06 -1.92975e-08 0 4.57626e-06 -1.85057e-08 0 4.57378e-06 -1.25053e-08 0 4.57612e-06 -1.99273e-08 0 4.57007e-06 -7.42768e-09 0 4.58397e-06 -1.60532e-08 0 4.57025e-06 1.3559e-08 0 4.63028e-06 5.8559e-08 0 4.57217e-06 8.22573e-08 0 4.66734e-06 4.71724e-07 0 4.10657e-06 -4.98945e-07 0 4.139e-06 2.57099e-06 0 7.83453e-06 -4.04578e-05 0 -0.000188556 -0.00198613 0 3.22426e-06 0.000120111 0 9.97262e-06 -2.61914e-05 0 -3.42662e-06 1.34989e-05 0 -2.59775e-06 2.80578e-06 0 -5.83465e-06 3.85512e-06 0 -4.99834e-06 2.16218e-06 0 -5.66081e-06 9.14917e-07 0 -5.39768e-06 7.58256e-07 0 -5.56981e-06 8.46758e-08 0 -5.51382e-06 1.30525e-07 0 -5.56507e-06 -1.05449e-07 0 -5.55735e-06 -5.13474e-08 0 -5.5726e-06 -1.07049e-07 0 -5.57243e-06 -6.82205e-08 0 -5.57619e-06 -6.95171e-08 0 -5.57573e-06 -4.65209e-08 0 -5.5756e-06 -3.83033e-08 0 -5.57368e-06 -2.82574e-08 0 -5.57216e-06 -2.15795e-08 0 -5.56779e-06 -2.21852e-08 0 -5.56688e-06 -1.53849e-08 0 -5.5557e-06 -2.59902e-08 0 -5.56141e-06 -1.12304e-08 0 -5.52443e-06 -2.59694e-08 0 -5.55653e-06 1.60539e-09 0 -5.41794e-06 5.08978e-08 0 -5.55041e-06 2.44108e-08 0 -5.16362e-06 6.31788e-07 0 -6.0871e-06 -7.58139e-07 0 -5.97983e-06 4.58661e-06 0 8.56397e-06 -7.18871e-05 0 -0.000202198 -0.00231832 0 1.83236e-05 0.000141963 0 1.98547e-05 -2.7586e-05 0 3.84815e-06 1.65154e-05 0 5.54799e-06 2.72462e-06 0 2.88586e-06 3.81856e-06 0 4.33062e-06 1.9781e-06 0 3.95849e-06 6.95394e-07 0 4.4534e-06 6.58092e-07 0 4.40197e-06 -3.99252e-08 0 4.5437e-06 8.29308e-08 0 4.5336e-06 -1.60708e-07 0 4.56833e-06 -7.07857e-08 0 4.56192e-06 -1.27511e-07 0 4.56688e-06 -7.38903e-08 0 4.56123e-06 -7.46545e-08 0 4.55906e-06 -4.60401e-08 0 4.55413e-06 -3.69928e-08 0 4.55093e-06 -2.49388e-08 0 4.54555e-06 -1.71153e-08 0 4.54328e-06 -1.70701e-08 0 4.5343e-06 -8.67088e-09 0 4.53753e-06 -1.94993e-08 0 4.51664e-06 -3.03362e-09 0 4.54562e-06 -2.09876e-08 0 4.4922e-06 7.92447e-09 0 4.62579e-06 3.593e-08 0 4.49812e-06 3.41541e-08 0 4.92599e-06 5.71815e-07 0 4.12047e-06 -2.49221e-07 0 3.56147e-06 3.48537e-06 0 1.38701e-05 -5.35565e-05 0 -0.000210578 -0.00253416 0 2.45651e-05 0.000145939 0 1.79567e-05 -2.54047e-05 0 1.78614e-08 1.86931e-05 0 3.30118e-06 3.09928e-06 0 9.45704e-07 4.12727e-06 0 2.90688e-06 2.19722e-06 0 2.53236e-06 9.03529e-07 0 3.11107e-06 8.37753e-07 0 3.03616e-06 1.04361e-07 0 3.16044e-06 1.90216e-07 0 3.12876e-06 -8.1501e-08 0 3.1363e-06 -1.91929e-08 0 3.11362e-06 -9.22454e-08 0 3.10078e-06 -5.41782e-08 0 3.08537e-06 -6.31572e-08 0 3.07446e-06 -4.22675e-08 0 3.0651e-06 -3.6997e-08 0 3.05889e-06 -2.92492e-08 0 3.05225e-06 -2.25499e-08 0 3.05064e-06 -2.70558e-08 0 3.0407e-06 -1.63276e-08 0 3.04906e-06 -3.61881e-08 0 3.02227e-06 -1.10886e-08 0 3.06668e-06 -4.5382e-08 0 2.99109e-06 -1.31829e-08 0 3.16881e-06 2.62719e-08 0 2.99296e-06 -1.2985e-07 0 3.64345e-06 8.59814e-07 0 2.91914e-06 -1.25536e-06 0 1.93588e-06 1.01575e-05 0 2.31823e-05 -0.000147621 0 -0.000241689 -0.00301611 0 6.11189e-06 0.000186892 0 -1.99101e-05 -2.40299e-05 0 -2.92601e-05 2.13373e-05 0 -2.82911e-05 1.90227e-06 0 -2.8563e-05 3.31599e-06 0 -2.7823e-05 1.49505e-06 0 -2.82218e-05 2.43184e-07 0 -2.82288e-05 4.7307e-07 0 -2.85525e-05 -2.39004e-07 0 -2.87155e-05 1.86751e-08 0 -2.89104e-05 -2.2881e-07 0 -2.90346e-05 -8.69547e-08 0 -2.91337e-05 -1.43718e-07 0 -2.91977e-05 -7.27745e-08 0 -2.92399e-05 -7.34746e-08 0 -2.92635e-05 -3.99636e-08 0 -2.92769e-05 -3.03645e-08 0 -2.92777e-05 -1.77008e-08 0 -2.92811e-05 -7.28761e-09 0 -2.92642e-05 -9.51082e-09 0 -2.92761e-05 6.02592e-09 0 -2.92265e-05 -1.30536e-08 0 -2.92866e-05 1.84502e-08 0 -2.91391e-05 -2.16977e-08 0 -2.93648e-05 2.74107e-08 0 -2.88829e-05 2.81793e-09 0 -2.96303e-05 -2.60143e-08 0 -2.78736e-05 4.43785e-07 0 -3.01356e-05 -3.50729e-08 0 -2.95048e-05 6.45916e-06 0 2.81422e-05 -7.54338e-05 0 -0.000129197 -0.00304614 0 0.00015528 0.000165259 0 0.000103134 -1.34561e-05 0 9.09668e-05 1.94124e-05 0 9.93405e-05 3.03337e-06 0 0.000100309 3.87021e-06 0 0.00010512 2.37083e-06 0 0.000106388 1.05491e-06 0 0.000108698 1.08508e-06 0 0.000109534 2.98742e-07 0 0.000110515 3.62533e-07 0 0.000110931 4.86669e-08 0 0.000111288 7.25105e-08 0 0.000111445 -2.59276e-08 0 0.000111543 -1.47335e-08 0 0.000111575 -3.69519e-08 0 0.000111576 -3.13334e-08 0 0.000111555 -3.09178e-08 0 0.00011152 -3.39758e-08 0 0.000111475 -2.37807e-08 0 0.00011142 -4.38322e-08 0 0.000111361 -1.55032e-08 0 0.000111275 -6.80664e-08 0 0.000111222 -1.26641e-09 0 0.00011107 -9.21205e-08 0 0.000111097 -2.25511e-08 0 0.000110804 3.87059e-08 0 0.0001111 -5.00827e-07 0 0.000110772 1.54728e-06 0 0.000112219 -4.75261e-06 0 0.000110609 3.04558e-05 0 9.05552e-05 -0.00037796 0 -0.000144271 -0.00368905 0 -0.000332893 0.000257442 0 -0.000436668 -1.2857e-05 0 -0.000344282 1.91042e-05 0 -0.000392238 6.97417e-08 0 -0.000370651 1.52744e-06 0 -0.000392221 4.71179e-07 0 -0.000390803 -6.29314e-07 0 -0.000400209 -5.16269e-09 0 -0.000402376 -6.1521e-07 0 -0.000406458 -1.72555e-07 0 -0.000408158 -3.62796e-07 0 -0.000409838 -1.47763e-07 0 -0.000410667 -1.75673e-07 0 -0.000411267 -8.19791e-08 0 -0.000411546 -6.90643e-08 0 -0.000411675 -3.14138e-08 0 -0.000411687 -1.35091e-08 0 -0.000411606 -3.32893e-09 0 -0.000411509 1.7694e-08 0 -0.000411283 7.58876e-09 0 -0.000411198 4.24444e-08 0 -0.000410718 6.08434e-09 0 -0.000410941 6.83068e-08 0 -0.000409666 3.70033e-09 0 -0.00041133 6.0266e-08 0 -0.000407188 9.83762e-08 0 -0.000414396 -3.00046e-07 0 -0.000400126 1.0637e-06 0 -0.000424093 -3.78882e-06 0 -0.000393942 2.36019e-05 0 -4.15794e-06 -0.000184017 0 0.0030051 -0.00223314 0 0.00184323 0.000160829 0 0.0018539 1.82216e-06 0 0.00167177 1.03014e-05 0 0.00179318 2.42602e-06 0 0.00178249 3.52247e-06 0 0.00184427 1.61507e-06 0 0.00186592 1.68888e-06 0 0.00189716 8.04766e-07 0 0.0019148 7.63627e-07 0 0.00192981 3.35791e-07 0 0.00193919 2.93592e-07 0 0.00194561 1.1035e-07 0 0.0019495 8.7353e-08 0 0.00195173 1.65707e-08 0 0.00195285 1.01604e-08 0 0.00195322 -1.98639e-08 0 0.00195314 -1.30772e-08 0 0.00195271 -4.16405e-08 0 0.00195212 -1.22999e-08 0 0.00195123 -7.49749e-08 0 0.00195043 1.20981e-08 0 0.00194899 -1.38738e-07 0 0.00194841 6.41554e-08 0 0.00194572 -1.95418e-07 0 0.00194703 -1.73753e-08 0 0.00194036 2.67929e-07 0 0.00194991 -1.68479e-06 0 0.00192895 5.17543e-06 0 0.00196667 -1.91377e-05 0 0.0019363 9.06176e-05 0 0.00117398 -0.00106877 0 -0.0116681 0.00163945 0 -0.0103165 -0.000681723 0 -0.0105762 8.98303e-05 0 -0.00842902 -3.68828e-05 0 -0.00956026 1.04021e-05 0 -0.0091483 2.35792e-06 0 -0.00963884 1.11656e-06 0 -0.0096428 4.17304e-06 0 -0.00985454 -1.69456e-07 0 -0.00991112 1.97225e-06 0 -0.00999975 -4.06144e-07 0 -0.0100351 5.08807e-07 0 -0.0100682 -4.32313e-07 0 -0.0100821 -5.69758e-08 0 -0.0100915 -3.32877e-07 0 -0.0100943 -1.38855e-07 0 -0.010095 -1.65887e-07 0 -0.010094 -1.77436e-08 0 -0.0100922 1.70119e-08 0 -0.0100907 1.87768e-07 0 -0.0100882 1.79379e-07 0 -0.0100883 4.65284e-07 0 -0.0100839 3.04374e-07 0 -0.01009 8.69467e-07 0 -0.0100775 5.26687e-07 0 -0.010106 1.39003e-06 0 -0.0100639 1.96047e-06 0 -0.0101731 1.07662e-06 0 -0.0100361 1.20424e-05 0 -0.0104174 -1.03172e-05 0 -0.0103827 0.000169025 0 -0.00672114 -0.000967683 0 </DataArray> 
</PointData> 
<Points> 
<DataArray type="Float32" NumberOfComponents="3"> 