<?xml version="1.0"?> 
<VTKFile type="StructuredGrid" version="0.1"> 
<StructuredGrid WholeExtent="0 31 0 31 0 0"> 
<Piece Extent="0 31 0 31 0 0"> 
<PointData>
<DataArray type="Float32" Name="B" format="ascii" NumberOfComponents="3"> 
0 -3.12481e-06 0 -5.6929e-07 -3.13544e-06 0 -1.14286e-06 -3.1673e-06 0 -1.72509e-06 -3.22029e-06 0 -2.32031e-06 -3.29426e-06 0 -2.93317e-06 -3.38883e-06 0 -3.56819e-06 -3.50349e-06 0 -4.23047e-06 -3.63715e-06 0 -4.92509e-06 -3.7886e-06 0 -5.65745e-06 -3.95488e-06 0 -6.43496e-06 -4.13363e-06 0 -7.26051e-06 -4.31724e-06 0 -8.15282e-06 -4.50219e-06 0 -9.09533e-06 -4.66889e-06 0 -1.01604e-05 -4.81572e-06 0 -1.12295e-05 -4.89081e-06 0 -1.26149e-05 -4.90969e-06 0 -1.37313e-05 -4.7313e-06 0 -1.59085e-05 -4.4438e-06 0 -1.65834e-05 -3.66099e-06 0 -2.12091e-05 -2.71099e-06 0 -1.92713e-05 -5.69821e-07 0 -3.22965e-05 1.7978e-06 0 -1.91499e-05 6.84398e-06 0 -6.17931e-05 1.25314e-05 0 -5.7833e-06 2.32154e-05 0 -0.000152301 3.86129e-05 0 5.42857e-05 5.75376e-05 0 -0.00044931 0.000112624 0 0.000165755 0.000120684 0 -0.00117997 0.000540579 0 -0.0196659 -0.00231567 0 2.21499e-20 -2.93413e-06 0 -5.76129e-07 -2.94405e-06 0 -1.15654e-06 -2.97376e-06 0 -1.74553e-06 -3.02316e-06 0 -2.34747e-06 -3.09205e-06 0 -2.96682e-06 -3.18004e-06 0 -3.60818e-06 -3.28649e-06 0 -4.27627e-06 -3.41042e-06 0 -4.97609e-06 -3.55013e-06 0 -5.71294e-06 -3.70329e-06 0 -6.49229e-06 -3.86589e-06 0 -7.32095e-06 -4.03288e-06 0 -8.20422e-06 -4.19499e-06 0 -9.15427e-06 -4.34226e-06 0 -1.01716e-05 -4.4531e-06 0 -1.12897e-05 -4.50975e-06 0 -1.24806e-05 -4.46048e-06 0 -1.38642e-05 -4.27878e-06 0 -1.52787e-05 -3.8355e-06 0 -1.7189e-05 -3.10697e-06 0 -1.88635e-05 -1.76188e-06 0 -2.21069e-05 1.72817e-07 0 -2.39149e-05 3.53195e-06 0 -3.11435e-05 8.17967e-06 0 -3.2179e-05 1.59834e-05 0 -5.23732e-05 2.73726e-05 0 -4.91524e-05 4.49361e-05 0 -0.000113902 7.75314e-05 0 -0.000102061 0.000119473 0 -0.000337826 0.000263652 0 -0.000578513 0.000475968 0 -9.27962e-05 0.00527158 0 1.70456e-20 -2.74125e-06 0 -5.825e-07 -2.75046e-06 0 -1.16925e-06 -2.77803e-06 0 -1.76454e-06 -2.82386e-06 0 -2.37268e-06 -2.88772e-06 0 -2.99806e-06 -2.96918e-06 0 -3.64516e-06 -3.06759e-06 0 -4.31857e-06 -3.18185e-06 0 -5.02303e-06 -3.31031e-06 0 -5.76346e-06 -3.45034e-06 0 -6.545e-06 -3.59821e-06 0 -7.37309e-06 -3.74791e-06 0 -8.25368e-06 -3.89151e-06 0 -9.1932e-06 -4.01556e-06 0 -1.01995e-05 -4.10391e-06 0 -1.12817e-05 -4.12636e-06 0 -1.24524e-05 -4.05118e-06 0 -1.37291e-05 -3.80909e-06 0 -1.51366e-05 -3.33962e-06 0 -1.67245e-05 -2.47957e-06 0 -1.85382e-05 -1.11513e-06 0 -2.07646e-05 1.14588e-06 0 -2.34351e-05 4.53362e-06 0 -2.73407e-05 9.99003e-06 0 -3.21397e-05 1.81401e-05 0 -4.12903e-05 3.12077e-05 0 -5.20802e-05 5.19165e-05 0 -7.97217e-05 8.59931e-05 0 -0.000111172 0.00015159 0 -0.000213312 0.000281636 0 -0.000322915 0.00076214 0 0.00149604 0.00240585 0 0 -2.54632e-06 0 -5.88398e-07 -2.55482e-06 0 -1.18103e-06 -2.58028e-06 0 -1.78213e-06 -2.62256e-06 0 -2.39597e-06 -2.68142e-06 0 -3.02688e-06 -2.75644e-06 0 -3.67922e-06 -2.8469e-06 0 -4.35743e-06 -2.95171e-06 0 -5.06598e-06 -3.06914e-06 0 -5.80944e-06 -3.19658e-06 0 -6.59245e-06 -3.33012e-06 0 -7.41966e-06 -3.46393e-06 0 -8.29599e-06 -3.58947e-06 0 -9.22612e-06 -3.69404e-06 0 -1.0216e-05 -3.75947e-06 0 -1.12702e-05 -3.75819e-06 0 -1.23994e-05 -3.65176e-06 0 -1.36062e-05 -3.37943e-06 0 -1.49219e-05 -2.85953e-06 0 -1.63385e-05 -1.95427e-06 0 -1.79692e-05 -4.8703e-07 0 -1.97519e-05 1.8666e-06 0 -2.21135e-05 5.50814e-06 0 -2.4751e-05 1.12307e-05 0 -2.92456e-05 2.00756e-05 0 -3.43191e-05 3.40763e-05 0 -4.56406e-05 5.68184e-05 0 -5.82676e-05 9.44684e-05 0 -9.08454e-05 0.000166335 0 -0.000119245 0.000309397 0 -8.55368e-05 0.000723979 0 0.000939877 0.00126552 0 2.77948e-22 -2.34951e-06 0 -5.93827e-07 -2.3573e-06 0 -1.19186e-06 -2.38065e-06 0 -1.7983e-06 -2.41941e-06 0 -2.41737e-06 -2.47333e-06 0 -3.05333e-06 -2.54197e-06 0 -3.71042e-06 -2.62462e-06 0 -4.39291e-06 -2.72016e-06 0 -5.10505e-06 -2.82686e-06 0 -5.85103e-06 -2.94211e-06 0 -6.63497e-06 -3.06201e-06 0 -7.4608e-06 -3.18076e-06 0 -8.33224e-06 -3.28979e-06 0 -9.2526e-06 -3.3766e-06 0 -1.02249e-05 -3.42263e-06 0 -1.12516e-05 -3.40097e-06 0 -1.23352e-05 -3.27142e-06 0 -1.3477e-05 -2.9753e-06 0 -1.46837e-05 -2.4241e-06 0 -1.59561e-05 -1.48644e-06 0 -1.73264e-05 3.81067e-08 0 -1.87965e-05 2.45592e-06 0 -2.05147e-05 6.24212e-06 0 -2.24667e-05 1.21531e-05 0 -2.52698e-05 2.14166e-05 0 -2.87066e-05 3.60786e-05 0 -3.50639e-05 5.99643e-05 0 -4.23599e-05 9.98466e-05 0 -5.61016e-05 0.000172854 0 -5.02245e-05 0.000313962 0 7.44961e-05 0.000616086 0 0.00075029 0.000715741 0 1.94185e-20 -2.15096e-06 0 -5.98789e-07 -2.15806e-06 0 -1.20175e-06 -2.17931e-06 0 -1.81306e-06 -2.21458e-06 0 -2.43689e-06 -2.2636e-06 0 -3.07742e-06 -2.32595e-06 0 -3.73879e-06 -2.4009e-06 0 -4.42509e-06 -2.48736e-06 0 -5.14035e-06 -2.58361e-06 0 -5.8884e-06 -2.68711e-06 0 -6.67284e-06 -2.794e-06 0 -7.49687e-06 -2.89862e-06 0 -8.36307e-06 -2.99256e-06 0 -9.27325e-06 -3.06354e-06 0 -1.02279e-05 -3.09329e-06 0 -1.12263e-05 -3.05534e-06 0 -1.22652e-05 -2.90964e-06 0 -1.33395e-05 -2.59845e-06 0 -1.44405e-05 -2.03198e-06 0 -1.55589e-05 -1.08094e-06 0 -1.66807e-05 4.62712e-07 0 -1.78004e-05 2.90077e-06 0 -1.89148e-05 6.73718e-06 0 -2.00512e-05 1.27223e-05 0 -2.12875e-05 2.21567e-05 0 -2.26876e-05 3.71125e-05 0 -2.44766e-05 6.13678e-05 0 -2.55871e-05 0.000101821 0 -2.2773e-05 0.000172218 0 9.44284e-06 0.000300213 0 0.000167039 0.000501754 0 0.000611656 0.000529233 0 9.01502e-21 -1.95083e-06 0 -6.03287e-07 -1.95724e-06 0 -1.21072e-06 -1.97641e-06 0 -1.82643e-06 -2.00821e-06 0 -2.45456e-06 -2.05239e-06 0 -3.0992e-06 -2.10852e-06 0 -3.76438e-06 -2.1759e-06 0 -4.45406e-06 -2.25346e-06 0 -5.17201e-06 -2.33955e-06 0 -5.92173e-06 -2.4317e-06 0 -6.70631e-06 -2.52622e-06 0 -7.52823e-06 -2.61762e-06 0 -8.38903e-06 -2.69783e-06 0 -9.2889e-06 -2.75494e-06 0 -1.02261e-05 -2.77141e-06 0 -1.11964e-05 -2.72133e-06 0 -1.21915e-05 -2.56626e-06 0 -1.31984e-05 -2.24892e-06 0 -1.41967e-05 -1.68298e-06 0 -1.51585e-05 -7.38217e-07 0 -1.6041e-05 7.86266e-07 0 -1.67939e-05 3.19886e-06 0 -1.7335e-05 6.98932e-06 0 -1.75832e-05 1.2929e-05 0 -1.73653e-05 2.22853e-05 0 -1.64771e-05 3.71454e-05 0 -1.41949e-05 6.108e-05 0 -8.66661e-06 0.00010041 0 7.21428e-06 0.000165996 0 5.83107e-05 0.000274035 0 0.000217779 0.000409067 0 0.00053212 0.00037934 0 0 -1.74928e-06 0 -6.07324e-07 -1.755e-06 0 -1.21877e-06 -1.7721e-06 0 -1.83843e-06 -1.80047e-06 0 -2.4704e-06 -1.83985e-06 0 -3.11869e-06 -1.88984e-06 0 -3.78726e-06 -1.94976e-06 0 -4.47989e-06 -2.0186e-06 0 -5.20013e-06 -2.0948e-06 0 -5.95117e-06 -2.17602e-06 0 -6.73563e-06 -2.25875e-06 0 -7.55527e-06 -2.33783e-06 0 -8.41061e-06 -2.4056e-06 0 -9.30038e-06 -2.45079e-06 0 -1.02206e-05 -2.45676e-06 0 -1.11637e-05 -2.39888e-06 0 -1.21164e-05 -2.24046e-06 0 -1.30581e-05 -1.9268e-06 0 -1.39569e-05 -1.37493e-06 0 -1.47665e-05 -4.59492e-07 0 -1.5416e-05 1.01405e-06 0 -1.58092e-05 3.34496e-06 0 -1.57905e-05 7.01013e-06 0 -1.51586e-05 1.27604e-05 0 -1.35311e-05 2.18222e-05 0 -1.03748e-05 3.61882e-05 0 -4.3077e-06 5.91404e-05 0 7.40342e-06 9.61324e-05 0 3.35206e-05 0.000154986 0 9.62085e-05 0.000243067 0 0.000245143 0.000331387 0 0.000480777 0.000304795 0 0 -1.54646e-06 0 -6.10904e-07 -1.55149e-06 0 -1.2259e-06 -1.56654e-06 0 -1.84906e-06 -1.5915e-06 0 -2.48441e-06 -1.62613e-06 0 -3.13593e-06 -1.67004e-06 0 -3.80746e-06 -1.72262e-06 0 -4.50264e-06 -1.78292e-06 0 -5.22482e-06 -1.84948e-06 0 -5.97689e-06 -1.92015e-06 0 -6.76102e-06 -1.99167e-06 0 -7.57831e-06 -2.05926e-06 0 -8.42835e-06 -2.11583e-06 0 -9.30843e-06 -2.15092e-06 0 -1.02125e-05 -2.14908e-06 0 -1.11298e-05 -2.08738e-06 0 -1.20424e-05 -1.93168e-06 0 -1.29224e-05 -1.63062e-06 0 -1.3727e-05 -1.10676e-06 0 -1.43916e-05 -2.41411e-07 0 -1.482e-05 1.14782e-06 0 -1.48678e-05 3.34641e-06 0 -1.43168e-05 6.8027e-06 0 -1.28341e-05 1.22329e-05 0 -9.87783e-06 2.07815e-05 0 -4.54618e-06 3.42957e-05 0 4.92883e-06 5.56853e-05 0 2.21484e-05 8.93874e-05 0 5.58272e-05 0.000140665 0 0.000124911 0.000210337 0 0.00025936 0.000269029 0 0.000440622 0.000235462 0 0 -1.34252e-06 0 -6.14029e-07 -1.34687e-06 0 -1.23212e-06 -1.35989e-06 0 -1.85833e-06 -1.38146e-06 0 -2.49663e-06 -1.41138e-06 0 -3.15095e-06 -1.44928e-06 0 -3.82502e-06 -1.49462e-06 0 -4.52239e-06 -1.54653e-06 0 -5.24619e-06 -1.6037e-06 0 -5.99904e-06 -1.66416e-06 0 -6.7827e-06 -1.725e-06 0 -7.5977e-06 -1.78187e-06 0 -8.44272e-06 -1.82838e-06 0 -9.31376e-06 -1.85507e-06 0 -1.02029e-05 -1.84793e-06 0 -1.10963e-05 -1.78618e-06 0 -1.19719e-05 -1.63873e-06 0 -1.27949e-05 -1.35887e-06 0 -1.35121e-05 -8.75713e-07 0 -1.40429e-05 -8.07838e-08 0 -1.42648e-05 1.19379e-06 0 -1.39931e-05 3.21001e-06 0 -1.29423e-05 6.38145e-06 0 -1.06742e-05 1.13641e-05 0 -6.47308e-06 1.92021e-05 0 8.26157e-07 3.15415e-05 0 1.33731e-05 5.0878e-05 0 3.51363e-05 8.06686e-05 0 7.44307e-05 0.000124033 0 0.000145971 0.00017819 0 0.000266513 0.000216652 0 0.000413994 0.000189097 0 0 -1.13761e-06 0 -6.16702e-07 -1.14128e-06 0 -1.23745e-06 -1.15228e-06 0 -1.86625e-06 -1.17049e-06 0 -2.50707e-06 -1.19573e-06 0 -3.16376e-06 -1.2277e-06 0 -3.84e-06 -1.26589e-06 0 -4.53919e-06 -1.30955e-06 0 -5.26433e-06 -1.35754e-06 0 -6.01776e-06 -1.40813e-06 0 -6.80089e-06 -1.45875e-06 0 -7.61372e-06 -1.50561e-06 0 -8.45416e-06 -1.5431e-06 0 -9.31703e-06 -1.56291e-06 0 -1.01927e-05 -1.55275e-06 0 -1.10647e-05 -1.49432e-06 0 -1.19071e-05 -1.36027e-06 0 -1.26789e-05 -1.1093e-06 0 -1.33176e-05 -6.78766e-07 0 -1.37277e-05 2.76036e-08 0 -1.37638e-05 1.15872e-06 0 -1.32028e-05 2.94794e-06 0 -1.17017e-05 5.76245e-06 0 -8.72185e-06 1.01847e-05 0 -3.40867e-06 1.7131e-05 0 5.64354e-06 2.80204e-05 0 2.08141e-05 4.49144e-05 0 4.6291e-05 7.03869e-05 0 8.94436e-05 0.000106016 0 0.000161372 0.000147268 0 0.00026966 0.000172635 0 0.000391424 0.000147288 0 0 -9.31881e-07 0 -6.18926e-07 -9.34883e-07 0 -1.24188e-06 -9.43862e-07 0 -1.87284e-06 -9.58733e-07 0 -2.51575e-06 -9.79339e-07 0 -3.17441e-06 -1.00541e-06 0 -3.85242e-06 -1.03655e-06 0 -4.55311e-06 -1.07209e-06 0 -5.2793e-06 -1.11108e-06 0 -6.03316e-06 -1.15207e-06 0 -6.81576e-06 -1.19289e-06 0 -7.62665e-06 -1.23036e-06 0 -8.46305e-06 -1.25973e-06 0 -9.31882e-06 -1.27402e-06 0 -1.01828e-05 -1.26284e-06 0 -1.10363e-05 -1.21074e-06 0 -1.18498e-05 -1.09456e-06 0 -1.25773e-05 -8.79352e-07 0 -1.31479e-05 -5.11893e-07 0 -1.34534e-05 8.95816e-08 0 -1.33276e-05 1.05199e-06 0 -1.25155e-05 2.57394e-06 0 -1.06211e-05 4.96849e-06 0 -7.02562e-06 8.7295e-06 0 -7.45949e-07 1.46292e-05 0 9.79091e-06 2.38382e-05 0 2.71571e-05 3.79925e-05 0 5.55026e-05 5.89279e-05 0 0.000101303 8.71916e-05 0 0.000172358 0.000117929 0 0.000270755 0.000134365 0 0.000375839 0.000114275 0 0 -7.25487e-07 0 -6.20702e-07 -7.27819e-07 0 -1.24541e-06 -7.34793e-07 0 -1.8781e-06 -7.46341e-07 0 -2.52267e-06 -7.62336e-07 0 -3.1829e-06 -7.82569e-07 0 -3.86232e-06 -8.06706e-07 0 -4.56418e-06 -8.34239e-07 0 -5.2912e-06 -8.64396e-07 0 -6.04535e-06 -8.96022e-07 0 -6.82746e-06 -9.274e-07 0 -7.6367e-06 -9.55984e-07 0 -8.46975e-06 -9.78009e-07 0 -9.31962e-06 -9.87902e-07 0 -1.01739e-05 -9.77392e-07 0 -1.10121e-05 -9.34147e-07 0 -1.18019e-05 -8.39675e-07 0 -1.24928e-05 -6.6602e-07 0 -1.30072e-05 -3.70583e-07 0 -1.3226e-05 1.12216e-07 0 -1.29665e-05 8.84187e-07 0 -1.1946e-05 2.10489e-06 0 -9.72644e-06 4.0254e-06 0 -5.62062e-06 7.04099e-06 0 1.45153e-06 1.17645e-05 0 1.31997e-05 1.91102e-05 0 3.22974e-05 3.03085e-05 0 6.28117e-05 4.66038e-05 0 0.00011029 6.79722e-05 0 0.0001801 9.00432e-05 0 0.000270782 0.000100539 0 0.000363281 8.45745e-05 0 -6.47985e-22 -5.18575e-07 0 -6.22033e-07 -5.20239e-07 0 -1.24806e-06 -5.25215e-07 0 -1.88204e-06 -5.33453e-07 0 -2.52786e-06 -5.44862e-07 0 -3.18925e-06 -5.59287e-07 0 -3.86972e-06 -5.76487e-07 0 -4.57245e-06 -5.96092e-07 0 -5.30007e-06 -6.17541e-07 0 -6.05441e-06 -6.39994e-07 0 -6.83612e-06 -6.62203e-07 0 -7.64407e-06 -6.82319e-07 0 -8.47452e-06 -6.97606e-07 0 -9.31985e-06 -7.04012e-07 0 -1.01667e-05 -6.9552e-07 0 -1.09932e-05 -6.63153e-07 0 -1.17647e-05 -5.93436e-07 0 -1.24274e-05 -4.65991e-07 0 -1.28986e-05 -2.49713e-07 0 -1.30508e-05 1.03289e-07 0 -1.26882e-05 6.67481e-07 0 -1.15075e-05 1.55949e-06 0 -9.03704e-06 2.96291e-06 0 -4.53966e-06 5.16575e-06 0 3.14075e-06 8.61221e-06 0 1.58035e-05 1.39554e-05 0 3.61919e-05 2.2048e-05 0 6.82313e-05 3.36759e-05 0 0.000116753 4.85836e-05 0 0.000185298 6.34e-05 0 0.000270416 6.97596e-05 0 0.00035488 5.85688e-05 0 -3.30745e-21 -3.11293e-07 0 -6.22919e-07 -3.12291e-07 0 -1.24982e-06 -3.15274e-07 0 -1.88467e-06 -3.20213e-07 0 -2.53131e-06 -3.27051e-07 0 -3.19347e-06 -3.35696e-07 0 -3.87464e-06 -3.45999e-07 0 -4.57795e-06 -3.57737e-07 0 -5.30596e-06 -3.70569e-07 0 -6.06042e-06 -3.83986e-07 0 -6.84184e-06 -3.97229e-07 0 -7.64891e-06 -4.09178e-07 0 -8.47758e-06 -4.18171e-07 0 -9.31982e-06 -4.21747e-07 0 -1.01616e-05 -4.16254e-07 0 -1.09801e-05 -3.96237e-07 0 -1.17393e-05 -3.53504e-07 0 -1.23829e-05 -2.75658e-07 0 -1.28248e-05 -1.43771e-07 0 -1.29318e-05 7.13325e-08 0 -1.24991e-05 4.15011e-07 0 -1.12094e-05 9.58361e-07 0 -8.56886e-06 1.81317e-06 0 -3.80543e-06 3.15459e-06 0 4.28535e-06 5.25144e-06 0 1.75632e-05 8.49533e-06 0 3.88008e-05 1.33863e-05 0 7.1817e-05 2.03528e-05 0 0.000120916 2.91499e-05 0 0.000188508 3.76662e-05 0 0.000269996 4.1072e-05 0 0.0003492 3.43052e-05 0 -1.96453e-22 -1.03789e-07 0 -6.23362e-07 -1.04121e-07 0 -1.25071e-06 -1.05115e-07 0 -1.88598e-06 -1.06761e-07 0 -2.53303e-06 -1.09039e-07 0 -3.19558e-06 -1.11919e-07 0 -3.8771e-06 -1.15351e-07 0 -4.58069e-06 -1.19259e-07 0 -5.30889e-06 -1.23531e-07 0 -6.06341e-06 -1.27993e-07 0 -6.84468e-06 -1.32394e-07 0 -7.6513e-06 -1.36357e-07 0 -8.47908e-06 -1.39324e-07 0 -9.31975e-06 -1.40472e-07 0 -1.0159e-05 -1.38574e-07 0 -1.09735e-05 -1.31801e-07 0 -1.17264e-05 -1.17406e-07 0 -1.23604e-05 -9.12261e-08 0 -1.27874e-05 -4.69068e-08 0 -1.28716e-05 2.53464e-08 0 -1.24035e-05 1.40776e-07 0 -1.10588e-05 3.23254e-07 0 -8.33207e-06 6.10337e-07 0 -3.43442e-06 1.06076e-06 0 4.86355e-06 1.76456e-06 0 1.84493e-05 2.85212e-06 0 4.01099e-05 4.48809e-06 0 7.35983e-05 6.80813e-06 0 0.000122957 9.71505e-06 0 0.000190033 1.24934e-05 0 0.000269744 1.35591e-05 0 0.000346535 1.13422e-05 0 0 1.03789e-07 0 -6.23362e-07 1.04121e-07 0 -1.25071e-06 1.05115e-07 0 -1.88598e-06 1.06761e-07 0 -2.53303e-06 1.09039e-07 0 -3.19558e-06 1.11919e-07 0 -3.8771e-06 1.15351e-07 0 -4.58069e-06 1.19259e-07 0 -5.30889e-06 1.23531e-07 0 -6.06341e-06 1.27993e-07 0 -6.84468e-06 1.32394e-07 0 -7.6513e-06 1.36357e-07 0 -8.47908e-06 1.39324e-07 0 -9.31975e-06 1.40472e-07 0 -1.0159e-05 1.38574e-07 0 -1.09735e-05 1.31801e-07 0 -1.17264e-05 1.17406e-07 0 -1.23604e-05 9.12261e-08 0 -1.27874e-05 4.69068e-08 0 -1.28716e-05 -2.53464e-08 0 -1.24035e-05 -1.40776e-07 0 -1.10588e-05 -3.23254e-07 0 -8.33207e-06 -6.10337e-07 0 -3.43442e-06 -1.06076e-06 0 4.86355e-06 -1.76456e-06 0 1.84493e-05 -2.85212e-06 0 4.01099e-05 -4.48809e-06 0 7.35983e-05 -6.80813e-06 0 0.000122957 -9.71505e-06 0 0.000190033 -1.24934e-05 0 0.000269744 -1.35591e-05 0 0.000346535 -1.13422e-05 0 0 3.11293e-07 0 -6.22919e-07 3.12291e-07 0 -1.24982e-06 3.15274e-07 0 -1.88467e-06 3.20213e-07 0 -2.53131e-06 3.27051e-07 0 -3.19347e-06 3.35696e-07 0 -3.87464e-06 3.45999e-07 0 -4.57795e-06 3.57737e-07 0 -5.30596e-06 3.70569e-07 0 -6.06042e-06 3.83986e-07 0 -6.84184e-06 3.97229e-07 0 -7.64891e-06 4.09178e-07 0 -8.47758e-06 4.18171e-07 0 -9.31982e-06 4.21747e-07 0 -1.01616e-05 4.16254e-07 0 -1.09801e-05 3.96237e-07 0 -1.17393e-05 3.53504e-07 0 -1.23829e-05 2.75658e-07 0 -1.28248e-05 1.43771e-07 0 -1.29318e-05 -7.13325e-08 0 -1.24991e-05 -4.15011e-07 0 -1.12094e-05 -9.58361e-07 0 -8.56886e-06 -1.81317e-06 0 -3.80543e-06 -3.15459e-06 0 4.28535e-06 -5.25144e-06 0 1.75632e-05 -8.49533e-06 0 3.88008e-05 -1.33863e-05 0 7.1817e-05 -2.03528e-05 0 0.000120916 -2.91499e-05 0 0.000188508 -3.76662e-05 0 0.000269996 -4.1072e-05 0 0.0003492 -3.43052e-05 0 1.24229e-21 5.18575e-07 0 -6.22033e-07 5.20239e-07 0 -1.24806e-06 5.25215e-07 0 -1.88204e-06 5.33453e-07 0 -2.52786e-06 5.44862e-07 0 -3.18925e-06 5.59287e-07 0 -3.86972e-06 5.76487e-07 0 -4.57245e-06 5.96092e-07 0 -5.30007e-06 6.17541e-07 0 -6.05441e-06 6.39994e-07 0 -6.83612e-06 6.62203e-07 0 -7.64407e-06 6.82319e-07 0 -8.47452e-06 6.97606e-07 0 -9.31985e-06 7.04012e-07 0 -1.01667e-05 6.9552e-07 0 -1.09932e-05 6.63153e-07 0 -1.17647e-05 5.93436e-07 0 -1.24274e-05 4.65991e-07 0 -1.28986e-05 2.49713e-07 0 -1.30508e-05 -1.03289e-07 0 -1.26882e-05 -6.67481e-07 0 -1.15075e-05 -1.55949e-06 0 -9.03704e-06 -2.96291e-06 0 -4.53966e-06 -5.16575e-06 0 3.14075e-06 -8.61221e-06 0 1.58035e-05 -1.39554e-05 0 3.61919e-05 -2.2048e-05 0 6.82313e-05 -3.36759e-05 0 0.000116753 -4.85836e-05 0 0.000185298 -6.34e-05 0 0.000270416 -6.97596e-05 0 0.00035488 -5.85688e-05 0 7.60092e-21 7.25487e-07 0 -6.20702e-07 7.27819e-07 0 -1.24541e-06 7.34793e-07 0 -1.8781e-06 7.46341e-07 0 -2.52267e-06 7.62336e-07 0 -3.1829e-06 7.82569e-07 0 -3.86232e-06 8.06706e-07 0 -4.56418e-06 8.34239e-07 0 -5.2912e-06 8.64396e-07 0 -6.04535e-06 8.96022e-07 0 -6.82746e-06 9.274e-07 0 -7.6367e-06 9.55984e-07 0 -8.46975e-06 9.78009e-07 0 -9.31962e-06 9.87902e-07 0 -1.01739e-05 9.77392e-07 0 -1.10121e-05 9.34147e-07 0 -1.18019e-05 8.39675e-07 0 -1.24928e-05 6.6602e-07 0 -1.30072e-05 3.70583e-07 0 -1.3226e-05 -1.12216e-07 0 -1.29665e-05 -8.84187e-07 0 -1.1946e-05 -2.10489e-06 0 -9.72644e-06 -4.0254e-06 0 -5.62062e-06 -7.04099e-06 0 1.45153e-06 -1.17645e-05 0 1.31997e-05 -1.91102e-05 0 3.22974e-05 -3.03085e-05 0 6.28117e-05 -4.66038e-05 0 0.00011029 -6.79722e-05 0 0.0001801 -9.00432e-05 0 0.000270782 -0.000100539 0 0.000363281 -8.45745e-05 0 8.33705e-22 9.31881e-07 0 -6.18926e-07 9.34883e-07 0 -1.24188e-06 9.43862e-07 0 -1.87284e-06 9.58733e-07 0 -2.51575e-06 9.79339e-07 0 -3.17441e-06 1.00541e-06 0 -3.85242e-06 1.03655e-06 0 -4.55311e-06 1.07209e-06 0 -5.2793e-06 1.11108e-06 0 -6.03316e-06 1.15207e-06 0 -6.81576e-06 1.19289e-06 0 -7.62665e-06 1.23036e-06 0 -8.46305e-06 1.25973e-06 0 -9.31882e-06 1.27402e-06 0 -1.01828e-05 1.26284e-06 0 -1.10363e-05 1.21074e-06 0 -1.18498e-05 1.09456e-06 0 -1.25773e-05 8.79352e-07 0 -1.31479e-05 5.11893e-07 0 -1.34534e-05 -8.95816e-08 0 -1.33276e-05 -1.05199e-06 0 -1.25155e-05 -2.57394e-06 0 -1.06211e-05 -4.96849e-06 0 -7.02562e-06 -8.7295e-06 0 -7.45949e-07 -1.46292e-05 0 9.79091e-06 -2.38382e-05 0 2.71571e-05 -3.79925e-05 0 5.55026e-05 -5.89279e-05 0 0.000101303 -8.71916e-05 0 0.000172358 -0.000117929 0 0.000270755 -0.000134365 0 0.000375839 -0.000114275 0 0 1.13761e-06 0 -6.16702e-07 1.14128e-06 0 -1.23745e-06 1.15228e-06 0 -1.86625e-06 1.17049e-06 0 -2.50707e-06 1.19573e-06 0 -3.16376e-06 1.2277e-06 0 -3.84e-06 1.26589e-06 0 -4.53919e-06 1.30955e-06 0 -5.26433e-06 1.35754e-06 0 -6.01776e-06 1.40813e-06 0 -6.80089e-06 1.45875e-06 0 -7.61372e-06 1.50561e-06 0 -8.45416e-06 1.5431e-06 0 -9.31703e-06 1.56291e-06 0 -1.01927e-05 1.55275e-06 0 -1.10647e-05 1.49432e-06 0 -1.19071e-05 1.36027e-06 0 -1.26789e-05 1.1093e-06 0 -1.33176e-05 6.78766e-07 0 -1.37277e-05 -2.76036e-08 0 -1.37638e-05 -1.15872e-06 0 -1.32028e-05 -2.94794e-06 0 -1.17017e-05 -5.76245e-06 0 -8.72185e-06 -1.01847e-05 0 -3.40867e-06 -1.7131e-05 0 5.64354e-06 -2.80204e-05 0 2.08141e-05 -4.49144e-05 0 4.6291e-05 -7.03869e-05 0 8.94436e-05 -0.000106016 0 0.000161372 -0.000147268 0 0.00026966 -0.000172635 0 0.000391424 -0.000147288 0 0 1.34252e-06 0 -6.14029e-07 1.34687e-06 0 -1.23212e-06 1.35989e-06 0 -1.85833e-06 1.38146e-06 0 -2.49663e-06 1.41138e-06 0 -3.15095e-06 1.44928e-06 0 -3.82502e-06 1.49462e-06 0 -4.52239e-06 1.54653e-06 0 -5.24619e-06 1.6037e-06 0 -5.99904e-06 1.66416e-06 0 -6.7827e-06 1.725e-06 0 -7.5977e-06 1.78187e-06 0 -8.44272e-06 1.82838e-06 0 -9.31376e-06 1.85507e-06 0 -1.02029e-05 1.84793e-06 0 -1.10963e-05 1.78618e-06 0 -1.19719e-05 1.63873e-06 0 -1.27949e-05 1.35887e-06 0 -1.35121e-05 8.75713e-07 0 -1.40429e-05 8.07838e-08 0 -1.42648e-05 -1.19379e-06 0 -1.39931e-05 -3.21001e-06 0 -1.29423e-05 -6.38145e-06 0 -1.06742e-05 -1.13641e-05 0 -6.47308e-06 -1.92021e-05 0 8.26157e-07 -3.15415e-05 0 1.33731e-05 -5.0878e-05 0 3.51363e-05 -8.06686e-05 0 7.44307e-05 -0.000124033 0 0.000145971 -0.00017819 0 0.000266513 -0.000216652 0 0.000413994 -0.000189097 0 0 1.54646e-06 0 -6.10904e-07 1.55149e-06 0 -1.2259e-06 1.56654e-06 0 -1.84906e-06 1.5915e-06 0 -2.48441e-06 1.62613e-06 0 -3.13593e-06 1.67004e-06 0 -3.80746e-06 1.72262e-06 0 -4.50264e-06 1.78292e-06 0 -5.22482e-06 1.84948e-06 0 -5.97689e-06 1.92015e-06 0 -6.76102e-06 1.99167e-06 0 -7.57831e-06 2.05926e-06 0 -8.42835e-06 2.11583e-06 0 -9.30843e-06 2.15092e-06 0 -1.02125e-05 2.14908e-06 0 -1.11298e-05 2.08738e-06 0 -1.20424e-05 1.93168e-06 0 -1.29224e-05 1.63062e-06 0 -1.3727e-05 1.10676e-06 0 -1.43916e-05 2.41411e-07 0 -1.482e-05 -1.14782e-06 0 -1.48678e-05 -3.34641e-06 0 -1.43168e-05 -6.8027e-06 0 -1.28341e-05 -1.22329e-05 0 -9.87783e-06 -2.07815e-05 0 -4.54618e-06 -3.42957e-05 0 4.92883e-06 -5.56853e-05 0 2.21484e-05 -8.93874e-05 0 5.58272e-05 -0.000140665 0 0.000124911 -0.000210337 0 0.00025936 -0.000269029 0 0.000440622 -0.000235462 0 0 1.74928e-06 0 -6.07324e-07 1.755e-06 0 -1.21877e-06 1.7721e-06 0 -1.83843e-06 1.80047e-06 0 -2.4704e-06 1.83985e-06 0 -3.11869e-06 1.88984e-06 0 -3.78726e-06 1.94976e-06 0 -4.47989e-06 2.0186e-06 0 -5.20013e-06 2.0948e-06 0 -5.95117e-06 2.17602e-06 0 -6.73563e-06 2.25875e-06 0 -7.55527e-06 2.33783e-06 0 -8.41061e-06 2.4056e-06 0 -9.30038e-06 2.45079e-06 0 -1.02206e-05 2.45676e-06 0 -1.11637e-05 2.39888e-06 0 -1.21164e-05 2.24046e-06 0 -1.30581e-05 1.9268e-06 0 -1.39569e-05 1.37493e-06 0 -1.47665e-05 4.59492e-07 0 -1.5416e-05 -1.01405e-06 0 -1.58092e-05 -3.34496e-06 0 -1.57905e-05 -7.01013e-06 0 -1.51586e-05 -1.27604e-05 0 -1.35311e-05 -2.18222e-05 0 -1.03748e-05 -3.61882e-05 0 -4.3077e-06 -5.91404e-05 0 7.40342e-06 -9.61324e-05 0 3.35206e-05 -0.000154986 0 9.62085e-05 -0.000243067 0 0.000245143 -0.000331387 0 0.000480777 -0.000304795 0 0 1.95083e-06 0 -6.03287e-07 1.95724e-06 0 -1.21072e-06 1.97641e-06 0 -1.82643e-06 2.00821e-06 0 -2.45456e-06 2.05239e-06 0 -3.0992e-06 2.10852e-06 0 -3.76438e-06 2.1759e-06 0 -4.45406e-06 2.25346e-06 0 -5.17201e-06 2.33955e-06 0 -5.92173e-06 2.4317e-06 0 -6.70631e-06 2.52622e-06 0 -7.52823e-06 2.61762e-06 0 -8.38903e-06 2.69783e-06 0 -9.2889e-06 2.75494e-06 0 -1.02261e-05 2.77141e-06 0 -1.11964e-05 2.72133e-06 0 -1.21915e-05 2.56626e-06 0 -1.31984e-05 2.24892e-06 0 -1.41967e-05 1.68298e-06 0 -1.51585e-05 7.38217e-07 0 -1.6041e-05 -7.86266e-07 0 -1.67939e-05 -3.19886e-06 0 -1.7335e-05 -6.98932e-06 0 -1.75832e-05 -1.2929e-05 0 -1.73653e-05 -2.22853e-05 0 -1.64771e-05 -3.71454e-05 0 -1.41949e-05 -6.108e-05 0 -8.66661e-06 -0.00010041 0 7.21428e-06 -0.000165996 0 5.83107e-05 -0.000274035 0 0.000217779 -0.000409067 0 0.00053212 -0.00037934 0 0 2.15096e-06 0 -5.98789e-07 2.15806e-06 0 -1.20175e-06 2.17931e-06 0 -1.81306e-06 2.21458e-06 0 -2.43689e-06 2.2636e-06 0 -3.07742e-06 2.32595e-06 0 -3.73879e-06 2.4009e-06 0 -4.42509e-06 2.48736e-06 0 -5.14035e-06 2.58361e-06 0 -5.8884e-06 2.68711e-06 0 -6.67284e-06 2.794e-06 0 -7.49687e-06 2.89862e-06 0 -8.36307e-06 2.99256e-06 0 -9.27325e-06 3.06354e-06 0 -1.02279e-05 3.09329e-06 0 -1.12263e-05 3.05534e-06 0 -1.22652e-05 2.90964e-06 0 -1.33395e-05 2.59845e-06 0 -1.44405e-05 2.03198e-06 0 -1.55589e-05 1.08094e-06 0 -1.66807e-05 -4.62712e-07 0 -1.78004e-05 -2.90077e-06 0 -1.89148e-05 -6.73718e-06 0 -2.00512e-05 -1.27223e-05 0 -2.12875e-05 -2.21567e-05 0 -2.26876e-05 -3.71125e-05 0 -2.44766e-05 -6.13678e-05 0 -2.55871e-05 -0.000101821 0 -2.2773e-05 -0.000172218 0 9.44284e-06 -0.000300213 0 0.000167039 -0.000501754 0 0.000611656 -0.000529233 0 0 2.34951e-06 0 -5.93827e-07 2.3573e-06 0 -1.19186e-06 2.38065e-06 0 -1.7983e-06 2.41941e-06 0 -2.41737e-06 2.47333e-06 0 -3.05333e-06 2.54197e-06 0 -3.71042e-06 2.62462e-06 0 -4.39291e-06 2.72016e-06 0 -5.10505e-06 2.82686e-06 0 -5.85103e-06 2.94211e-06 0 -6.63497e-06 3.06201e-06 0 -7.4608e-06 3.18076e-06 0 -8.33224e-06 3.28979e-06 0 -9.2526e-06 3.3766e-06 0 -1.02249e-05 3.42263e-06 0 -1.12516e-05 3.40097e-06 0 -1.23352e-05 3.27142e-06 0 -1.3477e-05 2.9753e-06 0 -1.46837e-05 2.4241e-06 0 -1.59561e-05 1.48644e-06 0 -1.73264e-05 -3.81067e-08 0 -1.87965e-05 -2.45592e-06 0 -2.05147e-05 -6.24212e-06 0 -2.24667e-05 -1.21531e-05 0 -2.52698e-05 -2.14166e-05 0 -2.87066e-05 -3.60786e-05 0 -3.50639e-05 -5.99643e-05 0 -4.23599e-05 -9.98466e-05 0 -5.61016e-05 -0.000172854 0 -5.02245e-05 -0.000313962 0 7.44961e-05 -0.000616086 0 0.00075029 -0.000715741 0 0 2.54632e-06 0 -5.88398e-07 2.55482e-06 0 -1.18103e-06 2.58028e-06 0 -1.78213e-06 2.62256e-06 0 -2.39597e-06 2.68142e-06 0 -3.02688e-06 2.75644e-06 0 -3.67922e-06 2.8469e-06 0 -4.35743e-06 2.95171e-06 0 -5.06598e-06 3.06914e-06 0 -5.80944e-06 3.19658e-06 0 -6.59245e-06 3.33012e-06 0 -7.41966e-06 3.46393e-06 0 -8.29599e-06 3.58947e-06 0 -9.22612e-06 3.69404e-06 0 -1.0216e-05 3.75947e-06 0 -1.12702e-05 3.75819e-06 0 -1.23994e-05 3.65176e-06 0 -1.36062e-05 3.37943e-06 0 -1.49219e-05 2.85953e-06 0 -1.63385e-05 1.95427e-06 0 -1.79692e-05 4.8703e-07 0 -1.97519e-05 -1.8666e-06 0 -2.21135e-05 -5.50814e-06 0 -2.4751e-05 -1.12307e-05 0 -2.92456e-05 -2.00756e-05 0 -3.43191e-05 -3.40763e-05 0 -4.56406e-05 -5.68184e-05 0 -5.82676e-05 -9.44684e-05 0 -9.08454e-05 -0.000166335 0 -0.000119245 -0.000309397 0 -8.55368e-05 -0.000723979 0 0.000939877 -0.00126552 0 0 2.74125e-06 0 -5.825e-07 2.75046e-06 0 -1.16925e-06 2.77803e-06 0 -1.76454e-06 2.82386e-06 0 -2.37268e-06 2.88772e-06 0 -2.99806e-06 2.96918e-06 0 -3.64516e-06 3.06759e-06 0 -4.31857e-06 3.18185e-06 0 -5.02303e-06 3.31031e-06 0 -5.76346e-06 3.45034e-06 0 -6.545e-06 3.59821e-06 0 -7.37309e-06 3.74791e-06 0 -8.25368e-06 3.89151e-06 0 -9.1932e-06 4.01556e-06 0 -1.01995e-05 4.10391e-06 0 -1.12817e-05 4.12636e-06 0 -1.24524e-05 4.05118e-06 0 -1.37291e-05 3.80909e-06 0 -1.51366e-05 3.33962e-06 0 -1.67245e-05 2.47957e-06 0 -1.85382e-05 1.11513e-06 0 -2.07646e-05 -1.14588e-06 0 -2.34351e-05 -4.53362e-06 0 -2.73407e-05 -9.99003e-06 0 -3.21397e-05 -1.81401e-05 0 -4.12903e-05 -3.12077e-05 0 -5.20802e-05 -5.19165e-05 0 -7.97217e-05 -8.59931e-05 0 -0.000111172 -0.00015159 0 -0.000213312 -0.000281636 0 -0.000322915 -0.00076214 0 0.00149604 -0.00240585 0 0 2.93413e-06 0 -5.76129e-07 2.94405e-06 0 -1.15654e-06 2.97376e-06 0 -1.74553e-06 3.02316e-06 0 -2.34747e-06 3.09205e-06 0 -2.96682e-06 3.18004e-06 0 -3.60818e-06 3.28649e-06 0 -4.27627e-06 3.41042e-06 0 -4.97609e-06 3.55013e-06 0 -5.71294e-06 3.70329e-06 0 -6.49229e-06 3.86589e-06 0 -7.32095e-06 4.03288e-06 0 -8.20422e-06 4.19499e-06 0 -9.15427e-06 4.34226e-06 0 -1.01716e-05 4.4531e-06 0 -1.12897e-05 4.50975e-06 0 -1.24806e-05 4.46048e-06 0 -1.38642e-05 4.27878e-06 0 -1.52787e-05 3.8355e-06 0 -1.7189e-05 3.10697e-06 0 -1.88635e-05 1.76188e-06 0 -2.21069e-05 -1.72817e-07 0 -2.39149e-05 -3.53195e-06 0 -3.11435e-05 -8.17967e-06 0 -3.2179e-05 -1.59834e-05 0 -5.23732e-05 -2.73726e-05 0 -4.91524e-05 -4.49361e-05 0 -0.000113902 -7.75314e-05 0 -0.000102061 -0.000119473 0 -0.000337826 -0.000263652 0 -0.000578513 -0.000475968 0 -9.27962e-05 -0.00527158 0 0 3.12481e-06 0 -5.6929e-07 3.13544e-06 0 -1.14286e-06 3.1673e-06 0 -1.72509e-06 3.22029e-06 0 -2.32031e-06 3.29426e-06 0 -2.93317e-06 3.38883e-06 0 -3.56819e-06 3.50349e-06 0 -4.23047e-06 3.63715e-06 0 -4.92509e-06 3.7886e-06 0 -5.65745e-06 3.95488e-06 0 -6.43496e-06 4.13363e-06 0 -7.26051e-06 4.31724e-06 0 -8.15282e-06 4.50219e-06 0 -9.09533e-06 4.66889e-06 0 -1.01604e-05 4.81572e-06 0 -1.12295e-05 4.89081e-06 0 -1.26149e-05 4.90969e-06 0 -1.37313e-05 4.7313e-06 0 -1.59085e-05 4.4438e-06 0 -1.65834e-05 3.66099e-06 0 -2.12091e-05 2.71099e-06 0 -1.92713e-05 5.69821e-07 0 -3.22965e-05 -1.7978e-06 0 -1.91499e-05 -6.84398e-06 0 -6.17931e-05 -1.25314e-05 0 -5.7833e-06 -2.32154e-05 0 -0.000152301 -3.86129e-05 0 5.42857e-05 -5.75376e-05 0 -0.00044931 -0.000112624 0 0.000165755 -0.000120684 0 -0.00117997 -0.000540579 0 -0.0196659 0.00231567 0 </DataArray> 
</PointData> 
<Points> 
<DataArray type="Float32" NumberOfComponents="3"> 