<?xml version="1.0"?> 
<VTKFile type="StructuredGrid" version="0.1"> 
<StructuredGrid WholeExtent="0 31 0 31 0 0"> 
<Piece Extent="0 31 0 31 0 0"> 
<PointData>
<DataArray type="Float32" Name="B" format="ascii" NumberOfComponents="3"> 
0 4.52869e-06 0 -8.13871e-07 4.54699e-06 0 -1.63439e-06 4.60202e-06 0 -2.46826e-06 4.69418e-06 0 -3.32235e-06 4.82419e-06 0 -4.2037e-06 4.99291e-06 0 -5.11969e-06 5.20162e-06 0 -6.07803e-06 5.45145e-06 0 -7.08698e-06 5.74426e-06 0 -8.15542e-06 6.08073e-06 0 -9.29267e-06 6.46373e-06 0 -1.05103e-05 6.89135e-06 0 -1.18177e-05 7.3693e-06 0 -1.32347e-05 7.8865e-06 0 -1.47624e-05 8.45885e-06 0 -1.6453e-05 9.04585e-06 0 -1.82593e-05 9.69944e-06 0 -2.03615e-05 1.02893e-05 0 -2.24938e-05 1.09854e-05 0 -2.53394e-05 1.13964e-05 0 -2.77372e-05 1.20436e-05 0 -3.2287e-05 1.1838e-05 0 -3.43885e-05 1.21955e-05 0 -4.36901e-05 1.0461e-05 0 -4.30489e-05 9.62579e-06 0 -6.70968e-05 5.08607e-06 0 -5.52892e-05 -1.46587e-06 0 -0.000127679 -7.2254e-06 0 -8.5564e-05 -4.65231e-05 0 -0.000331429 -1.6405e-05 0 -0.000586249 -0.00044672 0 -0.00288642 0.00265133 0 -1.33922e-20 5.32208e-06 0 -7.73984e-07 5.34362e-06 0 -1.5543e-06 5.4084e-06 0 -2.34735e-06 5.51696e-06 0 -3.1597e-06 5.67014e-06 0 -3.99811e-06 5.86914e-06 0 -4.8697e-06 6.11549e-06 0 -5.78199e-06 6.41097e-06 0 -6.74307e-06 6.75764e-06 0 -7.76173e-06 7.15772e-06 0 -8.84773e-06 7.61356e-06 0 -1.0012e-05 8.12736e-06 0 -1.12672e-05 8.70113e-06 0 -1.26277e-05 9.33617e-06 0 -1.41125e-05 1.00329e-05 0 -1.57412e-05 1.07897e-05 0 -1.75475e-05 1.16028e-05 0 -1.95581e-05 1.24643e-05 0 -2.18469e-05 1.33608e-05 0 -2.44431e-05 1.42731e-05 0 -2.75403e-05 1.51689e-05 0 -3.11344e-05 1.60144e-05 0 -3.57922e-05 1.67476e-05 0 -4.13275e-05 1.73386e-05 0 -4.94906e-05 1.77366e-05 0 -5.94603e-05 1.80374e-05 0 -7.68001e-05 1.87799e-05 0 -9.93634e-05 2.10915e-05 0 -0.000145602 3.23039e-05 0 -0.000215437 7.07248e-05 0 -0.000333028 0.000262079 0 0.000203716 0.000651673 0 -1.25865e-20 6.07246e-06 0 -7.27777e-07 6.09706e-06 0 -1.4615e-06 6.17108e-06 0 -2.2072e-06 6.29515e-06 0 -2.97104e-06 6.47033e-06 0 -3.75944e-06 6.69807e-06 0 -4.57913e-06 6.98029e-06 0 -5.4373e-06 7.31927e-06 0 -6.34174e-06 7.71773e-06 0 -7.30099e-06 8.17876e-06 0 -8.32461e-06 8.70576e-06 0 -9.42353e-06 9.30255e-06 0 -1.06104e-05 9.97293e-06 0 -1.19005e-05 1.07213e-05 0 -1.33121e-05 1.15512e-05 0 -1.4869e-05 1.24677e-05 0 -1.66002e-05 1.34731e-05 0 -1.85474e-05 1.45739e-05 0 -2.07611e-05 1.57703e-05 0 -2.33241e-05 1.70758e-05 0 -2.63304e-05 1.84918e-05 0 -2.99624e-05 2.00613e-05 0 -3.44048e-05 2.18143e-05 0 -4.00895e-05 2.39125e-05 0 -4.73952e-05 2.65673e-05 0 -5.73643e-05 3.04382e-05 0 -7.07557e-05 3.6726e-05 0 -8.96708e-05 4.85328e-05 0 -0.000113944 7.26278e-05 0 -0.000137929 0.000123588 0 -0.000119587 0.000212477 0 -4.23918e-05 0.00033734 0 0 6.77369e-06 0 -6.75633e-07 6.80115e-06 0 -1.35676e-06 6.88378e-06 0 -2.04894e-06 7.02232e-06 0 -2.75788e-06 7.21801e-06 0 -3.48954e-06 7.47261e-06 0 -4.25016e-06 7.78839e-06 0 -5.04647e-06 8.16816e-06 0 -5.88575e-06 8.61532e-06 0 -6.77607e-06 9.13383e-06 0 -7.72651e-06 9.72831e-06 0 -8.74747e-06 1.0404e-05 0 -9.85116e-06 1.11671e-05 0 -1.10522e-05 1.20243e-05 0 -1.23685e-05 1.2984e-05 0 -1.38223e-05 1.40552e-05 0 -1.54427e-05 1.52507e-05 0 -1.72666e-05 1.65839e-05 0 -1.93449e-05 1.80783e-05 0 -2.17431e-05 1.97597e-05 0 -2.45568e-05 2.16819e-05 0 -2.79054e-05 2.39107e-05 0 -3.19736e-05 2.65921e-05 0 -3.69703e-05 2.9928e-05 0 -4.32289e-05 3.4357e-05 0 -5.10116e-05 4.05608e-05 0 -6.06402e-05 4.99156e-05 0 -7.15396e-05 6.46468e-05 0 -8.147e-05 8.83034e-05 0 -8.24079e-05 0.000123896 0 -6.11156e-05 0.000166683 0 -1.51125e-07 0.000147739 0 -2.926e-22 7.42008e-06 0 -6.18009e-07 7.45015e-06 0 -1.24098e-06 7.54064e-06 0 -1.87395e-06 7.69241e-06 0 -2.52207e-06 7.90687e-06 0 -3.19073e-06 8.18605e-06 0 -3.88561e-06 8.53258e-06 0 -4.61279e-06 8.94978e-06 0 -5.37889e-06 9.44166e-06 0 -6.19127e-06 1.00131e-05 0 -7.05816e-06 1.06697e-05 0 -7.98907e-06 1.14184e-05 0 -8.99507e-06 1.2267e-05 0 -1.00894e-05 1.32253e-05 0 -1.12881e-05 1.43048e-05 0 -1.2611e-05 1.55202e-05 0 -1.40829e-05 1.68894e-05 0 -1.57358e-05 1.84376e-05 0 -1.76098e-05 2.01966e-05 0 -1.97579e-05 2.22158e-05 0 -2.22454e-05 2.45609e-05 0 -2.51579e-05 2.73424e-05 0 -2.85905e-05 3.0714e-05 0 -3.26573e-05 3.49424e-05 0 -3.74261e-05 4.04101e-05 0 -4.28995e-05 4.77627e-05 0 -4.87126e-05 5.78808e-05 0 -5.39278e-05 7.19916e-05 0 -5.60549e-05 9.0989e-05 0 -5.11582e-05 0.000114141 0 -3.46424e-05 0.000134617 0 -1.29028e-05 0.00016724 0 -2.40935e-20 8.00641e-06 0 -5.55433e-07 8.03881e-06 0 -1.11524e-06 8.13633e-06 0 -1.68384e-06 8.29991e-06 0 -2.26578e-06 8.53113e-06 0 -2.86579e-06 8.83224e-06 0 -3.48885e-06 9.20623e-06 0 -4.1403e-06 9.65683e-06 0 -4.82593e-06 1.01886e-05 0 -5.55213e-06 1.08072e-05 0 -6.32608e-06 1.15193e-05 0 -7.15593e-06 1.23329e-05 0 -8.05114e-06 1.32578e-05 0 -9.02285e-06 1.43055e-05 0 -1.00843e-05 1.54908e-05 0 -1.12515e-05 1.68317e-05 0 -1.25439e-05 1.83517e-05 0 -1.39852e-05 2.0081e-05 0 -1.5604e-05 2.2061e-05 0 -1.74343e-05 2.43471e-05 0 -1.9515e-05 2.70198e-05 0 -2.18859e-05 3.01886e-05 0 -2.45818e-05 3.40182e-05 0 -2.76078e-05 3.87319e-05 0 -3.09106e-05 4.46591e-05 0 -3.42814e-05 5.22119e-05 0 -3.72635e-05 6.1905e-05 0 -3.89014e-05 7.41237e-05 0 -3.77356e-05 8.88178e-05 0 -3.18947e-05 0.000104583 0 -2.07255e-05 0.000119196 0 -5.28543e-06 0.000115681 0 -1.31364e-20 8.52805e-06 0 -4.88496e-07 8.56247e-06 0 -9.80712e-07 8.66607e-06 0 -1.48041e-06 8.83988e-06 0 -1.99146e-06 9.08561e-06 0 -2.51784e-06 9.4057e-06 0 -3.06377e-06 9.80341e-06 0 -3.63372e-06 1.02828e-05 0 -4.23251e-06 1.0849e-05 0 -4.86542e-06 1.15082e-05 0 -5.5383e-06 1.22677e-05 0 -6.25769e-06 1.31367e-05 0 -7.03108e-06 1.41259e-05 0 -7.867e-06 1.52489e-05 0 -8.77536e-06 1.65219e-05 0 -9.7676e-06 1.79657e-05 0 -1.08569e-05 1.9606e-05 0 -1.20581e-05 2.14769e-05 0 -1.33874e-05 2.36218e-05 0 -1.48611e-05 2.60996e-05 0 -1.64927e-05 2.89872e-05 0 -1.82871e-05 3.23904e-05 0 -2.02294e-05 3.6446e-05 0 -2.22665e-05 4.13372e-05 0 -2.42713e-05 4.72824e-05 0 -2.59993e-05 5.45353e-05 0 -2.70143e-05 6.32993e-05 0 -2.66699e-05 7.36318e-05 0 -2.41194e-05 8.5152e-05 0 -1.87093e-05 9.69385e-05 0 -1.04175e-05 0.000106904 0 -5.04804e-07 0.000120731 0 0 8.98094e-06 0 -4.17846e-07 9.01705e-06 0 -8.38718e-07 9.12573e-06 0 -1.26567e-06 9.30805e-06 0 -1.70183e-06 9.56584e-06 0 -2.1504e-06 9.90169e-06 0 -2.61474e-06 1.0319e-05 0 -3.09838e-06 1.08222e-05 0 -3.60508e-06 1.14167e-05 0 -4.13887e-06 1.21089e-05 0 -4.70414e-06 1.2907e-05 0 -5.30566e-06 1.38204e-05 0 -5.94869e-06 1.4861e-05 0 -6.63899e-06 1.60428e-05 0 -7.38284e-06 1.73833e-05 0 -8.18694e-06 1.8904e-05 0 -9.05814e-06 2.06318e-05 0 -1.00029e-05 2.26006e-05 0 -1.10261e-05 2.48536e-05 0 -1.21288e-05 2.74454e-05 0 -1.33047e-05 3.04465e-05 0 -1.45337e-05 3.39446e-05 0 -1.57718e-05 3.80495e-05 0 -1.69358e-05 4.28884e-05 0 -1.78824e-05 4.8602e-05 0 -1.83821e-05 5.53113e-05 0 -1.81058e-05 6.30792e-05 0 -1.6627e-05 7.18081e-05 0 -1.35311e-05 8.11782e-05 0 -8.55783e-06 9.05229e-05 0 -1.93786e-06 9.93413e-05 0 5.2222e-06 0.000103209 0 0 9.36174e-06 0 -3.44177e-07 9.39917e-06 0 -6.90654e-07 9.51186e-06 0 -1.04175e-06 9.70089e-06 0 -1.3998e-06 9.96816e-06 0 -1.76721e-06 1.03163e-05 0 -2.14645e-06 1.0749e-05 0 -2.54003e-06 1.12706e-05 0 -2.95061e-06 1.18867e-05 0 -3.38092e-06 1.26042e-05 0 -3.8338e-06 1.34312e-05 0 -4.31221e-06 1.43776e-05 0 -4.81912e-06 1.54553e-05 0 -5.35751e-06 1.66787e-05 0 -5.93011e-06 1.80654e-05 0 -6.53911e-06 1.96365e-05 0 -7.18563e-06 2.14181e-05 0 -7.86876e-06 2.34424e-05 0 -8.58403e-06 2.57488e-05 0 -9.32103e-06 2.83857e-05 0 -1.00597e-05 3.14116e-05 0 -1.07648e-05 3.48965e-05 0 -1.13782e-05 3.89195e-05 0 -1.18088e-05 4.35657e-05 0 -1.19211e-05 4.89122e-05 0 -1.15276e-05 5.50105e-05 0 -1.03886e-05 6.18467e-05 0 -8.24499e-06 6.93106e-05 0 -4.8683e-06 7.71446e-05 0 -1.95722e-07 8.50075e-05 0 5.61177e-06 9.23528e-05 0 1.23756e-05 0.000100991 0 0 9.66778e-06 0 -2.6821e-07 9.70617e-06 0 -5.37979e-07 9.82176e-06 0 -8.10866e-07 1.00156e-05 0 -1.08843e-06 1.02897e-05 0 -1.37223e-06 1.06467e-05 0 -1.66381e-06 1.10901e-05 0 -1.96471e-06 1.16246e-05 0 -2.27643e-06 1.22557e-05 0 -2.60041e-06 1.29902e-05 0 -2.93797e-06 1.38363e-05 0 -3.29024e-06 1.48038e-05 0 -3.65806e-06 1.59044e-05 0 -4.04174e-06 1.71521e-05 0 -4.44079e-06 1.85637e-05 0 -4.85345e-06 2.01594e-05 0 -5.27595e-06 2.1963e-05 0 -5.70151e-06 2.40036e-05 0 -6.11869e-06 2.63153e-05 0 -6.50918e-06 2.89385e-05 0 -6.84459e-06 3.19198e-05 0 -7.0823e-06 3.53108e-05 0 -7.16013e-06 3.91662e-05 0 -6.99076e-06 4.35372e-05 0 -6.45715e-06 4.84624e-05 0 -5.41164e-06 5.39516e-05 0 -3.68591e-06 5.99685e-05 0 -1.11022e-06 6.64093e-05 0 2.43635e-06 7.31086e-05 0 6.99725e-06 7.98396e-05 0 1.24711e-05 8.65106e-05 0 1.84514e-05 9.2027e-05 0 0 9.89713e-06 0 -1.90685e-07 9.93612e-06 0 -3.82187e-07 1.00535e-05 0 -5.75309e-07 1.02503e-05 0 -7.70824e-07 1.05285e-05 0 -9.69456e-07 1.08907e-05 0 -1.17185e-06 1.13405e-05 0 -1.37856e-06 1.18822e-05 0 -1.58998e-06 1.25215e-05 0 -1.80629e-06 1.32649e-05 0 -2.02736e-06 1.41204e-05 0 -2.25265e-06 1.50973e-05 0 -2.48101e-06 1.62068e-05 0 -2.7104e-06 1.74622e-05 0 -2.93756e-06 1.88788e-05 0 -3.15744e-06 2.0475e-05 0 -3.36248e-06 2.2272e-05 0 -3.54151e-06 2.42947e-05 0 -3.6784e-06 2.65714e-05 0 -3.75003e-06 2.91344e-05 0 -3.72396e-06 3.20185e-05 0 -3.5554e-06 3.52605e-05 0 -3.18415e-06 3.8895e-05 0 -2.53181e-06 4.29503e-05 0 -1.50071e-06 4.74402e-05 0 2.32215e-08 5.23552e-05 0 2.16296e-06 5.76515e-05 0 5.03153e-06 6.32479e-05 0 8.71674e-06 6.90254e-05 0 1.32453e-05 7.48652e-05 0 1.85993e-05 8.0623e-05 0 2.48531e-05 8.68285e-05 0 0 1.00486e-05 0 -1.1234e-07 1.00878e-05 0 -2.2477e-07 1.02059e-05 0 -3.37352e-07 1.04038e-05 0 -4.5009e-07 1.06834e-05 0 -5.62899e-07 1.10473e-05 0 -6.75561e-07 1.14989e-05 0 -7.87676e-07 1.20426e-05 0 -8.98594e-07 1.26834e-05 0 -1.00733e-06 1.34278e-05 0 -1.11243e-06 1.42832e-05 0 -1.21185e-06 1.52585e-05 0 -1.30271e-06 1.63639e-05 0 -1.381e-06 1.76114e-05 0 -1.44118e-06 1.90149e-05 0 -1.47569e-06 2.05904e-05 0 -1.47417e-06 2.2356e-05 0 -1.42253e-06 2.43323e-05 0 -1.3018e-06 2.65419e-05 0 -1.08654e-06 2.90092e-05 0 -7.43193e-07 3.17594e-05 0 -2.28121e-07 3.48165e-05 0 5.14046e-07 3.82008e-05 0 1.55142e-06 4.19247e-05 0 2.96421e-06 4.59875e-05 0 4.84193e-06 5.037e-05 0 7.27602e-06 5.50296e-05 0 1.03522e-05 5.98994e-05 0 1.41346e-05 6.48959e-05 0 1.86694e-05 6.99266e-05 0 2.39749e-05 7.49496e-05 0 3.00025e-05 7.96661e-05 0 0 1.01218e-05 0 -3.39018e-08 1.01608e-05 0 -6.71927e-08 1.02785e-05 0 -9.92232e-08 1.04757e-05 0 -1.29264e-07 1.07541e-05 0 -1.5646e-07 1.11164e-05 0 -1.79775e-07 1.15656e-05 0 -1.9793e-07 1.21058e-05 0 -2.09316e-07 1.2742e-05 0 -2.11892e-07 1.34799e-05 0 -2.03051e-07 1.43265e-05 0 -1.79441e-07 1.52898e-05 0 -1.36739e-07 1.63791e-05 0 -6.93542e-08 1.76049e-05 0 2.99665e-08 1.89794e-05 0 1.70634e-07 2.0516e-05 0 3.64854e-07 2.22297e-05 0 6.28418e-07 2.41368e-05 0 9.81656e-07 2.62547e-05 0 1.45054e-06 2.86011e-05 0 2.06784e-06 3.11927e-05 0 2.87425e-06 3.40441e-05 0 3.91917e-06 3.71649e-05 0 5.26076e-06 4.05571e-05 0 6.96496e-06 4.42112e-05 0 9.10253e-06 4.81036e-05 0 1.17452e-05 5.21937e-05 0 1.4959e-05 5.64253e-05 0 1.8802e-05 6.07292e-05 0 2.33177e-05 6.50359e-05 0 2.85517e-05 6.92655e-05 0 3.46076e-05 7.35004e-05 0 4.21382e-21 1.01168e-05 0 4.39323e-08 1.01554e-05 0 8.91376e-08 1.02716e-05 0 1.36937e-07 1.04664e-05 0 1.88747e-07 1.07413e-05 0 2.46141e-07 1.10986e-05 0 3.10905e-07 1.15414e-05 0 3.85118e-07 1.20733e-05 0 4.71245e-07 1.26989e-05 0 5.72246e-07 1.34235e-05 0 6.91722e-07 1.42533e-05 0 8.34093e-07 1.51954e-05 0 1.00482e-06 1.6258e-05 0 1.21071e-06 1.74502e-05 0 1.46024e-06 1.8782e-05 0 1.76401e-06 2.02647e-05 0 2.13529e-06 2.19101e-05 0 2.59064e-06 2.37307e-05 0 3.15061e-06 2.57391e-05 0 3.84054e-06 2.79473e-05 0 4.69124e-06 3.03655e-05 0 5.73962e-06 3.30009e-05 0 7.02894e-06 3.58558e-05 0 8.60846e-06 3.89249e-05 0 1.05323e-05 4.21939e-05 0 1.28575e-05 4.56366e-05 0 1.56408e-05 4.92147e-05 0 1.89365e-05 5.28773e-05 0 2.27921e-05 5.65642e-05 0 2.72538e-05 6.02072e-05 0 3.23643e-05 6.37417e-05 0 3.81531e-05 6.7022e-05 0 3.55392e-20 1.00347e-05 0 1.20501e-07 1.00726e-05 0 2.42891e-07 1.01864e-05 0 3.6911e-07 1.0377e-05 0 5.01212e-07 1.06461e-05 0 6.41419e-07 1.09955e-05 0 7.92199e-07 1.14281e-05 0 9.56337e-07 1.19473e-05 0 1.13704e-06 1.2557e-05 0 1.33805e-06 1.32621e-05 0 1.56377e-06 1.40679e-05 0 1.81949e-06 1.49808e-05 0 2.11151e-06 1.60075e-05 0 2.4475e-06 1.71558e-05 0 2.83671e-06 1.8434e-05 0 3.29042e-06 1.98507e-05 0 3.82233e-06 2.14153e-05 0 4.44904e-06 2.31366e-05 0 5.19055e-06 2.50234e-05 0 6.0708e-06 2.70829e-05 0 7.11804e-06 2.93203e-05 0 8.3651e-06 3.17372e-05 0 9.84938e-06 3.43307e-05 0 1.16123e-05 3.7091e-05 0 1.36984e-05 4.00006e-05 0 1.61536e-05 4.30324e-05 0 1.90237e-05 4.61493e-05 0 2.23518e-05 4.93043e-05 0 2.61786e-05 5.24409e-05 0 3.05401e-05 5.54949e-05 0 3.54741e-05 5.83883e-05 0 4.10337e-05 6.10671e-05 0 6.2318e-21 9.87707e-06 0 1.95191e-07 9.91382e-06 0 3.92832e-07 1.00244e-05 0 5.9543e-07 1.02095e-05 0 8.0561e-07 1.04705e-05 0 1.02618e-06 1.08094e-05 0 1.2602e-06 1.12284e-05 0 1.51108e-06 1.17308e-05 0 1.78264e-06 1.23199e-05 0 2.07927e-06 1.3e-05 0 2.40602e-06 1.37757e-05 0 2.76879e-06 1.46523e-05 0 3.17452e-06 1.56356e-05 0 3.63139e-06 1.67318e-05 0 4.14908e-06 1.79473e-05 0 4.73912e-06 1.92891e-05 0 5.41515e-06 2.07636e-05 0 6.19329e-06 2.2377e-05 0 7.0925e-06 2.41346e-05 0 8.13486e-06 2.60401e-05 0 9.34578e-06 2.80946e-05 0 1.07541e-05 3.02959e-05 0 1.23917e-05 3.26373e-05 0 1.42933e-05 3.51063e-05 0 1.64952e-05 3.76834e-05 0 1.90346e-05 4.03413e-05 0 2.19476e-05 4.30444e-05 0 2.52687e-05 4.57482e-05 0 2.90287e-05 4.83997e-05 0 3.32561e-05 5.09364e-05 0 3.79747e-05 5.32869e-05 0 4.31973e-05 5.5349e-05 0 0 9.64598e-06 0 2.67441e-07 9.68138e-06 0 5.37836e-07 9.78784e-06 0 8.14198e-07 9.96607e-06 0 1.09966e-06 1.02173e-05 0 1.39755e-06 1.05431e-05 0 1.71143e-06 1.09456e-05 0 2.04523e-06 1.14276e-05 0 2.40329e-06 1.1992e-05 0 2.79051e-06 1.26423e-05 0 3.21241e-06 1.33827e-05 0 3.67535e-06 1.42173e-05 0 4.18664e-06 1.51509e-05 0 4.75475e-06 1.61883e-05 0 5.38948e-06 1.73346e-05 0 6.10226e-06 1.85945e-05 0 6.90633e-06 1.99727e-05 0 7.81701e-06 2.14729e-05 0 8.85186e-06 2.30976e-05 0 1.00309e-05 2.48477e-05 0 1.13767e-05 2.67213e-05 0 1.29142e-05 2.87136e-05 0 1.46703e-05 3.08153e-05 0 1.66739e-05 3.30121e-05 0 1.89545e-05 3.52839e-05 0 2.15415e-05 3.76036e-05 0 2.44632e-05 3.99372e-05 0 2.77456e-05 4.2243e-05 0 3.14116e-05 4.44712e-05 0 3.54792e-05 4.6564e-05 0 3.99618e-05 4.84524e-05 0 4.4869e-05 5.00654e-05 0 0 9.34414e-06 0 3.36747e-07 9.37797e-06 0 6.76893e-07 9.47964e-06 0 1.0239e-06 9.64979e-06 0 1.38133e-06 9.88946e-06 0 1.75297e-06 1.02001e-05 0 2.14281e-06 1.05835e-05 0 2.5552e-06 1.1042e-05 0 2.99491e-06 1.15781e-05 0 3.46719e-06 1.21948e-05 0 3.97793e-06 1.28954e-05 0 4.53376e-06 1.36833e-05 0 5.14219e-06 1.45623e-05 0 5.81174e-06 1.5536e-05 0 6.55214e-06 1.6608e-05 0 7.37446e-06 1.77817e-05 0 8.29131e-06 1.90597e-05 0 9.31695e-06 2.0444e-05 0 1.04674e-05 2.19349e-05 0 1.17607e-05 2.35311e-05 0 1.32164e-05 2.52287e-05 0 1.48558e-05 2.7021e-05 0 1.67018e-05 2.88971e-05 0 1.87776e-05 3.0842e-05 0 2.11071e-05 3.28353e-05 0 2.37133e-05 3.48509e-05 0 2.66175e-05 3.68566e-05 0 2.98386e-05 3.88138e-05 0 3.33915e-05 4.06768e-05 0 3.72866e-05 4.23928e-05 0 4.1527e-05 4.39012e-05 0 4.61049e-05 4.51301e-05 0 7.16659e-21 8.97474e-06 0 4.02664e-07 9.00676e-06 0 8.09114e-07 9.10303e-06 0 1.22319e-06 9.26407e-06 0 1.64885e-06 9.49077e-06 0 2.09024e-06 9.78436e-06 0 2.55171e-06 1.01464e-05 0 3.03796e-06 1.05788e-05 0 3.55405e-06 1.10837e-05 0 4.10553e-06 1.16635e-05 0 4.69851e-06 1.23208e-05 0 5.33975e-06 1.30584e-05 0 6.03681e-06 1.38789e-05 0 6.79812e-06 1.47853e-05 0 7.63313e-06 1.57797e-05 0 8.55242e-06 1.68643e-05 0 9.56779e-06 1.80403e-05 0 1.06924e-05 1.93081e-05 0 1.19406e-05 2.06664e-05 0 1.33283e-05 2.21125e-05 0 1.48724e-05 2.36409e-05 0 1.65912e-05 2.52437e-05 0 1.85032e-05 2.69094e-05 0 2.06276e-05 2.86225e-05 0 2.29829e-05 3.03632e-05 0 2.55866e-05 3.21069e-05 0 2.84543e-05 3.38235e-05 0 3.15987e-05 3.54776e-05 0 3.50284e-05 3.70282e-05 0 3.87467e-05 3.84283e-05 0 4.27502e-05 3.96247e-05 0 4.70273e-05 4.05612e-05 0 2.98291e-20 8.54133e-06 0 4.64805e-07 8.57138e-06 0 9.33725e-07 8.6617e-06 0 1.41093e-06 8.81274e-06 0 1.9007e-06 9.02524e-06 0 2.40747e-06 9.30024e-06 0 2.9359e-06 9.63903e-06 0 3.49094e-06 1.00432e-05 0 4.0779e-06 1.05144e-05 0 4.70249e-06 1.10546e-05 0 5.37094e-06 1.16659e-05 0 6.09007e-06 1.23503e-05 0 6.86734e-06 1.31099e-05 0 7.71098e-06 1.39463e-05 0 8.63006e-06 1.48612e-05 0 9.63452e-06 1.58553e-05 0 1.07353e-05 1.6929e-05 0 1.19443e-05 1.80813e-05 0 1.32745e-05 1.93099e-05 0 1.47395e-05 2.06109e-05 0 1.63541e-05 2.19782e-05 0 1.81333e-05 2.34029e-05 0 2.00923e-05 2.48734e-05 0 2.22464e-05 2.63746e-05 0 2.46098e-05 2.78875e-05 0 2.71954e-05 2.9389e-05 0 3.00138e-05 3.08518e-05 0 3.30727e-05 3.2244e-05 0 3.63755e-05 3.35291e-05 0 3.99204e-05 3.46661e-05 0 4.3699e-05 3.56099e-05 0 4.76938e-05 3.63117e-05 0 2.4e-21 8.04786e-06 0 5.22839e-07 8.07579e-06 0 1.05007e-06 8.15971e-06 0 1.58614e-06 8.29999e-06 0 2.13558e-06 8.49726e-06 0 2.70308e-06 8.75236e-06 0 3.29353e-06 9.06635e-06 0 3.91209e-06 9.44047e-06 0 4.56419e-06 9.87611e-06 0 5.25569e-06 1.03748e-05 0 5.99283e-06 1.0938e-05 0 6.78238e-06 1.15672e-05 0 7.63165e-06 1.22638e-05 0 8.54857e-06 1.30289e-05 0 9.54175e-06 1.38631e-05 0 1.06205e-05 1.47667e-05 0 1.17948e-05 1.57388e-05 0 1.30753e-05 1.67779e-05 0 1.44736e-05 1.78807e-05 0 1.60014e-05 1.90428e-05 0 1.76712e-05 2.02574e-05 0 1.94954e-05 2.15157e-05 0 2.14863e-05 2.28061e-05 0 2.36557e-05 2.41142e-05 0 2.60142e-05 2.54223e-05 0 2.85708e-05 2.67092e-05 0 3.13322e-05 2.79501e-05 0 3.43018e-05 2.91168e-05 0 3.74793e-05 3.01774e-05 0 4.08589e-05 3.10966e-05 0 4.44292e-05 3.18364e-05 0 4.81716e-05 3.23575e-05 0 0 7.49857e-06 0 5.76488e-07 7.52425e-06 0 1.1576e-06 7.60139e-06 0 1.74799e-06 7.7303e-06 0 2.35243e-06 7.91148e-06 0 2.97578e-06 8.14562e-06 0 3.62313e-06 8.43355e-06 0 4.29974e-06 8.77626e-06 0 5.01118e-06 9.17482e-06 0 5.76332e-06 9.63034e-06 0 6.56239e-06 1.01439e-05 0 7.41506e-06 1.07166e-05 0 8.32841e-06 1.13492e-05 0 9.31003e-06 1.20422e-05 0 1.0368e-05 1.27957e-05 0 1.1511e-05 1.36093e-05 0 1.2748e-05 1.44815e-05 0 1.40888e-05 1.54103e-05 0 1.55431e-05 1.6392e-05 0 1.71214e-05 1.74217e-05 0 1.88338e-05 1.84925e-05 0 2.06907e-05 1.95959e-05 0 2.27016e-05 2.07207e-05 0 2.48756e-05 2.18534e-05 0 2.72201e-05 2.29777e-05 0 2.9741e-05 2.40746e-05 0 3.24416e-05 2.51221e-05 0 3.53224e-05 2.60952e-05 0 3.83797e-05 2.69666e-05 0 4.16056e-05 2.77062e-05 0 4.49863e-05 2.82823e-05 0 4.8502e-05 2.86625e-05 0 0 6.89795e-06 0 6.25524e-07 6.92128e-06 0 1.25585e-06 6.99133e-06 0 1.89583e-06 7.10837e-06 0 2.55038e-06 7.27278e-06 0 3.22454e-06 7.4851e-06 0 3.92349e-06 7.746e-06 0 4.65262e-06 8.05622e-06 0 5.41752e-06 8.41657e-06 0 6.22408e-06 8.82784e-06 0 7.07845e-06 9.2908e-06 0 7.98714e-06 9.80606e-06 0 8.95699e-06 1.0374e-05 0 9.99522e-06 1.09948e-05 0 1.11094e-05 1.16681e-05 0 1.23075e-05 1.23929e-05 0 1.35977e-05 1.31676e-05 0 1.49886e-05 1.39895e-05 0 1.64888e-05 1.4855e-05 0 1.81071e-05 1.5759e-05 0 1.9852e-05 1.66948e-05 0 2.17318e-05 1.76542e-05 0 2.37538e-05 1.86269e-05 0 2.59245e-05 1.96004e-05 0 2.82492e-05 2.05601e-05 0 3.07308e-05 2.1489e-05 0 3.33704e-05 2.23678e-05 0 3.61656e-05 2.31751e-05 0 3.91108e-05 2.38872e-05 0 4.21962e-05 2.44791e-05 0 4.54072e-05 2.49244e-05 0 4.87238e-05 2.51968e-05 0 0 6.25072e-06 0 6.69759e-07 6.2716e-06 0 1.34447e-06 6.33433e-06 0 2.02912e-06 6.43908e-06 0 2.72876e-06 6.58618e-06 0 3.44854e-06 6.77603e-06 0 4.19373e-06 7.00914e-06 0 4.96976e-06 7.28606e-06 0 5.78227e-06 7.60738e-06 0 6.63707e-06 7.97364e-06 0 7.54025e-06 8.38532e-06 0 8.49812e-06 8.84275e-06 0 9.51726e-06 9.34604e-06 0 1.06045e-05 9.89496e-06 0 1.17669e-05 1.04889e-05 0 1.30119e-05 1.11266e-05 0 1.43467e-05 1.18062e-05 0 1.57791e-05 1.2525e-05 0 1.73164e-05 1.32793e-05 0 1.89662e-05 1.40641e-05 0 2.07353e-05 1.48732e-05 0 2.26303e-05 1.56989e-05 0 2.46569e-05 1.65319e-05 0 2.68193e-05 1.73608e-05 0 2.91208e-05 1.81729e-05 0 3.15624e-05 1.89531e-05 0 3.41428e-05 1.96849e-05 0 3.6858e-05 2.03498e-05 0 3.97009e-05 2.0928e-05 0 4.26604e-05 2.13985e-05 0 4.57214e-05 2.17397e-05 0 4.88642e-05 2.19303e-05 0 0 5.56173e-06 0 7.09048e-07 5.58011e-06 0 1.42316e-06 5.63531e-06 0 2.14744e-06 5.72747e-06 0 2.88702e-06 5.85683e-06 0 3.64715e-06 6.0237e-06 0 4.43314e-06 6.22846e-06 0 5.25047e-06 6.4715e-06 0 6.10475e-06 6.75322e-06 0 7.00174e-06 7.07399e-06 0 7.94741e-06 7.43405e-06 0 8.94788e-06 7.83353e-06 0 1.00095e-05 8.27232e-06 0 1.11386e-05 8.74998e-06 0 1.2342e-05 9.26571e-06 0 1.36263e-05 9.81817e-06 0 1.49983e-05 1.04054e-05 0 1.64645e-05 1.10248e-05 0 1.80316e-05 1.16727e-05 0 1.97057e-05 1.23446e-05 0 2.14926e-05 1.30348e-05 0 2.33973e-05 1.37362e-05 0 2.54237e-05 1.44405e-05 0 2.75749e-05 1.51379e-05 0 2.9852e-05 1.58172e-05 0 3.22546e-05 1.64654e-05 0 3.47798e-05 1.70686e-05 0 3.74223e-05 1.7611e-05 0 4.01737e-05 1.80763e-05 0 4.30223e-05 1.84471e-05 0 4.59529e-05 1.87059e-05 0 4.89465e-05 1.88355e-05 0 0 4.83599e-06 0 7.43274e-07 4.85182e-06 0 1.4917e-06 4.89935e-06 0 2.25046e-06 4.97867e-06 0 3.02477e-06 5.08998e-06 0 3.81991e-06 5.2335e-06 0 4.64125e-06 5.4095e-06 0 5.49427e-06 5.61825e-06 0 6.38454e-06 5.86002e-06 0 7.31777e-06 6.13501e-06 0 8.29979e-06 6.44334e-06 0 9.33655e-06 6.78497e-06 0 1.04341e-05 7.15965e-06 0 1.15986e-05 7.56685e-06 0 1.28362e-05 8.0057e-06 0 1.41531e-05 8.47485e-06 0 1.55554e-05 8.97243e-06 0 1.70491e-05 9.49592e-06 0 1.86397e-05 1.00421e-05 0 2.03324e-05 1.06067e-05 0 2.2132e-05 1.11848e-05 0 2.40421e-05 1.17702e-05 0 2.60656e-05 1.23558e-05 0 2.82041e-05 1.29329e-05 0 3.04574e-05 1.34922e-05 0 3.28237e-05 1.40227e-05 0 3.5299e-05 1.45127e-05 0 3.78771e-05 1.49493e-05 0 4.05486e-05 1.5319e-05 0 4.33016e-05 1.56078e-05 0 4.61209e-05 1.58015e-05 0 4.8988e-05 1.58866e-05 0 0 4.07861e-06 0 7.72351e-07 4.09185e-06 0 1.54992e-06 4.13159e-06 0 2.33794e-06 4.19791e-06 0 3.14169e-06 4.29093e-06 0 3.96648e-06 4.41083e-06 0 4.81771e-06 4.55778e-06 0 5.70083e-06 4.73198e-06 0 6.62139e-06 4.93357e-06 0 7.58503e-06 5.16267e-06 0 8.59745e-06 5.41929e-06 0 9.66443e-06 5.7033e-06 0 1.07918e-05 6.01439e-06 0 1.19854e-05 6.35201e-06 0 1.32511e-05 6.71529e-06 0 1.45945e-05 7.10298e-06 0 1.60212e-05 7.51338e-06 0 1.75366e-05 7.94424e-06 0 1.91455e-05 8.39269e-06 0 2.08522e-05 8.85518e-06 0 2.26606e-05 9.32735e-06 0 2.45734e-05 9.80404e-06 0 2.65924e-05 1.02791e-05 0 2.87181e-05 1.07457e-05 0 3.09493e-05 1.11957e-05 0 3.32833e-05 1.16204e-05 0 3.57152e-05 1.20101e-05 0 3.82378e-05 1.23545e-05 0 4.08415e-05 1.26427e-05 0 4.35141e-05 1.28636e-05 0 4.62405e-05 1.30061e-05 0 4.90029e-05 1.30595e-05 0 0 3.29477e-06 0 7.96212e-07 3.30538e-06 0 1.59769e-06 3.33726e-06 0 2.40971e-06 3.39044e-06 0 3.23757e-06 3.46501e-06 0 4.08663e-06 3.5611e-06 0 4.96228e-06 3.67882e-06 0 5.86996e-06 3.81829e-06 0 6.81519e-06 3.9796e-06 0 7.80352e-06 4.16279e-06 0 8.84055e-06 4.36781e-06 0 9.93193e-06 4.5945e-06 0 1.10833e-05 4.84256e-06 0 1.23002e-05 5.11145e-06 0 1.35881e-05 5.4004e-06 0 1.49525e-05 5.70832e-06 0 1.63984e-05 6.03376e-06 0 1.79305e-05 6.37483e-06 0 1.95532e-05 6.72916e-06 0 2.12703e-05 7.09381e-06 0 2.30846e-05 7.46523e-06 0 2.49983e-05 7.83925e-06 0 2.70123e-05 8.21096e-06 0 2.91262e-05 8.57478e-06 0 3.13382e-05 8.92442e-06 0 3.36447e-05 9.25293e-06 0 3.60402e-05 9.55274e-06 0 3.8517e-05 9.8158e-06 0 4.10651e-05 1.00337e-05 0 4.36722e-05 1.01979e-05 0 4.63236e-05 1.02999e-05 0 4.90018e-05 1.03317e-05 0 0 2.48969e-06 0 8.14813e-07 2.49767e-06 0 1.63492e-06 2.52162e-06 0 2.46563e-06 2.56157e-06 0 3.31227e-06 2.61759e-06 0 4.18021e-06 2.68974e-06 0 5.07482e-06 2.77811e-06 0 6.00156e-06 2.88276e-06 0 6.96588e-06 3.00374e-06 0 7.9733e-06 3.14105e-06 0 9.02932e-06 3.29463e-06 0 1.01395e-05 3.46432e-06 0 1.13092e-05 3.64985e-06 0 1.25439e-05 3.85077e-06 0 1.38488e-05 4.06647e-06 0 1.5229e-05 4.29607e-06 0 1.66892e-05 4.53843e-06 0 1.82338e-05 4.79209e-06 0 1.98666e-05 5.05521e-06 0 2.15909e-05 5.32555e-06 0 2.34091e-05 5.60042e-06 0 2.53226e-05 5.87664e-06 0 2.73319e-05 6.15055e-06 0 2.94359e-05 6.41796e-06 0 3.16323e-05 6.67418e-06 0 3.39168e-05 6.91408e-06 0 3.62835e-05 7.13206e-06 0 3.87244e-05 7.32223e-06 0 4.12293e-05 7.47844e-06 0 4.37858e-05 7.59447e-06 0 4.63793e-05 7.66419e-06 0 4.89931e-05 7.68182e-06 0 0 1.66867e-06 0 8.28119e-07 1.674e-06 0 1.66155e-06 1.68998e-06 0 2.50563e-06 1.71664e-06 0 3.36569e-06 1.75402e-06 0 4.2471e-06 1.80216e-06 0 5.15526e-06 1.86111e-06 0 6.09557e-06 1.93089e-06 0 7.07349e-06 2.01154e-06 0 8.09447e-06 2.10303e-06 0 9.16396e-06 2.20532e-06 0 1.02874e-05 2.31828e-06 0 1.14701e-05 2.4417e-06 0 1.27173e-05 2.57529e-06 0 1.40341e-05 2.71858e-06 0 1.54253e-05 2.871e-06 0 1.68955e-05 3.03174e-06 0 1.84486e-05 3.19981e-06 0 2.00883e-05 3.37396e-06 0 2.18174e-05 3.55268e-06 0 2.3638e-05 3.73415e-06 0 2.5551e-05 3.91626e-06 0 2.75565e-05 4.09655e-06 0 2.96531e-05 4.27223e-06 0 3.18379e-05 4.44021e-06 0 3.41064e-05 4.59708e-06 0 3.64524e-05 4.73916e-06 0 3.88675e-05 4.86259e-06 0 4.13414e-05 4.96335e-06 0 4.3862e-05 5.03738e-06 0 4.64146e-05 5.0807e-06 0 4.89828e-05 5.08958e-06 0 0 8.36999e-07 0 8.36111e-07 8.39664e-07 0 1.67755e-06 8.47661e-07 0 2.52965e-06 8.61001e-07 0 3.39776e-06 8.79702e-07 0 4.28726e-06 9.03782e-07 0 5.20353e-06 9.33262e-07 0 6.15198e-06 9.68158e-07 0 7.13804e-06 1.00848e-06 0 8.16713e-06 1.05421e-06 0 9.24467e-06 1.10532e-06 0 1.0376e-05 1.16175e-06 0 1.15664e-05 1.22338e-06 0 1.28211e-05 1.29006e-06 0 1.4145e-05 1.36156e-06 0 1.55427e-05 1.43756e-06 0 1.70187e-05 1.51768e-06 0 1.85769e-05 1.6014e-06 0 2.02206e-05 1.6881e-06 0 2.19524e-05 1.777e-06 0 2.37742e-05 1.86721e-06 0 2.56867e-05 1.95765e-06 0 2.76898e-05 2.0471e-06 0 2.97818e-05 2.13416e-06 0 3.19595e-05 2.21731e-06 0 3.42183e-05 2.29483e-06 0 3.65517e-05 2.36491e-06 0 3.89513e-05 2.42563e-06 0 4.14067e-05 2.475e-06 0 4.39057e-05 2.51103e-06 0 4.64339e-05 2.53176e-06 0 4.8975e-05 2.53534e-06 0 0 -0 0 8.38776e-07 5.57742e-21 0 1.68288e-06 -8.93398e-21 0 2.53766e-06 -9.80675e-21 0 3.40846e-06 -0 0 4.30065e-06 -0 0 5.21962e-06 -0 0 6.17079e-06 -0 0 7.15955e-06 -0 0 8.19135e-06 -0 0 9.27155e-06 4.57013e-21 0 1.04055e-05 7.18584e-20 0 1.15985e-05 1.24062e-20 0 1.28556e-05 -9.05527e-20 0 1.41818e-05 -2.02025e-20 0 1.55818e-05 -0 0 1.70597e-05 -0 0 1.86195e-05 -0 0 2.02645e-05 -3.23636e-20 0 2.19972e-05 -1.53643e-19 0 2.38194e-05 -1.42066e-20 0 2.57318e-05 -0 0 2.7734e-05 -0 0 2.98244e-05 -0 0 3.19997e-05 9.08541e-20 0 3.42553e-05 2.12921e-19 0 3.65844e-05 4.50829e-21 0 3.89789e-05 -0 0 4.14282e-05 -0 0 4.392e-05 -0 0 4.644e-05 -0 0 4.89721e-05 -0 0 </DataArray> 
</PointData> 
<Points> 
<DataArray type="Float32" NumberOfComponents="3"> 