<?xml version="1.0"?> 
<VTKFile type="StructuredGrid" version="0.1"> 
<StructuredGrid WholeExtent="0 31 0 31 0 0"> 
<Piece Extent="0 31 0 31 0 0"> 
<PointData>
<DataArray type="Float32" Name="B" format="ascii" NumberOfComponents="3"> 
5.3448e-05 -0 0 5.08856e-05 -0 0 4.83174e-05 -0 0 4.57602e-05 -0 0 4.32293e-05 -0 0 4.0738e-05 -0 0 3.82979e-05 -0 0 3.59187e-05 -0 0 3.36084e-05 -0 0 3.13733e-05 -0 0 2.92178e-05 -0 0 2.71453e-05 -0 0 2.51574e-05 -0 0 2.32548e-05 -0 0 2.14369e-05 -0 0 1.97022e-05 -0 0 1.80484e-05 -0 0 1.64725e-05 -0 0 1.4971e-05 -0 0 1.35397e-05 -0 0 1.21742e-05 -0 0 1.08697e-05 -0 0 9.62111e-06 -0 0 8.4232e-06 -0 0 7.27057e-06 -0 0 6.15771e-06 -0 0 5.07904e-06 -0 0 4.02892e-06 -0 0 3.00165e-06 -0 0 1.99156e-06 -0 0 9.92917e-07 -0 0 0 -0 0 5.34601e-05 2.55664e-06 0 5.08884e-05 2.57121e-06 0 4.83118e-05 2.56806e-06 0 4.5747e-05 2.54883e-06 0 4.32093e-05 2.51528e-06 0 4.07122e-05 2.46924e-06 0 3.82673e-05 2.41256e-06 0 3.58841e-05 2.34707e-06 0 3.35707e-05 2.27451e-06 0 3.13333e-05 2.19657e-06 0 2.91763e-05 2.11478e-06 0 2.71029e-05 2.03057e-06 0 2.51147e-05 1.94524e-06 0 2.32124e-05 1.85994e-06 0 2.13952e-05 1.77568e-06 0 1.96616e-05 1.69336e-06 0 1.80094e-05 1.61372e-06 0 1.64353e-05 1.53741e-06 0 1.49358e-05 1.46497e-06 0 1.35068e-05 1.39683e-06 0 1.21437e-05 1.33336e-06 0 1.08417e-05 1.27483e-06 0 9.59576e-06 1.22147e-06 0 8.40056e-06 1.17345e-06 0 7.25068e-06 1.13089e-06 0 6.14062e-06 1.09389e-06 0 5.06477e-06 1.06251e-06 0 4.01748e-06 1.0368e-06 0 2.99307e-06 1.01677e-06 0 1.98583e-06 1.00246e-06 0 9.90053e-07 9.93872e-07 0 4.98745e-21 9.91008e-07 0 5.34955e-05 5.13251e-06 0 5.0896e-05 5.16017e-06 0 4.82939e-05 5.15222e-06 0 4.57063e-05 5.11198e-06 0 4.31485e-05 5.04304e-06 0 4.06341e-05 4.94911e-06 0 3.81745e-05 4.83393e-06 0 3.57795e-05 4.70118e-06 0 3.34569e-05 4.5544e-06 0 3.12125e-05 4.39695e-06 0 2.90509e-05 4.23195e-06 0 2.6975e-05 4.06224e-06 0 2.49861e-05 3.89043e-06 0 2.30846e-05 3.71881e-06 0 2.12697e-05 3.54942e-06 0 1.95397e-05 3.38401e-06 0 1.7892e-05 3.22409e-06 0 1.63234e-05 3.07094e-06 0 1.48301e-05 2.92561e-06 0 1.34079e-05 2.78898e-06 0 1.2052e-05 2.66175e-06 0 1.07577e-05 2.54448e-06 0 9.51964e-06 2.4376e-06 0 8.33256e-06 2.34143e-06 0 7.19097e-06 2.25623e-06 0 6.0893e-06 2.18216e-06 0 5.02192e-06 2.11936e-06 0 3.98316e-06 2.0679e-06 0 2.96731e-06 2.02784e-06 0 1.96865e-06 1.9992e-06 0 9.8146e-07 1.98202e-06 0 8.1926e-21 1.97629e-06 0 5.35522e-05 7.74707e-06 0 5.09061e-05 7.78482e-06 0 4.82613e-05 7.76872e-06 0 4.56354e-05 7.70387e-06 0 4.3044e-05 7.5958e-06 0 4.05007e-05 7.45022e-06 0 3.80169e-05 7.27285e-06 0 3.56023e-05 7.06929e-06 0 3.32644e-05 6.84493e-06 0 3.10088e-05 6.60485e-06 0 2.88398e-05 6.35376e-06 0 2.67597e-05 6.09598e-06 0 2.47699e-05 5.83538e-06 0 2.28701e-05 5.57542e-06 0 2.10593e-05 5.31913e-06 0 1.93354e-05 5.06913e-06 0 1.76955e-05 4.82766e-06 0 1.61362e-05 4.59661e-06 0 1.46533e-05 4.37753e-06 0 1.32425e-05 4.17171e-06 0 1.18989e-05 3.98018e-06 0 1.06173e-05 3.80373e-06 0 9.39253e-06 3.64299e-06 0 8.21905e-06 3.49844e-06 0 7.09132e-06 3.37041e-06 0 6.00368e-06 3.25916e-06 0 4.95046e-06 3.16485e-06 0 3.92593e-06 3.0876e-06 0 2.92436e-06 3.02747e-06 0 1.94001e-06 2.98449e-06 0 9.67134e-07 2.9587e-06 0 0 2.95011e-06 0 5.36268e-05 1.04203e-05 0 5.09145e-05 1.04635e-05 0 4.82094e-05 1.0434e-05 0 4.55296e-05 1.0339e-05 0 4.2891e-05 1.01861e-05 0 4.03073e-05 9.9831e-06 0 3.77899e-05 9.73791e-06 0 3.53481e-05 9.45815e-06 0 3.29892e-05 9.15112e-06 0 3.07184e-05 8.82369e-06 0 2.85394e-05 8.48221e-06 0 2.64541e-05 8.13245e-06 0 2.44634e-05 7.77961e-06 0 2.25665e-05 7.42828e-06 0 2.07618e-05 7.08248e-06 0 1.90469e-05 6.74566e-06 0 1.74184e-05 6.42076e-06 0 1.58724e-05 6.11025e-06 0 1.44045e-05 5.81615e-06 0 1.30099e-05 5.54013e-06 0 1.16836e-05 5.28348e-06 0 1.04201e-05 5.04723e-06 0 9.21408e-06 4.83218e-06 0 8.05979e-06 4.6389e-06 0 6.95156e-06 4.46781e-06 0 5.88365e-06 4.31921e-06 0 4.8503e-06 4.19329e-06 0 3.84574e-06 4.09017e-06 0 2.86419e-06 4.00993e-06 0 1.89988e-06 3.9526e-06 0 9.47069e-07 3.9182e-06 0 3.08112e-22 3.90673e-06 0 5.3714e-05 1.31729e-05 0 5.09153e-05 1.3215e-05 0 4.81319e-05 1.31649e-05 0 4.53823e-05 1.30321e-05 0 4.26829e-05 1.28264e-05 0 4.00474e-05 1.25582e-05 0 3.7487e-05 1.22375e-05 0 3.50108e-05 1.18742e-05 0 3.26255e-05 1.14776e-05 0 3.03359e-05 1.10565e-05 0 2.81449e-05 1.06188e-05 0 2.60539e-05 1.01719e-05 0 2.40628e-05 9.72224e-06 0 2.21705e-05 9.27553e-06 0 2.03746e-05 8.83675e-06 0 1.86719e-05 8.41018e-06 0 1.70586e-05 7.9994e-06 0 1.55304e-05 7.60741e-06 0 1.40822e-05 7.23665e-06 0 1.27091e-05 6.88911e-06 0 1.14054e-05 6.56633e-06 0 1.01656e-05 6.26952e-06 0 8.98386e-06 5.99957e-06 0 7.85445e-06 5.75714e-06 0 6.77147e-06 5.54271e-06 0 5.72906e-06 5.35657e-06 0 4.72137e-06 5.19892e-06 0 3.74254e-06 5.06987e-06 0 2.78677e-06 4.96948e-06 0 1.84827e-06 4.89778e-06 0 9.21261e-07 4.85476e-06 0 2.91322e-20 4.84042e-06 0 5.38068e-05 1.60265e-05 0 5.09006e-05 1.60589e-05 0 4.802e-05 1.59787e-05 0 4.51844e-05 1.57979e-05 0 4.24104e-05 1.55293e-05 0 3.97118e-05 1.51856e-05 0 3.70996e-05 1.47796e-05 0 3.45822e-05 1.43234e-05 0 3.21659e-05 1.38286e-05 0 2.98545e-05 1.33057e-05 0 2.76502e-05 1.27646e-05 0 2.55535e-05 1.2214e-05 0 2.35634e-05 1.16618e-05 0 2.16779e-05 1.11147e-05 0 1.98939e-05 1.05787e-05 0 1.82074e-05 1.00588e-05 0 1.66138e-05 9.55916e-06 0 1.51082e-05 9.08325e-06 0 1.3685e-05 8.63388e-06 0 1.23387e-05 8.21327e-06 0 1.10633e-05 7.82317e-06 0 9.85287e-06 7.46489e-06 0 8.70135e-06 7.1394e-06 0 7.60268e-06 6.84738e-06 0 6.55082e-06 6.58929e-06 0 5.53977e-06 6.36541e-06 0 4.56356e-06 6.17593e-06 0 3.61629e-06 6.0209e-06 0 2.69209e-06 5.90035e-06 0 1.78516e-06 5.81427e-06 0 8.8971e-07 5.76263e-06 0 1.77002e-20 5.74542e-06 0 5.3896e-05 1.90043e-05 0 5.08599e-05 1.90158e-05 0 4.78626e-05 1.88932e-05 0 4.49243e-05 1.86517e-05 0 4.20621e-05 1.83072e-05 0 3.92894e-05 1.78754e-05 0 3.66169e-05 1.73718e-05 0 3.40524e-05 1.68112e-05 0 3.16009e-05 1.62074e-05 0 2.92657e-05 1.5573e-05 0 2.70477e-05 1.49196e-05 0 2.49462e-05 1.42576e-05 0 2.29593e-05 1.3596e-05 0 2.10838e-05 1.29427e-05 0 1.93156e-05 1.23045e-05 0 1.76498e-05 1.1687e-05 0 1.6081e-05 1.10951e-05 0 1.46034e-05 1.05324e-05 0 1.3211e-05 1.00022e-05 0 1.18974e-05 9.50686e-06 0 1.06563e-05 9.04814e-06 0 9.48126e-06 8.62744e-06 0 8.36598e-06 8.24572e-06 0 7.30409e-06 7.90365e-06 0 6.28937e-06 7.60162e-06 0 5.31563e-06 7.33987e-06 0 4.37682e-06 7.11847e-06 0 3.46696e-06 6.93745e-06 0 2.58015e-06 6.79675e-06 0 1.71056e-06 6.69632e-06 0 8.52424e-07 6.63608e-06 0 0 6.61601e-06 0 5.39695e-05 2.21308e-05 0 5.07798e-05 2.2107e-05 0 4.76455e-05 2.19266e-05 0 4.45878e-05 2.16086e-05 0 4.16236e-05 2.11722e-05 0 3.87664e-05 2.06368e-05 0 3.60259e-05 2.00209e-05 0 3.34089e-05 1.9342e-05 0 3.09195e-05 1.86165e-05 0 2.85594e-05 1.7859e-05 0 2.63283e-05 1.70831e-05 0 2.42242e-05 1.63005e-05 0 2.22437e-05 1.55217e-05 0 2.03823e-05 1.47554e-05 0 1.86348e-05 1.40093e-05 0 1.69951e-05 1.32896e-05 0 1.54569e-05 1.26015e-05 0 1.40135e-05 1.19491e-05 0 1.2658e-05 1.13357e-05 0 1.13835e-05 1.07637e-05 0 1.01831e-05 1.0235e-05 0 9.04993e-06 9.75094e-06 0 7.97722e-06 9.31237e-06 0 6.95837e-06 8.91985e-06 0 5.98694e-06 8.57367e-06 0 5.05659e-06 8.27394e-06 0 4.16116e-06 8.02064e-06 0 3.2946e-06 7.81367e-06 0 2.451e-06 7.65289e-06 0 1.62453e-06 7.53816e-06 0 8.09426e-07 7.46938e-06 0 0 7.44646e-06 0 5.40121e-05 2.54322e-05 0 5.06435e-05 2.53551e-05 0 4.73513e-05 2.50979e-05 0 4.4157e-05 2.46836e-05 0 4.10777e-05 2.41362e-05 0 3.81261e-05 2.34786e-05 0 3.53109e-05 2.27328e-05 0 3.26375e-05 2.19194e-05 0 3.01085e-05 2.10572e-05 0 2.77239e-05 2.01633e-05 0 2.54818e-05 1.9253e-05 0 2.33784e-05 1.83396e-05 0 2.14087e-05 1.74345e-05 0 1.95668e-05 1.65478e-05 0 1.7846e-05 1.56875e-05 0 1.62389e-05 1.48605e-05 0 1.4738e-05 1.40721e-05 0 1.33357e-05 1.33267e-05 0 1.20241e-05 1.26276e-05 0 1.07957e-05 1.19772e-05 0 9.64278e-06 1.13772e-05 0 8.55815e-06 1.08289e-05 0 7.53461e-06 1.03329e-05 0 6.56527e-06 9.88967e-06 0 5.64344e-06 9.49924e-06 0 4.76265e-06 9.16157e-06 0 3.91663e-06 8.87647e-06 0 3.09931e-06 8.64369e-06 0 2.30474e-06 8.46297e-06 0 1.52712e-06 8.33408e-06 0 7.60757e-07 8.25682e-06 0 0 8.23109e-06 0 5.40043e-05 2.8937e-05 0 5.04302e-05 2.87839e-05 0 4.69582e-05 2.8426e-05 0 4.36105e-05 2.78918e-05 0 4.04035e-05 2.72101e-05 0 3.73488e-05 2.64083e-05 0 3.44535e-05 2.5512e-05 0 3.17213e-05 2.45451e-05 0 2.91527e-05 2.35293e-05 0 2.67457e-05 2.24838e-05 0 2.44962e-05 2.14257e-05 0 2.23986e-05 2.03698e-05 0 2.04459e-05 1.93289e-05 0 1.86303e-05 1.83134e-05 0 1.69434e-05 1.73323e-05 0 1.53764e-05 1.63924e-05 0 1.39206e-05 1.54996e-05 0 1.25671e-05 1.46579e-05 0 1.13071e-05 1.38706e-05 0 1.01322e-05 1.31401e-05 0 9.03424e-06 1.24677e-05 0 8.0053e-06 1.18544e-05 0 7.03785e-06 1.13007e-05 0 6.1247e-06 1.08066e-05 0 5.25894e-06 1.0372e-05 0 4.43397e-06 9.99663e-06 0 3.64345e-06 9.67998e-06 0 2.88127e-06 9.42166e-06 0 2.14153e-06 9.22124e-06 0 1.41848e-06 9.07837e-06 0 7.06487e-07 8.99276e-06 0 0 8.96425e-06 0 5.39216e-05 3.26757e-05 0 5.01135e-05 3.2418e-05 0 4.64399e-05 3.19302e-05 0 4.29224e-05 3.12475e-05 0 3.95764e-05 3.0404e-05 0 3.64114e-05 2.9432e-05 0 3.34325e-05 2.83615e-05 0 3.06411e-05 2.72195e-05 0 2.8035e-05 2.60306e-05 0 2.56097e-05 2.48164e-05 0 2.33586e-05 2.35958e-05 0 2.12738e-05 2.23849e-05 0 1.93458e-05 2.11974e-05 0 1.75649e-05 2.00445e-05 0 1.59208e-05 1.89354e-05 0 1.44029e-05 1.78773e-05 0 1.3001e-05 1.68756e-05 0 1.1705e-05 1.59345e-05 0 1.05051e-05 1.50569e-05 0 9.39193e-06 1.42447e-05 0 8.35671e-06 1.3499e-05 0 7.391e-06 1.28203e-05 0 6.48686e-06 1.22088e-05 0 5.63678e-06 1.16641e-05 0 4.83369e-06 1.11857e-05 0 4.07087e-06 1.07729e-05 0 3.34195e-06 1.04252e-05 0 2.64083e-06 1.01417e-05 0 1.96166e-06 9.92198e-06 0 1.2988e-06 9.76541e-06 0 6.46714e-07 9.67163e-06 0 0 9.64039e-06 0 5.37322e-05 3.66805e-05 0 4.96612e-05 3.62824e-05 0 4.57644e-05 3.56292e-05 0 4.20621e-05 3.47635e-05 0 3.85673e-05 3.37259e-05 0 3.52872e-05 3.2554e-05 0 3.22237e-05 3.12819e-05 0 2.9375e-05 2.99404e-05 0 2.6736e-05 2.85568e-05 0 2.42991e-05 2.71551e-05 0 2.20547e-05 2.57557e-05 0 1.99919e-05 2.43762e-05 0 1.80987e-05 2.30309e-05 0 1.63629e-05 2.17316e-05 0 1.47719e-05 2.04873e-05 0 1.33134e-05 1.93054e-05 0 1.19756e-05 1.81908e-05 0 1.07468e-05 1.71474e-05 0 9.61629e-06 1.61776e-05 0 8.5738e-06 1.52826e-05 0 7.60975e-06 1.44632e-05 0 6.71522e-06 1.37191e-05 0 5.88187e-06 1.30501e-05 0 5.10195e-06 1.24552e-05 0 4.36823e-06 1.19336e-05 0 3.67393e-06 1.14842e-05 0 3.01269e-06 1.1106e-05 0 2.37846e-06 1.07981e-05 0 1.76552e-06 1.05596e-05 0 1.16834e-06 1.03897e-05 0 5.81582e-07 1.0288e-05 0 0 1.02541e-05 0 5.33967e-05 4.09858e-05 0 4.90332e-05 4.04022e-05 0 4.4893e-05 3.95402e-05 0 4.09931e-05 3.84509e-05 0 3.73429e-05 3.71817e-05 0 3.39457e-05 3.57756e-05 0 3.07995e-05 3.42712e-05 0 2.78988e-05 3.27028e-05 0 2.52347e-05 3.11006e-05 0 2.27958e-05 2.94907e-05 0 2.05691e-05 2.78953e-05 0 1.85402e-05 2.63328e-05 0 1.66942e-05 2.48181e-05 0 1.50159e-05 2.33631e-05 0 1.34905e-05 2.19767e-05 0 1.21034e-05 2.06657e-05 0 1.08411e-05 1.94347e-05 0 9.69049e-06 1.82867e-05 0 8.63962e-06 1.72233e-05 0 7.67734e-06 1.6245e-05 0 6.79339e-06 1.53518e-05 0 5.97834e-06 1.45429e-05 0 5.22353e-06 1.38171e-05 0 4.521e-06 1.3173e-05 0 3.86341e-06 1.26093e-05 0 3.244e-06 1.21243e-05 0 2.65645e-06 1.17167e-05 0 2.09486e-06 1.13851e-05 0 1.55364e-06 1.11285e-05 0 1.02749e-06 1.09458e-05 0 5.11278e-07 1.08365e-05 0 -8.99685e-21 1.08001e-05 0 5.28628e-05 4.56247e-05 0 4.81805e-05 4.48005e-05 0 4.37799e-05 4.36778e-05 0 3.96734e-05 4.23174e-05 0 3.58648e-05 4.07736e-05 0 3.23523e-05 3.90947e-05 0 2.91294e-05 3.73237e-05 0 2.61856e-05 3.54983e-05 0 2.35078e-05 3.36515e-05 0 2.10802e-05 3.18113e-05 0 1.88856e-05 3.00015e-05 0 1.69057e-05 2.8241e-05 0 1.5122e-05 2.65451e-05 0 1.35163e-05 2.49254e-05 0 1.20708e-05 2.33904e-05 0 1.07689e-05 2.19459e-05 0 9.59501e-06 2.05955e-05 0 8.5346e-06 1.93412e-05 0 7.57451e-06 1.81836e-05 0 6.7027e-06 1.71223e-05 0 5.90827e-06 1.61561e-05 0 5.18135e-06 1.52835e-05 0 4.51301e-06 1.45023e-05 0 3.89518e-06 1.38106e-05 0 3.32051e-06 1.32062e-05 0 2.78227e-06 1.26871e-05 0 2.27431e-06 1.22514e-05 0 1.79091e-06 1.18973e-05 0 1.32674e-06 1.16234e-05 0 8.76728e-07 1.14287e-05 0 4.36049e-07 1.13122e-05 0 -7.98521e-20 1.12734e-05 0 5.20689e-05 5.06315e-05 0 4.70434e-05 4.94964e-05 0 4.23714e-05 4.8052e-05 0 3.80547e-05 4.63662e-05 0 3.40899e-05 4.44997e-05 0 3.04688e-05 4.25053e-05 0 2.71794e-05 4.04298e-05 0 2.42061e-05 3.83145e-05 0 2.15304e-05 3.61949e-05 0 1.91315e-05 3.4101e-05 0 1.69873e-05 3.20575e-05 0 1.5075e-05 3.0084e-05 0 1.3372e-05 2.81955e-05 0 1.18565e-05 2.64027e-05 0 1.05078e-05 2.47132e-05 0 9.30669e-06 2.31315e-05 0 8.23562e-06 2.16599e-05 0 7.27861e-06 2.02988e-05 0 6.4213e-06 1.90475e-05 0 5.65085e-06 1.79044e-05 0 4.95578e-06 1.68669e-05 0 4.32591e-06 1.59325e-05 0 3.75213e-06 1.50981e-05 0 3.22633e-06 1.43609e-05 0 2.74125e-06 1.37179e-05 0 2.29034e-06 1.31666e-05 0 1.86767e-06 1.27044e-05 0 1.46779e-06 1.23293e-05 0 1.0857e-06 1.20394e-05 0 7.16659e-07 1.18333e-05 0 3.56203e-07 1.17101e-05 0 -1.4725e-20 1.16691e-05 0 5.09293e-05 5.60255e-05 0 4.55525e-05 5.45018e-05 0 4.06065e-05 5.26659e-05 0 3.60835e-05 5.05947e-05 0 3.19706e-05 4.83526e-05 0 2.82531e-05 4.59959e-05 0 2.49129e-05 4.35749e-05 0 2.19286e-05 4.11341e-05 0 1.92759e-05 3.87116e-05 0 1.6928e-05 3.63393e-05 0 1.48571e-05 3.40428e-05 0 1.30351e-05 3.18414e-05 0 1.14347e-05 2.97494e-05 0 1.00301e-05 2.77764e-05 0 8.79738e-06 2.59279e-05 0 7.71469e-06 2.42068e-05 0 6.76244e-06 2.26134e-05 0 5.92317e-06 2.11464e-05 0 5.18148e-06 1.98033e-05 0 4.52382e-06 1.85806e-05 0 3.9383e-06 1.74747e-05 0 3.41453e-06 1.64814e-05 0 2.9434e-06 1.55968e-05 0 2.51688e-06 1.48169e-05 0 2.12792e-06 1.41381e-05 0 1.77026e-06 1.35569e-05 0 1.43829e-06 1.30704e-05 0 1.12696e-06 1.2676e-05 0 8.31633e-07 1.23715e-05 0 5.48033e-07 1.21552e-05 0 2.72116e-07 1.2026e-05 0 0 1.1983e-05 0 4.93571e-05 6.1828e-05 0 4.36276e-05 5.98151e-05 0 3.84187e-05 5.75133e-05 0 3.37015e-05 5.49931e-05 0 2.94555e-05 5.23191e-05 0 2.56595e-05 4.95498e-05 0 2.22899e-05 4.67389e-05 0 1.93192e-05 4.39343e-05 0 1.67164e-05 4.11771e-05 0 1.44476e-05 3.8501e-05 0 1.24781e-05 3.59319e-05 0 1.07738e-05 3.34886e-05 0 9.30194e-06 3.11838e-05 0 8.03227e-06 2.90248e-05 0 6.93733e-06 2.70149e-05 0 5.99263e-06 2.51541e-05 0 5.17661e-06 2.34405e-05 0 4.47047e-06 2.18701e-05 0 3.85792e-06 2.04384e-05 0 3.32489e-06 1.91401e-05 0 2.85929e-06 1.79697e-05 0 2.45072e-06 1.69217e-05 0 2.0902e-06 1.59907e-05 0 1.77e-06 1.51719e-05 0 1.48341e-06 1.44606e-05 0 1.22458e-06 1.38527e-05 0 9.88355e-07 1.33445e-05 0 7.70165e-07 1.2933e-05 0 5.65888e-07 1.26155e-05 0 3.71753e-07 1.23902e-05 0 1.84241e-07 1.22556e-05 0 0 1.22108e-05 0 4.7226e-05 6.79993e-05 0 4.11876e-05 6.54193e-05 0 3.57389e-05 6.25774e-05 0 3.08487e-05 5.95443e-05 0 2.64898e-05 5.63801e-05 0 2.26387e-05 5.31445e-05 0 1.92673e-05 4.98954e-05 0 1.63417e-05 4.66858e-05 0 1.38226e-05 4.35603e-05 0 1.16678e-05 4.05544e-05 0 9.8343e-06 3.76941e-05 0 8.28047e-06 3.49965e-05 0 6.96748e-06 3.24717e-05 0 5.86021e-06 3.01237e-05 0 4.92753e-06 2.79523e-05 0 4.14235e-06 2.59541e-05 0 3.48133e-06 2.4124e-05 0 2.92456e-06 2.24551e-05 0 2.45515e-06 2.09402e-05 0 2.05882e-06 1.95718e-05 0 1.72351e-06 1.83424e-05 0 1.43905e-06 1.72449e-05 0 1.19686e-06 1.62727e-05 0 9.8966e-07 1.54195e-05 0 8.11265e-07 1.46798e-05 0 6.56385e-07 1.40487e-05 0 5.20462e-07 1.3522e-05 0 3.99519e-07 1.30959e-05 0 2.90044e-07 1.27675e-05 0 1.88876e-07 1.25346e-05 0 9.31081e-08 1.23955e-05 0 -1.97225e-20 1.23493e-05 0 4.44633e-05 7.45319e-05 0 3.8154e-05 7.12751e-05 0 3.25043e-05 6.78322e-05 0 2.74641e-05 6.4227e-05 0 2.30158e-05 6.05122e-05 0 1.91371e-05 5.67517e-05 0 1.57981e-05 5.30113e-05 0 1.29569e-05 4.93515e-05 0 1.05644e-05 4.58222e-05 0 8.56699e-06 4.24608e-05 0 6.91133e-06 3.92923e-05 0 5.54692e-06 3.63308e-05 0 4.42799e-06 3.3582e-05 0 3.51423e-06 3.10454e-05 0 2.77088e-06 2.8716e-05 0 2.16848e-06 2.6586e-05 0 1.6823e-06 2.4646e-05 0 1.29173e-06 2.2886e-05 0 9.79683e-07 2.12954e-05 0 7.32038e-07 1.98644e-05 0 5.37133e-07 1.85832e-05 0 3.85343e-07 1.74431e-05 0 2.68714e-07 1.64357e-05 0 1.80662e-07 1.55537e-05 0 1.15722e-07 1.47906e-05 0 6.93335e-08 1.41406e-05 0 3.76644e-08 1.35989e-05 0 1.74643e-08 1.31612e-05 0 5.93594e-09 1.28242e-05 0 6.26274e-10 1.25853e-05 0 -6.70481e-10 1.24427e-05 0 -8.6577e-20 1.23953e-05 0 4.09447e-05 8.12337e-05 0 3.44826e-05 7.73352e-05 0 2.86597e-05 7.32526e-05 0 2.34887e-05 6.90206e-05 0 1.89695e-05 6.46905e-05 0 1.50943e-05 6.03378e-05 0 1.18293e-05 5.60446e-05 0 9.12313e-06 5.18845e-05 0 6.91113e-06 4.79142e-05 0 5.12501e-06 4.41727e-05 0 3.69788e-06 4.0682e-05 0 2.56883e-06 3.74512e-05 0 1.68429e-06 3.44795e-05 0 9.98719e-07 3.17595e-05 0 4.74082e-07 2.92801e-05 0 7.91015e-08 2.70277e-05 0 -2.11741e-07 2.49882e-05 0 -4.1913e-07 2.31474e-05 0 -5.59774e-07 2.14913e-05 0 -6.47142e-07 2.00073e-05 0 -6.92076e-07 1.86833e-05 0 -7.03299e-07 1.75085e-05 0 -6.87825e-07 1.64734e-05 0 -6.51296e-07 1.55692e-05 0 -5.98249e-07 1.47884e-05 0 -5.32341e-07 1.41245e-05 0 -4.56526e-07 1.35718e-05 0 -3.73205e-07 1.31259e-05 0 -2.8435e-07 1.27828e-05 0 -1.9161e-07 1.25398e-05 0 -9.64032e-08 1.23948e-05 0 -7.36392e-21 1.23466e-05 0 3.67807e-05 8.8173e-05 0 3.01575e-05 8.35567e-05 0 2.417e-05 7.88281e-05 0 1.88561e-05 7.39178e-05 0 1.42769e-05 6.88921e-05 0 1.04369e-05 6.38626e-05 0 7.30013e-06 5.89423e-05 0 4.79417e-06 5.42243e-05 0 2.83255e-06 4.97747e-05 0 1.32491e-06 4.56313e-05 0 1.87734e-07 4.18103e-05 0 -6.52431e-07 3.83115e-05 0 -1.25708e-06 3.51245e-05 0 -1.6766e-06 3.22327e-05 0 -1.9514e-06 2.96169e-05 0 -2.11361e-06 2.72566e-05 0 -2.18857e-06 2.51319e-05 0 -2.19619e-06 2.3224e-05 0 -2.15207e-06 2.15154e-05 0 -2.0684e-06 1.99902e-05 0 -1.95471e-06 1.86342e-05 0 -1.81841e-06 1.74346e-05 0 -1.66524e-06 1.63803e-05 0 -1.49962e-06 1.54614e-05 0 -1.32497e-06 1.46695e-05 0 -1.14383e-06 1.39971e-05 0 -9.58152e-07 1.34383e-05 0 -7.69355e-07 1.29878e-05 0 -5.78482e-07 1.26415e-05 0 -3.86287e-07 1.23965e-05 0 -1.93321e-07 1.22503e-05 0 0 1.22017e-05 0 3.19635e-05 9.4918e-05 0 2.52432e-05 8.99677e-05 0 1.89937e-05 8.46054e-05 0 1.34846e-05 7.89338e-05 0 8.83421e-06 7.30979e-05 0 5.07243e-06 6.72751e-05 0 2.13656e-06 6.16322e-05 0 -7.88364e-08 5.62915e-05 0 -1.6992e-06 5.13249e-05 0 -2.84364e-06 4.67651e-05 0 -3.61751e-06 4.26146e-05 0 -4.10725e-06 3.88591e-05 0 -4.38195e-06 3.54737e-05 0 -4.49523e-06 3.243e-05 0 -4.48835e-06 2.96982e-05 0 -4.39267e-06 2.725e-05 0 -4.23204e-06 2.50591e-05 0 -4.02444e-06 2.31017e-05 0 -3.78347e-06 2.13564e-05 0 -3.51934e-06 1.98043e-05 0 -3.23969e-06 1.84289e-05 0 -2.95017e-06 1.72157e-05 0 -2.65492e-06 1.6152e-05 0 -2.35687e-06 1.52269e-05 0 -2.05805e-06 1.44311e-05 0 -1.75978e-06 1.37565e-05 0 -1.46283e-06 1.31965e-05 0 -1.16753e-06 1.27456e-05 0 -8.73902e-07 1.23993e-05 0 -5.81715e-07 1.21543e-05 0 -2.90581e-07 1.20083e-05 0 0 1.19598e-05 0 2.70206e-05 0.000102251 0 1.97934e-05 9.67245e-05 0 1.30743e-05 9.06991e-05 0 7.22926e-06 8.41278e-05 0 2.49273e-06 7.72858e-05 0 -1.12842e-06 7.04991e-05 0 -3.74838e-06 6.40124e-05 0 -5.54677e-06 5.79769e-05 0 -6.70367e-06 5.24642e-05 0 -7.37987e-06 4.74861e-05 0 -7.70375e-06 4.30227e-05 0 -7.77463e-06 3.90357e-05 0 -7.66612e-06 3.54814e-05 0 -7.43243e-06 3.23154e-05 0 -7.11282e-06 2.94963e-05 0 -6.73575e-06 2.69866e-05 0 -6.32173e-06 2.47533e-05 0 -5.8855e-06 2.27676e-05 0 -5.43759e-06 2.10044e-05 0 -4.98547e-06 1.94421e-05 0 -4.53428e-06 1.80618e-05 0 -4.08748e-06 1.68475e-05 0 -3.64724e-06 1.57853e-05 0 -3.21476e-06 1.48634e-05 0 -2.79049e-06 1.40717e-05 0 -2.37435e-06 1.34015e-05 0 -1.96581e-06 1.28459e-05 0 -1.564e-06 1.23989e-05 0 -1.16785e-06 1.20559e-05 0 -7.76074e-07 1.18134e-05 0 -3.87281e-07 1.16689e-05 0 0 1.16209e-05 0 2.202e-05 0.000109276 0 1.38928e-05 0.000104211 0 6.22351e-06 9.74025e-05 0 -1.61427e-07 8.95776e-05 0 -4.99172e-06 8.14081e-05 0 -8.336e-06 7.34073e-05 0 -1.0457e-05 6.5926e-05 0 -1.16508e-05 5.91317e-05 0 -1.21841e-05 5.30622e-05 0 -1.22629e-05 4.76905e-05 0 -1.2039e-05 4.2953e-05 0 -1.1618e-05 3.878e-05 0 -1.10731e-05 3.51012e-05 0 -1.04537e-05 3.18547e-05 0 -9.79346e-06 2.89856e-05 0 -9.11483e-06 2.64475e-05 0 -8.43294e-06 2.42006e-05 0 -7.75772e-06 2.22117e-05 0 -7.09557e-06 2.04522e-05 0 -6.45039e-06 1.88982e-05 0 -5.82428e-06 1.75291e-05 0 -5.21807e-06 1.63275e-05 0 -4.63168e-06 1.52787e-05 0 -4.06434e-06 1.43701e-05 0 -3.51475e-06 1.35909e-05 0 -2.98128e-06 1.29323e-05 0 -2.462e-06 1.23868e-05 0 -1.9548e-06 1.19484e-05 0 -1.4574e-06 1.16123e-05 0 -9.67435e-07 1.13747e-05 0 -4.82464e-07 1.12332e-05 0 0 1.11862e-05 0 1.77744e-05 0.00011931 0 7.38842e-06 0.000113242 0 -1.98048e-06 0.000105064 0 -9.17552e-06 9.53894e-05 0 -1.39868e-05 8.532e-05 0 -1.67743e-05 7.5764e-05 0 -1.80841e-05 6.71352e-05 0 -1.84063e-05 5.95473e-05 0 -1.81089e-05 5.296e-05 0 -1.74417e-05 4.72578e-05 0 -1.65656e-05 4.23205e-05 0 -1.55816e-05 3.80305e-05 0 -1.45519e-05 3.42906e-05 0 -1.35142e-05 3.10177e-05 0 -1.24912e-05 2.81453e-05 0 -1.14964e-05 2.56179e-05 0 -1.05369e-05 2.33909e-05 0 -9.61647e-06 2.14269e-05 0 -8.73631e-06 1.96952e-05 0 -7.89603e-06 1.81698e-05 0 -7.09421e-06 1.68292e-05 0 -6.32874e-06 1.56552e-05 0 -5.59701e-06 1.46323e-05 0 -4.89609e-06 1.37475e-05 0 -4.22284e-06 1.29898e-05 0 -3.57397e-06 1.23501e-05 0 -2.9461e-06 1.18209e-05 0 -2.33577e-06 1.13958e-05 0 -1.7395e-06 1.10702e-05 0 -1.1538e-06 1.08401e-05 0 -5.75137e-07 1.07031e-05 0 0 1.06576e-05 0 1.4521e-05 0.000129704 0 -3.1024e-07 0.000124989 0 -1.25093e-05 0.000114424 0 -2.06801e-05 0.000101447 0 -2.50224e-05 8.86576e-05 0 -2.66808e-05 7.71449e-05 0 -2.66747e-05 6.72722e-05 0 -2.5762e-05 5.89589e-05 0 -2.43887e-05 5.19665e-05 0 -2.28197e-05 4.60654e-05 0 -2.11938e-05 4.10414e-05 0 -1.95871e-05 3.67351e-05 0 -1.80361e-05 3.30146e-05 0 -1.65584e-05 2.97828e-05 0 -1.51601e-05 2.69612e-05 0 -1.38419e-05 2.44896e-05 0 -1.26014e-05 2.23192e-05 0 -1.14347e-05 2.04109e-05 0 -1.0337e-05 1.87324e-05 0 -9.30309e-06 1.72572e-05 0 -8.32773e-06 1.59633e-05 0 -7.40562e-06 1.48322e-05 0 -6.53149e-06 1.38481e-05 0 -5.70016e-06 1.2998e-05 0 -4.90655e-06 1.2271e-05 0 -4.14567e-06 1.16578e-05 0 -3.41264e-06 1.11509e-05 0 -2.70267e-06 1.07441e-05 0 -2.01105e-06 1.04326e-05 0 -1.33312e-06 1.02127e-05 0 -6.64287e-07 1.00817e-05 0 0 1.00383e-05 0 1.1716e-05 0.000151716 0 -1.06386e-05 0.000142215 0 -2.75664e-05 0.000125649 0 -3.60523e-05 0.000107274 0 -3.87645e-05 9.05415e-05 0 -3.81679e-05 7.68186e-05 0 -3.61382e-05 6.58422e-05 0 -3.3539e-05 5.70379e-05 0 -3.08497e-05 4.98977e-05 0 -2.82416e-05 4.39962e-05 0 -2.57984e-05 3.90554e-05 0 -2.35333e-05 3.48559e-05 0 -2.14458e-05 3.12552e-05 0 -1.95221e-05 2.81395e-05 0 -1.77483e-05 2.54297e-05 0 -1.61094e-05 2.30614e-05 0 -1.45921e-05 2.09867e-05 0 -1.31839e-05 1.91657e-05 0 -1.18738e-05 1.7567e-05 0 -1.06516e-05 1.6164e-05 0 -9.50803e-06 1.49353e-05 0 -8.43454e-06 1.38624e-05 0 -7.42319e-06 1.29302e-05 0 -6.46653e-06 1.21259e-05 0 -5.55754e-06 1.14386e-05 0 -4.68953e-06 1.08594e-05 0 -3.85615e-06 1.0381e-05 0 -3.05125e-06 9.99735e-06 0 -2.2689e-06 9.70367e-06 0 -1.50334e-06 9.4964e-06 0 -7.48897e-07 9.37303e-06 0 0 9.33207e-06 0 1.36819e-05 0.000179113 0 -2.93581e-05 0.000167824 0 -5.11993e-05 0.000139029 0 -5.74432e-05 0.000110611 0 -5.5464e-05 8.92866e-05 0 -5.10456e-05 7.37098e-05 0 -4.60408e-05 6.22316e-05 0 -4.13971e-05 5.34979e-05 0 -3.71958e-05 4.6591e-05 0 -3.34992e-05 4.09935e-05 0 -3.02169e-05 3.63288e-05 0 -2.73029e-05 3.23902e-05 0 -2.46902e-05 2.9012e-05 0 -2.23366e-05 2.60955e-05 0 -2.02016e-05 2.35575e-05 0 -1.82558e-05 2.13421e-05 0 -1.64738e-05 1.94013e-05 0 -1.48353e-05 1.76996e-05 0 -1.33229e-05 1.62064e-05 0 -1.19216e-05 1.48973e-05 0 -1.06183e-05 1.37517e-05 0 -9.4014e-06 1.27524e-05 0 -8.26027e-06 1.18849e-05 0 -7.18529e-06 1.11369e-05 0 -6.16758e-06 1.04983e-05 0 -5.19882e-06 9.96056e-06 0 -4.2712e-06 9.51662e-06 0 -3.37729e-06 9.16076e-06 0 -2.51e-06 8.88849e-06 0 -1.66245e-06 8.6964e-06 0 -8.27972e-07 8.58208e-06 0 0 8.54413e-06 0 4.95051e-06 0.000256595 0 -6.89511e-05 0.000210526 0 -9.25341e-05 0.000147391 0 -8.54713e-05 0.000106759 0 -7.46283e-05 8.20711e-05 0 -6.39983e-05 6.65986e-05 0 -5.56771e-05 5.59949e-05 0 -4.86904e-05 4.81446e-05 0 -4.30831e-05 4.20404e-05 0 -3.83135e-05 3.70537e-05 0 -3.42838e-05 3.29039e-05 0 -3.07651e-05 2.93612e-05 0 -2.76812e-05 2.63181e-05 0 -2.49318e-05 2.36723e-05 0 -2.24675e-05 2.13673e-05 0 -2.02385e-05 1.93482e-05 0 -1.82127e-05 1.75788e-05 0 -1.6361e-05 1.60254e-05 0 -1.46612e-05 1.46625e-05 0 -1.30938e-05 1.34676e-05 0 -1.16425e-05 1.24224e-05 0 -1.02926e-05 1.1511e-05 0 -9.03131e-06 1.07203e-05 0 -7.84691e-06 1.00389e-05 0 -6.72876e-06 9.45746e-06 0 -5.66705e-06 8.96811e-06 0 -4.65259e-06 8.56431e-06 0 -3.67677e-06 8.24078e-06 0 -2.73137e-06 7.99332e-06 0 -1.80851e-06 7.81877e-06 0 -9.00551e-07 7.71492e-06 0 0 7.68045e-06 0 4.04324e-05 0.000478604 0 -0.000196577 0.000254588 0 -0.000151366 0.000129392 0 -0.000118811 8.66433e-05 0 -9.04648e-05 6.6368e-05 0 -7.5953e-05 5.497e-05 0 -6.31668e-05 4.71018e-05 0 -5.50602e-05 4.11756e-05 0 -4.7906e-05 3.63655e-05 0 -4.25272e-05 3.23287e-05 0 -3.77792e-05 2.88612e-05 0 -3.3833e-05 2.58526e-05 0 -3.03228e-05 2.32219e-05 0 -2.72534e-05 2.09162e-05 0 -2.44951e-05 1.88895e-05 0 -2.20215e-05 1.71078e-05 0 -1.97771e-05 1.55402e-05 0 -1.77358e-05 1.41619e-05 0 -1.58672e-05 1.2951e-05 0 -1.41504e-05 1.18889e-05 0 -1.25654e-05 1.09596e-05 0 -1.10955e-05 1.01494e-05 0 -9.7256e-06 9.44654e-06 0 -8.44238e-06 8.84115e-06 0 -7.23361e-06 8.32476e-06 0 -6.08809e-06 7.89031e-06 0 -4.99542e-06 7.53193e-06 0 -3.94588e-06 7.24488e-06 0 -2.93024e-06 7.02539e-06 0 -1.9397e-06 6.8706e-06 0 -9.65731e-07 6.77851e-06 0 0 6.74795e-06 0 -0.000642377 0.00209985 0 -0.000384441 -8.0288e-05 0 -0.000256716 8.18348e-05 0 -0.00010001 3.89416e-05 0 -0.000120138 4.60517e-05 0 -7.15053e-05 3.95803e-05 0 -7.41847e-05 3.62946e-05 0 -5.62364e-05 3.34184e-05 0 -5.32694e-05 2.97004e-05 0 -4.49428e-05 2.7221e-05 0 -4.11007e-05 2.42515e-05 0 -3.61588e-05 2.20399e-05 0 -3.26877e-05 1.9761e-05 0 -2.91879e-05 1.79066e-05 0 -2.62794e-05 1.6154e-05 0 -2.3558e-05 1.46617e-05 0 -2.11488e-05 1.33086e-05 0 -1.89344e-05 1.2134e-05 0 -1.69241e-05 1.10897e-05 0 -1.5075e-05 1.01785e-05 0 -1.33739e-05 9.37759e-06 0 -1.17985e-05 8.68083e-06 0 -1.03336e-05 8.07556e-06 0 -8.96365e-06 7.55472e-06 0 -7.67541e-06 7.1103e-06 0 -6.45644e-06 6.73662e-06 0 -5.29525e-06 6.42839e-06 0 -4.18118e-06 6.18159e-06 0 -3.10409e-06 5.9929e-06 0 -2.05437e-06 5.85986e-06 0 -1.02269e-06 5.78072e-06 0 0 5.75445e-06 0 </DataArray> 
</PointData> 
<Points> 
<DataArray type="Float32" NumberOfComponents="3"> 