<?xml version="1.0"?> 
<VTKFile type="StructuredGrid" version="0.1"> 
<StructuredGrid WholeExtent="0 31 0 31 0 0"> 
<Piece Extent="0 31 0 31 0 0"> 
<PointData>
<DataArray type="Float32" Name="B" format="ascii" NumberOfComponents="3"> 
-0.00485824 0.00154475 0 -0.0004124 2.00704e-05 0 -4.93483e-05 8.23862e-05 0 -0.000174357 4.7246e-05 0 -4.26146e-05 4.57429e-05 0 -8.32656e-05 3.81964e-05 0 -4.21916e-05 3.35882e-05 0 -5.04939e-05 2.97634e-05 0 -3.61997e-05 2.59451e-05 0 -3.57847e-05 2.31197e-05 0 -2.96147e-05 2.0292e-05 0 -2.73849e-05 1.80786e-05 0 -2.39053e-05 1.59997e-05 0 -2.16316e-05 1.42864e-05 0 -1.9226e-05 1.27434e-05 0 -1.72684e-05 1.14342e-05 0 -1.54156e-05 1.02791e-05 0 -1.3785e-05 9.28542e-06 0 -1.22832e-05 8.41717e-06 0 -1.09217e-05 7.6668e-06 0 -9.66892e-06 7.0153e-06 0 -8.51593e-06 6.45337e-06 0 -7.44694e-06 5.96957e-06 0 -6.45111e-06 5.55617e-06 0 -5.51754e-06 5.20576e-06 0 -4.63664e-06 4.91271e-06 0 -3.7996e-06 4.67212e-06 0 -2.99817e-06 4.48022e-06 0 -2.22468e-06 4.33395e-06 0 -1.47181e-06 4.23104e-06 0 -7.3253e-07 4.16992e-06 0 0 4.14965e-06 0 -0.000906769 -0.00113843 0 -0.000313442 4.46688e-05 0 -0.000174473 2.86202e-05 0 -0.00010237 4.24765e-05 0 -8.48059e-05 3.667e-05 0 -6.29031e-05 3.43102e-05 0 -5.5074e-05 3.06821e-05 0 -4.55709e-05 2.7289e-05 0 -4.03946e-05 2.43641e-05 0 -3.50602e-05 2.15249e-05 0 -3.12428e-05 1.91567e-05 0 -2.76589e-05 1.69672e-05 0 -2.47217e-05 1.51119e-05 0 -2.20549e-05 1.34539e-05 0 -1.97355e-05 1.20306e-05 0 -1.76428e-05 1.07795e-05 0 -1.57738e-05 9.69801e-06 0 -1.40808e-05 8.75423e-06 0 -1.2547e-05 7.93638e-06 0 -1.11473e-05 7.22569e-06 0 -9.86543e-06 6.6107e-06 0 -8.68482e-06 6.07926e-06 0 -7.592e-06 5.62233e-06 0 -6.57457e-06 5.23168e-06 0 -5.62153e-06 4.90077e-06 0 -4.7229e-06 4.62399e-06 0 -3.86949e-06 4.39684e-06 0 -3.05283e-06 4.21566e-06 0 -2.26495e-06 4.07759e-06 0 -1.49832e-06 3.98046e-06 0 -7.45682e-07 3.92277e-06 0 5.89376e-20 3.90364e-06 0 1.60457e-05 -0.000589312 0 -0.000259552 -7.8809e-05 0 -0.000163852 1.32052e-05 0 -0.000103967 2.75883e-05 0 -8.36499e-05 3.07958e-05 0 -6.4742e-05 2.9814e-05 0 -5.54902e-05 2.76089e-05 0 -4.6857e-05 2.50884e-05 0 -4.1116e-05 2.24809e-05 0 -3.59766e-05 2.00884e-05 0 -3.19189e-05 1.78637e-05 0 -2.83318e-05 1.59035e-05 0 -2.52722e-05 1.41517e-05 0 -2.25569e-05 1.26244e-05 0 -2.01626e-05 1.12822e-05 0 -1.802e-05 1.01152e-05 0 -1.60993e-05 9.09664e-06 0 -1.43651e-05 8.21181e-06 0 -1.27932e-05 7.44223e-06 0 -1.13611e-05 6.77475e-06 0 -1.00502e-05 6.19643e-06 0 -8.84416e-06 5.69709e-06 0 -7.72863e-06 5.26763e-06 0 -6.69088e-06 4.90062e-06 0 -5.71949e-06 4.58973e-06 0 -4.80413e-06 4.32978e-06 0 -3.93531e-06 4.11645e-06 0 -3.10429e-06 3.94633e-06 0 -2.30286e-06 3.81669e-06 0 -1.52327e-06 3.7255e-06 0 -7.58065e-07 3.67134e-06 0 4.54348e-20 3.65338e-06 0 -7.75568e-05 -0.00038564 0 -0.000200373 -0.000108987 0 -0.000142275 -7.45964e-06 0 -0.000105521 1.68715e-05 0 -8.04464e-05 2.44439e-05 0 -6.64133e-05 2.5598e-05 0 -5.54703e-05 2.46333e-05 0 -4.79795e-05 2.27867e-05 0 -4.17167e-05 2.06665e-05 0 -3.67918e-05 1.85661e-05 0 -3.25402e-05 1.65847e-05 0 -2.89453e-05 1.47896e-05 0 -2.57866e-05 1.31826e-05 0 -2.30218e-05 1.17651e-05 0 -2.05629e-05 1.05197e-05 0 -1.8372e-05 9.43142e-06 0 -1.64045e-05 8.48208e-06 0 -1.46311e-05 7.65571e-06 0 -1.3024e-05 6.93724e-06 0 -1.15613e-05 6.31367e-06 0 -1.02234e-05 5.77354e-06 0 -8.99344e-06 5.3071e-06 0 -7.85663e-06 4.90604e-06 0 -6.79983e-06 4.56332e-06 0 -5.81124e-06 4.27307e-06 0 -4.88019e-06 4.03039e-06 0 -3.99694e-06 3.83127e-06 0 -3.15246e-06 3.6725e-06 0 -2.33835e-06 3.55152e-06 0 -1.54663e-06 3.46643e-06 0 -7.69654e-07 3.4159e-06 0 0 3.39914e-06 0 -1.86752e-05 -0.000244989 0 -0.000148025 -0.000112054 0 -0.000127378 -2.16535e-05 0 -9.96652e-05 7.96043e-06 0 -7.94125e-05 1.86478e-05 0 -6.59834e-05 2.16405e-05 0 -5.60017e-05 2.17264e-05 0 -4.84926e-05 2.05261e-05 0 -4.24142e-05 1.88392e-05 0 -3.74107e-05 1.70361e-05 0 -3.31504e-05 1.52805e-05 0 -2.94807e-05 1.36573e-05 0 -2.62721e-05 1.21907e-05 0 -2.34457e-05 1.08876e-05 0 -2.09369e-05 9.73899e-06 0 -1.86978e-05 8.73264e-06 0 -1.6689e-05 7.85363e-06 0 -1.48784e-05 7.08778e-06 0 -1.3239e-05 6.42166e-06 0 -1.17477e-05 5.84337e-06 0 -1.03846e-05 5.34244e-06 0 -9.13238e-06 4.90988e-06 0 -7.97576e-06 4.53797e-06 0 -6.90121e-06 4.22021e-06 0 -5.8966e-06 3.95112e-06 0 -4.95095e-06 3.72616e-06 0 -4.05426e-06 3.54162e-06 0 -3.19727e-06 3.39448e-06 0 -2.37136e-06 3.28237e-06 0 -1.56835e-06 3.20353e-06 0 -7.80431e-07 3.15671e-06 0 7.43208e-22 3.14118e-06 0 -1.64825e-05 -0.00018593 0 -0.000110774 -0.000101444 0 -0.000111231 -3.01303e-05 0 -9.34851e-05 1.11695e-06 0 -7.7278e-05 1.35743e-05 0 -6.53872e-05 1.80036e-05 0 -5.61473e-05 1.89494e-05 0 -4.89158e-05 1.83157e-05 0 -4.29579e-05 1.7024e-05 0 -3.79676e-05 1.5499e-05 0 -3.36851e-05 1.39617e-05 0 -2.99706e-05 1.2507e-05 0 -2.67126e-05 1.11806e-05 0 -2.3836e-05 9.99285e-06 0 -2.12802e-05 8.94256e-06 0 -1.89983e-05 8.01967e-06 0 -1.69512e-05 7.21264e-06 0 -1.51068e-05 6.50877e-06 0 -1.34375e-05 5.89633e-06 0 -1.19199e-05 5.36449e-06 0 -1.05335e-05 4.90377e-06 0 -9.26072e-06 4.50593e-06 0 -8.08579e-06 4.1639e-06 0 -6.99483e-06 3.87169e-06 0 -5.97541e-06 3.62427e-06 0 -5.01628e-06 3.41746e-06 0 -4.10717e-06 3.24782e-06 0 -3.23863e-06 3.11257e-06 0 -2.40182e-06 3.00953e-06 0 -1.5884e-06 2.93707e-06 0 -7.90378e-07 2.89404e-06 0 5.19962e-20 2.87978e-06 0 -7.51078e-06 -0.000137104 0 -8.45552e-05 -8.90107e-05 0 -9.66825e-05 -3.3516e-05 0 -8.68171e-05 -3.90988e-06 0 -7.47354e-05 9.3715e-06 0 -6.44605e-05 1.47253e-05 0 -5.60915e-05 1.63352e-05 0 -4.91914e-05 1.61789e-05 0 -4.33992e-05 1.52285e-05 0 -3.8445e-05 1.3965e-05 0 -3.41579e-05 1.26312e-05 0 -3.04097e-05 1.13433e-05 0 -2.7111e-05 1.01544e-05 0 -2.41907e-05 9.08312e-06 0 -2.15933e-05 8.13173e-06 0 -1.92728e-05 7.29394e-06 0 -1.71911e-05 6.56014e-06 0 -1.53158e-05 5.91965e-06 0 -1.36192e-05 5.36204e-06 0 -1.20775e-05 4.87772e-06 0 -1.06699e-05 4.45812e-06 0 -9.37821e-06 4.09579e-06 0 -8.1865e-06 3.7843e-06 0 -7.08052e-06 3.51821e-06 0 -6.04754e-06 3.29293e-06 0 -5.07606e-06 3.10464e-06 0 -4.15559e-06 2.9502e-06 0 -3.27647e-06 2.82708e-06 0 -2.42969e-06 2.7333e-06 0 -1.60674e-06 2.66735e-06 0 -7.99476e-07 2.62819e-06 0 2.41703e-20 2.61521e-06 0 -6.36104e-06 -0.000107569 0 -6.63683e-05 -7.58698e-05 0 -8.39463e-05 -3.37366e-05 0 -8.03991e-05 -7.17777e-06 0 -7.18831e-05 6.00799e-06 0 -6.33629e-05 1.18409e-05 0 -5.58506e-05 1.39094e-05 0 -4.93572e-05 1.41246e-05 0 -4.37422e-05 1.34664e-05 0 -3.88519e-05 1.24371e-05 0 -3.45697e-05 1.12955e-05 0 -3.07997e-05 1.0168e-05 0 -2.74673e-05 9.11505e-06 0 -2.45098e-05 8.15989e-06 0 -2.18756e-05 7.30831e-06 0 -1.95208e-05 6.55661e-06 0 -1.7408e-05 5.89729e-06 0 -1.55049e-05 5.32131e-06 0 -1.37837e-05 4.81963e-06 0 -1.22202e-05 4.38378e-06 0 -1.07933e-05 4.00613e-06 0 -9.4846e-06 3.68001e-06 0 -8.2777e-06 3.39967e-06 0 -7.15811e-06 3.1602e-06 0 -6.11285e-06 2.95747e-06 0 -5.13018e-06 2.78805e-06 0 -4.19941e-06 2.64911e-06 0 -3.31072e-06 2.53835e-06 0 -2.45491e-06 2.45398e-06 0 -1.62333e-06 2.39466e-06 0 -8.0771e-07 2.35943e-06 0 0 2.34775e-06 0 -4.60445e-06 -8.4577e-05 0 -5.3584e-05 -6.38171e-05 0 -7.33765e-05 -3.18379e-05 0 -7.44214e-05 -8.99149e-06 0 -6.89965e-05 3.44411e-06 0 -6.21463e-05 9.3552e-06 0 -5.54954e-05 1.1681e-05 0 -4.94252e-05 1.21631e-05 0 -4.40052e-05 1.17427e-05 0 -3.91912e-05 1.09207e-05 0 -3.49248e-05 9.9573e-06 0 -3.11413e-05 8.98425e-06 0 -2.77819e-05 8.0646e-06 0 -2.47929e-05 7.22511e-06 0 -2.2127e-05 6.47373e-06 0 -1.97421e-05 5.80902e-06 0 -1.76017e-05 5.22517e-06 0 -1.56739e-05 4.71473e-06 0 -1.39307e-05 4.26992e-06 0 -1.23477e-05 3.88337e-06 0 -1.09037e-05 3.54841e-06 0 -9.5797e-06 3.25915e-06 0 -8.35922e-06 3.0105e-06 0 -7.22746e-06 2.79811e-06 0 -6.17121e-06 2.61833e-06 0 -5.17854e-06 2.46809e-06 0 -4.23858e-06 2.34489e-06 0 -3.34132e-06 2.24668e-06 0 -2.47745e-06 2.17188e-06 0 -1.63816e-06 2.11929e-06 0 -8.15066e-07 2.08806e-06 0 0 2.07771e-06 0 -3.89382e-06 -6.71907e-05 0 -4.45065e-05 -5.28291e-05 0 -6.48056e-05 -2.8698e-05 0 -6.90996e-05 -9.62499e-06 0 -6.62264e-05 1.59333e-06 0 -6.09018e-05 7.25405e-06 0 -5.50708e-05 9.65025e-06 0 -4.94212e-05 1.02972e-05 0 -4.42003e-05 1.00616e-05 0 -3.94699e-05 9.41851e-06 0 -3.52263e-05 8.61962e-06 0 -3.14358e-05 7.7941e-06 0 -2.80555e-05 7.0051e-06 0 -2.50403e-05 6.28042e-06 0 -2.23471e-05 5.62949e-06 0 -1.99362e-05 5.05241e-06 0 -1.77718e-05 4.5449e-06 0 -1.58224e-05 4.10086e-06 0 -1.40599e-05 3.71374e-06 0 -1.24599e-05 3.37725e-06 0 -1.10007e-05 3.08563e-06 0 -9.66332e-06 2.83379e-06 0 -8.43089e-06 2.61731e-06 0 -7.28842e-06 2.43241e-06 0 -6.22251e-06 2.27591e-06 0 -5.22105e-06 2.14513e-06 0 -4.273e-06 2.03789e-06 0 -3.36822e-06 1.95242e-06 0 -2.49725e-06 1.88732e-06 0 -1.6512e-06 1.84155e-06 0 -8.21531e-07 1.81437e-06 0 0 1.80536e-06 0 -3.27781e-06 -5.30055e-05 0 -3.79982e-05 -4.29427e-05 0 -5.80136e-05 -2.48277e-05 0 -6.45266e-05 -9.35372e-06 0 -6.36986e-05 3.57816e-07 0 -5.97032e-05 5.50605e-06 0 -5.46215e-05 7.8075e-06 0 -4.9368e-05 8.52549e-06 0 -4.43402e-05 8.42358e-06 0 -3.96943e-05 7.93249e-06 0 -3.54774e-05 7.28424e-06 0 -3.16847e-05 6.59957e-06 0 -2.82885e-05 5.93826e-06 0 -2.52519e-05 5.32744e-06 0 -2.25359e-05 4.777e-06 0 -2.01029e-05 4.28807e-06 0 -1.79181e-05 3.85758e-06 0 -1.59501e-05 3.48066e-06 0 -1.41711e-05 3.15194e-06 0 -1.25564e-05 2.86614e-06 0 -1.10842e-05 2.61843e-06 0 -9.7353e-06 2.40451e-06 0 -8.49258e-06 2.22062e-06 0 -7.3409e-06 2.06356e-06 0 -6.26667e-06 1.93063e-06 0 -5.25763e-06 1.81956e-06 0 -4.30262e-06 1.72848e-06 0 -3.39136e-06 1.6559e-06 0 -2.51429e-06 1.60062e-06 0 -1.66241e-06 1.56175e-06 0 -8.27094e-07 1.53867e-06 0 0 1.53102e-06 0 -2.83753e-06 -4.1054e-05 0 -3.33204e-05 -3.39592e-05 0 -5.27542e-05 -2.05617e-05 0 -6.07405e-05 -8.40638e-06 0 -6.15004e-05 -3.68261e-07 0 -5.8614e-05 4.06834e-06 0 -5.41867e-05 6.13565e-06 0 -4.92873e-05 6.84145e-06 0 -4.44368e-05 6.82686e-06 0 -3.98704e-05 6.46281e-06 0 -3.56811e-05 5.95232e-06 0 -3.18895e-05 5.4021e-06 0 -2.84816e-05 4.86566e-06 0 -2.5428e-05 4.36767e-06 0 -2.26934e-05 3.91763e-06 0 -2.02421e-05 3.51721e-06 0 -1.80403e-05 3.1643e-06 0 -1.60569e-05 2.85512e-06 0 -1.42641e-05 2.58537e-06 0 -1.26372e-05 2.35081e-06 0 -1.11541e-05 2.14749e-06 0 -9.7955e-06 1.97189e-06 0 -8.54417e-06 1.82095e-06 0 -7.38478e-06 1.69204e-06 0 -6.30359e-06 1.58293e-06 0 -5.28822e-06 1.49177e-06 0 -4.32739e-06 1.41703e-06 0 -3.41071e-06 1.35746e-06 0 -2.52854e-06 1.31209e-06 0 -1.67178e-06 1.28019e-06 0 -8.31745e-07 1.26126e-06 0 0 1.25498e-06 0 -2.57246e-06 -3.06101e-05 0 -3.00007e-05 -2.5703e-05 0 -4.88035e-05 -1.60912e-05 0 -5.77466e-05 -6.97101e-06 0 -5.96895e-05 -6.88981e-07 0 -5.76861e-05 2.89039e-06 0 -5.37986e-05 4.6112e-06 0 -4.91985e-05 5.23473e-06 0 -4.45003e-05 5.26729e-06 0 -4.0004e-05 5.00846e-06 0 -3.58403e-05 4.62428e-06 0 -3.20514e-05 4.20283e-06 0 -2.86353e-05 3.78862e-06 0 -2.55685e-05 3.40249e-06 0 -2.28193e-05 3.05271e-06 0 -2.03536e-05 2.74106e-06 0 -1.81383e-05 2.46615e-06 0 -1.61426e-05 2.22519e-06 0 -1.43387e-05 2.0149e-06 0 -1.27019e-05 1.83201e-06 0 -1.12101e-05 1.67347e-06 0 -9.8438e-06 1.53654e-06 0 -8.58557e-06 1.41884e-06 0 -7.41999e-06 1.31832e-06 0 -6.33322e-06 1.23324e-06 0 -5.31277e-06 1.16216e-06 0 -4.34726e-06 1.10388e-06 0 -3.42624e-06 1.05744e-06 0 -2.53997e-06 1.02207e-06 0 -1.6793e-06 9.97203e-07 0 -8.35475e-07 9.82439e-07 0 0 9.77545e-07 0 -2.33846e-06 -2.12141e-05 0 -2.77264e-05 -1.79866e-05 0 -4.59908e-05 -1.15266e-05 0 -5.55266e-05 -5.19608e-06 0 -5.83061e-05 -7.03737e-07 0 -5.69578e-05 1.91717e-06 0 -5.34844e-05 3.20589e-06 0 -4.91174e-05 3.69152e-06 0 -4.45398e-05 3.73878e-06 0 -4.00997e-05 3.56726e-06 0 -3.59574e-05 3.29995e-06 0 -3.21718e-05 3.00252e-06 0 -2.875e-05 2.70835e-06 0 -2.56738e-05 2.43322e-06 0 -2.29138e-05 2.18352e-06 0 -2.04373e-05 1.96081e-06 0 -1.82119e-05 1.76423e-06 0 -1.62069e-05 1.59186e-06 0 -1.43948e-05 1.44139e-06 0 -1.27506e-05 1.31051e-06 0 -1.12523e-05 1.19705e-06 0 -9.88011e-06 1.09905e-06 0 -8.61668e-06 1.01482e-06 0 -7.44645e-06 9.42881e-07 0 -6.35548e-06 8.81998e-07 0 -5.33121e-06 8.31133e-07 0 -4.36219e-06 7.89428e-07 0 -3.4379e-06 7.56193e-07 0 -2.54856e-06 7.30884e-07 0 -1.68496e-06 7.1309e-07 0 -8.38279e-07 7.02526e-07 0 -1.74693e-21 6.99024e-07 0 -2.2363e-06 -1.24699e-05 0 -2.63058e-05 -1.06466e-05 0 -4.41835e-05 -6.92361e-06 0 -5.40623e-05 -3.20021e-06 0 -5.73724e-05 -5.0562e-07 0 -5.64578e-05 1.0912e-06 0 -5.32637e-05 1.88797e-06 0 -4.90564e-05 2.19553e-06 0 -4.45621e-05 2.2336e-06 0 -4.01614e-05 2.13613e-06 0 -3.60343e-05 1.97865e-06 0 -3.22515e-05 1.80167e-06 0 -2.88263e-05 1.62586e-06 0 -2.57439e-05 1.46106e-06 0 -2.29768e-05 1.31131e-06 0 -2.04932e-05 1.17765e-06 0 -1.8261e-05 1.05961e-06 0 -1.62499e-05 9.56088e-07 0 -1.44322e-05 8.65706e-07 0 -1.27831e-05 7.87082e-07 0 -1.12804e-05 7.18918e-07 0 -9.90435e-06 6.60044e-07 0 -8.63746e-06 6.09438e-07 0 -7.46412e-06 5.6622e-07 0 -6.37035e-06 5.29644e-07 0 -5.34353e-06 4.99087e-07 0 -4.37216e-06 4.74033e-07 0 -3.44569e-06 4.54068e-07 0 -2.5543e-06 4.38864e-07 0 -1.68873e-06 4.28175e-07 0 -8.40151e-07 4.21829e-07 0 -8.91906e-21 4.19726e-07 0 -2.16366e-06 -4.12161e-06 0 -2.56217e-05 -3.52437e-06 0 -4.3301e-05 -2.30876e-06 0 -5.33347e-05 -1.08005e-06 0 -5.69028e-05 -1.82314e-07 0 -5.62032e-05 3.53876e-07 0 -5.31501e-05 6.23352e-07 0 -4.90238e-05 7.28574e-07 0 -4.45721e-05 7.42901e-07 0 -4.01915e-05 7.11326e-07 0 -3.60724e-05 6.59323e-07 0 -3.22912e-05 6.00577e-07 0 -2.88644e-05 5.42093e-07 0 -2.57789e-05 4.87209e-07 0 -2.30083e-05 4.37304e-07 0 -2.05211e-05 3.92743e-07 0 -1.82855e-05 3.53384e-07 0 -1.62714e-05 3.18858e-07 0 -1.4451e-05 2.88714e-07 0 -1.27994e-05 2.6249e-07 0 -1.12945e-05 2.39754e-07 0 -9.91648e-06 2.20117e-07 0 -8.64786e-06 2.03237e-07 0 -7.47296e-06 1.88822e-07 0 -6.37779e-06 1.76622e-07 0 -5.34969e-06 1.6643e-07 0 -4.37715e-06 1.58074e-07 0 -3.44959e-06 1.51415e-07 0 -2.55717e-06 1.46344e-07 0 -1.69062e-06 1.42779e-07 0 -8.41087e-07 1.40662e-07 0 -5.29837e-22 1.3996e-07 0 -2.16366e-06 4.12161e-06 0 -2.56217e-05 3.52437e-06 0 -4.3301e-05 2.30876e-06 0 -5.33347e-05 1.08005e-06 0 -5.69028e-05 1.82314e-07 0 -5.62032e-05 -3.53876e-07 0 -5.31501e-05 -6.23352e-07 0 -4.90238e-05 -7.28574e-07 0 -4.45721e-05 -7.42901e-07 0 -4.01915e-05 -7.11326e-07 0 -3.60724e-05 -6.59323e-07 0 -3.22912e-05 -6.00577e-07 0 -2.88644e-05 -5.42093e-07 0 -2.57789e-05 -4.87209e-07 0 -2.30083e-05 -4.37304e-07 0 -2.05211e-05 -3.92743e-07 0 -1.82855e-05 -3.53384e-07 0 -1.62714e-05 -3.18858e-07 0 -1.4451e-05 -2.88714e-07 0 -1.27994e-05 -2.6249e-07 0 -1.12945e-05 -2.39754e-07 0 -9.91648e-06 -2.20117e-07 0 -8.64786e-06 -2.03237e-07 0 -7.47296e-06 -1.88822e-07 0 -6.37779e-06 -1.76622e-07 0 -5.34969e-06 -1.6643e-07 0 -4.37715e-06 -1.58074e-07 0 -3.44959e-06 -1.51415e-07 0 -2.55717e-06 -1.46344e-07 0 -1.69062e-06 -1.42779e-07 0 -8.41087e-07 -1.40662e-07 0 0 -1.3996e-07 0 -2.2363e-06 1.24699e-05 0 -2.63058e-05 1.06466e-05 0 -4.41835e-05 6.92361e-06 0 -5.40623e-05 3.20021e-06 0 -5.73724e-05 5.0562e-07 0 -5.64578e-05 -1.0912e-06 0 -5.32637e-05 -1.88797e-06 0 -4.90564e-05 -2.19553e-06 0 -4.45621e-05 -2.2336e-06 0 -4.01614e-05 -2.13613e-06 0 -3.60343e-05 -1.97865e-06 0 -3.22515e-05 -1.80167e-06 0 -2.88263e-05 -1.62586e-06 0 -2.57439e-05 -1.46106e-06 0 -2.29768e-05 -1.31131e-06 0 -2.04932e-05 -1.17765e-06 0 -1.8261e-05 -1.05961e-06 0 -1.62499e-05 -9.56088e-07 0 -1.44322e-05 -8.65706e-07 0 -1.27831e-05 -7.87082e-07 0 -1.12804e-05 -7.18918e-07 0 -9.90435e-06 -6.60044e-07 0 -8.63746e-06 -6.09438e-07 0 -7.46412e-06 -5.6622e-07 0 -6.37035e-06 -5.29644e-07 0 -5.34353e-06 -4.99087e-07 0 -4.37216e-06 -4.74033e-07 0 -3.44569e-06 -4.54068e-07 0 -2.5543e-06 -4.38864e-07 0 -1.68873e-06 -4.28175e-07 0 -8.40151e-07 -4.21829e-07 0 0 -4.19726e-07 0 -2.33846e-06 2.12141e-05 0 -2.77264e-05 1.79866e-05 0 -4.59908e-05 1.15266e-05 0 -5.55266e-05 5.19608e-06 0 -5.83061e-05 7.03737e-07 0 -5.69578e-05 -1.91717e-06 0 -5.34844e-05 -3.20589e-06 0 -4.91174e-05 -3.69152e-06 0 -4.45398e-05 -3.73878e-06 0 -4.00997e-05 -3.56726e-06 0 -3.59574e-05 -3.29995e-06 0 -3.21718e-05 -3.00252e-06 0 -2.875e-05 -2.70835e-06 0 -2.56738e-05 -2.43322e-06 0 -2.29138e-05 -2.18352e-06 0 -2.04373e-05 -1.96081e-06 0 -1.82119e-05 -1.76423e-06 0 -1.62069e-05 -1.59186e-06 0 -1.43948e-05 -1.44139e-06 0 -1.27506e-05 -1.31051e-06 0 -1.12523e-05 -1.19705e-06 0 -9.88011e-06 -1.09905e-06 0 -8.61668e-06 -1.01482e-06 0 -7.44645e-06 -9.42881e-07 0 -6.35548e-06 -8.81998e-07 0 -5.33121e-06 -8.31133e-07 0 -4.36219e-06 -7.89428e-07 0 -3.4379e-06 -7.56193e-07 0 -2.54856e-06 -7.30884e-07 0 -1.68496e-06 -7.1309e-07 0 -8.38279e-07 -7.02526e-07 0 3.34914e-21 -6.99024e-07 0 -2.57246e-06 3.06101e-05 0 -3.00007e-05 2.5703e-05 0 -4.88035e-05 1.60912e-05 0 -5.77466e-05 6.97101e-06 0 -5.96895e-05 6.88981e-07 0 -5.76861e-05 -2.89039e-06 0 -5.37986e-05 -4.6112e-06 0 -4.91985e-05 -5.23473e-06 0 -4.45003e-05 -5.26729e-06 0 -4.0004e-05 -5.00846e-06 0 -3.58403e-05 -4.62428e-06 0 -3.20514e-05 -4.20283e-06 0 -2.86353e-05 -3.78862e-06 0 -2.55685e-05 -3.40249e-06 0 -2.28193e-05 -3.05271e-06 0 -2.03536e-05 -2.74106e-06 0 -1.81383e-05 -2.46615e-06 0 -1.61426e-05 -2.22519e-06 0 -1.43387e-05 -2.0149e-06 0 -1.27019e-05 -1.83201e-06 0 -1.12101e-05 -1.67347e-06 0 -9.8438e-06 -1.53654e-06 0 -8.58557e-06 -1.41884e-06 0 -7.41999e-06 -1.31832e-06 0 -6.33322e-06 -1.23324e-06 0 -5.31277e-06 -1.16216e-06 0 -4.34726e-06 -1.10388e-06 0 -3.42624e-06 -1.05744e-06 0 -2.53997e-06 -1.02207e-06 0 -1.6793e-06 -9.97203e-07 0 -8.35475e-07 -9.82439e-07 0 2.04835e-20 -9.77545e-07 0 -2.83753e-06 4.1054e-05 0 -3.33204e-05 3.39592e-05 0 -5.27542e-05 2.05617e-05 0 -6.07405e-05 8.40638e-06 0 -6.15004e-05 3.68261e-07 0 -5.8614e-05 -4.06834e-06 0 -5.41867e-05 -6.13565e-06 0 -4.92873e-05 -6.84145e-06 0 -4.44368e-05 -6.82686e-06 0 -3.98704e-05 -6.46281e-06 0 -3.56811e-05 -5.95232e-06 0 -3.18895e-05 -5.4021e-06 0 -2.84816e-05 -4.86566e-06 0 -2.5428e-05 -4.36767e-06 0 -2.26934e-05 -3.91763e-06 0 -2.02421e-05 -3.51721e-06 0 -1.80403e-05 -3.1643e-06 0 -1.60569e-05 -2.85512e-06 0 -1.42641e-05 -2.58537e-06 0 -1.26372e-05 -2.35081e-06 0 -1.11541e-05 -2.14749e-06 0 -9.7955e-06 -1.97189e-06 0 -8.54417e-06 -1.82095e-06 0 -7.38478e-06 -1.69204e-06 0 -6.30359e-06 -1.58293e-06 0 -5.28822e-06 -1.49177e-06 0 -4.32739e-06 -1.41703e-06 0 -3.41071e-06 -1.35746e-06 0 -2.52854e-06 -1.31209e-06 0 -1.67178e-06 -1.28019e-06 0 -8.31745e-07 -1.26126e-06 0 2.24553e-21 -1.25498e-06 0 -3.27781e-06 5.30055e-05 0 -3.79982e-05 4.29427e-05 0 -5.80136e-05 2.48277e-05 0 -6.45266e-05 9.35372e-06 0 -6.36986e-05 -3.57816e-07 0 -5.97032e-05 -5.50605e-06 0 -5.46215e-05 -7.8075e-06 0 -4.9368e-05 -8.52549e-06 0 -4.43402e-05 -8.42358e-06 0 -3.96943e-05 -7.93249e-06 0 -3.54774e-05 -7.28424e-06 0 -3.16847e-05 -6.59957e-06 0 -2.82885e-05 -5.93826e-06 0 -2.52519e-05 -5.32744e-06 0 -2.25359e-05 -4.777e-06 0 -2.01029e-05 -4.28807e-06 0 -1.79181e-05 -3.85758e-06 0 -1.59501e-05 -3.48066e-06 0 -1.41711e-05 -3.15194e-06 0 -1.25564e-05 -2.86614e-06 0 -1.10842e-05 -2.61843e-06 0 -9.7353e-06 -2.40451e-06 0 -8.49258e-06 -2.22062e-06 0 -7.3409e-06 -2.06356e-06 0 -6.26667e-06 -1.93063e-06 0 -5.25763e-06 -1.81956e-06 0 -4.30262e-06 -1.72848e-06 0 -3.39136e-06 -1.6559e-06 0 -2.51429e-06 -1.60062e-06 0 -1.66241e-06 -1.56175e-06 0 -8.27094e-07 -1.53867e-06 0 0 -1.53102e-06 0 -3.89382e-06 6.71907e-05 0 -4.45065e-05 5.28291e-05 0 -6.48056e-05 2.8698e-05 0 -6.90996e-05 9.62499e-06 0 -6.62264e-05 -1.59333e-06 0 -6.09018e-05 -7.25405e-06 0 -5.50708e-05 -9.65025e-06 0 -4.94212e-05 -1.02972e-05 0 -4.42003e-05 -1.00616e-05 0 -3.94699e-05 -9.41851e-06 0 -3.52263e-05 -8.61962e-06 0 -3.14358e-05 -7.7941e-06 0 -2.80555e-05 -7.0051e-06 0 -2.50403e-05 -6.28042e-06 0 -2.23471e-05 -5.62949e-06 0 -1.99362e-05 -5.05241e-06 0 -1.77718e-05 -4.5449e-06 0 -1.58224e-05 -4.10086e-06 0 -1.40599e-05 -3.71374e-06 0 -1.24599e-05 -3.37725e-06 0 -1.10007e-05 -3.08563e-06 0 -9.66332e-06 -2.83379e-06 0 -8.43089e-06 -2.61731e-06 0 -7.28842e-06 -2.43241e-06 0 -6.22251e-06 -2.27591e-06 0 -5.22105e-06 -2.14513e-06 0 -4.273e-06 -2.03789e-06 0 -3.36822e-06 -1.95242e-06 0 -2.49725e-06 -1.88732e-06 0 -1.6512e-06 -1.84155e-06 0 -8.21531e-07 -1.81437e-06 0 0 -1.80536e-06 0 -4.60445e-06 8.4577e-05 0 -5.3584e-05 6.38171e-05 0 -7.33765e-05 3.18379e-05 0 -7.44214e-05 8.99149e-06 0 -6.89965e-05 -3.44411e-06 0 -6.21463e-05 -9.3552e-06 0 -5.54954e-05 -1.1681e-05 0 -4.94252e-05 -1.21631e-05 0 -4.40052e-05 -1.17427e-05 0 -3.91912e-05 -1.09207e-05 0 -3.49248e-05 -9.9573e-06 0 -3.11413e-05 -8.98425e-06 0 -2.77819e-05 -8.0646e-06 0 -2.47929e-05 -7.22511e-06 0 -2.2127e-05 -6.47373e-06 0 -1.97421e-05 -5.80902e-06 0 -1.76017e-05 -5.22517e-06 0 -1.56739e-05 -4.71473e-06 0 -1.39307e-05 -4.26992e-06 0 -1.23477e-05 -3.88337e-06 0 -1.09037e-05 -3.54841e-06 0 -9.5797e-06 -3.25915e-06 0 -8.35922e-06 -3.0105e-06 0 -7.22746e-06 -2.79811e-06 0 -6.17121e-06 -2.61833e-06 0 -5.17854e-06 -2.46809e-06 0 -4.23858e-06 -2.34489e-06 0 -3.34132e-06 -2.24668e-06 0 -2.47745e-06 -2.17188e-06 0 -1.63816e-06 -2.11929e-06 0 -8.15066e-07 -2.08806e-06 0 0 -2.07771e-06 0 -6.36104e-06 0.000107569 0 -6.63683e-05 7.58698e-05 0 -8.39463e-05 3.37366e-05 0 -8.03991e-05 7.17777e-06 0 -7.18831e-05 -6.00799e-06 0 -6.33629e-05 -1.18409e-05 0 -5.58506e-05 -1.39094e-05 0 -4.93572e-05 -1.41246e-05 0 -4.37422e-05 -1.34664e-05 0 -3.88519e-05 -1.24371e-05 0 -3.45697e-05 -1.12955e-05 0 -3.07997e-05 -1.0168e-05 0 -2.74673e-05 -9.11505e-06 0 -2.45098e-05 -8.15989e-06 0 -2.18756e-05 -7.30831e-06 0 -1.95208e-05 -6.55661e-06 0 -1.7408e-05 -5.89729e-06 0 -1.55049e-05 -5.32131e-06 0 -1.37837e-05 -4.81963e-06 0 -1.22202e-05 -4.38378e-06 0 -1.07933e-05 -4.00613e-06 0 -9.4846e-06 -3.68001e-06 0 -8.2777e-06 -3.39967e-06 0 -7.15811e-06 -3.1602e-06 0 -6.11285e-06 -2.95747e-06 0 -5.13018e-06 -2.78805e-06 0 -4.19941e-06 -2.64911e-06 0 -3.31072e-06 -2.53835e-06 0 -2.45491e-06 -2.45398e-06 0 -1.62333e-06 -2.39466e-06 0 -8.0771e-07 -2.35943e-06 0 0 -2.34775e-06 0 -7.51078e-06 0.000137104 0 -8.45552e-05 8.90107e-05 0 -9.66825e-05 3.3516e-05 0 -8.68171e-05 3.90988e-06 0 -7.47354e-05 -9.3715e-06 0 -6.44605e-05 -1.47253e-05 0 -5.60915e-05 -1.63352e-05 0 -4.91914e-05 -1.61789e-05 0 -4.33992e-05 -1.52285e-05 0 -3.8445e-05 -1.3965e-05 0 -3.41579e-05 -1.26312e-05 0 -3.04097e-05 -1.13433e-05 0 -2.7111e-05 -1.01544e-05 0 -2.41907e-05 -9.08312e-06 0 -2.15933e-05 -8.13173e-06 0 -1.92728e-05 -7.29394e-06 0 -1.71911e-05 -6.56014e-06 0 -1.53158e-05 -5.91965e-06 0 -1.36192e-05 -5.36204e-06 0 -1.20775e-05 -4.87772e-06 0 -1.06699e-05 -4.45812e-06 0 -9.37821e-06 -4.09579e-06 0 -8.1865e-06 -3.7843e-06 0 -7.08052e-06 -3.51821e-06 0 -6.04754e-06 -3.29293e-06 0 -5.07606e-06 -3.10464e-06 0 -4.15559e-06 -2.9502e-06 0 -3.27647e-06 -2.82708e-06 0 -2.42969e-06 -2.7333e-06 0 -1.60674e-06 -2.66735e-06 0 -7.99476e-07 -2.62819e-06 0 0 -2.61521e-06 0 -1.64825e-05 0.00018593 0 -0.000110774 0.000101444 0 -0.000111231 3.01303e-05 0 -9.34851e-05 -1.11695e-06 0 -7.7278e-05 -1.35743e-05 0 -6.53872e-05 -1.80036e-05 0 -5.61473e-05 -1.89494e-05 0 -4.89158e-05 -1.83157e-05 0 -4.29579e-05 -1.7024e-05 0 -3.79676e-05 -1.5499e-05 0 -3.36851e-05 -1.39617e-05 0 -2.99706e-05 -1.2507e-05 0 -2.67126e-05 -1.11806e-05 0 -2.3836e-05 -9.99285e-06 0 -2.12802e-05 -8.94256e-06 0 -1.89983e-05 -8.01967e-06 0 -1.69512e-05 -7.21264e-06 0 -1.51068e-05 -6.50877e-06 0 -1.34375e-05 -5.89633e-06 0 -1.19199e-05 -5.36449e-06 0 -1.05335e-05 -4.90377e-06 0 -9.26072e-06 -4.50593e-06 0 -8.08579e-06 -4.1639e-06 0 -6.99483e-06 -3.87169e-06 0 -5.97541e-06 -3.62427e-06 0 -5.01628e-06 -3.41746e-06 0 -4.10717e-06 -3.24782e-06 0 -3.23863e-06 -3.11257e-06 0 -2.40182e-06 -3.00953e-06 0 -1.5884e-06 -2.93707e-06 0 -7.90378e-07 -2.89404e-06 0 0 -2.87978e-06 0 -1.86752e-05 0.000244989 0 -0.000148025 0.000112054 0 -0.000127378 2.16535e-05 0 -9.96652e-05 -7.96043e-06 0 -7.94125e-05 -1.86478e-05 0 -6.59834e-05 -2.16405e-05 0 -5.60017e-05 -2.17264e-05 0 -4.84926e-05 -2.05261e-05 0 -4.24142e-05 -1.88392e-05 0 -3.74107e-05 -1.70361e-05 0 -3.31504e-05 -1.52805e-05 0 -2.94807e-05 -1.36573e-05 0 -2.62721e-05 -1.21907e-05 0 -2.34457e-05 -1.08876e-05 0 -2.09369e-05 -9.73899e-06 0 -1.86978e-05 -8.73264e-06 0 -1.6689e-05 -7.85363e-06 0 -1.48784e-05 -7.08778e-06 0 -1.3239e-05 -6.42166e-06 0 -1.17477e-05 -5.84337e-06 0 -1.03846e-05 -5.34244e-06 0 -9.13238e-06 -4.90988e-06 0 -7.97576e-06 -4.53797e-06 0 -6.90121e-06 -4.22021e-06 0 -5.8966e-06 -3.95112e-06 0 -4.95095e-06 -3.72616e-06 0 -4.05426e-06 -3.54162e-06 0 -3.19727e-06 -3.39448e-06 0 -2.37136e-06 -3.28237e-06 0 -1.56835e-06 -3.20353e-06 0 -7.80431e-07 -3.15671e-06 0 0 -3.14118e-06 0 -7.75568e-05 0.00038564 0 -0.000200373 0.000108987 0 -0.000142275 7.45964e-06 0 -0.000105521 -1.68715e-05 0 -8.04464e-05 -2.44439e-05 0 -6.64133e-05 -2.5598e-05 0 -5.54703e-05 -2.46333e-05 0 -4.79795e-05 -2.27867e-05 0 -4.17167e-05 -2.06665e-05 0 -3.67918e-05 -1.85661e-05 0 -3.25402e-05 -1.65847e-05 0 -2.89453e-05 -1.47896e-05 0 -2.57866e-05 -1.31826e-05 0 -2.30218e-05 -1.17651e-05 0 -2.05629e-05 -1.05197e-05 0 -1.8372e-05 -9.43142e-06 0 -1.64045e-05 -8.48208e-06 0 -1.46311e-05 -7.65571e-06 0 -1.3024e-05 -6.93724e-06 0 -1.15613e-05 -6.31367e-06 0 -1.02234e-05 -5.77354e-06 0 -8.99344e-06 -5.3071e-06 0 -7.85663e-06 -4.90604e-06 0 -6.79983e-06 -4.56332e-06 0 -5.81124e-06 -4.27307e-06 0 -4.88019e-06 -4.03039e-06 0 -3.99694e-06 -3.83127e-06 0 -3.15246e-06 -3.6725e-06 0 -2.33835e-06 -3.55152e-06 0 -1.54663e-06 -3.46643e-06 0 -7.69654e-07 -3.4159e-06 0 0 -3.39914e-06 0 1.60457e-05 0.000589312 0 -0.000259552 7.8809e-05 0 -0.000163852 -1.32052e-05 0 -0.000103967 -2.75883e-05 0 -8.36499e-05 -3.07958e-05 0 -6.4742e-05 -2.9814e-05 0 -5.54902e-05 -2.76089e-05 0 -4.6857e-05 -2.50884e-05 0 -4.1116e-05 -2.24809e-05 0 -3.59766e-05 -2.00884e-05 0 -3.19189e-05 -1.78637e-05 0 -2.83318e-05 -1.59035e-05 0 -2.52722e-05 -1.41517e-05 0 -2.25569e-05 -1.26244e-05 0 -2.01626e-05 -1.12822e-05 0 -1.802e-05 -1.01152e-05 0 -1.60993e-05 -9.09664e-06 0 -1.43651e-05 -8.21181e-06 0 -1.27932e-05 -7.44223e-06 0 -1.13611e-05 -6.77475e-06 0 -1.00502e-05 -6.19643e-06 0 -8.84416e-06 -5.69709e-06 0 -7.72863e-06 -5.26763e-06 0 -6.69088e-06 -4.90062e-06 0 -5.71949e-06 -4.58973e-06 0 -4.80413e-06 -4.32978e-06 0 -3.93531e-06 -4.11645e-06 0 -3.10429e-06 -3.94633e-06 0 -2.30286e-06 -3.81669e-06 0 -1.52327e-06 -3.7255e-06 0 -7.58065e-07 -3.67134e-06 0 0 -3.65338e-06 0 -0.000906769 0.00113843 0 -0.000313442 -4.46688e-05 0 -0.000174473 -2.86202e-05 0 -0.00010237 -4.24765e-05 0 -8.48059e-05 -3.667e-05 0 -6.29031e-05 -3.43102e-05 0 -5.5074e-05 -3.06821e-05 0 -4.55709e-05 -2.7289e-05 0 -4.03946e-05 -2.43641e-05 0 -3.50602e-05 -2.15249e-05 0 -3.12428e-05 -1.91567e-05 0 -2.76589e-05 -1.69672e-05 0 -2.47217e-05 -1.51119e-05 0 -2.20549e-05 -1.34539e-05 0 -1.97355e-05 -1.20306e-05 0 -1.76428e-05 -1.07795e-05 0 -1.57738e-05 -9.69801e-06 0 -1.40808e-05 -8.75423e-06 0 -1.2547e-05 -7.93638e-06 0 -1.11473e-05 -7.22569e-06 0 -9.86543e-06 -6.6107e-06 0 -8.68482e-06 -6.07926e-06 0 -7.592e-06 -5.62233e-06 0 -6.57457e-06 -5.23168e-06 0 -5.62153e-06 -4.90077e-06 0 -4.7229e-06 -4.62399e-06 0 -3.86949e-06 -4.39684e-06 0 -3.05283e-06 -4.21566e-06 0 -2.26495e-06 -4.07759e-06 0 -1.49832e-06 -3.98046e-06 0 -7.45682e-07 -3.92277e-06 0 0 -3.90364e-06 0 -0.00485824 -0.00154475 0 -0.0004124 -2.00704e-05 0 -4.93483e-05 -8.23862e-05 0 -0.000174357 -4.7246e-05 0 -4.26146e-05 -4.57429e-05 0 -8.32656e-05 -3.81964e-05 0 -4.21916e-05 -3.35882e-05 0 -5.04939e-05 -2.97634e-05 0 -3.61997e-05 -2.59451e-05 0 -3.57847e-05 -2.31197e-05 0 -2.96147e-05 -2.0292e-05 0 -2.73849e-05 -1.80786e-05 0 -2.39053e-05 -1.59997e-05 0 -2.16316e-05 -1.42864e-05 0 -1.9226e-05 -1.27434e-05 0 -1.72684e-05 -1.14342e-05 0 -1.54156e-05 -1.02791e-05 0 -1.3785e-05 -9.28542e-06 0 -1.22832e-05 -8.41717e-06 0 -1.09217e-05 -7.6668e-06 0 -9.66892e-06 -7.0153e-06 0 -8.51593e-06 -6.45337e-06 0 -7.44694e-06 -5.96957e-06 0 -6.45111e-06 -5.55617e-06 0 -5.51754e-06 -5.20576e-06 0 -4.63664e-06 -4.91271e-06 0 -3.7996e-06 -4.67212e-06 0 -2.99817e-06 -4.48022e-06 0 -2.22468e-06 -4.33395e-06 0 -1.47181e-06 -4.23104e-06 0 -7.3253e-07 -4.16992e-06 0 0 -4.14965e-06 0 </DataArray> 
</PointData> 
<Points> 
<DataArray type="Float32" NumberOfComponents="3"> 