<?xml version="1.0"?> 
<VTKFile type="StructuredGrid" version="0.1"> 
<StructuredGrid WholeExtent="0 31 0 31 0 0"> 
<Piece Extent="0 31 0 31 0 0"> 
<PointData>
<DataArray type="Float32" Name="B" format="ascii" NumberOfComponents="3"> 
0.00388926 -0.014891 0 -8.11794e-05 0.00198353 0 -0.000894063 -0.00027005 0 0.0003127 9.42277e-05 0 -0.000321068 -6.7479e-05 0 5.8688e-05 -3.54227e-05 0 -0.000125357 -3.77819e-05 0 -1.00392e-05 -3.59162e-05 0 -5.22689e-05 -2.31129e-05 0 -1.31101e-05 -2.11703e-05 0 -1.65913e-05 -1.24573e-05 0 -9.96459e-08 -1.01309e-05 0 4.31172e-06 -5.66752e-06 0 1.23519e-05 -4.03938e-06 0 1.61441e-05 -2.00689e-06 0 1.94841e-05 -1.11561e-06 0 2.05746e-05 -2.26912e-07 0 2.02192e-05 2.29564e-07 0 1.81402e-05 6.74943e-07 0 1.41196e-05 9.3581e-07 0 8.67918e-06 1.29102e-06 0 1.49621e-07 1.43676e-06 0 -8.5475e-06 1.89265e-06 0 -2.43347e-05 1.87697e-06 0 -3.43002e-05 2.41164e-06 0 -6.63372e-05 2.66205e-06 0 -6.82152e-05 1.53518e-06 0 -0.000149038 7.76222e-06 0 -0.000114227 -1.0271e-05 0 -0.000367002 5.5991e-05 0 -0.00052988 -0.00020304 0 0.000669499 0.00396515 0 -0.000207198 -0.00103278 0 -0.000432036 -0.000284791 0 -0.000183341 -9.35128e-05 0 -0.00015593 -6.41594e-05 0 -7.57797e-05 -6.19609e-05 0 -7.5867e-05 -5.78947e-05 0 -4.69613e-05 -5.22861e-05 0 -4.10314e-05 -4.49693e-05 0 -2.52659e-05 -3.72504e-05 0 -1.66784e-05 -2.98601e-05 0 -5.93877e-06 -2.32201e-05 0 1.82535e-06 -1.75518e-05 0 9.10958e-06 -1.28076e-05 0 1.44844e-05 -8.91109e-06 0 1.85909e-05 -5.67929e-06 0 2.10688e-05 -2.96281e-06 0 2.20672e-05 -5.8967e-07 0 2.14899e-05 1.57254e-06 0 1.93038e-05 3.65467e-06 0 1.5451e-05 5.75666e-06 0 9.71021e-06 7.98111e-06 0 2.08691e-06 1.04043e-05 0 -8.06944e-06 1.31263e-05 0 -2.02983e-05 1.62349e-05 0 -3.65934e-05 1.99373e-05 0 -5.45819e-05 2.4597e-05 0 -8.10769e-05 3.12797e-05 0 -0.00010736 4.23225e-05 0 -0.000157139 6.47522e-05 0 -0.000201519 0.000118434 0 -0.000265222 0.000275187 0 -5.03604e-05 0.000537745 0 6.271e-05 -0.000180296 0 -0.00011861 -0.000297066 0 -0.000147513 -0.00015687 0 -0.000104082 -0.000112934 0 -8.32105e-05 -8.85332e-05 0 -5.83624e-05 -7.66698e-05 0 -4.44731e-05 -6.69474e-05 0 -2.96682e-05 -5.73634e-05 0 -1.87177e-05 -4.84048e-05 0 -8.22935e-06 -3.95914e-05 0 3.16483e-07 -3.18043e-05 0 7.8434e-06 -2.47422e-05 0 1.3899e-05 -1.86807e-05 0 1.87118e-05 -1.33487e-05 0 2.21468e-05 -8.71043e-06 0 2.42502e-05 -4.53906e-06 0 2.49701e-05 -7.06803e-07 0 2.42818e-05 2.97042e-06 0 2.21205e-05 6.62978e-06 0 1.83844e-05 1.04328e-05 0 1.29514e-05 1.4506e-05 0 5.59507e-06 1.90172e-05 0 -3.85544e-06 2.40769e-05 0 -1.58349e-05 2.99084e-05 0 -3.03632e-05 3.6671e-05 0 -4.81956e-05 4.49511e-05 0 -6.82996e-05 5.5868e-05 0 -9.22342e-05 7.21036e-05 0 -0.000114963 0.000100126 0 -0.000133527 0.000147165 0 -0.000109709 0.000226996 0 -1.39288e-05 0.000235295 0 -1.35545e-06 -0.000336678 0 -5.65213e-05 -0.000197646 0 -7.76271e-05 -0.000170862 0 -7.81834e-05 -0.000129929 0 -6.26003e-05 -0.000108687 0 -4.82387e-05 -9.34435e-05 0 -3.25011e-05 -8.12209e-05 0 -1.97436e-05 -6.98926e-05 0 -8.37226e-06 -5.88134e-05 0 8.83721e-07 -4.86955e-05 0 8.77969e-06 -3.93549e-05 0 1.52398e-05 -3.10994e-05 0 2.05044e-05 -2.37046e-05 0 2.4553e-05 -1.7157e-05 0 2.74375e-05 -1.12343e-05 0 2.91359e-05 -5.80136e-06 0 2.96354e-05 -6.54623e-07 0 2.88916e-05 4.37296e-06 0 2.68402e-05 9.47321e-06 0 2.33869e-05 1.48217e-05 0 1.83889e-05 2.06187e-05 0 1.16718e-05 2.70452e-05 0 2.96955e-06 3.43228e-05 0 -7.95004e-06 4.26033e-05 0 -2.14258e-05 5.20895e-05 0 -3.72132e-05 6.28578e-05 0 -5.49051e-05 7.54367e-05 0 -7.14669e-05 9.16165e-05 0 -8.41235e-05 0.00011388 0 -8.44971e-05 0.00014573 0 -6.4869e-05 0.000174855 0 -2.27554e-05 0.000213015 0 1.07671e-05 -0.000124443 0 -2.72537e-05 -0.000181992 0 -4.95761e-05 -0.000154102 0 -5.31032e-05 -0.000136794 0 -4.75903e-05 -0.000120473 0 -3.49334e-05 -0.000108086 0 -2.10424e-05 -9.53255e-05 0 -7.90392e-06 -8.16822e-05 0 2.41571e-06 -6.8679e-05 0 1.08078e-05 -5.66837e-05 0 1.75282e-05 -4.60121e-05 0 2.30004e-05 -3.64528e-05 0 2.73366e-05 -2.79564e-05 0 3.06526e-05 -2.02891e-05 0 3.29683e-05 -1.32963e-05 0 3.42942e-05 -6.76026e-06 0 3.46082e-05 -4.94284e-07 0 3.38733e-05 5.71174e-06 0 3.20297e-05 1.20604e-05 0 2.89871e-05 1.87754e-05 0 2.46258e-05 2.60845e-05 0 1.87569e-05 3.42488e-05 0 1.11613e-05 4.35167e-05 0 1.45167e-06 5.41449e-05 0 -1.06866e-05 6.6182e-05 0 -2.57229e-05 7.92044e-05 0 -4.16558e-05 9.18867e-05 0 -5.53917e-05 0.000104327 0 -6.24484e-05 0.000119182 0 -6.01089e-05 0.000135767 0 -4.51391e-05 0.000152909 0 -2.01433e-05 0.000147177 0 1.27718e-07 -0.000178714 0 -2.05046e-05 -0.000147132 0 -3.47991e-05 -0.000145778 0 -4.06852e-05 -0.000135979 0 -3.73395e-05 -0.000129143 0 -2.46243e-05 -0.000124042 0 -3.8425e-06 -0.000110364 0 8.84867e-06 -9.29278e-05 0 1.80281e-05 -7.72229e-05 0 2.47813e-05 -6.3497e-05 0 3.01734e-05 -5.14301e-05 0 3.44227e-05 -4.08118e-05 0 3.77858e-05 -3.13318e-05 0 4.03203e-05 -2.27727e-05 0 4.20738e-05 -1.48853e-05 0 4.30422e-05 -7.45814e-06 0 4.321e-05 -2.66961e-07 0 4.25435e-05 6.90485e-06 0 4.09917e-05 1.4289e-05 0 3.84893e-05 2.21312e-05 0 3.4924e-05 3.07081e-05 0 3.01751e-05 4.03297e-05 0 2.39536e-05 5.13555e-05 0 1.60249e-05 6.41685e-05 0 5.40146e-06 7.91063e-05 0 -8.93729e-06 9.60961e-05 0 -3.13395e-05 0.000109491 0 -4.57579e-05 0.000114275 0 -5.08495e-05 0.000120851 0 -4.79508e-05 0.000128828 0 -3.77944e-05 0.000133976 0 -2.23424e-05 0.000141266 0 -5.37927e-06 -0.000116919 0 -1.96114e-05 -0.000137466 0 -3.06173e-05 -0.000134863 0 -3.63517e-05 -0.000134689 0 -3.5847e-05 -0.000134408 0 -2.82188e-05 -0.000142262 0 -1.55099e-05 -0.000125453 0 -6.57515e-06 -0.000102053 0 -3.10132e-07 -8.38498e-05 0 4.31917e-06 -6.85744e-05 0 7.95245e-06 -5.54529e-05 0 1.08447e-05 -4.40031e-05 0 1.31334e-05 -3.38092e-05 0 1.48655e-05 -2.45737e-05 0 1.60526e-05 -1.60221e-05 0 1.66838e-05 -7.91549e-06 0 1.67382e-05 -2.11493e-08 0 1.6188e-05 7.88987e-06 0 1.49992e-05 1.60637e-05 0 1.31287e-05 2.47586e-05 0 1.05162e-05 3.42952e-05 0 7.0743e-06 4.50109e-05 0 2.64359e-06 5.74094e-05 0 -3.03123e-06 7.20127e-05 0 -1.05547e-05 8.97048e-05 0 -2.09135e-05 0.00011273 0 -3.51552e-05 0.000129335 0 -4.4466e-05 0.000121382 0 -4.69236e-05 0.000121451 0 -4.37169e-05 0.000122314 0 -3.5846e-05 0.000123825 0 -2.48672e-05 0.000119262 0 -1.11637e-05 -0.000126268 0 -2.24708e-05 -0.000122838 0 -3.19024e-05 -0.000127441 0 -3.82442e-05 -0.00013076 0 -4.12368e-05 -0.000135898 0 -4.06895e-05 -0.000148278 0 -3.79362e-05 -0.000132179 0 -3.50761e-05 -0.00010712 0 -3.27329e-05 -8.75984e-05 0 -3.08038e-05 -7.15228e-05 0 -2.91638e-05 -5.78361e-05 0 -2.77564e-05 -4.59446e-05 0 -2.65816e-05 -3.53376e-05 0 -2.56615e-05 -2.56946e-05 0 -2.50279e-05 -1.67156e-05 0 -2.47125e-05 -8.16031e-06 0 -2.47436e-05 2.08686e-07 0 -2.51436e-05 8.619e-06 0 -2.59284e-05 1.73173e-05 0 -2.71075e-05 2.65668e-05 0 -2.86863e-05 3.66947e-05 0 -3.06693e-05 4.80699e-05 0 -3.30748e-05 6.12409e-05 0 -3.59534e-05 7.68692e-05 0 -3.94244e-05 9.60323e-05 0 -4.35489e-05 0.000120879 0 -4.77226e-05 0.000136892 0 -4.98077e-05 0.000124564 0 -4.86322e-05 0.000119761 0 -4.42671e-05 0.000116785 0 -3.71849e-05 0.000114407 0 -2.83242e-05 0.000112892 0 -1.82031e-05 -0.000104698 0 -2.73048e-05 -0.000114655 0 -3.6017e-05 -0.000118937 0 -4.38021e-05 -0.000124986 0 -5.02213e-05 -0.000132308 0 -5.56043e-05 -0.000146893 0 -6.00122e-05 -0.000131878 0 -6.287e-05 -0.000107265 0 -6.46216e-05 -8.80143e-05 0 -6.55391e-05 -7.20915e-05 0 -6.59357e-05 -5.84905e-05 0 -6.60114e-05 -4.65981e-05 0 -6.59248e-05 -3.59247e-05 0 -6.57841e-05 -2.61503e-05 0 -6.56713e-05 -1.69916e-05 0 -6.56433e-05 -8.21684e-06 0 -6.57375e-05 3.97354e-07 0 -6.59715e-05 9.06669e-06 0 -6.63426e-05 1.80235e-05 0 -6.68264e-05 2.75156e-05 0 -6.73673e-05 3.78535e-05 0 -6.78793e-05 4.93857e-05 0 -6.82125e-05 6.26446e-05 0 -6.81732e-05 7.82724e-05 0 -6.74314e-05 9.73219e-05 0 -6.57205e-05 0.000121842 0 -6.25596e-05 0.000136908 0 -5.858e-05 0.000122549 0 -5.36338e-05 0.000115638 0 -4.75331e-05 0.00011049 0 -4.03761e-05 0.000106912 0 -3.25171e-05 0.000102234 0 -2.36767e-05 -0.000101561 0 -3.25258e-05 -0.000104922 0 -4.14864e-05 -0.000110493 0 -5.05604e-05 -0.000116701 0 -6.03937e-05 -0.000124136 0 -7.14771e-05 -0.000138741 0 -8.23076e-05 -0.000125118 0 -9.08102e-05 -0.000102696 0 -9.62449e-05 -8.51594e-05 0 -9.97466e-05 -7.03744e-05 0 -0.000101957 -5.74856e-05 0 -0.000103373 -4.6041e-05 0 -0.000104262 -3.56287e-05 0 -0.000104823 -2.59936e-05 0 -0.000105173 -1.68877e-05 0 -0.000105396 -8.11224e-06 0 -0.000105535 5.31554e-07 0 -0.000105605 9.23304e-06 0 -0.000105588 1.81976e-05 0 -0.000105426 2.76385e-05 0 -0.000105022 3.78226e-05 0 -0.000104191 4.90318e-05 0 -0.000102678 6.17038e-05 0 -9.99839e-05 7.63246e-05 0 -9.54684e-05 9.37724e-05 0 -8.79774e-05 0.000116216 0 -7.82639e-05 0.000129991 0 -6.83548e-05 0.000115702 0 -5.98035e-05 0.000108818 0 -5.19639e-05 0.000103345 0 -4.42924e-05 9.91568e-05 0 -3.66586e-05 9.55008e-05 0 -2.95796e-05 -9.05425e-05 0 -3.77163e-05 -9.65878e-05 0 -4.67009e-05 -0.000101186 0 -5.6764e-05 -0.000106498 0 -6.89029e-05 -0.000111978 0 -8.65012e-05 -0.000121296 0 -0.000109999 -0.000111077 0 -0.000122857 -9.41153e-05 0 -0.000131119 -7.96603e-05 0 -0.000136376 -6.67625e-05 0 -0.000140021 -5.50925e-05 0 -0.000142475 -4.44453e-05 0 -0.00014417 -3.4574e-05 0 -0.000145305 -2.53062e-05 0 -0.000146042 -1.64586e-05 0 -0.000146471 -7.87419e-06 0 -0.000146641 6.0762e-07 0 -0.000146565 9.14218e-06 0 -0.00014621 1.78958e-05 0 -0.000145509 2.70363e-05 0 -0.000144314 3.67631e-05 0 -0.000142436 4.72677e-05 0 -0.000139452 5.88208e-05 0 -0.000134941 7.16493e-05 0 -0.000127504 8.61098e-05 0 -0.000115552 0.000103172 0 -9.30135e-05 0.000113616 0 -7.64383e-05 0.000104675 0 -6.53173e-05 9.97429e-05 0 -5.63004e-05 9.52358e-05 0 -4.82094e-05 9.15209e-05 0 -4.07343e-05 8.76006e-05 0 -3.41038e-05 -8.42018e-05 0 -4.21277e-05 -8.78725e-05 0 -5.10245e-05 -9.18214e-05 0 -6.11404e-05 -9.53197e-05 0 -7.33004e-05 -9.83941e-05 0 -8.86857e-05 -9.89928e-05 0 -0.000105691 -9.36132e-05 0 -0.000118435 -8.3601e-05 0 -0.00012729 -7.26309e-05 0 -0.000133533 -6.18988e-05 0 -0.000137979 -5.17058e-05 0 -0.000141164 -4.20635e-05 0 -0.000143424 -3.29268e-05 0 -0.000144995 -2.41961e-05 0 -0.000146025 -1.57694e-05 0 -0.000146612 -7.53196e-06 0 -0.000146803 6.30248e-07 0 -0.000146607 8.83646e-06 0 -0.00014599 1.72052e-05 0 -0.000144872 2.58599e-05 0 -0.000143114 3.4915e-05 0 -0.00014049 4.44861e-05 0 -0.000136667 5.46357e-05 0 -0.00013111 6.53724e-05 0 -0.000123002 7.64137e-05 0 -0.000111054 8.6586e-05 0 -9.48897e-05 9.22336e-05 0 -8.03581e-05 9.20321e-05 0 -6.9065e-05 8.95107e-05 0 -5.97478e-05 8.67132e-05 0 -5.16052e-05 8.37172e-05 0 -4.42349e-05 8.06708e-05 0 -3.82234e-05 -7.61909e-05 0 -4.57115e-05 -7.97887e-05 0 -5.41145e-05 -8.2589e-05 0 -6.36142e-05 -8.47614e-05 0 -7.44015e-05 -8.57429e-05 0 -8.64736e-05 -8.47453e-05 0 -9.87831e-05 -8.04626e-05 0 -0.000109333 -7.35292e-05 0 -0.00011767 -6.52353e-05 0 -0.000124019 -5.64882e-05 0 -0.0001288 -4.77392e-05 0 -0.000132361 -3.9181e-05 0 -0.000134972 -3.08658e-05 0 -0.000136826 -2.27842e-05 0 -0.000138058 -1.48886e-05 0 -0.000138753 -7.11532e-06 0 -0.000138957 6.10472e-07 0 -0.000138674 8.36665e-06 0 -0.000137873 1.62315e-05 0 -0.000136479 2.42757e-05 0 -0.000134364 3.25568e-05 0 -0.000131343 4.10964e-05 0 -0.000127146 4.9857e-05 0 -0.000121429 5.86609e-05 0 -0.000113764 6.70736e-05 0 -0.000103921 7.42034e-05 0 -9.23365e-05 7.87768e-05 0 -8.09996e-05 8.01746e-05 0 -7.0919e-05 7.97129e-05 0 -6.20947e-05 7.82004e-05 0 -5.42579e-05 7.61527e-05 0 -4.71883e-05 7.36654e-05 0 -4.13153e-05 -6.96079e-05 0 -4.83887e-05 -7.20553e-05 0 -5.61806e-05 -7.40503e-05 0 -6.47386e-05 -7.52089e-05 0 -7.40652e-05 -7.52326e-05 0 -8.38815e-05 -7.35697e-05 0 -9.3505e-05 -7.00491e-05 0 -0.000102312 -6.47459e-05 0 -0.000109749 -5.82181e-05 0 -0.000115781 -5.10306e-05 0 -0.000120537 -4.35664e-05 0 -0.000124213 -3.60421e-05 0 -0.000126981 -2.85678e-05 0 -0.000128987 -2.11822e-05 0 -0.000130335 -1.38848e-05 0 -0.000131095 -6.65004e-06 0 -0.000131304 5.59791e-07 0 -0.000130968 7.78789e-06 0 -0.000130056 1.50748e-05 0 -0.000128508 2.24516e-05 0 -0.000126224 2.99266e-05 0 -0.000123064 3.74709e-05 0 -0.000118857 4.49857e-05 0 -0.000113404 5.22668e-05 0 -0.000106575 5.89435e-05 0 -9.83922e-05 6.44642e-05 0 -8.94035e-05 6.82823e-05 0 -8.02114e-05 7.03331e-05 0 -7.14877e-05 7.07969e-05 0 -6.34729e-05 7.02225e-05 0 -5.61616e-05 6.89274e-05 0 -4.94795e-05 6.71501e-05 0 -4.38521e-05 -6.2988e-05 0 -5.03545e-05 -6.49684e-05 0 -5.7441e-05 -6.62741e-05 0 -6.50754e-05 -6.68073e-05 0 -7.31383e-05 -6.63153e-05 0 -8.14025e-05 -6.46094e-05 0 -8.95139e-05 -6.15116e-05 0 -9.69771e-05 -5.71603e-05 0 -0.000103547 -5.1825e-05 0 -0.000109088 -4.58251e-05 0 -0.000113624 -3.94335e-05 0 -0.000117234 -3.28435e-05 0 -0.000120018 -2.61736e-05 0 -0.00012207 -1.94886e-05 0 -0.000123464 -1.28158e-05 0 -0.000124252 -6.15925e-06 0 -0.000124463 4.90706e-07 0 -0.0001241 7.14834e-06 0 -0.00012314 1.38254e-05 0 -0.000121538 2.05222e-05 0 -0.000119223 2.72178e-05 0 -0.000116104 3.38547e-05 0 -0.00011208 4.03237e-05 0 -0.000107071 4.64408e-05 0 -0.00010105 5.19431e-05 0 -9.4144e-05 5.65203e-05 0 -8.65869e-05 5.99121e-05 0 -7.88642e-05 6.19866e-05 0 -7.13089e-05 6.29255e-05 0 -6.41381e-05 6.29207e-05 0 -5.74385e-05 6.22091e-05 0 -5.12258e-05 6.09413e-05 0 -4.57281e-05 -5.70675e-05 0 -5.17307e-05 -5.84483e-05 0 -5.81592e-05 -5.92857e-05 0 -6.49504e-05 -5.94077e-05 0 -7.19936e-05 -5.86817e-05 0 -7.90941e-05 -5.697e-05 0 -8.59868e-05 -5.4253e-05 0 -9.24497e-05 -5.05726e-05 0 -9.82493e-05 -4.60868e-05 0 -0.000103279 -4.09952e-05 0 -0.000107501 -3.54874e-05 0 -0.000110942 -2.97152e-05 0 -0.000113646 -2.37886e-05 0 -0.000115669 -1.77788e-05 0 -0.000117057 -1.17287e-05 0 -0.000117846 -5.6609e-06 0 -0.000118055 4.13399e-07 0 -0.000117686 6.48765e-06 0 -0.000116725 1.25525e-05 0 -0.00011514 1.85886e-05 0 -0.000112886 2.4558e-05 0 -0.000109911 3.03952e-05 0 -0.000106167 3.59974e-05 0 -0.000101627 4.12201e-05 0 -9.6325e-05 4.5881e-05 0 -9.03597e-05 4.97875e-05 0 -8.39571e-05 5.27877e-05 0 -7.73263e-05 5.48438e-05 0 -7.07225e-05 5.5978e-05 0 -6.43213e-05 5.63252e-05 0 -5.82257e-05 5.60182e-05 0 -5.24852e-05 5.51896e-05 0 -4.71811e-05 -5.14905e-05 0 -5.26769e-05 -5.25134e-05 0 -5.84961e-05 -5.29995e-05 0 -6.45659e-05 -5.28689e-05 0 -7.07742e-05 -5.20233e-05 0 -7.6976e-05 -5.0403e-05 0 -8.3003e-05 -4.79766e-05 0 -8.86582e-05 -4.47944e-05 0 -9.38076e-05 -4.09516e-05 0 -9.83478e-05 -3.65754e-05 0 -0.000102232 -3.17976e-05 0 -0.000105452 -2.67353e-05 0 -0.000108021 -2.14817e-05 0 -0.000109965 -1.61061e-05 0 -0.000111312 -1.06571e-05 0 -0.000112082 -5.16841e-06 0 -0.000112287 3.35743e-07 0 -0.000111929 5.83463e-06 0 -0.000110998 1.13054e-05 0 -0.000109476 1.67169e-05 0 -0.000107337 2.20243e-05 0 -0.000104558 2.71629e-05 0 -0.00010112 3.20447e-05 0 -9.70312e-05 3.65582e-05 0 -9.23345e-05 4.05772e-05 0 -8.71272e-05 4.39795e-05 0 -8.15353e-05 4.66737e-05 0 -7.57474e-05 4.86125e-05 0 -6.99202e-05 4.98275e-05 0 -6.41897e-05 5.03771e-05 0 -5.86529e-05 5.03524e-05 0 -5.33719e-05 4.98393e-05 0 -4.82413e-05 -4.63903e-05 0 -5.32946e-05 -4.70918e-05 0 -5.85814e-05 -4.73361e-05 0 -6.4033e-05 -4.70447e-05 0 -6.95584e-05 -4.61581e-05 0 -7.50407e-05 -4.46327e-05 0 -8.03464e-05 -4.24656e-05 0 -8.5356e-05 -3.96831e-05 0 -8.99506e-05 -3.63503e-05 0 -9.40498e-05 -3.25541e-05 0 -9.76014e-05 -2.83884e-05 0 -0.000100583 -2.39424e-05 0 -0.000102989 -1.92934e-05 0 -0.000104829 -1.45041e-05 0 -0.000106112 -9.62369e-06 0 -0.00010685 -4.69077e-06 0 -0.000107049 2.62959e-07 0 -0.000106711 5.20844e-06 0 -0.00010583 1.0115e-05 0 -0.000104397 1.49461e-05 0 -0.000102401 1.96552e-05 0 -9.98343e-05 2.41833e-05 0 -9.67001e-05 2.84571e-05 0 -9.30186e-05 3.23915e-05 0 -8.88381e-05 3.58964e-05 0 -8.42338e-05 3.88887e-05 0 -7.93183e-05 4.13058e-05 0 -7.42031e-05 4.31227e-05 0 -6.90143e-05 4.43423e-05 0 -6.38585e-05 4.50057e-05 0 -5.88202e-05 4.51687e-05 0 -5.39605e-05 4.48972e-05 0 -4.90282e-05 -4.16556e-05 0 -5.36756e-05 -4.21366e-05 0 -5.84951e-05 -4.22078e-05 0 -6.34238e-05 -4.18209e-05 0 -6.83818e-05 -4.09327e-05 0 -7.32775e-05 -3.95193e-05 0 -7.80129e-05 -3.75756e-05 0 -8.24851e-05 -3.51255e-05 0 -8.66102e-05 -3.22137e-05 0 -9.03175e-05 -2.89013e-05 0 -9.35587e-05 -2.52572e-05 0 -9.63042e-05 -2.13501e-05 0 -9.85399e-05 -1.72431e-05 0 -0.000100261 -1.29914e-05 0 -0.000101471 -8.64164e-06 0 -0.00010217 -4.23348e-06 0 -0.000102363 1.98149e-07 0 -0.00010205 4.62018e-06 0 -0.000101228 8.99846e-06 0 -9.98953e-05 1.32949e-05 0 -9.80503e-05 1.74648e-05 0 -9.56963e-05 2.1456e-05 0 -9.28459e-05 2.5208e-05 0 -8.95261e-05 2.86552e-05 0 -8.57817e-05 3.17316e-05 0 -8.16787e-05 3.43785e-05 0 -7.72957e-05 3.65528e-05 0 -7.27296e-05 3.82312e-05 0 -6.80711e-05 3.9418e-05 0 -6.34057e-05 4.01348e-05 0 -5.88055e-05 4.04207e-05 0 -5.43275e-05 4.03209e-05 0 -4.95871e-05 -3.72807e-05 0 -5.38816e-05 -3.7587e-05 0 -5.82984e-05 -3.75401e-05 0 -6.27821e-05 -3.71004e-05 0 -6.72667e-05 -3.62384e-05 0 -7.16771e-05 -3.49369e-05 0 -7.59333e-05 -3.31961e-05 0 -7.99597e-05 -3.10325e-05 0 -8.36841e-05 -2.84789e-05 0 -8.70485e-05 -2.55802e-05 0 -9.00078e-05 -2.23881e-05 0 -9.25311e-05 -1.89561e-05 0 -9.45989e-05 -1.53361e-05 0 -9.62008e-05 -1.15756e-05 0 -9.73318e-05 -7.71718e-06 0 -9.79904e-05 -3.79932e-06 0 -9.81762e-05 1.42742e-07 0 -9.78894e-05 4.07498e-06 0 -9.71303e-05 7.96271e-06 0 -9.59004e-05 1.17687e-05 0 -9.42041e-05 1.54519e-05 0 -9.20507e-05 1.89667e-05 0 -8.94581e-05 2.22635e-05 0 -8.64545e-05 2.52909e-05 0 -8.30818e-05 2.79991e-05 0 -7.93942e-05 3.03449e-05 0 -7.54591e-05 3.22962e-05 0 -7.1347e-05 3.38368e-05 0 -6.71326e-05 3.49653e-05 0 -6.28853e-05 3.56968e-05 0 -5.86663e-05 3.60573e-05 0 -5.45267e-05 3.60808e-05 0 -4.99809e-05 -3.32113e-05 0 -5.39635e-05 -3.33926e-05 0 -5.80322e-05 -3.32664e-05 0 -6.21382e-05 -3.28047e-05 0 -6.62248e-05 -3.19856e-05 0 -7.02301e-05 -3.0798e-05 0 -7.409e-05 -2.92421e-05 0 -7.77404e-05 -2.73314e-05 0 -8.11237e-05 -2.50904e-05 0 -8.41896e-05 -2.25528e-05 0 -8.68978e-05 -1.97584e-05 0 -8.92177e-05 -1.67496e-05 0 -9.11279e-05 -1.35688e-05 0 -9.26144e-05 -1.02568e-05 0 -9.36687e-05 -6.85168e-06 0 -9.42863e-05 -3.38914e-06 0 -9.44649e-05 9.70397e-08 0 -9.42046e-05 3.57387e-06 0 -9.35069e-05 7.00799e-06 0 -9.23759e-05 1.03646e-05 0 -9.08191e-05 1.36067e-05 0 -8.88493e-05 1.66951e-05 0 -8.64861e-05 1.95887e-05 0 -8.37575e-05 2.22468e-05 0 -8.0701e-05 2.46309e-05 0 -7.73635e-05 2.67082e-05 0 -7.37984e-05 2.84545e-05 0 -7.00659e-05 2.98562e-05 0 -6.62254e-05 3.0912e-05 0 -6.23347e-05 3.16308e-05 0 -5.84459e-05 3.20315e-05 0 -5.46046e-05 3.21387e-05 0 -5.0245e-05 -2.94164e-05 0 -5.39577e-05 -2.95053e-05 0 -5.77279e-05 -2.93299e-05 0 -6.15127e-05 -2.88679e-05 0 -6.52638e-05 -2.81036e-05 0 -6.89292e-05 -2.70289e-05 0 -7.24548e-05 -2.5645e-05 0 -7.57885e-05 -2.39622e-05 0 -7.8881e-05 -2.19994e-05 0 -8.16891e-05 -1.97827e-05 0 -8.41763e-05 -1.73431e-05 0 -8.63139e-05 -1.47146e-05 0 -8.80802e-05 -1.19323e-05 0 -8.94595e-05 -9.03064e-06 0 -9.04416e-05 -6.04329e-06 0 -9.102e-05 -3.00246e-06 0 -9.11917e-05 6.06217e-08 0 -9.09563e-05 3.11521e-06 0 -9.03161e-05 6.1304e-06 0 -8.92766e-05 9.07456e-06 0 -8.78471e-05 1.1915e-05 0 -8.60415e-05 1.46181e-05 0 -8.38799e-05 1.715e-05 0 -8.13886e-05 1.94777e-05 0 -7.86015e-05 2.15709e-05 0 -7.55586e-05 2.34043e-05 0 -7.23061e-05 2.49588e-05 0 -6.88923e-05 2.62238e-05 0 -6.53677e-05 2.7197e-05 0 -6.17808e-05 2.78843e-05 0 -5.81768e-05 2.82993e-05 0 -5.45958e-05 2.84606e-05 0 -5.04147e-05 -2.58587e-05 0 -5.38934e-05 -2.58832e-05 0 -5.74079e-05 -2.56808e-05 0 -6.09202e-05 -2.52348e-05 0 -6.43884e-05 -2.45334e-05 0 -6.77678e-05 -2.35708e-05 0 -7.10131e-05 -2.23483e-05 0 -7.40794e-05 -2.08741e-05 0 -7.69246e-05 -1.91632e-05 0 -7.95111e-05 -1.72359e-05 0 -8.18062e-05 -1.51169e-05 0 -8.37832e-05 -1.28335e-05 0 -8.54208e-05 -1.04148e-05 0 -8.67032e-05 -7.89e-06 0 -8.76191e-05 -5.28819e-06 0 -8.81615e-05 -2.63794e-06 0 -8.83265e-05 3.26667e-08 0 -8.81137e-05 2.69581e-06 0 -8.75258e-05 5.32365e-06 0 -8.65688e-05 7.88806e-06 0 -8.52526e-05 1.03606e-05 0 -8.35916e-05 1.27125e-05 0 -8.16049e-05 1.49158e-05 0 -7.93174e-05 1.69437e-05 0 -7.67592e-05 1.8772e-05 0 -7.39653e-05 2.03806e-05 0 -7.09747e-05 2.17544e-05 0 -6.78293e-05 2.28846e-05 0 -6.45717e-05 2.37689e-05 0 -6.12433e-05 2.44112e-05 0 -5.78836e-05 2.48213e-05 0 -5.45284e-05 2.50133e-05 0 -5.0514e-05 -2.25073e-05 0 -5.37924e-05 -2.24881e-05 0 -5.70894e-05 -2.22761e-05 0 -6.03713e-05 -2.18582e-05 0 -6.36014e-05 -2.12255e-05 0 -6.6741e-05 -2.03738e-05 0 -6.97506e-05 -1.93043e-05 0 -7.25917e-05 -1.80238e-05 0 -7.52277e-05 -1.65441e-05 0 -7.76252e-05 -1.48813e-05 0 -7.97551e-05 -1.30551e-05 0 -8.15924e-05 -1.10879e-05 0 -8.31172e-05 -9.00339e-06 0 -8.43137e-05 -6.82627e-06 0 -8.51707e-05 -4.58144e-06 0 -8.56806e-05 -2.29373e-06 0 -8.58395e-05 1.21629e-08 0 -8.56467e-05 2.31168e-06 0 -8.5105e-05 4.58028e-06 0 -8.42207e-05 6.79344e-06 0 -8.30036e-05 8.92668e-06 0 -8.14678e-05 1.09558e-05 0 -7.96316e-05 1.28576e-05 0 -7.75176e-05 1.46101e-05 0 -7.51529e-05 1.61938e-05 0 -7.25685e-05 1.75927e-05 0 -6.97984e-05 1.87946e-05 0 -6.68785e-05 1.97924e-05 0 -6.38458e-05 2.05836e-05 0 -6.07365e-05 2.11711e-05 0 -5.75853e-05 2.15618e-05 0 -5.44242e-05 2.17666e-05 0 -5.05641e-05 -1.93324e-05 0 -5.36721e-05 -1.92864e-05 0 -5.67855e-05 -1.90781e-05 0 -5.9874e-05 -1.86974e-05 0 -6.29049e-05 -1.81374e-05 0 -6.58441e-05 -1.73953e-05 0 -6.8657e-05 -1.64723e-05 0 -7.13097e-05 -1.53736e-05 0 -7.377e-05 -1.41087e-05 0 -7.6008e-05 -1.26905e-05 0 -7.79973e-05 -1.11348e-05 0 -7.97151e-05 -9.45963e-06 0 -8.11425e-05 -7.68462e-06 0 -8.22645e-05 -5.83025e-06 0 -8.307e-05 -3.91753e-06 0 -8.35514e-05 -1.96768e-06 0 -8.37047e-05 -1.95438e-09 0 -8.35292e-05 1.95844e-06 0 -8.30276e-05 3.89236e-06 0 -8.22061e-05 5.7788e-06 0 -8.10742e-05 7.59702e-06 0 -7.96455e-05 9.32684e-06 0 -7.79368e-05 1.0949e-05 0 -7.59692e-05 1.24457e-05 0 -7.37671e-05 1.38011e-05 0 -7.1358e-05 1.50024e-05 0 -6.87719e-05 1.60399e-05 0 -6.60405e-05 1.69074e-05 0 -6.31963e-05 1.7603e-05 0 -6.02713e-05 1.81283e-05 0 -5.72963e-05 1.84886e-05 0 -5.43005e-05 1.86921e-05 0 -5.05805e-05 -1.6307e-05 0 -5.35457e-05 -1.62473e-05 0 -5.65062e-05 -1.60529e-05 0 -5.94341e-05 -1.57163e-05 0 -6.23001e-05 -1.52323e-05 0 -6.50736e-05 -1.45986e-05 0 -6.77239e-05 -1.38165e-05 0 -7.02206e-05 -1.28901e-05 0 -7.2535e-05 -1.1827e-05 0 -7.464e-05 -1.06375e-05 0 -7.65117e-05 -9.3341e-06 0 -7.81289e-05 -7.93141e-06 0 -7.94739e-05 -6.4453e-06 0 -8.05325e-05 -4.89261e-06 0 -8.1294e-05 -3.29076e-06 0 -8.17509e-05 -1.65751e-06 0 -8.18992e-05 -1.07241e-08 0 -8.17383e-05 1.6317e-06 0 -8.12707e-05 3.25196e-06 0 -8.05024e-05 4.83245e-06 0 -7.94424e-05 6.35593e-06 0 -7.81035e-05 7.80576e-06 0 -7.65016e-05 9.16621e-06 0 -7.46559e-05 1.04229e-05 0 -7.25886e-05 1.15632e-05 0 -7.03246e-05 1.25767e-05 0 -6.78908e-05 1.34556e-05 0 -6.53154e-05 1.41951e-05 0 -6.26274e-05 1.47932e-05 0 -5.98556e-05 1.5251e-05 0 -5.70278e-05 1.55724e-05 0 -5.41707e-05 1.57637e-05 0 -5.05759e-05 -1.34064e-05 0 -5.34238e-05 -1.33429e-05 0 -5.6259e-05 -1.31705e-05 0 -5.90559e-05 -1.28833e-05 0 -6.17876e-05 -1.24773e-05 0 -6.44265e-05 -1.1951e-05 0 -6.69446e-05 -1.13054e-05 0 -6.93144e-05 -1.05438e-05 0 -7.15097e-05 -9.67222e-06 0 -7.3506e-05 -8.69863e-06 0 -7.52811e-05 -7.63299e-06 0 -7.68154e-05 -6.48677e-06 0 -7.80923e-05 -5.27266e-06 0 -7.90983e-05 -4.00417e-06 0 -7.9823e-05 -2.69543e-06 0 -8.02594e-05 -1.36087e-06 0 -8.04036e-05 -1.51186e-08 0 -8.02547e-05 1.32716e-06 0 -7.98152e-05 2.65139e-06 0 -7.90908e-05 3.94322e-06 0 -7.80901e-05 5.18865e-06 0 -7.68251e-05 6.37427e-06 0 -7.53106e-05 7.4875e-06 0 -7.35645e-05 8.51691e-06 0 -7.16072e-05 9.4525e-06 0 -6.94613e-05 1.02861e-05 0 -6.71513e-05 1.10114e-05 0 -6.47028e-05 1.16246e-05 0 -6.21421e-05 1.21241e-05 0 -5.94955e-05 1.25105e-05 0 -5.67884e-05 1.27866e-05 0 -5.40455e-05 1.29573e-05 0 -5.05602e-05 -1.0607e-05 0 -5.33144e-05 -1.05477e-05 0 -5.60498e-05 -1.04033e-05 0 -5.87427e-05 -1.01693e-05 0 -6.1368e-05 -9.84298e-06 0 -6.39003e-05 -9.42313e-06 0 -6.63136e-05 -8.91056e-06 0 -6.85829e-05 -8.30794e-06 0 -7.06838e-05 -7.61974e-06 0 -7.25936e-05 -6.85211e-06 0 -7.42917e-05 -6.01265e-06 0 -7.57598e-05 -5.11018e-06 0 -7.69821e-05 -4.15448e-06 0 -7.79458e-05 -3.15606e-06 0 -7.8641e-05 -2.12593e-06 0 -7.90608e-05 -1.07542e-06 0 -7.92014e-05 -1.60281e-08 0 -7.90622e-05 1.0407e-06 0 -7.86452e-05 2.08329e-06 0 -7.7956e-05 3.10048e-06 0 -7.70027e-05 4.08131e-06 0 -7.57966e-05 5.01536e-06 0 -7.43518e-05 5.89287e-06 0 -7.26848e-05 6.70504e-06 0 -7.08147e-05 7.44418e-06 0 -6.87623e-05 8.10399e-06 0 -6.65504e-05 8.67971e-06 0 -6.42024e-05 9.16829e-06 0 -6.17428e-05 9.56841e-06 0 -5.91956e-05 9.88048e-06 0 -5.65847e-05 1.01066e-05 0 -5.3933e-05 1.02501e-05 0 -5.05408e-05 -7.88711e-06 0 -5.32235e-05 -7.83786e-06 0 -5.58831e-05 -7.72589e-06 0 -5.84969e-05 -7.54811e-06 0 -6.10416e-05 -7.30248e-06 0 -6.3493e-05 -6.98829e-06 0 -6.5827e-05 -6.60612e-06 0 -6.802e-05 -6.15793e-06 0 -7.00493e-05 -5.64694e-06 0 -7.18934e-05 -5.07762e-06 0 -7.35329e-05 -4.45548e-06 0 -7.49504e-05 -3.78693e-06 0 -7.6131e-05 -3.07911e-06 0 -7.70623e-05 -2.33971e-06 0 -7.77348e-05 -1.57684e-06 0 -7.81418e-05 -7.98859e-07 0 -7.82798e-05 -1.42612e-08 0 -7.81478e-05 7.68406e-07 0 -7.7748e-05 1.54066e-06 0 -7.70856e-05 2.29417e-06 0 -7.61685e-05 3.02088e-06 0 -7.50073e-05 3.71313e-06 0 -7.36155e-05 4.36379e-06 0 -7.20086e-05 4.96642e-06 0 -7.02046e-05 5.51545e-06 0 -6.82232e-05 6.00628e-06 0 -6.60856e-05 6.43545e-06 0 -6.38138e-05 6.80072e-06 0 -6.14308e-05 7.10107e-06 0 -5.89592e-05 7.33675e-06 0 -5.64216e-05 7.50916e-06 0 -5.38395e-05 7.62074e-06 0 -5.05232e-05 -5.22588e-06 0 -5.31556e-05 -5.19083e-06 0 -5.57618e-05 -5.1145e-06 0 -5.83202e-05 -4.99491e-06 0 -6.08083e-05 -4.83078e-06 0 -6.32031e-05 -4.62165e-06 0 -6.54816e-05 -4.36794e-06 0 -6.76212e-05 -4.0709e-06 0 -6.96002e-05 -3.73266e-06 0 -7.13982e-05 -3.35611e-06 0 -7.29965e-05 -2.94485e-06 0 -7.43785e-05 -2.50304e-06 0 -7.55296e-05 -2.03537e-06 0 -7.6438e-05 -1.54688e-06 0 -7.70945e-05 -1.0429e-06 0 -7.74925e-05 -5.28917e-07 0 -7.76285e-05 -1.05545e-08 0 -7.75016e-05 5.06555e-07 0 -7.7114e-05 1.01681e-06 0 -7.64705e-05 1.51473e-06 0 -7.55788e-05 1.99501e-06 0 -7.44492e-05 2.45261e-06 0 -7.30945e-05 2.88287e-06 0 -7.15298e-05 3.28158e-06 0 -6.97721e-05 3.6451e-06 0 -6.78405e-05 3.97043e-06 0 -6.57549e-05 4.25531e-06 0 -6.35366e-05 4.49826e-06 0 -6.12073e-05 4.6986e-06 0 -5.87888e-05 4.85646e-06 0 -5.63026e-05 4.97272e-06 0 -5.37697e-05 5.04892e-06 0 -5.05112e-05 -2.60334e-06 0 -5.31137e-05 -2.58516e-06 0 -5.56882e-05 -2.5465e-06 0 -5.82138e-05 -2.48639e-06 0 -6.06683e-05 -2.40421e-06 0 -6.30296e-05 -2.29975e-06 0 -6.52751e-05 -2.17321e-06 0 -6.73831e-05 -2.02521e-06 0 -6.93323e-05 -1.85681e-06 0 -7.1103e-05 -1.66943e-06 0 -7.26769e-05 -1.46483e-06 0 -7.40377e-05 -1.24509e-06 0 -7.51714e-05 -1.0125e-06 0 -7.60662e-05 -7.69582e-07 0 -7.67131e-05 -5.18959e-07 0 -7.71058e-05 -2.63365e-07 0 -7.72406e-05 -5.58741e-09 0 -7.71167e-05 2.51574e-07 0 -7.67363e-05 5.05336e-07 0 -7.6104e-05 7.52977e-07 0 -7.52274e-05 9.91864e-07 0 -7.41165e-05 1.21951e-06 0 -7.27839e-05 1.43359e-06 0 -7.12441e-05 1.63205e-06 0 -6.9514e-05 1.81306e-06 0 -6.76117e-05 1.97517e-06 0 -6.5557e-05 2.11724e-06 0 -6.33704e-05 2.23855e-06 0 -6.10729e-05 2.33874e-06 0 -5.86859e-05 2.41789e-06 0 -5.62303e-05 2.4764e-06 0 -5.37265e-05 2.51504e-06 0 -5.05069e-05 -0 0 -5.30995e-05 -3.53084e-19 0 -5.56636e-05 2.95503e-19 0 -5.81782e-05 2.24829e-19 0 -6.06217e-05 -0 0 -6.29718e-05 -0 0 -6.52065e-05 -0 0 -6.7304e-05 -0 0 -6.92433e-05 -0 0 -7.1005e-05 -0 0 -7.25708e-05 -3.57715e-20 0 -7.39246e-05 -5.10508e-19 0 -7.50524e-05 -8.02786e-20 0 -7.59427e-05 5.34926e-19 0 -7.65865e-05 1.091e-19 0 -7.69773e-05 -0 0 -7.71117e-05 -0 0 -7.69889e-05 -0 0 -7.66108e-05 1.22352e-19 0 -7.59823e-05 5.30711e-19 0 -7.51107e-05 4.47984e-20 0 -7.4006e-05 -0 0 -7.26807e-05 -0 0 -7.11492e-05 -0 0 -6.94282e-05 -1.97121e-19 0 -6.75357e-05 -4.19782e-19 0 -6.54912e-05 -8.07046e-21 0 -6.3315e-05 -0 0 -6.10281e-05 -0 0 -5.86515e-05 -0 0 -5.62061e-05 -0 0 -5.3712e-05 -0 0 </DataArray> 
</PointData> 
<Points> 
<DataArray type="Float32" NumberOfComponents="3"> 