<?xml version="1.0"?> 
<VTKFile type="StructuredGrid" version="0.1"> 
<StructuredGrid WholeExtent="0 31 0 31 0 0"> 
<Piece Extent="0 31 0 31 0 0"> 
<PointData>
<DataArray type="Float32" Name="B" format="ascii" NumberOfComponents="3"> 
0 -0 0 4.7812e-07 -0 0 9.5953e-07 -0 0 1.44753e-06 -0 0 1.94542e-06 -0 0 2.45652e-06 -0 0 2.98418e-06 -0 0 3.53174e-06 -0 0 4.10257e-06 -0 0 4.70003e-06 -0 0 5.32745e-06 -0 0 5.98815e-06 -0 0 6.68534e-06 -0 0 7.42215e-06 -0 0 8.20155e-06 -0 0 9.02628e-06 -0 0 9.89883e-06 -0 0 1.08213e-05 -0 0 1.17954e-05 -0 0 1.28223e-05 -0 0 1.39026e-05 -0 0 1.50361e-05 -0 0 1.62218e-05 -0 0 1.7458e-05 -0 0 1.8742e-05 -0 0 2.00698e-05 -0 0 2.14369e-05 -0 0 2.28373e-05 -0 0 2.42642e-05 -0 0 2.57098e-05 -0 0 2.71656e-05 -0 0 2.86219e-05 -0 0 1.20036e-21 -4.77024e-07 0 4.76475e-07 -4.78668e-07 0 9.56238e-07 -4.83603e-07 0 1.44258e-06 -4.91838e-07 0 1.93881e-06 -5.03387e-07 0 2.44825e-06 -5.18266e-07 0 2.97423e-06 -5.36492e-07 0 3.52011e-06 -5.58076e-07 0 4.08926e-06 -5.83025e-07 0 4.68504e-06 -6.11331e-07 0 5.31081e-06 -6.42967e-07 0 5.96989e-06 -6.7788e-07 0 6.66552e-06 -7.15983e-07 0 7.40084e-06 -7.57147e-07 0 8.17886e-06 -8.01189e-07 0 9.00235e-06 -8.47869e-07 0 9.87383e-06 -8.96874e-07 0 1.07955e-05 -9.47814e-07 0 1.1769e-05 -1.00021e-06 0 1.27956e-05 -1.05351e-06 0 1.38759e-05 -1.10704e-06 0 1.50099e-05 -1.16006e-06 0 1.61965e-05 -1.21173e-06 0 1.74341e-05 -1.26114e-06 0 1.87199e-05 -1.3073e-06 0 2.00502e-05 -1.34921e-06 0 2.14201e-05 -1.38582e-06 0 2.28239e-05 -1.4161e-06 0 2.42548e-05 -1.43904e-06 0 2.57048e-05 -1.45371e-06 0 2.71652e-05 -1.45928e-06 0 2.86266e-05 -1.45503e-06 0 1.97066e-21 -9.5076e-07 0 4.71544e-07 -9.54045e-07 0 9.46367e-07 -9.63907e-07 0 1.42775e-06 -9.80364e-07 0 1.919e-06 -1.00345e-06 0 2.42343e-06 -1.03319e-06 0 2.94438e-06 -1.06962e-06 0 3.48521e-06 -1.11279e-06 0 4.04931e-06 -1.16269e-06 0 4.64006e-06 -1.21933e-06 0 5.26086e-06 -1.28265e-06 0 5.91506e-06 -1.35256e-06 0 6.60597e-06 -1.4289e-06 0 7.33681e-06 -1.5114e-06 0 8.11064e-06 -1.59973e-06 0 8.93037e-06 -1.6934e-06 0 9.7986e-06 -1.7918e-06 0 1.07176e-05 -1.89415e-06 0 1.16893e-05 -1.99952e-06 0 1.27151e-05 -2.10677e-06 0 1.37955e-05 -2.21458e-06 0 1.49308e-05 -2.32145e-06 0 1.61201e-05 -2.42571e-06 0 1.73618e-05 -2.5255e-06 0 1.86532e-05 -2.61886e-06 0 1.99906e-05 -2.70373e-06 0 2.13693e-05 -2.77799e-06 0 2.27834e-05 -2.83954e-06 0 2.4226e-05 -2.88636e-06 0 2.56891e-05 -2.91655e-06 0 2.71638e-05 -2.9284e-06 0 2.86404e-05 -2.92048e-06 0 0 -1.41793e-06 0 4.63337e-07 -1.42285e-06 0 9.29935e-07 -1.43762e-06 0 1.40306e-06 -1.46227e-06 0 1.88601e-06 -1.49684e-06 0 2.38209e-06 -1.54141e-06 0 2.89465e-06 -1.59603e-06 0 3.42705e-06 -1.66075e-06 0 3.9827e-06 -1.73562e-06 0 4.56504e-06 -1.82063e-06 0 5.1775e-06 -1.91574e-06 0 5.82351e-06 -2.02081e-06 0 6.50648e-06 -2.13562e-06 0 7.22974e-06 -2.25982e-06 0 7.9965e-06 -2.3929e-06 0 8.80982e-06 -2.53417e-06 0 9.67251e-06 -2.68274e-06 0 1.05871e-05 -2.83745e-06 0 1.15556e-05 -2.99691e-06 0 1.25796e-05 -3.15942e-06 0 1.36602e-05 -3.32302e-06 0 1.47976e-05 -3.48544e-06 0 1.59912e-05 -3.64413e-06 0 1.72396e-05 -3.79629e-06 0 1.85403e-05 -3.93891e-06 0 1.98896e-05 -4.06885e-06 0 2.12829e-05 -4.18287e-06 0 2.27143e-05 -4.27775e-06 0 2.41766e-05 -4.35035e-06 0 2.56617e-05 -4.39777e-06 0 2.71604e-05 -4.41736e-06 0 2.86627e-05 -4.40691e-06 0 7.39482e-23 -1.87526e-06 0 4.5187e-07 -1.8818e-06 0 9.06975e-07 -1.90145e-06 0 1.36856e-06 -1.93424e-06 0 1.8399e-06 -1.98025e-06 0 2.32429e-06 -2.03958e-06 0 2.82507e-06 -2.11232e-06 0 3.34564e-06 -2.19856e-06 0 3.88942e-06 -2.29839e-06 0 4.45989e-06 -2.41183e-06 0 5.06057e-06 -2.53884e-06 0 5.69499e-06 -2.67929e-06 0 6.36668e-06 -2.83293e-06 0 7.07913e-06 -2.99933e-06 0 7.83577e-06 -3.17785e-06 0 8.63986e-06 -3.36762e-06 0 9.49449e-06 -3.56748e-06 0 1.04024e-05 -3.77595e-06 0 1.13661e-05 -3.99119e-06 0 1.23875e-05 -4.21095e-06 0 1.34679e-05 -4.43261e-06 0 1.46079e-05 -4.65312e-06 0 1.58074e-05 -4.86904e-06 0 1.7065e-05 -5.07658e-06 0 1.83785e-05 -5.27164e-06 0 1.97445e-05 -5.4499e-06 0 2.11583e-05 -5.60692e-06 0 2.26139e-05 -5.73825e-06 0 2.41041e-05 -5.83959e-06 0 2.56205e-05 -5.90687e-06 0 2.71534e-05 -5.93645e-06 0 2.86922e-05 -5.92526e-06 0 6.98005e-21 -2.31951e-06 0 4.3717e-07 -2.32766e-06 0 8.77537e-07 -2.35214e-06 0 1.32431e-06 -2.393e-06 0 1.78074e-06 -2.45036e-06 0 2.2501e-06 -2.52434e-06 0 2.73572e-06 -2.6151e-06 0 3.24102e-06 -2.72279e-06 0 3.76944e-06 -2.84754e-06 0 4.32454e-06 -2.98943e-06 0 4.9099e-06 -3.14848e-06 0 5.52919e-06 -3.32457e-06 0 6.1861e-06 -3.51745e-06 0 6.88433e-06 -3.72667e-06 0 7.62754e-06 -3.95149e-06 0 8.41931e-06 -4.19092e-06 0 9.26307e-06 -4.44356e-06 0 1.0162e-05 -4.70763e-06 0 1.11189e-05 -4.98087e-06 0 1.21363e-05 -5.26052e-06 0 1.32159e-05 -5.54328e-06 0 1.43587e-05 -5.82532e-06 0 1.55651e-05 -6.10228e-06 0 1.68342e-05 -6.36931e-06 0 1.8164e-05 -6.62114e-06 0 1.95514e-05 -6.85218e-06 0 2.09916e-05 -7.05667e-06 0 2.24788e-05 -7.22881e-06 0 2.40054e-05 -7.36294e-06 0 2.55626e-05 -7.45375e-06 0 2.71402e-05 -7.49645e-06 0 2.8727e-05 -7.48698e-06 0 4.23213e-21 -2.74747e-06 0 4.19276e-07 -2.75721e-06 0 8.41695e-07 -2.78644e-06 0 1.27042e-06 -2.83527e-06 0 1.70866e-06 -2.90383e-06 0 2.15965e-06 -2.99232e-06 0 2.62672e-06 -3.10095e-06 0 3.11327e-06 -3.22994e-06 0 3.62281e-06 -3.37953e-06 0 4.15892e-06 -3.54986e-06 0 4.72531e-06 -3.74104e-06 0 5.32578e-06 -3.95302e-06 0 5.9642e-06 -4.1856e-06 0 6.64453e-06 -4.43834e-06 0 7.37073e-06 -4.71048e-06 0 8.14674e-06 -5.00093e-06 0 8.97643e-06 -5.30813e-06 0 9.86347e-06 -5.63005e-06 0 1.08112e-05 -5.96405e-06 0 1.18227e-05 -6.30687e-06 0 1.29004e-05 -6.65458e-06 0 1.40459e-05 -7.00252e-06 0 1.526e-05 -7.34538e-06 0 1.65425e-05 -7.67719e-06 0 1.78918e-05 -7.99139e-06 0 1.93051e-05 -8.28102e-06 0 2.07779e-05 -8.53881e-06 0 2.2304e-05 -8.75743e-06 0 2.38758e-05 -8.9297e-06 0 2.5484e-05 -9.04886e-06 0 2.71177e-05 -9.10879e-06 0 2.87648e-05 -9.10431e-06 0 0 -3.15597e-06 0 3.9824e-07 -3.16726e-06 0 7.99553e-07 -3.20117e-06 0 1.20703e-06 -3.25781e-06 0 1.62383e-06 -3.33739e-06 0 2.05313e-06 -3.44016e-06 0 2.49825e-06 -3.56642e-06 0 2.96257e-06 -3.71651e-06 0 3.44962e-06 -3.89075e-06 0 3.96305e-06 -4.08943e-06 0 4.50667e-06 -4.31277e-06 0 5.08442e-06 -4.56084e-06 0 5.70041e-06 -4.83355e-06 0 6.35885e-06 -5.13053e-06 0 7.06408e-06 -5.45109e-06 0 7.82047e-06 -5.79409e-06 0 8.63239e-06 -6.1579e-06 0 9.50412e-06 -6.54028e-06 0 1.04397e-05 -6.9383e-06 0 1.14429e-05 -7.34823e-06 0 1.25169e-05 -7.76551e-06 0 1.36642e-05 -8.1847e-06 0 1.48863e-05 -8.59945e-06 0 1.61837e-05 -9.00259e-06 0 1.75555e-05 -9.38618e-06 0 1.89991e-05 -9.74168e-06 0 2.05104e-05 -1.00601e-05 0 2.20833e-05 -1.03325e-05 0 2.37097e-05 -1.05497e-05 0 2.53797e-05 -1.07034e-05 0 2.70817e-05 -1.07858e-05 0 2.88024e-05 -1.07904e-05 0 0 -3.54191e-06 0 3.74134e-07 -3.55471e-06 0 7.51248e-07 -3.59316e-06 0 1.13435e-06 -3.65743e-06 0 1.5265e-06 -3.74777e-06 0 1.93083e-06 -3.86451e-06 0 2.35059e-06 -4.00808e-06 0 2.78916e-06 -4.17892e-06 0 3.25007e-06 -4.37752e-06 0 3.73701e-06 -4.60432e-06 0 4.2539e-06 -4.85972e-06 0 4.80485e-06 -5.14399e-06 0 5.39417e-06 -5.45718e-06 0 6.0264e-06 -5.79909e-06 0 6.70627e-06 -6.16916e-06 0 7.43865e-06 -6.56633e-06 0 8.22851e-06 -6.98897e-06 0 9.08085e-06 -7.43475e-06 0 1.00005e-05 -7.90049e-06 0 1.09922e-05 -8.38209e-06 0 1.206e-05 -8.8744e-06 0 1.32074e-05 -9.37116e-06 0 1.4437e-05 -9.865e-06 0 1.57502e-05 -1.03474e-05 0 1.71469e-05 -1.0809e-05 0 1.86251e-05 -1.12394e-05 0 2.01811e-05 -1.16276e-05 0 2.18086e-05 -1.19626e-05 0 2.34995e-05 -1.22334e-05 0 2.52432e-05 -1.24293e-05 0 2.70268e-05 -1.25408e-05 0 2.88356e-05 -1.25598e-05 0 0 -3.90226e-06 0 3.47053e-07 -3.91652e-06 0 6.96966e-07 -3.95937e-06 0 1.05263e-06 -4.031e-06 0 1.417e-06 -4.13175e-06 0 1.79312e-06 -4.26205e-06 0 2.18416e-06 -4.42246e-06 0 2.59345e-06 -4.61357e-06 0 3.0245e-06 -4.83606e-06 0 3.48107e-06 -5.0906e-06 0 3.96712e-06 -5.37779e-06 0 4.48694e-06 -5.69815e-06 0 5.04506e-06 -6.05201e-06 0 5.64635e-06 -6.43942e-06 0 6.29597e-06 -6.86003e-06 0 6.99934e-06 -7.31298e-06 0 7.76215e-06 -7.79678e-06 0 8.59019e-06 -8.3091e-06 0 9.4893e-06 -8.84665e-06 0 1.04652e-05 -9.40505e-06 0 1.15233e-05 -9.97863e-06 0 1.26682e-05 -1.05604e-05 0 1.3904e-05 -1.11418e-05 0 1.5233e-05 -1.1713e-05 0 1.66564e-05 -1.22629e-05 0 1.81731e-05 -1.27791e-05 0 1.97797e-05 -1.32484e-05 0 2.14703e-05 -1.36572e-05 0 2.32363e-05 -1.3992e-05 0 2.50663e-05 -1.42398e-05 0 2.69463e-05 -1.43887e-05 0 2.88599e-05 -1.44286e-05 0 0 -4.23411e-06 0 3.17117e-07 -4.24976e-06 0 6.36943e-07 -4.2968e-06 0 9.62223e-07 -4.37547e-06 0 1.29577e-06 -4.48619e-06 0 1.64051e-06 -4.62951e-06 0 1.9995e-06 -4.80613e-06 0 2.376e-06 -5.01685e-06 0 2.77348e-06 -5.26256e-06 0 3.19568e-06 -5.54419e-06 0 3.64664e-06 -5.86265e-06 0 4.13076e-06 -6.21877e-06 0 4.65283e-06 -6.61324e-06 0 5.21801e-06 -7.04645e-06 0 5.83194e-06 -7.51844e-06 0 6.50064e-06 -8.02866e-06 0 7.23055e-06 -8.5759e-06 0 8.02842e-06 -9.15801e-06 0 8.90122e-06 -9.77176e-06 0 9.85597e-06 -1.04126e-05 0 1.08995e-05 -1.10745e-05 0 1.20381e-05 -1.17496e-05 0 1.32773e-05 -1.24285e-05 0 1.46212e-05 -1.30998e-05 0 1.60723e-05 -1.37504e-05 0 1.76307e-05 -1.43656e-05 0 1.92938e-05 -1.49297e-05 0 2.10561e-05 -1.5426e-05 0 2.29087e-05 -1.58379e-05 0 2.48392e-05 -1.61495e-05 0 2.6832e-05 -1.6346e-05 0 2.88684e-05 -1.64148e-05 0 0 -4.53469e-06 0 2.84477e-07 -4.55165e-06 0 5.71479e-07 -4.60263e-06 0 8.63565e-07 -4.68792e-06 0 1.16338e-06 -4.80804e-06 0 1.47368e-06 -4.96368e-06 0 1.79738e-06 -5.15571e-06 0 2.13762e-06 -5.38515e-06 0 2.49779e-06 -5.65315e-06 0 2.88158e-06 -5.96094e-06 0 3.29306e-06 -6.30982e-06 0 3.73673e-06 -6.70101e-06 0 4.21754e-06 -7.13565e-06 0 4.74101e-06 -7.61463e-06 0 5.3132e-06 -8.13848e-06 0 5.94079e-06 -8.70717e-06 0 6.63103e-06 -9.31995e-06 0 7.39174e-06 -9.97506e-06 0 8.23117e-06 -1.06695e-05 0 9.15789e-06 -1.13988e-05 0 1.01805e-05 -1.21567e-05 0 1.13072e-05 -1.29348e-05 0 1.25456e-05 -1.37226e-05 0 1.39018e-05 -1.45071e-05 0 1.53804e-05 -1.5273e-05 0 1.69829e-05 -1.60032e-05 0 1.87082e-05 -1.66786e-05 0 2.05511e-05 -1.72791e-05 0 2.25025e-05 -1.77844e-05 0 2.45491e-05 -1.81745e-05 0 2.66734e-05 -1.84313e-05 0 2.88546e-05 -1.85396e-05 0 0 -4.80139e-06 0 2.49321e-07 -4.81955e-06 0 5.00941e-07 -4.87416e-06 0 7.57202e-07 -4.96558e-06 0 1.02053e-06 -5.09441e-06 0 1.29347e-06 -5.2615e-06 0 1.57876e-06 -5.46791e-06 0 1.87937e-06 -5.7149e-06 0 2.19853e-06 -6.00394e-06 0 2.53986e-06 -6.33662e-06 0 2.90738e-06 -6.71465e-06 0 3.30563e-06 -7.13976e-06 0 3.7397e-06 -7.61366e-06 0 4.21538e-06 -8.13786e-06 0 4.73917e-06 -8.71356e-06 0 5.31837e-06 -9.34144e-06 0 5.96112e-06 -1.00215e-05 0 6.67637e-06 -1.07525e-05 0 7.47385e-06 -1.15321e-05 0 8.36389e-06 -1.23562e-05 0 9.35717e-06 -1.32184e-05 0 1.04644e-05 -1.411e-05 0 1.16956e-05 -1.50195e-05 0 1.30598e-05 -1.59324e-05 0 1.45639e-05 -1.68312e-05 0 1.62119e-05 -1.76955e-05 0 1.80043e-05 -1.85024e-05 0 1.99369e-05 -1.92277e-05 0 2.20005e-05 -1.98462e-05 0 2.41808e-05 -2.03333e-05 0 2.64578e-05 -2.06664e-05 0 2.88066e-05 -2.08253e-05 0 -2.09583e-21 -5.03181e-06 0 2.11872e-07 -5.05105e-06 0 4.25778e-07 -5.10893e-06 0 6.43796e-07 -5.20586e-06 0 8.68089e-07 -5.34256e-06 0 1.10096e-06 -5.52003e-06 0 1.34489e-06 -5.73954e-06 0 1.60261e-06 -6.00264e-06 0 1.87718e-06 -6.3111e-06 0 2.17203e-06 -6.66695e-06 0 2.49108e-06 -7.07238e-06 0 2.8388e-06 -7.52971e-06 0 3.22038e-06 -8.04132e-06 0 3.64178e-06 -8.6095e-06 0 4.10987e-06 -9.23632e-06 0 4.63255e-06 -9.92341e-06 0 5.21883e-06 -1.06717e-05 0 5.87889e-06 -1.14811e-05 0 6.62404e-06 -1.235e-05 0 7.46664e-06 -1.3275e-05 0 8.41988e-06 -1.42502e-05 0 9.49733e-06 -1.52668e-05 0 1.07124e-05 -1.63125e-05 0 1.20774e-05 -1.73714e-05 0 1.36028e-05 -1.84235e-05 0 1.52958e-05 -1.94447e-05 0 1.71592e-05 -2.04079e-05 0 1.91906e-05 -2.12832e-05 0 2.1381e-05 -2.20397e-05 0 2.37146e-05 -2.26467e-05 0 2.61692e-05 -2.30756e-05 0 2.87174e-05 -2.33038e-05 0 -1.85007e-20 -5.22379e-06 0 1.72396e-07 -5.24397e-06 0 3.46518e-07 -5.30468e-06 0 5.24136e-07 -5.40641e-06 0 7.07106e-07 -5.54998e-06 0 8.97422e-07 -5.73657e-06 0 1.09727e-06 -5.96764e-06 0 1.30908e-06 -6.24504e-06 0 1.53564e-06 -6.57092e-06 0 1.78011e-06 -6.94772e-06 0 2.04621e-06 -7.37821e-06 0 2.33827e-06 -7.86537e-06 0 2.6614e-06 -8.41237e-06 0 3.02166e-06 -9.02243e-06 0 3.42616e-06 -9.6987e-06 0 3.88332e-06 -1.0444e-05 0 4.40297e-06 -1.12606e-05 0 4.99649e-06 -1.21498e-05 0 5.6769e-06 -1.31113e-05 0 6.45884e-06 -1.4143e-05 0 7.35836e-06 -1.524e-05 0 8.39254e-06 -1.63937e-05 0 9.57882e-06 -1.75918e-05 0 1.09341e-05 -1.88167e-05 0 1.24733e-05 -2.00459e-05 0 1.42082e-05 -2.12516e-05 0 1.61452e-05 -2.24009e-05 0 1.82842e-05 -2.34576e-05 0 2.0617e-05 -2.4383e-05 0 2.31268e-05 -2.51386e-05 0 2.57874e-05 -2.56889e-05 0 2.85628e-05 -2.5999e-05 0 -3.39157e-21 -5.37546e-06 0 1.312e-07 -5.39641e-06 0 2.63777e-07 -5.45946e-06 0 3.99147e-07 -5.56517e-06 0 5.3881e-07 -5.71446e-06 0 6.844e-07 -5.90866e-06 0 8.37734e-07 -6.14948e-06 0 1.00089e-06 -6.43903e-06 0 1.17625e-06 -6.77984e-06 0 1.36667e-06 -7.17485e-06 0 1.5755e-06 -7.6274e-06 0 1.80681e-06 -8.1412e-06 0 2.06549e-06 -8.72034e-06 0 2.35749e-06 -9.3691e-06 0 2.69005e-06 -1.00919e-05 0 3.07188e-06 -1.08932e-05 0 3.51351e-06 -1.17767e-05 0 4.02746e-06 -1.27458e-05 0 4.62849e-06 -1.38021e-05 0 5.33365e-06 -1.49453e-05 0 6.16225e-06 -1.61722e-05 0 7.13553e-06 -1.74756e-05 0 8.27599e-06 -1.88432e-05 0 9.60622e-06 -2.02568e-05 0 1.11475e-05 -2.16912e-05 0 1.29173e-05 -2.31141e-05 0 1.49279e-05 -2.44864e-05 0 1.71824e-05 -2.57632e-05 0 1.96748e-05 -2.68963e-05 0 2.23861e-05 -2.78372e-05 0 2.52873e-05 -2.85388e-05 0 2.8342e-05 -2.89708e-05 0 0 -5.48528e-06 0 8.86358e-08 -5.50682e-06 0 1.78257e-07 -5.57166e-06 0 2.69886e-07 -5.6804e-06 0 3.6462e-07 -5.83409e-06 0 4.63675e-07 -6.0342e-06 0 5.6844e-07 -6.28265e-06 0 6.8054e-07 -6.58183e-06 0 8.01916e-07 -6.93465e-06 0 9.34926e-07 -7.34451e-06 0 1.08247e-06 -7.81538e-06 0 1.24815e-06 -8.35176e-06 0 1.43646e-06 -8.95869e-06 0 1.65304e-06 -9.6417e-06 0 1.90495e-06 -1.04067e-05 0 2.20099e-06 -1.12598e-05 0 2.55211e-06 -1.22071e-05 0 2.97177e-06 -1.32542e-05 0 3.47633e-06 -1.44054e-05 0 4.08534e-06 -1.56632e-05 0 4.82168e-06 -1.70271e-05 0 5.71141e-06 -1.84922e-05 0 6.78312e-06 -2.00475e-05 0 8.06681e-06 -2.16748e-05 0 9.59187e-06 -2.33467e-05 0 1.13846e-05 -2.50263e-05 0 1.34644e-05 -2.66666e-05 0 1.58413e-05 -2.82125e-05 0 1.85109e-05 -2.96028e-05 0 2.14549e-05 -3.07746e-05 0 2.46368e-05 -3.16709e-05 0 2.7999e-05 -3.22226e-05 0 0 -5.55208e-06 0 4.50916e-08 -5.57401e-06 0 9.07423e-08 -5.64001e-06 0 1.3754e-07 -5.75076e-06 0 1.86136e-07 -5.90739e-06 0 2.37279e-07 -6.11148e-06 0 2.91863e-07 -6.36517e-06 0 3.50989e-07 -6.67109e-06 0 4.16036e-07 -7.03249e-06 0 4.88767e-07 -7.45326e-06 0 5.71453e-07 -7.93794e-06 0 6.67049e-07 -8.49185e-06 0 7.79409e-07 -9.12104e-06 0 9.13563e-07 -9.83235e-06 0 1.07607e-06 -1.06333e-05 0 1.27545e-06 -1.15322e-05 0 1.52266e-06 -1.25376e-05 0 1.83172e-06 -1.36581e-05 0 2.22028e-06 -1.49015e-05 0 2.71024e-06 -1.62743e-05 0 3.32819e-06 -1.77799e-05 0 4.10554e-06 -1.94173e-05 0 5.07822e-06 -2.11784e-05 0 6.28545e-06 -2.30465e-05 0 7.76765e-06 -2.4993e-05 0 9.56274e-06 -2.69762e-05 0 1.17021e-05 -2.89405e-05 0 1.42041e-05 -3.08171e-05 0 1.70711e-05 -3.25277e-05 0 2.02815e-05 -3.39919e-05 0 2.37955e-05 -3.51273e-05 0 2.75653e-05 -3.5908e-05 0 -4.45187e-21 -5.57509e-06 0 9.93331e-10 -5.59719e-06 0 2.09007e-09 -5.6637e-06 0 3.41361e-09 -5.77533e-06 0 5.12985e-09 -5.93329e-06 0 7.47496e-09 -6.13927e-06 0 1.07918e-08 -6.39554e-06 0 1.55788e-08 -6.70497e-06 0 2.25574e-08 -7.07109e-06 0 3.2764e-08 -7.49821e-06 0 4.76757e-08 -7.99142e-06 0 6.9382e-08 -8.55679e-06 0 1.00815e-07 -9.20139e-06 0 1.46056e-07 -9.9334e-06 0 2.10741e-07 -1.07622e-05 0 3.02573e-07 -1.16982e-05 0 4.31977e-07 -1.2753e-05 0 6.12883e-07 -1.39387e-05 0 8.6364e-07 -1.52678e-05 0 1.208e-06 -1.67518e-05 0 1.67605e-06 -1.83999e-05 0 2.30494e-06 -2.0217e-05 0 3.13896e-06 -2.22005e-05 0 4.22885e-06 -2.43374e-05 0 5.62924e-06 -2.66001e-05 0 7.39489e-06 -2.8943e-05 0 9.57347e-06 -3.13004e-05 0 1.21994e-05 -3.35867e-05 0 1.52817e-05 -3.57012e-05 0 1.88042e-05 -3.75338e-05 0 2.27116e-05 -3.89894e-05 0 2.68968e-05 -3.99011e-05 0 -1.93964e-20 -5.554e-06 0 -4.32051e-08 -5.57602e-06 0 -8.6782e-08 -5.64234e-06 0 -1.31094e-07 -5.75367e-06 0 -1.76488e-07 -5.91126e-06 0 -2.23275e-07 -6.11687e-06 0 -2.71713e-07 -6.37287e-06 0 -3.21971e-07 -6.68228e-06 0 -3.74076e-07 -7.04885e-06 0 -4.27842e-07 -7.47721e-06 0 -4.82756e-07 -7.97292e-06 0 -5.37821e-07 -8.54269e-06 0 -5.9133e-07 -9.19453e-06 0 -6.40548e-07 -9.9379e-06 0 -6.81283e-07 -1.07839e-05 0 -7.07283e-07 -1.17455e-05 0 -7.09465e-07 -1.28373e-05 0 -6.74893e-07 -1.40759e-05 0 -5.85528e-07 -1.54789e-05 0 -4.16737e-07 -1.70645e-05 0 -1.35666e-07 -1.88498e-05 0 3.0029e-07 -2.08484e-05 0 9.4464e-07 -2.30668e-05 0 1.86166e-06 -2.54996e-05 0 3.12478e-06 -2.81236e-05 0 4.81115e-06 -3.08919e-05 0 6.99467e-06 -3.37285e-05 0 9.73112e-06 -3.65274e-05 0 1.30503e-05 -3.91549e-05 0 1.6932e-05 -4.14673e-05 0 2.13179e-05 -4.33029e-05 0 2.6145e-05 -4.47079e-05 0 -1.63689e-21 -5.48893e-06 0 -8.70305e-08 -5.51065e-06 0 -1.74916e-07 -5.57604e-06 0 -2.64516e-07 -5.68585e-06 0 -3.56703e-07 -5.8413e-06 0 -4.52359e-07 -6.04419e-06 0 -5.52376e-07 -6.29691e-06 0 -6.57638e-07 -6.60256e-06 0 -7.68996e-07 -6.965e-06 0 -8.87222e-07 -7.38904e-06 0 -1.01292e-06 -7.88057e-06 0 -1.14641e-06 -8.44678e-06 0 -1.28752e-06 -9.09642e-06 0 -1.4353e-06 -9.84006e-06 0 -1.58757e-06 -1.06905e-05 0 -1.74032e-06 -1.16628e-05 0 -1.88681e-06 -1.27753e-05 0 -2.01636e-06 -1.40487e-05 0 -2.11274e-06 -1.55072e-05 0 -2.15209e-06 -1.71769e-05 0 -2.10043e-06 -1.90852e-05 0 -1.91083e-06 -2.12581e-05 0 -1.52086e-06 -2.37158e-05 0 -8.50651e-07 -2.64665e-05 0 1.96055e-07 -2.9498e-05 0 1.72848e-06 -3.27672e-05 0 3.85611e-06 -3.61902e-05 0 6.67624e-06 -3.96356e-05 0 1.02415e-05 -4.29292e-05 0 1.45556e-05 -4.58587e-05 0 1.95283e-05 -4.82528e-05 0 2.49261e-05 -4.96162e-05 0 0 -5.3805e-06 0 -1.30002e-07 -5.40167e-06 0 -2.61336e-07 -5.46542e-06 0 -3.95354e-07 -5.57246e-06 0 -5.3345e-07 -5.724e-06 0 -6.77083e-07 -5.92178e-06 0 -8.27789e-07 -6.16817e-06 0 -9.87195e-07 -6.4662e-06 0 -1.15702e-06 -6.81973e-06 0 -1.33908e-06 -7.2336e-06 0 -1.53522e-06 -7.71379e-06 0 -1.74726e-06 -8.26775e-06 0 -1.97685e-06 -8.90466e-06 0 -2.22525e-06 -9.63589e-06 0 -2.49293e-06 -1.04755e-05 0 -2.77897e-06 -1.14407e-05 0 -3.08017e-06 -1.25526e-05 0 -3.38973e-06 -1.3837e-05 0 -3.69528e-06 -1.53244e-05 0 -3.9763e-06 -1.70504e-05 0 -4.20047e-06 -1.90552e-05 0 -4.31942e-06 -2.13811e-05 0 -4.26352e-06 -2.40683e-05 0 -3.93755e-06 -2.71475e-05 0 -3.21723e-06 -3.06278e-05 0 -1.95318e-06 -3.44807e-05 0 2.14679e-08 -3.86211e-05 0 2.8601e-06 -4.28929e-05 0 6.681e-06 -4.70581e-05 0 1.14952e-05 -5.08364e-05 0 1.72184e-05 -5.38517e-05 0 2.37558e-05 -5.64993e-05 0 0 -5.2298e-06 0 -1.71647e-07 -5.2502e-06 0 -3.4508e-07 -5.3116e-06 0 -5.22123e-07 -5.41467e-06 0 -7.04675e-07 -5.56056e-06 0 -8.9475e-07 -5.75089e-06 0 -1.09452e-06 -5.98791e-06 0 -1.30635e-06 -6.27449e-06 0 -1.53283e-06 -6.61433e-06 0 -1.77686e-06 -7.01207e-06 0 -2.04159e-06 -7.47356e-06 0 -2.33048e-06 -8.00613e-06 0 -2.64725e-06 -8.61903e-06 0 -2.99571e-06 -9.32391e-06 0 -3.37956e-06 -1.01355e-05 0 -3.80186e-06 -1.10725e-05 0 -4.26427e-06 -1.21584e-05 0 -4.76574e-06 -1.34231e-05 0 -5.30044e-06 -1.49037e-05 0 -5.85464e-06 -1.66457e-05 0 -6.40224e-06 -1.87039e-05 0 -6.89839e-06 -2.11412e-05 0 -7.27156e-06 -2.40254e-05 0 -7.41369e-06 -2.74213e-05 0 -7.17236e-06 -3.13757e-05 0 -6.34441e-06 -3.5894e-05 0 -4.68879e-06 -4.09088e-05 0 -1.94466e-06 -4.62408e-05 0 2.0899e-06 -5.15885e-05 0 7.52202e-06 -5.64994e-05 0 1.42209e-05 -6.06199e-05 0 2.16499e-05 -6.22684e-05 0 0 -5.03839e-06 0 -2.11511e-07 -5.05778e-06 0 -4.25226e-07 -5.11618e-06 0 -6.43402e-07 -5.21416e-06 0 -8.68403e-07 -5.35276e-06 0 -1.10276e-06 -5.53344e-06 0 -1.34923e-06 -5.75821e-06 0 -1.61088e-06 -6.02969e-06 0 -1.89116e-06 -6.35122e-06 0 -2.19398e-06 -6.72705e-06 0 -2.52383e-06 -7.16255e-06 0 -2.88586e-06 -7.6646e-06 0 -3.28593e-06 -8.24195e-06 0 -3.7307e-06 -8.90588e-06 0 -4.22751e-06 -9.671e-06 0 -4.7842e-06 -1.05563e-05 0 -5.40855e-06 -1.15868e-05 0 -6.10726e-06 -1.27949e-05 0 -6.88405e-06 -1.4223e-05 0 -7.73653e-06 -1.59263e-05 0 -8.65096e-06 -1.79744e-05 0 -9.59439e-06 -2.04541e-05 0 -1.05027e-05 -2.34682e-05 0 -1.12654e-05 -2.71299e-05 0 -1.17052e-05 -3.15474e-05 0 -1.15635e-05 -3.67936e-05 0 -1.04878e-05 -4.28532e-05 0 -8.07323e-06 -4.95614e-05 0 -3.90951e-06 -5.65138e-05 0 2.21446e-06 -6.31247e-05 0 1.02433e-05 -6.83735e-05 0 1.99523e-05 -7.40159e-05 0 0 -4.80824e-06 0 -2.4918e-07 -4.82644e-06 0 -5.0093e-07 -4.88123e-06 0 -7.57884e-07 -4.97311e-06 0 -1.02281e-06 -5.10295e-06 0 -1.2987e-06 -5.27199e-06 0 -1.58883e-06 -5.48194e-06 0 -1.89687e-06 -5.735e-06 0 -2.22703e-06 -6.03401e-06 0 -2.58418e-06 -6.38258e-06 0 -2.97403e-06 -6.78533e-06 0 -3.40332e-06 -7.24818e-06 0 -3.88005e-06 -7.77884e-06 0 -4.41373e-06 -8.3874e-06 0 -5.01559e-06 -9.08726e-06 0 -5.69872e-06 -9.89639e-06 0 -6.47802e-06 -1.08391e-05 0 -7.36971e-06 -1.19486e-05 0 -8.39019e-06 -1.327e-05 0 -9.55334e-06 -1.48647e-05 0 -1.08657e-05 -1.68161e-05 0 -1.23176e-05 -1.92345e-05 0 -1.38689e-05 -2.22629e-05 0 -1.5425e-05 -2.60772e-05 0 -1.68059e-05 -3.0877e-05 0 -1.77e-05 -3.68522e-05 0 -1.76358e-05 -4.41175e-05 0 -1.59579e-05 -5.25771e-05 0 -1.19586e-05 -6.18099e-05 0 -5.03292e-06 -7.08207e-05 0 4.82457e-06 -7.87359e-05 0 1.65621e-05 -7.95456e-05 0 0 -4.54173e-06 0 -2.8429e-07 -4.55858e-06 0 -5.71451e-07 -4.60926e-06 0 -8.64426e-07 -4.69418e-06 0 -1.16632e-06 -4.81401e-06 0 -1.48047e-06 -4.96973e-06 0 -1.81059e-06 -5.16265e-06 0 -2.16085e-06 -5.39448e-06 0 -2.53606e-06 -5.6674e-06 0 -2.94187e-06 -5.98416e-06 0 -3.385e-06 -6.34829e-06 0 -3.87358e-06 -6.76436e-06 0 -4.4175e-06 -7.23838e-06 0 -5.0289e-06 -7.77837e-06 0 -5.72273e-06 -8.39528e-06 0 -6.51734e-06 -9.10431e-06 0 -7.43514e-06 -9.92678e-06 0 -8.50306e-06 -1.08932e-05 0 -9.75251e-06 -1.2047e-05 0 -1.12185e-05 -1.34514e-05 0 -1.29359e-05 -1.51963e-05 0 -1.49331e-05 -1.7411e-05 0 -1.72155e-05 -2.02761e-05 0 -1.97398e-05 -2.40391e-05 0 -2.23621e-05 -2.90185e-05 0 -2.47703e-05 -3.55928e-05 0 -2.63673e-05 -4.41163e-05 0 -2.62103e-05 -5.4769e-05 0 -2.29779e-05 -6.71538e-05 0 -1.54143e-05 -8.0151e-05 0 -2.91265e-06 -9.07011e-05 0 1.35005e-05 -0.000105201 0 0 -4.24155e-06 0 -3.16543e-07 -4.25692e-06 0 -6.36182e-07 -4.3031e-06 0 -9.62092e-07 -4.38038e-06 0 -1.29762e-06 -4.48923e-06 0 -1.64636e-06 -4.63032e-06 0 -2.01232e-06 -4.80453e-06 0 -2.40001e-06 -5.01299e-06 0 -2.81466e-06 -5.25707e-06 0 -3.26245e-06 -5.53853e-06 0 -3.75082e-06 -5.85954e-06 0 -4.28888e-06 -6.22293e-06 0 -4.88794e-06 -6.63243e-06 0 -5.56222e-06 -7.09312e-06 0 -6.32975e-06 -7.61224e-06 0 -7.21352e-06 -8.20022e-06 0 -8.24294e-06 -8.87277e-06 0 -9.45548e-06 -9.65332e-06 0 -1.08986e-05 -1.05784e-05 0 -1.26309e-05 -1.17035e-05 0 -1.47234e-05 -1.31158e-05 0 -1.72552e-05 -1.49477e-05 0 -2.03058e-05 -1.7405e-05 0 -2.39262e-05 -2.07939e-05 0 -2.80916e-05 -2.55683e-05 0 -3.25798e-05 -3.23487e-05 0 -3.6805e-05 -4.19248e-05 0 -3.9492e-05 -5.50152e-05 0 -3.85004e-05 -7.18703e-05 0 -3.09349e-05 -9.08725e-05 0 -1.48745e-05 -0.000109521 0 9.35832e-06 -0.000105719 0 0 -3.91069e-06 0 -3.45714e-07 -3.92447e-06 0 -6.9467e-07 -3.96587e-06 0 -1.05019e-06 -4.03504e-06 0 -1.41575e-06 -4.13225e-06 0 -1.79513e-06 -4.25783e-06 0 -2.19244e-06 -4.41222e-06 0 -2.61237e-06 -4.59591e-06 0 -3.06033e-06 -4.80945e-06 0 -3.54273e-06 -5.05344e-06 0 -4.06731e-06 -5.32857e-06 0 -4.64365e-06 -5.63563e-06 0 -5.28378e-06 -5.9756e-06 0 -6.00311e-06 -6.35001e-06 0 -6.82157e-06 -6.7611e-06 0 -7.7654e-06 -7.21302e-06 0 -8.86924e-06 -7.71256e-06 0 -1.01793e-05 -8.27252e-06 0 -1.17572e-05 -8.91422e-06 0 -1.36853e-05 -9.67704e-06 0 -1.60711e-05 -1.0626e-05 0 -1.90561e-05 -1.18778e-05 0 -2.28121e-05 -1.36239e-05 0 -2.75432e-05 -1.61972e-05 0 -3.34308e-05 -2.01349e-05 0 -4.05574e-05 -2.63284e-05 0 -4.85971e-05 -3.61024e-05 0 -5.63424e-05 -5.13444e-05 0 -6.06342e-05 -7.37026e-05 0 -5.57098e-05 -0.000103287 0 -3.45578e-05 -0.000131452 0 -1.6016e-06 -0.000176505 0 0 -3.55227e-06 0 -3.71657e-07 -3.56442e-06 0 -7.46622e-07 -3.60088e-06 0 -1.12828e-06 -3.66169e-06 0 -1.52015e-06 -3.7469e-06 0 -1.92603e-06 -3.85655e-06 0 -2.35006e-06 -3.99062e-06 0 -2.79686e-06 -4.14899e-06 0 -3.27179e-06 -4.33138e-06 0 -3.78112e-06 -4.53724e-06 0 -4.33245e-06 -4.76572e-06 0 -4.93518e-06 -5.01544e-06 0 -5.60119e-06 -5.28454e-06 0 -6.34585e-06 -5.57036e-06 0 -7.18945e-06 -5.8698e-06 0 -8.1591e-06 -6.17878e-06 0 -9.29191e-06 -6.49394e-06 0 -1.06386e-05 -6.81182e-06 0 -1.22705e-05 -7.13469e-06 0 -1.42862e-05 -7.47016e-06 0 -1.68274e-05 -7.8492e-06 0 -2.00879e-05 -8.331e-06 0 -2.43486e-05 -9.05659e-06 0 -2.99792e-05 -1.02822e-05 0 -3.74912e-05 -1.25399e-05 0 -4.74595e-05 -1.67909e-05 0 -6.04107e-05 -2.49122e-05 0 -7.61124e-05 -4.01156e-05 0 -9.16357e-05 -6.77697e-05 0 -9.74043e-05 -0.000112724 0 -7.4103e-05 -0.000173284 0 3.4455e-06 -0.000163146 0 0 -3.16956e-06 0 -3.94305e-07 -3.18006e-06 0 -7.91911e-07 -3.21154e-06 0 -1.19618e-06 -3.26394e-06 0 -1.61061e-06 -3.33711e-06 0 -2.03888e-06 -3.43084e-06 0 -2.485e-06 -3.54469e-06 0 -2.95339e-06 -3.67802e-06 0 -3.44905e-06 -3.82976e-06 0 -3.9778e-06 -3.99837e-06 0 -4.54659e-06 -4.18149e-06 0 -5.16398e-06 -4.37582e-06 0 -5.8407e-06 -4.57653e-06 0 -6.5908e-06 -4.7772e-06 0 -7.43274e-06 -4.96859e-06 0 -8.39209e-06 -5.13909e-06 0 -9.5035e-06 -5.2722e-06 0 -1.08179e-05 -5.349e-06 0 -1.2405e-05 -5.34297e-06 0 -1.43737e-05 -5.22912e-06 0 -1.68719e-05 -4.97489e-06 0 -2.01449e-05 -4.56945e-06 0 -2.45217e-05 -4.01639e-06 0 -3.05736e-05 -3.42562e-06 0 -3.90635e-05 -3.05964e-06 0 -5.13181e-05 -3.66795e-06 0 -6.91049e-05 -6.89345e-06 0 -9.49159e-05 -1.6896e-05 0 -0.000130681 -4.27644e-05 0 -0.000168442 -0.000105277 0 -0.000161221 -0.000220705 0 -6.91786e-05 -0.000407201 0 0 -2.76585e-06 0 -4.13661e-07 -2.77472e-06 0 -8.30556e-07 -2.80128e-06 0 -1.25396e-06 -2.84538e-06 0 -1.68726e-06 -2.90675e-06 0 -2.13395e-06 -2.98494e-06 0 -2.59778e-06 -3.07923e-06 0 -3.08278e-06 -3.18852e-06 0 -3.5934e-06 -3.31118e-06 0 -4.13469e-06 -3.44479e-06 0 -4.71253e-06 -3.58588e-06 0 -5.33392e-06 -3.72942e-06 0 -6.0077e-06 -3.86832e-06 0 -6.74478e-06 -3.99255e-06 0 -7.56073e-06 -4.08805e-06 0 -8.47436e-06 -4.13535e-06 0 -9.51776e-06 -4.10708e-06 0 -1.07258e-05 -3.96666e-06 0 -1.21741e-05 -3.66153e-06 0 -1.3929e-05 -3.12608e-06 0 -1.61884e-05 -2.26159e-06 0 -1.90781e-05 -9.60854e-07 0 -2.3152e-05 9.4884e-07 0 -2.86533e-05 3.60542e-06 0 -3.72079e-05 7.22105e-06 0 -4.94073e-05 1.18088e-05 0 -7.02609e-05 1.68868e-05 0 -0.00010235 2.10117e-05 0 -0.000162466 1.49643e-05 0 -0.000265724 -2.57248e-05 0 -0.000426588 -0.00025304 0 0.000112276 -0.000753471 0 0 -2.34439e-06 0 -4.29787e-07 -2.35167e-06 0 -8.62701e-07 -2.37345e-06 0 -1.30188e-06 -2.40952e-06 0 -1.75054e-06 -2.45954e-06 0 -2.21192e-06 -2.52288e-06 0 -2.68944e-06 -2.5987e-06 0 -3.18661e-06 -2.6855e-06 0 -3.70718e-06 -2.78153e-06 0 -4.25522e-06 -2.88336e-06 0 -4.83497e-06 -2.98771e-06 0 -5.45213e-06 -3.08669e-06 0 -6.11089e-06 -3.17505e-06 0 -6.8227e-06 -3.23395e-06 0 -7.58731e-06 -3.25778e-06 0 -8.43861e-06 -3.19933e-06 0 -9.34888e-06 -3.06315e-06 0 -1.04406e-05 -2.72564e-06 0 -1.15566e-05 -2.2428e-06 0 -1.31628e-05 -1.28444e-06 0 -1.45584e-05 -8.57873e-08 0 -1.75054e-05 2.21625e-06 0 -1.91831e-05 4.90217e-06 0 -2.60914e-05 1.00274e-05 0 -2.76273e-05 1.60727e-05 0 -4.70593e-05 2.67159e-05 0 -4.69667e-05 4.20522e-05 0 -0.000108448 6.14523e-05 0 -0.000111961 0.000112513 0 -0.000342692 0.000128595 0 -0.000763255 0.00048641 0 -0.00382036 -0.00190652 0 </DataArray> 
</PointData> 
<Points> 
<DataArray type="Float32" NumberOfComponents="3"> 