<?xml version="1.0"?> 
<VTKFile type="StructuredGrid" version="0.1"> 
<StructuredGrid WholeExtent="0 31 0 31 0 0"> 
<Piece Extent="0 31 0 31 0 0"> 
<PointData>
<DataArray type="Float32" Name="B" format="ascii" NumberOfComponents="3"> 
0.00854741 -0.000980466 0 0.000350062 0.000105394 0 -0.000169593 -1.91734e-05 0 0.000204348 -2.22289e-06 0 -3.91086e-05 -1.13209e-05 0 7.94061e-05 -1.06899e-05 0 6.84477e-06 -1.10359e-05 0 3.86225e-05 -1.11593e-05 0 1.69261e-05 -1.03528e-05 0 2.40669e-05 -1.00545e-05 0 1.6957e-05 -9.21983e-06 0 1.76082e-05 -8.69048e-06 0 1.46842e-05 -7.97174e-06 0 1.38371e-05 -7.40539e-06 0 1.21926e-05 -6.8049e-06 0 1.11339e-05 -6.28947e-06 0 9.95849e-06 -5.79469e-06 0 8.98204e-06 -5.3575e-06 0 8.03736e-06 -4.95574e-06 0 7.18652e-06 -4.59888e-06 0 6.38855e-06 -4.27843e-06 0 5.64979e-06 -3.99546e-06 0 4.95763e-06 -3.74592e-06 0 4.30795e-06 -3.52868e-06 0 3.69433e-06 -3.34132e-06 0 3.11155e-06 -3.18241e-06 0 2.55468e-06 -3.05037e-06 0 2.0189e-06 -2.94401e-06 0 1.49983e-06 -2.86231e-06 0 9.93083e-07 -2.80451e-06 0 4.94517e-07 -2.77005e-06 0 0 -2.7586e-06 0 -0.00107156 0.000688359 0 9.89808e-05 5.52197e-05 0 0.000117278 1.19208e-05 0 2.80705e-05 -2.60227e-06 0 5.59484e-05 -6.70049e-06 0 2.76224e-05 -9.00815e-06 0 3.4083e-05 -9.70777e-06 0 2.4367e-05 -9.85759e-06 0 2.45228e-05 -9.60358e-06 0 2.0418e-05 -9.17115e-06 0 1.91156e-05 -8.63046e-06 0 1.68259e-05 -8.05835e-06 0 1.53778e-05 -7.47789e-06 0 1.37833e-05 -6.91965e-06 0 1.24889e-05 -6.38912e-06 0 1.12403e-05 -5.8972e-06 0 1.0135e-05 -5.44365e-06 0 9.10511e-06 -5.03094e-06 0 8.16513e-06 -4.65709e-06 0 7.29346e-06 -4.32131e-06 0 6.48686e-06 -4.02128e-06 0 5.73539e-06 -3.75523e-06 0 5.03308e-06 -3.521e-06 0 4.37326e-06 -3.31675e-06 0 3.75022e-06 -3.14068e-06 0 3.15854e-06 -2.99127e-06 0 2.59315e-06 -2.86712e-06 0 2.04928e-06 -2.76711e-06 0 1.52235e-06 -2.69028e-06 0 1.00799e-06 -2.63592e-06 0 5.01926e-07 -2.60351e-06 0 -3.91455e-20 -2.59274e-06 0 7.14015e-07 0.000276123 0 9.1558e-05 8.15574e-05 0 6.02457e-05 1.86751e-05 0 5.43615e-05 2.57591e-06 0 3.86396e-05 -4.22601e-06 0 3.57517e-05 -7.0829e-06 0 2.92879e-05 -8.36848e-06 0 2.67831e-05 -8.7719e-06 0 2.33555e-05 -8.71885e-06 0 2.12168e-05 -8.41083e-06 0 1.89567e-05 -7.97179e-06 0 1.71765e-05 -7.47158e-06 0 1.54749e-05 -6.95511e-06 0 1.39991e-05 -6.44596e-06 0 1.26324e-05 -5.96046e-06 0 1.14019e-05 -5.50538e-06 0 1.02696e-05 -5.08548e-06 0 9.23375e-06 -4.70144e-06 0 8.27832e-06 -4.35345e-06 0 7.3962e-06 -4.04016e-06 0 6.57781e-06 -3.76015e-06 0 5.816e-06 -3.51158e-06 0 5.10366e-06 -3.29269e-06 0 4.43451e-06 -3.10171e-06 0 3.80264e-06 -2.93708e-06 0 3.2026e-06 -2.79732e-06 0 2.62926e-06 -2.68119e-06 0 2.07776e-06 -2.58763e-06 0 1.54348e-06 -2.51575e-06 0 1.02196e-06 -2.46489e-06 0 5.08881e-07 -2.43457e-06 0 -3.01518e-20 -2.42449e-06 0 -8.08269e-05 8.33515e-05 0 5.46226e-05 8.02526e-05 0 5.71218e-05 2.32087e-05 0 4.67372e-05 6.30342e-06 0 3.93842e-05 -1.94378e-06 0 3.37423e-05 -5.40603e-06 0 2.96915e-05 -7.08687e-06 0 2.63238e-05 -7.7548e-06 0 2.36054e-05 -7.84913e-06 0 2.12213e-05 -7.67326e-06 0 1.91595e-05 -7.31349e-06 0 1.73078e-05 -6.89072e-06 0 1.56529e-05 -6.42852e-06 0 1.41503e-05 -5.97146e-06 0 1.27866e-05 -5.52717e-06 0 1.15402e-05 -5.11038e-06 0 1.03993e-05 -4.72284e-06 0 9.35074e-06 -4.36821e-06 0 8.38462e-06 -4.0458e-06 0 7.49134e-06 -3.7554e-06 0 6.6627e-06 -3.49548e-06 0 5.89104e-06 -3.26465e-06 0 5.16948e-06 -3.06126e-06 0 4.49161e-06 -2.88377e-06 0 3.85152e-06 -2.7307e-06 0 3.24369e-06 -2.60075e-06 0 2.66293e-06 -2.49276e-06 0 2.10433e-06 -2.40574e-06 0 1.56319e-06 -2.33889e-06 0 1.035e-06 -2.29158e-06 0 5.1537e-07 -2.26338e-06 0 0 -2.25401e-06 0 -2.64219e-05 9.44108e-05 0 3.64403e-05 6.17824e-05 0 4.69999e-05 2.66559e-05 0 4.33738e-05 8.32823e-06 0 3.72863e-05 9.34196e-08 0 3.30369e-05 -3.96441e-06 0 2.92105e-05 -5.92831e-06 0 2.62333e-05 -6.77198e-06 0 2.35828e-05 -7.03263e-06 0 2.13156e-05 -6.93797e-06 0 1.92735e-05 -6.67354e-06 0 1.74515e-05 -6.30671e-06 0 1.57965e-05 -5.90569e-06 0 1.42949e-05 -5.49283e-06 0 1.29233e-05 -5.09232e-06 0 1.16689e-05 -4.71123e-06 0 1.05178e-05 -4.35703e-06 0 9.45907e-06 -4.0311e-06 0 8.4826e-06 -3.73473e-06 0 7.5794e-06 -3.46717e-06 0 6.74122e-06 -3.22761e-06 0 5.96054e-06 -3.01466e-06 0 5.23044e-06 -2.82697e-06 0 4.54452e-06 -2.6631e-06 0 3.89682e-06 -2.52176e-06 0 3.28178e-06 -2.40175e-06 0 2.69415e-06 -2.302e-06 0 2.12896e-06 -2.22161e-06 0 1.58147e-06 -2.15986e-06 0 1.04709e-06 -2.11615e-06 0 5.21386e-07 -2.0901e-06 0 -4.92471e-22 -2.08144e-06 0 -2.15015e-05 4.47609e-05 0 2.48839e-05 5.24893e-05 0 3.97638e-05 2.58375e-05 0 3.90871e-05 9.90331e-06 0 3.55779e-05 1.53016e-06 0 3.19597e-05 -2.72084e-06 0 2.88084e-05 -4.87196e-06 0 2.60163e-05 -5.8766e-06 0 2.35656e-05 -6.23364e-06 0 2.13604e-05 -6.23585e-06 0 1.93758e-05 -6.03476e-06 0 1.75702e-05 -5.73242e-06 0 1.59265e-05 -5.38032e-06 0 1.44235e-05 -5.01494e-06 0 1.30479e-05 -4.65399e-06 0 1.17858e-05 -4.30977e-06 0 1.06261e-05 -3.98766e-06 0 9.55819e-06 -3.69093e-06 0 8.57249e-06 -3.42034e-06 0 7.66023e-06 -3.17589e-06 0 6.81336e-06 -2.95676e-06 0 6.02442e-06 -2.76188e-06 0 5.2865e-06 -2.59002e-06 0 4.59319e-06 -2.43994e-06 0 3.9385e-06 -2.31046e-06 0 3.31683e-06 -2.20049e-06 0 2.72288e-06 -2.10909e-06 0 2.15163e-06 -2.03542e-06 0 1.59828e-06 -1.97882e-06 0 1.05821e-06 -1.93877e-06 0 5.26923e-07 -1.91488e-06 0 -3.44311e-20 -1.90695e-06 0 -1.34288e-05 4.80078e-05 0 1.83722e-05 4.14749e-05 0 3.33832e-05 2.43825e-05 0 3.54357e-05 1.04301e-05 0 3.36342e-05 2.58741e-06 0 3.09525e-05 -1.70765e-06 0 2.82991e-05 -3.94806e-06 0 2.5797e-05 -5.03957e-06 0 2.35029e-05 -5.48236e-06 0 2.13903e-05 -5.54889e-06 0 1.94535e-05 -5.41134e-06 0 1.76735e-05 -5.1606e-06 0 1.60396e-05 -4.85803e-06 0 1.45385e-05 -4.53544e-06 0 1.31595e-05 -4.21435e-06 0 1.18915e-05 -3.90548e-06 0 1.07243e-05 -3.61565e-06 0 9.64821e-06 -3.34773e-06 0 8.65422e-06 -3.1031e-06 0 7.73381e-06 -2.88177e-06 0 6.87908e-06 -2.68322e-06 0 6.08263e-06 -2.50653e-06 0 5.3376e-06 -2.35065e-06 0 4.63756e-06 -2.21449e-06 0 3.97651e-06 -2.09698e-06 0 3.3488e-06 -1.99718e-06 0 2.74908e-06 -1.91421e-06 0 2.17231e-06 -1.84733e-06 0 1.61363e-06 -1.79595e-06 0 1.06836e-06 -1.75958e-06 0 5.31974e-07 -1.7379e-06 0 -1.59955e-20 -1.73069e-06 0 -7.87769e-06 3.20549e-05 0 1.44065e-05 3.45117e-05 0 2.83278e-05 2.17823e-05 0 3.21873e-05 1.04232e-05 0 3.17484e-05 3.21474e-06 0 2.99468e-05 -9.07861e-07 0 2.77673e-05 -3.14451e-06 0 2.55563e-05 -4.27825e-06 0 2.3419e-05 -4.76684e-06 0 2.14012e-05 -4.8875e-06 0 1.95136e-05 -4.79777e-06 0 1.77605e-05 -4.59577e-06 0 1.61379e-05 -4.33693e-06 0 1.464e-05 -4.05621e-06 0 1.32589e-05 -3.77299e-06 0 1.1986e-05 -3.49922e-06 0 1.08123e-05 -3.24108e-06 0 9.72911e-06 -3.00198e-06 0 8.72777e-06 -2.78323e-06 0 7.80009e-06 -2.58512e-06 0 6.93832e-06 -2.40725e-06 0 6.13514e-06 -2.24888e-06 0 5.38371e-06 -2.1091e-06 0 4.67762e-06 -1.98696e-06 0 4.01082e-06 -1.88155e-06 0 3.37766e-06 -1.79199e-06 0 2.77274e-06 -1.71754e-06 0 2.19098e-06 -1.65752e-06 0 1.62748e-06 -1.61141e-06 0 1.07753e-06 -1.57877e-06 0 5.36536e-07 -1.55931e-06 0 0 -1.55284e-06 0 -7.49835e-06 3.00929e-05 0 1.17679e-05 2.79095e-05 0 2.4518e-05 1.91377e-05 0 2.93094e-05 9.85985e-06 0 3.00346e-05 3.51941e-06 0 2.89557e-05 -3.14875e-07 0 2.7249e-05 -2.46301e-06 0 2.53004e-05 -3.58345e-06 0 2.33252e-05 -4.09382e-06 0 2.13956e-05 -4.24689e-06 0 1.95597e-05 -4.19756e-06 0 1.78326e-05 -4.03622e-06 0 1.62226e-05 -3.81861e-06 0 1.47284e-05 -3.57688e-06 0 1.33462e-05 -3.3307e-06 0 1.20694e-05 -3.09109e-06 0 1.08903e-05 -2.86443e-06 0 9.80091e-06 -2.65393e-06 0 8.79315e-06 -2.46107e-06 0 7.85906e-06 -2.28622e-06 0 6.99105e-06 -2.12911e-06 0 6.1819e-06 -1.98915e-06 0 5.42479e-06 -1.86558e-06 0 4.7133e-06 -1.75758e-06 0 4.0414e-06 -1.66435e-06 0 3.40338e-06 -1.58513e-06 0 2.79383e-06 -1.51926e-06 0 2.20763e-06 -1.46617e-06 0 1.63984e-06 -1.42537e-06 0 1.0857e-06 -1.39649e-06 0 5.40603e-07 -1.37927e-06 0 0 -1.37355e-06 0 -4.61787e-06 2.2535e-05 0 1.00597e-05 2.29196e-05 0 2.14914e-05 1.6321e-05 0 2.69487e-05 8.98165e-06 0 2.84597e-05 3.53184e-06 0 2.80537e-05 9.53161e-08 0 2.6742e-05 -1.89225e-06 0 2.50535e-05 -2.95634e-06 0 2.32221e-05 -3.45817e-06 0 2.13812e-05 -3.62912e-06 0 1.95926e-05 -3.60881e-06 0 1.78921e-05 -3.4831e-06 0 1.62941e-05 -3.30259e-06 0 1.48045e-05 -3.09811e-06 0 1.34218e-05 -2.88755e-06 0 1.21419e-05 -2.68154e-06 0 1.09583e-05 -2.48594e-06 0 9.86366e-06 -2.30392e-06 0 8.85034e-06 -2.13691e-06 0 7.91069e-06 -1.98534e-06 0 7.03725e-06 -1.84906e-06 0 6.22288e-06 -1.72761e-06 0 5.4608e-06 -1.62033e-06 0 4.7446e-06 -1.52656e-06 0 4.06822e-06 -1.44559e-06 0 3.42594e-06 -1.37679e-06 0 2.81233e-06 -1.31957e-06 0 2.22223e-06 -1.27345e-06 0 1.65067e-06 -1.23801e-06 0 1.09287e-06 -1.21292e-06 0 5.4417e-07 -1.19796e-06 0 0 -1.19299e-06 0 -4.79472e-06 1.92635e-05 0 8.79709e-06 1.83563e-05 0 1.92742e-05 1.36185e-05 0 2.49537e-05 7.8477e-06 0 2.71239e-05 3.32145e-06 0 2.72273e-05 3.44783e-07 0 2.62849e-05 -1.42296e-06 0 2.48157e-05 -2.38946e-06 0 2.31225e-05 -2.85914e-06 0 2.13592e-05 -3.03151e-06 0 1.96163e-05 -3.03177e-06 0 1.79396e-05 -2.93565e-06 0 1.63538e-05 -2.78924e-06 0 1.48685e-05 -2.61986e-06 0 1.34861e-05 -2.44389e-06 0 1.22038e-05 -2.27078e-06 0 1.10164e-05 -2.10594e-06 0 9.91736e-06 -1.95223e-06 0 8.89935e-06 -1.81102e-06 0 7.95496e-06 -1.68276e-06 0 7.07689e-06 -1.56737e-06 0 6.25806e-06 -1.46448e-06 0 5.49172e-06 -1.37359e-06 0 4.77147e-06 -1.29411e-06 0 4.09125e-06 -1.22548e-06 0 3.44532e-06 -1.16716e-06 0 2.82822e-06 -1.11865e-06 0 2.23477e-06 -1.07955e-06 0 1.65998e-06 -1.0495e-06 0 1.09903e-06 -1.02823e-06 0 5.47235e-07 -1.01555e-06 0 0 -1.01133e-06 0 -3.44705e-06 1.4563e-05 0 7.93997e-06 1.44828e-05 0 1.75514e-05 1.09685e-05 0 2.33926e-05 6.56694e-06 0 2.59865e-05 2.93027e-06 0 2.65258e-05 4.60397e-07 0 2.58769e-05 -1.04119e-06 0 2.46052e-05 -1.87714e-06 0 2.30281e-05 -2.292e-06 0 2.13356e-05 -2.4528e-06 0 1.96319e-05 -2.46496e-06 0 1.79772e-05 -2.39371e-06 0 1.6402e-05 -2.27826e-06 0 1.49211e-05 -2.14231e-06 0 1.35391e-05 -1.99984e-06 0 1.22551e-05 -1.85908e-06 0 1.10647e-05 -1.72468e-06 0 9.96207e-06 -1.59914e-06 0 8.94018e-06 -1.48369e-06 0 7.99187e-06 -1.37874e-06 0 7.10995e-06 -1.28428e-06 0 6.2874e-06 -1.20003e-06 0 5.51752e-06 -1.12558e-06 0 4.7939e-06 -1.06046e-06 0 4.11047e-06 -1.00423e-06 0 3.46149e-06 -9.56437e-07 0 2.84149e-06 -9.16688e-07 0 2.24524e-06 -8.84642e-07 0 1.66775e-06 -8.60014e-07 0 1.10417e-06 -8.42582e-07 0 5.49794e-07 -8.32187e-07 0 0 -8.28732e-07 0 -3.48181e-06 1.12915e-05 0 7.30259e-06 1.08985e-05 0 1.63225e-05 8.42775e-06 0 2.21662e-05 5.18107e-06 0 2.50902e-05 2.40582e-06 0 2.59438e-05 4.6756e-07 0 2.55405e-05 -7.32766e-07 0 2.44248e-05 -1.41054e-06 0 2.29469e-05 -1.75266e-06 0 2.1312e-05 -1.89005e-06 0 1.96422e-05 -1.90726e-06 0 1.80057e-05 -1.85646e-06 0 1.64398e-05 -1.7695e-06 0 1.49626e-05 -1.66541e-06 0 1.35812e-05 -1.55559e-06 0 1.22959e-05 -1.44666e-06 0 1.11033e-05 -1.34242e-06 0 9.99779e-06 -1.24493e-06 0 8.97284e-06 -1.15518e-06 0 8.02141e-06 -1.07356e-06 0 7.13642e-06 -1.00006e-06 0 6.3109e-06 -9.34484e-07 0 5.53818e-06 -8.76524e-07 0 4.81186e-06 -8.25829e-07 0 4.12587e-06 -7.82041e-07 0 3.47445e-06 -7.44823e-07 0 2.85212e-06 -7.13868e-07 0 2.25363e-06 -6.8891e-07 0 1.67397e-06 -6.6973e-07 0 1.10829e-06 -6.56153e-07 0 5.51844e-07 -6.48057e-07 0 0 -6.45367e-07 0 -2.91119e-06 7.72715e-06 0 6.8822e-06 7.62494e-06 0 1.54375e-05 5.95671e-06 0 2.12879e-05 3.73619e-06 0 2.44123e-05 1.78308e-06 0 2.55041e-05 3.92039e-07 0 2.52781e-05 -4.81886e-07 0 2.42848e-05 -9.80752e-07 0 2.28816e-05 -1.23548e-06 0 2.12922e-05 -1.34041e-06 0 1.96482e-05 -1.35685e-06 0 1.80262e-05 -1.32314e-06 0 1.64675e-05 -1.26254e-06 0 1.49935e-05 -1.18911e-06 0 1.36126e-05 -1.11119e-06 0 1.23265e-05 -1.03369e-06 0 1.11321e-05 -9.59404e-07 0 1.00246e-05 -8.89849e-07 0 8.99732e-06 -8.25775e-07 0 8.04357e-06 -7.67473e-07 0 7.15627e-06 -7.14957e-07 0 6.32854e-06 -6.68093e-07 0 5.55369e-06 -6.26665e-07 0 4.82535e-06 -5.90426e-07 0 4.13743e-06 -5.59122e-07 0 3.48418e-06 -5.32514e-07 0 2.8601e-06 -5.10382e-07 0 2.25993e-06 -4.92538e-07 0 1.67865e-06 -4.78823e-07 0 1.11138e-06 -4.69116e-07 0 5.53383e-07 -4.63327e-07 0 1.15309e-21 -4.61403e-07 0 -2.89097e-06 4.64677e-06 0 6.60896e-06 4.50188e-06 0 1.48869e-05 3.55072e-06 0 2.07083e-05 2.2537e-06 0 2.39661e-05 1.09508e-06 0 2.52055e-05 2.58219e-07 0 2.51008e-05 -2.72496e-07 0 2.41881e-05 -5.77615e-07 0 2.28365e-05 -7.34665e-07 0 2.12776e-05 -8.00319e-07 0 1.96516e-05 -8.11897e-07 0 1.80394e-05 -7.92691e-07 0 1.64858e-05 -7.56958e-07 0 1.50139e-05 -7.13268e-07 0 1.36335e-05 -6.66737e-07 0 1.23468e-05 -6.2036e-07 0 1.11514e-05 -5.75854e-07 0 1.00424e-05 -5.34153e-07 0 9.01364e-06 -4.95722e-07 0 8.05834e-06 -4.60741e-07 0 7.16952e-06 -4.29225e-07 0 6.3403e-06 -4.01097e-07 0 5.56404e-06 -3.7623e-07 0 4.83434e-06 -3.54475e-07 0 4.14515e-06 -3.35682e-07 0 3.49067e-06 -3.19707e-07 0 2.86542e-06 -3.0642e-07 0 2.26414e-06 -2.95706e-07 0 1.68177e-06 -2.87472e-07 0 1.11344e-06 -2.81644e-07 0 5.5441e-07 -2.78168e-07 0 5.88645e-21 -2.77013e-07 0 -2.73536e-06 1.49916e-06 0 6.48132e-06 1.49288e-06 0 1.46139e-05 1.17878e-06 0 2.04258e-05 7.53334e-07 0 2.37417e-05 3.69083e-07 0 2.50563e-05 8.98947e-08 0 2.50106e-05 -8.80482e-08 0 2.41391e-05 -1.90733e-07 0 2.28132e-05 -2.43768e-07 0 2.12701e-05 -2.66119e-07 0 1.96531e-05 -2.70256e-07 0 1.80459e-05 -2.64032e-07 0 1.64948e-05 -2.52223e-07 0 1.5024e-05 -2.37723e-07 0 1.36439e-05 -2.22248e-07 0 1.23569e-05 -2.0681e-07 0 1.1161e-05 -1.91986e-07 0 1.00513e-05 -1.78092e-07 0 9.0218e-06 -1.65283e-07 0 8.06573e-06 -1.53623e-07 0 7.17614e-06 -1.43117e-07 0 6.34619e-06 -1.33739e-07 0 5.56921e-06 -1.25448e-07 0 4.83884e-06 -1.18195e-07 0 4.14901e-06 -1.11929e-07 0 3.49392e-06 -1.06602e-07 0 2.86808e-06 -1.02172e-07 0 2.26624e-06 -9.85993e-08 0 1.68333e-06 -9.58537e-08 0 1.11448e-06 -9.39103e-08 0 5.54924e-07 -9.27513e-08 0 3.49663e-22 -9.23662e-08 0 -2.73536e-06 -1.49916e-06 0 6.48132e-06 -1.49288e-06 0 1.46139e-05 -1.17878e-06 0 2.04258e-05 -7.53334e-07 0 2.37417e-05 -3.69083e-07 0 2.50563e-05 -8.98947e-08 0 2.50106e-05 8.80482e-08 0 2.41391e-05 1.90733e-07 0 2.28132e-05 2.43768e-07 0 2.12701e-05 2.66119e-07 0 1.96531e-05 2.70256e-07 0 1.80459e-05 2.64032e-07 0 1.64948e-05 2.52223e-07 0 1.5024e-05 2.37723e-07 0 1.36439e-05 2.22248e-07 0 1.23569e-05 2.0681e-07 0 1.1161e-05 1.91986e-07 0 1.00513e-05 1.78092e-07 0 9.0218e-06 1.65283e-07 0 8.06573e-06 1.53623e-07 0 7.17614e-06 1.43117e-07 0 6.34619e-06 1.33739e-07 0 5.56921e-06 1.25448e-07 0 4.83884e-06 1.18195e-07 0 4.14901e-06 1.11929e-07 0 3.49392e-06 1.06602e-07 0 2.86808e-06 1.02172e-07 0 2.26624e-06 9.85993e-08 0 1.68333e-06 9.58537e-08 0 1.11448e-06 9.39103e-08 0 5.54924e-07 9.27513e-08 0 0 9.23662e-08 0 -2.89097e-06 -4.64677e-06 0 6.60896e-06 -4.50188e-06 0 1.48869e-05 -3.55072e-06 0 2.07083e-05 -2.2537e-06 0 2.39661e-05 -1.09508e-06 0 2.52055e-05 -2.58219e-07 0 2.51008e-05 2.72496e-07 0 2.41881e-05 5.77615e-07 0 2.28365e-05 7.34665e-07 0 2.12776e-05 8.00319e-07 0 1.96516e-05 8.11897e-07 0 1.80394e-05 7.92691e-07 0 1.64858e-05 7.56958e-07 0 1.50139e-05 7.13268e-07 0 1.36335e-05 6.66737e-07 0 1.23468e-05 6.2036e-07 0 1.11514e-05 5.75854e-07 0 1.00424e-05 5.34153e-07 0 9.01364e-06 4.95722e-07 0 8.05834e-06 4.60741e-07 0 7.16952e-06 4.29225e-07 0 6.3403e-06 4.01097e-07 0 5.56404e-06 3.7623e-07 0 4.83434e-06 3.54475e-07 0 4.14515e-06 3.35682e-07 0 3.49067e-06 3.19707e-07 0 2.86542e-06 3.0642e-07 0 2.26414e-06 2.95706e-07 0 1.68177e-06 2.87472e-07 0 1.11344e-06 2.81644e-07 0 5.5441e-07 2.78168e-07 0 0 2.77013e-07 0 -2.91119e-06 -7.72715e-06 0 6.8822e-06 -7.62494e-06 0 1.54375e-05 -5.95671e-06 0 2.12879e-05 -3.73619e-06 0 2.44123e-05 -1.78308e-06 0 2.55041e-05 -3.92039e-07 0 2.52781e-05 4.81886e-07 0 2.42848e-05 9.80752e-07 0 2.28816e-05 1.23548e-06 0 2.12922e-05 1.34041e-06 0 1.96482e-05 1.35685e-06 0 1.80262e-05 1.32314e-06 0 1.64675e-05 1.26254e-06 0 1.49935e-05 1.18911e-06 0 1.36126e-05 1.11119e-06 0 1.23265e-05 1.03369e-06 0 1.11321e-05 9.59404e-07 0 1.00246e-05 8.89849e-07 0 8.99732e-06 8.25775e-07 0 8.04357e-06 7.67473e-07 0 7.15627e-06 7.14957e-07 0 6.32854e-06 6.68093e-07 0 5.55369e-06 6.26665e-07 0 4.82535e-06 5.90426e-07 0 4.13743e-06 5.59122e-07 0 3.48418e-06 5.32514e-07 0 2.8601e-06 5.10382e-07 0 2.25993e-06 4.92538e-07 0 1.67865e-06 4.78823e-07 0 1.11138e-06 4.69116e-07 0 5.53383e-07 4.63327e-07 0 -2.21066e-21 4.61403e-07 0 -3.48181e-06 -1.12915e-05 0 7.30259e-06 -1.08985e-05 0 1.63225e-05 -8.42775e-06 0 2.21662e-05 -5.18107e-06 0 2.50902e-05 -2.40582e-06 0 2.59438e-05 -4.6756e-07 0 2.55405e-05 7.32766e-07 0 2.44248e-05 1.41054e-06 0 2.29469e-05 1.75266e-06 0 2.1312e-05 1.89005e-06 0 1.96422e-05 1.90726e-06 0 1.80057e-05 1.85646e-06 0 1.64398e-05 1.7695e-06 0 1.49626e-05 1.66541e-06 0 1.35812e-05 1.55559e-06 0 1.22959e-05 1.44666e-06 0 1.11033e-05 1.34242e-06 0 9.99779e-06 1.24493e-06 0 8.97284e-06 1.15518e-06 0 8.02141e-06 1.07356e-06 0 7.13642e-06 1.00006e-06 0 6.3109e-06 9.34484e-07 0 5.53818e-06 8.76524e-07 0 4.81186e-06 8.25829e-07 0 4.12587e-06 7.82041e-07 0 3.47445e-06 7.44823e-07 0 2.85212e-06 7.13868e-07 0 2.25363e-06 6.8891e-07 0 1.67397e-06 6.6973e-07 0 1.10829e-06 6.56153e-07 0 5.51844e-07 6.48057e-07 0 -1.3523e-20 6.45367e-07 0 -3.44705e-06 -1.4563e-05 0 7.93997e-06 -1.44828e-05 0 1.75514e-05 -1.09685e-05 0 2.33926e-05 -6.56694e-06 0 2.59865e-05 -2.93027e-06 0 2.65258e-05 -4.60397e-07 0 2.58769e-05 1.04119e-06 0 2.46052e-05 1.87714e-06 0 2.30281e-05 2.292e-06 0 2.13356e-05 2.4528e-06 0 1.96319e-05 2.46496e-06 0 1.79772e-05 2.39371e-06 0 1.6402e-05 2.27826e-06 0 1.49211e-05 2.14231e-06 0 1.35391e-05 1.99984e-06 0 1.22551e-05 1.85908e-06 0 1.10647e-05 1.72468e-06 0 9.96207e-06 1.59914e-06 0 8.94018e-06 1.48369e-06 0 7.99187e-06 1.37874e-06 0 7.10995e-06 1.28428e-06 0 6.2874e-06 1.20003e-06 0 5.51752e-06 1.12558e-06 0 4.7939e-06 1.06046e-06 0 4.11047e-06 1.00423e-06 0 3.46149e-06 9.56437e-07 0 2.84149e-06 9.16688e-07 0 2.24524e-06 8.84642e-07 0 1.66775e-06 8.60014e-07 0 1.10417e-06 8.42582e-07 0 5.49794e-07 8.32187e-07 0 -1.48285e-21 8.28732e-07 0 -4.79472e-06 -1.92635e-05 0 8.79709e-06 -1.83563e-05 0 1.92742e-05 -1.36185e-05 0 2.49537e-05 -7.8477e-06 0 2.71239e-05 -3.32145e-06 0 2.72273e-05 -3.44783e-07 0 2.62849e-05 1.42296e-06 0 2.48157e-05 2.38946e-06 0 2.31225e-05 2.85914e-06 0 2.13592e-05 3.03151e-06 0 1.96163e-05 3.03177e-06 0 1.79396e-05 2.93565e-06 0 1.63538e-05 2.78924e-06 0 1.48685e-05 2.61986e-06 0 1.34861e-05 2.44389e-06 0 1.22038e-05 2.27078e-06 0 1.10164e-05 2.10594e-06 0 9.91736e-06 1.95223e-06 0 8.89935e-06 1.81102e-06 0 7.95496e-06 1.68276e-06 0 7.07689e-06 1.56737e-06 0 6.25806e-06 1.46448e-06 0 5.49172e-06 1.37359e-06 0 4.77147e-06 1.29411e-06 0 4.09125e-06 1.22548e-06 0 3.44532e-06 1.16716e-06 0 2.82822e-06 1.11865e-06 0 2.23477e-06 1.07955e-06 0 1.65998e-06 1.0495e-06 0 1.09903e-06 1.02823e-06 0 5.47235e-07 1.01555e-06 0 0 1.01133e-06 0 -4.61787e-06 -2.2535e-05 0 1.00597e-05 -2.29196e-05 0 2.14914e-05 -1.6321e-05 0 2.69487e-05 -8.98165e-06 0 2.84597e-05 -3.53184e-06 0 2.80537e-05 -9.53161e-08 0 2.6742e-05 1.89225e-06 0 2.50535e-05 2.95634e-06 0 2.32221e-05 3.45817e-06 0 2.13812e-05 3.62912e-06 0 1.95926e-05 3.60881e-06 0 1.78921e-05 3.4831e-06 0 1.62941e-05 3.30259e-06 0 1.48045e-05 3.09811e-06 0 1.34218e-05 2.88755e-06 0 1.21419e-05 2.68154e-06 0 1.09583e-05 2.48594e-06 0 9.86366e-06 2.30392e-06 0 8.85034e-06 2.13691e-06 0 7.91069e-06 1.98534e-06 0 7.03725e-06 1.84906e-06 0 6.22288e-06 1.72761e-06 0 5.4608e-06 1.62033e-06 0 4.7446e-06 1.52656e-06 0 4.06822e-06 1.44559e-06 0 3.42594e-06 1.37679e-06 0 2.81233e-06 1.31957e-06 0 2.22223e-06 1.27345e-06 0 1.65067e-06 1.23801e-06 0 1.09287e-06 1.21292e-06 0 5.4417e-07 1.19796e-06 0 0 1.19299e-06 0 -7.49835e-06 -3.00929e-05 0 1.17679e-05 -2.79095e-05 0 2.4518e-05 -1.91377e-05 0 2.93094e-05 -9.85985e-06 0 3.00346e-05 -3.51941e-06 0 2.89557e-05 3.14875e-07 0 2.7249e-05 2.46301e-06 0 2.53004e-05 3.58345e-06 0 2.33252e-05 4.09382e-06 0 2.13956e-05 4.24689e-06 0 1.95597e-05 4.19756e-06 0 1.78326e-05 4.03622e-06 0 1.62226e-05 3.81861e-06 0 1.47284e-05 3.57688e-06 0 1.33462e-05 3.3307e-06 0 1.20694e-05 3.09109e-06 0 1.08903e-05 2.86443e-06 0 9.80091e-06 2.65393e-06 0 8.79315e-06 2.46107e-06 0 7.85906e-06 2.28622e-06 0 6.99105e-06 2.12911e-06 0 6.1819e-06 1.98915e-06 0 5.42479e-06 1.86558e-06 0 4.7133e-06 1.75758e-06 0 4.0414e-06 1.66435e-06 0 3.40338e-06 1.58513e-06 0 2.79383e-06 1.51926e-06 0 2.20763e-06 1.46617e-06 0 1.63984e-06 1.42537e-06 0 1.0857e-06 1.39649e-06 0 5.40603e-07 1.37927e-06 0 0 1.37355e-06 0 -7.87769e-06 -3.20549e-05 0 1.44065e-05 -3.45117e-05 0 2.83278e-05 -2.17823e-05 0 3.21873e-05 -1.04232e-05 0 3.17484e-05 -3.21474e-06 0 2.99468e-05 9.07861e-07 0 2.77673e-05 3.14451e-06 0 2.55563e-05 4.27825e-06 0 2.3419e-05 4.76684e-06 0 2.14012e-05 4.8875e-06 0 1.95136e-05 4.79777e-06 0 1.77605e-05 4.59577e-06 0 1.61379e-05 4.33693e-06 0 1.464e-05 4.05621e-06 0 1.32589e-05 3.77299e-06 0 1.1986e-05 3.49922e-06 0 1.08123e-05 3.24108e-06 0 9.72911e-06 3.00198e-06 0 8.72777e-06 2.78323e-06 0 7.80009e-06 2.58512e-06 0 6.93832e-06 2.40725e-06 0 6.13514e-06 2.24888e-06 0 5.38371e-06 2.1091e-06 0 4.67762e-06 1.98696e-06 0 4.01082e-06 1.88155e-06 0 3.37766e-06 1.79199e-06 0 2.77274e-06 1.71754e-06 0 2.19098e-06 1.65752e-06 0 1.62748e-06 1.61141e-06 0 1.07753e-06 1.57877e-06 0 5.36536e-07 1.55931e-06 0 0 1.55284e-06 0 -1.34288e-05 -4.80078e-05 0 1.83722e-05 -4.14749e-05 0 3.33832e-05 -2.43825e-05 0 3.54357e-05 -1.04301e-05 0 3.36342e-05 -2.58741e-06 0 3.09525e-05 1.70765e-06 0 2.82991e-05 3.94806e-06 0 2.5797e-05 5.03957e-06 0 2.35029e-05 5.48236e-06 0 2.13903e-05 5.54889e-06 0 1.94535e-05 5.41134e-06 0 1.76735e-05 5.1606e-06 0 1.60396e-05 4.85803e-06 0 1.45385e-05 4.53544e-06 0 1.31595e-05 4.21435e-06 0 1.18915e-05 3.90548e-06 0 1.07243e-05 3.61565e-06 0 9.64821e-06 3.34773e-06 0 8.65422e-06 3.1031e-06 0 7.73381e-06 2.88177e-06 0 6.87908e-06 2.68322e-06 0 6.08263e-06 2.50653e-06 0 5.3376e-06 2.35065e-06 0 4.63756e-06 2.21449e-06 0 3.97651e-06 2.09698e-06 0 3.3488e-06 1.99718e-06 0 2.74908e-06 1.91421e-06 0 2.17231e-06 1.84733e-06 0 1.61363e-06 1.79595e-06 0 1.06836e-06 1.75958e-06 0 5.31974e-07 1.7379e-06 0 0 1.73069e-06 0 -2.15015e-05 -4.47609e-05 0 2.48839e-05 -5.24893e-05 0 3.97638e-05 -2.58375e-05 0 3.90871e-05 -9.90331e-06 0 3.55779e-05 -1.53016e-06 0 3.19597e-05 2.72084e-06 0 2.88084e-05 4.87196e-06 0 2.60163e-05 5.8766e-06 0 2.35656e-05 6.23364e-06 0 2.13604e-05 6.23585e-06 0 1.93758e-05 6.03476e-06 0 1.75702e-05 5.73242e-06 0 1.59265e-05 5.38032e-06 0 1.44235e-05 5.01494e-06 0 1.30479e-05 4.65399e-06 0 1.17858e-05 4.30977e-06 0 1.06261e-05 3.98766e-06 0 9.55819e-06 3.69093e-06 0 8.57249e-06 3.42034e-06 0 7.66023e-06 3.17589e-06 0 6.81336e-06 2.95676e-06 0 6.02442e-06 2.76188e-06 0 5.2865e-06 2.59002e-06 0 4.59319e-06 2.43994e-06 0 3.9385e-06 2.31046e-06 0 3.31683e-06 2.20049e-06 0 2.72288e-06 2.10909e-06 0 2.15163e-06 2.03542e-06 0 1.59828e-06 1.97882e-06 0 1.05821e-06 1.93877e-06 0 5.26923e-07 1.91488e-06 0 0 1.90695e-06 0 -2.64219e-05 -9.44108e-05 0 3.64403e-05 -6.17824e-05 0 4.69999e-05 -2.66559e-05 0 4.33738e-05 -8.32823e-06 0 3.72863e-05 -9.34196e-08 0 3.30369e-05 3.96441e-06 0 2.92105e-05 5.92831e-06 0 2.62333e-05 6.77198e-06 0 2.35828e-05 7.03263e-06 0 2.13156e-05 6.93797e-06 0 1.92735e-05 6.67354e-06 0 1.74515e-05 6.30671e-06 0 1.57965e-05 5.90569e-06 0 1.42949e-05 5.49283e-06 0 1.29233e-05 5.09232e-06 0 1.16689e-05 4.71123e-06 0 1.05178e-05 4.35703e-06 0 9.45907e-06 4.0311e-06 0 8.4826e-06 3.73473e-06 0 7.5794e-06 3.46717e-06 0 6.74122e-06 3.22761e-06 0 5.96054e-06 3.01466e-06 0 5.23044e-06 2.82697e-06 0 4.54452e-06 2.6631e-06 0 3.89682e-06 2.52176e-06 0 3.28178e-06 2.40175e-06 0 2.69415e-06 2.302e-06 0 2.12896e-06 2.22161e-06 0 1.58147e-06 2.15986e-06 0 1.04709e-06 2.11615e-06 0 5.21386e-07 2.0901e-06 0 0 2.08144e-06 0 -8.08269e-05 -8.33515e-05 0 5.46226e-05 -8.02526e-05 0 5.71218e-05 -2.32087e-05 0 4.67372e-05 -6.30342e-06 0 3.93842e-05 1.94378e-06 0 3.37423e-05 5.40603e-06 0 2.96915e-05 7.08687e-06 0 2.63238e-05 7.7548e-06 0 2.36054e-05 7.84913e-06 0 2.12213e-05 7.67326e-06 0 1.91595e-05 7.31349e-06 0 1.73078e-05 6.89072e-06 0 1.56529e-05 6.42852e-06 0 1.41503e-05 5.97146e-06 0 1.27866e-05 5.52717e-06 0 1.15402e-05 5.11038e-06 0 1.03993e-05 4.72284e-06 0 9.35074e-06 4.36821e-06 0 8.38462e-06 4.0458e-06 0 7.49134e-06 3.7554e-06 0 6.6627e-06 3.49548e-06 0 5.89104e-06 3.26465e-06 0 5.16948e-06 3.06126e-06 0 4.49161e-06 2.88377e-06 0 3.85152e-06 2.7307e-06 0 3.24369e-06 2.60075e-06 0 2.66293e-06 2.49276e-06 0 2.10433e-06 2.40574e-06 0 1.56319e-06 2.33889e-06 0 1.035e-06 2.29158e-06 0 5.1537e-07 2.26338e-06 0 0 2.25401e-06 0 7.14015e-07 -0.000276123 0 9.1558e-05 -8.15574e-05 0 6.02457e-05 -1.86751e-05 0 5.43615e-05 -2.57591e-06 0 3.86396e-05 4.22601e-06 0 3.57517e-05 7.0829e-06 0 2.92879e-05 8.36848e-06 0 2.67831e-05 8.7719e-06 0 2.33555e-05 8.71885e-06 0 2.12168e-05 8.41083e-06 0 1.89567e-05 7.97179e-06 0 1.71765e-05 7.47158e-06 0 1.54749e-05 6.95511e-06 0 1.39991e-05 6.44596e-06 0 1.26324e-05 5.96046e-06 0 1.14019e-05 5.50538e-06 0 1.02696e-05 5.08548e-06 0 9.23375e-06 4.70144e-06 0 8.27832e-06 4.35345e-06 0 7.3962e-06 4.04016e-06 0 6.57781e-06 3.76015e-06 0 5.816e-06 3.51158e-06 0 5.10366e-06 3.29269e-06 0 4.43451e-06 3.10171e-06 0 3.80264e-06 2.93708e-06 0 3.2026e-06 2.79732e-06 0 2.62926e-06 2.68119e-06 0 2.07776e-06 2.58763e-06 0 1.54348e-06 2.51575e-06 0 1.02196e-06 2.46489e-06 0 5.08881e-07 2.43457e-06 0 0 2.42449e-06 0 -0.00107156 -0.000688359 0 9.89808e-05 -5.52197e-05 0 0.000117278 -1.19208e-05 0 2.80705e-05 2.60227e-06 0 5.59484e-05 6.70049e-06 0 2.76224e-05 9.00815e-06 0 3.4083e-05 9.70777e-06 0 2.4367e-05 9.85759e-06 0 2.45228e-05 9.60358e-06 0 2.0418e-05 9.17115e-06 0 1.91156e-05 8.63046e-06 0 1.68259e-05 8.05835e-06 0 1.53778e-05 7.47789e-06 0 1.37833e-05 6.91965e-06 0 1.24889e-05 6.38912e-06 0 1.12403e-05 5.8972e-06 0 1.0135e-05 5.44365e-06 0 9.10511e-06 5.03094e-06 0 8.16513e-06 4.65709e-06 0 7.29346e-06 4.32131e-06 0 6.48686e-06 4.02128e-06 0 5.73539e-06 3.75523e-06 0 5.03308e-06 3.521e-06 0 4.37326e-06 3.31675e-06 0 3.75022e-06 3.14068e-06 0 3.15854e-06 2.99127e-06 0 2.59315e-06 2.86712e-06 0 2.04928e-06 2.76711e-06 0 1.52235e-06 2.69028e-06 0 1.00799e-06 2.63592e-06 0 5.01926e-07 2.60351e-06 0 0 2.59274e-06 0 0.00854741 0.000980466 0 0.000350062 -0.000105394 0 -0.000169593 1.91734e-05 0 0.000204348 2.22289e-06 0 -3.91086e-05 1.13209e-05 0 7.94061e-05 1.06899e-05 0 6.84477e-06 1.10359e-05 0 3.86225e-05 1.11593e-05 0 1.69261e-05 1.03528e-05 0 2.40669e-05 1.00545e-05 0 1.6957e-05 9.21983e-06 0 1.76082e-05 8.69048e-06 0 1.46842e-05 7.97174e-06 0 1.38371e-05 7.40539e-06 0 1.21926e-05 6.8049e-06 0 1.11339e-05 6.28947e-06 0 9.95849e-06 5.79469e-06 0 8.98204e-06 5.3575e-06 0 8.03736e-06 4.95574e-06 0 7.18652e-06 4.59888e-06 0 6.38855e-06 4.27843e-06 0 5.64979e-06 3.99546e-06 0 4.95763e-06 3.74592e-06 0 4.30795e-06 3.52868e-06 0 3.69433e-06 3.34132e-06 0 3.11155e-06 3.18241e-06 0 2.55468e-06 3.05037e-06 0 2.0189e-06 2.94401e-06 0 1.49983e-06 2.86231e-06 0 9.93083e-07 2.80451e-06 0 4.94517e-07 2.77005e-06 0 0 2.7586e-06 0 </DataArray> 
</PointData> 
<Points> 
<DataArray type="Float32" NumberOfComponents="3"> 