<?xml version="1.0"?> 
<VTKFile type="StructuredGrid" version="0.1"> 
<StructuredGrid WholeExtent="0 31 0 31 0 0"> 
<Piece Extent="0 31 0 31 0 0"> 
<PointData>
<DataArray type="Float32" Name="B" format="ascii" NumberOfComponents="3"> 
5.77773e-05 -8.55594e-05 0 4.94e-05 -5.86472e-05 0 4.71793e-05 -5.10145e-05 0 4.53636e-05 -4.52797e-05 0 4.26777e-05 -4.09388e-05 0 4.04198e-05 -3.72829e-05 0 3.79823e-05 -3.41513e-05 0 3.57377e-05 -3.14042e-05 0 3.3511e-05 -2.89617e-05 0 3.14026e-05 -2.67758e-05 0 2.93632e-05 -2.48043e-05 0 2.74168e-05 -2.3022e-05 0 2.55478e-05 -2.14048e-05 0 2.37591e-05 -1.99362e-05 0 2.20434e-05 -1.8601e-05 0 2.03981e-05 -1.73876e-05 0 1.8818e-05 -1.62853e-05 0 1.72988e-05 -1.52858e-05 0 1.58359e-05 -1.43812e-05 0 1.44248e-05 -1.35653e-05 0 1.30611e-05 -1.28323e-05 0 1.17404e-05 -1.21774e-05 0 1.04585e-05 -1.15963e-05 0 9.2111e-06 -1.10854e-05 0 7.99416e-06 -1.06414e-05 0 6.80366e-06 -1.02618e-05 0 5.63568e-06 -9.94418e-06 0 4.48633e-06 -9.6868e-06 0 3.35183e-06 -9.48812e-06 0 2.22841e-06 -9.34701e-06 0 1.11237e-06 -9.26266e-06 0 0 -9.2346e-06 0 6.706e-05 -6.73022e-05 0 5.63464e-05 -5.67185e-05 0 5.18423e-05 -4.89267e-05 0 4.84126e-05 -4.34646e-05 0 4.54085e-05 -3.91529e-05 0 4.2586e-05 -3.55807e-05 0 3.99412e-05 -3.25167e-05 0 3.74237e-05 -2.98377e-05 0 3.50358e-05 -2.74645e-05 0 3.27601e-05 -2.53431e-05 0 3.05938e-05 -2.34358e-05 0 2.85278e-05 -2.17133e-05 0 2.6557e-05 -2.01537e-05 0 2.46749e-05 -1.87389e-05 0 2.28758e-05 -1.74545e-05 0 2.1154e-05 -1.62884e-05 0 1.95038e-05 -1.52302e-05 0 1.79199e-05 -1.42713e-05 0 1.63969e-05 -1.34043e-05 0 1.49297e-05 -1.26227e-05 0 1.35135e-05 -1.19209e-05 0 1.21432e-05 -1.12942e-05 0 1.08143e-05 -1.07383e-05 0 9.52218e-06 -1.02497e-05 0 8.26244e-06 -9.82529e-06 0 7.03075e-06 -9.46245e-06 0 5.82293e-06 -9.15899e-06 0 4.63485e-06 -8.91308e-06 0 3.46248e-06 -8.72329e-06 0 2.30183e-06 -8.58851e-06 0 1.14897e-06 -8.50795e-06 0 0 -8.48115e-06 0 7.07568e-05 -5.82065e-05 0 6.16222e-05 -5.21389e-05 0 5.57901e-05 -4.60576e-05 0 5.15128e-05 -4.11138e-05 0 4.79366e-05 -3.70641e-05 0 4.4742e-05 -3.36533e-05 0 4.18074e-05 -3.07132e-05 0 3.90713e-05 -2.81376e-05 0 3.65006e-05 -2.58553e-05 0 3.40742e-05 -2.38165e-05 0 3.1777e-05 -2.19849e-05 0 2.95976e-05 -2.03327e-05 0 2.75261e-05 -1.88382e-05 0 2.5554e-05 -1.74839e-05 0 2.36737e-05 -1.62556e-05 0 2.1878e-05 -1.51413e-05 0 2.01601e-05 -1.4131e-05 0 1.85138e-05 -1.32162e-05 0 1.69331e-05 -1.23895e-05 0 1.54121e-05 -1.16446e-05 0 1.39454e-05 -1.09762e-05 0 1.25276e-05 -1.03795e-05 0 1.11538e-05 -9.85041e-06 0 9.81887e-06 -9.38553e-06 0 8.51823e-06 -8.98183e-06 0 7.24724e-06 -8.63677e-06 0 6.00141e-06 -8.34823e-06 0 4.77639e-06 -8.11445e-06 0 3.56792e-06 -7.93404e-06 0 2.37178e-06 -7.80593e-06 0 1.18385e-06 -7.72936e-06 0 0 -7.70388e-06 0 7.34421e-05 -5.15693e-05 0 6.53087e-05 -4.73273e-05 0 5.91289e-05 -4.26322e-05 0 5.43204e-05 -3.83724e-05 0 5.03079e-05 -3.46959e-05 0 4.67822e-05 -3.15199e-05 0 4.35887e-05 -2.87495e-05 0 4.06447e-05 -2.6308e-05 0 3.79023e-05 -2.41385e-05 0 3.53306e-05 -2.21983e-05 0 3.29083e-05 -2.04547e-05 0 3.06194e-05 -1.88822e-05 0 2.84511e-05 -1.74605e-05 0 2.63925e-05 -1.6173e-05 0 2.4434e-05 -1.5006e-05 0 2.25674e-05 -1.39481e-05 0 2.07847e-05 -1.29894e-05 0 1.90787e-05 -1.21219e-05 0 1.74427e-05 -1.13383e-05 0 1.58703e-05 -1.06326e-05 0 1.43555e-05 -9.99961e-06 0 1.28925e-05 -9.43472e-06 0 1.14759e-05 -8.93403e-06 0 1.01004e-05 -8.49419e-06 0 8.76087e-06 -8.11232e-06 0 7.45254e-06 -7.78599e-06 0 6.17064e-06 -7.51315e-06 0 4.91059e-06 -7.29212e-06 0 3.66788e-06 -7.12156e-06 0 2.4381e-06 -7.00045e-06 0 1.21691e-06 -6.92807e-06 0 0 -6.904e-06 0 7.55045e-05 -4.59342e-05 0 6.80548e-05 -4.26755e-05 0 6.18724e-05 -3.89661e-05 0 5.67883e-05 -3.53661e-05 0 5.24709e-05 -3.21047e-05 0 4.86782e-05 -2.92077e-05 0 4.52607e-05 -2.66406e-05 0 4.21295e-05 -2.43583e-05 0 3.92285e-05 -2.23204e-05 0 3.65208e-05 -2.0493e-05 0 3.39805e-05 -1.88487e-05 0 3.15878e-05 -1.7365e-05 0 2.93274e-05 -1.60234e-05 0 2.71864e-05 -1.48087e-05 0 2.51536e-05 -1.37081e-05 0 2.32195e-05 -1.27108e-05 0 2.13751e-05 -1.18074e-05 0 1.96125e-05 -1.09903e-05 0 1.79241e-05 -1.02525e-05 0 1.6303e-05 -9.58838e-06 0 1.47426e-05 -8.99279e-06 0 1.32368e-05 -8.46145e-06 0 1.17798e-05 -7.99063e-06 0 1.03658e-05 -7.57711e-06 0 8.98966e-06 -7.21816e-06 0 7.6461e-06 -6.91145e-06 0 6.33018e-06 -6.65505e-06 0 5.03708e-06 -6.44737e-06 0 3.76209e-06 -6.28712e-06 0 2.50059e-06 -6.17334e-06 0 1.24806e-06 -6.10534e-06 0 0 -6.08272e-06 0 7.71712e-05 -4.0815e-05 0 7.01961e-05 -3.82233e-05 0 6.41253e-05 -3.52289e-05 0 5.89208e-05 -3.21999e-05 0 5.44062e-05 -2.93489e-05 0 5.04103e-05 -2.67486e-05 0 4.68074e-05 -2.44054e-05 0 4.35128e-05 -2.23005e-05 0 4.04693e-05 -2.04091e-05 0 3.76371e-05 -1.87067e-05 0 3.49872e-05 -1.71715e-05 0 3.24976e-05 -1.57847e-05 0 3.01507e-05 -1.453e-05 0 2.79322e-05 -1.33939e-05 0 2.58295e-05 -1.23644e-05 0 2.38318e-05 -1.14318e-05 0 2.19293e-05 -1.05872e-05 0 2.01133e-05 -9.82346e-06 0 1.83756e-05 -9.13411e-06 0 1.67086e-05 -8.51369e-06 0 1.51055e-05 -7.95746e-06 0 1.35595e-05 -7.46133e-06 0 1.20645e-05 -7.02178e-06 0 1.06145e-05 -6.6358e-06 0 9.20396e-06 -6.30079e-06 0 7.82738e-06 -6.01458e-06 0 6.47958e-06 -5.77533e-06 0 5.15552e-06 -5.58155e-06 0 3.8503e-06 -5.43204e-06 0 2.55911e-06 -5.32589e-06 0 1.27723e-06 -5.26245e-06 0 0 -5.24134e-06 0 7.85339e-05 -3.60656e-05 0 7.19184e-05 -3.39504e-05 0 6.5986e-05 -3.14962e-05 0 6.0748e-05 -2.89475e-05 0 5.61138e-05 -2.64784e-05 0 5.19699e-05 -2.41742e-05 0 4.82184e-05 -2.2064e-05 0 4.47855e-05 -2.01478e-05 0 4.16168e-05 -1.84138e-05 0 3.86726e-05 -1.68462e-05 0 3.59228e-05 -1.54285e-05 0 3.3344e-05 -1.41457e-05 0 3.09172e-05 -1.29841e-05 0 2.86266e-05 -1.19316e-05 0 2.64587e-05 -1.09778e-05 0 2.44018e-05 -1.01136e-05 0 2.24451e-05 -9.33116e-06 0 2.05793e-05 -8.62362e-06 0 1.87956e-05 -7.9851e-06 0 1.7086e-05 -7.41051e-06 0 1.5443e-05 -6.89544e-06 0 1.38596e-05 -6.43608e-06 0 1.23292e-05 -6.02916e-06 0 1.08457e-05 -5.67185e-06 0 9.40316e-06 -5.36176e-06 0 7.99587e-06 -5.09684e-06 0 6.61844e-06 -4.87541e-06 0 5.2656e-06 -4.69607e-06 0 3.93228e-06 -4.5577e-06 0 2.61349e-06 -4.45946e-06 0 1.30434e-06 -4.40076e-06 0 0 -4.38123e-06 0 7.96612e-05 -3.15735e-05 0 7.33276e-05 -2.98311e-05 0 6.75329e-05 -2.78006e-05 0 6.23061e-05 -2.5655e-05 0 5.76046e-05 -2.35315e-05 0 5.33563e-05 -2.15122e-05 0 4.9489e-05 -1.96357e-05 0 4.59414e-05 -1.7914e-05 0 4.26651e-05 -1.63447e-05 0 3.96221e-05 -1.49191e-05 0 3.67828e-05 -1.36257e-05 0 3.4123e-05 -1.2453e-05 0 3.16232e-05 -1.13897e-05 0 2.92665e-05 -1.04256e-05 0 2.70387e-05 -9.55144e-06 0 2.49272e-05 -8.75923e-06 0 2.29206e-05 -8.04186e-06 0 2.10089e-05 -7.39314e-06 0 1.91828e-05 -6.80771e-06 0 1.74338e-05 -6.28091e-06 0 1.5754e-05 -5.80869e-06 0 1.41361e-05 -5.38755e-06 0 1.25732e-05 -5.0145e-06 0 1.10588e-05 -4.68694e-06 0 9.5867e-06 -4.40266e-06 0 8.15111e-06 -4.1598e-06 0 6.74636e-06 -3.95681e-06 0 5.36702e-06 -3.7924e-06 0 4.00781e-06 -3.66555e-06 0 2.66359e-06 -3.57549e-06 0 1.32932e-06 -3.52166e-06 0 0 -3.50376e-06 0 8.05993e-05 -2.72879e-05 0 7.44918e-05 -2.58412e-05 0 6.88233e-05 -2.41536e-05 0 6.36292e-05 -2.23496e-05 0 5.8894e-05 -2.05361e-05 0 5.45742e-05 -1.87854e-05 0 5.06181e-05 -1.7138e-05 0 4.69773e-05 -1.56121e-05 0 4.361e-05 -1.42116e-05 0 4.04814e-05 -1.29331e-05 0 3.75631e-05 -1.17694e-05 0 3.48312e-05 -1.07118e-05 0 3.22657e-05 -9.75134e-06 0 2.98493e-05 -8.8796e-06 0 2.75672e-05 -8.08871e-06 0 2.5406e-05 -7.37162e-06 0 2.3354e-05 -6.72208e-06 0 2.14005e-05 -6.13458e-06 0 1.95357e-05 -5.60431e-06 0 1.77508e-05 -5.12708e-06 0 1.60375e-05 -4.69926e-06 0 1.43881e-05 -4.31768e-06 0 1.27956e-05 -3.97964e-06 0 1.1253e-05 -3.6828e-06 0 9.75404e-06 -3.42517e-06 0 8.29266e-06 -3.20506e-06 0 6.86301e-06 -3.02107e-06 0 5.45949e-06 -2.87204e-06 0 4.07668e-06 -2.75705e-06 0 2.70928e-06 -2.67541e-06 0 1.35209e-06 -2.62662e-06 0 0 -2.61039e-06 0 8.13815e-05 -2.31619e-05 0 7.54576e-05 -2.19598e-05 0 6.99001e-05 -2.05571e-05 0 6.47469e-05 -1.90466e-05 0 5.99985e-05 -1.75111e-05 0 5.56306e-05 -1.60114e-05 0 5.16076e-05 -1.45857e-05 0 4.78921e-05 -1.3254e-05 0 4.44491e-05 -1.20241e-05 0 4.12476e-05 -1.08961e-05 0 3.82608e-05 -9.86585e-06 0 3.54656e-05 -8.92732e-06 0 3.2842e-05 -8.07359e-06 0 3.03726e-05 -7.29774e-06 0 2.80419e-05 -6.59323e-06 0 2.58364e-05 -5.95403e-06 0 2.37437e-05 -5.37476e-06 0 2.17526e-05 -4.85061e-06 0 1.98532e-05 -4.37736e-06 0 1.8036e-05 -3.95132e-06 0 1.62926e-05 -3.56929e-06 0 1.4615e-05 -3.22849e-06 0 1.29957e-05 -2.9265e-06 0 1.14278e-05 -2.66126e-06 0 9.9047e-06 -2.43102e-06 0 8.42011e-06 -2.23428e-06 0 6.96805e-06 -2.0698e-06 0 5.54277e-06 -1.93656e-06 0 4.13871e-06 -1.83375e-06 0 2.75043e-06 -1.76075e-06 0 1.37261e-06 -1.71712e-06 0 0 -1.7026e-06 0 8.20343e-05 -1.91656e-05 0 7.62582e-05 -1.81682e-05 0 7.0795e-05 -1.70079e-05 0 6.56834e-05 -1.57535e-05 0 6.09333e-05 -1.44689e-05 0 5.65335e-05 -1.32036e-05 0 5.24606e-05 -1.19909e-05 0 4.86861e-05 -1.08503e-05 0 4.51811e-05 -9.79109e-06 0 4.19185e-05 -8.81546e-06 0 3.88734e-05 -7.92154e-06 0 3.60238e-05 -7.10519e-06 0 3.33499e-05 -6.36124e-06 0 3.08342e-05 -5.6842e-06 0 2.84611e-05 -5.06874e-06 0 2.62167e-05 -4.50985e-06 0 2.40882e-05 -4.00297e-06 0 2.20641e-05 -3.54404e-06 0 2.01341e-05 -3.12945e-06 0 1.82886e-05 -2.75603e-06 0 1.65186e-05 -2.42103e-06 0 1.4816e-05 -2.12205e-06 0 1.31731e-05 -1.85703e-06 0 1.15828e-05 -1.62418e-06 0 1.00383e-05 -1.422e-06 0 8.53311e-06 -1.24918e-06 0 7.0612e-06 -1.10467e-06 0 5.61664e-06 -9.87577e-07 0 4.19373e-06 -8.97211e-07 0 2.78693e-06 -8.33038e-07 0 1.3908e-06 -7.94681e-07 0 0 -7.81921e-07 0 8.2577e-05 -1.5271e-05 0 7.6918e-05 -1.44497e-05 0 7.15321e-05 -1.35e-05 0 6.64581e-05 -1.24731e-05 0 6.17119e-05 -1.14174e-05 0 5.7291e-05 -1.03716e-05 0 5.31808e-05 -9.36341e-06 0 4.93603e-05 -8.41013e-06 0 4.58056e-05 -7.52072e-06 0 4.24929e-05 -6.69842e-06 0 3.93994e-05 -5.94269e-06 0 3.6504e-05 -5.25087e-06 0 3.37875e-05 -4.61915e-06 0 3.12325e-05 -4.04332e-06 0 2.88233e-05 -3.51914e-06 0 2.65455e-05 -3.04258e-06 0 2.43863e-05 -2.60991e-06 0 2.23339e-05 -2.21779e-06 0 2.03776e-05 -1.86326e-06 0 1.85075e-05 -1.54368e-06 0 1.67146e-05 -1.25677e-06 0 1.49904e-05 -1.00055e-06 0 1.33271e-05 -7.73279e-07 0 1.17174e-05 -5.73493e-07 0 1.01543e-05 -3.99925e-07 0 8.63135e-06 -2.51508e-07 0 7.1422e-06 -1.27349e-07 0 5.68088e-06 -2.672e-08 0 4.24159e-06 5.09619e-08 0 2.81868e-06 1.06139e-07 0 1.40664e-06 1.39122e-07 0 0 1.50095e-07 0 8.30249e-05 -1.14559e-05 0 7.74552e-05 -1.07887e-05 0 7.21294e-05 -1.00261e-05 0 6.70861e-05 -9.20505e-06 0 6.23452e-05 -8.36074e-06 0 5.791e-05 -7.5223e-06 0 5.37723e-05 -6.71115e-06 0 4.99164e-05 -5.94124e-06 0 4.63226e-05 -5.22034e-06 0 4.29699e-05 -4.55167e-06 0 3.98374e-05 -3.93539e-06 0 3.69048e-05 -3.36981e-06 0 3.41535e-05 -2.85223e-06 0 3.15662e-05 -2.3795e-06 0 2.9127e-05 -1.9484e-06 0 2.68217e-05 -1.55581e-06 0 2.4637e-05 -1.19884e-06 0 2.2561e-05 -8.74864e-07 0 2.05827e-05 -5.81548e-07 0 1.86922e-05 -3.16827e-07 0 1.68801e-05 -7.88949e-08 0 1.51378e-05 1.33819e-07 0 1.34573e-05 3.22675e-07 0 1.18313e-05 4.8884e-07 0 1.02526e-05 6.33314e-07 0 8.71457e-06 7.56938e-07 0 7.21085e-06 8.60417e-07 0 5.73535e-06 9.44328e-07 0 4.28218e-06 1.00913e-06 0 2.84562e-06 1.05517e-06 0 1.42007e-06 1.0827e-06 0 0 1.09186e-06 0 8.33892e-05 -7.69918e-06 0 7.78829e-05 -7.17052e-06 0 7.25999e-05 -6.5781e-06 0 6.75789e-05 -5.94698e-06 0 6.28419e-05 -5.3011e-06 0 5.83964e-05 -4.6605e-06 0 5.42383e-05 -4.04022e-06 0 5.03559e-05 -3.45033e-06 0 4.67325e-05 -2.89659e-06 0 4.33492e-05 -2.38154e-06 0 4.01865e-05 -1.90551e-06 0 3.72251e-05 -1.4674e-06 0 3.44467e-05 -1.06536e-06 0 3.1834e-05 -6.97184e-07 0 2.93714e-05 -3.60554e-07 0 2.70443e-05 -5.32296e-08 0 2.48394e-05 2.2688e-07 0 2.27447e-05 4.81676e-07 0 2.0749e-05 7.12856e-07 0 1.88421e-05 9.21919e-07 0 1.70145e-05 1.11018e-06 0 1.52577e-05 1.27878e-06 0 1.35634e-05 1.4287e-06 0 1.19242e-05 1.56081e-06 0 1.03328e-05 1.67581e-06 0 8.78255e-06 1.77433e-06 0 7.26696e-06 1.85687e-06 0 5.7799e-06 1.92386e-06 0 4.31539e-06 1.97563e-06 0 2.86767e-06 2.01243e-06 0 1.43107e-06 2.03444e-06 0 0 2.04176e-06 0 8.3678e-05 -3.9818e-06 0 7.82105e-05 -3.58084e-06 0 7.29532e-05 -3.14719e-06 0 6.79447e-05 -2.69527e-06 0 6.32086e-05 -2.23884e-06 0 5.87546e-05 -1.78938e-06 0 5.45816e-05 -1.35557e-06 0 5.06801e-05 -9.43179e-07 0 4.70355e-05 -5.55522e-07 0 4.36305e-05 -1.94006e-07 0 4.04463e-05 1.41277e-07 0 3.74642e-05 4.51064e-07 0 3.46662e-05 7.36553e-07 0 3.20353e-05 9.99149e-07 0 2.95556e-05 1.24031e-06 0 2.72127e-05 1.46144e-06 0 2.4993e-05 1.66384e-06 0 2.28845e-05 1.8487e-06 0 2.08758e-05 2.01708e-06 0 1.89567e-05 2.1699e-06 0 1.71176e-05 2.30798e-06 0 1.53498e-05 2.43203e-06 0 1.36451e-05 2.54265e-06 0 1.19958e-05 2.64037e-06 0 1.03948e-05 2.72563e-06 0 8.83513e-06 2.79882e-06 0 7.31042e-06 2.86024e-06 0 5.81443e-06 2.91016e-06 0 4.34116e-06 2.94878e-06 0 2.88478e-06 2.97626e-06 0 1.4396e-06 2.9927e-06 0 0 2.99817e-06 0 8.38966e-05 -2.85327e-07 0 7.8444e-05 -5.81002e-09 0 7.3195e-05 2.75677e-07 0 6.81886e-05 5.54544e-07 0 6.34492e-05 8.26677e-07 0 5.89876e-05 1.08883e-06 0 5.48039e-05 1.33874e-06 0 5.089e-05 1.57506e-06 0 4.72321e-05 1.79723e-06 0 4.38136e-05 2.00523e-06 0 4.06162e-05 2.19942e-06 0 3.76215e-05 2.38034e-06 0 3.48116e-05 2.54864e-06 0 3.21694e-05 2.70501e-06 0 2.96792e-05 2.85007e-06 0 2.73263e-05 2.98442e-06 0 2.50973e-05 3.10859e-06 0 2.29799e-05 3.22305e-06 0 2.09628e-05 3.32821e-06 0 1.90357e-05 3.42443e-06 0 1.71891e-05 3.51202e-06 0 1.5414e-05 3.59124e-06 0 1.37022e-05 3.66232e-06 0 1.20461e-05 3.72546e-06 0 1.04383e-05 3.78081e-06 0 8.8722e-06 3.82853e-06 0 7.34112e-06 3.86872e-06 0 5.83887e-06 3.90148e-06 0 4.35942e-06 3.92688e-06 0 2.89692e-06 3.94498e-06 0 1.44566e-06 3.95583e-06 0 0 3.95944e-06 0 8.40476e-05 3.40809e-06 0 7.85861e-05 3.56833e-06 0 7.33282e-05 3.69974e-06 0 6.83132e-05 3.8074e-06 0 6.35656e-05 3.89668e-06 0 5.90966e-05 3.97254e-06 0 5.4906e-05 4.03913e-06 0 5.09858e-05 4.09963e-06 0 4.73223e-05 4.15631e-06 0 4.38985e-05 4.21063e-06 0 4.06962e-05 4.26345e-06 0 3.76968e-05 4.31522e-06 0 3.48825e-05 4.36604e-06 0 3.22361e-05 4.41589e-06 0 2.97417e-05 4.46459e-06 0 2.73848e-05 4.51192e-06 0 2.5152e-05 4.55765e-06 0 2.30308e-05 4.60152e-06 0 2.10099e-05 4.64331e-06 0 1.90791e-05 4.68279e-06 0 1.72287e-05 4.71977e-06 0 1.545e-05 4.75407e-06 0 1.37345e-05 4.78552e-06 0 1.20748e-05 4.814e-06 0 1.04634e-05 4.83939e-06 0 8.8937e-06 4.86158e-06 0 7.35902e-06 4.8805e-06 0 5.85318e-06 4.89606e-06 0 4.37015e-06 4.90822e-06 0 2.90407e-06 4.91694e-06 0 1.44924e-06 4.92218e-06 0 0 4.92393e-06 0 8.41312e-05 7.11634e-06 0 7.86369e-05 7.15535e-06 0 7.33526e-05 7.13436e-06 0 6.83182e-05 7.0684e-06 0 6.35578e-05 6.97261e-06 0 5.90814e-05 6.86032e-06 0 5.48878e-05 6.74217e-06 0 5.09675e-05 6.62585e-06 0 4.73058e-05 6.51639e-06 0 4.38849e-05 6.41666e-06 0 4.06859e-05 6.32795e-06 0 3.76899e-05 6.2505e-06 0 3.48787e-05 6.18387e-06 0 3.22352e-05 6.12727e-06 0 2.97433e-05 6.07971e-06 0 2.73884e-05 6.04013e-06 0 2.51571e-05 6.00753e-06 0 2.30371e-05 5.98092e-06 0 2.10171e-05 5.95944e-06 0 1.90868e-05 5.94227e-06 0 1.72366e-05 5.92872e-06 0 1.54578e-05 5.91816e-06 0 1.37422e-05 5.91005e-06 0 1.2082e-05 5.90393e-06 0 1.04701e-05 5.89939e-06 0 8.89962e-06 5.8961e-06 0 7.36412e-06 5.89376e-06 0 5.85736e-06 5.89216e-06 0 4.37334e-06 5.89109e-06 0 2.90623e-06 5.89044e-06 0 1.45033e-06 5.89008e-06 0 0 5.88997e-06 0 8.41451e-05 1.08575e-05 0 7.85934e-05 1.07692e-05 0 7.32652e-05 1.05889e-05 0 6.82007e-05 1.03426e-05 0 6.3423e-05 1.00557e-05 0 5.894e-05 9.75054e-06 0 5.47477e-05 9.44425e-06 0 5.08341e-05 9.14891e-06 0 4.71822e-05 8.87207e-06 0 4.37726e-05 8.61774e-06 0 4.05854e-05 8.38741e-06 0 3.7601e-05 8.18095e-06 0 3.48006e-05 7.99724e-06 0 3.21669e-05 7.83464e-06 0 2.9684e-05 7.69128e-06 0 2.7337e-05 7.56526e-06 0 2.51128e-05 7.45475e-06 0 2.2999e-05 7.35806e-06 0 2.09844e-05 7.27365e-06 0 1.90589e-05 7.20014e-06 0 1.72129e-05 7.13634e-06 0 1.54377e-05 7.08116e-06 0 1.37252e-05 7.0337e-06 0 1.20678e-05 6.99315e-06 0 1.04583e-05 6.95884e-06 0 8.89003e-06 6.93018e-06 0 7.35646e-06 6.90671e-06 0 5.85145e-06 6.88802e-06 0 4.36904e-06 6.87379e-06 0 2.90342e-06 6.8638e-06 0 1.44894e-06 6.85787e-06 0 0 6.85591e-06 0 8.40842e-05 1.46505e-05 0 7.84497e-05 1.44242e-05 0 7.30596e-05 1.40728e-05 0 6.79549e-05 1.36345e-05 0 6.31566e-05 1.31467e-05 0 5.8669e-05 1.2641e-05 0 5.44835e-05 1.21412e-05 0 5.05842e-05 1.16636e-05 0 4.69508e-05 1.12176e-05 0 4.35616e-05 1.08081e-05 0 4.03949e-05 1.04362e-05 0 3.74303e-05 1.01013e-05 0 3.46485e-05 9.80122e-06 0 3.20318e-05 9.53345e-06 0 2.95643e-05 9.29515e-06 0 2.72313e-05 9.08349e-06 0 2.50195e-05 8.89584e-06 0 2.29168e-05 8.72974e-06 0 2.09122e-05 8.58302e-06 0 1.89956e-05 8.45372e-06 0 1.71576e-05 8.34013e-06 0 1.53897e-05 8.24075e-06 0 1.36837e-05 8.15428e-06 0 1.20323e-05 8.07961e-06 0 1.04283e-05 8.01578e-06 0 8.86501e-06 7.96198e-06 0 7.33612e-06 7.91753e-06 0 5.83551e-06 7.88189e-06 0 4.35727e-06 7.85461e-06 0 2.89566e-06 7.83536e-06 0 1.44508e-06 7.82391e-06 0 0 7.8201e-06 0 8.39408e-05 1.8515e-05 0 7.81964e-05 1.81353e-05 0 7.27261e-05 1.75953e-05 0 6.7572e-05 1.69482e-05 0 6.27516e-05 1.62453e-05 0 5.82632e-05 1.55283e-05 0 5.4092e-05 1.4828e-05 0 5.02161e-05 1.41639e-05 0 4.66109e-05 1.35468e-05 0 4.32516e-05 1.29815e-05 0 4.01147e-05 1.24685e-05 0 3.71784e-05 1.2006e-05 0 3.4423e-05 1.15908e-05 0 3.18305e-05 1.12192e-05 0 2.93849e-05 1.08872e-05 0 2.70717e-05 1.05911e-05 0 2.48777e-05 1.03274e-05 0 2.27911e-05 1.00928e-05 0 2.0801e-05 9.88466e-06 0 1.88974e-05 9.70033e-06 0 1.70713e-05 9.53761e-06 0 1.53142e-05 9.3946e-06 0 1.36181e-05 9.26963e-06 0 1.19757e-05 9.16126e-06 0 1.03801e-05 9.06826e-06 0 8.82473e-06 8.98962e-06 0 7.30323e-06 8.92445e-06 0 5.80963e-06 8.87206e-06 0 4.33811e-06 8.83187e-06 0 2.88301e-06 8.80347e-06 0 1.43879e-06 8.78655e-06 0 0 8.78093e-06 0 8.3704e-05 2.24735e-05 0 7.78198e-05 2.19181e-05 0 7.22508e-05 2.11651e-05 0 6.70396e-05 2.02862e-05 0 6.21983e-05 1.93494e-05 0 5.77161e-05 1.84078e-05 0 5.35691e-05 1.74983e-05 0 4.97277e-05 1.66429e-05 0 4.61618e-05 1.58528e-05 0 4.2843e-05 1.51316e-05 0 3.97455e-05 1.44784e-05 0 3.68463e-05 1.38898e-05 0 3.41251e-05 1.33611e-05 0 3.1564e-05 1.28873e-05 0 2.91467e-05 1.24633e-05 0 2.68591e-05 1.20843e-05 0 2.46883e-05 1.17459e-05 0 2.26225e-05 1.14442e-05 0 2.06513e-05 1.11757e-05 0 1.87649e-05 1.09373e-05 0 1.69544e-05 1.07264e-05 0 1.52115e-05 1.05405e-05 0 1.35286e-05 1.03776e-05 0 1.18984e-05 1.02361e-05 0 1.03142e-05 1.01144e-05 0 8.76938e-06 1.00113e-05 0 7.25795e-06 9.9257e-06 0 5.77395e-06 9.8568e-06 0 4.31166e-06 9.8039e-06 0 2.86552e-06 9.76648e-06 0 1.43009e-06 9.74417e-06 0 0 9.73676e-06 0 8.33586e-05 2.65495e-05 0 7.73015e-05 2.57896e-05 0 7.16147e-05 2.47904e-05 0 6.63416e-05 2.36493e-05 0 6.14847e-05 2.24546e-05 0 5.70198e-05 2.12721e-05 0 5.29103e-05 2.01438e-05 0 4.9117e-05 1.90926e-05 0 4.56031e-05 1.81279e-05 0 4.23362e-05 1.72513e-05 0 3.92882e-05 1.64594e-05 0 3.64352e-05 1.57468e-05 0 3.37563e-05 1.5107e-05 0 3.12336e-05 1.45333e-05 0 2.8851e-05 1.40194e-05 0 2.65948e-05 1.35595e-05 0 2.44522e-05 1.31482e-05 0 2.2412e-05 1.27809e-05 0 2.0464e-05 1.24534e-05 0 1.85987e-05 1.21622e-05 0 1.68074e-05 1.1904e-05 0 1.50823e-05 1.16761e-05 0 1.34157e-05 1.14761e-05 0 1.18007e-05 1.13021e-05 0 1.02306e-05 1.11523e-05 0 8.69924e-06 1.10251e-05 0 7.20049e-06 1.09195e-05 0 5.72862e-06 1.08344e-05 0 4.27803e-06 1.07691e-05 0 2.84328e-06 1.07228e-05 0 1.41902e-06 1.06952e-05 0 0 1.0686e-05 0 8.28854e-05 3.07739e-05 0 7.6616e-05 2.97682e-05 0 7.07926e-05 2.84782e-05 0 6.54571e-05 2.7035e-05 0 6.05962e-05 2.55532e-05 0 5.61655e-05 2.41114e-05 0 5.21112e-05 2.27545e-05 0 4.83823e-05 2.15033e-05 0 4.49348e-05 2.03637e-05 0 4.17322e-05 1.93332e-05 0 3.87445e-05 1.84052e-05 0 3.59468e-05 1.75715e-05 0 3.33182e-05 1.68235e-05 0 3.08409e-05 1.61527e-05 0 2.84993e-05 1.55516e-05 0 2.62799e-05 1.5013e-05 0 2.41707e-05 1.4531e-05 0 2.21606e-05 1.40999e-05 0 2.02399e-05 1.37151e-05 0 1.83995e-05 1.33724e-05 0 1.66311e-05 1.30681e-05 0 1.4927e-05 1.27993e-05 0 1.32799e-05 1.25631e-05 0 1.1683e-05 1.23574e-05 0 1.01299e-05 1.218e-05 0 8.61459e-06 1.20295e-05 0 7.1311e-06 1.19043e-05 0 5.67385e-06 1.18033e-05 0 4.23738e-06 1.17257e-05 0 2.81637e-06 1.16708e-05 0 1.40563e-06 1.1638e-05 0 0 1.16271e-05 0 8.2258e-05 3.51781e-05 0 7.57288e-05 3.38751e-05 0 6.97505e-05 3.22327e-05 0 6.43601e-05 3.04358e-05 0 5.95161e-05 2.86322e-05 0 5.51441e-05 2.69116e-05 0 5.11678e-05 2.53174e-05 0 4.75229e-05 2.38641e-05 0 4.41579e-05 2.25508e-05 0 4.1033e-05 2.13694e-05 0 3.81166e-05 2.03091e-05 0 3.53835e-05 1.93582e-05 0 3.28131e-05 1.85056e-05 0 3.0388e-05 1.77413e-05 0 2.80934e-05 1.70559e-05 0 2.59163e-05 1.64416e-05 0 2.38451e-05 1.58911e-05 0 2.18695e-05 1.53984e-05 0 1.99802e-05 1.4958e-05 0 1.81685e-05 1.45655e-05 0 1.64263e-05 1.42166e-05 0 1.47464e-05 1.3908e-05 0 1.31218e-05 1.36367e-05 0 1.15459e-05 1.34e-05 0 1.00125e-05 1.3196e-05 0 8.5158e-06 1.30225e-05 0 7.05006e-06 1.28783e-05 0 5.60984e-06 1.27619e-05 0 4.18985e-06 1.26724e-05 0 2.78491e-06 1.26089e-05 0 1.38997e-06 1.25711e-05 0 0 1.25585e-05 0 8.14426e-05 3.98169e-05 0 7.45908e-05 3.81339e-05 0 6.84427e-05 3.60535e-05 0 6.30186e-05 3.38364e-05 0 5.82265e-05 3.16718e-05 0 5.39474e-05 2.96542e-05 0 5.0078e-05 2.7817e-05 0 4.65397e-05 2.61623e-05 0 4.32749e-05 2.46791e-05 0 4.02415e-05 2.33519e-05 0 3.74074e-05 2.21643e-05 0 3.4748e-05 2.11012e-05 0 3.22434e-05 2.01487e-05 0 2.98772e-05 1.92947e-05 0 2.76353e-05 1.85288e-05 0 2.55055e-05 1.78417e-05 0 2.34771e-05 1.72256e-05 0 2.15402e-05 1.66736e-05 0 1.9686e-05 1.61798e-05 0 1.79064e-05 1.57391e-05 0 1.61939e-05 1.53472e-05 0 1.45413e-05 1.50002e-05 0 1.2942e-05 1.46948e-05 0 1.13898e-05 1.44283e-05 0 9.87881e-06 1.41982e-05 0 8.40325e-06 1.40027e-05 0 6.95768e-06 1.38399e-05 0 5.53685e-06 1.37085e-05 0 4.13563e-06 1.36074e-05 0 2.74902e-06 1.35358e-05 0 1.37209e-06 1.3493e-05 0 0 1.34788e-05 0 8.03925e-05 4.47411e-05 0 7.31297e-05 4.25739e-05 0 6.68072e-05 3.99296e-05 0 6.13952e-05 3.72085e-05 0 5.67099e-05 3.4643e-05 0 5.257e-05 3.23151e-05 0 4.88421e-05 3.02347e-05 0 4.54357e-05 2.8384e-05 0 4.22897e-05 2.67381e-05 0 3.93616e-05 2.52723e-05 0 3.66208e-05 2.39644e-05 0 3.40439e-05 2.27951e-05 0 3.16124e-05 2.1748e-05 0 2.93112e-05 2.08092e-05 0 2.71274e-05 1.99667e-05 0 2.50498e-05 1.92104e-05 0 2.30684e-05 1.85317e-05 0 2.11741e-05 1.7923e-05 0 1.93588e-05 1.7378e-05 0 1.76147e-05 1.68912e-05 0 1.59348e-05 1.64579e-05 0 1.43124e-05 1.60738e-05 0 1.27413e-05 1.57357e-05 0 1.12155e-05 1.54403e-05 0 9.72936e-06 1.51852e-05 0 8.27737e-06 1.49682e-05 0 6.85432e-06 1.47875e-05 0 5.45516e-06 1.46416e-05 0 4.07493e-06 1.45293e-05 0 2.70882e-06 1.44497e-05 0 1.35208e-06 1.44022e-05 0 0 1.43865e-05 0 7.90354e-05 5.00881e-05 0 7.12319e-05 4.72245e-05 0 6.47593e-05 4.38287e-05 0 5.94501e-05 4.05038e-05 0 5.49537e-05 3.7505e-05 0 5.1012e-05 3.48649e-05 0 4.74649e-05 3.255e-05 0 4.42169e-05 3.05147e-05 0 4.12081e-05 2.87172e-05 0 3.8399e-05 2.71227e-05 0 3.57617e-05 2.5703e-05 0 3.32753e-05 2.44348e-05 0 3.09236e-05 2.32994e-05 0 2.86932e-05 2.22809e-05 0 2.65725e-05 2.13664e-05 0 2.45514e-05 2.05447e-05 0 2.2621e-05 1.98066e-05 0 2.0773e-05 1.91441e-05 0 1.89998e-05 1.85504e-05 0 1.72944e-05 1.80196e-05 0 1.56502e-05 1.75466e-05 0 1.40608e-05 1.71272e-05 0 1.25205e-05 1.67575e-05 0 1.10236e-05 1.64345e-05 0 9.56473e-06 1.61553e-05 0 8.13863e-06 1.59177e-05 0 6.74036e-06 1.57197e-05 0 5.36505e-06 1.55598e-05 0 4.00796e-06 1.54367e-05 0 2.66446e-06 1.53495e-05 0 1.32998e-06 1.52974e-05 0 0 1.52801e-05 0 7.72803e-05 5.59963e-05 0 6.86977e-05 5.21156e-05 0 6.21907e-05 4.76711e-05 0 5.71494e-05 4.36443e-05 0 5.29569e-05 4.02046e-05 0 4.92816e-05 3.72697e-05 0 4.59565e-05 3.47414e-05 0 4.28929e-05 3.25401e-05 0 4.00385e-05 3.06064e-05 0 3.73604e-05 2.88958e-05 0 3.48356e-05 2.73744e-05 0 3.2447e-05 2.60158e-05 0 3.01811e-05 2.47988e-05 0 2.80264e-05 2.37065e-05 0 2.59733e-05 2.27248e-05 0 2.40128e-05 2.1842e-05 0 2.2137e-05 2.10481e-05 0 2.03387e-05 2.03348e-05 0 1.86108e-05 1.96949e-05 0 1.6947e-05 1.91223e-05 0 1.53411e-05 1.86116e-05 0 1.37875e-05 1.81584e-05 0 1.22805e-05 1.77587e-05 0 1.08149e-05 1.74092e-05 0 9.38551e-06 1.71069e-05 0 7.98754e-06 1.68496e-05 0 6.6162e-06 1.6635e-05 0 5.26684e-06 1.64617e-05 0 3.93495e-06 1.63282e-05 0 2.6161e-06 1.62336e-05 0 1.30589e-06 1.61771e-05 0 0 1.61583e-05 0 7.48718e-05 6.30451e-05 0 6.51615e-05 5.72058e-05 0 5.89867e-05 5.12782e-05 0 5.4486e-05 4.6517e-05 0 5.07392e-05 4.26792e-05 0 4.73989e-05 3.94953e-05 0 4.4334e-05 3.67886e-05 0 4.14766e-05 3.44474e-05 0 3.8791e-05 3.2397e-05 0 3.62539e-05 3.05851e-05 0 3.38492e-05 2.89738e-05 0 3.15644e-05 2.75339e-05 0 2.93891e-05 2.62431e-05 0 2.73147e-05 2.50832e-05 0 2.53329e-05 2.40395e-05 0 2.34365e-05 2.30998e-05 0 2.16187e-05 2.22538e-05 0 1.9873e-05 2.14928e-05 0 1.81933e-05 2.08095e-05 0 1.65738e-05 2.01974e-05 0 1.50089e-05 1.96511e-05 0 1.34934e-05 1.91659e-05 0 1.2022e-05 1.87376e-05 0 1.059e-05 1.83629e-05 0 9.19236e-06 1.80386e-05 0 7.82463e-06 1.77624e-05 0 6.48227e-06 1.75321e-05 0 5.16088e-06 1.73459e-05 0 3.85616e-06 1.72025e-05 0 2.56389e-06 1.71008e-05 0 1.27988e-06 1.70401e-05 0 0 1.70199e-05 0 7.14377e-05 7.27238e-05 0 5.99209e-05 6.20951e-05 0 5.5122e-05 5.43077e-05 0 5.1511e-05 4.89872e-05 0 4.83529e-05 4.48677e-05 0 4.53948e-05 4.15121e-05 0 4.26222e-05 3.86751e-05 0 3.99838e-05 3.62265e-05 0 3.74784e-05 3.40823e-05 0 3.50885e-05 3.21859e-05 0 3.28098e-05 3.04972e-05 0 3.0633e-05 2.89861e-05 0 2.85525e-05 2.76293e-05 0 2.65617e-05 2.64083e-05 0 2.46546e-05 2.5308e-05 0 2.28254e-05 2.4316e-05 0 2.10683e-05 2.34218e-05 0 1.9378e-05 2.26165e-05 0 1.77491e-05 2.18925e-05 0 1.61763e-05 2.12434e-05 0 1.46548e-05 2.06635e-05 0 1.31797e-05 2.0148e-05 0 1.17462e-05 1.96928e-05 0 1.03497e-05 1.92941e-05 0 8.98595e-06 1.8949e-05 0 7.65045e-06 1.86549e-05 0 6.33902e-06 1.84095e-05 0 5.0475e-06 1.82111e-05 0 3.77184e-06 1.80582e-05 0 2.50801e-06 1.79498e-05 0 1.25204e-06 1.7885e-05 0 0 1.78635e-05 0 6.10781e-05 9.11352e-05 0 5.27562e-05 6.43351e-05 0 5.05714e-05 5.64774e-05 0 4.8536e-05 5.09072e-05 0 4.57791e-05 4.67417e-05 0 4.33641e-05 4.32996e-05 0 4.08218e-05 4.03917e-05 0 3.84471e-05 3.78723e-05 0 3.61066e-05 3.56577e-05 0 3.38777e-05 3.36952e-05 0 3.17229e-05 3.19419e-05 0 2.96597e-05 3.037e-05 0 2.76755e-05 2.89552e-05 0 2.57717e-05 2.76799e-05 0 2.39416e-05 2.65285e-05 0 2.21821e-05 2.54888e-05 0 2.04883e-05 2.45503e-05 0 1.88558e-05 2.3704e-05 0 1.72799e-05 2.29423e-05 0 1.57561e-05 2.22587e-05 0 1.42801e-05 2.16474e-05 0 1.28474e-05 2.11035e-05 0 1.14538e-05 2.06228e-05 0 1.0095e-05 2.02016e-05 0 8.76695e-06 1.98368e-05 0 7.46557e-06 1.95257e-05 0 6.18691e-06 1.9266e-05 0 4.92709e-06 1.9056e-05 0 3.68226e-06 1.88942e-05 0 2.44863e-06 1.87794e-05 0 1.22246e-06 1.87108e-05 0 0 1.8688e-05 0 </DataArray> 
</PointData> 
<Points> 
<DataArray type="Float32" NumberOfComponents="3"> 