<?xml version="1.0"?> 
<VTKFile type="StructuredGrid" version="0.1"> 
<StructuredGrid WholeExtent="0 31 0 31 0 0"> 
<Piece Extent="0 31 0 31 0 0"> 
<PointData>
<DataArray type="Float32" Name="B" format="ascii" NumberOfComponents="3"> 
0 -6.40409e-05 0 4.39088e-06 -6.41785e-05 0 8.87073e-06 -6.45726e-05 0 1.35293e-05 -6.51663e-05 0 1.84531e-05 -6.58542e-05 0 2.37204e-05 -6.64696e-05 0 2.93802e-05 -6.67717e-05 0 3.54282e-05 -6.64478e-05 0 4.17557e-05 -6.51521e-05 0 4.81859e-05 -6.26005e-05 0 5.43943e-05 -5.86856e-05 0 6.00524e-05 -5.35194e-05 0 6.50236e-05 -4.7367e-05 0 6.91836e-05 -4.05291e-05 0 7.25349e-05 -3.32628e-05 0 7.50963e-05 -2.57537e-05 0 7.69117e-05 -1.81219e-05 0 7.80141e-05 -1.04391e-05 0 7.84278e-05 -2.74695e-06 0 7.8158e-05 4.92504e-06 0 7.7199e-05 1.25459e-05 0 7.552e-05 2.00633e-05 0 7.31017e-05 2.7393e-05 0 6.98873e-05 3.43907e-05 0 6.59229e-05 4.08556e-05 0 6.11615e-05 4.65206e-05 0 5.59462e-05 5.11306e-05 0 5.01332e-05 5.45621e-05 0 4.47347e-05 5.68859e-05 0 3.88926e-05 5.88716e-05 0 3.42155e-05 6.10655e-05 0 3.80356e-05 7.92282e-05 0 0 -6.76799e-05 0 4.1217e-06 -6.7862e-05 0 8.36318e-06 -6.83914e-05 0 1.28505e-05 -6.92145e-05 0 1.77195e-05 -7.02275e-05 0 2.3113e-05 -7.12569e-05 0 2.91605e-05 -7.20282e-05 0 3.59281e-05 -7.21542e-05 0 4.33231e-05 -7.11492e-05 0 5.10326e-05 -6.85769e-05 0 5.85106e-05 -6.42986e-05 0 6.52331e-05 -5.84751e-05 0 7.09449e-05 -5.15391e-05 0 7.55713e-05 -4.38982e-05 0 7.918e-05 -3.58729e-05 0 8.18693e-05 -2.76622e-05 0 8.37361e-05 -1.93821e-05 0 8.48509e-05 -1.10876e-05 0 8.52559e-05 -2.80201e-06 0 8.49624e-05 5.46597e-06 0 8.39513e-05 1.37041e-05 0 8.2174e-05 2.18789e-05 0 7.95543e-05 2.99157e-05 0 7.60012e-05 3.76696e-05 0 7.14342e-05 4.49004e-05 0 6.58576e-05 5.12583e-05 0 5.94477e-05 5.63399e-05 0 5.26411e-05 5.98617e-05 0 4.60788e-05 6.19315e-05 0 4.05207e-05 6.30375e-05 0 3.68665e-05 6.4125e-05 0 3.84717e-05 6.42532e-05 0 0 -7.10479e-05 0 3.7649e-06 -7.12865e-05 0 7.67566e-06 -7.19895e-05 0 1.18913e-05 -7.31155e-05 0 1.65985e-05 -7.45792e-05 0 2.20169e-05 -7.62188e-05 0 2.83935e-05 -7.7751e-05 0 3.59355e-05 -7.86891e-05 0 4.46506e-05 -7.83249e-05 0 5.39959e-05 -7.58947e-05 0 6.3081e-05 -7.10503e-05 0 7.10946e-05 -6.42548e-05 0 7.75728e-05 -5.62115e-05 0 8.26138e-05 -4.75399e-05 0 8.63989e-05 -3.8608e-05 0 8.91447e-05 -2.96167e-05 0 9.10094e-05 -2.06489e-05 0 9.21058e-05 -1.17285e-05 0 9.24939e-05 -2.8443e-06 0 9.219e-05 6.02663e-06 0 9.11646e-05 1.49043e-05 0 8.93431e-05 2.37888e-05 0 8.65986e-05 3.26355e-05 0 8.27608e-05 4.13204e-05 0 7.76239e-05 4.95788e-05 0 7.10677e-05 5.69421e-05 0 6.32034e-05 6.27337e-05 0 5.4845e-05 6.63329e-05 0 4.69277e-05 6.76582e-05 0 4.05482e-05 6.73629e-05 0 3.64438e-05 6.5987e-05 0 3.48066e-05 6.30364e-05 0 0 -7.40634e-05 0 3.30277e-06 -7.43668e-05 0 6.76655e-06 -7.52722e-05 0 1.05756e-05 -7.67617e-05 0 1.49573e-05 -7.87871e-05 0 2.02168e-05 -8.1242e-05 0 2.67499e-05 -8.38761e-05 0 3.50336e-05 -8.61755e-05 0 4.53812e-05 -8.70773e-05 0 5.73998e-05 -8.50085e-05 0 6.90621e-05 -7.92985e-05 0 7.85083e-05 -7.09163e-05 0 8.57241e-05 -6.13268e-05 0 9.09971e-05 -5.1349e-05 0 9.48126e-05 -4.1378e-05 0 9.74901e-05 -3.15457e-05 0 9.92742e-05 -2.18784e-05 0 0.000100307 -1.23411e-05 0 0.000100667 -2.87725e-06 0 0.000100373 6.58016e-06 0 9.93893e-05 1.60954e-05 0 9.76139e-05 2.57176e-05 0 9.48775e-05 3.54611e-05 0 9.09017e-05 4.52606e-05 0 8.53299e-05 5.48891e-05 0 7.77027e-05 6.37828e-05 0 6.79352e-05 7.08026e-05 0 5.66757e-05 7.44954e-05 0 4.65844e-05 7.461e-05 0 3.89228e-05 7.23506e-05 0 3.38703e-05 6.88702e-05 0 3.08951e-05 6.43781e-05 0 0 -7.66322e-05 0 2.72358e-06 -7.70036e-05 0 5.61001e-06 -7.81233e-05 0 8.84451e-06 -8.00073e-05 0 1.26852e-05 -8.26684e-05 0 1.74865e-05 -8.61006e-05 0 2.38199e-05 -9.02028e-05 0 3.25156e-05 -9.4585e-05 0 4.48635e-05 -9.8095e-05 0 6.04469e-05 -9.71514e-05 0 7.54203e-05 -8.94729e-05 0 8.65879e-05 -7.84017e-05 0 9.40934e-05 -6.66715e-05 0 9.93197e-05 -5.51329e-05 0 0.000102887 -4.40323e-05 0 0.000105341 -3.33493e-05 0 0.000106932 -2.30091e-05 0 0.000107848 -1.28992e-05 0 0.000108165 -2.90562e-06 0 0.00010791 7.08987e-06 0 0.000107036 1.72041e-05 0 0.000105438 2.75501e-05 0 0.000102893 3.82286e-05 0 9.90833e-05 4.92939e-05 0 9.33658e-05 6.06764e-05 0 8.49653e-05 7.19257e-05 0 7.25003e-05 8.14517e-05 0 5.75933e-05 8.55967e-05 0 4.43107e-05 8.32105e-05 0 3.53525e-05 7.81283e-05 0 2.96901e-05 7.2463e-05 0 2.62155e-05 6.66368e-05 0 0 -7.86562e-05 0 2.0309e-06 -7.90907e-05 0 4.19903e-06 -8.04158e-05 0 6.68725e-06 -8.26735e-05 0 9.71502e-06 -8.59907e-05 0 1.36788e-05 -9.04063e-05 0 1.91812e-05 -9.63305e-05 0 2.73413e-05 -0.000103226 0 4.08238e-05 -0.000112448 0 6.57635e-05 -0.000115543 0 8.93944e-05 -0.000101692 0 0.000100005 -8.62744e-05 0 0.000107537 -7.17708e-05 0 0.000111905 -5.85973e-05 0 0.000115011 -4.63623e-05 0 0.00011698 -3.49035e-05 0 0.000118282 -2.39682e-05 0 0.000119009 -1.33725e-05 0 0.000119275 -2.93509e-06 0 0.000119082 7.51192e-06 0 0.000118406 1.81412e-05 0 0.000117117 2.91345e-05 0 0.000115052 4.07003e-05 0 0.000111732 5.30609e-05 0 0.000106704 6.64668e-05 0 9.81529e-05 8.10099e-05 0 8.39328e-05 9.63063e-05 0 5.63042e-05 0.000102641 0 3.86259e-05 9.32309e-05 0 2.92773e-05 8.42581e-05 0 2.39898e-05 7.61319e-05 0 2.0752e-05 6.89227e-05 0 0 -8.00389e-05 0 1.23428e-06 -8.05273e-05 0 2.56941e-06 -8.20284e-05 0 4.13227e-06 -8.45656e-05 0 6.10127e-06 -8.85013e-05 0 8.77407e-06 -9.36406e-05 0 1.26784e-05 -0.000101582 0 1.87723e-05 -0.000110402 0 2.92738e-05 -0.000128004 0 4.71089e-05 -0.00013937 0 6.40058e-05 -0.000113394 0 7.26591e-05 -9.34605e-05 0 7.8108e-05 -7.58134e-05 0 8.13111e-05 -6.14118e-05 0 8.34269e-05 -4.80989e-05 0 8.47741e-05 -3.60916e-05 0 8.5639e-05 -2.46708e-05 0 8.6133e-05 -1.37347e-05 0 8.63257e-05 -2.97011e-06 0 8.62299e-05 7.80259e-06 0 8.58181e-05 1.88093e-05 0 8.50058e-05 3.03089e-05 0 8.36345e-05 4.25766e-05 0 8.1382e-05 5.60743e-05 0 7.77069e-05 7.13501e-05 0 7.13433e-05 8.92916e-05 0 6.01052e-05 0.000113354 0 4.11407e-05 0.000124727 0 2.77341e-05 0.000102222 0 2.06033e-05 8.97795e-05 0 1.67064e-05 7.91084e-05 0 1.44897e-05 7.06345e-05 0 0 -8.07201e-05 0 3.66368e-07 -8.12378e-05 0 7.77703e-07 -8.28374e-05 0 1.29075e-06 -8.55686e-05 0 1.99046e-06 -8.98406e-05 0 3.01866e-06 -9.55657e-05 0 4.63402e-06 -0.000104575 0 7.30503e-06 -0.000115254 0 1.18034e-05 -0.000136499 0 1.8312e-05 -0.000149896 0 2.45336e-05 -0.000120784 0 2.84874e-05 -9.77282e-05 0 3.08305e-05 -7.83921e-05 0 3.22178e-05 -6.2993e-05 0 3.30747e-05 -4.91244e-05 0 3.36161e-05 -3.67418e-05 0 3.39614e-05 -2.50775e-05 0 3.41738e-05 -1.39478e-05 0 3.42852e-05 -3.01929e-06 0 3.43039e-05 7.92237e-06 0 3.42181e-05 1.91328e-05 0 3.39895e-05 3.09071e-05 0 3.35408e-05 4.36014e-05 0 3.27229e-05 5.77851e-05 0 3.12506e-05 7.42916e-05 0 2.85916e-05 9.44672e-05 0 2.40007e-05 0.000122109 0 1.76683e-05 0.000134428 0 1.25791e-05 0.000108189 0 9.68729e-06 9.29131e-05 0 8.26672e-06 8.07941e-05 0 7.63099e-06 7.15846e-05 0 0 -8.06473e-05 0 -5.3345e-07 -8.11707e-05 0 -1.08597e-06 -8.27883e-05 0 -1.68205e-06 -8.55541e-05 0 -2.35087e-06 -8.98945e-05 0 -3.14524e-06 -9.57348e-05 0 -4.14777e-06 -0.000104977 0 -5.51902e-06 -0.000116031 0 -7.4608e-06 -0.000137939 0 -1.01675e-05 -0.000151761 0 -1.27638e-05 -0.000122029 0 -1.44316e-05 -9.84513e-05 0 -1.56093e-05 -7.87584e-05 0 -1.6369e-05 -6.31919e-05 0 -1.69062e-05 -4.9228e-05 0 -1.72586e-05 -3.68085e-05 0 -1.74757e-05 -2.51291e-05 0 -1.75674e-05 -1.40022e-05 0 -1.75437e-05 -3.08242e-06 0 -1.74016e-05 7.84897e-06 0 -1.71356e-05 1.90542e-05 0 -1.67259e-05 3.08388e-05 0 -1.61491e-05 4.3571e-05 0 -1.5338e-05 5.78534e-05 0 -1.42175e-05 7.45664e-05 0 -1.25613e-05 9.51391e-05 0 -1.02526e-05 0.000123368 0 -7.02591e-06 0.000135855 0 -4.33606e-06 0.000108842 0 -2.27999e-06 9.30454e-05 0 -7.22185e-07 8.06143e-05 0 5.23012e-07 7.12842e-05 0 0 -7.98152e-05 0 -1.41836e-06 -8.03174e-05 0 -2.92028e-06 -8.18672e-05 0 -4.60056e-06 -8.4503e-05 0 -6.60753e-06 -8.86223e-05 0 -9.15828e-06 -9.40822e-05 0 -1.26765e-05 -0.000102654 0 -1.789e-05 -0.000112527 0 -2.62816e-05 -0.000132461 0 -3.80108e-05 -0.000145297 0 -4.91695e-05 -0.000117155 0 -5.65573e-05 -9.54066e-05 0 -6.09716e-05 -7.68224e-05 0 -6.38469e-05 -6.19308e-05 0 -6.57003e-05 -4.83854e-05 0 -6.69376e-05 -3.6267e-05 0 -6.76981e-05 -2.4818e-05 0 -6.80932e-05 -1.38912e-05 0 -6.81555e-05 -3.15912e-06 0 -6.7898e-05 7.57827e-06 0 -6.72877e-05 1.85649e-05 0 -6.62679e-05 3.00812e-05 0 -6.46888e-05 4.24498e-05 0 -6.23473e-05 5.61957e-05 0 -5.87082e-05 7.20351e-05 0 -5.303e-05 9.11388e-05 0 -4.35953e-05 0.000117354 0 -3.13653e-05 0.000129304 0 -2.07315e-05 0.000104112 0 -1.39266e-05 8.99437e-05 0 -9.46101e-06 7.84414e-05 0 -6.39936e-06 6.96809e-05 0 0 -7.82555e-05 0 -2.24746e-06 -7.87126e-05 0 -4.62188e-06 -8.01138e-05 0 -7.29646e-06 -8.24903e-05 0 -1.04686e-05 -8.61087e-05 0 -1.45156e-05 -9.08641e-05 0 -2.00044e-05 -9.78509e-05 0 -2.80444e-05 -0.000105682 0 -4.14093e-05 -0.000119448 0 -6.71567e-05 -0.000127232 0 -9.15129e-05 -0.000106661 0 -0.000101771 -8.90338e-05 0 -0.000109211 -7.29789e-05 0 -0.000113453 -5.93396e-05 0 -0.000116531 -4.67013e-05 0 -0.000118468 -3.51549e-05 0 -0.000119736 -2.41708e-05 0 -0.000120391 -1.36211e-05 0 -0.000120542 -3.24575e-06 0 -0.000120181 7.12752e-06 0 -0.000119285 1.77007e-05 0 -0.000117723 2.86985e-05 0 -0.000115357 4.03605e-05 0 -0.0001117 5.30412e-05 0 -0.000106364 6.71341e-05 0 -9.74163e-05 8.31472e-05 0 -8.26838e-05 0.000102907 0 -5.30132e-05 0.000111821 0 -3.41832e-05 9.48714e-05 0 -2.38147e-05 8.40166e-05 0 -1.73168e-05 7.45555e-05 0 -1.27322e-05 6.69321e-05 0 0 -7.60343e-05 0 -2.97825e-06 -7.64267e-05 0 -6.12146e-06 -7.76189e-05 0 -9.62103e-06 -7.96525e-05 0 -1.3736e-05 -8.25788e-05 0 -1.88423e-05 -8.6478e-05 0 -2.55567e-05 -9.13741e-05 0 -3.48642e-05 -9.70641e-05 0 -4.8738e-05 -0.000102801 0 -6.87187e-05 -0.000103017 0 -8.77774e-05 -9.36649e-05 0 -9.98081e-05 -8.06992e-05 0 -0.000107914 -6.79087e-05 0 -0.000113347 -5.57468e-05 0 -0.0001171 -4.43648e-05 0 -0.000119642 -3.35662e-05 0 -0.000121273 -2.32411e-05 0 -0.00012216 -1.32096e-05 0 -0.000122381 -3.33571e-06 0 -0.000121953 6.53104e-06 0 -0.000120829 1.65353e-05 0 -0.000118894 2.68219e-05 0 -0.000115924 3.75519e-05 0 -0.000111551 4.88483e-05 0 -0.000105109 6.08014e-05 0 -9.54554e-05 7.31736e-05 0 -8.05609e-05 8.4428e-05 0 -5.95278e-05 8.86246e-05 0 -4.25068e-05 8.36771e-05 0 -3.13284e-05 7.63664e-05 0 -2.36629e-05 6.95038e-05 0 -1.81793e-05 6.33616e-05 0 0 -7.32318e-05 0 -3.59291e-06 -7.35534e-05 0 -7.36265e-06 -7.45198e-05 0 -1.15107e-05 -7.61334e-05 0 -1.62898e-05 -7.83883e-05 0 -2.2044e-05 -8.12262e-05 0 -2.92533e-05 -8.44901e-05 0 -3.85621e-05 -8.7677e-05 0 -5.06358e-05 -8.968e-05 0 -6.51521e-05 -8.81894e-05 0 -7.91859e-05 -8.17268e-05 0 -9.01342e-05 -7.24258e-05 0 -9.82122e-05 -6.20967e-05 0 -0.00010403 -5.16991e-05 0 -0.000108193 -4.15269e-05 0 -0.000111092 -3.1667e-05 0 -0.00011299 -2.20777e-05 0 -0.000114041 -1.26915e-05 0 -0.000114325 -3.4175e-06 0 -0.000113859 5.83537e-06 0 -0.000112598 1.51573e-05 0 -0.000110429 2.46295e-05 0 -0.000107154 3.4304e-05 0 -0.000102452 4.41733e-05 0 -9.58482e-05 5.40642e-05 0 -8.6682e-05 6.34275e-05 0 -7.44452e-05 7.0898e-05 0 -5.98925e-05 7.42e-05 0 -4.66523e-05 7.25879e-05 0 -3.63032e-05 6.85846e-05 0 -2.85215e-05 6.38213e-05 0 -2.26251e-05 5.90826e-05 0 0 -6.99594e-05 0 -4.07972e-06 -7.02067e-05 0 -8.33198e-06 -7.09424e-05 0 -1.29452e-05 -7.21433e-05 0 -1.81429e-05 -7.3751e-05 0 -2.41948e-05 -7.56469e-05 0 -3.14232e-05 -7.75696e-05 0 -4.01426e-05 -7.90449e-05 0 -5.04687e-05 -7.91915e-05 0 -6.17758e-05 -7.69404e-05 0 -7.27644e-05 -7.19523e-05 0 -8.22634e-05 -6.47171e-05 0 -8.97918e-05 -5.63187e-05 0 -9.55615e-05 -4.74366e-05 0 -9.98441e-05 -3.84647e-05 0 -0.000102915 -2.95566e-05 0 -0.000104965 -2.07681e-05 0 -0.000106125 -1.20884e-05 0 -0.000106461 -3.48468e-06 0 -0.000105989 5.0875e-06 0 -0.00010467 1.36682e-05 0 -0.000102413 2.22792e-05 0 -9.90579e-05 3.09033e-05 0 -9.43841e-05 3.94392e-05 0 -8.80981e-05 4.76338e-05 0 -7.99586e-05 5.49577e-05 0 -6.996e-05 6.05036e-05 0 -5.90363e-05 6.33111e-05 0 -4.84664e-05 6.33036e-05 0 -3.93914e-05 6.11953e-05 0 -3.20036e-05 5.80835e-05 0 -2.6093e-05 5.46065e-05 0 0 -6.63216e-05 0 -4.44189e-06 -6.64995e-05 0 -9.03918e-06 -6.70209e-05 0 -1.39565e-05 -6.78458e-05 0 -1.93733e-05 -6.88933e-05 0 -2.54847e-05 -7.00137e-05 0 -3.24789e-05 -7.09565e-05 0 -4.04781e-05 -7.13124e-05 0 -4.93975e-05 -7.05442e-05 0 -5.88343e-05 -6.81169e-05 0 -6.80095e-05 -6.37734e-05 0 -7.61781e-05 -5.78518e-05 0 -8.30312e-05 -5.08396e-05 0 -8.85031e-05 -4.32294e-05 0 -9.27167e-05 -3.53379e-05 0 -9.58132e-05 -2.73561e-05 0 -9.79248e-05 -1.9374e-05 0 -9.91428e-05 -1.14295e-05 0 -9.95204e-05 -3.52879e-06 0 -9.90692e-05 4.33178e-06 0 -9.77614e-05 1.21522e-05 0 -9.55278e-05 1.99124e-05 0 -9.22624e-05 2.75498e-05 0 -8.78256e-05 3.49297e-05 0 -8.20877e-05 4.17989e-05 0 -7.49877e-05 4.77509e-05 0 -6.67277e-05 5.22583e-05 0 -5.77909e-05 5.48648e-05 0 -4.90778e-05 5.54684e-05 0 -4.11892e-05 5.45263e-05 0 -3.44046e-05 5.2575e-05 0 -2.87067e-05 5.01011e-05 0 0 -6.24207e-05 0 -4.69066e-06 -6.25372e-05 0 -9.51331e-06 -6.2872e-05 0 -1.46023e-05 -6.33788e-05 0 -2.00943e-05 -6.3969e-05 0 -2.6119e-05 -6.44989e-05 0 -3.27773e-05 -6.47477e-05 0 -4.00913e-05 -6.44177e-05 0 -4.79417e-05 -6.31529e-05 0 -5.59959e-05 -6.06502e-05 0 -6.3808e-05 -5.68184e-05 0 -7.09523e-05 -5.17629e-05 0 -7.71169e-05 -4.57907e-05 0 -8.22084e-05 -3.92081e-05 0 -8.6234e-05 -3.22705e-05 0 -8.92622e-05 -2.51485e-05 0 -9.13652e-05 -1.79502e-05 0 -9.26037e-05 -1.07368e-05 0 -9.30137e-05 -3.54395e-06 0 -9.26044e-05 3.60338e-06 0 -9.13573e-05 1.06764e-05 0 -8.92286e-05 1.76276e-05 0 -8.61539e-05 2.43742e-05 0 -8.20662e-05 3.07767e-05 0 -7.69211e-05 3.66217e-05 0 -7.07654e-05 4.16178e-05 0 -6.37835e-05 4.54395e-05 0 -5.63935e-05 4.78459e-05 0 -4.90335e-05 4.88283e-05 0 -4.21523e-05 4.85724e-05 0 -3.59897e-05 4.74325e-05 0 -3.06171e-05 4.57348e-05 0 0 -5.83456e-05 0 -4.84289e-06 -5.84111e-05 0 -9.79194e-06 -5.85927e-05 0 -1.49518e-05 -5.8844e-05 0 -2.04206e-05 -5.90821e-05 0 -2.62807e-05 -5.91795e-05 0 -3.25774e-05 -5.89611e-05 0 -3.92906e-05 -5.82079e-05 0 -4.62994e-05 -5.66929e-05 0 -5.33823e-05 -5.42366e-05 0 -6.02294e-05 -5.07631e-05 0 -6.65346e-05 -4.63553e-05 0 -7.20923e-05 -4.11783e-05 0 -7.678e-05 -3.54411e-05 0 -8.0568e-05 -2.93299e-05 0 -8.34699e-05 -2.29927e-05 0 -8.55202e-05 -1.65343e-05 0 -8.67519e-05 -1.0028e-05 0 -8.71876e-05 -3.52603e-06 0 -8.68337e-05 2.92771e-06 0 -8.56806e-05 9.28617e-06 0 -8.37044e-05 1.54875e-05 0 -8.08753e-05 2.14427e-05 0 -7.71705e-05 2.70249e-05 0 -7.26017e-05 3.2063e-05 0 -6.72424e-05 3.63522e-05 0 -6.1272e-05 3.96911e-05 0 -5.49469e-05 4.19437e-05 0 -4.86174e-05 4.30923e-05 0 -4.25639e-05 4.32723e-05 0 -3.69861e-05 4.26886e-05 0 -3.19732e-05 4.15708e-05 0 0 -5.41713e-05 0 -4.91692e-06 -5.41966e-05 0 -9.91527e-06 -5.42583e-05 0 -1.50724e-05 -5.43146e-05 0 -2.04561e-05 -5.42928e-05 0 -2.61142e-05 -5.4088e-05 0 -3.2061e-05 -5.3564e-05 0 -3.82584e-05 -5.25653e-05 0 -4.46034e-05 -5.09379e-05 0 -5.09217e-05 -4.85667e-05 0 -5.70048e-05 -4.54129e-05 0 -6.26471e-05 -4.15128e-05 0 -6.7674e-05 -3.69769e-05 0 -7.19814e-05 -3.19431e-05 0 -7.55158e-05 -2.65515e-05 0 -7.82652e-05 -2.09221e-05 0 -8.02369e-05 -1.51517e-05 0 -8.14451e-05 -9.31511e-06 0 -8.19015e-05 -3.473e-06 0 -8.16107e-05 2.32042e-06 0 -8.05695e-05 8.00856e-06 0 -7.87697e-05 1.35239e-05 0 -7.62043e-05 1.87806e-05 0 -7.28803e-05 2.36684e-05 0 -6.88328e-05 2.80544e-05 0 -6.41482e-05 3.17932e-05 0 -5.89699e-05 3.47528e-05 0 -5.35099e-05 3.68505e-05 0 -4.79858e-05 3.80854e-05 0 -4.26159e-05 3.85322e-05 0 -3.7557e-05 3.83325e-05 0 -3.29012e-05 3.76453e-05 0 0 -4.99573e-05 0 -4.93077e-06 -4.99522e-05 0 -9.92086e-06 -4.99247e-05 0 -1.50248e-05 -4.98389e-05 0 -2.02863e-05 -4.96346e-05 0 -2.57302e-05 -4.92281e-05 0 -3.13527e-05 -4.85166e-05 0 -3.71112e-05 -4.73877e-05 0 -4.29173e-05 -4.5737e-05 0 -4.86437e-05 -4.34895e-05 0 -5.41343e-05 -4.06153e-05 0 -5.92324e-05 -3.71423e-05 0 -6.38101e-05 -3.314e-05 0 -6.77714e-05 -2.87062e-05 0 -7.10605e-05 -2.39446e-05 0 -7.365e-05 -1.89529e-05 0 -7.55318e-05 -1.38159e-05 0 -7.67074e-05 -8.60562e-06 0 -7.7181e-05 -3.38444e-06 0 -7.69558e-05 1.78933e-06 0 -7.60334e-05 6.85582e-06 0 -7.4416e-05 1.17479e-05 0 -7.2112e-05 1.63866e-05 0 -6.91435e-05 2.06793e-05 0 -6.55581e-05 2.45224e-05 0 -6.14375e-05 2.78113e-05 0 -5.69051e-05 3.04572e-05 0 -5.21124e-05 3.24076e-05 0 -4.72355e-05 3.36604e-05 0 -4.2431e-05 3.42707e-05 0 -3.78262e-05 3.43323e-05 0 -3.35045e-05 3.39595e-05 0 0 -4.57486e-05 0 -4.90053e-06 -4.57218e-05 0 -9.84172e-06 -4.56313e-05 0 -1.48594e-05 -4.54478e-05 0 -1.99793e-05 -4.51229e-05 0 -2.52107e-05 -4.45914e-05 0 -3.05397e-05 -4.37763e-05 0 -3.59237e-05 -4.25969e-05 0 -4.12892e-05 -4.09803e-05 0 -4.65345e-05 -3.88754e-05 0 -5.15432e-05 -3.6264e-05 0 -5.61982e-05 -3.31628e-05 0 -6.03942e-05 -2.96213e-05 0 -6.40511e-05 -2.57091e-05 0 -6.71132e-05 -2.15054e-05 0 -6.95476e-05 -1.7089e-05 0 -7.13378e-05 -1.2533e-05 0 -7.24774e-05 -7.90362e-06 0 -7.29657e-05 -3.26122e-06 0 -7.28052e-05 1.33627e-06 0 -7.20005e-05 5.82995e-06 0 -7.05606e-05 1.01564e-05 0 -6.85023e-05 1.42455e-05 0 -6.58562e-05 1.80201e-05 0 -6.26724e-05 2.13993e-05 0 -5.90269e-05 2.4306e-05 0 -5.50206e-05 2.66781e-05 0 -5.07782e-05 2.84802e-05 0 -4.64278e-05 2.97134e-05 0 -4.2095e-05 3.04142e-05 0 -3.78824e-05 3.06502e-05 0 -3.38647e-05 3.05047e-05 0 0 -4.15772e-05 0 -4.83992e-06 -4.1536e-05 0 -9.70528e-06 -4.14044e-05 0 -1.46172e-05 -4.11589e-05 0 -1.9588e-05 -4.07615e-05 0 -2.46163e-05 -4.01626e-05 0 -2.96828e-05 -3.93047e-05 0 -3.4747e-05 -3.81294e-05 0 -3.97465e-05 -3.65857e-05 0 -4.46011e-05 -3.46387e-05 0 -4.92188e-05 -3.22755e-05 0 -5.35066e-05 -2.95094e-05 0 -5.73813e-05 -2.63756e-05 0 -6.07735e-05 -2.2926e-05 0 -6.36323e-05 -1.92218e-05 0 -6.59233e-05 -1.53269e-05 0 -6.76259e-05 -1.13035e-05 0 -6.87297e-05 -7.21086e-06 0 -6.9231e-05 -3.10512e-06 0 -6.91318e-05 9.58981e-07 0 -6.84387e-05 4.92615e-06 0 -6.71644e-05 8.7386e-06 0 -6.53303e-05 1.23351e-05 0 -6.297e-05 1.56518e-05 0 -6.01328e-05 1.86249e-05 0 -5.68864e-05 2.11965e-05 0 -5.33166e-05 2.33216e-05 0 -4.95211e-05 2.49759e-05 0 -4.56052e-05 2.61601e-05 0 -4.16672e-05 2.69013e-05 0 -3.77923e-05 2.72482e-05 0 -3.40458e-05 2.72628e-05 0 0 -3.74647e-05 0 -4.76016e-06 -3.74151e-05 0 -9.53369e-06 -3.72596e-05 0 -1.43303e-05 -3.69801e-05 0 -1.91524e-05 -3.65474e-05 0 -2.39915e-05 -3.59238e-05 0 -2.88252e-05 -3.50669e-05 0 -3.36157e-05 -3.39344e-05 0 -3.83096e-05 -3.24901e-05 0 -4.28406e-05 -3.07099e-05 0 -4.71353e-05 -2.85859e-05 0 -5.11192e-05 -2.61279e-05 0 -5.4723e-05 -2.33628e-05 0 -5.78882e-05 -2.03302e-05 0 -6.05685e-05 -1.70782e-05 0 -6.27308e-05 -1.36587e-05 0 -6.43532e-05 -1.01245e-05 0 -6.54234e-05 -6.52754e-06 0 -6.59365e-05 -2.91851e-06 0 -6.58939e-05 6.52638e-07 0 -6.53033e-05 4.13563e-06 0 -6.41793e-05 7.47907e-06 0 -6.25451e-05 1.06303e-05 0 -6.04346e-05 1.35365e-05 0 -5.78942e-05 1.61469e-05 0 -5.4984e-05 1.84171e-05 0 -5.17761e-05 2.03138e-05 0 -4.83525e-05 2.18193e-05 0 -4.4797e-05 2.29347e-05 0 -4.1191e-05 2.36796e-05 0 -3.76055e-05 2.40903e-05 0 -3.4098e-05 2.42136e-05 0 0 -3.3424e-05 0 -4.67018e-06 -3.33705e-05 0 -9.34435e-06 -3.32048e-05 0 -1.40235e-05 -3.29131e-05 0 -1.87028e-05 -3.24731e-05 0 -2.33688e-05 -3.18565e-05 0 -2.79977e-05 -3.10322e-05 0 -3.25541e-05 -2.99696e-05 0 -3.69913e-05 -2.86431e-05 0 -4.12541e-05 -2.70359e-05 0 -4.52818e-05 -2.51433e-05 0 -4.90126e-05 -2.29736e-05 0 -5.23892e-05 -2.05475e-05 0 -5.53611e-05 -1.78961e-05 0 -5.78872e-05 -1.50576e-05 0 -5.99366e-05 -1.20746e-05 0 -6.14878e-05 -8.99143e-06 0 -6.25279e-05 -5.85304e-06 0 -6.30515e-05 -2.70409e-06 0 -6.30599e-05 4.1094e-07 0 -6.25613e-05 3.44748e-06 0 -6.15709e-05 6.36069e-06 0 -6.01119e-05 9.10578e-06 0 -5.82172e-05 1.1639e-05 0 -5.59294e-05 1.39199e-05 0 -5.33016e-05 1.59139e-05 0 -5.03959e-05 1.75955e-05 0 -4.72802e-05 1.89516e-05 0 -4.40251e-05 1.99831e-05 0 -4.0698e-05 2.07047e-05 0 -3.73597e-05 2.11438e-05 0 -3.40606e-05 2.1336e-05 0 0 -2.94611e-05 0 -4.57694e-06 -2.94072e-05 0 -9.1507e-06 -2.92418e-05 0 -1.37157e-05 -2.89543e-05 0 -1.82618e-05 -2.8528e-05 0 -2.27722e-05 -2.79419e-05 0 -2.72223e-05 -2.71732e-05 0 -3.15789e-05 -2.61998e-05 0 -3.58007e-05 -2.50035e-05 0 -3.98402e-05 -2.3573e-05 0 -4.36462e-05 -2.19057e-05 0 -4.7167e-05 -2.00087e-05 0 -5.03535e-05 -1.78985e-05 0 -5.31623e-05 -1.55999e-05 0 -5.55569e-05 -1.31434e-05 0 -5.7509e-05 -1.05641e-05 0 -5.89983e-05 -7.89893e-06 0 -6.00123e-05 -5.18627e-06 0 -6.05454e-05 -2.46476e-06 0 -6.0599e-05 2.26875e-07 0 -6.01813e-05 2.84994e-06 0 -5.93073e-05 5.36595e-06 0 -5.79998e-05 7.73719e-06 0 -5.62894e-05 9.92769e-06 0 -5.42151e-05 1.19048e-05 0 -5.18239e-05 1.36414e-05 0 -4.91695e-05 1.51178e-05 0 -4.63101e-05 1.63239e-05 0 -4.33051e-05 1.72604e-05 0 -4.02122e-05 1.79385e-05 0 -3.70837e-05 1.83788e-05 0 -3.39645e-05 1.86089e-05 0 0 -2.55766e-05 0 -4.48579e-06 -2.55251e-05 0 -8.96298e-06 -2.53679e-05 0 -1.34211e-05 -2.50971e-05 0 -1.78462e-05 -2.47001e-05 0 -2.2219e-05 -2.41617e-05 0 -2.65147e-05 -2.3465e-05 0 -3.07019e-05 -2.25943e-05 0 -3.47435e-05 -2.15369e-05 0 -3.85979e-05 -2.02851e-05 0 -4.22207e-05 -1.88378e-05 0 -4.55676e-05 -1.72012e-05 0 -4.85963e-05 -1.53887e-05 0 -5.12688e-05 -1.342e-05 0 -5.35527e-05 -1.13198e-05 0 -5.54224e-05 -9.1167e-06 0 -5.6859e-05 -6.84137e-06 0 -5.78507e-05 -4.52602e-06 0 -5.83923e-05 -2.20348e-06 0 -5.84852e-05 9.32149e-08 0 -5.81374e-05 2.33111e-06 0 -5.73633e-05 4.47775e-06 0 -5.61847e-05 6.50174e-06 0 -5.46299e-05 8.37366e-06 0 -5.27344e-05 1.00673e-05 0 -5.05402e-05 1.15611e-05 0 -4.80942e-05 1.28398e-05 0 -4.54467e-05 1.38955e-05 0 -4.26493e-05 1.47286e-05 0 -3.97517e-05 1.53477e-05 0 -3.68e-05 1.57684e-05 0 -3.38343e-05 1.60122e-05 0 0 -2.17672e-05 0 -4.40075e-06 -2.17202e-05 0 -8.78887e-06 -2.15771e-05 0 -1.31503e-05 -2.13321e-05 0 -1.74682e-05 -2.0976e-05 0 -2.17219e-05 -2.04977e-05 0 -2.58862e-05 -1.9885e-05 0 -2.99315e-05 -1.91267e-05 0 -3.38237e-05 -1.82139e-05 0 -3.75255e-05 -1.71417e-05 0 -4.09981e-05 -1.59098e-05 0 -4.42024e-05 -1.45237e-05 0 -4.71013e-05 -1.29942e-05 0 -4.96614e-05 -1.13371e-05 0 -5.18536e-05 -9.57216e-06 0 -5.36546e-05 -7.7225e-06 0 -5.50473e-05 -5.81328e-06 0 -5.60205e-05 -3.87107e-06 0 -5.65696e-05 -1.92319e-06 0 -5.6696e-05 2.80163e-09 0 -5.64072e-05 1.87944e-06 0 -5.57173e-05 3.67987e-06 0 -5.46466e-05 5.37837e-06 0 -5.32213e-05 6.95113e-06 0 -5.14738e-05 8.37721e-06 0 -4.94418e-05 9.63963e-06 0 -4.71668e-05 1.07264e-05 0 -4.46934e-05 1.16314e-05 0 -4.20666e-05 1.23549e-05 0 -3.93304e-05 1.29032e-05 0 -3.65257e-05 1.32883e-05 0 -3.36891e-05 1.35268e-05 0 0 -1.80264e-05 0 -4.32484e-06 -1.79854e-05 0 -8.63409e-06 -1.78608e-05 0 -1.2911e-05 -1.76485e-05 0 -1.71368e-05 -1.73417e-05 0 -2.12898e-05 -1.69325e-05 0 -2.53448e-05 -1.64122e-05 0 -2.92732e-05 -1.57729e-05 0 -3.30435e-05 -1.50086e-05 0 -3.66217e-05 -1.41161e-05 0 -3.99727e-05 -1.30957e-05 0 -4.30619e-05 -1.19521e-05 0 -4.58559e-05 -1.0694e-05 0 -4.83248e-05 -9.33366e-06 0 -5.04424e-05 -7.88697e-06 0 -5.21876e-05 -6.37219e-06 0 -5.35444e-05 -4.80951e-06 0 -5.45027e-05 -3.22033e-06 0 -5.50582e-05 -1.62679e-06 0 -5.52123e-05 -5.12967e-08 0 -5.49725e-05 1.48389e-06 0 -5.43519e-05 2.95709e-06 0 -5.33696e-05 4.34768e-06 0 -5.205e-05 5.63678e-06 0 -5.04228e-05 6.80792e-06 0 -4.85221e-05 7.84785e-06 0 -4.63855e-05 8.74728e-06 0 -4.40526e-05 9.50145e-06 0 -4.15639e-05 1.01104e-05 0 -3.89588e-05 1.0579e-05 0 -3.62744e-05 1.09162e-05 0 -3.35441e-05 1.11346e-05 0 0 -1.43456e-05 0 -4.26026e-06 -1.43117e-05 0 -8.5028e-06 -1.42088e-05 0 -1.2709e-05 -1.4034e-05 0 -1.68587e-05 -1.37826e-05 0 -2.09293e-05 -1.34489e-05 0 -2.4896e-05 -1.3027e-05 0 -2.87309e-05 -1.25114e-05 0 -3.24043e-05 -1.1898e-05 0 -3.58847e-05 -1.11848e-05 0 -3.914e-05 -1.03727e-05 0 -4.21385e-05 -9.46516e-06 0 -4.48499e-05 -8.46907e-06 0 -4.72469e-05 -7.39399e-06 0 -4.93056e-05 -6.252e-06 0 -5.10064e-05 -5.05722e-06 0 -5.23349e-05 -3.82527e-06 0 -5.32814e-05 -2.57281e-06 0 -5.38422e-05 -1.31712e-06 0 -5.40187e-05 -7.57223e-08 0 -5.38181e-05 1.134e-06 0 -5.32528e-05 2.29517e-06 0 -5.23409e-05 3.39183e-06 0 -5.11051e-05 4.40945e-06 0 -4.9573e-05 5.33545e-06 0 -4.7776e-05 6.15977e-06 0 -4.57484e-05 6.87538e-06 0 -4.35263e-05 7.47866e-06 0 -4.11465e-05 7.96958e-06 0 -3.86452e-05 8.35164e-06 0 -3.60563e-05 8.63155e-06 0 -3.3411e-05 8.81859e-06 0 0 -1.07144e-05 0 -4.20862e-06 -1.06884e-05 0 -8.39803e-06 -1.06095e-05 0 -1.25483e-05 -1.04757e-05 0 -1.66383e-05 -1.02839e-05 0 -2.06451e-05 -1.00303e-05 0 -2.45436e-05 -9.71081e-06 0 -2.83071e-05 -9.32187e-06 0 -3.19068e-05 -8.86087e-06 0 -3.53132e-05 -8.32665e-06 0 -3.84962e-05 -7.71994e-06 0 -4.14262e-05 -7.04356e-06 0 -4.40753e-05 -6.30248e-06 0 -4.6418e-05 -5.50369e-06 0 -4.84321e-05 -4.65599e-06 0 -5.00995e-05 -3.76968e-06 0 -5.14064e-05 -2.85616e-06 0 -5.23442e-05 -1.92768e-06 0 -5.29091e-05 -9.9694e-07 0 -5.31028e-05 -7.68224e-08 0 -5.29321e-05 8.19884e-07 0 -5.2409e-05 1.6808e-06 0 -5.15506e-05 2.49426e-06 0 -5.03784e-05 3.2497e-06 0 -4.89183e-05 3.938e-06 0 -4.71995e-05 4.55192e-06 0 -4.52541e-05 5.0864e-06 0 -4.31157e-05 5.5388e-06 0 -4.08182e-05 5.90906e-06 0 -3.83955e-05 6.19963e-06 0 -3.58792e-05 6.41524e-06 0 -3.32989e-05 6.56245e-06 0 0 -7.12138e-06 0 -4.17101e-06 -7.10374e-06 0 -8.32184e-06 -7.05036e-06 0 -1.24317e-05 -6.95999e-06 0 -1.64789e-05 -6.83068e-06 0 -2.044e-05 -6.66007e-06 0 -2.42903e-05 -6.44573e-06 0 -2.80034e-05 -6.18548e-06 0 -3.15514e-05 -5.87775e-06 0 -3.4906e-05 -5.52195e-06 0 -3.80383e-05 -5.11864e-06 0 -4.09205e-05 -4.66973e-06 0 -4.35261e-05 -4.17849e-06 0 -4.58309e-05 -3.64949e-06 0 -4.78139e-05 -3.08848e-06 0 -4.94578e-05 -2.5022e-06 0 -5.07498e-05 -1.89811e-06 0 -5.16815e-05 -1.28424e-06 0 -5.22494e-05 -6.6894e-07 0 -5.24552e-05 -6.06794e-08 0 -5.23056e-05 5.32143e-07 0 -5.18121e-05 1.1014e-06 0 -5.09912e-05 1.63948e-06 0 -4.98636e-05 2.13947e-06 0 -4.84538e-05 2.59545e-06 0 -4.67898e-05 3.00271e-06 0 -4.49018e-05 3.35798e-06 0 -4.28217e-05 3.65954e-06 0 -4.05819e-05 3.90734e-06 0 -3.82142e-05 4.1029e-06 0 -3.57489e-05 4.24927e-06 0 -3.32144e-05 4.35062e-06 0 0 -3.55417e-06 0 -4.14818e-06 -3.54527e-06 0 -8.27562e-06 -3.51836e-06 0 -1.23611e-05 -3.47283e-06 0 -1.63825e-05 -3.40775e-06 0 -2.03163e-05 -3.32201e-06 0 -2.41378e-05 -3.21446e-06 0 -2.78208e-05 -3.08406e-06 0 -3.13382e-05 -2.93009e-06 0 -3.4662e-05 -2.7523e-06 0 -3.77644e-05 -2.551e-06 0 -4.06184e-05 -2.32714e-06 0 -4.31982e-05 -2.08236e-06 0 -4.54806e-05 -1.8189e-06 0 -4.74452e-05 -1.53963e-06 0 -4.90753e-05 -1.24785e-06 0 -5.03584e-05 -9.47271e-07 0 -5.12865e-05 -6.41862e-07 0 -5.18562e-05 -3.3576e-07 0 -5.20692e-05 -3.31641e-08 0 -5.19322e-05 2.61764e-07 0 -5.14563e-05 5.45003e-07 0 -5.06576e-05 8.12783e-07 0 -4.95564e-05 1.0617e-06 0 -4.81764e-05 1.28883e-06 0 -4.65447e-05 1.49187e-06 0 -4.46907e-05 1.66919e-06 0 -4.26452e-05 1.81996e-06 0 -4.04394e-05 1.94414e-06 0 -3.81042e-05 2.04246e-06 0 -3.56692e-05 2.11642e-06 0 -3.31619e-05 2.16804e-06 0 0 -0 0 -4.14052e-06 -0 0 -8.26013e-06 -0 0 -1.23374e-05 -0 0 -1.63502e-05 -0 0 -2.02749e-05 -0 0 -2.40868e-05 -0 0 -2.77599e-05 -0 0 -3.12671e-05 -0 0 -3.45807e-05 -0 0 -3.76733e-05 -0 0 -4.05179e-05 -0 0 -4.30892e-05 -0 0 -4.53642e-05 -0 0 -4.73227e-05 -0 0 -4.89482e-05 -0 0 -5.02284e-05 -0 0 -5.11553e-05 -0 0 -5.17256e-05 -0 0 -5.1941e-05 -0 0 -5.18081e-05 -0 0 -5.13381e-05 -0 0 -5.05468e-05 -0 0 -4.94542e-05 -0 0 -4.80841e-05 -0 0 -4.64632e-05 -0 0 -4.46204e-05 -0 0 -4.25863e-05 -0 0 -4.03917e-05 -0 0 -3.80674e-05 -0 0 -3.56424e-05 -0 0 -3.31441e-05 -0 0 </DataArray> 
</PointData> 
<Points> 
<DataArray type="Float32" NumberOfComponents="3"> 