<?xml version="1.0"?> 
<VTKFile type="StructuredGrid" version="0.1"> 
<StructuredGrid WholeExtent="0 31 0 31 0 0"> 
<Piece Extent="0 31 0 31 0 0"> 
<PointData>
<DataArray type="Float32" Name="B" format="ascii" NumberOfComponents="3"> 
0 -0 0 -7.87538e-06 -0 0 -1.58022e-05 -0 0 -2.38236e-05 -0 0 -3.19659e-05 -0 0 -4.02299e-05 -0 0 -4.85839e-05 -0 0 -5.69581e-05 -0 0 -6.52449e-05 -0 0 -7.3305e-05 -0 0 -8.09798e-05 -0 0 -8.81078e-05 -0 0 -9.45405e-05 -0 0 -0.000100154 -0 0 -0.000104854 -0 0 -0.000108574 -0 0 -0.000111274 -0 0 -0.000112932 -0 0 -0.00011354 -0 0 -0.000113102 -0 0 -0.000111632 -0 0 -0.000109157 -0 0 -0.000105722 -0 0 -0.000101392 -0 0 -9.62637e-05 -0 0 -9.04614e-05 -0 0 -8.4141e-05 -0 0 -7.74796e-05 -0 0 -7.06618e-05 -0 0 -6.38634e-05 -0 0 -5.72364e-05 -0 0 -5.08988e-05 -0 0 0 4.49349e-06 0 -7.86683e-06 4.50875e-06 0 -1.57865e-05 4.55208e-06 0 -2.38035e-05 4.61634e-06 0 -3.19454e-05 4.68942e-06 0 -4.02146e-05 4.7545e-06 0 -4.85799e-05 4.79091e-06 0 -5.69718e-05 4.77629e-06 0 -6.52816e-05 4.68986e-06 0 -7.33678e-05 4.51637e-06 0 -8.10693e-05 4.2493e-06 0 -8.82217e-05 3.89188e-06 0 -9.46748e-05 3.45556e-06 0 -0.000100304 2.95656e-06 0 -0.000105014 2.41222e-06 0 -0.000108741 1.83813e-06 0 -0.000111444 1.2468e-06 0 -0.000113103 6.47579e-07 0 -0.000113711 4.74655e-08 0 -0.00011327 -5.47604e-07 0 -0.000111796 -1.13126e-06 0 -0.000109314 -1.69526e-06 0 -0.000105868 -2.22842e-06 0 -0.000101524 -2.71611e-06 0 -9.63741e-05 -3.14094e-06 0 -9.05463e-05 -3.48481e-06 0 -8.41969e-05 -3.7323e-06 0 -7.7505e-05 -3.87444e-06 0 -7.06582e-05 -3.91146e-06 0 -6.38348e-05 -3.85315e-06 0 -5.71884e-05 -3.71685e-06 0 -5.08377e-05 -3.52337e-06 0 0 8.97687e-06 0 -7.84074e-06 9.00815e-06 0 -1.57384e-05 9.09716e-06 0 -2.37415e-05 9.22963e-06 0 -3.18822e-05 9.38131e-06 0 -4.01664e-05 9.51828e-06 0 -4.85658e-05 9.59855e-06 0 -5.70111e-05 9.57624e-06 0 -6.53905e-05 9.40848e-06 0 -7.35562e-05 9.06367e-06 0 -8.13385e-05 8.52841e-06 0 -8.85649e-05 7.80971e-06 0 -9.50793e-05 6.93162e-06 0 -0.000100754 5.92787e-06 0 -0.000105496 4.83403e-06 0 -0.000109242 3.68176e-06 0 -0.000111956 2.49608e-06 0 -0.000113618 1.29541e-06 0 -0.000114224 9.32994e-08 0 -0.000113777 -1.09887e-06 0 -0.00011229 -2.26882e-06 0 -0.000109787 -3.40047e-06 0 -0.000106309 -4.47158e-06 0 -0.000101918 -5.45272e-06 0 -9.67073e-05 -6.3084e-06 0 -9.08025e-05 -7.00132e-06 0 -8.43648e-05 -7.49934e-06 0 -7.75806e-05 -7.78356e-06 0 -7.0646e-05 -7.8543e-06 0 -6.37472e-05 -7.73191e-06 0 -5.70426e-05 -7.45229e-06 0 -5.06524e-05 -7.0583e-06 0 0 1.34395e-05 0 -7.79578e-06 1.34884e-05 0 -1.56552e-05 1.36277e-05 0 -2.36338e-05 1.38363e-05 0 -3.17709e-05 1.40777e-05 0 -4.00792e-05 1.43004e-05 0 -4.85352e-05 1.44398e-05 0 -5.70705e-05 1.44241e-05 0 -6.55684e-05 1.41856e-05 0 -7.38698e-05 1.36739e-05 0 -8.179e-05 1.28681e-05 0 -8.91419e-05 1.17799e-05 0 -9.57593e-05 1.04488e-05 0 -0.000101511 8.92842e-06 0 -0.000106305 7.27467e-06 0 -0.000110082 5.53604e-06 0 -0.000112812 3.75008e-06 0 -0.000114479 1.94363e-06 0 -0.000115082 1.35917e-07 0 -0.000114623 -1.65724e-06 0 -0.000113116 -3.41865e-06 0 -0.00011058 -5.12517e-06 0 -0.000107049 -6.74389e-06 0 -0.000102583 -8.2302e-06 0 -9.72683e-05 -9.52919e-06 0 -9.12337e-05 -1.0582e-05 0 -8.46463e-05 -1.13369e-05 0 -7.7705e-05 -1.17631e-05 0 -7.06212e-05 -1.18608e-05 0 -6.35947e-05 -1.16623e-05 0 -5.67925e-05 -1.12249e-05 0 -5.03372e-05 -1.06161e-05 0 0 1.78698e-05 0 -7.72977e-06 1.79385e-05 0 -1.55324e-05 1.81351e-05 0 -2.34735e-05 1.84317e-05 0 -3.16023e-05 1.87797e-05 0 -3.9942e-05 1.91095e-05 0 -4.84769e-05 1.93317e-05 0 -5.71406e-05 1.93454e-05 0 -6.58095e-05 1.9053e-05 0 -7.43077e-05 1.83815e-05 0 -8.24274e-05 1.73009e-05 0 -8.99596e-05 1.58301e-05 0 -9.67231e-05 1.40277e-05 0 -0.000102582 1.19722e-05 0 -0.000107446 9.74258e-06 0 -0.000111264 7.40538e-06 0 -0.000114014 5.01047e-06 0 -0.000115688 2.59214e-06 0 -0.000116285 1.7383e-07 0 -0.000115813 -2.22576e-06 0 -0.000114278 -4.58604e-06 0 -0.000111697 -6.8781e-06 0 -0.000108096 -9.05904e-06 0 -0.000103525 -1.10687e-05 0 -9.80656e-05 -1.28306e-05 0 -9.18462e-05 -1.42606e-05 0 -8.50435e-05 -1.5283e-05 0 -7.78754e-05 -1.58512e-05 0 -7.05764e-05 -1.59648e-05 0 -6.33673e-05 -1.56711e-05 0 -5.64275e-05 -1.50532e-05 0 -4.98823e-05 -1.42073e-05 0 0 2.22547e-05 0 -7.6397e-06 2.23462e-05 0 -1.5364e-05 2.26091e-05 0 -2.32508e-05 2.30095e-05 0 -3.13635e-05 2.3487e-05 0 -3.97393e-05 2.39532e-05 0 -4.83744e-05 2.42919e-05 0 -5.72069e-05 2.43675e-05 0 -6.6105e-05 2.40458e-05 0 -7.48696e-05 2.32246e-05 0 -8.32588e-05 2.18626e-05 0 -9.10309e-05 1.99892e-05 0 -9.79849e-05 1.76893e-05 0 -0.000103979 1.50725e-05 0 -0.00010893 1.2245e-05 0 -0.000112797 9.29298e-06 0 -0.00011557 6.2781e-06 0 -0.000117248 3.24047e-06 0 -0.00011784 2.05698e-07 0 -0.00011735 -2.8068e-06 0 -0.000115784 -5.77519e-06 0 -0.000113149 -8.66665e-06 0 -0.000109462 -1.14295e-05 0 -0.000104759 -1.39877e-05 0 -9.91138e-05 -1.62407e-05 0 -9.26516e-05 -1.80735e-05 0 -8.55618e-05 -1.9379e-05 0 -7.8088e-05 -2.00896e-05 0 -7.05006e-05 -2.02031e-05 0 -6.30498e-05 -1.97863e-05 0 -5.59318e-05 -1.89554e-05 0 -4.92736e-05 -1.78414e-05 0 0 2.65792e-05 0 -7.52179e-06 2.6697e-05 0 -1.51419e-05 2.70374e-05 0 -2.29535e-05 2.7561e-05 0 -3.10373e-05 2.81969e-05 0 -3.94498e-05 2.88378e-05 0 -4.82048e-05 2.93379e-05 0 -5.72493e-05 2.95205e-05 0 -6.64427e-05 2.9204e-05 0 -7.55528e-05 2.82471e-05 0 -8.42906e-05 2.65934e-05 0 -9.23697e-05 2.42885e-05 0 -9.95603e-05 2.14541e-05 0 -0.000105717 1.82407e-05 0 -0.000110766 1.4787e-05 0 -0.000114686 1.12003e-05 0 -0.00011748 7.55262e-06 0 -0.000119162 3.88762e-06 0 -0.000119745 2.30382e-07 0 -0.000119236 -3.40184e-06 0 -0.000117636 -6.98877e-06 0 -0.000114943 -1.04963e-05 0 -0.000111159 -1.38658e-05 0 -0.000106301 -1.70058e-05 0 -0.000100429 -1.97883e-05 0 -9.36622e-05 -2.206e-05 0 -8.62038e-05 -2.36717e-05 0 -7.83371e-05 -2.45256e-05 0 -7.03781e-05 -2.46163e-05 0 -6.26212e-05 -2.40374e-05 0 -5.52836e-05 -2.29491e-05 0 -4.84921e-05 -2.15262e-05 0 0 3.08259e-05 0 -7.37162e-06 3.09742e-05 0 -1.48568e-05 3.14048e-05 0 -2.25664e-05 3.20745e-05 0 -3.06023e-05 3.29037e-05 0 -3.90462e-05 3.37672e-05 0 -4.79373e-05 3.44874e-05 0 -5.72397e-05 3.48378e-05 0 -6.68048e-05 3.45747e-05 0 -7.63606e-05 3.35011e-05 0 -8.55461e-05 3.15398e-05 0 -9.40064e-05 2.87617e-05 0 -0.000101481 2.53421e-05 0 -0.000107823 2.1486e-05 0 -0.000112977 1.73713e-05 0 -0.000116947 1.31265e-05 0 -0.000119759 8.8321e-06 0 -0.000121439 4.53196e-06 0 -0.000122011 2.47004e-07 0 -0.000121483 -4.01117e-06 0 -0.000119851 -8.22738e-06 0 -0.0001171 -1.23697e-05 0 -0.000113212 -1.63758e-05 0 -0.000108182 -2.01395e-05 0 -0.000102045 -2.35027e-05 0 -9.49062e-05 -2.62638e-05 0 -8.69869e-05 -2.82154e-05 0 -7.8615e-05 -2.92146e-05 0 -7.01868e-05 -2.92504e-05 0 -6.20521e-05 -2.84556e-05 0 -5.44543e-05 -2.70507e-05 0 -4.7514e-05 -2.52667e-05 0 0 3.4975e-05 0 -7.18423e-06 3.51581e-05 0 -1.44983e-05 3.56928e-05 0 -2.20721e-05 3.65344e-05 0 -3.00326e-05 3.75974e-05 0 -3.84937e-05 3.87416e-05 0 -4.75314e-05 3.97566e-05 0 -5.71391e-05 4.03572e-05 0 -6.71678e-05 4.02147e-05 0 -7.72827e-05 3.90503e-05 0 -8.70273e-05 3.67569e-05 0 -9.59585e-05 3.34452e-05 0 -0.000103763 2.93715e-05 0 -0.000110306 2.48139e-05 0 -0.000115564 1.99961e-05 0 -0.000119576 1.50675e-05 0 -0.000122394 1.01126e-05 0 -0.000124066 5.171e-06 0 -0.000124625 2.5501e-07 0 -0.000124079 -4.6336e-06 0 -0.000122419 -9.489e-06 0 -0.000119616 -1.4286e-05 0 -0.000115627 -1.8963e-05 0 -0.000110416 -2.34022e-05 0 -0.000103978 -2.74133e-05 0 -9.63987e-05 -3.07342e-05 0 -8.79055e-05 -3.3075e-05 0 -7.89101e-05 -3.42233e-05 0 -6.98949e-05 -3.41592e-05 0 -6.13035e-05 -3.30732e-05 0 -5.34067e-05 -3.12739e-05 0 -4.63099e-05 -2.90638e-05 0 0 3.90037e-05 0 -6.9545e-06 3.9226e-05 0 -1.40548e-05 3.98793e-05 0 -2.14511e-05 4.092e-05 0 -2.92982e-05 4.22619e-05 0 -3.77502e-05 4.37552e-05 0 -4.6934e-05 4.51595e-05 0 -5.68945e-05 4.61205e-05 0 -6.74946e-05 4.61952e-05 0 -7.83421e-05 4.49787e-05 0 -8.88141e-05 4.23116e-05 0 -9.83107e-05 3.83782e-05 0 -0.000106492 3.35565e-05 0 -0.000113239 2.82238e-05 0 -0.000118587 2.26548e-05 0 -0.000122621 1.70153e-05 0 -0.000125431 1.13879e-05 0 -0.000127085 5.80127e-06 0 -0.000127626 2.54218e-07 0 -0.000127066 -5.26617e-06 0 -0.000125389 -1.07683e-05 0 -0.000122547 -1.62396e-05 0 -0.000118472 -2.16251e-05 0 -0.000113081 -2.68018e-05 0 -0.00010632 -3.1548e-05 0 -9.82225e-05 -3.55271e-05 0 -8.90261e-05 -3.83318e-05 0 -7.92089e-05 -3.96377e-05 0 -6.94586e-05 -3.94052e-05 0 -6.03208e-05 -3.79237e-05 0 -5.20946e-05 -3.56279e-05 0 -4.4845e-05 -3.29125e-05 0 0 4.28864e-05 0 -6.67726e-06 4.31521e-05 0 -1.35151e-05 4.39379e-05 0 -2.06827e-05 4.52052e-05 0 -2.83657e-05 4.68736e-05 0 -3.67646e-05 4.87939e-05 0 -4.6077e-05 5.07028e-05 0 -5.64297e-05 5.21746e-05 0 -6.77373e-05 5.26065e-05 0 -7.94884e-05 5.13894e-05 0 -9.085e-05 4.82882e-05 0 -0.000101041 4.35998e-05 0 -0.000109624 3.79044e-05 0 -0.000116565 3.17066e-05 0 -0.000121972 2.53335e-05 0 -0.000126 1.89573e-05 0 -0.000128778 1.26487e-05 0 -0.000130399 6.41821e-06 0 -0.000130919 2.44879e-07 0 -0.000130351 -5.90393e-06 0 -0.000128671 -1.20563e-05 0 -0.000125815 -1.82186e-05 0 -0.000121679 -2.43518e-05 0 -0.000116132 -3.03376e-05 0 -0.000109037 -3.59299e-05 0 -0.000100354 -4.07063e-05 0 -9.02781e-05 -4.40878e-05 0 -7.9481e-05 -4.55627e-05 0 -6.88103e-05 -4.50656e-05 0 -5.90338e-05 -4.30376e-05 0 -5.04577e-05 -4.01138e-05 0 -4.30785e-05 -3.68001e-05 0 0 4.65948e-05 0 -6.34803e-06 4.69076e-05 0 -1.28681e-05 4.78378e-05 0 -1.9747e-05 4.93568e-05 0 -2.71992e-05 5.13993e-05 0 -3.54792e-05 5.38297e-05 0 -4.48722e-05 5.63826e-05 0 -5.56389e-05 5.85646e-05 0 -6.78069e-05 5.95728e-05 0 -8.0849e-05 5.84543e-05 0 -9.34674e-05 5.47897e-05 0 -0.000104451 4.91474e-05 0 -0.000113457 4.24083e-05 0 -0.000120543 3.52413e-05 0 -0.000125962 2.80094e-05 0 -0.000129939 2.08752e-05 0 -0.000132654 1.38829e-05 0 -0.000134225 7.0161e-06 0 -0.000134719 2.27678e-07 0 -0.000134151 -6.53976e-06 0 -0.000132489 -1.33395e-05 0 -0.000129651 -2.02043e-05 0 -0.000125502 -2.7122e-05 0 -0.000119841 -3.39955e-05 0 -0.00011244 -4.05713e-05 0 -0.000103101 -4.63412e-05 0 -9.19569e-05 -5.04877e-05 0 -7.97064e-05 -5.21673e-05 0 -6.78538e-05 -5.12275e-05 0 -5.73395e-05 -4.84399e-05 0 -4.84289e-05 -4.47188e-05 0 -4.09671e-05 -4.07002e-05 0 0 5.00985e-05 0 -5.96291e-06 5.04607e-05 0 -1.21052e-05 5.15441e-05 0 -1.86251e-05 5.33354e-05 0 -2.57646e-05 5.57933e-05 0 -3.3829e-05 5.88186e-05 0 -4.32135e-05 6.21689e-05 0 -5.43649e-05 6.53329e-05 0 -6.75852e-05 6.72497e-05 0 -8.21573e-05 6.63514e-05 0 -9.62397e-05 6.19553e-05 0 -0.000108203 5.50372e-05 0 -0.000117557 4.70432e-05 0 -0.000124721 3.87884e-05 0 -0.000130067 3.06501e-05 0 -0.000133938 2.27442e-05 0 -0.000136551 1.50753e-05 0 -0.000138052 7.58791e-06 0 -0.000138514 2.03816e-07 0 -0.000137955 -7.16432e-06 0 -0.000136338 -1.45999e-05 0 -0.000133566 -2.21696e-05 0 -0.000129463 -2.99015e-05 0 -0.000123774 -3.77408e-05 0 -0.000116123 -4.54635e-05 0 -0.000106135 -5.25029e-05 0 -9.36227e-05 -5.77098e-05 0 -7.97718e-05 -5.9628e-05 0 -6.64256e-05 -5.80067e-05 0 -5.5116e-05 -5.4131e-05 0 -4.59178e-05 -4.94106e-05 0 -3.84631e-05 -4.45778e-05 0 0 5.33653e-05 0 -5.5204e-06 5.3778e-05 0 -1.122e-05 5.50187e-05 0 -1.73041e-05 5.70936e-05 0 -2.40299e-05 5.99989e-05 0 -3.17526e-05 6.36883e-05 0 -4.09727e-05 6.80041e-05 0 -5.23903e-05 7.24661e-05 0 -6.68027e-05 7.58931e-05 0 -8.40741e-05 7.55899e-05 0 -0.000100701 6.99268e-05 0 -0.000113556 6.12622e-05 0 -0.000123196 5.17406e-05 0 -0.000130266 4.22921e-05 0 -0.000135448 3.32091e-05 0 -0.000139134 2.45348e-05 0 -0.000141602 1.6207e-05 0 -0.000143007 8.12596e-06 0 -0.000143432 1.74795e-07 0 -0.000142895 -7.76633e-06 0 -0.000141355 -1.58151e-05 0 -0.0001387 -2.40794e-05 0 -0.000134735 -3.26397e-05 0 -0.000129127 -4.15133e-05 0 -0.000121392 -5.0557e-05 0 -0.000110783 -5.92363e-05 0 -9.66918e-05 -6.60814e-05 0 -7.96601e-05 -6.84241e-05 0 -6.42837e-05 -6.54834e-05 0 -5.21748e-05 -6.00812e-05 0 -4.28506e-05 -5.41232e-05 0 -3.55286e-05 -4.8366e-05 0 0 5.63639e-05 0 -5.01923e-06 5.68251e-05 0 -1.02125e-05 5.82201e-05 0 -1.5775e-05 6.05808e-05 0 -2.19779e-05 6.39423e-05 0 -2.91909e-05 6.83484e-05 0 -3.80264e-05 7.37591e-05 0 -4.94036e-05 7.98881e-05 0 -6.50448e-05 8.57422e-05 0 -8.52359e-05 8.64995e-05 0 -0.00010452 7.88774e-05 0 -0.000118314 6.76943e-05 0 -0.000127856 5.6409e-05 0 -0.000134689 4.56589e-05 0 -0.000139543 3.56369e-05 0 -0.000142974 2.62077e-05 0 -0.000145238 1.72595e-05 0 -0.000146524 8.62063e-06 0 -0.000146904 1.4284e-07 0 -0.000146404 -8.33265e-06 0 -0.000144974 -1.69597e-05 0 -0.000142508 -2.58893e-05 0 -0.000138769 -3.52726e-05 0 -0.000133432 -4.52146e-05 0 -0.000125792 -5.57408e-05 0 -0.000114934 -6.65143e-05 0 -9.89435e-05 -7.59055e-05 0 -7.87622e-05 -7.88678e-05 0 -6.09865e-05 -7.37602e-05 0 -4.83559e-05 -6.61525e-05 0 -3.9112e-05 -5.87578e-05 0 -3.21249e-05 -5.20186e-05 0 0 5.90601e-05 0 -4.46523e-06 5.9567e-05 0 -9.08217e-06 6.11102e-05 0 -1.40474e-05 6.37324e-05 0 -1.95935e-05 6.75621e-05 0 -2.61266e-05 7.26313e-05 0 -3.42541e-05 7.93444e-05 0 -4.50852e-05 8.7122e-05 0 -6.12296e-05 9.7331e-05 0 -8.86311e-05 0.000101469 0 -0.000114605 8.85764e-05 0 -0.000127512 7.4212e-05 0 -0.000137048 6.0812e-05 0 -0.000143127 4.88212e-05 0 -0.000147615 3.78492e-05 0 -0.000150643 2.77334e-05 0 -0.000152675 1.82059e-05 0 -0.000153803 9.06512e-06 0 -0.000154139 1.09364e-07 0 -0.000153684 -8.84969e-06 0 -0.00015241 -1.80042e-05 0 -0.000150181 -2.75526e-05 0 -0.000146829 -3.77159e-05 0 -0.00014187 -4.87207e-05 0 -0.000134843 -6.081e-05 0 -0.000123952 -7.40543e-05 0 -0.000107092 -8.80789e-05 0 -7.67526e-05 -9.3129e-05 0 -5.59978e-05 -8.23591e-05 0 -4.33611e-05 -7.22066e-05 0 -3.47291e-05 -6.31411e-05 0 -2.82512e-05 -5.53856e-05 0 0 6.14222e-05 0 -3.8595e-06 6.19716e-05 0 -7.84549e-06 6.36513e-05 0 -1.21271e-05 6.64878e-05 0 -1.69051e-05 7.07813e-05 0 -2.25492e-05 7.63786e-05 0 -2.96283e-05 8.45431e-05 0 -3.92255e-05 9.36241e-05 0 -5.39618e-05 0.000109693 0 -7.98649e-05 0.000119717 0 -0.000104379 9.80361e-05 0 -0.000115987 8.04692e-05 0 -0.000124455 6.46918e-05 0 -0.000129699 5.16841e-05 0 -0.00013356 3.9762e-05 0 -0.000136135 2.90797e-05 0 -0.000137863 1.90201e-05 0 -0.000138817 9.45262e-06 0 -0.000139099 7.59772e-08 0 -0.000138707 -9.30407e-06 0 -0.000137618 -1.89179e-05 0 -0.000135708 -2.90208e-05 0 -0.000132831 -3.9876e-05 0 -0.000128531 -5.18825e-05 0 -0.000122378 -6.54716e-05 0 -0.000112587 -8.12487e-05 0 -9.70266e-05 -0.000101597 0 -6.80755e-05 -0.000110424 0 -4.86729e-05 -9.03908e-05 0 -3.72307e-05 -7.79561e-05 0 -2.95919e-05 -6.70779e-05 0 -2.39159e-05 -5.82967e-05 0 0 6.34324e-05 0 -3.21015e-06 6.40134e-05 0 -6.51949e-06 6.57977e-05 0 -1.00415e-05 6.88186e-05 0 -1.39525e-05 7.3464e-05 0 -1.85109e-05 7.95636e-05 0 -2.42112e-05 8.88274e-05 0 -3.18835e-05 9.93377e-05 0 -4.32766e-05 0.000119588 0 -5.89066e-05 0.000132951 0 -7.37495e-05 0.000106133 0 -8.36309e-05 8.56279e-05 0 -8.99674e-05 6.80125e-05 0 -9.43062e-05 5.4019e-05 0 -9.72884e-05 4.13649e-05 0 -9.93708e-05 3.0179e-05 0 -0.00010073 1.96971e-05 0 -0.000101497 9.7683e-06 0 -0.000101715 4.70415e-08 0 -0.000101402 -9.68192e-06 0 -0.000100521 -1.96785e-05 0 -9.90067e-05 -3.02362e-05 0 -9.66845e-05 -4.16787e-05 0 -9.33151e-05 -5.45197e-05 0 -8.82882e-05 -6.94129e-05 0 -8.07436e-05 -8.74028e-05 0 -6.86779e-05 -0.000112197 0 -5.27447e-05 -0.000123076 0 -3.90654e-05 -9.75137e-05 0 -3.00338e-05 -8.2757e-05 0 -2.37627e-05 -7.0443e-05 0 -1.91694e-05 -6.08463e-05 0 0 6.5068e-05 0 -2.53217e-06 6.56698e-05 0 -5.1213e-06 6.75224e-05 0 -7.83899e-06 7.06769e-05 0 -1.07852e-05 7.5548e-05 0 -1.41279e-05 8.20419e-05 0 -1.81576e-05 9.19882e-05 0 -2.33962e-05 0.000103703 0 -3.06398e-05 0.000126007 0 -4.01692e-05 0.000140347 0 -4.92645e-05 0.000111837 0 -5.55218e-05 8.93348e-05 0 -5.98282e-05 7.05234e-05 0 -6.27739e-05 5.57444e-05 0 -6.4874e-05 4.25854e-05 0 -6.63422e-05 3.10078e-05 0 -6.73211e-05 2.0216e-05 0 -6.78723e-05 1.00077e-05 0 -6.80304e-05 2.37289e-08 0 -6.77989e-05 -9.9731e-06 0 -6.71623e-05 -2.02617e-05 0 -6.60698e-05 -3.11599e-05 0 -6.44341e-05 -4.30423e-05 0 -6.20689e-05 -5.64945e-05 0 -5.86681e-05 -7.23419e-05 0 -5.36037e-05 -9.18856e-05 0 -4.61738e-05 -0.000118828 0 -3.63554e-05 -0.000130258 0 -2.79396e-05 -0.000102804 0 -2.18703e-05 -8.63212e-05 0 -1.74816e-05 -7.30534e-05 0 -1.41054e-05 -6.28772e-05 0 0 6.63129e-05 0 -1.83493e-06 6.69246e-05 0 -3.68372e-06 6.88088e-05 0 -5.5619e-06 7.20241e-05 0 -7.49582e-06 7.70017e-05 0 -9.5246e-06 8.36786e-05 0 -1.17276e-05 9.39529e-05 0 -1.42345e-05 0.000106224 0 -1.72409e-05 0.00012938 0 -2.05538e-05 0.000144117 0 -2.36994e-05 0.000114846 0 -2.63073e-05 9.14515e-05 0 -2.82148e-05 7.20117e-05 0 -2.96879e-05 5.68189e-05 0 -3.07977e-05 4.33634e-05 0 -3.16275e-05 3.1553e-05 0 -3.21973e-05 2.05607e-05 0 -3.2527e-05 1.01687e-05 0 -3.26202e-05 6.65838e-09 0 -3.24789e-05 -1.01704e-05 0 -3.20966e-05 -2.06504e-05 0 -3.14641e-05 -3.17641e-05 0 -3.05527e-05 -4.39076e-05 0 -2.93266e-05 -5.77072e-05 0 -2.76797e-05 -7.40618e-05 0 -2.54976e-05 -9.43728e-05 0 -2.2546e-05 -0.00012226 0 -1.92726e-05 -0.000133972 0 -1.5977e-05 -0.000105732 0 -1.32029e-05 -8.85087e-05 0 -1.0853e-05 -7.47648e-05 0 -8.82417e-06 -6.42775e-05 0 0 6.71617e-05 0 -1.13391e-06 6.7771e-05 0 -2.23593e-06 6.96472e-05 0 -3.26845e-06 7.28469e-05 0 -4.17478e-06 7.77991e-05 0 -4.86918e-06 8.44321e-05 0 -5.198e-06 9.46388e-05 0 -4.9107e-06 0.000106794 0 -3.64436e-06 0.000129801 0 -1.53638e-06 0.000144462 0 5.18312e-07 0.000115192 0 1.7836e-06 9.18582e-05 0 2.25041e-06 7.24201e-05 0 2.32872e-06 5.71981e-05 0 2.20797e-06 4.36838e-05 0 2.03566e-06 3.1802e-05 0 1.87517e-06 2.07276e-05 0 1.77116e-06 1.02487e-05 0 1.74143e-06 -3.25547e-09 0 1.7925e-06 -1.02702e-05 0 1.91435e-06 -2.08376e-05 0 2.08408e-06 -3.20337e-05 0 2.24823e-06 -4.42493e-05 0 2.32508e-06 -5.81051e-05 0 2.13454e-06 -7.44865e-05 0 1.43094e-06 -9.47814e-05 0 -1.66785e-07 -0.000122635 0 -2.20923e-06 -0.000134404 0 -3.83414e-06 -0.000106286 0 -4.37746e-06 -8.92092e-05 0 -4.13858e-06 -7.55288e-05 0 -3.46472e-06 -6.50407e-05 0 0 6.76164e-05 0 -4.42578e-07 6.82108e-05 0 -8.10925e-07 7.00396e-05 0 -1.01412e-06 7.31494e-05 0 -9.22209e-07 7.79438e-05 0 -3.27313e-07 8.43147e-05 0 1.13319e-06 9.40528e-05 0 4.09065e-06 0.000105444 0 9.57429e-06 0.000127232 0 1.78791e-05 0.000141204 0 2.58488e-05 0.000112895 0 3.07516e-05 9.05597e-05 0 3.35428e-05 7.1769e-05 0 3.50684e-05 5.68856e-05 0 3.59113e-05 4.35536e-05 0 3.63665e-05 3.17565e-05 0 3.66059e-05 2.07189e-05 0 3.67196e-05 1.02481e-05 0 3.67527e-05 -5.86446e-09 0 3.67153e-05 -1.02732e-05 0 3.65863e-05 -2.08254e-05 0 3.63055e-05 -3.19712e-05 0 3.5757e-05 -4.40734e-05 0 3.47237e-05 -5.76962e-05 0 3.2811e-05 -7.36316e-05 0 2.93002e-05 -9.3128e-05 0 2.32014e-05 -0.000119888 0 1.46881e-05 -0.00013139 0 7.93211e-06 -0.000104508 0 4.17824e-06 -8.84377e-05 0 2.45025e-06 -7.53681e-05 0 1.84688e-06 -6.51979e-05 0 0 6.76845e-05 0 2.24604e-07 6.82541e-05 0 5.62084e-07 7.00009e-05 0 1.14576e-06 7.29499e-05 0 2.17231e-06 7.7475e-05 0 3.94043e-06 8.33784e-05 0 6.9939e-06 9.23158e-05 0 1.22576e-05 0.000102308 0 2.17589e-05 0.0001216 0 3.70587e-05 0.000134294 0 5.16037e-05 0.0001079 0 5.97792e-05 8.77427e-05 0 6.45798e-05 7.01237e-05 0 6.73876e-05 5.59509e-05 0 6.90907e-05 4.29917e-05 0 7.01258e-05 3.14382e-05 0 7.07332e-05 2.05402e-05 0 7.10522e-05 1.01721e-05 0 7.11436e-05 -2.25004e-09 0 7.10259e-05 -1.01847e-05 0 7.06625e-05 -2.06233e-05 0 6.99724e-05 -3.15992e-05 0 6.87708e-05 -4.34131e-05 0 6.67655e-05 -5.65536e-05 0 6.33357e-05 -7.16105e-05 0 5.74222e-05 -8.95309e-05 0 4.68431e-05 -0.000113913 0 3.08164e-05 -0.000124892 0 1.86451e-05 -0.000100394 0 1.21e-05 -8.63772e-05 0 8.67218e-06 -7.43697e-05 0 6.97725e-06 -6.4753e-05 0 0 6.73874e-05 0 8.58186e-07 6.79208e-05 0 1.85318e-06 6.95492e-05 0 3.17006e-06 7.22985e-05 0 5.02412e-06 7.64209e-05 0 7.81585e-06 8.17977e-05 0 1.2143e-05 8.94747e-05 0 1.91435e-05 9.80435e-05 0 3.15603e-05 0.000112428 0 5.61798e-05 0.000120701 0 7.95056e-05 0.000100754 0 8.90936e-05 8.35077e-05 0 9.58474e-05 6.77727e-05 0 9.94697e-05 5.44185e-05 0 0.000101993 4.20828e-05 0 0.000103485 3.08563e-05 0 0.000104439 2.02154e-05 0 0.000104933 1.00222e-05 0 0.000105084 7.7758e-09 0 0.00010489 -1.00127e-05 0 0.000104329 -2.02529e-05 0 0.000103266 -3.09472e-05 0 0.000101547 -4.23412e-05 0 9.86742e-05 -5.47848e-05 0 9.42295e-05 -6.86547e-05 0 8.62902e-05 -8.44156e-05 0 7.27247e-05 -0.000103774 0 4.47755e-05 -0.000112175 0 2.75848e-05 -9.47798e-05 0 1.89659e-05 -8.3153e-05 0 1.44101e-05 -7.27351e-05 0 1.18363e-05 -6.39322e-05 0 0 6.67463e-05 0 1.44387e-06 6.72351e-05 0 3.04802e-06 6.87192e-05 0 5.01372e-06 7.12374e-05 0 7.59173e-06 7.48731e-05 0 1.11942e-05 7.96772e-05 0 1.64536e-05 8.58625e-05 0 2.44703e-05 9.30353e-05 0 3.77227e-05 0.000101581 0 6.0932e-05 0.000104053 0 8.29896e-05 9.25492e-05 0 9.3818e-05 7.83967e-05 0 0.00010127 6.48942e-05 0 0.000105699 5.24279e-05 0 0.000108743 4.08799e-05 0 0.00011066 3.00526e-05 0 0.000111883 1.97609e-05 0 0.000112538 9.8074e-06 0 0.000112736 2.21004e-08 0 0.000112485 -9.76912e-06 0 0.000111751 -1.97388e-05 0 0.000110401 -3.00626e-05 0 0.00010824 -4.09387e-05 0 0.000104806 -5.25461e-05 0 9.95597e-05 -6.50697e-05 0 9.08803e-05 -7.84496e-05 0 7.66344e-05 -9.17456e-05 0 5.12222e-05 -9.66358e-05 0 3.40785e-05 -8.84019e-05 0 2.47141e-05 -7.92071e-05 0 1.94238e-05 -7.06586e-05 0 1.63399e-05 -6.28262e-05 0 0 6.57816e-05 0 1.97671e-06 6.62241e-05 0 4.12979e-06 6.75579e-05 0 6.65818e-06 6.98004e-05 0 9.83807e-06 7.29673e-05 0 1.40446e-05 7.70588e-05 0 1.98868e-05 8.19899e-05 0 2.82554e-05 8.73822e-05 0 4.06532e-05 9.21396e-05 0 5.68951e-05 9.20933e-05 0 7.24945e-05 8.44071e-05 0 8.37222e-05 7.3217e-05 0 9.10906e-05 6.15477e-05 0 9.61165e-05 5.02035e-05 0 9.94718e-05 3.94037e-05 0 0.000101731 2.9095e-05 0 0.000103158 1.91858e-05 0 0.00010395 9.54295e-06 0 0.000104187 3.66931e-08 0 0.000103895 -9.46851e-06 0 0.000103023 -1.91059e-05 0 0.000101462 -2.90049e-05 0 9.89709e-05 -3.92851e-05 0 9.52183e-05 -5.00197e-05 0 8.95126e-05 -6.11703e-05 0 8.10115e-05 -7.2324e-05 0 6.80686e-05 -8.18532e-05 0 5.21621e-05 -8.54484e-05 0 3.82762e-05 -8.16513e-05 0 2.92395e-05 -7.51773e-05 0 2.36998e-05 -6.83083e-05 0 2.04609e-05 -6.14272e-05 0 0 6.45286e-05 0 2.45549e-06 6.49221e-05 0 5.08752e-06 6.61011e-05 0 8.09964e-06 6.80582e-05 0 1.17477e-05 7.07642e-05 0 1.63848e-05 7.41417e-05 0 2.24997e-05 7.79785e-05 0 3.07537e-05 8.17659e-05 0 4.1819e-05 8.42885e-05 0 5.54808e-05 8.31825e-05 0 6.87162e-05 7.72093e-05 0 7.88115e-05 6.81623e-05 0 8.61486e-05 5.8056e-05 0 9.12952e-05 4.78036e-05 0 9.49028e-05 3.77611e-05 0 9.73627e-05 2.80077e-05 0 9.89582e-05 1.85229e-05 0 9.98488e-05 9.23407e-06 0 0.000100123 5.08565e-08 0 9.9799e-05 -9.12449e-06 0 9.88359e-05 -1.83874e-05 0 9.71183e-05 -2.78213e-05 0 9.44502e-05 -3.74798e-05 0 9.04995e-05 -4.73456e-05 0 8.48036e-05 -5.72387e-05 0 7.6679e-05 -6.65937e-05 0 6.56737e-05 -7.39968e-05 0 5.23916e-05 -7.71617e-05 0 4.08338e-05 -7.55335e-05 0 3.25538e-05 -7.12536e-05 0 2.72941e-05 -6.59473e-05 0 2.42023e-05 -6.00082e-05 0 0 6.30187e-05 0 2.87652e-06 6.33634e-05 0 5.92448e-06 6.43896e-05 0 9.33473e-06 6.60694e-05 0 1.33424e-05 6.83385e-05 0 1.8245e-05 7.10625e-05 0 2.44236e-05 7.39652e-05 0 3.2297e-05 7.6499e-05 0 4.21176e-05 7.76512e-05 0 5.32235e-05 7.6026e-05 0 6.40326e-05 7.09813e-05 0 7.31395e-05 6.34142e-05 0 8.00769e-05 5.45908e-05 0 8.52115e-05 4.53271e-05 0 8.89054e-05 3.60204e-05 0 9.14944e-05 2.6831e-05 0 9.31977e-05 1.77955e-05 0 9.41633e-05 8.89043e-06 0 9.44663e-05 6.253e-08 0 9.41262e-05 -8.75148e-06 0 9.31039e-05 -1.7612e-05 0 9.13018e-05 -2.65618e-05 0 8.85453e-05 -3.56018e-05 0 8.45829e-05 -4.46497e-05 0 7.90565e-05 -5.34545e-05 0 7.16282e-05 -6.14495e-05 0 6.21842e-05 -6.75783e-05 0 5.1836e-05 -7.05834e-05 0 4.22394e-05 -7.02232e-05 0 3.49018e-05 -6.7624e-05 0 3.01443e-05 -6.3776e-05 0 2.75798e-05 -5.882e-05 0 0 6.12832e-05 0 3.2427e-06 6.15816e-05 0 6.64406e-06 6.24635e-05 0 1.0378e-05 6.3886e-05 0 1.46467e-05 6.57591e-05 0 1.96925e-05 6.79159e-05 0 2.57882e-05 7.00545e-05 0 3.31804e-05 7.16621e-05 0 4.18977e-05 7.19506e-05 0 5.14767e-05 7.00442e-05 0 6.0812e-05 6.55896e-05 0 6.88727e-05 5.90514e-05 0 7.5352e-05 5.12565e-05 0 8.03135e-05 4.28548e-05 0 8.4002e-05 3.4238e-05 0 8.66403e-05 2.56015e-05 0 8.84078e-05 1.70249e-05 0 8.94221e-05 8.52109e-06 0 8.9749e-05 6.98087e-08 0 8.9404e-05 -8.36263e-06 0 8.8356e-05 -1.68063e-05 0 8.6522e-05 -2.52698e-05 0 8.37667e-05 -3.37159e-05 0 7.98958e-05 -4.20217e-05 0 7.4689e-05 -4.99164e-05 0 6.79668e-05 -5.68995e-05 0 5.98646e-05 -6.22188e-05 0 5.10413e-05 -6.51542e-05 0 4.28675e-05 -6.564e-05 0 3.63764e-05 -6.43587e-05 0 3.22472e-05 -6.197e-05 0 3.06757e-05 -5.80156e-05 0 0 5.93521e-05 0 3.55741e-06 5.96081e-05 0 7.25637e-06 6.03594e-05 0 1.12476e-05 6.15526e-05 0 1.56991e-05 6.30828e-05 0 2.07959e-05 6.47672e-05 0 2.67239e-05 6.63073e-05 0 3.36089e-05 6.72478e-05 0 4.13906e-05 6.69875e-05 0 4.96491e-05 6.49449e-05 0 5.76912e-05 6.0885e-05 0 6.4867e-05 5.5092e-05 0 7.08216e-05 4.81088e-05 0 7.55419e-05 4.04465e-05 0 7.91428e-05 3.24576e-05 0 8.17756e-05 2.43504e-05 0 8.35673e-05 1.6229e-05 0 8.46098e-05 8.13422e-06 0 8.49549e-05 7.10407e-08 0 8.46159e-05 -7.96941e-06 0 8.3568e-05 -1.59923e-05 0 8.17481e-05 -2.39806e-05 0 7.90543e-05 -3.18705e-05 0 7.53569e-05 -3.95198e-05 0 7.05221e-05 -4.66652e-05 0 6.45034e-05 -5.28902e-05 0 5.74692e-05 -5.76656e-05 0 5.00132e-05 -6.05698e-05 0 4.29217e-05 -6.16298e-05 0 3.70871e-05 -6.1413e-05 0 3.34329e-05 -6.06184e-05 0 3.34214e-05 -5.83412e-05 0 0 5.72528e-05 0 3.82634e-06 5.74716e-05 0 7.77377e-06 5.81092e-05 0 1.19679e-05 5.91066e-05 0 1.65409e-05 6.03517e-05 0 2.16266e-05 6.166e-05 0 2.73405e-05 6.27491e-05 0 3.37324e-05 6.32261e-05 0 4.07063e-05 6.262e-05 0 4.79568e-05 6.05167e-05 0 5.5001e-05 5.67589e-05 0 6.13755e-05 5.15171e-05 0 6.68165e-05 4.51775e-05 0 7.12475e-05 3.81388e-05 0 7.47128e-05 3.07124e-05 0 7.72967e-05 2.31014e-05 0 7.90832e-05 1.54234e-05 0 8.01369e-05 7.73647e-06 0 8.04959e-05 6.5001e-08 0 8.01709e-05 -7.58111e-06 0 7.9144e-05 -1.51881e-05 0 7.73709e-05 -2.27206e-05 0 7.47833e-05 -3.00993e-05 0 7.13031e-05 -3.71765e-05 0 6.68666e-05 -4.37094e-05 0 6.14926e-05 -4.93574e-05 0 5.53548e-05 -5.37394e-05 0 4.88642e-05 -5.66006e-05 0 4.25738e-05 -5.805e-05 0 3.71056e-05 -5.86107e-05 0 3.33234e-05 -5.9575e-05 0 3.62732e-05 -6.11781e-05 0 0 5.50095e-05 0 4.05581e-06 5.5197e-05 0 8.21072e-06 5.57397e-05 0 1.25643e-05 5.6577e-05 0 1.72143e-05 5.75966e-05 0 2.22493e-05 5.862e-05 0 2.77298e-05 5.93878e-05 0 3.36564e-05 5.95589e-05 0 3.99262e-05 5.87516e-05 0 4.6318e-05 5.66477e-05 0 5.25064e-05 5.31235e-05 0 5.81729e-05 4.83014e-05 0 6.31185e-05 4.24701e-05 0 6.72441e-05 3.59539e-05 0 7.05443e-05 2.9024e-05 0 7.30512e-05 2.18724e-05 0 7.48113e-05 1.46193e-05 0 7.58632e-05 7.33325e-06 0 7.62332e-05 5.07024e-08 0 7.59272e-05 -7.20463e-06 0 7.49376e-05 -1.4407e-05 0 7.3231e-05 -2.1508e-05 0 7.07823e-05 -2.84238e-05 0 6.75304e-05 -3.50061e-05 0 6.3512e-05 -4.10416e-05 0 5.86867e-05 -4.62415e-05 0 5.33854e-05 -5.03207e-05 0 4.75496e-05 -5.31281e-05 0 4.21322e-05 -5.47305e-05 0 3.63608e-05 -5.58758e-05 0 3.18951e-05 -5.71663e-05 0 3.40496e-05 -7.30153e-05 0 </DataArray> 
</PointData> 
<Points> 
<DataArray type="Float32" NumberOfComponents="3"> 