<?xml version="1.0"?> 
<VTKFile type="StructuredGrid" version="0.1"> 
<StructuredGrid WholeExtent="0 31 0 31 0 0"> 
<Piece Extent="0 31 0 31 0 0"> 
<PointData>
<DataArray type="Float32" Name="u" format="ascii" NumberOfComponents="3"> 
0.00123474 6.74113e-05 0 0 0 0 0 0 0 0 0 0 0 0 0 0 0 0 0 0 0 0 0 0 0 0 0 0 0 0 0 0 0 0 0 0 0 0 0 0 0 0 0 0 0 0 0 0 0 0 0 0 0 0 0 0 0 0 0 0 0 0 0 0 0 0 0 0 0 0 0 0 0 0 0 0 0 0 0 0 0 0 0 0 0 0 0 0 0 0 0 0 0 0 0 0 0.00123162 6.25914e-05 0 0 0 0 0 0 0 0 0 0 0 0 0 0 0 0 0 0 0 0 0 0 0 0 0 0 0 0 0 0 0 0 0 0 0 0 0 0 0 0 0 0 0 0 0 0 0 0 0 0 0 0 0 0 0 0 0 0 0 0 0 0 0 0 0 0 0 0 0 0 0 0 0 0 0 0 0 0 0 0 0 0 0 0 0 0 0 0 0 0 0 0 0 0 0.00122944 5.79334e-05 0 0 0 0 0 0 0 0 0 0 0 0 0 0 0 0 0 0 0 0 0 0 0 0 0 0 0 0 0 0 0 0 0 0 0 0 0 0 0 0 0 0 0 0 0 0 0 0 0 0 0 0 0 0 0 0 0 0 0 0 0 0 0 0 0 0 0 0 0 0 0 0 0 0 0 0 0 0 0 0 0 0 0 0 0 0 0 0 0 0 0 0 0 0 0.00122764 5.33162e-05 0 0 0 0 0 0 0 0 0 0 0 0 0 0 0 0 0 0 0 0 0 0 0 0 0 0 0 0 0 0 0 0 0 0 0 0 0 0 0 0 0 0 0 0 0 0 0 0 0 0 0 0 0 0 0 0 0 0 0 0 0 0 0 0 0 0 0 0 0 0 0 0 0 0 0 0 0 0 0 0 0 0 0 0 0 0 0 0 0 0 0 0 0 0 0.00122614 4.8712e-05 0 0 0 0 0 0 0 0 0 0 0 0 0 0 0 0 0 0 0 0 0 0 0 0 0 0 0 0 0 0 0 0 0 0 0 0 0 0 0 0 0 0 0 0 0 0 0 0 0 0 0 0 0 0 0 0 0 0 0 0 0 0 0 0 0 0 0 0 0 0 0 0 0 0 0 0 0 0 0 0 0 0 0 0 0 0 0 0 0 0 0 0 0 0 0.00122485 4.41168e-05 0 0 0 0 0 0 0 0 0 0 0 0 0 0 0 0 0 0 0 0 0 0 0 0 0 0 0 0 0 0 0 0 0 0 0 0 0 0 0 0 0 0 0 0 0 0 0 0 0 0 0 0 0 0 0 0 0 0 0 0 0 0 0 0 0 0 0 0 0 0 0 0 0 0 0 0 0 0 0 0 0 0 0 0 0 0 0 0 0 0 0 0 0 0 0.00122374 3.95288e-05 0 0 0 0 0 0 0 0 0 0 0 0 0 0 0 0 0 0 0 0 0 0 0 0 0 0 0 0 0 0 0 0 0 0 0 0 0 0 0 0 0 0 0 0 0 0 0 0 0 0 0 0 0 0 0 0 0 0 0 0 0 0 0 0 0 0 0 0 0 0 0 0 0 0 0 0 0 0 0 0 0 0 0 0 0 0 0 0 0 0 0 0 0 0 0.00122279 3.49487e-05 0 0 0 0 0 0 0 0 0 0 0 0 0 0 0 0 0 0 0 0 0 0 0 0 0 0 0 0 0 0 0 0 0 0 0 0 0 0 0 0 0 0 0 0 0 0 0 0 0 0 0 0 0 0 0 0 0 0 0 0 0 0 0 0 0 0 0 0 0 0 0 0 0 0 0 0 0 0 0 0 0 0 0 0 0 0 0 0 0 0 0 0 0 0 0.00122198 3.0376e-05 0 0 0 0 0 0 0 0 0 0 0 0 0 0 0 0 0 0 0 0 0 0 0 0 0 0 0 0 0 0 0 0 0 0 0 0 0 0 0 0 0 0 0 0 0 0 0 0 0 0 0 0 0 0 0 0 0 0 0 0 0 0 0 0 0 0 0 0 0 0 0 0 0 0 0 0 0 0 0 0 0 0 0 0 0 0 0 0 0 0 0 0 0 0 0.0012213 2.58106e-05 0 0 0 0 0 0 0 0 0 0 0 0 0 0 0 0 0 0 0 0 0 0 0 0 0 0 0 0 0 0 0 0 0 0 0 0 0 0 0 0 0 0 0 0 0 0 0 0 0 0 0 0 0 0 0 0 0 0 0 0 0 0 0 0 0 0 0 0 0 0 0 0 0 0 0 0 0 0 0 0 0 0 0 0 0 0 0 0 0 0 0 0 0 0 0.00122073 2.12517e-05 0 0 0 0 0 0 0 0 0 0 0 0 0 0 0 0 0 0 0 0 0 0 0 0 0 0 0 0 0 0 0 0 0 0 0 0 0 0 0 0 0 0 0 0 0 0 0 0 0 0 0 0 0 0 0 0 0 0 0 0 0 0 0 0 0 0 0 0 0 0 0 0 0 0 0 0 0 0 0 0 0 0 0 0 0 0 0 0 0 0 0 0 0 0 0.00122028 1.66983e-05 0 0 0 0 0 0 0 0 0 0 0 0 0 0 0 0 0 0 0 0 0 0 0 0 0 0 0 0 0 0 0 0 0 0 0 0 0 0 0 0 0 0 0 0 0 0 0 0 0 0 0 0 0 0 0 0 0 0 0 0 0 0 0 0 0 0 0 0 0 0 0 0 0 0 0 0 0 0 0 0 0 0 0 0 0 0 0 0 0 0 0 0 0 0 0.00121993 1.21496e-05 0 0 0 0 0 0 0 0 0 0 0 0 0 0 0 0 0 0 0 0 0 0 0 0 0 0 0 0 0 0 0 0 0 0 0 0 0 0 0 0 0 0 0 0 0 0 0 0 0 0 0 0 0 0 0 0 0 0 0 0 0 0 0 0 0 0 0 0 0 0 0 0 0 0 0 0 0 0 0 0 0 0 0 0 0 0 0 0 0 0 0 0 0 0 0.00121967 7.60445e-06 0 0 0 0 0 0 0 0 0 0 0 0 0 0 0 0 0 0 0 0 0 0 0 0 0 0 0 0 0 0 0 0 0 0 0 0 0 0 0 0 0 0 0 0 0 0 0 0 0 0 0 0 0 0 0 0 0 0 0 0 0 0 0 0 0 0 0 0 0 0 0 0 0 0 0 0 0 0 0 0 0 0 0 0 0 0 0 0 0 0 0 0 0 0 0.00121952 3.06191e-06 0 0 0 0 0 0 0 0 0 0 0 0 0 0 0 0 0 0 0 0 0 0 0 0 0 0 0 0 0 0 0 0 0 0 0 0 0 0 0 0 0 0 0 0 0 0 0 0 0 0 0 0 0 0 0 0 0 0 0 0 0 0 0 0 0 0 0 0 0 0 0 0 0 0 0 0 0 0 0 0 0 0 0 0 0 0 0 0 0 0 0 0 0 0 0.00121945 -1.47911e-06 0 0 0 0 0 0 0 0 0 0 0 0 0 0 0 0 0 0 0 0 0 0 0 0 0 0 0 0 0 0 0 0 0 0 0 0 0 0 0 0 0 0 0 0 0 0 0 0 0 0 0 0 0 0 0 0 0 0 0 0 0 0 0 0 0 0 0 0 0 0 0 0 0 0 0 0 0 0 0 0 0 0 0 0 0 0 0 0 0 0 0 0 0 0 0.00121948 -6.01964e-06 0 0 0 0 0 0 0 0 0 0 0 0 0 0 0 0 0 0 0 0 0 0 0 0 0 0 0 0 0 0 0 0 0 0 0 0 0 0 0 0 0 0 0 0 0 0 0 0 0 0 0 0 0 0 0 0 0 0 0 0 0 0 0 0 0 0 0 0 0 0 0 0 0 0 0 0 0 0 0 0 0 0 0 0 0 0 0 0 0 0 0 0 0 0 0.0012196 -1.05607e-05 0 0 0 0 0 0 0 0 0 0 0 0 0 0 0 0 0 0 0 0 0 0 0 0 0 0 0 0 0 0 0 0 0 0 0 0 0 0 0 0 0 0 0 0 0 0 0 0 0 0 0 0 0 0 0 0 0 0 0 0 0 0 0 0 0 0 0 0 0 0 0 0 0 0 0 0 0 0 0 0 0 0 0 0 0 0 0 0 0 0 0 0 0 0 0.00121982 -1.51034e-05 0 0 0 0 0 0 0 0 0 0 0 0 0 0 0 0 0 0 0 0 0 0 0 0 0 0 0 0 0 0 0 0 0 0 0 0 0 0 0 0 0 0 0 0 0 0 0 0 0 0 0 0 0 0 0 0 0 0 0 0 0 0 0 0 0 0 0 0 0 0 0 0 0 0 0 0 0 0 0 0 0 0 0 0 0 0 0 0 0 0 0 0 0 0 0.00122013 -1.96488e-05 0 0 0 0 0 0 0 0 0 0 0 0 0 0 0 0 0 0 0 0 0 0 0 0 0 0 0 0 0 0 0 0 0 0 0 0 0 0 0 0 0 0 0 0 0 0 0 0 0 0 0 0 0 0 0 0 0 0 0 0 0 0 0 0 0 0 0 0 0 0 0 0 0 0 0 0 0 0 0 0 0 0 0 0 0 0 0 0 0 0 0 0 0 0 0.00122054 -2.41978e-05 0 0 0 0 0 0 0 0 0 0 0 0 0 0 0 0 0 0 0 0 0 0 0 0 0 0 0 0 0 0 0 0 0 0 0 0 0 0 0 0 0 0 0 0 0 0 0 0 0 0 0 0 0 0 0 0 0 0 0 0 0 0 0 0 0 0 0 0 0 0 0 0 0 0 0 0 0 0 0 0 0 0 0 0 0 0 0 0 0 0 0 0 0 0 0.00122106 -2.87515e-05 0 0 0 0 0 0 0 0 0 0 0 0 0 0 0 0 0 0 0 0 0 0 0 0 0 0 0 0 0 0 0 0 0 0 0 0 0 0 0 0 0 0 0 0 0 0 0 0 0 0 0 0 0 0 0 0 0 0 0 0 0 0 0 0 0 0 0 0 0 0 0 0 0 0 0 0 0 0 0 0 0 0 0 0 0 0 0 0 0 0 0 0 0 0 0.00122168 -3.3311e-05 0 0 0 0 0 0 0 0 0 0 0 0 0 0 0 0 0 0 0 0 0 0 0 0 0 0 0 0 0 0 0 0 0 0 0 0 0 0 0 0 0 0 0 0 0 0 0 0 0 0 0 0 0 0 0 0 0 0 0 0 0 0 0 0 0 0 0 0 0 0 0 0 0 0 0 0 0 0 0 0 0 0 0 0 0 0 0 0 0 0 0 0 0 0 0.00122243 -3.7877e-05 0 0 0 0 0 0 0 0 0 0 0 0 0 0 0 0 0 0 0 0 0 0 0 0 0 0 0 0 0 0 0 0 0 0 0 0 0 0 0 0 0 0 0 0 0 0 0 0 0 0 0 0 0 0 0 0 0 0 0 0 0 0 0 0 0 0 0 0 0 0 0 0 0 0 0 0 0 0 0 0 0 0 0 0 0 0 0 0 0 0 0 0 0 0 0.0012233 -4.24504e-05 0 0 0 0 0 0 0 0 0 0 0 0 0 0 0 0 0 0 0 0 0 0 0 0 0 0 0 0 0 0 0 0 0 0 0 0 0 0 0 0 0 0 0 0 0 0 0 0 0 0 0 0 0 0 0 0 0 0 0 0 0 0 0 0 0 0 0 0 0 0 0 0 0 0 0 0 0 0 0 0 0 0 0 0 0 0 0 0 0 0 0 0 0 0 0.00122431 -4.70314e-05 0 0 0 0 0 0 0 0 0 0 0 0 0 0 0 0 0 0 0 0 0 0 0 0 0 0 0 0 0 0 0 0 0 0 0 0 0 0 0 0 0 0 0 0 0 0 0 0 0 0 0 0 0 0 0 0 0 0 0 0 0 0 0 0 0 0 0 0 0 0 0 0 0 0 0 0 0 0 0 0 0 0 0 0 0 0 0 0 0 0 0 0 0 0 0.00122548 -5.16205e-05 0 0 0 0 0 0 0 0 0 0 0 0 0 0 0 0 0 0 0 0 0 0 0 0 0 0 0 0 0 0 0 0 0 0 0 0 0 0 0 0 0 0 0 0 0 0 0 0 0 0 0 0 0 0 0 0 0 0 0 0 0 0 0 0 0 0 0 0 0 0 0 0 0 0 0 0 0 0 0 0 0 0 0 0 0 0 0 0 0 0 0 0 0 0 0.00122683 -5.62171e-05 0 0 0 0 0 0 0 0 0 0 0 0 0 0 0 0 0 0 0 0 0 0 0 0 0 0 0 0 0 0 0 0 0 0 0 0 0 0 0 0 0 0 0 0 0 0 0 0 0 0 0 0 0 0 0 0 0 0 0 0 0 0 0 0 0 0 0 0 0 0 0 0 0 0 0 0 0 0 0 0 0 0 0 0 0 0 0 0 0 0 0 0 0 0 0.0012284 -6.08231e-05 0 0 0 0 0 0 0 0 0 0 0 0 0 0 0 0 0 0 0 0 0 0 0 0 0 0 0 0 0 0 0 0 0 0 0 0 0 0 0 0 0 0 0 0 0 0 0 0 0 0 0 0 0 0 0 0 0 0 0 0 0 0 0 0 0 0 0 0 0 0 0 0 0 0 0 0 0 0 0 0 0 0 0 0 0 0 0 0 0 0 0 0 0 0 0.00123027 -6.54428e-05 0 0 0 0 0 0 0 0 0 0 0 0 0 0 0 0 0 0 0 0 0 0 0 0 0 0 0 0 0 0 0 0 0 0 0 0 0 0 0 0 0 0 0 0 0 0 0 0 0 0 0 0 0 0 0 0 0 0 0 0 0 0 0 0 0 0 0 0 0 0 0 0 0 0 0 0 0 0 0 0 0 0 0 0 0 0 0 0 0 0 0 0 0 0 0.00123252 -7.01046e-05 0 0 0 0 0 0 0 0 0 0 0 0 0 0 0 0 0 0 0 0 0 0 0 0 0 0 0 0 0 0 0 0 0 0 0 0 0 0 0 0 0 0 0 0 0 0 0 0 0 0 0 0 0 0 0 0 0 0 0 0 0 0 0 0 0 0 0 0 0 0 0 0 0 0 0 0 0 0 0 0 0 0 0 0 0 0 0 0 0 0 0 0 0 0 0.00123572 -7.49308e-05 0 0 0 0 0 0 0 0 0 0 0 0 0 0 0 0 0 0 0 0 0 0 0 0 0 0 0 0 0 0 0 0 0 0 0 0 0 0 0 0 0 0 0 0 0 0 0 0 0 0 0 0 0 0 0 0 0 0 0 0 0 0 0 0 0 0 0 0 0 0 0 0 0 0 0 0 0 0 0 0 0 0 0 0 0 0 0 0 0 0 0 0 0 0 </DataArray> 
</PointData> 
<Points> 
<DataArray type="Float32" NumberOfComponents="3"> 
3.5 2 0 3.54839 2 0 3.59677 2 0 3.64516 2 0 3.69355 2 0 3.74194 2 0 3.79032 2 0 3.83871 2 0 3.8871 2 0 3.93548 2 0 3.98387 2 0 4.03226 2 0 4.08065 2 0 4.12903 2 0 4.17742 2 0 4.22581 2 0 4.27419 2 0 4.32258 2 0 4.37097 2 0 4.41935 2 0 4.46774 2 0 4.51613 2 0 4.56452 2 0 4.6129 2 0 4.66129 2 0 4.70968 2 0 4.75806 2 0 4.80645 2 0 4.85484 2 0 4.90323 2 0 4.95161 2 0 5 2 0 3.5 2.03226 0 3.54839 2.03226 0 3.59677 2.03226 0 3.64516 2.03226 0 3.69355 2.03226 0 3.74194 2.03226 0 3.79032 2.03226 0 3.83871 2.03226 0 3.8871 2.03226 0 3.93548 2.03226 0 3.98387 2.03226 0 4.03226 2.03226 0 4.08065 2.03226 0 4.12903 2.03226 0 4.17742 2.03226 0 4.22581 2.03226 0 4.27419 2.03226 0 4.32258 2.03226 0 4.37097 2.03226 0 4.41935 2.03226 0 4.46774 2.03226 0 4.51613 2.03226 0 4.56452 2.03226 0 4.6129 2.03226 0 4.66129 2.03226 0 4.70968 2.03226 0 4.75806 2.03226 0 4.80645 2.03226 0 4.85484 2.03226 0 4.90323 2.03226 0 4.95161 2.03226 0 5 2.03226 0 3.5 2.06452 0 3.54839 2.06452 0 3.59677 2.06452 0 3.64516 2.06452 0 3.69355 2.06452 0 3.74194 2.06452 0 3.79032 2.06452 0 3.83871 2.06452 0 3.8871 2.06452 0 3.93548 2.06452 0 3.98387 2.06452 0 4.03226 2.06452 0 4.08065 2.06452 0 4.12903 2.06452 0 4.17742 2.06452 0 4.22581 2.06452 0 4.27419 2.06452 0 4.32258 2.06452 0 4.37097 2.06452 0 4.41935 2.06452 0 4.46774 2.06452 0 4.51613 2.06452 0 4.56452 2.06452 0 4.6129 2.06452 0 4.66129 2.06452 0 4.70968 2.06452 0 4.75806 2.06452 0 4.80645 2.06452 0 4.85484 2.06452 0 4.90323 2.06452 0 4.95161 2.06452 0 5 2.06452 0 3.5 2.09677 0 3.54839 2.09677 0 3.59677 2.09677 0 3.64516 2.09677 0 3.69355 2.09677 0 3.74194 2.09677 0 3.79032 2.09677 0 3.83871 2.09677 0 3.8871 2.09677 0 3.93548 2.09677 0 3.98387 2.09677 0 4.03226 2.09677 0 4.08065 2.09677 0 4.12903 2.09677 0 4.17742 2.09677 0 4.22581 2.09677 0 4.27419 2.09677 0 4.32258 2.09677 0 4.37097 2.09677 0 4.41935 2.09677 0 4.46774 2.09677 0 4.51613 2.09677 0 4.56452 2.09677 0 4.6129 2.09677 0 4.66129 2.09677 0 4.70968 2.09677 0 4.75806 2.09677 0 4.80645 2.09677 0 4.85484 2.09677 0 4.90323 2.09677 0 4.95161 2.09677 0 5 2.09677 0 3.5 2.12903 0 3.54839 2.12903 0 3.59677 2.12903 0 3.64516 2.12903 0 3.69355 2.12903 0 3.74194 2.12903 0 3.79032 2.12903 0 3.83871 2.12903 0 3.8871 2.12903 0 3.93548 2.12903 0 3.98387 2.12903 0 4.03226 2.12903 0 4.08065 2.12903 0 4.12903 2.12903 0 4.17742 2.12903 0 4.22581 2.12903 0 4.27419 2.12903 0 4.32258 2.12903 0 4.37097 2.12903 0 4.41935 2.12903 0 4.46774 2.12903 0 4.51613 2.12903 0 4.56452 2.12903 0 4.6129 2.12903 0 4.66129 2.12903 0 4.70968 2.12903 0 4.75806 2.12903 0 4.80645 2.12903 0 4.85484 2.12903 0 4.90323 2.12903 0 4.95161 2.12903 0 5 2.12903 0 3.5 2.16129 0 3.54839 2.16129 0 3.59677 2.16129 0 3.64516 2.16129 0 3.69355 2.16129 0 3.74194 2.16129 0 3.79032 2.16129 0 3.83871 2.16129 0 3.8871 2.16129 0 3.93548 2.16129 0 3.98387 2.16129 0 4.03226 2.16129 0 4.08065 2.16129 0 4.12903 2.16129 0 4.17742 2.16129 0 4.22581 2.16129 0 4.27419 2.16129 0 4.32258 2.16129 0 4.37097 2.16129 0 4.41935 2.16129 0 4.46774 2.16129 0 4.51613 2.16129 0 4.56452 2.16129 0 4.6129 2.16129 0 4.66129 2.16129 0 4.70968 2.16129 0 4.75806 2.16129 0 4.80645 2.16129 0 4.85484 2.16129 0 4.90323 2.16129 0 4.95161 2.16129 0 5 2.16129 0 3.5 2.19355 0 3.54839 2.19355 0 3.59677 2.19355 0 3.64516 2.19355 0 3.69355 2.19355 0 3.74194 2.19355 0 3.79032 2.19355 0 3.83871 2.19355 0 3.8871 2.19355 0 3.93548 2.19355 0 3.98387 2.19355 0 4.03226 2.19355 0 4.08065 2.19355 0 4.12903 2.19355 0 4.17742 2.19355 0 4.22581 2.19355 0 4.27419 2.19355 0 4.32258 2.19355 0 4.37097 2.19355 0 4.41935 2.19355 0 4.46774 2.19355 0 4.51613 2.19355 0 4.56452 2.19355 0 4.6129 2.19355 0 4.66129 2.19355 0 4.70968 2.19355 0 4.75806 2.19355 0 4.80645 2.19355 0 4.85484 2.19355 0 4.90323 2.19355 0 4.95161 2.19355 0 5 2.19355 0 3.5 2.22581 0 3.54839 2.22581 0 3.59677 2.22581 0 3.64516 2.22581 0 3.69355 2.22581 0 3.74194 2.22581 0 3.79032 2.22581 0 3.83871 2.22581 0 3.8871 2.22581 0 3.93548 2.22581 0 3.98387 2.22581 0 4.03226 2.22581 0 4.08065 2.22581 0 4.12903 2.22581 0 4.17742 2.22581 0 4.22581 2.22581 0 4.27419 2.22581 0 4.32258 2.22581 0 4.37097 2.22581 0 4.41935 2.22581 0 4.46774 2.22581 0 4.51613 2.22581 0 4.56452 2.22581 0 4.6129 2.22581 0 4.66129 2.22581 0 4.70968 2.22581 0 4.75806 2.22581 0 4.80645 2.22581 0 4.85484 2.22581 0 4.90323 2.22581 0 4.95161 2.22581 0 5 2.22581 0 3.5 2.25806 0 3.54839 2.25806 0 3.59677 2.25806 0 3.64516 2.25806 0 3.69355 2.25806 0 3.74194 2.25806 0 3.79032 2.25806 0 3.83871 2.25806 0 3.8871 2.25806 0 3.93548 2.25806 0 3.98387 2.25806 0 4.03226 2.25806 0 4.08065 2.25806 0 4.12903 2.25806 0 4.17742 2.25806 0 4.22581 2.25806 0 4.27419 2.25806 0 4.32258 2.25806 0 4.37097 2.25806 0 4.41935 2.25806 0 4.46774 2.25806 0 4.51613 2.25806 0 4.56452 2.25806 0 4.6129 2.25806 0 4.66129 2.25806 0 4.70968 2.25806 0 4.75806 2.25806 0 4.80645 2.25806 0 4.85484 2.25806 0 4.90323 2.25806 0 4.95161 2.25806 0 5 2.25806 0 3.5 2.29032 0 3.54839 2.29032 0 3.59677 2.29032 0 3.64516 2.29032 0 3.69355 2.29032 0 3.74194 2.29032 0 3.79032 2.29032 0 3.83871 2.29032 0 3.8871 2.29032 0 3.93548 2.29032 0 3.98387 2.29032 0 4.03226 2.29032 0 4.08065 2.29032 0 4.12903 2.29032 0 4.17742 2.29032 0 4.22581 2.29032 0 4.27419 2.29032 0 4.32258 2.29032 0 4.37097 2.29032 0 4.41935 2.29032 0 4.46774 2.29032 0 4.51613 2.29032 0 4.56452 2.29032 0 4.6129 2.29032 0 4.66129 2.29032 0 4.70968 2.29032 0 4.75806 2.29032 0 4.80645 2.29032 0 4.85484 2.29032 0 4.90323 2.29032 0 4.95161 2.29032 0 5 2.29032 0 3.5 2.32258 0 3.54839 2.32258 0 3.59677 2.32258 0 3.64516 2.32258 0 3.69355 2.32258 0 3.74194 2.32258 0 3.79032 2.32258 0 3.83871 2.32258 0 3.8871 2.32258 0 3.93548 2.32258 0 3.98387 2.32258 0 4.03226 2.32258 0 4.08065 2.32258 0 4.12903 2.32258 0 4.17742 2.32258 0 4.22581 2.32258 0 4.27419 2.32258 0 4.32258 2.32258 0 4.37097 2.32258 0 4.41935 2.32258 0 4.46774 2.32258 0 4.51613 2.32258 0 4.56452 2.32258 0 4.6129 2.32258 0 4.66129 2.32258 0 4.70968 2.32258 0 4.75806 2.32258 0 4.80645 2.32258 0 4.85484 2.32258 0 4.90323 2.32258 0 4.95161 2.32258 0 5 2.32258 0 3.5 2.35484 0 3.54839 2.35484 0 3.59677 2.35484 0 3.64516 2.35484 0 3.69355 2.35484 0 3.74194 2.35484 0 3.79032 2.35484 0 3.83871 2.35484 0 3.8871 2.35484 0 3.93548 2.35484 0 3.98387 2.35484 0 4.03226 2.35484 0 4.08065 2.35484 0 4.12903 2.35484 0 4.17742 2.35484 0 4.22581 2.35484 0 4.27419 2.35484 0 4.32258 2.35484 0 4.37097 2.35484 0 4.41935 2.35484 0 4.46774 2.35484 0 4.51613 2.35484 0 4.56452 2.35484 0 4.6129 2.35484 0 4.66129 2.35484 0 4.70968 2.35484 0 4.75806 2.35484 0 4.80645 2.35484 0 4.85484 2.35484 0 4.90323 2.35484 0 4.95161 2.35484 0 5 2.35484 0 3.5 2.3871 0 3.54839 2.3871 0 3.59677 2.3871 0 3.64516 2.3871 0 3.69355 2.3871 0 3.74194 2.3871 0 3.79032 2.3871 0 3.83871 2.3871 0 3.8871 2.3871 0 3.93548 2.3871 0 3.98387 2.3871 0 4.03226 2.3871 0 4.08065 2.3871 0 4.12903 2.3871 0 4.17742 2.3871 0 4.22581 2.3871 0 4.27419 2.3871 0 4.32258 2.3871 0 4.37097 2.3871 0 4.41935 2.3871 0 4.46774 2.3871 0 4.51613 2.3871 0 4.56452 2.3871 0 4.6129 2.3871 0 4.66129 2.3871 0 4.70968 2.3871 0 4.75806 2.3871 0 4.80645 2.3871 0 4.85484 2.3871 0 4.90323 2.3871 0 4.95161 2.3871 0 5 2.3871 0 3.5 2.41935 0 3.54839 2.41935 0 3.59677 2.41935 0 3.64516 2.41935 0 3.69355 2.41935 0 3.74194 2.41935 0 3.79032 2.41935 0 3.83871 2.41935 0 3.8871 2.41935 0 3.93548 2.41935 0 3.98387 2.41935 0 4.03226 2.41935 0 4.08065 2.41935 0 4.12903 2.41935 0 4.17742 2.41935 0 4.22581 2.41935 0 4.27419 2.41935 0 4.32258 2.41935 0 4.37097 2.41935 0 4.41935 2.41935 0 4.46774 2.41935 0 4.51613 2.41935 0 4.56452 2.41935 0 4.6129 2.41935 0 4.66129 2.41935 0 4.70968 2.41935 0 4.75806 2.41935 0 4.80645 2.41935 0 4.85484 2.41935 0 4.90323 2.41935 0 4.95161 2.41935 0 5 2.41935 0 3.5 2.45161 0 3.54839 2.45161 0 3.59677 2.45161 0 3.64516 2.45161 0 3.69355 2.45161 0 3.74194 2.45161 0 3.79032 2.45161 0 3.83871 2.45161 0 3.8871 2.45161 0 3.93548 2.45161 0 3.98387 2.45161 0 4.03226 2.45161 0 4.08065 2.45161 0 4.12903 2.45161 0 4.17742 2.45161 0 4.22581 2.45161 0 4.27419 2.45161 0 4.32258 2.45161 0 4.37097 2.45161 0 4.41935 2.45161 0 4.46774 2.45161 0 4.51613 2.45161 0 4.56452 2.45161 0 4.6129 2.45161 0 4.66129 2.45161 0 4.70968 2.45161 0 4.75806 2.45161 0 4.80645 2.45161 0 4.85484 2.45161 0 4.90323 2.45161 0 4.95161 2.45161 0 5 2.45161 0 3.5 2.48387 0 3.54839 2.48387 0 3.59677 2.48387 0 3.64516 2.48387 0 3.69355 2.48387 0 3.74194 2.48387 0 3.79032 2.48387 0 3.83871 2.48387 0 3.8871 2.48387 0 3.93548 2.48387 0 3.98387 2.48387 0 4.03226 2.48387 0 4.08065 2.48387 0 4.12903 2.48387 0 4.17742 2.48387 0 4.22581 2.48387 0 4.27419 2.48387 0 4.32258 2.48387 0 4.37097 2.48387 0 4.41935 2.48387 0 4.46774 2.48387 0 4.51613 2.48387 0 4.56452 2.48387 0 4.6129 2.48387 0 4.66129 2.48387 0 4.70968 2.48387 0 4.75806 2.48387 0 4.80645 2.48387 0 4.85484 2.48387 0 4.90323 2.48387 0 4.95161 2.48387 0 5 2.48387 0 3.5 2.51613 0 3.54839 2.51613 0 3.59677 2.51613 0 3.64516 2.51613 0 3.69355 2.51613 0 3.74194 2.51613 0 3.79032 2.51613 0 3.83871 2.51613 0 3.8871 2.51613 0 3.93548 2.51613 0 3.98387 2.51613 0 4.03226 2.51613 0 4.08065 2.51613 0 4.12903 2.51613 0 4.17742 2.51613 0 4.22581 2.51613 0 4.27419 2.51613 0 4.32258 2.51613 0 4.37097 2.51613 0 4.41935 2.51613 0 4.46774 2.51613 0 4.51613 2.51613 0 4.56452 2.51613 0 4.6129 2.51613 0 4.66129 2.51613 0 4.70968 2.51613 0 4.75806 2.51613 0 4.80645 2.51613 0 4.85484 2.51613 0 4.90323 2.51613 0 4.95161 2.51613 0 5 2.51613 0 3.5 2.54839 0 3.54839 2.54839 0 3.59677 2.54839 0 3.64516 2.54839 0 3.69355 2.54839 0 3.74194 2.54839 0 3.79032 2.54839 0 3.83871 2.54839 0 3.8871 2.54839 0 3.93548 2.54839 0 3.98387 2.54839 0 4.03226 2.54839 0 4.08065 2.54839 0 4.12903 2.54839 0 4.17742 2.54839 0 4.22581 2.54839 0 4.27419 2.54839 0 4.32258 2.54839 0 4.37097 2.54839 0 4.41935 2.54839 0 4.46774 2.54839 0 4.51613 2.54839 0 4.56452 2.54839 0 4.6129 2.54839 0 4.66129 2.54839 0 4.70968 2.54839 0 4.75806 2.54839 0 4.80645 2.54839 0 4.85484 2.54839 0 4.90323 2.54839 0 4.95161 2.54839 0 5 2.54839 0 3.5 2.58065 0 3.54839 2.58065 0 3.59677 2.58065 0 3.64516 2.58065 0 3.69355 2.58065 0 3.74194 2.58065 0 3.79032 2.58065 0 3.83871 2.58065 0 3.8871 2.58065 0 3.93548 2.58065 0 3.98387 2.58065 0 4.03226 2.58065 0 4.08065 2.58065 0 4.12903 2.58065 0 4.17742 2.58065 0 4.22581 2.58065 0 4.27419 2.58065 0 4.32258 2.58065 0 4.37097 2.58065 0 4.41935 2.58065 0 4.46774 2.58065 0 4.51613 2.58065 0 4.56452 2.58065 0 4.6129 2.58065 0 4.66129 2.58065 0 4.70968 2.58065 0 4.75806 2.58065 0 4.80645 2.58065 0 4.85484 2.58065 0 4.90323 2.58065 0 4.95161 2.58065 0 5 2.58065 0 3.5 2.6129 0 3.54839 2.6129 0 3.59677 2.6129 0 3.64516 2.6129 0 3.69355 2.6129 0 3.74194 2.6129 0 3.79032 2.6129 0 3.83871 2.6129 0 3.8871 2.6129 0 3.93548 2.6129 0 3.98387 2.6129 0 4.03226 2.6129 0 4.08065 2.6129 0 4.12903 2.6129 0 4.17742 2.6129 0 4.22581 2.6129 0 4.27419 2.6129 0 4.32258 2.6129 0 4.37097 2.6129 0 4.41935 2.6129 0 4.46774 2.6129 0 4.51613 2.6129 0 4.56452 2.6129 0 4.6129 2.6129 0 4.66129 2.6129 0 4.70968 2.6129 0 4.75806 2.6129 0 4.80645 2.6129 0 4.85484 2.6129 0 4.90323 2.6129 0 4.95161 2.6129 0 5 2.6129 0 3.5 2.64516 0 3.54839 2.64516 0 3.59677 2.64516 0 3.64516 2.64516 0 3.69355 2.64516 0 3.74194 2.64516 0 3.79032 2.64516 0 3.83871 2.64516 0 3.8871 2.64516 0 3.93548 2.64516 0 3.98387 2.64516 0 4.03226 2.64516 0 4.08065 2.64516 0 4.12903 2.64516 0 4.17742 2.64516 0 4.22581 2.64516 0 4.27419 2.64516 0 4.32258 2.64516 0 4.37097 2.64516 0 4.41935 2.64516 0 4.46774 2.64516 0 4.51613 2.64516 0 4.56452 2.64516 0 4.6129 2.64516 0 4.66129 2.64516 0 4.70968 2.64516 0 4.75806 2.64516 0 4.80645 2.64516 0 4.85484 2.64516 0 4.90323 2.64516 0 4.95161 2.64516 0 5 2.64516 0 3.5 2.67742 0 3.54839 2.67742 0 3.59677 2.67742 0 3.64516 2.67742 0 3.69355 2.67742 0 3.74194 2.67742 0 3.79032 2.67742 0 3.83871 2.67742 0 3.8871 2.67742 0 3.93548 2.67742 0 3.98387 2.67742 0 4.03226 2.67742 0 4.08065 2.67742 0 4.12903 2.67742 0 4.17742 2.67742 0 4.22581 2.67742 0 4.27419 2.67742 0 4.32258 2.67742 0 4.37097 2.67742 0 4.41935 2.67742 0 4.46774 2.67742 0 4.51613 2.67742 0 4.56452 2.67742 0 4.6129 2.67742 0 4.66129 2.67742 0 4.70968 2.67742 0 4.75806 2.67742 0 4.80645 2.67742 0 4.85484 2.67742 0 4.90323 2.67742 0 4.95161 2.67742 0 5 2.67742 0 3.5 2.70968 0 3.54839 2.70968 0 3.59677 2.70968 0 3.64516 2.70968 0 3.69355 2.70968 0 3.74194 2.70968 0 3.79032 2.70968 0 3.83871 2.70968 0 3.8871 2.70968 0 3.93548 2.70968 0 3.98387 2.70968 0 4.03226 2.70968 0 4.08065 2.70968 0 4.12903 2.70968 0 4.17742 2.70968 0 4.22581 2.70968 0 4.27419 2.70968 0 4.32258 2.70968 0 4.37097 2.70968 0 4.41935 2.70968 0 4.46774 2.70968 0 4.51613 2.70968 0 4.56452 2.70968 0 4.6129 2.70968 0 4.66129 2.70968 0 4.70968 2.70968 0 4.75806 2.70968 0 4.80645 2.70968 0 4.85484 2.70968 0 4.90323 2.70968 0 4.95161 2.70968 0 5 2.70968 0 3.5 2.74194 0 3.54839 2.74194 0 3.59677 2.74194 0 3.64516 2.74194 0 3.69355 2.74194 0 3.74194 2.74194 0 3.79032 2.74194 0 3.83871 2.74194 0 3.8871 2.74194 0 3.93548 2.74194 0 3.98387 2.74194 0 4.03226 2.74194 0 4.08065 2.74194 0 4.12903 2.74194 0 4.17742 2.74194 0 4.22581 2.74194 0 4.27419 2.74194 0 4.32258 2.74194 0 4.37097 2.74194 0 4.41935 2.74194 0 4.46774 2.74194 0 4.51613 2.74194 0 4.56452 2.74194 0 4.6129 2.74194 0 4.66129 2.74194 0 4.70968 2.74194 0 4.75806 2.74194 0 4.80645 2.74194 0 4.85484 2.74194 0 4.90323 2.74194 0 4.95161 2.74194 0 5 2.74194 0 3.5 2.77419 0 3.54839 2.77419 0 3.59677 2.77419 0 3.64516 2.77419 0 3.69355 2.77419 0 3.74194 2.77419 0 3.79032 2.77419 0 3.83871 2.77419 0 3.8871 2.77419 0 3.93548 2.77419 0 3.98387 2.77419 0 4.03226 2.77419 0 4.08065 2.77419 0 4.12903 2.77419 0 4.17742 2.77419 0 4.22581 2.77419 0 4.27419 2.77419 0 4.32258 2.77419 0 4.37097 2.77419 0 4.41935 2.77419 0 4.46774 2.77419 0 4.51613 2.77419 0 4.56452 2.77419 0 4.6129 2.77419 0 4.66129 2.77419 0 4.70968 2.77419 0 4.75806 2.77419 0 4.80645 2.77419 0 4.85484 2.77419 0 4.90323 2.77419 0 4.95161 2.77419 0 5 2.77419 0 3.5 2.80645 0 3.54839 2.80645 0 3.59677 2.80645 0 3.64516 2.80645 0 3.69355 2.80645 0 3.74194 2.80645 0 3.79032 2.80645 0 3.83871 2.80645 0 3.8871 2.80645 0 3.93548 2.80645 0 3.98387 2.80645 0 4.03226 2.80645 0 4.08065 2.80645 0 4.12903 2.80645 0 4.17742 2.80645 0 4.22581 2.80645 0 4.27419 2.80645 0 4.32258 2.80645 0 4.37097 2.80645 0 4.41935 2.80645 0 4.46774 2.80645 0 4.51613 2.80645 0 4.56452 2.80645 0 4.6129 2.80645 0 4.66129 2.80645 0 4.70968 2.80645 0 4.75806 2.80645 0 4.80645 2.80645 0 4.85484 2.80645 0 4.90323 2.80645 0 4.95161 2.80645 0 5 2.80645 0 3.5 2.83871 0 3.54839 2.83871 0 3.59677 2.83871 0 3.64516 2.83871 0 3.69355 2.83871 0 3.74194 2.83871 0 3.79032 2.83871 0 3.83871 2.83871 0 3.8871 2.83871 0 3.93548 2.83871 0 3.98387 2.83871 0 4.03226 2.83871 0 4.08065 2.83871 0 4.12903 2.83871 0 4.17742 2.83871 0 4.22581 2.83871 0 4.27419 2.83871 0 4.32258 2.83871 0 4.37097 2.83871 0 4.41935 2.83871 0 4.46774 2.83871 0 4.51613 2.83871 0 4.56452 2.83871 0 4.6129 2.83871 0 4.66129 2.83871 0 4.70968 2.83871 0 4.75806 2.83871 0 4.80645 2.83871 0 4.85484 2.83871 0 4.90323 2.83871 0 4.95161 2.83871 0 5 2.83871 0 3.5 2.87097 0 3.54839 2.87097 0 3.59677 2.87097 0 3.64516 2.87097 0 3.69355 2.87097 0 3.74194 2.87097 0 3.79032 2.87097 0 3.83871 2.87097 0 3.8871 2.87097 0 3.93548 2.87097 0 3.98387 2.87097 0 4.03226 2.87097 0 4.08065 2.87097 0 4.12903 2.87097 0 4.17742 2.87097 0 4.22581 2.87097 0 4.27419 2.87097 0 4.32258 2.87097 0 4.37097 2.87097 0 4.41935 2.87097 0 4.46774 2.87097 0 4.51613 2.87097 0 4.56452 2.87097 0 4.6129 2.87097 0 4.66129 2.87097 0 4.70968 2.87097 0 4.75806 2.87097 0 4.80645 2.87097 0 4.85484 2.87097 0 4.90323 2.87097 0 4.95161 2.87097 0 5 2.87097 0 3.5 2.90323 0 3.54839 2.90323 0 3.59677 2.90323 0 3.64516 2.90323 0 3.69355 2.90323 0 3.74194 2.90323 0 3.79032 2.90323 0 3.83871 2.90323 0 3.8871 2.90323 0 3.93548 2.90323 0 3.98387 2.90323 0 4.03226 2.90323 0 4.08065 2.90323 0 4.12903 2.90323 0 4.17742 2.90323 0 4.22581 2.90323 0 4.27419 2.90323 0 4.32258 2.90323 0 4.37097 2.90323 0 4.41935 2.90323 0 4.46774 2.90323 0 4.51613 2.90323 0 4.56452 2.90323 0 4.6129 2.90323 0 4.66129 2.90323 0 4.70968 2.90323 0 4.75806 2.90323 0 4.80645 2.90323 0 4.85484 2.90323 0 4.90323 2.90323 0 4.95161 2.90323 0 5 2.90323 0 3.5 2.93548 0 3.54839 2.93548 0 3.59677 2.93548 0 3.64516 2.93548 0 3.69355 2.93548 0 3.74194 2.93548 0 3.79032 2.93548 0 3.83871 2.93548 0 3.8871 2.93548 0 3.93548 2.93548 0 3.98387 2.93548 0 4.03226 2.93548 0 4.08065 2.93548 0 4.12903 2.93548 0 4.17742 2.93548 0 4.22581 2.93548 0 4.27419 2.93548 0 4.32258 2.93548 0 4.37097 2.93548 0 4.41935 2.93548 0 4.46774 2.93548 0 4.51613 2.93548 0 4.56452 2.93548 0 4.6129 2.93548 0 4.66129 2.93548 0 4.70968 2.93548 0 4.75806 2.93548 0 4.80645 2.93548 0 4.85484 2.93548 0 4.90323 2.93548 0 4.95161 2.93548 0 5 2.93548 0 3.5 2.96774 0 3.54839 2.96774 0 3.59677 2.96774 0 3.64516 2.96774 0 3.69355 2.96774 0 3.74194 2.96774 0 3.79032 2.96774 0 3.83871 2.96774 0 3.8871 2.96774 0 3.93548 2.96774 0 3.98387 2.96774 0 4.03226 2.96774 0 4.08065 2.96774 0 4.12903 2.96774 0 4.17742 2.96774 0 4.22581 2.96774 0 4.27419 2.96774 0 4.32258 2.96774 0 4.37097 2.96774 0 4.41935 2.96774 0 4.46774 2.96774 0 4.51613 2.96774 0 4.56452 2.96774 0 4.6129 2.96774 0 4.66129 2.96774 0 4.70968 2.96774 0 4.75806 2.96774 0 4.80645 2.96774 0 4.85484 2.96774 0 4.90323 2.96774 0 4.95161 2.96774 0 5 2.96774 0 3.5 3 0 3.54839 3 0 3.59677 3 0 3.64516 3 0 3.69355 3 0 3.74194 3 0 3.79032 3 0 3.83871 3 0 3.8871 3 0 3.93548 3 0 3.98387 3 0 4.03226 3 0 4.08065 3 0 4.12903 3 0 4.17742 3 0 4.22581 3 0 4.27419 3 0 4.32258 3 0 4.37097 3 0 4.41935 3 0 4.46774 3 0 4.51613 3 0 4.56452 3 0 4.6129 3 0 4.66129 3 0 4.70968 3 0 4.75806 3 0 4.80645 3 0 4.85484 3 0 4.90323 3 0 4.95161 3 0 5 3 0 
</DataArray>
</Points> 
</Piece> 
</StructuredGrid> 
</VTKFile> 
