<?xml version="1.0"?> 
<VTKFile type="StructuredGrid" version="0.1"> 
<StructuredGrid WholeExtent="0 31 0 31 0 0"> 
<Piece Extent="0 31 0 31 0 0"> 
<PointData>
<DataArray type="Float32" Name="B" format="ascii" NumberOfComponents="3"> 
-3.7381e-05 -0 0 -3.93669e-05 -0 0 -4.13398e-05 -0 0 -4.32826e-05 -0 0 -4.51769e-05 -0 0 -4.70036e-05 -0 0 -4.87432e-05 -0 0 -5.03763e-05 -0 0 -5.18837e-05 -0 0 -5.32473e-05 -0 0 -5.44502e-05 -0 0 -5.54774e-05 -0 0 -5.63157e-05 -0 0 -5.69541e-05 -0 0 -5.73845e-05 -0 0 -5.76011e-05 -0 0 -5.76011e-05 -0 0 -5.73845e-05 -0 0 -5.69541e-05 -0 0 -5.63157e-05 -0 0 -5.54774e-05 -0 0 -5.44502e-05 -0 0 -5.32473e-05 -0 0 -5.18837e-05 -0 0 -5.03763e-05 -0 0 -4.87432e-05 -0 0 -4.70036e-05 -0 0 -4.51769e-05 -0 0 -4.32826e-05 -0 0 -4.13398e-05 -0 0 -3.93669e-05 -0 0 -3.7381e-05 -0 0 -3.73795e-05 1.98944e-06 0 -3.93733e-05 1.98493e-06 0 -4.13548e-05 1.9638e-06 0 -4.33068e-05 1.92481e-06 0 -4.52107e-05 1.86698e-06 0 -4.70472e-05 1.7897e-06 0 -4.87966e-05 1.69277e-06 0 -5.04391e-05 1.57643e-06 0 -5.19556e-05 1.44136e-06 0 -5.33277e-05 1.28865e-06 0 -5.45383e-05 1.11981e-06 0 -5.55721e-05 9.36726e-07 0 -5.64158e-05 7.41558e-07 0 -5.70584e-05 5.3674e-07 0 -5.74916e-05 3.24893e-07 0 -5.77096e-05 1.08775e-07 0 -5.77096e-05 -1.08775e-07 0 -5.74916e-05 -3.24893e-07 0 -5.70584e-05 -5.3674e-07 0 -5.64158e-05 -7.41558e-07 0 -5.55721e-05 -9.36726e-07 0 -5.45383e-05 -1.11981e-06 0 -5.33277e-05 -1.28865e-06 0 -5.19556e-05 -1.44136e-06 0 -5.04391e-05 -1.57643e-06 0 -4.87966e-05 -1.69277e-06 0 -4.70472e-05 -1.7897e-06 0 -4.52107e-05 -1.86698e-06 0 -4.33068e-05 -1.92481e-06 0 -4.13548e-05 -1.9638e-06 0 -3.93733e-05 -1.98493e-06 0 -3.73795e-05 -1.98944e-06 0 -3.7374e-05 3.99399e-06 0 -3.93916e-05 3.98649e-06 0 -4.13992e-05 3.94552e-06 0 -4.33789e-05 3.86852e-06 0 -4.53117e-05 3.75347e-06 0 -4.71778e-05 3.59912e-06 0 -4.89568e-05 3.40504e-06 0 -5.06283e-05 3.17168e-06 0 -5.21723e-05 2.90041e-06 0 -5.35699e-05 2.59348e-06 0 -5.48035e-05 2.25394e-06 0 -5.58572e-05 1.88557e-06 0 -5.67173e-05 1.4928e-06 0 -5.73726e-05 1.08053e-06 0 -5.78143e-05 6.54071e-07 0 -5.80366e-05 2.18987e-07 0 -5.80366e-05 -2.18987e-07 0 -5.78143e-05 -6.54071e-07 0 -5.73726e-05 -1.08053e-06 0 -5.67173e-05 -1.4928e-06 0 -5.58572e-05 -1.88557e-06 0 -5.48035e-05 -2.25394e-06 0 -5.35699e-05 -2.59348e-06 0 -5.21723e-05 -2.90041e-06 0 -5.06283e-05 -3.17168e-06 0 -4.89568e-05 -3.40504e-06 0 -4.71778e-05 -3.59912e-06 0 -4.53117e-05 -3.75347e-06 0 -4.33789e-05 -3.86852e-06 0 -4.13992e-05 -3.94552e-06 0 -3.93916e-05 -3.98649e-06 0 -3.7374e-05 -3.99399e-06 0 -3.7362e-05 6.02894e-06 0 -3.94199e-05 6.02156e-06 0 -4.14713e-05 5.96339e-06 0 -4.34977e-05 5.85039e-06 0 -4.54795e-05 5.6794e-06 0 -4.73956e-05 5.44842e-06 0 -4.92246e-05 5.15672e-06 0 -5.0945e-05 4.80498e-06 0 -5.25356e-05 4.39528e-06 0 -5.39765e-05 3.93105e-06 0 -5.52489e-05 3.41698e-06 0 -5.63363e-05 2.85892e-06 0 -5.72242e-05 2.2636e-06 0 -5.79007e-05 1.63856e-06 0 -5.83569e-05 9.91897e-07 0 -5.85865e-05 3.321e-07 0 -5.85865e-05 -3.321e-07 0 -5.83569e-05 -9.91897e-07 0 -5.79007e-05 -1.63856e-06 0 -5.72242e-05 -2.2636e-06 0 -5.63363e-05 -2.85892e-06 0 -5.52489e-05 -3.41698e-06 0 -5.39765e-05 -3.93105e-06 0 -5.25356e-05 -4.39528e-06 0 -5.0945e-05 -4.80498e-06 0 -4.92246e-05 -5.15672e-06 0 -4.73956e-05 -5.44842e-06 0 -4.54795e-05 -5.6794e-06 0 -4.34977e-05 -5.85039e-06 0 -4.14713e-05 -5.96339e-06 0 -3.94199e-05 -6.02156e-06 0 -3.7362e-05 -6.02894e-06 0 -3.73395e-05 8.10988e-06 0 -3.94543e-05 8.10749e-06 0 -4.15679e-05 8.03625e-06 0 -4.36612e-05 7.89044e-06 0 -4.57128e-05 7.66555e-06 0 -4.77005e-05 7.35866e-06 0 -4.96011e-05 6.96869e-06 0 -5.13915e-05 6.49648e-06 0 -5.30489e-05 5.94488e-06 0 -5.45517e-05 5.31863e-06 0 -5.58798e-05 4.6242e-06 0 -5.70153e-05 3.86963e-06 0 -5.79429e-05 3.06422e-06 0 -5.86498e-05 2.21829e-06 0 -5.91265e-05 1.3429e-06 0 -5.93665e-05 4.49628e-07 0 -5.93665e-05 -4.49628e-07 0 -5.91265e-05 -1.3429e-06 0 -5.86498e-05 -2.21829e-06 0 -5.79429e-05 -3.06422e-06 0 -5.70153e-05 -3.86963e-06 0 -5.58798e-05 -4.6242e-06 0 -5.45517e-05 -5.31863e-06 0 -5.30489e-05 -5.94488e-06 0 -5.13915e-05 -6.49648e-06 0 -4.96011e-05 -6.96869e-06 0 -4.77005e-05 -7.35866e-06 0 -4.57128e-05 -7.66555e-06 0 -4.36612e-05 -7.89044e-06 0 -4.15679e-05 -8.03625e-06 0 -3.94543e-05 -8.10749e-06 0 -3.73395e-05 -8.10988e-06 0 -3.73003e-05 1.02529e-05 0 -3.94894e-05 1.02623e-05 0 -4.16848e-05 1.01839e-05 0 -4.38659e-05 1.00098e-05 0 -4.60099e-05 9.73399e-06 0 -4.80923e-05 9.35231e-06 0 -5.0088e-05 8.86321e-06 0 -5.19713e-05 8.2677e-06 0 -5.37172e-05 7.56944e-06 0 -5.5302e-05 6.77463e-06 0 -5.67037e-05 5.89178e-06 0 -5.79028e-05 4.93136e-06 0 -5.88827e-05 3.9055e-06 0 -5.96296e-05 2.82756e-06 0 -6.01334e-05 1.71182e-06 0 -6.0387e-05 5.73164e-07 0 -6.0387e-05 -5.73164e-07 0 -6.01334e-05 -1.71182e-06 0 -5.96296e-05 -2.82756e-06 0 -5.88827e-05 -3.9055e-06 0 -5.79028e-05 -4.93136e-06 0 -5.67037e-05 -5.89178e-06 0 -5.5302e-05 -6.77463e-06 0 -5.37172e-05 -7.56944e-06 0 -5.19713e-05 -8.2677e-06 0 -5.0088e-05 -8.86321e-06 0 -4.80923e-05 -9.35231e-06 0 -4.60099e-05 -9.73399e-06 0 -4.38659e-05 -1.00098e-05 0 -4.16848e-05 -1.01839e-05 0 -3.94894e-05 -1.02623e-05 0 -3.73003e-05 -1.02529e-05 0 -3.72359e-05 1.24747e-05 0 -3.95177e-05 1.25052e-05 0 -4.18157e-05 1.24275e-05 0 -4.41076e-05 1.22314e-05 0 -4.63684e-05 1.19087e-05 0 -4.8571e-05 1.14538e-05 0 -5.06872e-05 1.08646e-05 0 -5.26886e-05 1.01421e-05 0 -5.45469e-05 9.29094e-06 0 -5.62357e-05 8.31902e-06 0 -5.77306e-05 7.23718e-06 0 -5.90101e-05 6.05875e-06 0 -6.00559e-05 4.79901e-06 0 -6.08532e-05 3.47473e-06 0 -6.1391e-05 2.10371e-06 0 -6.16617e-05 7.04392e-07 0 -6.16617e-05 -7.04392e-07 0 -6.1391e-05 -2.10371e-06 0 -6.08532e-05 -3.47473e-06 0 -6.00559e-05 -4.79901e-06 0 -5.90101e-05 -6.05875e-06 0 -5.77306e-05 -7.23718e-06 0 -5.62357e-05 -8.31902e-06 0 -5.45469e-05 -9.29094e-06 0 -5.26886e-05 -1.01421e-05 0 -5.06872e-05 -1.08646e-05 0 -4.8571e-05 -1.14538e-05 0 -4.63684e-05 -1.19087e-05 0 -4.41076e-05 -1.22314e-05 0 -4.18157e-05 -1.24275e-05 0 -3.95177e-05 -1.25052e-05 0 -3.72359e-05 -1.24747e-05 0 -3.71353e-05 1.47928e-05 0 -3.95292e-05 1.48562e-05 0 -4.19523e-05 1.47898e-05 0 -4.43801e-05 1.458e-05 0 -4.67848e-05 1.4216e-05 0 -4.9136e-05 1.36903e-05 0 -5.14016e-05 1.29998e-05 0 -5.35491e-05 1.21457e-05 0 -5.55465e-05 1.11337e-05 0 -5.73638e-05 9.97375e-06 0 -5.89735e-05 8.67952e-06 0 -6.03517e-05 7.2677e-06 0 -6.14783e-05 5.75724e-06 0 -6.23371e-05 4.16876e-06 0 -6.29162e-05 2.52395e-06 0 -6.32077e-05 8.45107e-07 0 -6.32077e-05 -8.45107e-07 0 -6.29162e-05 -2.52395e-06 0 -6.23371e-05 -4.16876e-06 0 -6.14783e-05 -5.75724e-06 0 -6.03517e-05 -7.2677e-06 0 -5.89735e-05 -8.67952e-06 0 -5.73638e-05 -9.97375e-06 0 -5.55465e-05 -1.11337e-05 0 -5.35491e-05 -1.21457e-05 0 -5.14016e-05 -1.29998e-05 0 -4.9136e-05 -1.36903e-05 0 -4.67848e-05 -1.4216e-05 0 -4.43801e-05 -1.458e-05 0 -4.19523e-05 -1.47898e-05 0 -3.95292e-05 -1.48562e-05 0 -3.71353e-05 -1.47928e-05 0 -3.69842e-05 1.72254e-05 0 -3.95111e-05 1.73374e-05 0 -4.20837e-05 1.72959e-05 0 -4.46753e-05 1.70834e-05 0 -4.72544e-05 1.66856e-05 0 -4.97864e-05 1.60924e-05 0 -5.22341e-05 1.52994e-05 0 -5.45599e-05 1.43079e-05 0 -5.67267e-05 1.3125e-05 0 -5.87e-05 1.17633e-05 0 -6.04486e-05 1.02399e-05 0 -6.19457e-05 8.57554e-06 0 -6.3169e-05 6.79366e-06 0 -6.41012e-05 4.91924e-06 0 -6.47296e-05 2.97826e-06 0 -6.50459e-05 9.97212e-07 0 -6.50459e-05 -9.97212e-07 0 -6.47296e-05 -2.97826e-06 0 -6.41012e-05 -4.91924e-06 0 -6.3169e-05 -6.79366e-06 0 -6.19457e-05 -8.57554e-06 0 -6.04486e-05 -1.02399e-05 0 -5.87e-05 -1.17633e-05 0 -5.67267e-05 -1.3125e-05 0 -5.45599e-05 -1.43079e-05 0 -5.22341e-05 -1.52994e-05 0 -4.97864e-05 -1.60924e-05 0 -4.72544e-05 -1.66856e-05 0 -4.46753e-05 -1.70834e-05 0 -4.20837e-05 -1.72959e-05 0 -3.95111e-05 -1.73374e-05 0 -3.69842e-05 -1.72254e-05 0 -3.67645e-05 1.97917e-05 0 -3.94463e-05 1.99722e-05 0 -4.21955e-05 1.99735e-05 0 -4.49822e-05 1.9773e-05 0 -4.77708e-05 1.93513e-05 0 -5.05209e-05 1.86954e-05 0 -5.31889e-05 1.77986e-05 0 -5.57301e-05 1.66624e-05 0 -5.81012e-05 1.52959e-05 0 -6.02618e-05 1.3715e-05 0 -6.21761e-05 1.19415e-05 0 -6.38142e-05 1.00012e-05 0 -6.51517e-05 7.9228e-06 0 -6.61701e-05 5.73636e-06 0 -6.68561e-05 3.47268e-06 0 -6.72011e-05 1.1627e-06 0 -6.72011e-05 -1.1627e-06 0 -6.68561e-05 -3.47268e-06 0 -6.61701e-05 -5.73636e-06 0 -6.51517e-05 -7.9228e-06 0 -6.38142e-05 -1.00012e-05 0 -6.21761e-05 -1.19415e-05 0 -6.02618e-05 -1.3715e-05 0 -5.81012e-05 -1.52959e-05 0 -5.57301e-05 -1.66624e-05 0 -5.31889e-05 -1.77986e-05 0 -5.05209e-05 -1.86954e-05 0 -4.77708e-05 -1.93513e-05 0 -4.49822e-05 -1.9773e-05 0 -4.21955e-05 -1.99735e-05 0 -3.94463e-05 -1.99722e-05 0 -3.67645e-05 -1.97917e-05 0 -3.64529e-05 2.25117e-05 0 -3.93132e-05 2.27862e-05 0 -4.22687e-05 2.28538e-05 0 -4.52864e-05 2.26844e-05 0 -4.83252e-05 2.22527e-05 0 -5.13373e-05 2.15403e-05 0 -5.42703e-05 2.05385e-05 0 -5.70709e-05 1.92485e-05 0 -5.96867e-05 1.76821e-05 0 -6.20704e-05 1.58602e-05 0 -6.41807e-05 1.38104e-05 0 -6.5984e-05 1.15653e-05 0 -6.74542e-05 9.16004e-06 0 -6.85719e-05 6.63072e-06 0 -6.93238e-05 4.0134e-06 0 -6.97018e-05 1.34361e-06 0 -6.97018e-05 -1.34361e-06 0 -6.93238e-05 -4.0134e-06 0 -6.85719e-05 -6.63072e-06 0 -6.74542e-05 -9.16004e-06 0 -6.5984e-05 -1.15653e-05 0 -6.41807e-05 -1.38104e-05 0 -6.20704e-05 -1.58602e-05 0 -5.96867e-05 -1.76821e-05 0 -5.70709e-05 -1.92485e-05 0 -5.42703e-05 -2.05385e-05 0 -5.13373e-05 -2.15403e-05 0 -4.83252e-05 -2.22527e-05 0 -4.52864e-05 -2.26844e-05 0 -4.22687e-05 -2.28538e-05 0 -3.93132e-05 -2.27862e-05 0 -3.64529e-05 -2.25117e-05 0 -3.602e-05 2.54059e-05 0 -3.90833e-05 2.58073e-05 0 -4.22783e-05 2.59717e-05 0 -4.55683e-05 2.58595e-05 0 -4.89055e-05 2.54362e-05 0 -5.22323e-05 2.46767e-05 0 -5.54856e-05 2.35682e-05 0 -5.85977e-05 2.21124e-05 0 -6.15063e-05 2.03252e-05 0 -6.41542e-05 1.8234e-05 0 -6.64942e-05 1.5875e-05 0 -6.84889e-05 1.32897e-05 0 -7.01108e-05 1.05213e-05 0 -7.1341e-05 7.613e-06 0 -7.2167e-05 4.60648e-06 0 -7.25817e-05 1.5419e-06 0 -7.25817e-05 -1.5419e-06 0 -7.2167e-05 -4.60648e-06 0 -7.1341e-05 -7.613e-06 0 -7.01108e-05 -1.05213e-05 0 -6.84889e-05 -1.32897e-05 0 -6.64942e-05 -1.5875e-05 0 -6.41542e-05 -1.8234e-05 0 -6.15063e-05 -2.03252e-05 0 -5.85977e-05 -2.21124e-05 0 -5.54856e-05 -2.35682e-05 0 -5.22323e-05 -2.46767e-05 0 -4.89055e-05 -2.54362e-05 0 -4.55683e-05 -2.58595e-05 0 -4.22783e-05 -2.59717e-05 0 -3.90833e-05 -2.58073e-05 0 -3.602e-05 -2.54059e-05 0 -3.54284e-05 2.84944e-05 0 -3.872e-05 2.90652e-05 0 -4.21909e-05 2.93671e-05 0 -4.58013e-05 2.93473e-05 0 -4.94949e-05 2.89582e-05 0 -5.32015e-05 2.8164e-05 0 -5.68394e-05 2.69474e-05 0 -6.03281e-05 2.531e-05 0 -6.35863e-05 2.32736e-05 0 -6.65464e-05 2.08763e-05 0 -6.9153e-05 1.81663e-05 0 -7.13663e-05 1.51971e-05 0 -7.31588e-05 1.20223e-05 0 -7.45135e-05 8.69317e-06 0 -7.54207e-05 5.25742e-06 0 -7.58753e-05 1.75931e-06 0 -7.58753e-05 -1.75931e-06 0 -7.54207e-05 -5.25742e-06 0 -7.45135e-05 -8.69317e-06 0 -7.31588e-05 -1.20223e-05 0 -7.13663e-05 -1.51971e-05 0 -6.9153e-05 -1.81663e-05 0 -6.65464e-05 -2.08763e-05 0 -6.35863e-05 -2.32736e-05 0 -6.03281e-05 -2.531e-05 0 -5.68394e-05 -2.69474e-05 0 -5.32015e-05 -2.8164e-05 0 -4.94949e-05 -2.89582e-05 0 -4.58013e-05 -2.93473e-05 0 -4.21909e-05 -2.93671e-05 0 -3.872e-05 -2.90652e-05 0 -3.54284e-05 -2.84944e-05 0 -3.46303e-05 3.17964e-05 0 -3.81745e-05 3.25913e-05 0 -4.19615e-05 3.30852e-05 0 -4.59484e-05 3.32065e-05 0 -5.00697e-05 3.28876e-05 0 -5.42371e-05 3.20787e-05 0 -5.83498e-05 3.07509e-05 0 -6.22933e-05 2.89091e-05 0 -6.59711e-05 2.65848e-05 0 -6.92977e-05 2.3832e-05 0 -7.22112e-05 2.07169e-05 0 -7.46697e-05 1.73096e-05 0 -7.66494e-05 1.36769e-05 0 -7.81379e-05 9.87936e-06 0 -7.91309e-05 5.97032e-06 0 -7.96273e-05 1.99709e-06 0 -7.96273e-05 -1.99709e-06 0 -7.91309e-05 -5.97032e-06 0 -7.81379e-05 -9.87936e-06 0 -7.66494e-05 -1.36769e-05 0 -7.46697e-05 -1.73096e-05 0 -7.22112e-05 -2.07169e-05 0 -6.92977e-05 -2.3832e-05 0 -6.59711e-05 -2.65848e-05 0 -6.22933e-05 -2.89091e-05 0 -5.83498e-05 -3.07509e-05 0 -5.42371e-05 -3.20787e-05 0 -5.00697e-05 -3.28876e-05 0 -4.59484e-05 -3.32065e-05 0 -4.19615e-05 -3.30852e-05 0 -3.81745e-05 -3.25913e-05 0 -3.46303e-05 -3.17964e-05 0 -3.35652e-05 3.53265e-05 0 -3.7383e-05 3.64172e-05 0 -4.15276e-05 3.71772e-05 0 -4.59575e-05 3.75077e-05 0 -5.05956e-05 3.73132e-05 0 -5.533e-05 3.65133e-05 0 -6.00165e-05 3.50734e-05 0 -6.45212e-05 3.29945e-05 0 -6.8702e-05 3.03268e-05 0 -7.24582e-05 2.71504e-05 0 -7.5719e-05 2.35593e-05 0 -7.84464e-05 1.96464e-05 0 -8.06242e-05 1.54952e-05 0 -8.22506e-05 1.1176e-05 0 -8.33299e-05 6.74673e-06 0 -8.38678e-05 2.25556e-06 0 -8.38678e-05 -2.25556e-06 0 -8.33299e-05 -6.74673e-06 0 -8.22506e-05 -1.1176e-05 0 -8.06242e-05 -1.54952e-05 0 -7.84464e-05 -1.96464e-05 0 -7.5719e-05 -2.35593e-05 0 -7.24582e-05 -2.71504e-05 0 -6.8702e-05 -3.03268e-05 0 -6.45212e-05 -3.29945e-05 0 -6.00165e-05 -3.50734e-05 0 -5.533e-05 -3.65133e-05 0 -5.05956e-05 -3.73132e-05 0 -4.59575e-05 -3.75077e-05 0 -4.15276e-05 -3.71772e-05 0 -3.7383e-05 -3.64172e-05 0 -3.35652e-05 -3.53265e-05 0 -3.21561e-05 3.90924e-05 0 -3.62595e-05 4.05712e-05 0 -4.08029e-05 4.16987e-05 0 -4.57516e-05 4.23388e-05 0 -5.10204e-05 4.23452e-05 0 -5.64629e-05 4.16063e-05 0 -6.18975e-05 4.00423e-05 0 -6.70919e-05 3.76737e-05 0 -7.1883e-05 3.45794e-05 0 -7.61362e-05 3.08833e-05 0 -7.9782e-05 2.67215e-05 0 -8.27922e-05 2.22193e-05 0 -8.51692e-05 1.74792e-05 0 -8.6928e-05 1.2581e-05 0 -8.80875e-05 7.58402e-06 0 -8.8663e-05 2.53364e-06 0 -8.8663e-05 -2.53364e-06 0 -8.80875e-05 -7.58402e-06 0 -8.6928e-05 -1.2581e-05 0 -8.51692e-05 -1.74792e-05 0 -8.27922e-05 -2.22193e-05 0 -7.9782e-05 -2.67215e-05 0 -7.61362e-05 -3.08833e-05 0 -7.1883e-05 -3.45794e-05 0 -6.70919e-05 -3.76737e-05 0 -6.18975e-05 -4.00423e-05 0 -5.64629e-05 -4.16063e-05 0 -5.10204e-05 -4.23452e-05 0 -4.57516e-05 -4.23388e-05 0 -4.08029e-05 -4.16987e-05 0 -3.62595e-05 -4.05712e-05 0 -3.21561e-05 -3.90924e-05 0 -3.03073e-05 4.3085e-05 0 -3.46907e-05 4.50716e-05 0 -3.96626e-05 4.6708e-05 0 -4.52162e-05 4.78029e-05 0 -5.1263e-05 4.81442e-05 0 -5.76131e-05 4.75128e-05 0 -6.39609e-05 4.58281e-05 0 -7.00445e-05 4.30871e-05 0 -7.55705e-05 3.94357e-05 0 -8.03929e-05 3.50792e-05 0 -8.44463e-05 3.02206e-05 0 -8.77358e-05 2.50257e-05 0 -9.02944e-05 1.96182e-05 0 -9.2166e-05 1.40821e-05 0 -9.33896e-05 8.47337e-06 0 -9.3994e-05 2.82811e-06 0 -9.3994e-05 -2.82811e-06 0 -9.33896e-05 -8.47337e-06 0 -9.2166e-05 -1.40821e-05 0 -9.02944e-05 -1.96182e-05 0 -8.77358e-05 -2.50257e-05 0 -8.44463e-05 -3.02206e-05 0 -8.03929e-05 -3.50792e-05 0 -7.55705e-05 -3.94357e-05 0 -7.00445e-05 -4.30871e-05 0 -6.39609e-05 -4.58281e-05 0 -5.76131e-05 -4.75128e-05 0 -5.1263e-05 -4.81442e-05 0 -4.52162e-05 -4.78029e-05 0 -3.96626e-05 -4.6708e-05 0 -3.46907e-05 -4.50716e-05 0 -3.03073e-05 -4.3085e-05 0 -2.79024e-05 4.72729e-05 0 -3.25247e-05 4.99136e-05 0 -3.79298e-05 5.22505e-05 0 -4.41667e-05 5.40315e-05 0 -5.11833e-05 5.4903e-05 0 -5.8738e-05 5.45557e-05 0 -6.64281e-05 5.26943e-05 0 -7.36421e-05 4.94176e-05 0 -8.0066e-05 4.49951e-05 0 -8.55078e-05 3.97716e-05 0 -8.99627e-05 3.40474e-05 0 -9.34922e-05 2.80387e-05 0 -9.61877e-05 2.18806e-05 0 -9.81315e-05 1.56529e-05 0 -9.93903e-05 9.39732e-06 0 -0.000100009 3.13302e-06 0 -0.000100009 -3.13302e-06 0 -9.93903e-05 -9.39732e-06 0 -9.81315e-05 -1.56529e-05 0 -9.61877e-05 -2.18806e-05 0 -9.34922e-05 -2.80387e-05 0 -8.99627e-05 -3.40474e-05 0 -8.55078e-05 -3.97716e-05 0 -8.0066e-05 -4.49951e-05 0 -7.36421e-05 -4.94176e-05 0 -6.64281e-05 -5.26943e-05 0 -5.8738e-05 -5.45557e-05 0 -5.11833e-05 -5.4903e-05 0 -4.41667e-05 -5.40315e-05 0 -3.79298e-05 -5.22505e-05 0 -3.25247e-05 -4.99136e-05 0 -2.79024e-05 -4.72729e-05 0 -2.481e-05 5.15734e-05 0 -2.95724e-05 5.50422e-05 0 -3.53435e-05 5.83414e-05 0 -4.23084e-05 6.1145e-05 0 -5.05311e-05 6.29646e-05 0 -5.97512e-05 6.30255e-05 0 -6.91376e-05 6.10091e-05 0 -7.79229e-05 5.69127e-05 0 -8.53897e-05 5.13463e-05 0 -9.14575e-05 4.49468e-05 0 -9.62344e-05 3.81469e-05 0 -9.99127e-05 3.11907e-05 0 -0.000102659 2.42068e-05 0 -0.000104608 1.72478e-05 0 -0.000105858 1.03282e-05 0 -0.000106467 3.43893e-06 0 -0.000106467 -3.43893e-06 0 -0.000105858 -1.03282e-05 0 -0.000104608 -1.72478e-05 0 -0.000102659 -2.42068e-05 0 -9.99127e-05 -3.11907e-05 0 -9.62344e-05 -3.81469e-05 0 -9.14575e-05 -4.49468e-05 0 -8.53897e-05 -5.13463e-05 0 -7.79229e-05 -5.69127e-05 0 -6.91376e-05 -6.10091e-05 0 -5.97512e-05 -6.30255e-05 0 -5.05311e-05 -6.29646e-05 0 -4.23084e-05 -6.1145e-05 0 -3.53435e-05 -5.83414e-05 0 -2.95724e-05 -5.50422e-05 0 -2.481e-05 -5.15734e-05 0 -2.08977e-05 5.58588e-05 0 -2.56077e-05 6.03188e-05 0 -3.15554e-05 6.48786e-05 0 -3.91336e-05 6.92466e-05 0 -4.87677e-05 7.26723e-05 0 -6.04846e-05 7.40156e-05 0 -7.30319e-05 7.15219e-05 0 -8.39057e-05 6.58485e-05 0 -9.2502e-05 5.84892e-05 0 -9.903e-05 5.04955e-05 0 -0.00010394 4.23799e-05 0 -0.000107591 3.43609e-05 0 -0.000110255 2.65004e-05 0 -0.000112114 1.88004e-05 0 -0.000113293 1.12266e-05 0 -0.000113865 3.7332e-06 0 -0.000113865 -3.7332e-06 0 -0.000113293 -1.12266e-05 0 -0.000112114 -1.88004e-05 0 -0.000110255 -2.65004e-05 0 -0.000107591 -3.43609e-05 0 -0.00010394 -4.23799e-05 0 -9.903e-05 -5.04955e-05 0 -9.2502e-05 -5.84892e-05 0 -8.39057e-05 -6.58485e-05 0 -7.30319e-05 -7.15219e-05 0 -6.04846e-05 -7.40156e-05 0 -4.87677e-05 -7.26723e-05 0 -3.91336e-05 -6.92466e-05 0 -3.15554e-05 -6.48786e-05 0 -2.56077e-05 -6.03188e-05 0 -2.08977e-05 -5.58588e-05 0 -1.60697e-05 5.98849e-05 0 -2.04296e-05 6.54606e-05 0 -2.61378e-05 7.15831e-05 0 -3.38682e-05 7.80852e-05 0 -4.46942e-05 8.46559e-05 0 -6.0221e-05 8.85831e-05 0 -7.84249e-05 8.53268e-05 0 -9.20051e-05 7.63848e-05 0 -0.000101323 6.618e-05 0 -0.000107863 5.61084e-05 0 -0.000112529 4.65014e-05 0 -0.000115893 3.73579e-05 0 -0.000118289 2.86314e-05 0 -0.00011994 2.02231e-05 0 -0.000120976 1.20445e-05 0 -0.000121476 3.99965e-06 0 -0.000121476 -3.99965e-06 0 -0.000120976 -1.20445e-05 0 -0.00011994 -2.02231e-05 0 -0.000118289 -2.86314e-05 0 -0.000115893 -3.73579e-05 0 -0.000112529 -4.65014e-05 0 -0.000107863 -5.61084e-05 0 -0.000101323 -6.618e-05 0 -9.20051e-05 -7.63848e-05 0 -7.84249e-05 -8.53268e-05 0 -6.0221e-05 -8.85831e-05 0 -4.46942e-05 -8.46559e-05 0 -3.38682e-05 -7.80852e-05 0 -2.61378e-05 -7.15831e-05 0 -2.04296e-05 -6.54606e-05 0 -1.60697e-05 -5.98849e-05 0 -1.03127e-05 6.34453e-05 0 -1.39193e-05 7.00748e-05 0 -1.88041e-05 7.77087e-05 0 -2.55804e-05 8.70378e-05 0 -3.5869e-05 9.73927e-05 0 -5.38102e-05 0.000112907 0 -7.99732e-05 0.000104427 0 -9.37649e-05 8.75574e-05 0 -0.000102538 7.35825e-05 0 -0.0001081 6.12538e-05 0 -0.000112042 5.01256e-05 0 -0.000114762 3.99475e-05 0 -0.000116695 3.04363e-05 0 -0.000118002 2.14207e-05 0 -0.000118822 1.27266e-05 0 -0.000119215 4.22238e-06 0 -0.000119215 -4.22238e-06 0 -0.000118822 -1.27266e-05 0 -0.000118002 -2.14207e-05 0 -0.000116695 -3.04363e-05 0 -0.000114762 -3.99475e-05 0 -0.000112042 -5.01256e-05 0 -0.0001081 -6.12538e-05 0 -0.000102538 -7.35825e-05 0 -9.37649e-05 -8.75574e-05 0 -7.99732e-05 -0.000104427 0 -5.38102e-05 -0.000112907 0 -3.5869e-05 -9.73927e-05 0 -2.55804e-05 -8.70378e-05 0 -1.88041e-05 -7.77087e-05 0 -1.39193e-05 -7.00748e-05 0 -1.03127e-05 -6.34453e-05 0 -3.75106e-06 6.61461e-05 0 -6.2544e-06 7.36177e-05 0 -9.56367e-06 8.25138e-05 0 -1.42036e-05 9.40827e-05 0 -2.09565e-05 0.000107929 0 -3.06352e-05 0.000131084 0 -4.11537e-05 0.000119372 0 -4.98e-05 9.65465e-05 0 -5.54046e-05 7.93851e-05 0 -5.91805e-05 6.51705e-05 0 -6.1732e-05 5.28424e-05 0 -6.35312e-05 4.1859e-05 0 -6.47844e-05 3.17619e-05 0 -6.56415e-05 2.22946e-05 0 -6.61754e-05 1.32242e-05 0 -6.64331e-05 4.38421e-06 0 -6.64331e-05 -4.38421e-06 0 -6.61754e-05 -1.32242e-05 0 -6.56415e-05 -2.22946e-05 0 -6.47844e-05 -3.17619e-05 0 -6.35312e-05 -4.1859e-05 0 -6.1732e-05 -5.28424e-05 0 -5.91805e-05 -6.51705e-05 0 -5.54046e-05 -7.93851e-05 0 -4.98e-05 -9.65465e-05 0 -4.11537e-05 -0.000119372 0 -3.06352e-05 -0.000131084 0 -2.09565e-05 -0.000107929 0 -1.42036e-05 -9.40827e-05 0 -9.56367e-06 -8.25138e-05 0 -6.2544e-06 -7.36177e-05 0 -3.75106e-06 -6.61461e-05 0 3.35093e-06 6.77679e-05 0 2.22084e-06 7.56686e-05 0 8.84768e-07 8.52014e-05 0 -7.12614e-07 9.77638e-05 0 -2.70607e-06 0.00011317 0 -5.17493e-06 0.000137768 0 -8.03705e-06 0.000125559 0 -1.01415e-05 0.000100979 0 -1.17459e-05 8.23715e-05 0 -1.28816e-05 6.72164e-05 0 -1.37271e-05 5.42819e-05 0 -1.43483e-05 4.28824e-05 0 -1.48085e-05 3.24804e-05 0 -1.51327e-05 2.27722e-05 0 -1.53415e-05 1.34982e-05 0 -1.54434e-05 4.47353e-06 0 -1.54434e-05 -4.47353e-06 0 -1.53415e-05 -1.34982e-05 0 -1.51327e-05 -2.27722e-05 0 -1.48085e-05 -3.24804e-05 0 -1.43483e-05 -4.28824e-05 0 -1.37271e-05 -5.42819e-05 0 -1.28816e-05 -6.72164e-05 0 -1.17459e-05 -8.23715e-05 0 -1.01415e-05 -0.000100979 0 -8.03705e-06 -0.000125559 0 -5.17493e-06 -0.000137768 0 -2.70607e-06 -0.00011317 0 -7.12614e-07 -9.77638e-05 0 8.84768e-07 -8.52014e-05 0 2.22084e-06 -7.56686e-05 0 3.35093e-06 -6.77679e-05 0 1.06213e-05 6.82208e-05 0 1.08797e-05 7.60443e-05 0 1.16065e-05 8.53818e-05 0 1.31555e-05 9.75596e-05 0 1.60356e-05 0.000112457 0 2.06115e-05 0.000136352 0 2.60152e-05 0.000124319 0 3.01632e-05 0.000100231 0 3.28101e-05 8.20065e-05 0 3.44065e-05 6.7075e-05 0 3.53766e-05 5.42607e-05 0 3.59713e-05 4.29134e-05 0 3.63388e-05 3.25301e-05 0 3.65618e-05 2.28183e-05 0 3.6689e-05 1.353e-05 0 3.67466e-05 4.4846e-06 0 3.67466e-05 -4.4846e-06 0 3.6689e-05 -1.353e-05 0 3.65618e-05 -2.28183e-05 0 3.63388e-05 -3.25301e-05 0 3.59713e-05 -4.29134e-05 0 3.53766e-05 -5.42607e-05 0 3.44065e-05 -6.7075e-05 0 3.28101e-05 -8.20065e-05 0 3.01632e-05 -0.000100231 0 2.60152e-05 -0.000124319 0 2.06115e-05 -0.000136352 0 1.60356e-05 -0.000112457 0 1.31555e-05 -9.75596e-05 0 1.16065e-05 -8.53818e-05 0 1.08797e-05 -7.60443e-05 0 1.06213e-05 -6.82208e-05 0 1.76732e-05 6.76132e-05 0 1.90931e-05 7.48726e-05 0 2.15311e-05 8.3199e-05 0 2.57027e-05 9.37342e-05 0 3.28752e-05 0.000105738 0 4.53651e-05 0.000126556 0 6.18098e-05 0.000115363 0 7.22136e-05 9.44453e-05 0 7.8532e-05 7.84516e-05 0 8.2441e-05 6.48604e-05 0 8.49818e-05 5.28344e-05 0 8.66556e-05 4.19894e-05 0 8.777e-05 3.19288e-05 0 8.84949e-05 2.24449e-05 0 8.89323e-05 1.33247e-05 0 8.91383e-05 4.4196e-06 0 8.91383e-05 -4.4196e-06 0 8.89323e-05 -1.33247e-05 0 8.84949e-05 -2.24449e-05 0 8.777e-05 -3.19288e-05 0 8.66556e-05 -4.19894e-05 0 8.49818e-05 -5.28344e-05 0 8.2441e-05 -6.48604e-05 0 7.8532e-05 -7.84516e-05 0 7.22136e-05 -9.44453e-05 0 6.18098e-05 -0.000115363 0 4.53651e-05 -0.000126556 0 3.28752e-05 -0.000105738 0 2.57027e-05 -9.37342e-05 0 2.15311e-05 -8.3199e-05 0 1.90931e-05 -7.48726e-05 0 1.76732e-05 -6.76132e-05 0 2.4187e-05 6.61451e-05 0 2.63216e-05 7.25279e-05 0 2.98115e-05 7.9444e-05 0 3.54052e-05 8.7096e-05 0 4.46959e-05 9.5293e-05 0 6.14103e-05 0.000103322 0 8.56315e-05 9.77607e-05 0 9.8846e-05 8.50494e-05 0 0.000107213 7.26343e-05 0 0.000112478 6.10476e-05 0 0.000116121 5.03037e-05 0 0.000118579 4.02624e-05 0 0.000120281 3.07774e-05 0 0.000121408 2.17033e-05 0 0.000122103 1.29125e-05 0 0.000122432 4.28601e-06 0 0.000122432 -4.28601e-06 0 0.000122103 -1.29125e-05 0 0.000121408 -2.17033e-05 0 0.000120281 -3.07774e-05 0 0.000118579 -4.02624e-05 0 0.000116121 -5.03037e-05 0 0.000112478 -6.10476e-05 0 0.000107213 -7.26343e-05 0 9.8846e-05 -8.50494e-05 0 8.56315e-05 -9.77607e-05 0 6.14103e-05 -0.000103322 0 4.46959e-05 -9.5293e-05 0 3.54052e-05 -8.7096e-05 0 2.98115e-05 -7.9444e-05 0 2.63216e-05 -7.25279e-05 0 2.4187e-05 -6.61451e-05 0 2.99821e-05 6.43272e-05 0 3.22939e-05 6.9684e-05 0 3.59792e-05 7.48872e-05 0 4.17653e-05 7.98771e-05 0 5.0375e-05 8.41308e-05 0 6.2191e-05 8.58735e-05 0 7.48929e-05 8.25572e-05 0 8.60537e-05 7.50452e-05 0 9.40751e-05 6.58876e-05 0 9.98495e-05 5.64002e-05 0 0.000103947 4.70548e-05 0 0.000106888 3.79891e-05 0 0.000108957 2.92129e-05 0 0.00011037 2.0683e-05 0 0.000111248 1.23357e-05 0 0.00011167 4.0995e-06 0 0.00011167 -4.0995e-06 0 0.000111248 -1.23357e-05 0 0.00011037 -2.0683e-05 0 0.000108957 -2.92129e-05 0 0.000106888 -3.79891e-05 0 0.000103947 -4.70548e-05 0 9.98495e-05 -5.64002e-05 0 9.40751e-05 -6.58876e-05 0 8.60537e-05 -7.50452e-05 0 7.48929e-05 -8.25572e-05 0 6.2191e-05 -8.58735e-05 0 5.0375e-05 -8.41308e-05 0 4.17653e-05 -7.98771e-05 0 3.59792e-05 -7.48872e-05 0 3.22939e-05 -6.9684e-05 0 2.99821e-05 -6.43272e-05 0 3.50447e-05 6.27124e-05 0 3.68549e-05 6.69556e-05 0 4.01198e-05 7.04703e-05 0 4.52456e-05 7.32564e-05 0 5.23741e-05 7.49839e-05 0 6.12174e-05 7.473e-05 0 7.08665e-05 7.18143e-05 0 7.94402e-05 6.63748e-05 0 8.65041e-05 5.93479e-05 0 9.19762e-05 5.15635e-05 0 9.61341e-05 4.35075e-05 0 9.92273e-05 3.54182e-05 0 0.00010148 2.73993e-05 0 0.000103047 1.94789e-05 0 0.000104037 1.16475e-05 0 0.000104516 3.87557e-06 0 0.000104516 -3.87557e-06 0 0.000104037 -1.16475e-05 0 0.000103047 -1.94789e-05 0 0.00010148 -2.73993e-05 0 9.92273e-05 -3.54182e-05 0 9.61341e-05 -4.35075e-05 0 9.19762e-05 -5.15635e-05 0 8.65041e-05 -5.93479e-05 0 7.94402e-05 -6.63748e-05 0 7.08665e-05 -7.18143e-05 0 6.12174e-05 -7.473e-05 0 5.23741e-05 -7.49839e-05 0 4.52456e-05 -7.32564e-05 0 4.01198e-05 -7.04703e-05 0 3.68549e-05 -6.69556e-05 0 3.50447e-05 -6.27124e-05 0 3.94292e-05 6.1939e-05 0 3.99233e-05 6.50349e-05 0 4.23295e-05 6.66651e-05 0 4.66894e-05 6.76261e-05 0 5.25485e-05 6.77412e-05 0 5.94211e-05 6.65808e-05 0 6.65493e-05 6.37208e-05 0 7.34021e-05 5.92389e-05 0 7.93621e-05 5.35021e-05 0 8.42922e-05 4.69604e-05 0 8.82153e-05 3.99704e-05 0 9.12542e-05 3.27662e-05 0 9.35288e-05 2.54809e-05 0 9.51456e-05 1.81827e-05 0 9.61815e-05 1.08983e-05 0 9.66872e-05 3.63052e-06 0 9.66872e-05 -3.63052e-06 0 9.61815e-05 -1.08983e-05 0 9.51456e-05 -1.81827e-05 0 9.35288e-05 -2.54809e-05 0 9.12542e-05 -3.27662e-05 0 8.82153e-05 -3.99704e-05 0 8.42922e-05 -4.69604e-05 0 7.93621e-05 -5.35021e-05 0 7.34021e-05 -5.92389e-05 0 6.65493e-05 -6.37208e-05 0 5.94211e-05 -6.65808e-05 0 5.25485e-05 -6.77412e-05 0 4.66894e-05 -6.76261e-05 0 4.23295e-05 -6.66651e-05 0 3.99233e-05 -6.50349e-05 0 3.94292e-05 -6.1939e-05 0 4.34183e-05 6.42107e-05 0 4.06382e-05 6.43517e-05 0 4.26368e-05 6.34107e-05 0 4.6587e-05 6.27682e-05 0 5.16716e-05 6.18468e-05 0 5.73048e-05 6.01155e-05 0 6.3149e-05 5.73161e-05 0 6.87088e-05 5.33708e-05 0 7.37334e-05 4.84424e-05 0 7.80464e-05 4.27815e-05 0 8.1617e-05 3.66322e-05 0 8.447e-05 3.0184e-05 0 8.66628e-05 2.35689e-05 0 8.82514e-05 1.68687e-05 0 8.92833e-05 1.01306e-05 0 8.97911e-05 3.378e-06 0 8.97911e-05 -3.378e-06 0 8.92833e-05 -1.01306e-05 0 8.82514e-05 -1.68687e-05 0 8.66628e-05 -2.35689e-05 0 8.447e-05 -3.0184e-05 0 8.1617e-05 -3.66322e-05 0 7.80464e-05 -4.27815e-05 0 7.37334e-05 -4.84424e-05 0 6.87088e-05 -5.33708e-05 0 6.3149e-05 -5.73161e-05 0 5.73048e-05 -6.01155e-05 0 5.16716e-05 -6.18468e-05 0 4.6587e-05 -6.27682e-05 0 4.26368e-05 -6.34107e-05 0 4.06382e-05 -6.43517e-05 0 4.34183e-05 -6.42107e-05 0 4.47584e-05 8.43518e-05 0 3.71334e-05 6.23553e-05 0 4.08107e-05 5.99018e-05 0 4.56869e-05 5.81815e-05 0 5.00848e-05 5.67782e-05 0 5.50694e-05 5.48167e-05 0 5.98699e-05 5.20893e-05 0 6.45079e-05 4.84983e-05 0 6.87232e-05 4.41104e-05 0 7.2463e-05 3.90832e-05 0 7.56373e-05 3.35815e-05 0 7.82485e-05 2.7761e-05 0 8.02986e-05 2.17356e-05 0 8.18117e-05 1.55892e-05 0 8.28065e-05 9.3751e-06 0 8.32998e-05 3.12833e-06 0 8.32998e-05 -3.12833e-06 0 8.28065e-05 -9.3751e-06 0 8.18117e-05 -1.55892e-05 0 8.02986e-05 -2.17356e-05 0 7.82485e-05 -2.7761e-05 0 7.56373e-05 -3.35815e-05 0 7.2463e-05 -3.90832e-05 0 6.87232e-05 -4.41104e-05 0 6.45079e-05 -4.84983e-05 0 5.98699e-05 -5.20893e-05 0 5.50694e-05 -5.48167e-05 0 5.00848e-05 -5.67782e-05 0 4.56869e-05 -5.81815e-05 0 4.08107e-05 -5.99018e-05 0 3.71334e-05 -6.23553e-05 0 4.47584e-05 -8.43518e-05 0 </DataArray> 
</PointData> 
<Points> 
<DataArray type="Float32" NumberOfComponents="3"> 