<?xml version="1.0"?> 
<VTKFile type="StructuredGrid" version="0.1"> 
<StructuredGrid WholeExtent="0 31 0 31 0 0"> 
<Piece Extent="0 31 0 31 0 0"> 
<PointData>
<DataArray type="Float32" Name="B" format="ascii" NumberOfComponents="3"> 
0 -3.57249e-06 0 6.36875e-07 -3.58824e-06 0 1.27916e-06 -3.6357e-06 0 1.93233e-06 -3.71546e-06 0 2.60198e-06 -3.8285e-06 0 3.29388e-06 -3.97625e-06 0 4.01406e-06 -4.16059e-06 0 4.76885e-06 -4.3839e-06 0 5.565e-06 -4.64913e-06 0 6.40972e-06 -4.95985e-06 0 7.31079e-06 -5.32036e-06 0 8.27667e-06 -5.73579e-06 0 9.31657e-06 -6.21225e-06 0 1.04407e-05 -6.75699e-06 0 1.16601e-05 -7.37867e-06 0 1.29872e-05 -8.08753e-06 0 1.44358e-05 -8.89593e-06 0 1.60213e-05 -9.81846e-06 0 1.77602e-05 -1.08732e-05 0 1.96727e-05 -1.20812e-05 0 2.1777e-05 -1.34698e-05 0 2.41024e-05 -1.50701e-05 0 2.66617e-05 -1.69254e-05 0 2.95073e-05 -1.90836e-05 0 3.26179e-05 -2.16175e-05 0 3.61201e-05 -2.46106e-05 0 3.98486e-05 -2.81915e-05 0 4.41887e-05 -3.25655e-05 0 4.84388e-05 -3.79775e-05 0 5.38135e-05 -4.53444e-05 0 5.80599e-05 -5.54581e-05 0 4.47584e-05 -8.8709e-05 0 0 -4.19183e-06 0 6.02688e-07 -4.21019e-06 0 1.21037e-06 -4.26548e-06 0 1.82809e-06 -4.35837e-06 0 2.461e-06 -4.48999e-06 0 3.1144e-06 -4.66198e-06 0 3.7938e-06 -4.87646e-06 0 4.50498e-06 -5.13614e-06 0 5.25404e-06 -5.44438e-06 0 6.04749e-06 -5.80521e-06 0 6.89228e-06 -6.2235e-06 0 7.79591e-06 -6.70503e-06 0 8.76651e-06 -7.25665e-06 0 9.81288e-06 -7.88649e-06 0 1.09447e-05 -8.60416e-06 0 1.21723e-05 -9.42104e-06 0 1.35073e-05 -1.03507e-05 0 1.49622e-05 -1.14091e-05 0 1.65505e-05 -1.26156e-05 0 1.82867e-05 -1.39932e-05 0 2.01869e-05 -1.55699e-05 0 2.22664e-05 -1.73795e-05 0 2.45431e-05 -1.94637e-05 0 2.70289e-05 -2.18737e-05 0 2.9741e-05 -2.46745e-05 0 3.26712e-05 -2.79486e-05 0 3.58266e-05 -3.18061e-05 0 3.91097e-05 -3.63959e-05 0 4.2449e-05 -4.19339e-05 0 4.52813e-05 -4.87219e-05 0 4.65432e-05 -5.69479e-05 0 4.34183e-05 -6.42707e-05 0 0 -4.77454e-06 0 5.63519e-07 -4.79528e-06 0 1.13156e-06 -4.85772e-06 0 1.7087e-06 -4.96262e-06 0 2.29959e-06 -5.11122e-06 0 2.90899e-06 -5.3053e-06 0 3.54185e-06 -5.54722e-06 0 4.20333e-06 -5.83995e-06 0 4.89883e-06 -6.18716e-06 0 5.63406e-06 -6.59328e-06 0 6.41509e-06 -7.06359e-06 0 7.24839e-06 -7.60439e-06 0 8.14088e-06 -8.22309e-06 0 9.09998e-06 -8.92846e-06 0 1.01336e-05 -9.7308e-06 0 1.12504e-05 -1.06423e-05 0 1.24593e-05 -1.16771e-05 0 1.37701e-05 -1.28523e-05 0 1.51929e-05 -1.41877e-05 0 1.67381e-05 -1.57071e-05 0 1.84162e-05 -1.74385e-05 0 2.02371e-05 -1.94157e-05 0 2.22088e-05 -2.16786e-05 0 2.43369e-05 -2.42753e-05 0 2.66188e-05 -2.72629e-05 0 2.90432e-05 -3.071e-05 0 3.15696e-05 -3.46955e-05 0 3.41263e-05 -3.93059e-05 0 3.65331e-05 -4.46142e-05 0 3.84933e-05 -5.05805e-05 0 3.94712e-05 -5.6819e-05 0 3.94292e-05 -6.18414e-05 0 0 -5.31586e-06 0 5.19829e-07 -5.33873e-06 0 1.04368e-06 -5.4076e-06 0 1.57559e-06 -5.52326e-06 0 2.11968e-06 -5.68705e-06 0 2.68015e-06 -5.90089e-06 0 3.26133e-06 -6.16728e-06 0 3.8677e-06 -6.48942e-06 0 4.50392e-06 -6.87119e-06 0 5.17488e-06 -7.31731e-06 0 5.88569e-06 -7.83339e-06 0 6.64175e-06 -8.42606e-06 0 7.44873e-06 -9.10313e-06 0 8.31259e-06 -9.87377e-06 0 9.23961e-06 -1.07487e-05 0 1.02363e-05 -1.17405e-05 0 1.13095e-05 -1.28638e-05 0 1.24661e-05 -1.41358e-05 0 1.37128e-05 -1.55766e-05 0 1.50564e-05 -1.72097e-05 0 1.65026e-05 -1.90626e-05 0 1.80558e-05 -2.11674e-05 0 1.97181e-05 -2.35615e-05 0 2.14871e-05 -2.62875e-05 0 2.33543e-05 -2.93942e-05 0 2.52987e-05 -3.29339e-05 0 2.72834e-05 -3.69587e-05 0 2.92405e-05 -4.15078e-05 0 3.10697e-05 -4.6574e-05 0 3.2634e-05 -5.20499e-05 0 3.38762e-05 -5.75772e-05 0 3.50447e-05 -6.27731e-05 0 0 -5.81153e-06 0 4.72126e-07 -5.83627e-06 0 9.47731e-07 -5.91077e-06 0 1.43031e-06 -6.03586e-06 0 1.92341e-06 -6.21295e-06 0 2.43063e-06 -6.44403e-06 0 2.95565e-06 -6.73173e-06 0 3.50226e-06 -7.07937e-06 0 4.07433e-06 -7.49102e-06 0 4.6759e-06 -7.97156e-06 0 5.31111e-06 -8.52679e-06 0 5.98425e-06 -9.16355e-06 0 6.69974e-06 -9.88987e-06 0 7.46211e-06 -1.07151e-05 0 8.27594e-06 -1.16501e-05 0 9.14586e-06 -1.27076e-05 0 1.00764e-05 -1.39022e-05 0 1.10718e-05 -1.52511e-05 0 1.21359e-05 -1.67738e-05 0 1.32719e-05 -1.84933e-05 0 1.44815e-05 -2.04356e-05 0 1.57649e-05 -2.26309e-05 0 1.71193e-05 -2.51131e-05 0 1.85381e-05 -2.79201e-05 0 2.00088e-05 -3.10924e-05 0 2.15113e-05 -3.46711e-05 0 2.30153e-05 -3.86918e-05 0 2.44817e-05 -4.31733e-05 0 2.58676e-05 -4.80986e-05 0 2.71606e-05 -5.33809e-05 0 2.84396e-05 -5.88703e-05 0 2.99821e-05 -6.42966e-05 0 0 -6.25781e-06 0 4.20949e-07 -6.28415e-06 0 8.44816e-07 -6.36345e-06 0 1.27453e-06 -6.49657e-06 0 1.71304e-06 -6.68496e-06 0 2.16333e-06 -6.93065e-06 0 2.62841e-06 -7.23636e-06 0 3.11136e-06 -7.60547e-06 0 3.61527e-06 -8.04212e-06 0 4.14329e-06 -8.55128e-06 0 4.69861e-06 -9.13885e-06 0 5.28442e-06 -9.81172e-06 0 5.9039e-06 -1.0578e-05 0 6.56015e-06 -1.14469e-05 0 7.25618e-06 -1.24294e-05 0 7.99475e-06 -1.3538e-05 0 8.77827e-06 -1.4787e-05 0 9.60864e-06 -1.6193e-05 0 1.0487e-05 -1.77749e-05 0 1.14133e-05 -1.95545e-05 0 1.23863e-05 -2.15564e-05 0 1.34023e-05 -2.38081e-05 0 1.44553e-05 -2.63407e-05 0 1.55358e-05 -2.91874e-05 0 1.663e-05 -3.23836e-05 0 1.77201e-05 -3.59637e-05 0 1.8785e-05 -3.9958e-05 0 1.98052e-05 -4.43855e-05 0 2.07756e-05 -4.92459e-05 0 2.17307e-05 -5.45167e-05 0 2.27868e-05 -6.01504e-05 0 2.4187e-05 -6.61624e-05 0 0 -6.65149e-06 0 3.66855e-07 -6.67915e-06 0 7.36057e-07 -6.7624e-06 0 1.10995e-06 -6.90212e-06 0 1.4909e-06 -7.09976e-06 0 1.88124e-06 -7.35738e-06 0 2.28333e-06 -7.67771e-06 0 2.69951e-06 -8.06415e-06 0 3.1321e-06 -8.52085e-06 0 3.5834e-06 -9.05278e-06 0 4.05563e-06 -9.6658e-06 0 4.55092e-06 -1.03667e-05 0 5.07125e-06 -1.11636e-05 0 5.6184e-06 -1.20655e-05 0 6.19383e-06 -1.3083e-05 0 6.79861e-06 -1.42282e-05 0 7.43321e-06 -1.55151e-05 0 8.09736e-06 -1.69594e-05 0 8.7898e-06 -1.85789e-05 0 9.50793e-06 -2.03941e-05 0 1.02475e-05 -2.24277e-05 0 1.10022e-05 -2.47051e-05 0 1.17633e-05 -2.72542e-05 0 1.2519e-05 -3.01053e-05 0 1.32548e-05 -3.329e-05 0 1.39543e-05 -3.68406e-05 0 1.46011e-05 -4.07879e-05 0 1.51848e-05 -4.51599e-05 0 1.57118e-05 -4.9982e-05 0 1.62221e-05 -5.52815e-05 0 1.68147e-05 -6.11109e-05 0 1.76732e-05 -6.75506e-05 0 0 -6.98996e-06 0 3.10416e-07 -7.01865e-06 0 6.22605e-07 -7.10499e-06 0 9.38334e-07 -7.24985e-06 0 1.25936e-06 -7.45468e-06 0 1.5874e-06 -7.72152e-06 0 1.92414e-06 -8.05308e-06 0 2.27123e-06 -8.45271e-06 0 2.63022e-06 -8.92452e-06 0 3.00256e-06 -9.47337e-06 0 3.38956e-06 -1.0105e-05 0 3.79234e-06 -1.08261e-05 0 4.21175e-06 -1.16444e-05 0 4.64829e-06 -1.25687e-05 0 5.10205e-06 -1.36091e-05 0 5.57251e-06 -1.47773e-05 0 6.05842e-06 -1.60862e-05 0 6.55759e-06 -1.75508e-05 0 7.06664e-06 -1.91877e-05 0 7.58073e-06 -2.10157e-05 0 8.09322e-06 -2.30557e-05 0 8.59537e-06 -2.53307e-05 0 9.07605e-06 -2.78661e-05 0 9.52159e-06 -3.06895e-05 0 9.916e-06 -3.38304e-05 0 1.02419e-05 -3.73201e-05 0 1.04828e-05 -4.11924e-05 0 1.06268e-05 -4.54845e-05 0 1.0674e-05 -5.02422e-05 0 1.06457e-05 -5.55304e-05 0 1.05953e-05 -6.1451e-05 0 1.06213e-05 -6.81857e-05 0 0 -7.27115e-06 0 2.52201e-07 -7.30058e-06 0 5.0561e-07 -7.38916e-06 0 7.61419e-07 -7.53772e-06 0 1.02079e-06 -7.74769e-06 0 1.28484e-06 -8.02107e-06 0 1.55461e-06 -8.36049e-06 0 1.83104e-06 -8.76923e-06 0 2.11497e-06 -9.25127e-06 0 2.40703e-06 -9.81133e-06 0 2.70768e-06 -1.04549e-05 0 3.01708e-06 -1.11885e-05 0 3.33503e-06 -1.20193e-05 0 3.66089e-06 -1.29559e-05 0 3.99345e-06 -1.40078e-05 0 4.33082e-06 -1.51858e-05 0 4.67019e-06 -1.6502e-05 0 5.0077e-06 -1.79703e-05 0 5.33816e-06 -1.96058e-05 0 5.65477e-06 -2.14258e-05 0 5.94885e-06 -2.34489e-05 0 6.20955e-06 -2.56962e-05 0 6.42358e-06 -2.81904e-05 0 6.57508e-06 -3.09566e-05 0 6.64577e-06 -3.40222e-05 0 6.61542e-06 -3.74177e-05 0 6.46314e-06 -4.11783e-05 0 6.16911e-06 -4.53464e-05 0 5.71745e-06 -4.99785e-05 0 5.09821e-06 -5.51557e-05 0 4.30897e-06 -6.10053e-05 0 3.35093e-06 -6.77198e-05 0 0 -7.49356e-06 0 1.92777e-07 -7.52346e-06 0 3.8621e-07 -7.61343e-06 0 5.80934e-07 -7.76428e-06 0 7.77539e-07 -7.97738e-06 0 9.76547e-07 -8.25468e-06 0 1.17838e-06 -8.5987e-06 0 1.38334e-06 -9.01259e-06 0 1.59153e-06 -9.50015e-06 0 1.80288e-06 -1.00659e-05 0 2.017e-06 -1.07151e-05 0 2.23319e-06 -1.14537e-05 0 2.4503e-06 -1.22888e-05 0 2.66665e-06 -1.32281e-05 0 2.87991e-06 -1.42806e-05 0 3.08694e-06 -1.54562e-05 0 3.28361e-06 -1.67661e-05 0 3.46461e-06 -1.82227e-05 0 3.62321e-06 -1.98399e-05 0 3.75097e-06 -2.16329e-05 0 3.83746e-06 -2.36185e-05 0 3.86998e-06 -2.58151e-05 0 3.83322e-06 -2.82431e-05 0 3.70907e-06 -3.09246e-05 0 3.4764e-06 -3.38847e-05 0 3.11106e-06 -3.71516e-05 0 2.58581e-06 -4.07587e-05 0 1.87022e-06 -4.47482e-05 0 9.29534e-07 -4.91761e-05 0 -2.78092e-07 -5.41223e-05 0 -1.80939e-06 -5.97047e-05 0 -3.75106e-06 -6.61016e-05 0 0 -7.65627e-06 0 1.32693e-07 -7.68636e-06 0 2.65512e-07 -7.77691e-06 0 3.98556e-07 -7.92868e-06 0 5.31869e-07 -8.14299e-06 0 6.65407e-07 -8.42167e-06 0 7.99009e-07 -8.76714e-06 0 9.3235e-07 -9.18238e-06 0 1.0649e-06 -9.67097e-06 0 1.19589e-06 -1.02372e-05 0 1.32419e-06 -1.08859e-05 0 1.4483e-06 -1.16227e-05 0 1.56623e-06 -1.24541e-05 0 1.67538e-06 -1.33873e-05 0 1.77244e-06 -1.44305e-05 0 1.85321e-06 -1.55926e-05 0 1.91245e-06 -1.68837e-05 0 1.94364e-06 -1.83149e-05 0 1.93877e-06 -1.98984e-05 0 1.88805e-06 -2.16477e-05 0 1.77962e-06 -2.35772e-05 0 1.59921e-06 -2.5703e-05 0 1.32976e-06 -2.80425e-05 0 9.51057e-07 -3.06148e-05 0 4.39213e-07 -3.34413e-05 0 -2.33934e-07 -3.65464e-05 0 -1.10178e-06 -3.9959e-05 0 -2.20476e-06 -4.37152e-05 0 -3.59355e-06 -4.78617e-05 0 -5.33563e-06 -5.2462e-05 0 -7.52669e-06 -5.76048e-05 0 -1.03127e-05 -6.34101e-05 0 0 -7.75887e-06 0 7.24783e-08 -7.7889e-06 0 1.4458e-07 -7.87925e-06 0 2.15896e-07 -8.03064e-06 0 2.85953e-07 -8.24431e-06 0 3.54179e-07 -8.52198e-06 0 4.19862e-07 -8.86593e-06 0 4.8211e-07 -9.27892e-06 0 5.39798e-07 -9.76432e-06 0 5.91511e-07 -1.0326e-05 0 6.35477e-07 -1.09686e-05 0 6.69489e-07 -1.16973e-05 0 6.90808e-07 -1.25178e-05 0 6.96056e-07 -1.34368e-05 0 6.81082e-07 -1.44616e-05 0 6.40818e-07 -1.56001e-05 0 5.69095e-07 -1.68613e-05 0 4.58437e-07 -1.82549e-05 0 2.99831e-07 -1.97915e-05 0 8.24397e-08 -2.14824e-05 0 -2.06702e-07 -2.334e-05 0 -5.83063e-07 -2.53776e-05 0 -1.06505e-06 -2.76095e-05 0 -1.67452e-06 -3.00513e-05 0 -2.43754e-06 -3.272e-05 0 -3.38535e-06 -3.56348e-05 0 -4.55592e-06 -3.88176e-05 0 -5.99652e-06 -4.22945e-05 0 -7.76799e-06 -4.60973e-05 0 -9.95196e-06 -5.02655e-05 0 -1.26631e-05 -5.48469e-05 0 -1.60697e-05 -5.98958e-05 0 0 -7.80148e-06 0 1.26354e-08 -7.8312e-06 0 2.44224e-08 -7.92062e-06 0 3.44774e-08 -8.0704e-06 0 4.18457e-08 -8.2817e-06 0 4.54629e-08 -8.55612e-06 0 4.41131e-08 -8.89575e-06 0 3.63823e-08 -9.30316e-06 0 2.0606e-08 -9.78143e-06 0 -5.19128e-09 -1.03342e-05 0 -4.33654e-08 -1.09655e-05 0 -9.67332e-08 -1.16801e-05 0 -1.68667e-07 -1.24832e-05 0 -2.63202e-07 -1.33807e-05 0 -3.85169e-07 -1.4379e-05 0 -5.40336e-07 -1.54851e-05 0 -7.35587e-07 -1.67068e-05 0 -9.7912e-07 -1.80522e-05 0 -1.28068e-06 -1.95303e-05 0 -1.65184e-06 -2.11506e-05 0 -2.1063e-06 -2.29229e-05 0 -2.66029e-06 -2.4858e-05 0 -3.33305e-06 -2.69669e-05 0 -4.14741e-06 -2.92612e-05 0 -5.13063e-06 -3.17532e-05 0 -6.31552e-06 -3.44558e-05 0 -7.74222e-06 -3.73829e-05 0 -9.4608e-06 -4.0549e-05 0 -1.15352e-05 -4.39691e-05 0 -1.40498e-05 -4.7657e-05 0 -1.71183e-05 -5.16214e-05 0 -2.08977e-05 -5.58559e-05 0 0 -7.7847e-06 0 -4.63649e-08 -7.8139e-06 0 -9.40148e-08 -7.9017e-06 0 -1.44272e-07 -8.04873e-06 0 -1.98536e-07 -8.25605e-06 0 -2.58319e-07 -8.52513e-06 0 -3.25297e-07 -8.85787e-06 0 -4.01352e-07 -9.25663e-06 0 -4.88628e-07 -9.72418e-06 0 -5.89593e-07 -1.02638e-05 0 -7.07107e-07 -1.08792e-05 0 -8.44501e-07 -1.15744e-05 0 -1.00567e-06 -1.23543e-05 0 -1.19519e-06 -1.32238e-05 0 -1.41841e-06 -1.41886e-05 0 -1.68163e-06 -1.52547e-05 0 -1.99225e-06 -1.64285e-05 0 -2.35895e-06 -1.77169e-05 0 -2.79196e-06 -1.91271e-05 0 -3.30323e-06 -2.06667e-05 0 -3.90685e-06 -2.23432e-05 0 -4.61935e-06 -2.41647e-05 0 -5.4602e-06 -2.61389e-05 0 -6.45238e-06 -2.82735e-05 0 -7.62323e-06 -3.05758e-05 0 -9.00551e-06 -3.30526e-05 0 -1.0639e-05 -3.57094e-05 0 -1.25725e-05 -3.85495e-05 0 -1.48673e-05 -4.15723e-05 0 -1.76008e-05 -4.47699e-05 0 -2.08726e-05 -4.81204e-05 0 -2.481e-05 -5.15772e-05 0 0 -7.7096e-06 0 -1.04086e-07 -7.73806e-06 0 -2.09857e-07 -7.82362e-06 0 -3.19036e-07 -7.96685e-06 0 -4.33424e-07 -8.16871e-06 0 -5.54941e-07 -8.43054e-06 0 -6.85674e-07 -8.75405e-06 0 -8.27919e-07 -9.14136e-06 0 -9.84239e-07 -9.59496e-06 0 -1.15753e-06 -1.01177e-05 0 -1.35106e-06 -1.0713e-05 0 -1.5686e-06 -1.13843e-05 0 -1.81447e-06 -1.21358e-05 0 -2.09362e-06 -1.29718e-05 0 -2.41183e-06 -1.38971e-05 0 -2.77573e-06 -1.49166e-05 0 -3.19307e-06 -1.60357e-05 0 -3.67279e-06 -1.72598e-05 0 -4.2253e-06 -1.85947e-05 0 -4.8627e-06 -2.00458e-05 0 -5.59903e-06 -2.16187e-05 0 -6.45067e-06 -2.33187e-05 0 -7.43672e-06 -2.51504e-05 0 -8.57958e-06 -2.71179e-05 0 -9.90556e-06 -2.92238e-05 0 -1.14459e-05 -3.14691e-05 0 -1.32377e-05 -3.38519e-05 0 -1.53257e-05 -3.6366e-05 0 -1.77641e-05 -3.89986e-05 0 -2.06183e-05 -4.17259e-05 0 -2.39671e-05 -4.45069e-05 0 -2.79024e-05 -4.72742e-05 0 0 -7.57765e-06 0 -1.6013e-07 -7.60517e-06 0 -3.22305e-07 -7.68792e-06 0 -4.8861e-07 -7.8264e-06 0 -6.61209e-07 -8.02148e-06 0 -8.42384e-07 -8.27433e-06 0 -1.03458e-06 -8.58651e-06 0 -1.24046e-06 -8.95987e-06 0 -1.46295e-06 -9.39663e-06 0 -1.70529e-06 -9.89931e-06 0 -1.97111e-06 -1.04708e-05 0 -2.2645e-06 -1.11141e-05 0 -2.5901e-06 -1.18328e-05 0 -2.95317e-06 -1.26306e-05 0 -3.35972e-06 -1.35113e-05 0 -3.81662e-06 -1.4479e-05 0 -4.33175e-06 -1.55379e-05 0 -4.91412e-06 -1.66921e-05 0 -5.5741e-06 -1.79459e-05 0 -6.32361e-06 -1.9303e-05 0 -7.17635e-06 -2.0767e-05 0 -8.14811e-06 -2.23407e-05 0 -9.25712e-06 -2.4026e-05 0 -1.05245e-05 -2.58236e-05 0 -1.19746e-05 -2.7732e-05 0 -1.3636e-05 -2.97474e-05 0 -1.55417e-05 -3.1862e-05 0 -1.77305e-05 -3.40624e-05 0 -2.02473e-05 -3.63273e-05 0 -2.31437e-05 -3.86238e-05 0 -2.64769e-05 -4.09015e-05 0 -3.03073e-05 -4.30876e-05 0 0 -7.3907e-06 0 -2.14134e-07 -7.41712e-06 0 -4.30636e-07 -7.49655e-06 0 -6.51912e-07 -7.62942e-06 0 -8.80446e-07 -7.81651e-06 0 -1.11884e-06 -8.05886e-06 0 -1.36985e-06 -8.35783e-06 0 -1.63646e-06 -8.71505e-06 0 -1.92188e-06 -9.13243e-06 0 -2.22965e-06 -9.61216e-06 0 -2.56367e-06 -1.01567e-05 0 -2.92829e-06 -1.07686e-05 0 -3.32838e-06 -1.14509e-05 0 -3.76937e-06 -1.22065e-05 0 -4.25743e-06 -1.30385e-05 0 -4.79949e-06 -1.39502e-05 0 -5.40341e-06 -1.49446e-05 0 -6.0781e-06 -1.60249e-05 0 -6.83368e-06 -1.71937e-05 0 -7.68165e-06 -1.84533e-05 0 -8.63505e-06 -1.98054e-05 0 -9.70878e-06 -2.12509e-05 0 -1.09197e-05 -2.27891e-05 0 -1.22872e-05 -2.44179e-05 0 -1.38332e-05 -2.61327e-05 0 -1.55826e-05 -2.79257e-05 0 -1.75637e-05 -2.9785e-05 0 -1.98085e-05 -3.16924e-05 0 -2.23522e-05 -3.36219e-05 0 -2.52327e-05 -3.55363e-05 0 -2.84888e-05 -3.73836e-05 0 -3.21561e-05 -3.9094e-05 0 0 -7.15095e-06 0 -2.65776e-07 -7.17612e-06 0 -5.34205e-07 -7.25177e-06 0 -8.07975e-07 -7.37828e-06 0 -1.08985e-06 -7.55633e-06 0 -1.38271e-06 -7.78683e-06 0 -1.68958e-06 -8.07095e-06 0 -2.01369e-06 -8.4101e-06 0 -2.35852e-06 -8.80592e-06 0 -2.72782e-06 -9.26026e-06 0 -3.12572e-06 -9.77517e-06 0 -3.55673e-06 -1.03528e-05 0 -4.02586e-06 -1.09956e-05 0 -4.53866e-06 -1.17059e-05 0 -5.10129e-06 -1.24861e-05 0 -5.72067e-06 -1.33386e-05 0 -6.4045e-06 -1.42656e-05 0 -7.16143e-06 -1.5269e-05 0 -8.00115e-06 -1.63505e-05 0 -8.93454e-06 -1.75109e-05 0 -9.97379e-06 -1.87504e-05 0 -1.11326e-05 -2.0068e-05 0 -1.24263e-05 -2.14612e-05 0 -1.3872e-05 -2.29257e-05 0 -1.54889e-05 -2.44543e-05 0 -1.72981e-05 -2.60369e-05 0 -1.93228e-05 -2.76585e-05 0 -2.15881e-05 -2.92986e-05 0 -2.41203e-05 -3.09291e-05 0 -2.69456e-05 -3.25127e-05 0 -3.0088e-05 -3.39997e-05 0 -3.35652e-05 -3.5328e-05 0 0 -6.86091e-06 0 -3.14773e-07 -6.88469e-06 0 -6.32445e-07 -6.95616e-06 0 -9.55952e-07 -7.07565e-06 0 -1.2883e-06 -7.24374e-06 0 -1.6326e-06 -7.46122e-06 0 -1.9921e-06 -7.72908e-06 0 -2.37026e-06 -8.04852e-06 0 -2.77074e-06 -8.42092e-06 0 -3.19747e-06 -8.84783e-06 0 -3.65473e-06 -9.33092e-06 0 -4.14715e-06 -9.87199e-06 0 -4.67979e-06 -1.04729e-05 0 -5.25822e-06 -1.11354e-05 0 -5.88855e-06 -1.18613e-05 0 -6.57755e-06 -1.26524e-05 0 -7.33266e-06 -1.351e-05 0 -8.16216e-06 -1.44351e-05 0 -9.07517e-06 -1.54282e-05 0 -1.00818e-05 -1.64892e-05 0 -1.11933e-05 -1.7617e-05 0 -1.24219e-05 -1.88092e-05 0 -1.37812e-05 -2.00617e-05 0 -1.5286e-05 -2.13687e-05 0 -1.69526e-05 -2.27214e-05 0 -1.87983e-05 -2.4108e-05 0 -2.08414e-05 -2.55122e-05 0 -2.31008e-05 -2.69127e-05 0 -2.55949e-05 -2.82816e-05 0 -2.83406e-05 -2.95832e-05 0 -3.13505e-05 -3.0773e-05 0 -3.46303e-05 -3.17975e-05 0 0 -6.52333e-06 0 -3.60875e-07 -6.54562e-06 0 -7.24863e-07 -6.61256e-06 0 -1.09511e-06 -6.72446e-06 0 -1.47482e-06 -6.8818e-06 0 -1.86731e-06 -7.08525e-06 0 -2.27602e-06 -7.33565e-06 0 -2.70456e-06 -7.634e-06 0 -3.15675e-06 -7.98144e-06 0 -3.63666e-06 -8.37923e-06 0 -4.14865e-06 -8.82872e-06 0 -4.69742e-06 -9.33132e-06 0 -5.28802e-06 -9.88843e-06 0 -5.92598e-06 -1.05014e-05 0 -6.61728e-06 -1.11715e-05 0 -7.36844e-06 -1.18997e-05 0 -8.1866e-06 -1.26867e-05 0 -9.07954e-06 -1.35329e-05 0 -1.00557e-05 -1.44379e-05 0 -1.11245e-05 -1.54006e-05 0 -1.22958e-05 -1.6419e-05 0 -1.35806e-05 -1.74896e-05 0 -1.49907e-05 -1.86074e-05 0 -1.65385e-05 -1.97654e-05 0 -1.82375e-05 -2.0954e-05 0 -2.01013e-05 -2.21606e-05 0 -2.21438e-05 -2.33686e-05 0 -2.43785e-05 -2.45571e-05 0 -2.68174e-05 -2.56997e-05 0 -2.947e-05 -2.6764e-05 0 -3.23411e-05 -2.77108e-05 0 -3.54284e-05 -2.84954e-05 0 0 -6.14123e-06 0 -4.03871e-07 -6.16191e-06 0 -8.11035e-07 -6.22404e-06 0 -1.22481e-06 -6.32786e-06 0 -1.64859e-06 -6.47379e-06 0 -2.08583e-06 -6.66237e-06 0 -2.54013e-06 -6.8943e-06 0 -3.01524e-06 -7.17041e-06 0 -3.51509e-06 -7.49162e-06 0 -4.04383e-06 -7.85894e-06 0 -4.60587e-06 -8.27342e-06 0 -5.20592e-06 -8.73614e-06 0 -5.84899e-06 -9.24812e-06 0 -6.54049e-06 -9.8103e-06 0 -7.28623e-06 -1.04234e-05 0 -8.09245e-06 -1.1088e-05 0 -8.96588e-06 -1.18043e-05 0 -9.91378e-06 -1.25718e-05 0 -1.09439e-05 -1.33897e-05 0 -1.20647e-05 -1.42562e-05 0 -1.3285e-05 -1.51684e-05 0 -1.46143e-05 -1.61224e-05 0 -1.60625e-05 -1.71124e-05 0 -1.76401e-05 -1.8131e-05 0 -1.93575e-05 -1.9168e-05 0 -2.12254e-05 -2.0211e-05 0 -2.32537e-05 -2.12437e-05 0 -2.54514e-05 -2.22465e-05 0 -2.78255e-05 -2.31952e-05 0 -3.03799e-05 -2.4061e-05 0 -3.31137e-05 -2.48105e-05 0 -3.602e-05 -2.54066e-05 0 0 -5.71778e-06 0 -4.4358e-07 -5.73678e-06 0 -8.90602e-07 -5.79385e-06 0 -1.34454e-06 -5.88919e-06 0 -1.80891e-06 -6.02314e-06 0 -2.28731e-06 -6.19615e-06 0 -2.78347e-06 -6.40879e-06 0 -3.30122e-06 -6.66173e-06 0 -3.84458e-06 -6.9557e-06 0 -4.41775e-06 -7.29148e-06 0 -5.02515e-06 -7.66988e-06 0 -5.67145e-06 -8.09168e-06 0 -6.3616e-06 -8.55759e-06 0 -7.10085e-06 -9.06818e-06 0 -7.89478e-06 -9.62385e-06 0 -8.74933e-06 -1.02247e-05 0 -9.67079e-06 -1.08704e-05 0 -1.06659e-05 -1.15603e-05 0 -1.17416e-05 -1.22928e-05 0 -1.29055e-05 -1.30657e-05 0 -1.41652e-05 -1.38759e-05 0 -1.5529e-05 -1.47188e-05 0 -1.7005e-05 -1.55886e-05 0 -1.86017e-05 -1.64775e-05 0 -2.03271e-05 -1.73757e-05 0 -2.21889e-05 -1.82709e-05 0 -2.41939e-05 -1.91481e-05 0 -2.63475e-05 -1.99892e-05 0 -2.86526e-05 -2.07727e-05 0 -3.11091e-05 -2.14735e-05 0 -3.37126e-05 -2.20635e-05 0 -3.64529e-05 -2.25123e-05 0 0 -5.25636e-06 0 -4.79851e-07 -5.2736e-06 0 -9.63267e-07 -5.32541e-06 0 -1.45384e-06 -5.41193e-06 0 -1.95521e-06 -5.53345e-06 0 -2.47107e-06 -5.69032e-06 0 -3.00524e-06 -5.88301e-06 0 -3.56163e-06 -6.11203e-06 0 -4.1443e-06 -6.37796e-06 0 -4.75748e-06 -6.6814e-06 0 -5.40557e-06 -7.02293e-06 0 -6.09318e-06 -7.40309e-06 0 -6.82516e-06 -7.82233e-06 0 -7.60658e-06 -8.28095e-06 0 -8.44278e-06 -8.77904e-06 0 -9.33935e-06 -9.31637e-06 0 -1.03022e-05 -9.89234e-06 0 -1.13373e-05 -1.05059e-05 0 -1.24512e-05 -1.11552e-05 0 -1.36504e-05 -1.18379e-05 0 -1.49415e-05 -1.25504e-05 0 -1.63315e-05 -1.32882e-05 0 -1.7827e-05 -1.40453e-05 0 -1.94345e-05 -1.48143e-05 0 -2.116e-05 -1.55858e-05 0 -2.30089e-05 -1.63483e-05 0 -2.49853e-05 -1.70881e-05 0 -2.70915e-05 -1.7789e-05 0 -2.93276e-05 -1.84322e-05 0 -3.16905e-05 -1.89964e-05 0 -3.41734e-05 -1.9458e-05 0 -3.67645e-05 -1.97921e-05 0 0 -4.76045e-06 0 -5.12559e-07 -4.77589e-06 0 -1.02878e-06 -4.82226e-06 0 -1.55236e-06 -4.8997e-06 0 -2.08702e-06 -5.00841e-06 0 -2.63655e-06 -5.14869e-06 0 -3.20481e-06 -5.32089e-06 0 -3.79579e-06 -5.52543e-06 0 -4.41355e-06 -5.76272e-06 0 -5.06233e-06 -6.03322e-06 0 -5.7465e-06 -6.33733e-06 0 -6.4706e-06 -6.67539e-06 0 -7.23933e-06 -7.04766e-06 0 -8.05759e-06 -7.45421e-06 0 -8.93046e-06 -7.89491e-06 0 -9.86319e-06 -8.36932e-06 0 -1.08612e-05 -8.87662e-06 0 -1.19301e-05 -9.41553e-06 0 -1.30756e-05 -9.98417e-06 0 -1.43033e-05 -1.05799e-05 0 -1.5619e-05 -1.11993e-05 0 -1.70284e-05 -1.18379e-05 0 -1.85368e-05 -1.24899e-05 0 -2.0149e-05 -1.31483e-05 0 -2.18694e-05 -1.38044e-05 0 -2.37012e-05 -1.4448e-05 0 -2.56464e-05 -1.50666e-05 0 -2.7705e-05 -1.56462e-05 0 -2.9875e-05 -1.61705e-05 0 -3.21512e-05 -1.66216e-05 0 -3.45252e-05 -1.69801e-05 0 -3.69842e-05 -1.72257e-05 0 0 -4.23368e-06 0 -5.41605e-07 -4.24727e-06 0 -1.08695e-06 -4.28807e-06 0 -1.63981e-06 -4.3562e-06 0 -2.20398e-06 -4.45181e-06 0 -2.7833e-06 -4.57514e-06 0 -3.3817e-06 -4.72645e-06 0 -4.00317e-06 -4.90606e-06 0 -4.65181e-06 -5.11428e-06 0 -5.33182e-06 -5.35142e-06 0 -6.04754e-06 -5.61775e-06 0 -6.8034e-06 -5.91347e-06 0 -7.60399e-06 -6.23867e-06 0 -8.45401e-06 -6.59328e-06 0 -9.35829e-06 -6.977e-06 0 -1.03218e-05 -7.38928e-06 0 -1.13494e-05 -7.82919e-06 0 -1.24464e-05 -8.29536e-06 0 -1.36176e-05 -8.78587e-06 0 -1.48682e-05 -9.29817e-06 0 -1.62029e-05 -9.82893e-06 0 -1.76263e-05 -1.03739e-05 0 -1.91426e-05 -1.09278e-05 0 -2.07553e-05 -1.14843e-05 0 -2.24672e-05 -1.20354e-05 0 -2.42799e-05 -1.25722e-05 0 -2.61936e-05 -1.30838e-05 0 -2.82067e-05 -1.35582e-05 0 -3.03155e-05 -1.39817e-05 0 -3.25134e-05 -1.43393e-05 0 -3.4791e-05 -1.46151e-05 0 -3.71353e-05 -1.4793e-05 0 0 -3.67974e-06 0 -5.66907e-07 -3.69144e-06 0 -1.13762e-06 -3.72657e-06 0 -1.71597e-06 -3.78522e-06 0 -2.30579e-06 -3.86751e-06 0 -2.911e-06 -3.97361e-06 0 -3.53553e-06 -4.10372e-06 0 -4.1834e-06 -4.25808e-06 0 -4.85871e-06 -4.43691e-06 0 -5.56564e-06 -4.64042e-06 0 -6.30845e-06 -4.86876e-06 0 -7.0915e-06 -5.12204e-06 0 -7.91924e-06 -5.40023e-06 0 -8.7962e-06 -5.70317e-06 0 -9.72695e-06 -6.03049e-06 0 -1.07161e-05 -6.38155e-06 0 -1.17684e-05 -6.75541e-06 0 -1.28883e-05 -7.15072e-06 0 -1.40803e-05 -7.56566e-06 0 -1.53489e-05 -7.99782e-06 0 -1.66979e-05 -8.44414e-06 0 -1.81312e-05 -8.90079e-06 0 -1.96519e-05 -9.36305e-06 0 -2.12623e-05 -9.82525e-06 0 -2.2964e-05 -1.02806e-05 0 -2.47572e-05 -1.07213e-05 0 -2.6641e-05 -1.11381e-05 0 -2.86123e-05 -1.1521e-05 0 -3.06663e-05 -1.18585e-05 0 -3.27955e-05 -1.21386e-05 0 -3.49897e-05 -1.23484e-05 0 -3.72359e-05 -1.24749e-05 0 0 -3.1024e-06 0 -5.88405e-07 -3.11219e-06 0 -1.18066e-06 -3.14157e-06 0 -1.78065e-06 -3.1906e-06 0 -2.39224e-06 -3.25939e-06 0 -3.01938e-06 -3.34806e-06 0 -3.66603e-06 -3.45675e-06 0 -4.33621e-06 -3.58564e-06 0 -5.03401e-06 -3.73486e-06 0 -5.76358e-06 -3.90456e-06 0 -6.52913e-06 -4.09482e-06 0 -7.33493e-06 -4.30567e-06 0 -8.18529e-06 -4.53702e-06 0 -9.08459e-06 -4.78865e-06 0 -1.00372e-05 -5.06017e-06 0 -1.10474e-05 -5.35095e-06 0 -1.21196e-05 -5.6601e-06 0 -1.3258e-05 -5.98637e-06 0 -1.44665e-05 -6.3281e-06 0 -1.57489e-05 -6.68317e-06 0 -1.71087e-05 -7.04887e-06 0 -1.85487e-05 -7.42189e-06 0 -2.00712e-05 -7.79816e-06 0 -2.16778e-05 -8.17287e-06 0 -2.33689e-05 -8.54031e-06 0 -2.51438e-05 -8.89392e-06 0 -2.70005e-05 -9.22622e-06 0 -2.89349e-05 -9.52888e-06 0 -3.09414e-05 -9.79277e-06 0 -3.30119e-05 -1.00082e-05 0 -3.51359e-05 -1.0165e-05 0 -3.73003e-05 -1.02531e-05 0 0 -2.50549e-06 0 -6.06049e-07 -2.51334e-06 0 -1.21599e-06 -2.53691e-06 0 -1.83372e-06 -2.57624e-06 0 -2.46316e-06 -2.6314e-06 0 -3.10826e-06 -2.70249e-06 0 -3.773e-06 -2.7896e-06 0 -4.46141e-06 -2.89284e-06 0 -5.17756e-06 -3.01233e-06 0 -5.92556e-06 -3.14813e-06 0 -6.70957e-06 -3.30028e-06 0 -7.53379e-06 -3.46877e-06 0 -8.40242e-06 -3.65349e-06 0 -9.31968e-06 -3.8542e-06 0 -1.02898e-05 -4.07054e-06 0 -1.13168e-05 -4.30194e-06 0 -1.24047e-05 -4.54761e-06 0 -1.35575e-05 -4.80647e-06 0 -1.47787e-05 -5.07712e-06 0 -1.60716e-05 -5.35777e-06 0 -1.74391e-05 -5.64617e-06 0 -1.88835e-05 -5.93959e-06 0 -2.04064e-05 -6.2347e-06 0 -2.20085e-05 -6.5276e-06 0 -2.36897e-05 -6.8137e-06 0 -2.54484e-05 -7.08775e-06 0 -2.72818e-05 -7.34385e-06 0 -2.91852e-05 -7.57545e-06 0 -3.11522e-05 -7.77545e-06 0 -3.31744e-05 -7.93636e-06 0 -3.52412e-05 -8.05042e-06 0 -3.73395e-05 -8.11001e-06 0 0 -1.89289e-06 0 -6.19805e-07 -1.89879e-06 0 -1.24353e-06 -1.9165e-06 0 -1.87508e-06 -1.94606e-06 0 -2.51842e-06 -1.9875e-06 0 -3.1775e-06 -2.04089e-06 0 -3.85631e-06 -2.1063e-06 0 -4.55887e-06 -2.18381e-06 0 -5.28925e-06 -2.27347e-06 0 -6.05153e-06 -2.37533e-06 0 -6.84981e-06 -2.4894e-06 0 -7.68824e-06 -2.61563e-06 0 -8.57092e-06 -2.75393e-06 0 -9.50195e-06 -2.90409e-06 0 -1.04854e-05 -3.06581e-06 0 -1.15251e-05 -3.23861e-06 0 -1.2625e-05 -3.42186e-06 0 -1.37886e-05 -3.61471e-06 0 -1.50191e-05 -3.81607e-06 0 -1.63197e-05 -4.02453e-06 0 -1.76925e-05 -4.23837e-06 0 -1.91396e-05 -4.45549e-06 0 -2.06621e-05 -4.67336e-06 0 -2.226e-05 -4.88901e-06 0 -2.39327e-05 -5.09901e-06 0 -2.56781e-05 -5.29944e-06 0 -2.74927e-05 -5.48589e-06 0 -2.93714e-05 -5.65354e-06 0 -3.13074e-05 -5.79719e-06 0 -3.3292e-05 -5.91137e-06 0 -3.53145e-05 -5.99048e-06 0 -3.7362e-05 -6.02903e-06 0 0 -1.26849e-06 0 -6.29647e-07 -1.27243e-06 0 -1.26323e-06 -1.28425e-06 0 -1.90468e-06 -1.30398e-06 0 -2.55795e-06 -1.33164e-06 0 -3.22702e-06 -1.36727e-06 0 -3.91587e-06 -1.41092e-06 0 -4.62854e-06 -1.46262e-06 0 -5.36905e-06 -1.52241e-06 0 -6.14149e-06 -1.59031e-06 0 -6.94992e-06 -1.66633e-06 0 -7.79842e-06 -1.75042e-06 0 -8.69105e-06 -1.8425e-06 0 -9.63181e-06 -1.94242e-06 0 -1.06246e-05 -2.04995e-06 0 -1.16733e-05 -2.16479e-06 0 -1.27815e-05 -2.28647e-06 0 -1.39526e-05 -2.41441e-06 0 -1.51896e-05 -2.54785e-06 0 -1.64952e-05 -2.68585e-06 0 -1.78716e-05 -2.82723e-06 0 -1.93203e-05 -2.97056e-06 0 -2.0842e-05 -3.11414e-06 0 -2.24366e-05 -3.256e-06 0 -2.41029e-05 -3.39383e-06 0 -2.58383e-05 -3.52502e-06 0 -2.76392e-05 -3.64667e-06 0 -2.95e-05 -3.75559e-06 0 -3.14137e-05 -3.84838e-06 0 -3.33714e-05 -3.92146e-06 0 -3.53624e-05 -3.9712e-06 0 -3.7374e-05 -3.99405e-06 0 0 -6.36216e-07 0 -6.35559e-07 -6.38187e-07 0 -1.27506e-06 -6.44104e-07 0 -1.92245e-06 -6.53974e-07 0 -2.58168e-06 -6.67813e-07 0 -3.25675e-06 -6.85639e-07 0 -3.95163e-06 -7.07471e-07 0 -4.67035e-06 -7.3333e-07 0 -5.41694e-06 -7.6323e-07 0 -6.19546e-06 -7.97181e-07 0 -7.00996e-06 -8.35178e-07 0 -7.86448e-06 -8.77201e-07 0 -8.76303e-06 -9.23202e-07 0 -9.70958e-06 -9.73104e-07 0 -1.0708e-05 -1.02679e-06 0 -1.1762e-05 -1.08409e-06 0 -1.28751e-05 -1.14478e-06 0 -1.40505e-05 -1.20856e-06 0 -1.52913e-05 -1.27505e-06 0 -1.65999e-05 -1.34375e-06 0 -1.79783e-05 -1.41408e-06 0 -1.94278e-05 -1.48532e-06 0 -2.09489e-05 -1.55661e-06 0 -2.25413e-05 -1.62697e-06 0 -2.42036e-05 -1.69523e-06 0 -2.5933e-05 -1.7601e-06 0 -2.77254e-05 -1.82013e-06 0 -2.95754e-05 -1.87375e-06 0 -3.14757e-05 -1.91926e-06 0 -3.34172e-05 -1.9549e-06 0 -3.53894e-05 -1.97888e-06 0 -3.73795e-05 -1.98946e-06 0 0 -0 0 -6.37531e-07 -0 0 -1.27901e-06 -0 0 -1.92837e-06 -0 0 -2.5896e-06 -0 0 -3.26666e-06 -0 0 -3.96355e-06 -0 0 -4.68429e-06 -0 0 -5.4329e-06 -0 0 -6.21345e-06 -0 0 -7.02996e-06 -0 0 -7.88648e-06 -0 0 -8.78701e-06 -0 0 -9.73549e-06 -0 0 -1.07357e-05 -0 0 -1.17915e-05 -0 0 -1.29062e-05 -0 0 -1.40831e-05 -0 0 -1.53251e-05 -0 0 -1.66347e-05 -0 0 -1.80137e-05 -0 0 -1.94634e-05 -0 0 -2.09844e-05 -0 0 -2.2576e-05 -0 0 -2.42369e-05 -0 0 -2.59642e-05 -0 0 -2.77539e-05 -0 0 -2.96003e-05 -0 0 -3.1496e-05 -0 0 -3.34322e-05 -0 0 -3.53981e-05 -0 0 -3.7381e-05 -0 0 </DataArray> 
</PointData> 
<Points> 
<DataArray type="Float32" NumberOfComponents="3"> 