<?xml version="1.0"?> 
<VTKFile type="StructuredGrid" version="0.1"> 
<StructuredGrid WholeExtent="0 31 0 31 0 0"> 
<Piece Extent="0 31 0 31 0 0"> 
<PointData>
<DataArray type="Float32" Name="B" format="ascii" NumberOfComponents="3"> 
6.67928e-05 8.43518e-05 0 0.000110527 6.23553e-05 0 0.000124305 5.99018e-05 0 0.000136033 5.81815e-05 0 0.000150847 5.67782e-05 0 0.000164918 5.48167e-05 0 0.000179623 5.20893e-05 0 0.000193339 4.84983e-05 0 0.000206091 4.41104e-05 0 0.000217257 3.90832e-05 0 0.000226808 3.35815e-05 0 0.000234629 2.7761e-05 0 0.000240787 2.17356e-05 0 0.000245324 1.55892e-05 0 0.00024831 9.3751e-06 0 0.00024979 3.12833e-06 0 0.00024979 -3.12833e-06 0 0.00024831 -9.3751e-06 0 0.000245324 -1.55892e-05 0 0.000240787 -2.17356e-05 0 0.000234629 -2.7761e-05 0 0.000226808 -3.35815e-05 0 0.000217257 -3.90832e-05 0 0.000206091 -4.41104e-05 0 0.000193339 -4.84983e-05 0 0.000179623 -5.20893e-05 0 0.000164918 -5.48167e-05 0 0.000150847 -5.67782e-05 0 0.000136033 -5.81815e-05 0 0.000124305 -5.99018e-05 0 0.000110527 -6.23553e-05 0 6.67928e-05 -8.43518e-05 0 8.07226e-05 5.97171e-05 0 0.000105554 5.7798e-05 0 0.000120868 5.52827e-05 0 0.000134789 5.36741e-05 0 0.000148429 5.20841e-05 0 0.00016224 5.01082e-05 0 0.000175743 4.75079e-05 0 0.000188638 4.42086e-05 0 0.000200486 4.02444e-05 0 0.00021103 3.57172e-05 0 0.000220088 3.0754e-05 0 0.000227596 2.54757e-05 0 0.000233544 1.99833e-05 0 0.000237959 1.43531e-05 0 0.000240876 8.64042e-06 0 0.000242327 2.88458e-06 0 0.000242327 -2.88458e-06 0 0.000240876 -8.64042e-06 0 0.000237959 -1.43531e-05 0 0.000233544 -1.99833e-05 0 0.000227596 -2.54757e-05 0 0.000220088 -3.0754e-05 0 0.00021103 -3.57172e-05 0 0.000200486 -4.02444e-05 0 0.000188638 -4.42086e-05 0 0.000175743 -4.75079e-05 0 0.00016224 -5.01082e-05 0 0.000148429 -5.20841e-05 0 0.000134789 -5.36741e-05 0 0.000120868 -5.52827e-05 0 0.000105554 -5.7798e-05 0 8.07226e-05 -5.97171e-05 0 8.40824e-05 5.12859e-05 0 0.000103196 5.17492e-05 0 0.000118934 5.04976e-05 0 0.000132898 4.91182e-05 0 0.000146323 4.75767e-05 0 0.000159471 4.5661e-05 0 0.000172228 4.32212e-05 0 0.000184316 4.01983e-05 0 0.000195455 3.66115e-05 0 0.000205408 3.2532e-05 0 0.000214019 2.80552e-05 0 0.000221205 2.32782e-05 0 0.000226936 1.82868e-05 0 0.000231213 1.31504e-05 0 0.000234049 7.92309e-06 0 0.000235463 2.64624e-06 0 0.000235463 -2.64624e-06 0 0.000234049 -7.92309e-06 0 0.000231213 -1.31504e-05 0 0.000226936 -1.82868e-05 0 0.000221205 -2.32782e-05 0 0.000214019 -2.80552e-05 0 0.000205408 -3.2532e-05 0 0.000195455 -3.66115e-05 0 0.000184316 -4.01983e-05 0 0.000172228 -4.32212e-05 0 0.000159471 -4.5661e-05 0 0.000146323 -4.75767e-05 0 0.000132898 -4.91182e-05 0 0.000118934 -5.04976e-05 0 0.000103196 -5.17492e-05 0 8.40824e-05 -5.12859e-05 0 8.66634e-05 4.54775e-05 0 0.000102693 4.6229e-05 0 0.00011756 4.57009e-05 0 0.000131245 4.46291e-05 0 0.00014428 4.32273e-05 0 0.000156878 4.14357e-05 0 0.000168978 3.91796e-05 0 0.000180397 3.6424e-05 0 0.000190916 3.31836e-05 0 0.000200345 2.95112e-05 0 0.000208542 2.54801e-05 0 0.000215419 2.11686e-05 0 0.000220931 1.66494e-05 0 0.000225062 1.19848e-05 0 0.000227811 7.22585e-06 0 0.000229184 2.41424e-06 0 0.000229184 -2.41424e-06 0 0.000227811 -7.22585e-06 0 0.000225062 -1.19848e-05 0 0.000220931 -1.66494e-05 0 0.000215419 -2.11686e-05 0 0.000208542 -2.54801e-05 0 0.000200345 -2.95112e-05 0 0.000190916 -3.31836e-05 0 0.000180397 -3.6424e-05 0 0.000168978 -3.91796e-05 0 0.000156878 -4.14357e-05 0 0.00014428 -4.32273e-05 0 0.000131245 -4.46291e-05 0 0.00011756 -4.57009e-05 0 0.000102693 -4.6229e-05 0 8.66634e-05 -4.54775e-05 0 8.8618e-05 4.04617e-05 0 0.000102827 4.12812e-05 0 0.000116687 4.10809e-05 0 0.000129837 4.0271e-05 0 0.000142409 3.90382e-05 0 0.000154482 3.7405e-05 0 0.00016601 3.53473e-05 0 0.00017685 3.28523e-05 0 0.000186832 2.99356e-05 0 0.000195796 2.66391e-05 0 0.000203614 2.30207e-05 0 0.0002102 1.91444e-05 0 0.000215499 1.50717e-05 0 0.000219484 1.08578e-05 0 0.000222143 6.5501e-06 0 0.000223472 2.18911e-06 0 0.000223472 -2.18911e-06 0 0.000222143 -6.5501e-06 0 0.000219484 -1.08578e-05 0 0.000215499 -1.50717e-05 0 0.0002102 -1.91444e-05 0 0.000203614 -2.30207e-05 0 0.000195796 -2.66391e-05 0 0.000186832 -2.99356e-05 0 0.00017685 -3.28523e-05 0 0.00016601 -3.53473e-05 0 0.000154482 -3.7405e-05 0 0.000142409 -3.90382e-05 0 0.000129837 -4.0271e-05 0 0.000116687 -4.10809e-05 0 0.000102827 -4.12812e-05 0 8.8618e-05 -4.04617e-05 0 9.01943e-05 3.60406e-05 0 0.000103174 3.67476e-05 0 0.000116123 3.67032e-05 0 0.000128666 3.60791e-05 0 0.000140734 3.50134e-05 0 0.00015231 3.3551e-05 0 0.000163325 3.16975e-05 0 0.000173659 2.94564e-05 0 0.000183171 2.68456e-05 0 0.000191722 2.39004e-05 0 0.000199198 2.0668e-05 0 0.000205514 1.72011e-05 0 0.000210611 1.3552e-05 0 0.000214455 9.7693e-06 0 0.000217024 5.89617e-06 0 0.000218311 1.97104e-06 0 0.000218311 -1.97104e-06 0 0.000217024 -5.89617e-06 0 0.000214455 -9.7693e-06 0 0.000210611 -1.3552e-05 0 0.000205514 -1.72011e-05 0 0.000199198 -2.0668e-05 0 0.000191722 -2.39004e-05 0 0.000183171 -2.68456e-05 0 0.000173659 -2.94564e-05 0 0.000163325 -3.16975e-05 0 0.00015231 -3.3551e-05 0 0.000140734 -3.50134e-05 0 0.000128666 -3.60791e-05 0 0.000116123 -3.67032e-05 0 0.000103174 -3.67476e-05 0 9.01943e-05 -3.60406e-05 0 9.14608e-05 3.1927e-05 0 0.000103558 3.25434e-05 0 0.000115742 3.25588e-05 0 0.000127692 3.20661e-05 0 0.00013926 3.11508e-05 0 0.000150366 2.98589e-05 0 0.00016092 2.82091e-05 0 0.000170809 2.62143e-05 0 0.000179908 2.38947e-05 0 0.000188094 2.12809e-05 0 0.000195264 1.84124e-05 0 0.000201333 1.5333e-05 0 0.000206243 1.20874e-05 0 0.000209953 8.71795e-06 0 0.000212438 5.2636e-06 0 0.000213683 1.75992e-06 0 0.000213683 -1.75992e-06 0 0.000212438 -5.2636e-06 0 0.000209953 -8.71795e-06 0 0.000206243 -1.20874e-05 0 0.000201333 -1.5333e-05 0 0.000195264 -1.84124e-05 0 0.000188094 -2.12809e-05 0 0.000179908 -2.38947e-05 0 0.000170809 -2.62143e-05 0 0.00016092 -2.82091e-05 0 0.000150366 -2.98589e-05 0 0.00013926 -3.11508e-05 0 0.000127692 -3.20661e-05 0 0.000115742 -3.25588e-05 0 0.000103558 -3.25434e-05 0 9.14608e-05 -3.1927e-05 0 9.24902e-05 2.80797e-05 0 0.000103916 2.85883e-05 0 0.000115468 2.8625e-05 0 0.000126878 2.82254e-05 0 0.000137977 2.74428e-05 0 0.00014865 2.63148e-05 0 0.00015879 2.48638e-05 0 0.000168287 2.31073e-05 0 0.000177024 2.10659e-05 0 0.000184889 1.87671e-05 0 0.000191786 1.6244e-05 0 0.000197634 1.35336e-05 0 0.000202373 1.06739e-05 0 0.000205959 7.70157e-06 0 0.000208364 4.65133e-06 0 0.000209571 1.55545e-06 0 0.000209571 -1.55545e-06 0 0.000208364 -4.65133e-06 0 0.000205959 -7.70157e-06 0 0.000202373 -1.06739e-05 0 0.000197634 -1.35336e-05 0 0.000191786 -1.6244e-05 0 0.000184889 -1.87671e-05 0 0.000177024 -2.10659e-05 0 0.000168287 -2.31073e-05 0 0.00015879 -2.48638e-05 0 0.00014865 -2.63148e-05 0 0.000137977 -2.74428e-05 0 0.000126878 -2.82254e-05 0 0.000115468 -2.8625e-05 0 0.000103916 -2.85883e-05 0 9.24902e-05 -2.80797e-05 0 9.33269e-05 2.44133e-05 0 0.000104227 2.48341e-05 0 0.000115258 2.48717e-05 0 0.000126196 2.45424e-05 0 0.000136871 2.38771e-05 0 0.000147153 2.29042e-05 0 0.000156927 2.16452e-05 0 0.00016608 2.01185e-05 0 0.0001745 1.83441e-05 0 0.000182086 1.63462e-05 0 0.000188743 1.41531e-05 0 0.000194394 1.17959e-05 0 0.00019898 9.3068e-06 0 0.000202455 6.71733e-06 0 0.000204787 4.05786e-06 0 0.000205958 1.35715e-06 0 0.000205958 -1.35715e-06 0 0.000204787 -4.05786e-06 0 0.000202455 -6.71733e-06 0 0.00019898 -9.3068e-06 0 0.000194394 -1.17959e-05 0 0.000188743 -1.41531e-05 0 0.000182086 -1.63462e-05 0 0.0001745 -1.83441e-05 0 0.00016608 -2.01185e-05 0 0.000156927 -2.16452e-05 0 0.000147153 -2.29042e-05 0 0.000136871 -2.38771e-05 0 0.000126196 -2.45424e-05 0 0.000115258 -2.48717e-05 0 0.000104227 -2.48341e-05 0 9.33269e-05 -2.44133e-05 0 9.40033e-05 2.09002e-05 0 0.000104485 2.12395e-05 0 0.000115089 2.12713e-05 0 0.000125624 2.09982e-05 0 0.000135929 2.04383e-05 0 0.000145868 1.96119e-05 0 0.000155321 1.85375e-05 0 0.000164175 1.72325e-05 0 0.000172324 1.5715e-05 0 0.000179667 1.40063e-05 0 0.000186117 1.21303e-05 0 0.000191597 1.01129e-05 0 0.000196048 7.98119e-06 0 0.000199424 5.762e-06 0 0.000201692 3.4814e-06 0 0.00020283 1.16447e-06 0 0.00020283 -1.16447e-06 0 0.000201692 -3.4814e-06 0 0.000199424 -5.762e-06 0 0.000196048 -7.98119e-06 0 0.000191597 -1.01129e-05 0 0.000186117 -1.21303e-05 0 0.000179667 -1.40063e-05 0 0.000172324 -1.5715e-05 0 0.000164175 -1.72325e-05 0 0.000155321 -1.85375e-05 0 0.000145868 -1.96119e-05 0 0.000135929 -2.04383e-05 0 0.000125624 -2.09982e-05 0 0.000115089 -2.12713e-05 0 0.000104485 -2.12395e-05 0 9.40033e-05 -2.09002e-05 0 9.45454e-05 1.75035e-05 0 0.000104693 1.77739e-05 0 0.00011495 1.77976e-05 0 0.000125149 1.75729e-05 0 0.000135138 1.71096e-05 0 0.000144783 1.64221e-05 0 0.000153962 1.55254e-05 0 0.000162563 1.44344e-05 0 0.000170481 1.31653e-05 0 0.000177619 1.17358e-05 0 0.000183892 1.0166e-05 0 0.000189226 8.47717e-06 0 0.000193562 6.69175e-06 0 0.000196852 4.83203e-06 0 0.000199064 2.91993e-06 0 0.000200175 9.76745e-07 0 0.000200175 -9.76745e-07 0 0.000199064 -2.91993e-06 0 0.000196852 -4.83203e-06 0 0.000193562 -6.69175e-06 0 0.000189226 -8.47717e-06 0 0.000183892 -1.0166e-05 0 0.000177619 -1.17358e-05 0 0.000170481 -1.31653e-05 0 0.000162563 -1.44344e-05 0 0.000153962 -1.55254e-05 0 0.000144783 -1.64221e-05 0 0.000135138 -1.71096e-05 0 0.000125149 -1.75729e-05 0 0.00011495 -1.77976e-05 0 0.000104693 -1.77739e-05 0 9.45454e-05 -1.75035e-05 0 9.49717e-05 1.42019e-05 0 0.000104856 1.44111e-05 0 0.000114836 1.44273e-05 0 0.000124762 1.42464e-05 0 0.000134491 1.38737e-05 0 0.000143892 1.3319e-05 0 0.000152843 1.25937e-05 0 0.000161235 1.17103e-05 0 0.000168962 1.0682e-05 0 0.00017593 9.5235e-06 0 0.000182057 8.2509e-06 0 0.00018727 6.88144e-06 0 0.000191509 5.43303e-06 0 0.000194727 3.92372e-06 0 0.000196892 2.37131e-06 0 0.00019798 7.93273e-07 0 0.00019798 -7.93273e-07 0 0.000196892 -2.37131e-06 0 0.000194727 -3.92372e-06 0 0.000191509 -5.43303e-06 0 0.00018727 -6.88144e-06 0 0.000182057 -8.2509e-06 0 0.00017593 -9.5235e-06 0 0.000168962 -1.0682e-05 0 0.000161235 -1.17103e-05 0 0.000152843 -1.25937e-05 0 0.000143892 -1.3319e-05 0 0.000134491 -1.38737e-05 0 0.000124762 -1.42464e-05 0 0.000114836 -1.44273e-05 0 0.000104856 -1.44111e-05 0 9.49717e-05 -1.42019e-05 0 9.52971e-05 1.09732e-05 0 0.000104979 1.11288e-05 0 0.000114744 1.1139e-05 0 0.000124457 1.09997e-05 0 0.00013398 1.07133e-05 0 0.000143187 1.02864e-05 0 0.000151957 9.72755e-06 0 0.000160181 9.04617e-06 0 0.000167757 8.25268e-06 0 0.000174591 7.35847e-06 0 0.000180601 6.37596e-06 0 0.000185716 5.3184e-06 0 0.000189878 4.19952e-06 0 0.00019304 3.03322e-06 0 0.000195166 1.83329e-06 0 0.000196235 6.13314e-07 0 0.000196235 -6.13314e-07 0 0.000195166 -1.83329e-06 0 0.00019304 -3.03322e-06 0 0.000189878 -4.19952e-06 0 0.000185716 -5.3184e-06 0 0.000180601 -6.37596e-06 0 0.000174591 -7.35847e-06 0 0.000167757 -8.25268e-06 0 0.000160181 -9.04617e-06 0 0.000151957 -9.72755e-06 0 0.000143187 -1.02864e-05 0 0.00013398 -1.07133e-05 0 0.000124457 -1.09997e-05 0 0.000114744 -1.1139e-05 0 0.000104979 -1.11288e-05 0 9.52971e-05 -1.09732e-05 0 9.55322e-05 7.79985e-06 0 0.000105066 7.90712e-06 0 0.000114676 7.91295e-06 0 0.00012423 7.8139e-06 0 0.000133601 7.61107e-06 0 0.000142662 7.30856e-06 0 0.000151298 6.91214e-06 0 0.000159397 6.42851e-06 0 0.000166859 5.8651e-06 0 0.000173592 5.23003e-06 0 0.000179516 4.53212e-06 0 0.000184559 3.78075e-06 0 0.000188663 2.98563e-06 0 0.000191781 2.15662e-06 0 0.000193879 1.30355e-06 0 0.000194934 4.36107e-07 0 0.000194934 -4.36107e-07 0 0.000193879 -1.30355e-06 0 0.000191781 -2.15662e-06 0 0.000188663 -2.98563e-06 0 0.000184559 -3.78075e-06 0 0.000179516 -4.53212e-06 0 0.000173592 -5.23003e-06 0 0.000166859 -5.8651e-06 0 0.000159397 -6.42851e-06 0 0.000151298 -6.91214e-06 0 0.000142662 -7.30856e-06 0 0.000133601 -7.61107e-06 0 0.00012423 -7.8139e-06 0 0.000114676 -7.91295e-06 0 0.000105066 -7.90712e-06 0 9.55322e-05 -7.79985e-06 0 9.56849e-05 4.66478e-06 0 0.000105123 4.72765e-06 0 0.000114629 4.73053e-06 0 0.00012408 4.67125e-06 0 0.000133349 4.55019e-06 0 0.000142315 4.36962e-06 0 0.00015086 4.13287e-06 0 0.000158876 3.84392e-06 0 0.000166263 3.50721e-06 0 0.00017293 3.12763e-06 0 0.000178796 2.71043e-06 0 0.00018379 2.26121e-06 0 0.000187856 1.78577e-06 0 0.000190945 1.28999e-06 0 0.000193024 7.79747e-07 0 0.000194069 2.60873e-07 0 0.000194069 -2.60873e-07 0 0.000193024 -7.79747e-07 0 0.000190945 -1.28999e-06 0 0.000187856 -1.78577e-06 0 0.00018379 -2.26121e-06 0 0.000178796 -2.71043e-06 0 0.00017293 -3.12763e-06 0 0.000166263 -3.50721e-06 0 0.000158876 -3.84392e-06 0 0.00015086 -4.13287e-06 0 0.000142315 -4.36962e-06 0 0.000133349 -4.55019e-06 0 0.00012408 -4.67125e-06 0 0.000114629 -4.73053e-06 0 0.000105123 -4.72765e-06 0 9.56849e-05 -4.66478e-06 0 9.576e-05 1.55243e-06 0 0.00010515 1.57313e-06 0 0.000114606 1.57399e-06 0 0.000124005 1.55424e-06 0 0.000133224 1.51399e-06 0 0.000142142 1.45396e-06 0 0.000150642 1.37522e-06 0 0.000158617 1.27911e-06 0 0.000165966 1.1671e-06 0 0.0001726 1.04081e-06 0 0.000178437 9.02004e-07 0 0.000183407 7.52531e-07 0 0.000187453 5.9432e-07 0 0.000190528 4.2933e-07 0 0.000192598 2.59519e-07 0 0.000193638 8.68255e-08 0 0.000193638 -8.68255e-08 0 0.000192598 -2.59519e-07 0 0.000190528 -4.2933e-07 0 0.000187453 -5.9432e-07 0 0.000183407 -7.52531e-07 0 0.000178437 -9.02004e-07 0 0.0001726 -1.04081e-06 0 0.000165966 -1.1671e-06 0 0.000158617 -1.27911e-06 0 0.000150642 -1.37522e-06 0 0.000142142 -1.45396e-06 0 0.000133224 -1.51399e-06 0 0.000124005 -1.55424e-06 0 0.000114606 -1.57399e-06 0 0.00010515 -1.57313e-06 0 9.576e-05 -1.55243e-06 0 9.576e-05 -1.55243e-06 0 0.00010515 -1.57313e-06 0 0.000114606 -1.57399e-06 0 0.000124005 -1.55424e-06 0 0.000133224 -1.51399e-06 0 0.000142142 -1.45396e-06 0 0.000150642 -1.37522e-06 0 0.000158617 -1.27911e-06 0 0.000165966 -1.1671e-06 0 0.0001726 -1.04081e-06 0 0.000178437 -9.02004e-07 0 0.000183407 -7.52531e-07 0 0.000187453 -5.9432e-07 0 0.000190528 -4.2933e-07 0 0.000192598 -2.59519e-07 0 0.000193638 -8.68255e-08 0 0.000193638 8.68255e-08 0 0.000192598 2.59519e-07 0 0.000190528 4.2933e-07 0 0.000187453 5.9432e-07 0 0.000183407 7.52531e-07 0 0.000178437 9.02004e-07 0 0.0001726 1.04081e-06 0 0.000165966 1.1671e-06 0 0.000158617 1.27911e-06 0 0.000150642 1.37522e-06 0 0.000142142 1.45396e-06 0 0.000133224 1.51399e-06 0 0.000124005 1.55424e-06 0 0.000114606 1.57399e-06 0 0.00010515 1.57313e-06 0 9.576e-05 1.55243e-06 0 9.56849e-05 -4.66478e-06 0 0.000105123 -4.72765e-06 0 0.000114629 -4.73053e-06 0 0.00012408 -4.67125e-06 0 0.000133349 -4.55019e-06 0 0.000142315 -4.36962e-06 0 0.00015086 -4.13287e-06 0 0.000158876 -3.84392e-06 0 0.000166263 -3.50721e-06 0 0.00017293 -3.12763e-06 0 0.000178796 -2.71043e-06 0 0.00018379 -2.26121e-06 0 0.000187856 -1.78577e-06 0 0.000190945 -1.28999e-06 0 0.000193024 -7.79747e-07 0 0.000194069 -2.60873e-07 0 0.000194069 2.60873e-07 0 0.000193024 7.79747e-07 0 0.000190945 1.28999e-06 0 0.000187856 1.78577e-06 0 0.00018379 2.26121e-06 0 0.000178796 2.71043e-06 0 0.00017293 3.12763e-06 0 0.000166263 3.50721e-06 0 0.000158876 3.84392e-06 0 0.00015086 4.13287e-06 0 0.000142315 4.36962e-06 0 0.000133349 4.55019e-06 0 0.00012408 4.67125e-06 0 0.000114629 4.73053e-06 0 0.000105123 4.72765e-06 0 9.56849e-05 4.66478e-06 0 9.55322e-05 -7.79985e-06 0 0.000105066 -7.90712e-06 0 0.000114676 -7.91295e-06 0 0.00012423 -7.8139e-06 0 0.000133601 -7.61107e-06 0 0.000142662 -7.30856e-06 0 0.000151298 -6.91214e-06 0 0.000159397 -6.42851e-06 0 0.000166859 -5.8651e-06 0 0.000173592 -5.23003e-06 0 0.000179516 -4.53212e-06 0 0.000184559 -3.78075e-06 0 0.000188663 -2.98563e-06 0 0.000191781 -2.15662e-06 0 0.000193879 -1.30355e-06 0 0.000194934 -4.36107e-07 0 0.000194934 4.36107e-07 0 0.000193879 1.30355e-06 0 0.000191781 2.15662e-06 0 0.000188663 2.98563e-06 0 0.000184559 3.78075e-06 0 0.000179516 4.53212e-06 0 0.000173592 5.23003e-06 0 0.000166859 5.8651e-06 0 0.000159397 6.42851e-06 0 0.000151298 6.91214e-06 0 0.000142662 7.30856e-06 0 0.000133601 7.61107e-06 0 0.00012423 7.8139e-06 0 0.000114676 7.91295e-06 0 0.000105066 7.90712e-06 0 9.55322e-05 7.79985e-06 0 9.52971e-05 -1.09732e-05 0 0.000104979 -1.11288e-05 0 0.000114744 -1.1139e-05 0 0.000124457 -1.09997e-05 0 0.00013398 -1.07133e-05 0 0.000143187 -1.02864e-05 0 0.000151957 -9.72755e-06 0 0.000160181 -9.04617e-06 0 0.000167757 -8.25268e-06 0 0.000174591 -7.35847e-06 0 0.000180601 -6.37596e-06 0 0.000185716 -5.3184e-06 0 0.000189878 -4.19952e-06 0 0.00019304 -3.03322e-06 0 0.000195166 -1.83329e-06 0 0.000196235 -6.13314e-07 0 0.000196235 6.13314e-07 0 0.000195166 1.83329e-06 0 0.00019304 3.03322e-06 0 0.000189878 4.19952e-06 0 0.000185716 5.3184e-06 0 0.000180601 6.37596e-06 0 0.000174591 7.35847e-06 0 0.000167757 8.25268e-06 0 0.000160181 9.04617e-06 0 0.000151957 9.72755e-06 0 0.000143187 1.02864e-05 0 0.00013398 1.07133e-05 0 0.000124457 1.09997e-05 0 0.000114744 1.1139e-05 0 0.000104979 1.11288e-05 0 9.52971e-05 1.09732e-05 0 9.49717e-05 -1.42019e-05 0 0.000104856 -1.44111e-05 0 0.000114836 -1.44273e-05 0 0.000124762 -1.42464e-05 0 0.000134491 -1.38737e-05 0 0.000143892 -1.3319e-05 0 0.000152843 -1.25937e-05 0 0.000161235 -1.17103e-05 0 0.000168962 -1.0682e-05 0 0.00017593 -9.5235e-06 0 0.000182057 -8.2509e-06 0 0.00018727 -6.88144e-06 0 0.000191509 -5.43303e-06 0 0.000194727 -3.92372e-06 0 0.000196892 -2.37131e-06 0 0.00019798 -7.93273e-07 0 0.00019798 7.93273e-07 0 0.000196892 2.37131e-06 0 0.000194727 3.92372e-06 0 0.000191509 5.43303e-06 0 0.00018727 6.88144e-06 0 0.000182057 8.2509e-06 0 0.00017593 9.5235e-06 0 0.000168962 1.0682e-05 0 0.000161235 1.17103e-05 0 0.000152843 1.25937e-05 0 0.000143892 1.3319e-05 0 0.000134491 1.38737e-05 0 0.000124762 1.42464e-05 0 0.000114836 1.44273e-05 0 0.000104856 1.44111e-05 0 9.49717e-05 1.42019e-05 0 9.45454e-05 -1.75035e-05 0 0.000104693 -1.77739e-05 0 0.00011495 -1.77976e-05 0 0.000125149 -1.75729e-05 0 0.000135138 -1.71096e-05 0 0.000144783 -1.64221e-05 0 0.000153962 -1.55254e-05 0 0.000162563 -1.44344e-05 0 0.000170481 -1.31653e-05 0 0.000177619 -1.17358e-05 0 0.000183892 -1.0166e-05 0 0.000189226 -8.47717e-06 0 0.000193562 -6.69175e-06 0 0.000196852 -4.83203e-06 0 0.000199064 -2.91993e-06 0 0.000200175 -9.76745e-07 0 0.000200175 9.76745e-07 0 0.000199064 2.91993e-06 0 0.000196852 4.83203e-06 0 0.000193562 6.69175e-06 0 0.000189226 8.47717e-06 0 0.000183892 1.0166e-05 0 0.000177619 1.17358e-05 0 0.000170481 1.31653e-05 0 0.000162563 1.44344e-05 0 0.000153962 1.55254e-05 0 0.000144783 1.64221e-05 0 0.000135138 1.71096e-05 0 0.000125149 1.75729e-05 0 0.00011495 1.77976e-05 0 0.000104693 1.77739e-05 0 9.45454e-05 1.75035e-05 0 9.40033e-05 -2.09002e-05 0 0.000104485 -2.12395e-05 0 0.000115089 -2.12713e-05 0 0.000125624 -2.09982e-05 0 0.000135929 -2.04383e-05 0 0.000145868 -1.96119e-05 0 0.000155321 -1.85375e-05 0 0.000164175 -1.72325e-05 0 0.000172324 -1.5715e-05 0 0.000179667 -1.40063e-05 0 0.000186117 -1.21303e-05 0 0.000191597 -1.01129e-05 0 0.000196048 -7.98119e-06 0 0.000199424 -5.762e-06 0 0.000201692 -3.4814e-06 0 0.00020283 -1.16447e-06 0 0.00020283 1.16447e-06 0 0.000201692 3.4814e-06 0 0.000199424 5.762e-06 0 0.000196048 7.98119e-06 0 0.000191597 1.01129e-05 0 0.000186117 1.21303e-05 0 0.000179667 1.40063e-05 0 0.000172324 1.5715e-05 0 0.000164175 1.72325e-05 0 0.000155321 1.85375e-05 0 0.000145868 1.96119e-05 0 0.000135929 2.04383e-05 0 0.000125624 2.09982e-05 0 0.000115089 2.12713e-05 0 0.000104485 2.12395e-05 0 9.40033e-05 2.09002e-05 0 9.33269e-05 -2.44133e-05 0 0.000104227 -2.48341e-05 0 0.000115258 -2.48717e-05 0 0.000126196 -2.45424e-05 0 0.000136871 -2.38771e-05 0 0.000147153 -2.29042e-05 0 0.000156927 -2.16452e-05 0 0.00016608 -2.01185e-05 0 0.0001745 -1.83441e-05 0 0.000182086 -1.63462e-05 0 0.000188743 -1.41531e-05 0 0.000194394 -1.17959e-05 0 0.00019898 -9.3068e-06 0 0.000202455 -6.71733e-06 0 0.000204787 -4.05786e-06 0 0.000205958 -1.35715e-06 0 0.000205958 1.35715e-06 0 0.000204787 4.05786e-06 0 0.000202455 6.71733e-06 0 0.00019898 9.3068e-06 0 0.000194394 1.17959e-05 0 0.000188743 1.41531e-05 0 0.000182086 1.63462e-05 0 0.0001745 1.83441e-05 0 0.00016608 2.01185e-05 0 0.000156927 2.16452e-05 0 0.000147153 2.29042e-05 0 0.000136871 2.38771e-05 0 0.000126196 2.45424e-05 0 0.000115258 2.48717e-05 0 0.000104227 2.48341e-05 0 9.33269e-05 2.44133e-05 0 9.24902e-05 -2.80797e-05 0 0.000103916 -2.85883e-05 0 0.000115468 -2.8625e-05 0 0.000126878 -2.82254e-05 0 0.000137977 -2.74428e-05 0 0.00014865 -2.63148e-05 0 0.00015879 -2.48638e-05 0 0.000168287 -2.31073e-05 0 0.000177024 -2.10659e-05 0 0.000184889 -1.87671e-05 0 0.000191786 -1.6244e-05 0 0.000197634 -1.35336e-05 0 0.000202373 -1.06739e-05 0 0.000205959 -7.70157e-06 0 0.000208364 -4.65133e-06 0 0.000209571 -1.55545e-06 0 0.000209571 1.55545e-06 0 0.000208364 4.65133e-06 0 0.000205959 7.70157e-06 0 0.000202373 1.06739e-05 0 0.000197634 1.35336e-05 0 0.000191786 1.6244e-05 0 0.000184889 1.87671e-05 0 0.000177024 2.10659e-05 0 0.000168287 2.31073e-05 0 0.00015879 2.48638e-05 0 0.00014865 2.63148e-05 0 0.000137977 2.74428e-05 0 0.000126878 2.82254e-05 0 0.000115468 2.8625e-05 0 0.000103916 2.85883e-05 0 9.24902e-05 2.80797e-05 0 9.14608e-05 -3.1927e-05 0 0.000103558 -3.25434e-05 0 0.000115742 -3.25588e-05 0 0.000127692 -3.20661e-05 0 0.00013926 -3.11508e-05 0 0.000150366 -2.98589e-05 0 0.00016092 -2.82091e-05 0 0.000170809 -2.62143e-05 0 0.000179908 -2.38947e-05 0 0.000188094 -2.12809e-05 0 0.000195264 -1.84124e-05 0 0.000201333 -1.5333e-05 0 0.000206243 -1.20874e-05 0 0.000209953 -8.71795e-06 0 0.000212438 -5.2636e-06 0 0.000213683 -1.75992e-06 0 0.000213683 1.75992e-06 0 0.000212438 5.2636e-06 0 0.000209953 8.71795e-06 0 0.000206243 1.20874e-05 0 0.000201333 1.5333e-05 0 0.000195264 1.84124e-05 0 0.000188094 2.12809e-05 0 0.000179908 2.38947e-05 0 0.000170809 2.62143e-05 0 0.00016092 2.82091e-05 0 0.000150366 2.98589e-05 0 0.00013926 3.11508e-05 0 0.000127692 3.20661e-05 0 0.000115742 3.25588e-05 0 0.000103558 3.25434e-05 0 9.14608e-05 3.1927e-05 0 9.01943e-05 -3.60406e-05 0 0.000103174 -3.67476e-05 0 0.000116123 -3.67032e-05 0 0.000128666 -3.60791e-05 0 0.000140734 -3.50134e-05 0 0.00015231 -3.3551e-05 0 0.000163325 -3.16975e-05 0 0.000173659 -2.94564e-05 0 0.000183171 -2.68456e-05 0 0.000191722 -2.39004e-05 0 0.000199198 -2.0668e-05 0 0.000205514 -1.72011e-05 0 0.000210611 -1.3552e-05 0 0.000214455 -9.7693e-06 0 0.000217024 -5.89617e-06 0 0.000218311 -1.97104e-06 0 0.000218311 1.97104e-06 0 0.000217024 5.89617e-06 0 0.000214455 9.7693e-06 0 0.000210611 1.3552e-05 0 0.000205514 1.72011e-05 0 0.000199198 2.0668e-05 0 0.000191722 2.39004e-05 0 0.000183171 2.68456e-05 0 0.000173659 2.94564e-05 0 0.000163325 3.16975e-05 0 0.00015231 3.3551e-05 0 0.000140734 3.50134e-05 0 0.000128666 3.60791e-05 0 0.000116123 3.67032e-05 0 0.000103174 3.67476e-05 0 9.01943e-05 3.60406e-05 0 8.8618e-05 -4.04617e-05 0 0.000102827 -4.12812e-05 0 0.000116687 -4.10809e-05 0 0.000129837 -4.0271e-05 0 0.000142409 -3.90382e-05 0 0.000154482 -3.7405e-05 0 0.00016601 -3.53473e-05 0 0.00017685 -3.28523e-05 0 0.000186832 -2.99356e-05 0 0.000195796 -2.66391e-05 0 0.000203614 -2.30207e-05 0 0.0002102 -1.91444e-05 0 0.000215499 -1.50717e-05 0 0.000219484 -1.08578e-05 0 0.000222143 -6.5501e-06 0 0.000223472 -2.18911e-06 0 0.000223472 2.18911e-06 0 0.000222143 6.5501e-06 0 0.000219484 1.08578e-05 0 0.000215499 1.50717e-05 0 0.0002102 1.91444e-05 0 0.000203614 2.30207e-05 0 0.000195796 2.66391e-05 0 0.000186832 2.99356e-05 0 0.00017685 3.28523e-05 0 0.00016601 3.53473e-05 0 0.000154482 3.7405e-05 0 0.000142409 3.90382e-05 0 0.000129837 4.0271e-05 0 0.000116687 4.10809e-05 0 0.000102827 4.12812e-05 0 8.8618e-05 4.04617e-05 0 8.66634e-05 -4.54775e-05 0 0.000102693 -4.6229e-05 0 0.00011756 -4.57009e-05 0 0.000131245 -4.46291e-05 0 0.00014428 -4.32273e-05 0 0.000156878 -4.14357e-05 0 0.000168978 -3.91796e-05 0 0.000180397 -3.6424e-05 0 0.000190916 -3.31836e-05 0 0.000200345 -2.95112e-05 0 0.000208542 -2.54801e-05 0 0.000215419 -2.11686e-05 0 0.000220931 -1.66494e-05 0 0.000225062 -1.19848e-05 0 0.000227811 -7.22585e-06 0 0.000229184 -2.41424e-06 0 0.000229184 2.41424e-06 0 0.000227811 7.22585e-06 0 0.000225062 1.19848e-05 0 0.000220931 1.66494e-05 0 0.000215419 2.11686e-05 0 0.000208542 2.54801e-05 0 0.000200345 2.95112e-05 0 0.000190916 3.31836e-05 0 0.000180397 3.6424e-05 0 0.000168978 3.91796e-05 0 0.000156878 4.14357e-05 0 0.00014428 4.32273e-05 0 0.000131245 4.46291e-05 0 0.00011756 4.57009e-05 0 0.000102693 4.6229e-05 0 8.66634e-05 4.54775e-05 0 8.40824e-05 -5.12859e-05 0 0.000103196 -5.17492e-05 0 0.000118934 -5.04976e-05 0 0.000132898 -4.91182e-05 0 0.000146323 -4.75767e-05 0 0.000159471 -4.5661e-05 0 0.000172228 -4.32212e-05 0 0.000184316 -4.01983e-05 0 0.000195455 -3.66115e-05 0 0.000205408 -3.2532e-05 0 0.000214019 -2.80552e-05 0 0.000221205 -2.32782e-05 0 0.000226936 -1.82868e-05 0 0.000231213 -1.31504e-05 0 0.000234049 -7.92309e-06 0 0.000235463 -2.64624e-06 0 0.000235463 2.64624e-06 0 0.000234049 7.92309e-06 0 0.000231213 1.31504e-05 0 0.000226936 1.82868e-05 0 0.000221205 2.32782e-05 0 0.000214019 2.80552e-05 0 0.000205408 3.2532e-05 0 0.000195455 3.66115e-05 0 0.000184316 4.01983e-05 0 0.000172228 4.32212e-05 0 0.000159471 4.5661e-05 0 0.000146323 4.75767e-05 0 0.000132898 4.91182e-05 0 0.000118934 5.04976e-05 0 0.000103196 5.17492e-05 0 8.40824e-05 5.12859e-05 0 8.07226e-05 -5.97171e-05 0 0.000105554 -5.7798e-05 0 0.000120868 -5.52827e-05 0 0.000134789 -5.36741e-05 0 0.000148429 -5.20841e-05 0 0.00016224 -5.01082e-05 0 0.000175743 -4.75079e-05 0 0.000188638 -4.42086e-05 0 0.000200486 -4.02444e-05 0 0.00021103 -3.57172e-05 0 0.000220088 -3.0754e-05 0 0.000227596 -2.54757e-05 0 0.000233544 -1.99833e-05 0 0.000237959 -1.43531e-05 0 0.000240876 -8.64042e-06 0 0.000242327 -2.88458e-06 0 0.000242327 2.88458e-06 0 0.000240876 8.64042e-06 0 0.000237959 1.43531e-05 0 0.000233544 1.99833e-05 0 0.000227596 2.54757e-05 0 0.000220088 3.0754e-05 0 0.00021103 3.57172e-05 0 0.000200486 4.02444e-05 0 0.000188638 4.42086e-05 0 0.000175743 4.75079e-05 0 0.00016224 5.01082e-05 0 0.000148429 5.20841e-05 0 0.000134789 5.36741e-05 0 0.000120868 5.52827e-05 0 0.000105554 5.7798e-05 0 8.07226e-05 5.97171e-05 0 6.67928e-05 -8.43518e-05 0 0.000110527 -6.23553e-05 0 0.000124305 -5.99018e-05 0 0.000136033 -5.81815e-05 0 0.000150847 -5.67782e-05 0 0.000164918 -5.48167e-05 0 0.000179623 -5.20893e-05 0 0.000193339 -4.84983e-05 0 0.000206091 -4.41104e-05 0 0.000217257 -3.90832e-05 0 0.000226808 -3.35815e-05 0 0.000234629 -2.7761e-05 0 0.000240787 -2.17356e-05 0 0.000245324 -1.55892e-05 0 0.00024831 -9.3751e-06 0 0.00024979 -3.12833e-06 0 0.00024979 3.12833e-06 0 0.00024831 9.3751e-06 0 0.000245324 1.55892e-05 0 0.000240787 2.17356e-05 0 0.000234629 2.7761e-05 0 0.000226808 3.35815e-05 0 0.000217257 3.90832e-05 0 0.000206091 4.41104e-05 0 0.000193339 4.84983e-05 0 0.000179623 5.20893e-05 0 0.000164918 5.48167e-05 0 0.000150847 5.67782e-05 0 0.000136033 5.81815e-05 0 0.000124305 5.99018e-05 0 0.000110527 6.23553e-05 0 6.67928e-05 8.43518e-05 0 </DataArray> 
</PointData> 
<Points> 
<DataArray type="Float32" NumberOfComponents="3"> 