<?xml version="1.0"?> 
<VTKFile type="StructuredGrid" version="0.1"> 
<StructuredGrid WholeExtent="0 31 0 31 0 0"> 
<Piece Extent="0 31 0 31 0 0"> 
<PointData>
<DataArray type="Float32" Name="B" format="ascii" NumberOfComponents="3"> 
0 0.0458919 0 -0.00311515 0.0134226 0 0.00320742 0.01026 0 0.00788677 0.00746132 0 0.0115474 0.00611702 0 0.0139405 0.00504462 0 0.0156707 0.00427517 0 0.0168404 0.00363936 0 0.0177118 0.00310317 0 0.0183462 0.00263848 0 0.018843 0.00222408 0 0.0192265 0.00185197 0 0.019534 0.00151134 0 0.0197751 0.0011971 0 0.0199639 0.000902496 0 0.0201048 0.000622727 0 0.020203 0.000352219 0 0.020261 8.59622e-05 0 0.0202807 -0.000181671 0 0.0202646 -0.000456263 0 0.0202124 -0.000744542 0 0.0201298 -0.00105331 0 0.0200102 -0.0013921 0 0.0198717 -0.00177045 0 0.0196846 -0.00220424 0 0.0195104 -0.00271196 0 0.0192361 -0.00332298 0 0.0190804 -0.0040998 0 0.0186614 -0.00509686 0 0.0187737 -0.00668089 0 0.0187911 -0.00897748 0 0.0194316 -0.0216242 0 0 0.0429626 0 -0.000163404 0.0136161 0 0.00420343 0.00851649 0 0.0076334 0.00640843 0 0.0113371 0.00526188 0 0.0135237 0.00447681 0 0.0153064 0.00386976 0 0.0164842 0.00334684 0 0.0173908 0.00288967 0 0.0180588 0.00247343 0 0.0185807 0.00209714 0 0.0189906 0.00175045 0 0.0193162 0.00143137 0 0.0195744 0.00113384 0 0.0197748 0.000854282 0 0.0199245 0.000587702 0 0.0200276 0.000329618 0 0.0200868 7.49976e-05 0 0.0201041 -0.000181389 0 0.0200807 -0.00044524 0 0.0200179 -0.000722982 0 0.0199162 -0.00102181 0 0.0197766 -0.00135056 0 0.0195983 -0.00171966 0 0.0193819 -0.00214352 0 0.0191223 -0.00264111 0 0.0188152 -0.0032431 0 0.0184512 -0.00400002 0 0.0179984 -0.00501276 0 0.0174719 -0.00651798 0 0.016562 -0.00923694 0 0.0101661 -0.0163516 0 0 0.0362615 0 0.00387765 0.0145172 0 0.00487352 0.00732488 0 0.00818265 0.00545797 0 0.0109841 0.00446723 0 0.0133118 0.00392466 0 0.0149224 0.00345726 0 0.0161771 0.0030521 0 0.0170769 0.00266374 0 0.0177857 0.0023028 0 0.0183282 0.00196128 0 0.0187633 0.00164373 0 0.0191078 0.00134575 0 0.019382 0.00106688 0 0.0195947 0.00080292 0 0.0197531 0.000550816 0 0.0198612 0.000306059 0 0.0199218 6.42303e-05 0 0.0199365 -0.000179808 0 0.0199064 -0.00043158 0 0.0198318 -0.000697396 0 0.0197129 -0.000984383 0 0.0195489 -0.00130115 0 0.0193382 -0.00165791 0 0.0190767 -0.0020684 0 0.0187577 -0.00255063 0 0.0183675 -0.0031334 0 0.0178787 -0.00386402 0 0.017245 -0.00483665 0 0.0163164 -0.00625944 0 0.0145409 -0.0086155 0 0.00928145 -0.0129305 0 0 0.0308631 0 0.00577452 0.0147767 0 0.00623895 0.00672033 0 0.00861518 0.00463634 0 0.0109815 0.00377279 0 0.0130721 0.0033873 0 0.01465 0.00305625 0 0.0158697 0.00274994 0 0.0167981 0.00243373 0 0.0175199 0.00212326 0 0.0180904 0.00181973 0 0.0185447 0.00153034 0 0.0189093 0.00125553 0 0.0191987 0.00099565 0 0.0194239 0.000748693 0 0.0195909 0.000511875 0 0.0197042 0.000281592 0 0.0197663 5.35878e-05 0 0.0197786 -0.000176922 0 0.0197417 -0.000415316 0 0.0196556 -0.000667726 0 0.0195193 -0.000941072 0 0.0193309 -0.00124367 0 0.0190871 -0.00158524 0 0.0187811 -0.00197856 0 0.0184025 -0.00244016 0 0.0179287 -0.00299563 0 0.0173259 -0.0036862 0 0.0165052 -0.00459168 0 0.0152891 -0.00586271 0 0.0131033 -0.00778522 0 0.00866874 -0.010733 0 0 0.0266582 0 0.00654317 0.0144281 0 0.00745349 0.00637992 0 0.00914631 0.00399027 0 0.0111009 0.00317339 0 0.0129313 0.00288718 0 0.0144239 0.00266848 0 0.015606 0.00244856 0 0.0165381 0.00219939 0 0.0172741 0.001938 0 0.0178641 0.00167182 0 0.0183384 0.00141148 0 0.0187209 0.00116029 0 0.0190256 0.000920563 0 0.0192628 0.000691404 0 0.0194386 0.000470981 0 0.0195571 0.000256132 0 0.0196208 4.30675e-05 0 0.0196307 -0.000172768 0 0.0195872 -0.000396477 0 0.0194896 -0.000633982 0 0.0193361 -0.000891884 0 0.0191236 -0.00117812 0 0.0188469 -0.00150165 0 0.0184972 -0.0018742 0 0.0180597 -0.00230997 0 0.0175082 -0.00283097 0 0.0167956 -0.00346963 0 0.0158263 -0.00428812 0 0.0144044 -0.00538162 0 0.0121342 -0.00695008 0 0.00835636 -0.00913392 0 0 0.0231935 0 0.00678245 0.0136676 0 0.00833897 0.0060916 0 0.00969583 0.00349254 0 0.0112958 0.00266589 0 0.0128754 0.00243437 0 0.0142513 0.0023002 0 0.0153831 0.00215236 0 0.0163043 0.00196366 0 0.017048 0.00174821 0 0.017653 0.0015187 0 0.0181449 0.00128732 0 0.0185439 0.00106046 0 0.0188633 0.000841582 0 0.0191122 0.000631191 0 0.0192966 0.000428078 0 0.0194204 0.000229701 0 0.0194856 3.26185e-05 0 0.0194934 -0.000167376 0 0.0194435 -0.000375121 0 0.0193346 -0.000596216 0 0.0191642 -0.000836914 0 0.0189281 -0.00110459 0 0.0186194 -0.00140741 0 0.0182272 -0.00175564 0 0.0177341 -0.00216112 0 0.01711 -0.0026413 0 0.0163031 -0.00321978 0 0.0152178 -0.0039407 0 0.0136849 -0.00486406 0 0.0114564 -0.00616225 0 0.0081292 -0.00782499 0 0 0.0202076 0 0.00679612 0.0126479 0 0.00892357 0.00575922 0 0.0101933 0.00309194 0 0.0115265 0.00223943 0 0.0128843 0.00203251 0 0.0141299 0.00195565 0 0.0152 0.00186582 0 0.016099 0.00172878 0 0.0168433 0.00155583 0 0.0174589 0.00136109 0 0.0179655 0.00115856 0 0.0183797 0.000956215 0 0.0187128 0.00075894 0 0.0189729 0.000568094 0 0.0191656 0.000383234 0 0.0192944 0.000202281 0 0.0193614 2.22272e-05 0 0.0193671 -0.000160806 0 0.019311 -0.000351318 0 0.0191913 -0.000554546 0 0.0190046 -0.000776303 0 0.0187456 -0.00102332 0 0.0184062 -0.00130286 0 0.0179738 -0.00162361 0 0.0174292 -0.00199492 0 0.0167403 -0.00242952 0 0.0158558 -0.00294309 0 0.0146891 -0.00356482 0 0.0131108 -0.00433935 0 0.0109655 -0.00542338 0 0.00797472 -0.00672914 0 0 0.0175362 0 0.00671202 0.0114687 0 0.00929261 0.00535132 0 0.010603 0.00274243 0 0.0117634 0.00187865 0 0.0129352 0.00167879 0 0.0140532 0.00163798 0 0.015054 0.00159148 0 0.015923 0.00149743 0 0.0166613 0.0013622 0 0.0172832 0.00120019 0 0.0178017 0.0010257 0 0.0182292 0.000848022 0 0.0185749 0.000672807 0 0.0188456 0.000502272 0 0.0190462 0.000336493 0 0.0191799 0.000173902 0 0.0192485 1.18623e-05 0 0.0192523 -0.000153117 0 0.0191904 -0.000325179 0 0.0190604 -0.000509128 0 0.0188582 -0.000710286 0 0.0185775 -0.00093466 0 0.0182092 -0.00118857 0 0.0177395 -0.00147906 0 0.0171483 -0.00181309 0 0.0164037 -0.00219901 0 0.0154585 -0.00264611 0 0.0142402 -0.00317338 0 0.0126562 -0.00382082 0 0.0105991 -0.00472949 0 0.0078584 -0.00576991 0 0 0.0150858 0 0.00659164 0.0101917 0 0.00951642 0.00486499 0 0.0109226 0.00241306 0 0.0119844 0.0015661 0 0.0130101 0.00136788 0 0.0140117 0.00134731 0 0.0149415 0.00133131 0 0.0157754 0.00127132 0 0.0165026 0.00116884 0 0.017127 0.00103688 0 0.0176547 0.000889437 0 0.0180937 0.000736251 0 0.0184506 0.000583488 0 0.018731 0.000433877 0 0.018939 0.000287966 0 0.0190774 0.000144591 0 0.0191476 1.50928e-06 0 0.0191497 -0.00014439 0 0.0190823 -0.00029684 0 0.0189427 -0.000460178 0 0.018726 -0.000639174 0 0.0184252 -0.000839089 0 0.0180302 -0.00106526 0 0.0175267 -0.00132317 0 0.0168945 -0.00161761 0 0.0161037 -0.00195328 0 0.0151132 -0.00233486 0 0.013866 -0.00277531 0 0.0122965 -0.00331395 0 0.0103205 -0.00407346 0 0.00777147 -0.00491055 0 0 0.012794 0 0.00646426 0.00885499 0 0.00964616 0.00430845 0 0.0111637 0.00208548 0 0.0121774 0.00128666 0 0.0130944 0.00109258 0 0.0139956 0.00108215 0 0.0148579 0.00108582 0 0.0156546 0.00105174 0 0.0163674 0.000976826 0 0.016991 0.000872082 0 0.0175254 0.000750389 0 0.0179739 0.000621378 0 0.0183408 0.000491277 0 0.0186299 0.000363127 0 0.0188447 0.000237771 0 0.0189873 0.000114406 0 0.019059 -8.85164e-06 0 0.0190596 -0.00013471 0 0.0189874 -0.00026647 0 0.018839 -0.000407961 0 0.018609 -0.000563364 0 0.0182899 -0.000737174 0 0.0178709 -0.000933767 0 0.0173375 -0.00115725 0 0.0166702 -0.00141055 0 0.0158422 -0.00169565 0 0.0148196 -0.00201425 0 0.0135591 -0.00237612 0 0.0120129 -0.00281996 0 0.0101067 -0.0034488 0 0.00770518 -0.0041222 0 0 0.0106201 0 0.00634446 0.00748205 0 0.00971669 0.00369305 0 0.0113413 0.00175034 0 0.0123382 0.00102849 0 0.0131776 0.00084559 0 0.0139966 0.000839615 0 0.0147978 0.000854657 0 0.0155583 0.000839213 0 0.0162551 0.00078697 0 0.0168758 0.000706518 0 0.0174146 0.000609169 0 0.0178709 0.000503853 0 0.0182462 0.000396529 0 0.0185431 0.000290261 0 0.0187638 0.000186066 0 0.0189103 8.34157e-05 0 0.0189835 -1.92314e-05 0 0.0189827 -0.000124181 0 0.0189061 -0.000234272 0 0.0187499 -0.000352797 0 0.0185082 -0.000483322 0 0.0181728 -0.000629586 0 0.0177328 -0.000795067 0 0.0171737 -0.000982688 0 0.0164773 -0.00119396 0 0.0156203 -0.00142904 0 0.0145759 -0.00168797 0 0.0133118 -0.00197882 0 0.0117908 -0.00233817 0 0.00994279 -0.00284968 0 0.00765518 -0.00338604 0 0 0.00853395 0 0.00623978 0.00608749 0 0.00975115 0.00303029 0 0.0114694 0.00140384 0 0.0124667 0.000783233 0 0.013253 0.000620121 0 0.0140072 0.000616193 0 0.0147566 0.000636508 0 0.0154841 0.000633688 0 0.0161649 0.000599673 0 0.0167813 0.000540747 0 0.0173229 0.000466296 0 0.0177853 0.000384138 0 0.0181677 0.000299603 0 0.0184711 0.000215553 0 0.018697 0.000133029 0 0.0188469 5.17071e-05 0 0.0189213 -2.96413e-05 0 0.0189194 -0.000112914 0 0.0188391 -0.000200474 0 0.0186761 -0.000295053 0 0.0184243 -0.000399585 0 0.0180751 -0.000517077 0 0.0176173 -0.000650196 0 0.0170368 -0.000800916 0 0.016317 -0.000969771 0 0.0154382 -0.0011559 0 0.0143797 -0.00135858 0 0.0131174 -0.00158476 0 0.01162 -0.00186703 0 0.00981869 -0.00227093 0 0.00761813 -0.00268841 0 0 0.0065133 0 0.00615395 0.00468031 0 0.00976506 0.00233072 0 0.0115597 0.00104547 0 0.0125653 0.00054532 0 0.0133165 0.000410407 0 0.0140222 0.000408104 0 0.0147299 0.000429518 0 0.0154294 0.000434549 0 0.0160956 0.000414998 0 0.0167075 0.000375117 0 0.0172507 0.00032222 0 0.0177178 0.000262664 0 0.0181058 0.000200875 0 0.0184145 0.000139294 0 0.0186447 7.88587e-05 0 0.0187974 1.93788e-05 0 0.0188728 -4.00885e-05 0 0.0188701 -0.000101036 0 0.0187867 -0.000165334 0 0.0186183 -0.000235138 0 0.0183583 -0.000312747 0 0.0179977 -0.000400465 0 0.0175255 -0.000500244 0 0.016928 -0.000613346 0 0.0161902 -0.000739735 0 0.0152956 -0.000878153 0 0.0142283 -0.00102771 0 0.0129701 -0.00119422 0 0.0114926 -0.00140466 0 0.00972757 -0.00170803 0 0.00759198 -0.00201892 0 0 0.00454004 0 0.00608889 0.00326603 0 0.00976855 0.0016038 0 0.0116209 0.000676585 0 0.0126369 0.000311269 0 0.013366 0.000211688 0 0.0140375 0.000211616 0 0.0147142 0.000231421 0 0.0153919 0.00024076 0 0.0160464 0.000232676 0 0.0166542 0.000209794 0 0.0171982 0.000177294 0 0.0176687 0.00013984 0 0.018061 0.000100725 0 0.0183738 6.17941e-05 0 0.0186073 2.3772e-05 0 0.0187623 -1.34582e-05 0 0.0188386 -5.05792e-05 0 0.0188353 -8.86814e-05 0 0.0187496 -0.000129132 0 0.0185769 -0.000173502 0 0.0183106 -0.000223452 0 0.0179415 -0.000280617 0 0.0174584 -0.00034633 0 0.0168483 -0.000421346 0 0.0160973 -0.000505401 0 0.0151918 -0.000597308 0 0.0141193 -0.000696315 0 0.0128657 -0.000806853 0 0.0114035 -0.000949063 0 0.00966477 -0.00115693 0 0.00757525 -0.00136956 0 0 0.00259891 0 0.00604547 0.0018479 0 0.00976818 0.000857996 0 0.0116592 0.000299615 0 0.012684 7.90255e-05 0 0.0134005 2.01026e-05 0 0.0140506 2.31511e-05 0 0.0147068 3.97311e-05 0 0.0153698 5.09558e-05 0 0.0160162 5.21817e-05 0 0.0166211 4.47743e-05 0 0.0171657 3.17902e-05 0 0.0176385 1.60415e-05 0 0.0180337 -4.70401e-07 0 0.0183494 -1.66275e-05 0 0.0185853 -3.20017e-05 0 0.0187417 -4.66849e-05 0 0.0188187 -6.1118e-05 0 0.0188151 -7.59925e-05 0 0.0187279 -9.21672e-05 0 0.0185524 -0.000110621 0 0.0182819 -0.000132379 0 0.017907 -0.000158436 0 0.0174166 -0.000189585 0 0.0167981 -0.000226232 0 0.0160386 -0.000268138 0 0.0151262 -0.000314495 0 0.014051 -0.000364828 0 0.0128008 -0.000421932 0 0.011349 -0.000498241 0 0.00962721 -0.000613945 0 0.00756699 -0.000733599 0 0 0.000676357 0 0.00602409 0.000427865 0 0.00976783 0.000101083 0 0.0116785 -8.24709e-05 0 0.0127085 -0.000152551 0 0.0134196 -0.000167555 0 0.0140597 -0.000160674 0 0.0147061 -0.00014816 0 0.015362 -0.000136447 0 0.0160045 -0.000127206 0 0.0166081 -0.00012007 0 0.0171531 -0.000114087 0 0.0176272 -0.000108379 0 0.0180242 -0.000102335 0 0.0183414 -9.56427e-05 0 0.0185786 -8.82243e-05 0 0.0187361 -8.01753e-05 0 0.0188135 -7.17086e-05 0 0.0188097 -6.31188e-05 0 0.0187219 -5.4753e-05 0 0.0185451 -4.69944e-05 0 0.0182724 -4.02351e-05 0 0.0178946 -3.48511e-05 0 0.0174006 -3.11413e-05 0 0.0167779 -2.92679e-05 0 0.0160143 -2.91685e-05 0 0.0150985 -3.05861e-05 0 0.014022 -3.3378e-05 0 0.0127736 -3.85085e-05 0 0.0113267 -5.02095e-05 0 0.00961302 -7.56436e-05 0 0.00756663 -0.000105248 0 0 -0.00124029 0 0.0060249 -0.000992861 0 0.00976932 -0.000659614 0 0.0116806 -0.000466427 0 0.0127114 -0.000384101 0 0.0134233 -0.000354089 0 0.0140641 -0.000343106 0 0.0147112 -0.000334908 0 0.0153678 -0.000323156 0 0.0160109 -0.000306322 0 0.016615 -0.000284949 0 0.0171606 -0.000260177 0 0.0176352 -0.000233087 0 0.0180325 -0.000204495 0 0.0183501 -0.00017492 0 0.0185876 -0.000144652 0 0.0187453 -0.0001138 0 0.018823 -8.23544e-05 0 0.0188194 -5.0213e-05 0 0.0187317 -1.7211e-05 0 0.018555 1.68657e-05 0 0.0182823 5.22563e-05 0 0.0179046 8.91982e-05 0 0.0174106 0.000127868 0 0.016788 0.000168315 0 0.0160242 0.000210375 0 0.0151084 0.000253699 0 0.0140316 0.000298086 0 0.0127829 0.000344472 0 0.0113356 0.000396989 0 0.00962133 0.000461264 0 0.00757392 0.000520862 0 0 -0.0031634 0 0.00604789 -0.0024133 0 0.00977263 -0.00141692 0 0.0116657 -0.000848928 0 0.0126928 -0.000616107 0 0.0134115 -0.000542172 0 0.0140638 -0.000527342 0 0.0147222 -0.000523187 0 0.0153872 -0.000510921 0 0.0160354 -0.000486044 0 0.0166419 -0.000450099 0 0.017188 -0.000406332 0 0.0176622 -0.000357756 0 0.0180587 -0.000306579 0 0.0183754 -0.000254128 0 0.0186122 -0.000201039 0 0.0187695 -0.000147429 0 0.0188472 -9.30582e-05 0 0.018844 -3.7429e-05 0 0.0187573 2.01348e-05 0 0.0185821 8.04429e-05 0 0.0183118 0.000144368 0 0.017937 0.000212767 0 0.0174467 0.000286311 0 0.0168281 0.000365298 0 0.0160685 0.000449391 0 0.0151558 0.000537693 0 0.01408 0.000629672 0 0.0128289 0.000728094 0 0.0113758 0.000845303 0 0.00965218 0.00100002 0 0.00758888 0.00114993 0 0 -0.00510564 0 0.00609293 -0.00383222 0 0.00977597 -0.00216349 0 0.0116319 -0.00122673 0 0.0126516 -0.000849212 0 0.0133844 -0.00073461 0 0.0140597 -0.000716629 0 0.0147398 -0.000715652 0 0.0154208 -0.000701449 0 0.0160783 -0.000667206 0 0.0166889 -0.00061573 0 0.0172355 -0.00055239 0 0.0177083 -0.000482052 0 0.0181027 -0.000408215 0 0.0184173 -0.000332934 0 0.0186524 -0.000257142 0 0.0188086 -0.000180932 0 0.018886 -0.000103823 0 0.0188836 -2.49191e-05 0 0.0187986 5.69631e-05 0 0.0186265 0.000143226 0 0.0183605 0.000235376 0 0.0179915 0.000334914 0 0.0175085 0.000443055 0 0.0168984 0.000560449 0 0.0161471 0.000686745 0 0.015241 0.000820673 0 0.0141677 0.000961429 0 0.0129126 0.00111341 0 0.0114484 0.00129669 0 0.00970653 0.00154391 0 0.00761184 0.00178734 0 0 -0.00708056 0 0.0061596 -0.00524771 0 0.00977544 -0.00289159 0 0.0115751 -0.00159687 0 0.012586 -0.00108456 0 0.0133424 -0.00093461 0 0.0140533 -0.00091435 0 0.0147658 -0.000914912 0 0.0154699 -0.000896322 0 0.0161404 -0.00085053 0 0.0167562 -0.00078197 0 0.017303 -0.000698148 0 0.0177733 -0.000605622 0 0.0181642 -0.000509026 0 0.0184754 -0.00041101 0 0.0187078 -0.000312722 0 0.0188623 -0.000214183 0 0.0189393 -0.000114651 0 0.0189378 -1.28314e-05 0 0.0188554 9.29621e-05 0 0.0186877 0.000204716 0 0.0184281 0.000324577 0 0.0180679 0.000454713 0 0.0175957 0.000596967 0 0.0169982 0.000752501 0 0.01626 0.000921207 0 0.0153647 0.00110176 0 0.0142961 0.00129322 0 0.0130361 0.00150136 0 0.0115557 0.00175312 0 0.00978633 0.00209638 0 0.00764343 0.00243892 0 0 -0.00910342 0 0.00624701 -0.00665648 0 0.00976451 -0.00359274 0 0.0114893 -0.00195693 0 0.0124933 -0.00132421 0 0.0132865 -0.00114604 0 0.0140473 -0.00112408 0 0.014803 -0.00112345 0 0.0155364 -0.00109691 0 0.0162226 -0.00103654 0 0.016844 -0.000948822 0 0.0173902 -0.000843331 0 0.0178568 -0.00072809 0 0.0182429 -0.000608634 0 0.0185495 -0.000488037 0 0.0187782 -0.000367549 0 0.0189305 -0.000247061 0 0.0190068 -0.000125547 0 0.0190065 -1.30756e-06 0 0.0189274 0.000127834 0 0.0187653 0.000264439 0 0.0185142 0.00041129 0 0.0181653 0.000571261 0 0.0177076 0.000746914 0 0.0171271 0.000940134 0 0.0164068 0.0011514 0 0.0155273 0.00137979 0 0.0144672 0.00162457 0 0.0132026 0.00189266 0 0.0117015 0.0022166 0 0.00989475 0.0026611 0 0.00768467 0.00311142 0 0 -0.0111923 0 0.00635325 -0.00805303 0 0.00973302 -0.0042575 0 0.0113657 -0.00230557 0 0.0123709 -0.00157164 0 0.0132188 -0.00137365 0 0.0140457 -0.00134956 0 0.0148547 -0.00134353 0 0.0156224 -0.00130424 0 0.0163259 -0.0012255 0 0.0169526 -0.00111612 0 0.0174971 -0.000987589 0 0.0179584 -0.000849048 0 0.0183383 -0.00070666 0 0.0186391 -0.000563704 0 0.0188632 -0.000421407 0 0.0190127 -0.000279456 0 0.0190882 -0.000136515 0 0.0190893 9.51964e-06 0 0.0190142 0.000161301 0 0.018859 0.000321949 0 0.0186181 0.000494876 0 0.0182831 0.000683693 0 0.0178433 0.000891777 0 0.0172841 0.00112197 0 0.0165872 0.00137576 0 0.0157294 0.00165327 0 0.0146834 0.00195454 0 0.0134166 0.00228763 0 0.0118913 0.0026891 0 0.0100366 0.00324213 0 0.00773715 0.00381293 0 0 -0.0133696 0 0.00647459 -0.00942837 0 0.00966548 -0.00487532 0 0.0111927 -0.0026433 0 0.0122164 -0.00183244 0 0.0131433 -0.00162321 0 0.0140541 -0.00159455 0 0.0149253 -0.00157702 0 0.0157306 -0.00151893 0 0.0164513 -0.00141736 0 0.0170821 -0.00128352 0 0.0176231 -0.00113047 0 0.0180776 -0.000968064 0 0.0184498 -0.000802728 0 0.0187436 -0.000637719 0 0.0189624 -0.000474094 0 0.0191085 -0.000311266 0 0.019183 -0.000147561 0 0.0191858 1.95272e-05 0 0.0191153 0.000193109 0 0.0189681 0.000376838 0 0.018739 0.000574743 0 0.0184204 0.000791192 0 0.0180016 0.00103047 0 0.017468 0.00129661 0 0.0168003 0.00159253 0 0.0159715 0.00192023 0 0.0149472 0.00228143 0 0.0136838 0.00268596 0 0.0121327 0.00317249 0 0.0102188 0.00384398 0 0.00780301 0.00455393 0 0 -0.0156651 0 0.00660346 -0.0107679 0 0.00953875 -0.00543475 0 0.0109563 -0.00297395 0 0.0120297 -0.00211497 0 0.0130669 -0.00190151 0 0.0140795 -0.00186258 0 0.0150198 -0.0018252 0 0.0158634 -0.00174102 0 0.0165997 -0.0016117 0 0.0172324 -0.00145044 0 0.0177678 -0.00127146 0 0.0182137 -0.00108468 0 0.0185767 -0.000896477 0 0.0188625 -0.000709808 0 0.0190752 -0.000525433 0 0.0192175 -0.000342404 0 0.0192909 -0.000158694 0 0.0192955 2.86049e-05 0 0.0192302 0.000223031 0 0.019092 0.000428744 0 0.0188762 0.00065036 0 0.0185759 0.00089301 0 0.0181811 0.00116194 0 0.0176775 0.0014626 0 0.0170449 0.00179976 0 0.0162533 0.0021782 0 0.0152612 0.00260266 0 0.0140111 0.00308624 0 0.0124365 0.00366827 0 0.0104517 0.00447182 0 0.00788576 0.00534821 0 0 -0.0181198 0 0.00672528 -0.0120481 0 0.00931799 -0.00592445 0 0.0106415 -0.00330686 0 0.0118152 -0.00243108 0 0.0130001 -0.00221585 0 0.0141305 -0.00215652 0 0.0151431 -0.00208846 0 0.0160232 -0.00197001 0 0.0167717 -0.00180772 0 0.0174031 -0.0016162 0 0.0179304 -0.00140993 0 0.0183657 -0.00119843 0 0.0187183 -0.000987554 0 0.0189951 -0.000779733 0 0.0192009 -0.000575264 0 0.0193391 -0.0003728 0 0.0194113 -0.000169922 0 0.019418 3.66532e-05 0 0.0193583 0.00025087 0 0.0192298 0.00047735 0 0.0190286 0.000721262 0 0.0187485 0.000988481 0 0.0183804 0.00128524 0 0.0179105 0.00161855 0 0.017319 0.00199539 0 0.0165737 0.00242421 0 0.0156272 0.00291449 0 0.0144062 0.00348539 0 0.012817 0.00417707 0 0.0107503 0.00513146 0 0.00798995 0.0062148 0 0 -0.0207958 0 0.00681076 -0.0132309 0 0.00895209 -0.00633625 0 0.0102369 -0.00366043 0 0.011585 -0.00279587 0 0.0129574 -0.00257344 0 0.0142169 -0.00247787 0 0.0153002 -0.00236625 0 0.0162115 -0.00220459 0 0.0169673 -0.00200434 0 0.0175935 -0.00177985 0 0.0181098 -0.00154529 0 0.0185327 -0.00130886 0 0.0188736 -0.00107566 0 0.0191405 -0.000847272 0 0.0193391 -0.000623467 0 0.0194729 -0.000402393 0 0.0195438 -0.000181262 0 0.0195527 4.35891e-05 0 0.019499 0.00027646 0 0.0193809 0.000522399 0 0.0191953 0.000787061 0 0.0189368 0.00107704 0 0.0185976 0.00139952 0 0.0181651 0.00176315 0 0.0176202 0.00217734 0 0.0169309 0.00265495 0 0.0160454 0.00321191 0 0.0148768 0.0038778 0 0.0132936 0.00469757 0 0.0111383 0.00582935 0 0.00812461 0.00718278 0 0 -0.0237866 0 0.00679842 -0.0142547 0 0.00837075 -0.00667308 0 0.00974463 -0.0040656 0 0.0113611 -0.00322679 0 0.0129569 -0.00297959 0 0.0143481 -0.0028265 0 0.0154945 -0.00265663 0 0.0164293 -0.00244306 0 0.0171857 -0.00220004 0 0.0178025 -0.0019405 0 0.018305 -0.00167681 0 0.0187137 -0.00141559 0 0.0190417 -0.0011605 0 0.0192982 -0.000912277 0 0.019489 -0.000669932 0 0.0196182 -0.000431155 0 0.0196879 -0.000192727 0 0.0196991 4.93369e-05 0 0.0196517 0.00029967 0 0.0195446 0.000563679 0 0.0193753 0.000847451 0 0.0191397 0.00115822 0 0.0188311 0.00150407 0 0.0184388 0.00189524 0 0.0179455 0.00234363 0 0.0173212 0.00286686 0 0.0165138 0.00348888 0 0.0154275 0.00425441 0 0.0138909 0.00522413 0 0.0116525 0.00657251 0 0.00829902 0.00828933 0 0 -0.0272561 0 0.00656042 -0.01502 0 0.00748873 -0.00696644 0 0.00920054 -0.00456839 0 0.0111733 -0.00373921 0 0.0130214 -0.0034371 0 0.0145307 -0.00319926 0 0.0157289 -0.00295704 0 0.0166758 -0.00268273 0 0.0174258 -0.00239348 0 0.0180286 -0.00209698 0 0.0185146 -0.00180402 0 0.0189076 -0.00151816 0 0.0192218 -0.0012419 0 0.0194672 -0.000974584 0 0.0196501 -0.000714612 0 0.0197746 -0.000459053 0 0.019843 -0.000204344 0 0.0198567 5.38417e-05 0 0.0198159 0.000320395 0 0.0197201 0.00060104 0 0.0195677 0.000902205 0 0.0193557 0.00123168 0 0.019079 0.00159835 0 0.0187291 0.00201387 0 0.0182914 0.00249254 0 0.0177399 0.00305654 0 0.0170275 0.00373876 0 0.0160585 0.00460213 0 0.014635 0.0057431 0 0.0123563 0.00736475 0 0.00854849 0.00961139 0 0 -0.031465 0 0.00579311 -0.0153741 0 0.00627789 -0.00731249 0 0.00867502 -0.00522003 0 0.0110611 -0.00434398 0 0.013171 -0.00394235 0 0.014767 -0.00359191 0 0.0160041 -0.00326303 0 0.0169487 -0.00292138 0 0.0176857 -0.00258273 0 0.0182701 -0.00224855 0 0.0187372 -0.00192621 0 0.0191133 -0.00161638 0 0.0194129 -0.00131962 0 0.019647 -0.00103416 0 0.0198217 -0.00075744 0 0.0199415 -0.000486103 0 0.0200087 -0.000216124 0 0.020025 5.70465e-05 0 0.019991 0.000338571 0 0.0199067 0.00063437 0 0.0197715 0.000951191 0 0.0195835 0.00129719 0 0.0193396 0.00168199 0 0.0190333 0.00211831 0 0.0186544 0.00262276 0 0.0181808 0.00322111 0 0.0175789 0.00395508 0 0.01676 0.00490541 0 0.0155455 0.00622471 0 0.0133554 0.00820396 0 0.00888722 0.011227 0 0 -0.0368656 0 0.00389808 -0.0151211 0 0.00491625 -0.00792318 0 0.00824824 -0.00604772 0 0.011071 -0.00504423 0 0.0134195 -0.00448526 0 0.0150498 -0.00399822 0 0.0163232 -0.00357017 0 0.0172406 -0.00315607 0 0.0179658 -0.00276659 0 0.0185234 -0.00239407 0 0.0189722 -0.0020432 0 0.0193292 -0.00170983 0 0.0196144 -0.0013937 0 0.0198368 -0.00109085 0 0.0200035 -0.000798468 0 0.0201185 -0.000512281 0 0.0201846 -0.000228114 0 0.0202036 5.89282e-05 0 0.0201764 0.000354145 0 0.0201038 0.000663628 0 0.0199859 0.000994322 0 0.0198221 0.00135466 0 0.0196111 0.00175476 0 0.0193492 0.00220826 0 0.0190298 0.00273328 0 0.0186399 0.0033587 0 0.0181525 0.00413238 0 0.0175223 0.00514943 0 0.0165993 0.00662041 0 0.0148283 0.00903678 0 0.00953437 0.0134455 0 0 -0.0435613 0 -0.000138692 -0.014229 0 0.0042486 -0.009121 0 0.00770544 -0.0070049 0 0.0114311 -0.00584509 0 0.0136405 -0.00504343 0 0.0154443 -0.00441644 0 0.0166424 -0.0038703 0 0.0175678 -0.00338703 0 0.0182535 -0.00294188 0 0.0187915 -0.00253421 0 0.0192163 -0.00215381 0 0.0195553 -0.00179894 0 0.0198253 -0.00146374 0 0.0200361 -0.00114488 0 0.0201947 -0.000837595 0 0.0203051 -0.000537669 0 0.0203702 -0.000240313 0 0.020392 5.94527e-05 0 0.0203718 0.000367095 0 0.0203109 0.000688809 0 0.02021 0.0010316 0 0.0200705 0.00140411 0 0.0198918 0.00181667 0 0.0196746 0.00228355 0 0.0194145 0.0028238 0 0.0191078 0.00346816 0 0.0187454 0.00426758 0 0.0182979 0.00532394 0 0.0177806 0.00687577 0 0.0168909 0.0096564 0 0.0104747 0.0168929 0 0 -0.0464463 0 -0.00307061 -0.0140532 0 0.00324316 -0.0108689 0 0.0079724 -0.00806576 0 0.0116439 -0.00670671 0 0.0140692 -0.00561772 0 0.0158175 -0.00482804 0 0.0170116 -0.00416855 0 0.0179018 -0.00360599 0 0.0185559 -0.00311191 0 0.0190696 -0.00266577 0 0.0194692 -0.00225948 0 0.0197909 -0.00188266 0 0.0200448 -0.00153029 0 0.0202448 -0.00119594 0 0.0203951 -0.000875009 0 0.0205011 -0.000562217 0 0.0205653 -0.000252788 0 0.0205897 5.86301e-05 0 0.0205769 0.000377399 0 0.0205266 0.000709978 0 0.0204446 0.00106301 0 0.0203251 0.00144574 0 0.0201855 0.0018677 0 0.0199979 0.00234449 0 0.019822 0.00289477 0 0.0195495 0.00354779 0 0.019393 0.00436635 0 0.0189844 0.00540609 0 0.0191023 0.00703305 0 0.0191669 0.00938736 0 0.0198807 0.0221685 0 </DataArray> 
</PointData> 
<Points> 
<DataArray type="Float32" NumberOfComponents="3"> 