<?xml version="1.0"?> 
<VTKFile type="StructuredGrid" version="0.1"> 
<StructuredGrid WholeExtent="0 31 0 31 0 0"> 
<Piece Extent="0 31 0 31 0 0"> 
<PointData>
<DataArray type="Float32" Name="B" format="ascii" NumberOfComponents="3"> 
0.00241 0.0211306 0 0.00537849 0.00939147 0 0.00448956 0.00757617 0 0.00378507 0.00626439 0 0.00345326 0.00543104 0 0.00311645 0.00477572 0 0.00288235 0.00426037 0 0.00265522 0.00383651 0 0.00246479 0.00347944 0 0.00228505 0.00317652 0 0.00212247 0.00291456 0 0.00196949 0.00268779 0 0.00182689 0.0024893 0 0.00169213 0.00231541 0 0.00156481 0.00216223 0 0.00144385 0.0020272 0 0.00132872 0.00190791 0 0.00121879 0.00180252 0 0.00111357 0.00170944 0 0.0010126 0.00162734 0 0.000915465 0.0015551 0 0.00082177 0.00149178 0 0.00073115 0.00143655 0 0.000643253 0.00138874 0 0.000557744 0.00134777 0 0.000474301 0.00131316 0 0.00039261 0.00128451 0 0.000312368 0.00126149 0 0.000233276 0.00124385 0 0.000155042 0.00123138 0 7.7379e-05 0.00122395 0 0 0.00122149 0 -0.000847643 0.00944846 0 0.000677653 0.00848931 0 0.00147804 0.00741577 0 0.00181797 0.00645259 0 0.00193027 0.00567747 0 0.00195292 0.00505065 0 0.00192026 0.00453647 0 0.001863 0.00410701 0 0.00178936 0.00374287 0 0.00170794 0.00343052 0 0.00162164 0.00315997 0 0.00153334 0.00292401 0 0.00144428 0.00271701 0 0.00135556 0.00253469 0 0.00126774 0.0023736 0 0.00118127 0.00223097 0 0.00109638 0.00210454 0 0.00101321 0.00199244 0 0.000931827 0.00189309 0 0.000852238 0.00180518 0 0.000774401 0.00172759 0 0.000698242 0.00165938 0 0.000623659 0.00159973 0 0.000550535 0.00154798 0 0.000478734 0.00150353 0 0.000408109 0.00146592 0 0.000338506 0.00143472 0 0.000269762 0.00140963 0 0.000201711 0.00139037 0 0.000134183 0.00137676 0 6.70039e-05 0.00136864 0 1.81791e-17 0.00136595 0 -0.00132245 0.0069149 0 -0.00057793 0.00677262 0 2.99322e-05 0.00631028 0 0.000468831 0.00582763 0 0.00076431 0.00534305 0 0.000949991 0.0048931 0 0.00106194 0.00448687 0 0.001122 0.00412532 0 0.00114686 0.00380505 0 0.0011468 0.00352135 0 0.00112932 0.00326983 0 0.00109934 0.00304634 0 0.00106046 0.00284745 0 0.00101519 0.00267013 0 0.000965378 0.0025119 0 0.000912369 0.00237058 0 0.000857167 0.00224438 0 0.000800513 0.00213173 0 0.000742959 0.00203132 0 0.000684912 0.00194201 0 0.000626669 0.00186282 0 0.00056844 0.0017929 0 0.000510372 0.00173154 0 0.000452556 0.00167813 0 0.000395043 0.00163212 0 0.000337855 0.00159309 0 0.000280982 0.00156066 0 0.000224401 0.00153452 0 0.000168069 0.00151444 0 0.000111933 0.00150022 0 5.5932e-05 0.00149174 0 0 0.00148893 0 -0.00157216 0.00579546 0 -0.00108003 0.00559011 0 -0.000644884 0.0054015 0 -0.00028144 0.00513382 0 7.75087e-06 0.00484218 0 0.000230324 0.00454381 0 0.00039564 0.00425313 0 0.000514975 0.00397759 0 0.000597788 0.00372096 0 0.000652173 0.0034846 0 0.000684399 0.00326831 0 0.00069942 0.00307128 0 0.000701035 0.00289226 0 0.0006922 0.00272995 0 0.000675199 0.00258301 0 0.000651815 0.0024502 0 0.000623442 0.00233035 0 0.000591174 0.00222241 0 0.000555875 0.00212544 0 0.000518224 0.00203859 0 0.00047876 0.00196112 0 0.000437908 0.00189236 0 0.000396001 0.00183174 0 0.000353302 0.00177875 0 0.000310015 0.00173296 0 0.000266296 0.00169398 0 0.000222268 0.00166152 0 0.000178022 0.0016353 0 0.000133626 0.00161512 0 8.91324e-05 0.00160082 0 4.45799e-05 0.00159228 0 0 0.00158945 0 -0.00169427 0.00485553 0 -0.00134278 0.00482238 0 -0.00101644 0.00469066 0 -0.000724757 0.00453558 0 -0.000472723 0.00435291 0 -0.000261372 0.00415561 0 -8.81348e-05 0.00395236 0 5.07846e-05 0.00375018 0 0.000159965 0.00355382 0 0.000243859 0.00336628 0 0.000306588 0.00318938 0 0.000351742 0.00302395 0 0.000382384 0.00287033 0 0.000401077 0.00272839 0 0.000409949 0.00259781 0 0.000410752 0.00247814 0 0.000404933 0.00236885 0 0.000393681 0.00226939 0 0.000377972 0.00217922 0 0.000358612 0.00209782 0 0.000336266 0.0020247 0 0.000311482 0.0019594 0 0.000284711 0.00190152 0 0.000256331 0.0018507 0 0.000226651 0.0018066 0 0.000195933 0.00176894 0 0.000164393 0.00173748 0 0.000132215 0.00171201 0 9.95565e-05 0.00169237 0 6.65545e-05 0.00167843 0 3.33314e-05 0.00167011 0 0 0.00166734 0 -0.00176763 0.00427039 0 -0.00149575 0.00420649 0 -0.00123836 0.0041394 0 -0.00100095 0.00403931 0 -0.000786888 0.00392011 0 -0.000597865 0.00378637 0 -0.000434097 0.0036437 0 -0.000294556 0.00349672 0 -0.000177473 0.00334919 0 -8.06677e-05 0.00320408 0 -1.83416e-06 0.00306348 0 6.12884e-05 0.00292889 0 0.000110809 0.00280125 0 0.000148636 0.00268116 0 0.000176462 0.00256889 0 0.000195763 0.00246454 0 0.000207819 0.00236804 0 0.000213731 0.00227926 0 0.000214442 0.00219799 0 0.000210759 0.002124 0 0.000203372 0.00205703 0 0.000192871 0.00199684 0 0.000179759 0.00194318 0 0.00016447 0.00189582 0 0.000147377 0.00185454 0 0.000128801 0.00181917 0 0.000109026 0.00178952 0 8.82972e-05 0.00176546 0 6.68372e-05 0.00174688 0 4.48457e-05 0.00173366 0 2.25082e-05 0.00172576 0 0 0.00172313 0 -0.00180726 0.00375125 0 -0.00158842 0.00373694 0 -0.00137864 0.00368782 0 -0.00118097 0.00362401 0 -0.000998031 0.00354408 0 -0.000831407 0.00345196 0 -0.000681879 0.00335083 0 -0.000549459 0.00324382 0 -0.000433617 0.00313366 0 -0.000333414 0.00302267 0 -0.000247675 0.00291273 0 -0.000175099 0.00280532 0 -0.000114356 0.00270157 0 -6.41499e-05 0.0026023 0 -2.3255e-05 0.00250809 0 9.45995e-06 0.00241934 0 3.50237e-05 0.00233628 0 5.43608e-05 0.00225903 0 6.82957e-05 0.00218763 0 7.75597e-05 0.00212207 0 8.2799e-05 0.00206228 0 8.45841e-05 0.00200818 0 8.34181e-05 0.00195966 0 7.9746e-05 0.00191661 0 7.39619e-05 0.00187894 0 6.64168e-05 0.00184652 0 5.74256e-05 0.00181926 0 4.72728e-05 0.00179709 0 3.6219e-05 0.00177991 0 2.45054e-05 0.00176769 0 1.23596e-05 0.00176037 0 0 0.00175794 0 -0.0018265 0.00335977 0 -0.00164461 0.00334073 0 -0.00146851 0.00331384 0 -0.00130057 0.00327132 0 -0.00114243 0.00321716 0 -0.000995413 0.00315297 0 -0.000860281 0.00308085 0 -0.000737422 0.0030028 0 -0.000626809 0.00292073 0 -0.000528127 0.00283639 0 -0.000440829 0.00275126 0 -0.000364218 0.00266663 0 -0.000297502 0.00258354 0 -0.00023985 0.00250286 0 -0.000190426 0.00242524 0 -0.000148412 0.0023512 0 -0.000113032 0.00228113 0 -8.35552e-05 0.00221528 0 -5.9307e-05 0.00215387 0 -3.96667e-05 0.002097 0 -2.40679e-05 0.00204476 0 -1.19952e-05 0.00199717 0 -2.98114e-06 0.00195424 0 3.39892e-06 0.00191596 0 7.53105e-06 0.0018823 0 9.76754e-06 0.00185323 0 1.04316e-05 0.00182871 0 9.82182e-06 0.00180871 0 8.21673e-06 0.00179319 0 5.87885e-06 0.00178212 0 3.05896e-06 0.00177549 0 0 0.00177328 0 -0.0018315 0.00301391 0 -0.00167629 0.00301131 0 -0.0015254 0.00299381 0 -0.0013801 0.00296687 0 -0.00124167 0.00293037 0 -0.00111106 0.00288576 0 -0.000988992 0.00283435 0 -0.000875879 0.00277751 0 -0.000771913 0.00271658 0 -0.000677054 0.00265283 0 -0.000591095 0.00258742 0 -0.000513688 0.00252138 0 -0.000444388 0.00245562 0 -0.000382681 0.0023909 0 -0.000328019 0.00232786 0 -0.000279834 0.00226705 0 -0.000237562 0.00220889 0 -0.000200651 0.00215372 0 -0.000168569 0.00210182 0 -0.000140813 0.00205338 0 -0.000116909 0.00200856 0 -9.6412e-05 0.00196748 0 -7.89083e-05 0.00193021 0 -6.40125e-05 0.00189681 0 -5.13655e-05 0.00186732 0 -4.06327e-05 0.00184175 0 -3.15006e-05 0.00182011 0 -2.36742e-05 0.00180241 0 -1.6874e-05 0.00178865 0 -1.08325e-05 0.00177883 0 -5.29184e-06 0.00177293 0 0 0.00177097 0 -0.00182582 0.00272544 0 -0.0016911 0.00272451 0 -0.00155938 0.00271669 0 -0.00143176 0.00270019 0 -0.00130909 0.00267631 0 -0.00119214 0.00264578 0 -0.00108144 0.0026095 0 -0.000977408 0.00256843 0 -0.000880284 0.00252352 0 -0.000790158 0.00247571 0 -0.000706989 0.00242587 0 -0.000630627 0.00237482 0 -0.000560836 0.00232331 0 -0.000497312 0.00227198 0 -0.000439704 0.00222143 0 -0.00038763 0.00217215 0 -0.000340688 0.00212456 0 -0.000298472 0.00207901 0 -0.000260577 0.00203581 0 -0.000226605 0.0019952 0 -0.000196171 0.00195738 0 -0.000168904 0.00192249 0 -0.000144449 0.00189068 0 -0.000122469 0.00186203 0 -0.000102641 0.00183662 0 -8.46608e-05 0.00181451 0 -6.82356e-05 0.00179575 0 -5.30864e-05 0.00178036 0 -3.89448e-05 0.00176838 0 -2.55512e-05 0.0017598 0 -1.26524e-05 0.00175466 0 0 0.00175294 0 -0.00181226 0.00246873 0 -0.00169336 0.00247436 0 -0.00157683 0.00247214 0 -0.00146331 0.00246362 0 -0.00135347 0.00244897 0 -0.00124786 0.00242884 0 -0.00114694 0.00240384 0 -0.00105106 0.00237467 0 -0.000960448 0.00234202 0 -0.000875251 0.00230657 0 -0.000795506 0.00226902 0 -0.000721173 0.00222999 0 -0.000652139 0.00219009 0 -0.00058823 0.00214986 0 -0.000529229 0.0021098 0 -0.000474883 0.00207036 0 -0.000424913 0.00203193 0 -0.000379025 0.00199484 0 -0.000336914 0.00195938 0 -0.000298272 0.00192582 0 -0.000262793 0.00189436 0 -0.000230175 0.00186518 0 -0.00020012 0.00183844 0 -0.000172339 0.00181424 0 -0.000146553 0.00179269 0 -0.000122489 0.00177388 0 -9.98845e-05 0.00175787 0 -7.84829e-05 0.00174471 0 -5.80351e-05 0.00173443 0 -3.82977e-05 0.00172707 0 -1.90314e-05 0.00172265 0 0 0.00172118 0 -0.00179239 0.0022435 0 -0.00168636 0.00225146 0 -0.00158204 0.00225421 0 -0.00148001 0.00225146 0 -0.00138073 0.00224373 0 -0.00128465 0.00223139 0 -0.00119212 0.00221492 0 -0.00110343 0.00219483 0 -0.00101881 0.00217162 0 -0.00093839 0.00214584 0 -0.000862259 0.00211798 0 -0.000790429 0.00208857 0 -0.000722859 0.00205807 0 -0.000659458 0.00202695 0 -0.000600095 0.00199563 0 -0.000544605 0.00196447 0 -0.000492798 0.00193384 0 -0.000444463 0.00190403 0 -0.000399373 0.00187533 0 -0.000357295 0.00184798 0 -0.000317987 0.00182218 0 -0.000281205 0.00179812 0 -0.000246706 0.00177595 0 -0.000214247 0.00175581 0 -0.000183589 0.00173781 0 -0.000154495 0.00172204 0 -0.000126733 0.00170858 0 -0.000100073 0.00169748 0 -7.42912e-05 0.00168881 0 -4.91647e-05 0.00168259 0 -2.44737e-05 0.00167884 0 0 0.00167759 0 -0.00176782 0.00204067 0 -0.00167229 0.00205169 0 -0.00157808 0.0020578 0 -0.00148557 0.00205948 0 -0.00139513 0.00205694 0 -0.00130711 0.00205052 0 -0.0012218 0.00204056 0 -0.00113944 0.00202744 0 -0.00106021 0.00201156 0 -0.000984277 0.00199333 0 -0.000911713 0.00197315 0 -0.000842565 0.00195141 0 -0.000776833 0.00192852 0 -0.000714477 0.00190483 0 -0.000655422 0.00188069 0 -0.000599564 0.00185644 0 -0.000546773 0.00183237 0 -0.0004969 0.00180875 0 -0.00044978 0.00178584 0 -0.000405233 0.00176386 0 -0.000363074 0.00174299 0 -0.000323108 0.00172343 0 -0.000285137 0.00170532 0 -0.00024896 0.0016888 0 -0.000214375 0.00167397 0 -0.000181181 0.00166094 0 -0.000149175 0.00164978 0 -0.000118158 0.00164057 0 -8.79301e-05 0.00163335 0 -5.82925e-05 0.00162817 0 -2.90481e-05 0.00162505 0 0 0.001624 0 -0.00173971 0.00185805 0 -0.00165302 0.00187067 0 -0.00156725 0.00187943 0 -0.00148275 0.00188438 0 -0.00139979 0.00188577 0 -0.00131866 0.00188383 0 -0.00123959 0.00187885 0 -0.00116278 0.00187111 0 -0.00108841 0.00186093 0 -0.00101659 0.00184861 0 -0.000947426 0.00183449 0 -0.000880971 0.00181888 0 -0.000817247 0.00180209 0 -0.000756242 0.00178443 0 -0.000697921 0.00176619 0 -0.000642218 0.00174764 0 -0.000589048 0.00172904 0 -0.000538307 0.00171062 0 -0.000489873 0.00169261 0 -0.000443613 0.0016752 0 -0.000399382 0.00165858 0 -0.000357027 0.00164291 0 -0.000316388 0.00162832 0 -0.000277302 0.00161496 0 -0.0002396 0.00160292 0 -0.000203112 0.00159231 0 -0.000167666 0.0015832 0 -0.00013309 0.00157565 0 -9.92084e-05 0.00156973 0 -6.58491e-05 0.00156548 0 -3.28376e-05 0.00156291 0 0 0.00156205 0 -0.00170919 0.00169165 0 -0.00162996 0.00170566 0 -0.00155137 0.00171624 0 -0.00147367 0.00172361 0 -0.00139711 0.00172792 0 -0.00132191 0.00172937 0 -0.00124826 0.00172818 0 -0.00117634 0.00172458 0 -0.00110629 0.00171881 0 -0.00103823 0.00171113 0 -0.000972249 0.00170178 0 -0.000908403 0.00169104 0 -0.000846729 0.00167914 0 -0.000787235 0.00166635 0 -0.000729907 0.0016529 0 -0.000674708 0.00163901 0 -0.000621584 0.00162492 0 -0.000570462 0.00161083 0 -0.000521255 0.00159692 0 -0.000473863 0.00158337 0 -0.000428175 0.00157034 0 -0.000384072 0.00155798 0 -0.000341425 0.00154643 0 -0.000300103 0.00153578 0 -0.000259967 0.00152616 0 -0.000220874 0.00151764 0 -0.00018268 0.00151031 0 -0.000145238 0.00150423 0 -0.0001084 0.00149945 0 -7.20141e-05 0.001496 0 -3.59313e-05 0.00149393 0 0 0.00149323 0 -0.00167718 0.00153943 0 -0.00160433 0.00155416 0 -0.00153187 0.00156602 0 -0.00146001 0.0015751 0 -0.00138896 0.00158154 0 -0.00131889 0.00158552 0 -0.00124998 0.00158719 0 -0.00118236 0.00158674 0 -0.00111618 0.00158437 0 -0.00105152 0.00158028 0 -0.000988475 0.00157468 0 -0.000927105 0.00156777 0 -0.000867449 0.00155977 0 -0.000809528 0.00155088 0 -0.000753341 0.00154129 0 -0.000698872 0.00153121 0 -0.000646086 0.00152081 0 -0.000594936 0.00151027 0 -0.000545358 0.00149976 0 -0.00049728 0.00148942 0 -0.000450618 0.00147941 0 -0.000405278 0.00146984 0 -0.000361159 0.00146084 0 -0.000318155 0.00145251 0 -0.000276153 0.00144494 0 -0.000235036 0.00143822 0 -0.000194683 0.00143242 0 -0.000154972 0.00142759 0 -0.000115776 0.00142379 0 -7.69679e-05 0.00142104 0 -3.84191e-05 0.00141939 0 -1.57358e-18 0.00141883 0 -0.0016445 0.00139917 0 -0.00157713 0.0014143 0 -0.00150994 0.00142692 0 -0.00144312 0.00143715 0 -0.00137683 0.00144509 0 -0.00131123 0.00145089 0 -0.00124646 0.00145467 0 -0.00118265 0.00145659 0 -0.0011199 0.00145681 0 -0.00105832 0.00145548 0 -0.000997967 0.00145279 0 -0.000938914 0.00144889 0 -0.0008812 0.00144395 0 -0.000824851 0.00143816 0 -0.000769878 0.00143167 0 -0.000716275 0.00142464 0 -0.000664025 0.00141724 0 -0.000613097 0.0014096 0 -0.000563447 0.00140187 0 -0.000515021 0.00139418 0 -0.000467758 0.00138666 0 -0.000421586 0.00137941 0 -0.000376425 0.00137255 0 -0.000332191 0.00136615 0 -0.000288793 0.00136032 0 -0.000246135 0.00135511 0 -0.000204119 0.0013506 0 -0.000162642 0.00134684 0 -0.000121599 0.00134387 0 -8.08834e-05 0.00134172 0 -4.03868e-05 0.00134042 0 -9.51789e-18 0.00133999 0 -0.00161181 0.00126928 0 -0.00154916 0.00128443 0 -0.00148653 0.00129742 0 -0.00142407 0.00130834 0 -0.00136192 0.00131727 0 -0.00130022 0.00132433 0 -0.00123909 0.00132963 0 -0.00117864 0.00133328 0 -0.00111896 0.00133542 0 -0.00106014 0.00133618 0 -0.00100225 0.0013357 0 -0.000945341 0.00133412 0 -0.000889465 0.00133158 0 -0.000834648 0.00132822 0 -0.000780907 0.00132418 0 -0.000728246 0.00131959 0 -0.000676658 0.00131458 0 -0.000626125 0.00130928 0 -0.000576619 0.00130381 0 -0.0005281 0.00129827 0 -0.000480524 0.00129279 0 -0.000433836 0.00128745 0 -0.000387975 0.00128234 0 -0.000342875 0.00127755 0 -0.000298463 0.00127315 0 -0.000254663 0.00126921 0 -0.000211394 0.00126578 0 -0.000168571 0.00126291 0 -0.00012611 0.00126063 0 -8.39214e-05 0.00125898 0 -4.1915e-05 0.00125799 0 -1.21505e-18 0.00125765 0 -0.00157966 0.00114831 0 -0.0015211 0.00116322 0 -0.00146242 0.00117625 0 -0.00140375 0.00118747 0 -0.00134521 0.00119698 0 -0.00128692 0.00120484 0 -0.00122899 0.00121116 0 -0.0011715 0.00121602 0 -0.00111455 0.00121955 0 -0.00105822 0.00122185 0 -0.00100256 0.00122303 0 -0.000947627 0.0012232 0 -0.000893471 0.00122249 0 -0.00084012 0.00122101 0 -0.000787595 0.00121887 0 -0.000735906 0.00121619 0 -0.000685055 0.00121308 0 -0.000635033 0.00120963 0 -0.000585822 0.00120596 0 -0.000537397 0.00120216 0 -0.000489726 0.00119832 0 -0.000442767 0.00119453 0 -0.000396475 0.00119086 0 -0.000350799 0.00118738 0 -0.000305681 0.00118416 0 -0.000261061 0.00118125 0 -0.000216875 0.0011787 0 -0.000173054 0.00117656 0 -0.000129529 0.00117487 0 -8.6228e-05 0.00117363 0 -4.30764e-05 0.00117288 0 0 0.00117263 0 -0.00154852 0.00103508 0 -0.0014935 0.0010495 0 -0.00143825 0.0010623 0 -0.00138288 0.00107353 0 -0.00132749 0.00108325 0 -0.00127219 0.00109154 0 -0.00121706 0.00109848 0 -0.0011622 0.00110414 0 -0.00110768 0.00110862 0 -0.00105357 0.00111199 0 -0.000999926 0.00111437 0 -0.000946802 0.00111583 0 -0.00089424 0.00111648 0 -0.000842271 0.00111642 0 -0.00079092 0.00111573 0 -0.000740201 0.00111452 0 -0.000690122 0.00111288 0 -0.000640681 0.00111088 0 -0.000591869 0.00110863 0 -0.000543671 0.0011062 0 -0.000496064 0.00110367 0 -0.00044902 0.00110111 0 -0.000402505 0.00109859 0 -0.000356479 0.00109616 0 -0.0003109 0.00109389 0 -0.00026572 0.00109182 0 -0.000220888 0.00109 0 -0.000176351 0.00108845 0 -0.000132052 0.00108722 0 -8.79338e-05 0.00108633 0 -4.39365e-05 0.00108578 0 0 0.0010856 0 -0.00151878 0.000928553 0 -0.00146684 0.000942298 0 -0.00141457 0.000954634 0 -0.00136206 0.000965607 0 -0.00130942 0.000975272 0 -0.00125673 0.000983685 0 -0.00120408 0.00099091 0 -0.00115153 0.000997015 0 -0.00109916 0.00100207 0 -0.00104703 0.00100615 0 -0.000995202 0.00100934 0 -0.000943718 0.00101171 0 -0.000892618 0.00101334 0 -0.000841937 0.00101431 0 -0.0007917 0.0010147 0 -0.000741925 0.00101459 0 -0.000692623 0.00101405 0 -0.000643799 0.00101317 0 -0.00059545 0.00101201 0 -0.000547569 0.00101064 0 -0.000500142 0.00100913 0 -0.00045315 0.00100753 0 -0.000406568 0.00100591 0 -0.000360368 0.00100432 0 -0.000314518 0.0010028 0 -0.000268982 0.0010014 0 -0.00022372 0.00100015 0 -0.000178691 0.000999084 0 -0.000133851 0.000998228 0 -8.91535e-05 0.000997602 0 -4.45526e-05 0.00099722 0 0 0.000997092 0 -0.00149076 0.000827832 0 -0.00144149 0.00084074 0 -0.0013918 0.000852427 0 -0.00134179 0.000862934 0 -0.00129154 0.000872303 0 -0.00124113 0.000880583 0 -0.00119064 0.000887826 0 -0.00114012 0.000894088 0 -0.00108966 0.000899428 0 -0.00103929 0.000903908 0 -0.000989086 0.00090759 0 -0.000939078 0.00091054 0 -0.000889311 0.000912824 0 -0.000839815 0.000914509 0 -0.00079062 0.00091566 0 -0.000741743 0.000916342 0 -0.000693202 0.00091662 0 -0.000645003 0.000916557 0 -0.000597151 0.000916212 0 -0.000549643 0.000915643 0 -0.000502473 0.000914906 0 -0.000455629 0.000914051 0 -0.000409096 0.000913127 0 -0.000362852 0.000912178 0 -0.000316876 0.000911243 0 -0.00027114 0.000910359 0 -0.000225616 0.000909558 0 -0.000180272 0.000908865 0 -0.000135074 0.000908303 0 -8.9987e-05 0.000907889 0 -4.49747e-05 0.000907636 0 0 0.000907551 0 -0.00146475 0.000732135 0 -0.00141777 0.00074407 0 -0.00137032 0.000754954 0 -0.00132247 0.000764818 0 -0.00127429 0.000773699 0 -0.00122587 0.000781636 0 -0.00117726 0.000788672 0 -0.00112853 0.000794854 0 -0.00107973 0.00080023 0 -0.00103092 0.000804851 0 -0.000982156 0.000808769 0 -0.00093347 0.000812038 0 -0.000884902 0.000814711 0 -0.000836486 0.000816845 0 -0.00078825 0.000818494 0 -0.000740215 0.000819712 0 -0.000692398 0.000820552 0 -0.000644813 0.000821066 0 -0.000597465 0.000821305 0 -0.000550359 0.000821317 0 -0.000503493 0.000821147 0 -0.000456862 0.000820839 0 -0.000410456 0.000820433 0 -0.000364262 0.000819967 0 -0.000318266 0.000819473 0 -0.000272449 0.000818983 0 -0.00022679 0.000818523 0 -0.000181266 0.000818115 0 -0.000135851 0.000817778 0 -9.05203e-05 0.000817527 0 -4.5246e-05 0.000817372 0 -1.9499e-18 0.00081732 0 -0.00144095 0.000640764 0 -0.00139595 0.000651615 0 -0.00135042 0.000661565 0 -0.00130443 0.000670642 0 -0.00125804 0.000678874 0 -0.00121133 0.000686296 0 -0.00116436 0.000692941 0 -0.00111717 0.000698848 0 -0.00106984 0.000704056 0 -0.00102239 0.000708608 0 -0.000974893 0.000712546 0 -0.000927376 0.000715914 0 -0.000879878 0.000718758 0 -0.000832432 0.000721122 0 -0.000785066 0.000723051 0 -0.000737804 0.00072459 0 -0.000690664 0.000725784 0 -0.000643661 0.000726674 0 -0.000596807 0.000727303 0 -0.000550109 0.000727711 0 -0.000503568 0.000727936 0 -0.000457186 0.000728013 0 -0.000410958 0.000727977 0 -0.000364879 0.000727858 0 -0.000318938 0.000727684 0 -0.000273123 0.000727481 0 -0.000227422 0.000727271 0 -0.000181817 0.000727073 0 -0.000136292 0.000726903 0 -9.08268e-05 0.000726773 0 -4.54031e-05 0.000726691 0 -4.76029e-18 0.000726663 0 -0.00141956 0.000553093 0 -0.00137625 0.000562767 0 -0.00133235 0.000571677 0 -0.00128795 0.000579847 0 -0.0012431 0.0005873 0 -0.00119786 0.000594064 0 -0.00115228 0.000600166 0 -0.00110643 0.000605637 0 -0.00106035 0.000610511 0 -0.00101409 0.000614822 0 -0.000967691 0.000618603 0 -0.000921195 0.000621891 0 -0.000874638 0.000624724 0 -0.00082805 0.000627137 0 -0.000781461 0.000629167 0 -0.000734895 0.000630851 0 -0.000688372 0.000632225 0 -0.00064191 0.000633325 0 -0.000595522 0.000634183 0 -0.000549218 0.000634834 0 -0.000503005 0.000635309 0 -0.000456887 0.000635637 0 -0.000410865 0.000635846 0 -0.000364937 0.000635961 0 -0.000319098 0.000636006 0 -0.000273343 0.000636002 0 -0.000227663 0.000635967 0 -0.000182048 0.000635916 0 -0.000136488 0.000635863 0 -9.09683e-05 0.000635818 0 -4.54771e-05 0.000635788 0 -1.5356e-19 0.000635777 0 -0.00140075 0.000468554 0 -0.00135885 0.000476974 0 -0.00131633 0.000484758 0 -0.00127327 0.000491923 0 -0.0012297 0.00049849 0 -0.0011857 0.000504479 0 -0.00114131 0.000509914 0 -0.00109659 0.000514821 0 -0.00105158 0.000519224 0 -0.00100633 0.000523152 0 -0.000960874 0.000526632 0 -0.000915256 0.000529694 0 -0.00086951 0.000532367 0 -0.000823668 0.000534681 0 -0.000777758 0.000536665 0 -0.000731805 0.00053835 0 -0.000685832 0.000539764 0 -0.000639856 0.000540935 0 -0.000593894 0.000541892 0 -0.000547958 0.000542661 0 -0.000502058 0.000543267 0 -0.000456201 0.000543734 0 -0.000410391 0.000544086 0 -0.000364631 0.000544342 0 -0.000318921 0.000544522 0 -0.000273259 0.000544643 0 -0.000227641 0.000544719 0 -0.000182063 0.000544763 0 -0.000136517 0.000544787 0 -9.09966e-05 0.000544798 0 -4.54939e-05 0.000544802 0 0 0.000544803 0 -0.00138463 0.000386626 0 -0.0013439 0.00039373 0 -0.00130252 0.000400316 0 -0.00126056 0.000406398 0 -0.00121806 0.000411991 0 -0.00117509 0.000417113 0 -0.00113168 0.000421782 0 -0.0010879 0.000426018 0 -0.00104378 0.000429841 0 -0.000999368 0.000433273 0 -0.000954704 0.000436336 0 -0.000909823 0.000439053 0 -0.000864762 0.000441447 0 -0.000819552 0.000443543 0 -0.000774221 0.000445363 0 -0.000728794 0.000446931 0 -0.000683295 0.00044827 0 -0.000637744 0.000449402 0 -0.000592157 0.00045035 0 -0.00054655 0.000451135 0 -0.000500935 0.000451776 0 -0.000455321 0.000452293 0 -0.000409715 0.000452704 0 -0.000364124 0.000453025 0 -0.00031855 0.000453272 0 -0.000272995 0.000453457 0 -0.00022746 0.000453593 0 -0.000181943 0.000453691 0 -0.000136442 0.000453758 0 -9.09541e-05 0.000453801 0 -4.54748e-05 0.000453825 0 0 0.000453832 0 -0.00137131 0.000306821 0 -0.00133151 0.00031256 0 -0.00129105 0.000317892 0 -0.00124997 0.000322828 0 -0.00120833 0.00032738 0 -0.00116618 0.000331561 0 -0.00112357 0.000335385 0 -0.00108054 0.000338867 0 -0.00103714 0.000342023 0 -0.000993414 0.000344869 0 -0.00094939 0.000347423 0 -0.00090511 0.000349702 0 -0.000860608 0.000351724 0 -0.000815915 0.000353507 0 -0.000771059 0.000355069 0 -0.000726068 0.000356428 0 -0.000680963 0.000357601 0 -0.000635767 0.000358606 0 -0.000590498 0.000359461 0 -0.000545172 0.00036018 0 -0.000499803 0.000360779 0 -0.000454402 0.000361274 0 -0.000408979 0.000361678 0 -0.000363543 0.000362004 0 -0.000318099 0.000362263 0 -0.000272652 0.000362465 0 -0.000227204 0.000362621 0 -0.000181759 0.000362737 0 -0.000136316 0.000362821 0 -9.08753e-05 0.000362877 0 -4.5437e-05 0.000362909 0 0 0.00036292 0 -0.00136087 0.000228684 0 -0.00132179 0.00023302 0 -0.00128202 0.000237055 0 -0.00124162 0.000240798 0 -0.00120064 0.000244256 0 -0.00115912 0.000247439 0 -0.00111712 0.000250357 0 -0.00107468 0.000253022 0 -0.00103183 0.000255444 0 -0.000988625 0.000257637 0 -0.000945096 0.000259611 0 -0.000901281 0.00026138 0 -0.000857212 0.000262957 0 -0.000812922 0.000264355 0 -0.000768438 0.000265587 0 -0.000723788 0.000266665 0 -0.000678994 0.000267604 0 -0.000634079 0.000268414 0 -0.000589063 0.00026911 0 -0.000543962 0.000269701 0 -0.000498793 0.0002702 0 -0.000453567 0.000270618 0 -0.000408296 0.000270964 0 -0.000362991 0.000271247 0 -0.000317659 0.000271477 0 -0.000272307 0.00027166 0 -0.00022694 0.000271803 0 -0.000181562 0.000271912 0 -0.000136177 0.000271992 0 -9.07872e-05 0.000272047 0 -4.53943e-05 0.000272078 0 0 0.000272089 0 -0.00135337 0.000151779 0 -0.00131479 0.000154685 0 -0.00127552 0.000157392 0 -0.0012356 0.000159906 0 -0.00119508 0.000162232 0 -0.00115401 0.000164376 0 -0.00111244 0.000166345 0 -0.00107041 0.000168146 0 -0.00102796 0.000169787 0 -0.000985122 0.000171276 0 -0.000941945 0.00017262 0 -0.00089846 0.000173827 0 -0.000854701 0.000174907 0 -0.000810699 0.000175867 0 -0.000766481 0.000176716 0 -0.000722076 0.000177463 0 -0.000677506 0.000178116 0 -0.000632795 0.000178683 0 -0.000587962 0.000179172 0 -0.000543026 0.000179591 0 -0.000498003 0.000179947 0 -0.000452907 0.000180247 0 -0.00040775 0.000180498 0 -0.000362544 0.000180705 0 -0.000317298 0.000180875 0 -0.00027202 0.000181011 0 -0.000226717 0.000181119 0 -0.000181394 0.000181202 0 -0.000136057 0.000181264 0 -9.07101e-05 0.000181306 0 -4.53566e-05 0.000181331 0 0 0.000181339 0 -0.00134885 7.56876e-05 0 -0.00131058 7.71448e-05 0 -0.00127159 7.85034e-05 0 -0.00123196 7.97659e-05 0 -0.00119172 8.09349e-05 0 -0.00115092 8.20136e-05 0 -0.00110961 8.30053e-05 0 -0.00106782 8.39133e-05 0 -0.0010256 8.47415e-05 0 -0.000982987 8.54937e-05 0 -0.000940021 8.61737e-05 0 -0.000896734 8.67858e-05 0 -0.000853161 8.7334e-05 0 -0.000809331 8.78226e-05 0 -0.000765273 8.82556e-05 0 -0.000721015 8.86373e-05 0 -0.000676581 8.89719e-05 0 -0.000631993 8.92633e-05 0 -0.000587272 8.95154e-05 0 -0.000542436 8.97321e-05 0 -0.000497502 8.9917e-05 0 -0.000452486 9.00735e-05 0 -0.000407399 9.02048e-05 0 -0.000362255 9.03139e-05 0 -0.000317063 9.04036e-05 0 -0.000271831 9.04761e-05 0 -0.000226569 9.05338e-05 0 -0.000181282 9.05785e-05 0 -0.000135977 9.06116e-05 0 -9.06583e-05 9.06344e-05 0 -4.53313e-05 9.06477e-05 0 0 9.06521e-05 0 -0.00134735 -0 0 -0.00130917 -1.31773e-17 0 -0.00127028 -1.05318e-17 0 -0.00123074 -0 0 -0.0011906 -1.87798e-19 0 -0.00114988 -1.38413e-17 0 -0.00110865 -6.83096e-18 0 -0.00106695 -0 0 -0.00102481 -0 0 -0.00098227 -0 0 -0.000939374 -0 0 -0.000896153 -0 0 -0.000852641 -0 0 -0.000808869 1.34763e-18 0 -0.000764865 1.08355e-17 0 -0.000720656 1.81875e-18 0 -0.000676267 -0 0 -0.00063172 -0 0 -0.000587037 1.87506e-18 0 -0.000542235 7.57465e-18 0 -0.000497331 5.93248e-19 0 -0.000452341 -0 0 -0.000407279 -0 0 -0.000362155 -0 0 -0.000316981 -0 0 -0.000271766 -0 0 -0.000226517 -0 0 -0.000181243 -0 0 -0.000135949 -0 0 -9.06401e-05 -0 0 -4.53223e-05 -0 0 0 -0 0 </DataArray> 
</PointData> 
<Points> 
<DataArray type="Float32" NumberOfComponents="3"> 