<?xml version="1.0"?> 
<VTKFile type="StructuredGrid" version="0.1"> 
<StructuredGrid WholeExtent="0 31 0 31 0 0"> 
<Piece Extent="0 31 0 31 0 0"> 
<PointData>
<DataArray type="Float32" Name="B" format="ascii" NumberOfComponents="3"> 
-0.00214459 -0 0 -0.00206606 -0 0 -0.00198737 -0 0 -0.00190867 -0 0 -0.00183012 -0 0 -0.00175185 -0 0 -0.001674 -0 0 -0.00159668 -0 0 -0.00152 -0 0 -0.00144406 -0 0 -0.00136893 -0 0 -0.0012947 -0 0 -0.00122141 -0 0 -0.00114911 -0 0 -0.00107784 -0 0 -0.0010076 -0 0 -0.000938414 -0 0 -0.000870269 -0 0 -0.00080315 -0 0 -0.000737029 -0 0 -0.00067187 -0 0 -0.000607625 -0 0 -0.00054424 -0 0 -0.00048165 -0 0 -0.000419786 -0 0 -0.000358571 -0 0 -0.000297922 -0 0 -0.000237752 -0 0 -0.00017797 -0 0 -0.000118482 -0 0 -5.91917e-05 -0 0 0 -0 0 -0.00214488 -0.000104594 0 -0.0020662 -0.000104915 0 -0.00198737 -0.000105021 0 -0.00190854 -0.000104922 0 -0.00182986 -0.00010463 0 -0.00175148 -0.000104158 0 -0.00167352 -0.000103519 0 -0.00159611 -0.000102729 0 -0.00151934 -0.000101803 0 -0.00144333 -0.000100758 0 -0.00136814 -9.96115e-05 0 -0.00129385 -9.83798e-05 0 -0.00122053 -9.70806e-05 0 -0.0011482 -9.5731e-05 0 -0.00107691 -9.4348e-05 0 -0.00100667 -9.29483e-05 0 -0.000937485 -9.15479e-05 0 -0.000869355 -9.01624e-05 0 -0.00080226 -8.88064e-05 0 -0.000736173 -8.74938e-05 0 -0.000671055 -8.62376e-05 0 -0.00060686 -8.505e-05 0 -0.000543531 -8.39419e-05 0 -0.000481004 -8.29235e-05 0 -0.000419209 -8.20037e-05 0 -0.000358067 -8.11906e-05 0 -0.000297495 -8.04908e-05 0 -0.000237407 -7.99104e-05 0 -0.000177709 -7.94541e-05 0 -0.000118307 -7.91255e-05 0 -5.91036e-05 -7.89273e-05 0 -1.57432e-18 -7.8861e-05 0 -0.00214574 -0.000209587 0 -0.00206662 -0.000210213 0 -0.00198736 -0.000210407 0 -0.00190813 -0.000210189 0 -0.00182908 -0.000209581 0 -0.00175035 -0.000208611 0 -0.00167207 -0.000207307 0 -0.00159437 -0.000205698 0 -0.00151735 -0.000203818 0 -0.00144111 -0.000201698 0 -0.00136574 -0.000199374 0 -0.0012913 -0.00019688 0 -0.00121786 -0.000194251 0 -0.00114545 -0.000191521 0 -0.00107411 -0.000188726 0 -0.00100385 -0.000185898 0 -0.000934681 -0.000183069 0 -0.000866596 -0.000180272 0 -0.000799575 -0.000177535 0 -0.000733589 -0.000174887 0 -0.000668598 -0.000172353 0 -0.000604552 -0.000169958 0 -0.000541393 -0.000167724 0 -0.000479056 -0.000165671 0 -0.000417467 -0.000163818 0 -0.000356546 -0.000162179 0 -0.000296209 -0.000160769 0 -0.000236365 -0.0001596 0 -0.00017692 -0.000158681 0 -0.000117777 -0.000158019 0 -5.88378e-05 -0.00015762 0 0 -0.000157486 0 -0.00214713 -0.000315381 0 -0.00206727 -0.000316282 0 -0.00198731 -0.000316527 0 -0.00190741 -0.000316147 0 -0.00182773 -0.000315179 0 -0.00174841 -0.00031366 0 -0.0016696 -0.000311636 0 -0.00159141 -0.000309152 0 -0.00151397 -0.000306257 0 -0.00143736 -0.000303002 0 -0.00136167 -0.000299438 0 -0.00128698 -0.00029562 0 -0.00121334 -0.000291599 0 -0.00114079 -0.000287428 0 -0.00106937 -0.000283161 0 -0.000999087 -0.000278847 0 -0.000929947 -0.000274535 0 -0.000861941 -0.000270273 0 -0.000795047 -0.000266106 0 -0.000729233 -0.000262075 0 -0.000664455 -0.000258221 0 -0.000600662 -0.000254579 0 -0.000537792 -0.000251183 0 -0.000475775 -0.000248064 0 -0.000414534 -0.000245248 0 -0.000353987 -0.00024276 0 -0.000294044 -0.000240619 0 -0.000234612 -0.000238844 0 -0.000175593 -0.000237449 0 -0.000116887 -0.000236444 0 -5.83908e-05 -0.000235838 0 0 -0.000235636 0 -0.00214902 -0.000422391 0 -0.00206811 -0.000423519 0 -0.00198714 -0.000423759 0 -0.00190629 -0.000423155 0 -0.00182572 -0.000421754 0 -0.00174557 -0.000419611 0 -0.001666 -0.000416784 0 -0.00158714 -0.000413338 0 -0.00150909 -0.000409338 0 -0.00143196 -0.000404854 0 -0.00135583 -0.000399957 0 -0.00128078 -0.000394719 0 -0.00120687 -0.000389212 0 -0.00113413 -0.000383508 0 -0.0010626 -0.000377678 0 -0.000992288 -0.00037179 0 -0.000923193 -0.000365911 0 -0.000855304 -0.000360105 0 -0.000788595 -0.000354432 0 -0.000723029 -0.000348949 0 -0.00065856 -0.000343709 0 -0.000595129 -0.000338761 0 -0.000532671 -0.00033415 0 -0.000471111 -0.000329916 0 -0.000410367 -0.000326095 0 -0.000350351 -0.00032272 0 -0.000290969 -0.000319818 0 -0.000232122 -0.000317412 0 -0.000173709 -0.000315521 0 -0.000115623 -0.00031416 0 -5.77562e-05 -0.000313339 0 0 -0.000313064 0 -0.00215133 -0.000531047 0 -0.00206905 -0.000532337 0 -0.00198677 -0.000532496 0 -0.00190467 -0.00053158 0 -0.00182293 -0.00052965 0 -0.00174171 -0.000526777 0 -0.00166116 -0.000523036 0 -0.0015814 -0.000518508 0 -0.00150257 -0.00051328 0 -0.00142476 -0.000507441 0 -0.00134807 -0.000501082 0 -0.00127256 -0.000494296 0 -0.0011983 -0.000487175 0 -0.00112533 -0.000479811 0 -0.00105366 -0.000472296 0 -0.000983318 -0.000464716 0 -0.000914291 -0.000457157 0 -0.000846564 -0.000449699 0 -0.000780105 -0.00044242 0 -0.000714873 -0.00043539 0 -0.000650814 -0.000428677 0 -0.000587864 -0.000422343 0 -0.000525951 -0.000416444 0 -0.000464994 -0.000411031 0 -0.000404904 -0.000406149 0 -0.000345586 -0.000401838 0 -0.00028694 -0.000398133 0 -0.000228862 -0.000395062 0 -0.000171241 -0.000392649 0 -0.000113967 -0.000390913 0 -5.69255e-05 -0.000389866 0 0 -0.000389516 0 -0.00215398 -0.000641798 0 -0.00206998 -0.000643168 0 -0.00198606 -0.00064315 0 -0.00190241 -0.00064181 0 -0.00181922 -0.000639227 0 -0.00173666 -0.000635488 0 -0.00165488 -0.000630687 0 -0.00157402 -0.000624925 0 -0.00149422 -0.000618311 0 -0.00141558 -0.000610953 0 -0.00133819 -0.000602967 0 -0.00126213 -0.000594467 0 -0.00118745 -0.000585568 0 -0.00111419 -0.000576384 0 -0.00104237 -0.000567027 0 -0.000972001 -0.000557605 0 -0.000903074 -0.000548221 0 -0.000835562 -0.000538975 0 -0.00076943 -0.00052996 0 -0.000704627 -0.000521265 0 -0.000641092 -0.00051297 0 -0.000578753 -0.000505149 0 -0.000517529 -0.000497872 0 -0.000457332 -0.000491199 0 -0.000398065 -0.000485185 0 -0.000339624 -0.000479877 0 -0.000281902 -0.000475318 0 -0.000224785 -0.00047154 0 -0.000168157 -0.000468573 0 -0.000111899 -0.000466439 0 -5.58874e-05 -0.000465152 0 0 -0.000464721 0 -0.00215685 -0.000755125 0 -0.00207078 -0.000756473 0 -0.00198487 -0.000756156 0 -0.00189934 -0.000754254 0 -0.00181439 -0.000750864 0 -0.0017302 -0.00074609 0 -0.00164694 -0.000740048 0 -0.00156477 -0.000732862 0 -0.0014838 -0.000724662 0 -0.00140416 -0.000715584 0 -0.00132595 -0.000705765 0 -0.00124922 -0.000695347 0 -0.00117405 -0.000684467 0 -0.00110047 -0.000673264 0 -0.00102849 -0.000661872 0 -0.000958118 -0.000650422 0 -0.000889333 -0.000639037 0 -0.000822105 -0.000627837 0 -0.000756388 -0.000616931 0 -0.000692122 -0.000606425 0 -0.000629239 -0.000596415 0 -0.000567655 -0.000586987 0 -0.00050728 -0.000578223 0 -0.000448015 -0.000570193 0 -0.000389754 -0.000562962 0 -0.000332383 -0.000556585 0 -0.000275786 -0.000551109 0 -0.000219839 -0.000546575 0 -0.000164416 -0.000543015 0 -0.00010939 -0.000540455 0 -5.46285e-05 -0.000538911 0 0 -0.000538395 0 -0.00215981 -0.000871543 0 -0.00207126 -0.000872745 0 -0.001983 -0.000871982 0 -0.00189524 -0.00086935 0 -0.0018082 -0.000864963 0 -0.00172209 -0.000858949 0 -0.00163708 -0.000851445 0 -0.00155334 -0.000842602 0 -0.00147101 -0.000832576 0 -0.00139021 -0.00082153 0 -0.00131103 -0.000809631 0 -0.00123356 -0.000797045 0 -0.00115783 -0.000783939 0 -0.0010839 -0.000770478 0 -0.00101176 -0.00075682 0 -0.000941404 -0.00074312 0 -0.000872818 -0.000729523 0 -0.000805955 -0.00071617 0 -0.000740759 -0.000703189 0 -0.000677158 -0.000690702 0 -0.000615071 -0.00067882 0 -0.000554404 -0.000667643 0 -0.000495054 -0.000657264 0 -0.000436911 -0.000647765 0 -0.000379856 -0.000639218 0 -0.000323766 -0.000631686 0 -0.000268511 -0.000625223 0 -0.000213958 -0.000619875 0 -0.000159971 -0.000615677 0 -0.000106409 -0.000612659 0 -5.31332e-05 -0.000610841 0 0 -0.000610233 0 -0.0021627 -0.00099161 0 -0.00207125 -0.00099252 0 -0.00198021 -0.000991136 0 -0.00188984 -0.000987572 0 -0.00180036 -0.000981962 0 -0.001712 -0.000974459 0 -0.00162496 -0.000965228 0 -0.00153941 -0.000954447 0 -0.0014555 -0.000942305 0 -0.00137336 -0.000928996 0 -0.00129309 -0.000914716 0 -0.00121476 -0.000899666 0 -0.00113843 -0.000884042 0 -0.00106412 -0.000868038 0 -0.000991829 -0.00085184 0 -0.000921546 -0.000835629 0 -0.000853234 -0.000819574 0 -0.000786838 -0.000803837 0 -0.000722287 -0.000788566 0 -0.000659498 -0.0007739 0 -0.000598374 -0.000759965 0 -0.000538807 -0.000746877 0 -0.000480681 -0.000734738 0 -0.00042387 -0.00072364 0 -0.000368243 -0.000713665 0 -0.000313663 -0.000704882 0 -0.000259987 -0.000697353 0 -0.000207072 -0.000691125 0 -0.000154766 -0.00068624 0 -0.000102921 -0.000682729 0 -5.13836e-05 -0.000680614 0 0 -0.000679907 0 -0.00216533 -0.00111594 0 -0.0020705 -0.00111638 0 -0.00197624 -0.00111417 0 -0.00188283 -0.00110944 0 -0.00179052 -0.00110233 0 -0.00169956 -0.00109305 0 -0.00161017 -0.00108177 0 -0.00152254 -0.00106872 0 -0.00143684 -0.00105411 0 -0.00135318 -0.00103818 0 -0.00127168 -0.00102117 0 -0.00119242 -0.00100331 0 -0.00111543 -0.000984819 0 -0.00104073 -0.000965938 0 -0.000968327 -0.000946881 0 -0.000898178 -0.000927855 0 -0.000830237 -0.000909057 0 -0.000764433 -0.00089067 0 -0.000700679 -0.000872863 0 -0.000638874 -0.000855793 0 -0.000578905 -0.000839602 0 -0.000520646 -0.000824417 0 -0.000463966 -0.000810355 0 -0.000408721 -0.000797515 0 -0.000354766 -0.000785988 0 -0.000301949 -0.000775848 0 -0.000250112 -0.000767163 0 -0.000199098 -0.000759984 0 -0.000148744 -0.000754357 0 -9.88859e-05 -0.000750314 0 -4.93599e-05 -0.000747879 0 0 -0.000747065 0 -0.00216747 -0.0012452 0 -0.00206875 -0.00124499 0 -0.00197077 -0.00124171 0 -0.00187384 -0.00123552 0 -0.00177827 -0.0012266 0 -0.00168433 -0.00121517 0 -0.00159225 -0.00120147 0 -0.00150225 -0.00118575 0 -0.0014145 -0.00116827 0 -0.00132915 -0.00114931 0 -0.0012463 -0.00112914 0 -0.00116601 -0.00110805 0 -0.00108833 -0.00108629 0 -0.00101327 -0.00106415 0 -0.000940801 -0.00104186 0 -0.000870879 -0.00101967 0 -0.000803434 -0.000997804 0 -0.000738377 -0.000976464 0 -0.0006756 -0.000955844 0 -0.000614983 -0.000936117 0 -0.00055639 -0.000917442 0 -0.000499678 -0.000899959 0 -0.000444694 -0.000883793 0 -0.000391278 -0.000869054 0 -0.000339266 -0.000855837 0 -0.000288489 -0.000844226 0 -0.000238775 -0.000834288 0 -0.00018995 -0.000826082 0 -0.000141838 -0.000819653 0 -9.42605e-05 -0.000815036 0 -4.70409e-05 -0.000812256 0 0 -0.000811328 0 -0.00216888 -0.00138016 0 -0.00206567 -0.00137906 0 -0.0019634 -0.00137443 0 -0.00186244 -0.00136645 0 -0.00176312 -0.00135534 0 -0.00166576 -0.00134135 0 -0.00157062 -0.00132478 0 -0.00147794 -0.00130591 0 -0.0013879 -0.00128506 0 -0.00130066 -0.00126257 0 -0.00121633 -0.00123876 0 -0.00113496 -0.00121395 0 -0.00105658 -0.00118846 0 -0.000981186 -0.0011626 0 -0.000908738 -0.00113666 0 -0.000839167 -0.00111091 0 -0.000772379 -0.0010856 0 -0.00070826 -0.00106097 0 -0.000646678 -0.00103723 0 -0.000587487 -0.00101457 0 -0.000530529 -0.000993157 0 -0.000475635 -0.000973152 0 -0.000422632 -0.000954687 0 -0.000371338 -0.000937879 0 -0.000321569 -0.000922829 0 -0.000273139 -0.000909622 0 -0.000225858 -0.000898331 0 -0.000179535 -0.000889016 0 -0.000133979 -0.000881723 0 -8.89996e-05 -0.000876489 0 -4.44038e-05 -0.000873338 0 0 -0.000872286 0 -0.00216929 -0.00152168 0 -0.0020609 -0.00151943 0 -0.0019537 -0.00151312 0 -0.00184809 -0.00150295 0 -0.00174448 -0.0014892 0 -0.00164322 -0.00147215 0 -0.0015446 -0.00145216 0 -0.0014489 -0.00142958 0 -0.00135632 -0.00140479 0 -0.001267 -0.00137818 0 -0.00118107 -0.00135014 0 -0.00109856 -0.00132105 0 -0.0010195 -0.00129129 0 -0.000943854 -0.0012612 0 -0.000871551 -0.00123112 0 -0.000802498 -0.00120135 0 -0.000736571 -0.00117219 0 -0.000673626 -0.00114389 0 -0.000613501 -0.00111668 0 -0.000556019 -0.00109078 0 -0.000500994 -0.00106637 0 -0.00044823 -0.0010436 0 -0.000397528 -0.00102263 0 -0.000348685 -0.00100357 0 -0.000301493 -0.000986536 0 -0.000255745 -0.000971607 0 -0.000211235 -0.000958858 0 -0.000167755 -0.00094835 0 -0.000125097 -0.000940129 0 -8.30561e-05 -0.000934233 0 -4.14255e-05 -0.000930685 0 0 -0.000929501 0 -0.00216837 -0.00167074 0 -0.00205402 -0.00166705 0 -0.00194113 -0.00165868 0 -0.00183019 -0.00164586 0 -0.00172166 -0.00162892 0 -0.00161594 -0.00160821 0 -0.00151339 -0.00158415 0 -0.0014143 -0.00155718 0 -0.00131889 -0.00152775 0 -0.00122732 -0.00149633 0 -0.00113969 -0.00146338 0 -0.00105604 -0.00142936 0 -0.000976346 -0.00139468 0 -0.00090056 -0.00135977 0 -0.000828576 -0.001325 0 -0.000760261 -0.00129072 0 -0.000695455 -0.00125724 0 -0.000633975 -0.00122485 0 -0.00057562 -0.00119381 0 -0.00052018 -0.00116434 0 -0.000467435 -0.00113663 0 -0.000417158 -0.00111086 0 -0.000369121 -0.00108716 0 -0.000323094 -0.00106567 0 -0.000278847 -0.00104649 0 -0.000236153 -0.00102971 0 -0.000194783 -0.0010154 0 -0.000154513 -0.00100361 0 -0.00011512 -0.0009944 0 -7.63829e-05 -0.000987797 0 -3.80824e-05 -0.000983826 0 0 -0.000982501 0 -0.00216579 -0.00182849 0 -0.00204455 -0.00182305 0 -0.00192509 -0.00181216 0 -0.00180799 -0.00179613 0 -0.0016938 -0.00177534 0 -0.001583 -0.00175024 0 -0.001476 -0.00172133 0 -0.00137312 -0.00168915 0 -0.00127461 -0.00165425 0 -0.00118061 -0.00161719 0 -0.00109122 -0.00157853 0 -0.00100644 -0.0015388 0 -0.000926234 -0.00149849 0 -0.00085049 -0.00145808 0 -0.000779066 -0.001418 0 -0.000711779 -0.00137863 0 -0.00064842 -0.00134034 0 -0.00058876 -0.00130342 0 -0.000532555 -0.00126814 0 -0.00047955 -0.00123475 0 -0.000429486 -0.00120345 0 -0.000382103 -0.0011744 0 -0.00033714 -0.00114776 0 -0.000294339 -0.00112365 0 -0.000253444 -0.00110218 0 -0.000214205 -0.00108341 0 -0.000176375 -0.00106743 0 -0.000139712 -0.00105429 0 -0.000103977 -0.00104403 0 -6.89341e-05 -0.00103668 0 -3.43522e-05 -0.00103226 0 1.71482e-18 -0.00103079 0 -0.00216118 -0.00199636 0 -0.00203193 -0.00198875 0 -0.00190481 -0.00197481 0 -0.00178058 -0.00195488 0 -0.00165988 -0.00192944 0 -0.00154328 -0.00189905 0 -0.00143125 -0.00186433 0 -0.00132416 -0.00182595 0 -0.00122226 -0.00178458 0 -0.00112569 -0.0017409 0 -0.00103452 -0.00169558 0 -0.000948707 -0.00164924 0 -0.000868165 -0.00160246 0 -0.000792728 -0.00155579 0 -0.000722189 -0.0015097 0 -0.000656304 -0.00146464 0 -0.000594804 -0.00142097 0 -0.000537401 -0.00137903 0 -0.000483797 -0.00133911 0 -0.000433688 -0.00130144 0 -0.000386772 -0.00126624 0 -0.000342747 -0.00123366 0 -0.000301318 -0.00120386 0 -0.000262196 -0.00117695 0 -0.0002251 -0.00115303 0 -0.000189755 -0.00113217 0 -0.000155896 -0.00111442 0 -0.000123263 -0.00109985 0 -9.16025e-05 -0.00108848 0 -6.06676e-05 -0.00108034 0 -3.02138e-05 -0.00107545 0 1.1441e-17 -0.00107382 0 -0.00215413 -0.00217597 0 -0.00201546 -0.00216581 0 -0.0018794 -0.00214815 0 -0.00174685 -0.00212347 0 -0.00161862 -0.00209238 0 -0.00149538 -0.00205558 0 -0.00137769 -0.00201386 0 -0.00126593 -0.00196806 0 -0.00116037 -0.001919 0 -0.00106114 -0.00186753 0 -0.000968243 -0.00181442 0 -0.000881587 -0.00176043 0 -0.000801 -0.00170623 0 -0.000726243 -0.00165243 0 -0.000657026 -0.00159958 0 -0.000593027 -0.00154813 0 -0.0005339 -0.00149851 0 -0.000479286 -0.00145105 0 -0.000428824 -0.00140605 0 -0.000382154 -0.00136374 0 -0.00033892 -0.00132433 0 -0.000298779 -0.00128798 0 -0.000261398 -0.00125481 0 -0.000226456 -0.00122494 0 -0.000193644 -0.00119843 0 -0.000162667 -0.00117536 0 -0.000133239 -0.00115578 0 -0.000105085 -0.00113971 0 -7.7941e-05 -0.00112719 0 -5.15468e-05 -0.00111823 0 -2.56496e-05 -0.00111285 0 1.61013e-18 -0.00111106 0 -0.00214416 -0.00236958 0 -0.00199433 -0.00235623 0 -0.00184769 -0.00233402 0 -0.00170539 -0.00230351 0 -0.00156841 -0.00226549 0 -0.00143758 -0.00222087 0 -0.0013135 -0.00217067 0 -0.00119663 -0.00211593 0 -0.0010872 -0.00205771 0 -0.000985292 -0.00199702 0 -0.000890837 -0.00193482 0 -0.00080365 -0.00187197 0 -0.000723451 -0.00180926 0 -0.000649893 -0.00174737 0 -0.000582579 -0.00168691 0 -0.000521084 -0.00162837 0 -0.00046497 -0.00157218 0 -0.000413792 -0.00151869 0 -0.000367115 -0.00146818 0 -0.000324512 -0.00142088 0 -0.000285575 -0.00137698 0 -0.000249911 -0.00133662 0 -0.000217148 -0.00129991 0 -0.000186933 -0.00126692 0 -0.000158933 -0.00123772 0 -0.000132828 -0.00121236 0 -0.000108319 -0.00119087 0 -8.51177e-05 -0.00117326 0 -6.29481e-05 -0.00115955 0 -4.15439e-05 -0.00114976 0 -2.0646e-05 -0.00114388 0 0 -0.00114192 0 -0.00213067 -0.00257964 0 -0.00196746 -0.00256258 0 -0.00180823 -0.00253471 0 -0.00165439 -0.00249696 0 -0.00150721 -0.00245035 0 -0.00136766 -0.0023961 0 -0.00123645 -0.00233553 0 -0.00111403 -0.00226998 0 -0.0010006 -0.00220078 0 -0.000896141 -0.00212918 0 -0.000800472 -0.00205632 0 -0.00071326 -0.00198322 0 -0.000634078 -0.00191078 0 -0.000562429 -0.00183975 0 -0.00049778 -0.00177078 0 -0.000439576 -0.0017044 0 -0.000387265 -0.00164102 0 -0.000340303 -0.00158099 0 -0.000298168 -0.00152457 0 -0.000260363 -0.00147197 0 -0.000226417 -0.00142333 0 -0.000195892 -0.00137877 0 -0.000168375 -0.00133836 0 -0.000143483 -0.00130216 0 -0.000120856 -0.00127019 0 -0.00010016 -0.00124248 0 -8.10799e-05 -0.00121904 0 -6.33197e-05 -0.00119987 0 -4.65973e-05 -0.00118496 0 -3.06429e-05 -0.00117432 0 -1.51954e-05 -0.00116793 0 0 -0.00116581 0 -0.00211296 -0.00281012 0 -0.00193351 -0.00278803 0 -0.00175904 -0.00275312 0 -0.00159148 -0.00270623 0 -0.00143233 -0.00264884 0 -0.0012828 -0.00258259 0 -0.00114366 -0.00250923 0 -0.00101535 -0.0024305 0 -0.000897959 -0.00234808 0 -0.000791314 -0.00226352 0 -0.000695029 -0.00217818 0 -0.000608568 -0.00209325 0 -0.000531295 -0.00200972 0 -0.000462517 -0.00192843 0 -0.000401522 -0.00185003 0 -0.000347599 -0.00177505 0 -0.000300058 -0.00170389 0 -0.000258243 -0.00163685 0 -0.000221536 -0.00157417 0 -0.000189363 -0.00151599 0 -0.000161193 -0.00146242 0 -0.000136537 -0.00141352 0 -0.000114948 -0.00136933 0 -9.60133e-05 -0.00132985 0 -7.93551e-05 -0.00129509 0 -6.46251e-05 -0.00126502 0 -5.15008e-05 -0.00123963 0 -3.96817e-05 -0.00121889 0 -2.88851e-05 -0.00120279 0 -1.88431e-05 -0.00119131 0 -9.29813e-06 -0.00118442 0 0 -0.00118213 0 -0.00208999 -0.00306453 0 -0.0018905 -0.00303697 0 -0.00169752 -0.00299284 0 -0.00151342 -0.00293427 0 -0.00134022 -0.00286313 0 -0.00117929 -0.00278173 0 -0.0010315 -0.00269243 0 -0.000897147 -0.00259752 0 -0.000776133 -0.00249913 0 -0.000668007 -0.00239917 0 -0.000572082 -0.00229924 0 -0.00048752 -0.0022007 0 -0.000413399 -0.00210464 0 -0.000348772 -0.0020119 0 -0.000292702 -0.00192314 0 -0.000244289 -0.00183885 0 -0.000202689 -0.00175938 0 -0.000167119 -0.00168495 0 -0.000136861 -0.00161573 0 -0.000111264 -0.0015518 0 -8.97368e-05 -0.00149319 0 -7.17472e-05 -0.0014399 0 -5.68155e-05 -0.0013919 0 -4.45092e-05 -0.00134917 0 -3.44373e-05 -0.00131163 0 -2.62451e-05 -0.00127924 0 -1.96091e-05 -0.00125194 0 -1.42316e-05 -0.00122968 0 -9.83592e-06 -0.00121242 0 -6.16241e-06 -0.00120012 0 -2.96355e-06 -0.00119275 0 0 -0.0011903 0 -0.00206048 -0.00335106 0 -0.00183592 -0.00331452 0 -0.00161989 -0.0032587 0 -0.00141578 -0.00318469 0 -0.00122601 -0.00309571 0 -0.00105224 -0.0029949 0 -0.000895244 -0.00288552 0 -0.000755098 -0.00277061 0 -0.000631297 -0.00265288 0 -0.000522947 -0.00253463 0 -0.000428903 -0.00241773 0 -0.000347899 -0.00230366 0 -0.000278633 -0.00219355 0 -0.000219831 -0.00208822 0 -0.00017029 -0.00198826 0 -0.000128894 -0.00189406 0 -9.46276e-05 -0.00180586 0 -6.65776e-05 -0.00172378 0 -4.39279e-05 -0.00164788 0 -2.59537e-05 -0.00157813 0 -1.20135e-05 -0.00151449 0 -1.54039e-06 -0.00145685 0 5.967e-06 -0.00140514 0 1.09523e-05 -0.00135923 0 1.38096e-05 -0.00131902 0 1.48905e-05 -0.00128441 0 1.4511e-05 -0.00125529 0 1.29573e-05 -0.0012316 0 1.04919e-05 -0.00121324 0 7.3587e-06 -0.00120017 0 3.78768e-06 -0.00119235 0 4.2576e-18 -0.00118974 0 -0.00202239 -0.00367373 0 -0.00176573 -0.00362905 0 -0.0015209 -0.00355651 0 -0.00129223 -0.00346201 0 -0.00108304 -0.0033493 0 -0.000895049 -0.00322323 0 -0.000728815 -0.00308829 0 -0.000583824 -0.00294854 0 -0.000458895 -0.00280737 0 -0.000352402 -0.00266751 0 -0.000262531 -0.00253104 0 -0.000187424 -0.00239947 0 -0.000125292 -0.00227386 0 -7.44668e-05 -0.00215493 0 -3.34404e-05 -0.00204308 0 -8.65685e-07 -0.00193855 0 2.4444e-05 -0.0018414 0 4.35262e-05 -0.00175161 0 5.72832e-05 -0.00166906 0 6.64974e-05 -0.00159361 0 7.1846e-05 -0.00152508 0 7.39152e-05 -0.00146329 0 7.32127e-05 -0.00140805 0 7.01795e-05 -0.00135916 0 6.51998e-05 -0.00131647 0 5.86104e-05 -0.0012798 0 5.07086e-05 -0.00124903 0 4.17593e-05 -0.00122401 0 3.20015e-05 -0.00120467 0 2.16544e-05 -0.0011909 0 1.09223e-05 -0.00118267 0 1.15944e-17 -0.00117993 0 -0.00197307 -0.00405287 0 -0.00167438 -0.00398908 0 -0.00139238 -0.00389498 0 -0.00113356 -0.00377147 0 -0.000901781 -0.00362663 0 -0.000698801 -0.00346711 0 -0.000524313 -0.00329936 0 -0.000376728 -0.0031287 0 -0.000253635 -0.00295928 0 -0.000152299 -0.00279416 0 -6.99417e-05 -0.00263544 0 -3.94055e-06 -0.00248452 0 4.8088e-05 -0.00234221 0 8.82483e-05 -0.00220894 0 0.000118368 -0.00208484 0 0.000140016 -0.00196988 0 0.000154531 -0.00186386 0 0.000163047 -0.00176653 0 0.000166527 -0.00167761 0 0.000165783 -0.00159677 0 0.000161504 -0.0015237 0 0.000154271 -0.00145809 0 0.000144579 -0.00139965 0 0.000132847 -0.0013481 0 0.000119435 -0.00130321 0 0.00010465 -0.00126474 0 8.87578e-05 -0.00123252 0 7.19903e-05 -0.00120637 0 5.45529e-05 -0.00118617 0 3.66305e-05 -0.00117182 0 1.83929e-05 -0.00116324 0 4.20401e-19 -0.00116038 0 -0.00190795 -0.00448889 0 -0.00155236 -0.00441315 0 -0.0012219 -0.00428371 0 -0.000925693 -0.00411958 0 -0.000668602 -0.00392962 0 -0.00045131 -0.00372518 0 -0.000271691 -0.0035151 0 -0.000125953 -0.00330618 0 -9.69698e-06 -0.00310317 0 8.148e-05 -0.00290909 0 0.000151619 -0.00272577 0 0.000204268 -0.00255409 0 0.000242451 -0.00239438 0 0.000268707 -0.00224656 0 0.000285142 -0.00211033 0 0.000293498 -0.00198526 0 0.00029521 -0.00187083 0 0.000291463 -0.00176652 0 0.000283228 -0.00167179 0 0.000271311 -0.00158613 0 0.000256375 -0.00150907 0 0.000238968 -0.00144016 0 0.000219545 -0.001379 0 0.000198483 -0.00132523 0 0.000176095 -0.00127852 0 0.000152645 -0.00123859 0 0.000128352 -0.00120521 0 0.000103404 -0.00117817 0 7.79606e-05 -0.0011573 0 5.21632e-05 -0.00114249 0 2.61375e-05 -0.00113364 0 0 -0.00113069 0 -0.00182047 -0.00504216 0 -0.00138409 -0.00491621 0 -0.000988419 -0.00473963 0 -0.000646665 -0.00451209 0 -0.000363473 -0.00425784 0 -0.000136229 -0.0039923 0 4.14023e-05 -0.0037279 0 0.000177199 -0.0034725 0 0.000278669 -0.00323063 0 0.000352446 -0.00300459 0 0.000404056 -0.00279514 0 0.000437991 -0.00260224 0 0.000457844 -0.0024253 0 0.000466474 -0.00226352 0 0.000466153 -0.00211596 0 0.000458686 -0.0019817 0 0.000445513 -0.00185983 0 0.000427784 -0.00174947 0 0.00040642 -0.00164984 0 0.000382161 -0.00156023 0 0.000355601 -0.00147996 0 0.000327219 -0.00140848 0 0.0002974 -0.00134524 0 0.000266453 -0.00128981 0 0.000234628 -0.00124179 0 0.000202123 -0.00120083 0 0.000169101 -0.00116665 0 0.000135689 -0.001139 0 0.000101992 -0.00111769 0 6.80981e-05 -0.00110257 0 3.40792e-05 -0.00109355 0 0 -0.00109054 0 -0.0016976 -0.00569429 0 -0.00114109 -0.00554805 0 -0.000654944 -0.00527669 0 -0.000260815 -0.00495315 0 4.28273e-05 -0.00460367 0 0.000267422 -0.0042557 0 0.000428767 -0.00392337 0 0.000540952 -0.00361378 0 0.000615818 -0.00332941 0 0.000662387 -0.00307019 0 0.000687554 -0.00283494 0 0.000696451 -0.0026219 0 0.000692952 -0.00242925 0 0.000679969 -0.00225517 0 0.000659721 -0.00209798 0 0.000633904 -0.00195616 0 0.000603824 -0.00182837 0 0.000570495 -0.00171338 0 0.000534701 -0.00161014 0 0.000497054 -0.00151772 0 0.000458029 -0.00143529 0 0.000417995 -0.00136214 0 0.000377235 -0.00129764 0 0.000335967 -0.00124126 0 0.000294352 -0.00119252 0 0.000252511 -0.00115104 0 0.000210531 -0.00111648 0 0.000168471 -0.00108857 0 0.00012637 -0.00106708 0 8.42513e-05 -0.00105185 0 4.21263e-05 -0.00104276 0 0 -0.00103974 0 -0.00151697 -0.00665611 0 -0.000758427 -0.00633936 0 -0.000150636 -0.00592377 0 0.000291503 -0.0054309 0 0.000589781 -0.00494327 0 0.000783262 -0.00448801 0 0.000902148 -0.00407657 0 0.000970062 -0.00370936 0 0.00100231 -0.00338296 0 0.00100972 -0.00309306 0 0.000999446 -0.00283516 0 0.000976579 -0.00260537 0 0.000944636 -0.00240023 0 0.000906173 -0.00221685 0 0.000863032 -0.00205273 0 0.00081658 -0.00190577 0 0.000767824 -0.00177419 0 0.000717517 -0.00165646 0 0.000666222 -0.00155126 0 0.000614353 -0.00145748 0 0.000562217 -0.00137415 0 0.000510033 -0.00130044 0 0.000457954 -0.00123564 0 0.000406078 -0.00117913 0 0.000354464 -0.00113039 0 0.000303137 -0.00108898 0 0.000252096 -0.00105453 0 0.000201321 -0.00102674 0 0.000150776 -0.00100537 0 0.000100412 -0.000990236 0 5.01741e-05 -0.000981206 0 0 -0.000978205 0 -0.00121705 -0.00790339 0 -9.07727e-05 -0.00744648 0 0.000673081 -0.00665716 0 0.00109828 -0.00589323 0 0.0013229 -0.00521541 0 0.00142653 -0.00463916 0 0.00146409 -0.00414987 0 0.0014602 -0.00373188 0 0.00143186 -0.00337187 0 0.00138751 -0.00305913 0 0.00133322 -0.00278571 0 0.00127243 -0.00254519 0 0.00120766 -0.00233276 0 0.0011405 -0.00214443 0 0.0010721 -0.00197709 0 0.00100325 -0.00182815 0 0.000934506 -0.00169549 0 0.000866243 -0.00157731 0 0.000798719 -0.00147215 0 0.000732096 -0.00137872 0 0.000666466 -0.00129597 0 0.000601867 -0.00122296 0 0.000538295 -0.00115893 0 0.000475712 -0.00110322 0 0.000414056 -0.00105525 0 0.000353245 -0.00101457 0 0.000293183 -0.000980766 0 0.000233759 -0.000953529 0 0.000174856 -0.000932601 0 0.000116348 -0.000917788 0 5.81071e-05 -0.000908954 0 0 -0.000906019 0 -0.000571485 -0.0104867 0 0.00143133 -0.00888815 0 0.00207964 -0.00732464 0 0.00225815 -0.00616319 0 0.00224345 -0.00530283 0 0.00218484 -0.00463509 0 0.00209192 -0.0040975 0 0.00199307 -0.00365282 0 0.00188764 -0.00327749 0 0.00178262 -0.00295624 0 0.00167782 -0.00267816 0 0.00157515 -0.00243559 0 0.00147467 -0.00222267 0 0.0013769 -0.00203496 0 0.00128186 -0.00186893 0 0.00118967 -0.00172175 0 0.00110027 -0.00159112 0 0.00101361 -0.00147515 0 0.000929581 -0.00137224 0 0.000848048 -0.00128107 0 0.000768863 -0.00120049 0 0.000691861 -0.00112957 0 0.000616864 -0.00106749 0 0.000543687 -0.00101357 0 0.000472138 -0.000967211 0 0.000402018 -0.000927942 0 0.000333129 -0.000895356 0 0.000265267 -0.000869123 0 0.000198229 -0.000848981 0 0.000131809 -0.000834733 0 6.58013e-05 -0.000826239 0 0 -0.000823417 0 0.00234256 -0.0208695 0 0.0051315 -0.00898497 0 0.00430163 -0.0072362 0 0.00355939 -0.00590545 0 0.00330455 -0.00507075 0 0.00295722 -0.00440798 0 0.00275032 -0.00388518 0 0.00252578 -0.00345378 0 0.00234827 -0.00308854 0 0.0021744 -0.00277794 0 0.00202012 -0.00250811 0 0.00187332 -0.00227391 0 0.00173726 -0.0020681 0 0.0016083 -0.00188727 0 0.0014867 -0.00172742 0 0.00137112 -0.0015861 0 0.00126123 -0.00146084 0 0.00115633 -0.00134987 0 0.00105603 -0.00125156 0 0.000959846 -0.00116463 0 0.000867399 -0.00108793 0 0.000778306 -0.00102052 0 0.000692214 -0.000961601 0 0.000608782 -0.000910488 0 0.000527687 -0.000866605 0 0.000448613 -0.000829469 0 0.000371256 -0.000798681 0 0.000295318 -0.000773913 0 0.000220508 -0.000754909 0 0.000146539 -0.000741471 0 7.31302e-05 -0.000733462 0 0 -0.000730802 0 </DataArray> 
</PointData> 
<Points> 
<DataArray type="Float32" NumberOfComponents="3"> 