<?xml version="1.0"?> 
<VTKFile type="StructuredGrid" version="0.1"> 
<StructuredGrid WholeExtent="0 31 0 31 0 0"> 
<Piece Extent="0 31 0 31 0 0"> 
<PointData>
<DataArray type="Float32" Name="B" format="ascii" NumberOfComponents="3"> 
2.8782e-05 -8.13216e-06 0 7.50137e-06 2.42619e-06 0 4.86238e-06 5.7311e-07 0 4.70353e-06 8.10393e-08 0 3.69254e-06 -3.79165e-07 0 3.48085e-06 -6.11512e-07 0 3.00157e-06 -7.55867e-07 0 2.76654e-06 -8.32421e-07 0 2.47271e-06 -8.6017e-07 0 2.2607e-06 -8.62559e-07 0 2.04611e-06 -8.42961e-07 0 1.86486e-06 -8.13579e-07 0 1.69344e-06 -7.7602e-07 0 1.53993e-06 -7.35689e-07 0 1.39737e-06 -6.93676e-07 0 1.26688e-06 -6.52238e-07 0 1.146e-06 -6.12012e-07 0 1.03425e-06 -5.73894e-07 0 9.30432e-07 -5.38179e-07 0 8.33828e-07 -5.05178e-07 0 7.43611e-07 -4.74981e-07 0 6.59101e-07 -4.47652e-07 0 5.79631e-07 -4.23173e-07 0 5.04593e-07 -4.01511e-07 0 4.33408e-07 -3.82606e-07 0 3.65532e-07 -3.66394e-07 0 3.00446e-07 -3.52807e-07 0 2.37652e-07 -3.41785e-07 0 1.76671e-07 -3.33272e-07 0 1.17037e-07 -3.27224e-07 0 5.82964e-08 -3.23608e-07 0 0 -3.22406e-07 0 1.59339e-05 1.45131e-05 0 6.56128e-06 2.28751e-06 0 4.97042e-06 1.15058e-06 0 4.25745e-06 2.33554e-07 0 3.72336e-06 -2.02493e-07 0 3.33679e-06 -4.90344e-07 0 3.00527e-06 -6.52349e-07 0 2.72626e-06 -7.40458e-07 0 2.47811e-06 -7.82293e-07 0 2.25697e-06 -7.90207e-07 0 2.05649e-06 -7.79349e-07 0 1.87386e-06 -7.54486e-07 0 1.70653e-06 -7.22649e-07 0 1.5527e-06 -6.86247e-07 0 1.41091e-06 -6.48368e-07 0 1.27991e-06 -6.10259e-07 0 1.15863e-06 -5.73227e-07 0 1.04611e-06 -5.37864e-07 0 9.41505e-07 -5.04685e-07 0 8.44006e-07 -4.73924e-07 0 7.52884e-07 -4.45745e-07 0 6.67453e-07 -4.20201e-07 0 5.87072e-07 -3.97303e-07 0 5.11136e-07 -3.77022e-07 0 4.39073e-07 -3.59313e-07 0 3.7034e-07 -3.44119e-07 0 3.04417e-07 -3.31381e-07 0 2.40804e-07 -3.21045e-07 0 1.79021e-07 -3.13061e-07 0 1.18597e-07 -3.07387e-07 0 5.90739e-08 -3.03996e-07 0 0 -3.02867e-07 0 2.27126e-06 1.03076e-05 0 5.45588e-06 3.35823e-06 0 4.69247e-06 1.33843e-06 0 3.98288e-06 4.40887e-07 0 3.63133e-06 -7.27977e-08 0 3.24608e-06 -3.76515e-07 0 2.97095e-06 -5.55567e-07 0 2.7e-06 -6.56479e-07 0 2.47127e-06 -7.05522e-07 0 2.25586e-06 -7.21784e-07 0 2.06235e-06 -7.1604e-07 0 1.88248e-06 -6.96912e-07 0 1.71746e-06 -6.69322e-07 0 1.56448e-06 -6.37224e-07 0 1.42309e-06 -6.02933e-07 0 1.29193e-06 -5.6824e-07 0 1.17025e-06 -5.34208e-07 0 1.05712e-06 -5.01613e-07 0 9.51781e-07 -4.70908e-07 0 8.53481e-07 -4.42389e-07 0 7.61524e-07 -4.16213e-07 0 6.75245e-07 -3.92457e-07 0 5.94019e-07 -3.71141e-07 0 5.17249e-07 -3.52247e-07 0 4.44369e-07 -3.3574e-07 0 3.74836e-07 -3.21571e-07 0 3.08131e-07 -3.09689e-07 0 2.43754e-07 -3.00045e-07 0 1.81219e-07 -2.92593e-07 0 1.20056e-07 -2.87298e-07 0 5.98016e-08 -2.84132e-07 0 0 -2.83078e-07 0 2.11781e-06 8.06341e-06 0 4.45519e-06 3.51499e-06 0 4.17164e-06 1.52437e-06 0 3.8122e-06 5.80864e-07 0 3.46752e-06 4.19889e-08 0 3.18256e-06 -2.77343e-07 0 2.91614e-06 -4.6808e-07 0 2.67924e-06 -5.77061e-07 0 2.45788e-06 -6.33264e-07 0 2.25484e-06 -6.55105e-07 0 2.06547e-06 -6.54628e-07 0 1.89005e-06 -6.39989e-07 0 1.72676e-06 -6.16647e-07 0 1.57511e-06 -5.8834e-07 0 1.43406e-06 -5.57592e-07 0 1.30294e-06 -5.26111e-07 0 1.18091e-06 -4.95044e-07 0 1.06726e-06 -4.65142e-07 0 9.61272e-07 -4.36892e-07 0 8.62252e-07 -4.10591e-07 0 7.69533e-07 -3.86412e-07 0 6.82477e-07 -3.64442e-07 0 6.00472e-07 -3.44709e-07 0 5.22931e-07 -3.27207e-07 0 4.49292e-07 -3.11907e-07 0 3.79017e-07 -2.98769e-07 0 3.11587e-07 -2.87748e-07 0 2.46498e-07 -2.788e-07 0 1.83266e-07 -2.71886e-07 0 1.21414e-07 -2.66971e-07 0 6.04791e-08 -2.64033e-07 0 0 -2.63055e-07 0 1.18595e-06 5.62982e-06 0 3.57135e-06 3.39052e-06 0 3.75409e-06 1.60434e-06 0 3.57427e-06 6.79435e-07 0 3.33303e-06 1.33343e-07 0 3.09777e-06 -1.92349e-07 0 2.86826e-06 -3.89242e-07 0 2.65145e-06 -5.03622e-07 0 2.44523e-06 -5.646e-07 0 2.25089e-06 -5.9098e-07 0 2.06776e-06 -5.94686e-07 0 1.89592e-06 -5.84064e-07 0 1.73495e-06 -5.64481e-07 0 1.58448e-06 -5.39738e-07 0 1.44398e-06 -5.12314e-07 0 1.31291e-06 -4.8394e-07 0 1.19064e-06 -4.55743e-07 0 1.07655e-06 -4.28487e-07 0 9.69992e-07 -4.02656e-07 0 8.70323e-07 -3.78556e-07 0 7.76913e-07 -3.56365e-07 0 6.89147e-07 -3.36177e-07 0 6.06428e-07 -3.18029e-07 0 5.28179e-07 -3.01922e-07 0 4.53843e-07 -2.87834e-07 0 3.82883e-07 -2.75732e-07 0 3.14782e-07 -2.65577e-07 0 2.49037e-07 -2.5733e-07 0 1.85159e-07 -2.50956e-07 0 1.22671e-07 -2.46426e-07 0 6.11058e-08 -2.43717e-07 0 0 -2.42815e-07 0 9.38625e-07 4.72138e-06 0 2.90325e-06 3.05008e-06 0 3.35943e-06 1.61153e-06 0 3.34462e-06 7.32574e-07 0 3.1956e-06 2.02692e-07 0 3.01352e-06 -1.21713e-07 0 2.81821e-06 -3.19414e-07 0 2.62291e-06 -4.359e-07 0 2.43099e-06 -4.99826e-07 0 2.24584e-06 -5.29253e-07 0 2.06871e-06 -5.36362e-07 0 1.90063e-06 -5.29083e-07 0 1.74194e-06 -5.12895e-07 0 1.59274e-06 -4.91414e-07 0 1.45284e-06 -4.67143e-07 0 1.3219e-06 -4.41741e-07 0 1.19947e-06 -4.16338e-07 0 1.085e-06 -3.91672e-07 0 9.77945e-07 -3.68228e-07 0 8.77698e-07 -3.46309e-07 0 7.83667e-07 -3.26095e-07 0 6.95257e-07 -3.07686e-07 0 6.11888e-07 -2.91123e-07 0 5.32992e-07 -2.76413e-07 0 4.58018e-07 -2.63541e-07 0 3.86432e-07 -2.52479e-07 0 3.17716e-07 -2.43194e-07 0 2.51368e-07 -2.35652e-07 0 1.86897e-07 -2.29822e-07 0 1.23826e-07 -2.25678e-07 0 6.16815e-08 -2.232e-07 0 0 -2.22375e-07 0 7.31243e-07 3.68497e-06 0 2.40642e-06 2.70817e-06 0 3.01133e-06 1.54322e-06 0 3.12621e-06 7.51049e-07 0 3.06209e-06 2.49008e-07 0 2.9303e-06 -6.47245e-08 0 2.76825e-06 -2.58362e-07 0 2.59393e-06 -3.74036e-07 0 2.41602e-06 -4.38726e-07 0 2.23988e-06 -4.70036e-07 0 2.06865e-06 -4.79565e-07 0 1.90429e-06 -4.75104e-07 0 1.74788e-06 -4.61868e-07 0 1.59998e-06 -4.43402e-07 0 1.46071e-06 -4.22087e-07 0 1.32995e-06 -3.99542e-07 0 1.20741e-06 -3.76846e-07 0 1.09263e-06 -3.54719e-07 0 9.85141e-07 -3.33628e-07 0 8.84383e-07 -3.13871e-07 0 7.89796e-07 -2.95624e-07 0 7.00808e-07 -2.78989e-07 0 6.16852e-07 -2.6401e-07 0 5.3737e-07 -2.50699e-07 0 4.61817e-07 -2.39046e-07 0 3.89661e-07 -2.29028e-07 0 3.20387e-07 -2.20617e-07 0 2.5349e-07 -2.13784e-07 0 1.88481e-07 -2.08501e-07 0 1.24877e-07 -2.04745e-07 0 6.22059e-08 -2.02499e-07 0 0 -2.01751e-07 0 5.89865e-07 3.1029e-06 0 2.03843e-06 2.34733e-06 0 2.71259e-06 1.43297e-06 0 2.92606e-06 7.36534e-07 0 2.93535e-06 2.75057e-07 0 2.85035e-06 -2.08627e-08 0 2.71952e-06 -2.05862e-07 0 2.56534e-06 -3.17697e-07 0 2.40082e-06 -3.81314e-07 0 2.23337e-06 -4.13173e-07 0 2.06782e-06 -4.24314e-07 0 1.90706e-06 -4.2207e-07 0 1.75287e-06 -4.11418e-07 0 1.60625e-06 -3.95693e-07 0 1.46763e-06 -3.77164e-07 0 1.33709e-06 -3.57354e-07 0 1.21448e-06 -3.37289e-07 0 1.09946e-06 -3.17649e-07 0 9.91589e-07 -2.9888e-07 0 8.90383e-07 -2.81264e-07 0 7.95302e-07 -2.64974e-07 0 7.05799e-07 -2.50108e-07 0 6.21318e-07 -2.36712e-07 0 5.41311e-07 -2.24801e-07 0 4.65238e-07 -2.14369e-07 0 3.92571e-07 -2.05398e-07 0 3.22794e-07 -1.97865e-07 0 2.55403e-07 -1.91743e-07 0 1.89908e-07 -1.8701e-07 0 1.25824e-07 -1.83644e-07 0 6.26786e-08 -1.81631e-07 0 0 -1.80962e-07 0 5.1537e-07 2.51704e-06 0 1.76526e-06 2.01429e-06 0 2.46122e-06 1.2912e-06 0 2.74823e-06 6.96505e-07 0 2.81787e-06 2.82618e-07 0 2.7756e-06 1.09166e-08 0 2.67311e-06 -1.61354e-07 0 2.53794e-06 -2.66657e-07 0 2.38587e-06 -3.27354e-07 0 2.22666e-06 -3.58592e-07 0 2.06644e-06 -3.70516e-07 0 1.90909e-06 -3.69961e-07 0 1.75702e-06 -3.61517e-07 0 1.61162e-06 -3.48291e-07 0 1.47364e-06 -3.32378e-07 0 1.34335e-06 -3.15192e-07 0 1.22071e-06 -2.97682e-07 0 1.10548e-06 -2.80481e-07 0 9.97297e-07 -2.64001e-07 0 8.95701e-07 -2.48509e-07 0 8.00189e-07 -2.34165e-07 0 7.10232e-07 -2.21062e-07 0 6.25287e-07 -2.09248e-07 0 5.44816e-07 -1.98739e-07 0 4.68281e-07 -1.8953e-07 0 3.9516e-07 -1.81609e-07 0 3.24935e-07 -1.74956e-07 0 2.57106e-07 -1.69549e-07 0 1.91178e-07 -1.65367e-07 0 1.26668e-07 -1.62394e-07 0 6.30994e-08 -1.60615e-07 0 0 -1.60023e-07 0 4.40093e-07 2.0846e-06 0 1.55981e-06 1.69645e-06 0 2.25571e-06 1.13309e-06 0 2.59297e-06 6.35481e-07 0 2.71263e-06 2.74471e-07 0 2.70714e-06 3.17655e-08 0 2.63033e-06 -1.242e-07 0 2.5123e-06 -2.20484e-07 0 2.3717e-06 -2.76629e-07 0 2.22002e-06 -3.06114e-07 0 2.06472e-06 -3.18088e-07 0 1.91052e-06 -3.1871e-07 0 1.76041e-06 -3.12139e-07 0 1.61617e-06 -3.0118e-07 0 1.4788e-06 -2.87728e-07 0 1.34875e-06 -2.73061e-07 0 1.22611e-06 -2.58039e-07 0 1.11072e-06 -2.43231e-07 0 1.00227e-06 -2.29013e-07 0 9.00343e-07 -2.15625e-07 0 8.04459e-07 -2.03217e-07 0 7.14108e-07 -1.91874e-07 0 6.2876e-07 -1.8164e-07 0 5.47883e-07 -1.72531e-07 0 4.70946e-07 -1.64548e-07 0 3.97426e-07 -1.57679e-07 0 3.26811e-07 -1.51909e-07 0 2.58597e-07 -1.47218e-07 0 1.92291e-07 -1.4359e-07 0 1.27407e-07 -1.4101e-07 0 6.3468e-08 -1.39467e-07 0 0 -1.38953e-07 0 4.01584e-07 1.67721e-06 0 1.40591e-06 1.40159e-06 0 2.08942e-06 9.64621e-07 0 2.46187e-06 5.58813e-07 0 2.62056e-06 2.53023e-07 0 2.64655e-06 4.30599e-08 0 2.59192e-06 -9.3595e-08 0 2.48915e-06 -1.78716e-07 0 2.3587e-06 -2.28817e-07 0 2.21377e-06 -2.55556e-07 0 2.06287e-06 -2.66899e-07 0 1.9115e-06 -2.68245e-07 0 1.76315e-06 -2.63238e-07 0 1.61995e-06 -2.54339e-07 0 1.48315e-06 -2.43209e-07 0 1.35333e-06 -2.30968e-07 0 1.23071e-06 -2.18369e-07 0 1.11519e-06 -2.05914e-07 0 1.00652e-06 -1.93931e-07 0 9.04313e-07 -1.82633e-07 0 8.08114e-07 -1.72151e-07 0 7.17427e-07 -1.62562e-07 0 6.31735e-07 -1.53906e-07 0 5.50512e-07 -1.46199e-07 0 4.7323e-07 -1.39442e-07 0 3.99371e-07 -1.33627e-07 0 3.2842e-07 -1.28741e-07 0 2.59877e-07 -1.24769e-07 0 1.93246e-07 -1.21696e-07 0 1.28041e-07 -1.19511e-07 0 6.37844e-08 -1.18204e-07 0 0 -1.17769e-07 0 3.6256e-07 1.32984e-06 0 1.29056e-06 1.12276e-06 0 1.95886e-06 7.91468e-07 0 2.3539e-06 4.703e-07 0 2.54311e-06 2.20806e-07 0 2.59463e-06 4.62353e-08 0 2.55879e-06 -6.86626e-08 0 2.46897e-06 -1.40783e-07 0 2.34728e-06 -1.83566e-07 0 2.20814e-06 -2.0668e-07 0 2.06104e-06 -2.16803e-07 0 1.91212e-06 -2.18474e-07 0 1.7653e-06 -2.14763e-07 0 1.62302e-06 -2.07741e-07 0 1.48671e-06 -1.9881e-07 0 1.35711e-06 -1.88912e-07 0 1.23451e-06 -1.78682e-07 0 1.1189e-06 -1.68543e-07 0 1.01005e-06 -1.58772e-07 0 9.07616e-07 -1.49549e-07 0 8.11156e-07 -1.40985e-07 0 7.20192e-07 -1.33146e-07 0 6.34215e-07 -1.26066e-07 0 5.52703e-07 -1.19761e-07 0 4.75135e-07 -1.14232e-07 0 4.00992e-07 -1.09472e-07 0 3.29762e-07 -1.05472e-07 0 2.60944e-07 -1.0222e-07 0 1.94042e-07 -9.97043e-08 0 1.2857e-07 -9.79151e-08 0 6.40483e-08 -9.68448e-08 0 0 -9.64886e-08 0 3.40952e-07 1.00427e-06 0 1.20619e-06 8.58959e-07 0 1.85905e-06 6.1599e-07 0 2.26894e-06 3.73335e-07 0 2.48062e-06 1.80088e-07 0 2.5523e-06 4.27853e-08 0 2.53151e-06 -4.84426e-08 0 2.45228e-06 -1.06073e-07 0 2.33774e-06 -1.40469e-07 0 2.20337e-06 -1.59227e-07 0 2.0594e-06 -1.67632e-07 0 1.91249e-06 -1.69291e-07 0 1.76693e-06 -1.66647e-07 0 1.62541e-06 -1.6135e-07 0 1.48952e-06 -1.54514e-07 0 1.36011e-06 -1.46891e-07 0 1.23754e-06 -1.38984e-07 0 1.12186e-06 -1.3113e-07 0 1.01287e-06 -1.23552e-07 0 9.10253e-07 -1.16391e-07 0 8.13588e-07 -1.09738e-07 0 7.22403e-07 -1.03645e-07 0 6.36198e-07 -9.81406e-08 0 5.54456e-07 -9.32368e-08 0 4.76659e-07 -8.89355e-08 0 4.02289e-07 -8.52325e-08 0 3.30836e-07 -8.212e-08 0 2.61798e-07 -7.95893e-08 0 1.9468e-07 -7.76315e-08 0 1.28994e-07 -7.62391e-08 0 6.42595e-08 -7.54061e-08 0 0 -7.51288e-08 0 3.22128e-07 7.04445e-07 0 1.14688e-06 6.05756e-07 0 1.78718e-06 4.39918e-07 0 2.20596e-06 2.7044e-07 0 2.43361e-06 1.33014e-07 0 2.52006e-06 3.42028e-08 0 2.51063e-06 -3.19306e-08 0 2.43942e-06 -7.39139e-08 0 2.33035e-06 -9.90866e-08 0 2.19963e-06 -1.12906e-07 0 2.05806e-06 -1.19198e-07 0 1.91269e-06 -1.20578e-07 0 1.76811e-06 -1.18822e-07 0 1.62718e-06 -1.15127e-07 0 1.4916e-06 -1.10304e-07 0 1.36234e-06 -1.04899e-07 0 1.2398e-06 -9.92778e-08 0 1.12407e-06 -9.36859e-08 0 1.01498e-06 -8.82841e-08 0 9.12229e-07 -8.31766e-08 0 8.1541e-07 -7.84286e-08 0 7.2406e-07 -7.40788e-08 0 6.37685e-07 -7.0148e-08 0 5.55771e-07 -6.66455e-08 0 4.77802e-07 -6.35728e-08 0 4.03262e-07 -6.09272e-08 0 3.31642e-07 -5.87033e-08 0 2.62439e-07 -5.6895e-08 0 1.95158e-07 -5.5496e-08 0 1.29312e-07 -5.45009e-08 0 6.4418e-08 -5.39056e-08 0 0 -5.37075e-08 0 3.12215e-07 4.1673e-07 0 1.10922e-06 3.60451e-07 0 1.74051e-06 2.63815e-07 0 2.16445e-06 1.63704e-07 0 2.40218e-06 8.15299e-08 0 2.49837e-06 2.1974e-08 0 2.4965e-06 -1.80861e-08 0 2.43069e-06 -4.36026e-08 0 2.32531e-06 -5.89484e-08 0 2.19706e-06 -6.74099e-08 0 2.05711e-06 -7.13009e-08 0 1.9128e-06 -7.22079e-08 0 1.76887e-06 -7.12071e-08 0 1.62834e-06 -6.90262e-08 0 1.49298e-06 -6.61567e-08 0 1.36382e-06 -6.29298e-08 0 1.2413e-06 -5.95681e-08 0 1.12554e-06 -5.622e-08 0 1.01638e-06 -5.29836e-08 0 9.13544e-07 -4.9922e-08 0 8.16624e-07 -4.70749e-08 0 7.25165e-07 -4.44659e-08 0 6.38676e-07 -4.21079e-08 0 5.56648e-07 -4.00064e-08 0 4.78564e-07 -3.81627e-08 0 4.03912e-07 -3.65751e-08 0 3.3218e-07 -3.52405e-08 0 2.62866e-07 -3.41552e-08 0 1.95477e-07 -3.33155e-08 0 1.29523e-07 -3.27183e-08 0 6.45238e-08 -3.2361e-08 0 0 -3.22421e-08 0 3.06579e-07 1.38256e-07 0 1.09088e-06 1.19626e-07 0 1.7176e-06 8.79131e-08 0 2.14381e-06 5.47995e-08 0 2.38647e-06 2.7461e-08 0 2.48746e-06 7.56614e-09 0 2.48938e-06 -5.84972e-09 0 2.42628e-06 -1.44094e-08 0 2.32276e-06 -1.95652e-08 0 2.19576e-06 -2.2414e-08 0 2.05662e-06 -2.37305e-08 0 1.91283e-06 -2.4046e-08 0 1.76925e-06 -2.37213e-08 0 1.62891e-06 -2.30003e-08 0 1.49367e-06 -2.20479e-08 0 1.36456e-06 -2.0975e-08 0 1.24205e-06 -1.98562e-08 0 1.12627e-06 -1.87414e-08 0 1.01709e-06 -1.76634e-08 0 9.14202e-07 -1.66433e-08 0 8.17231e-07 -1.56946e-08 0 7.25717e-07 -1.48251e-08 0 6.39172e-07 -1.40391e-08 0 5.57086e-07 -1.33387e-08 0 4.78946e-07 -1.27241e-08 0 4.04236e-07 -1.21948e-08 0 3.32448e-07 -1.17499e-08 0 2.6308e-07 -1.13881e-08 0 1.95637e-07 -1.11082e-08 0 1.29629e-07 -1.09091e-08 0 6.45767e-08 -1.07899e-08 0 0 -1.07503e-08 0 3.06579e-07 -1.38256e-07 0 1.09088e-06 -1.19626e-07 0 1.7176e-06 -8.79131e-08 0 2.14381e-06 -5.47995e-08 0 2.38647e-06 -2.7461e-08 0 2.48746e-06 -7.56614e-09 0 2.48938e-06 5.84972e-09 0 2.42628e-06 1.44094e-08 0 2.32276e-06 1.95652e-08 0 2.19576e-06 2.2414e-08 0 2.05662e-06 2.37305e-08 0 1.91283e-06 2.4046e-08 0 1.76925e-06 2.37213e-08 0 1.62891e-06 2.30003e-08 0 1.49367e-06 2.20479e-08 0 1.36456e-06 2.0975e-08 0 1.24205e-06 1.98562e-08 0 1.12627e-06 1.87414e-08 0 1.01709e-06 1.76634e-08 0 9.14202e-07 1.66433e-08 0 8.17231e-07 1.56946e-08 0 7.25717e-07 1.48251e-08 0 6.39172e-07 1.40391e-08 0 5.57086e-07 1.33387e-08 0 4.78946e-07 1.27241e-08 0 4.04236e-07 1.21948e-08 0 3.32448e-07 1.17499e-08 0 2.6308e-07 1.13881e-08 0 1.95637e-07 1.11082e-08 0 1.29629e-07 1.09091e-08 0 6.45767e-08 1.07899e-08 0 0 1.07503e-08 0 3.12215e-07 -4.1673e-07 0 1.10922e-06 -3.60451e-07 0 1.74051e-06 -2.63815e-07 0 2.16445e-06 -1.63704e-07 0 2.40218e-06 -8.15299e-08 0 2.49837e-06 -2.1974e-08 0 2.4965e-06 1.80861e-08 0 2.43069e-06 4.36026e-08 0 2.32531e-06 5.89484e-08 0 2.19706e-06 6.74099e-08 0 2.05711e-06 7.13009e-08 0 1.9128e-06 7.22079e-08 0 1.76887e-06 7.12071e-08 0 1.62834e-06 6.90262e-08 0 1.49298e-06 6.61567e-08 0 1.36382e-06 6.29298e-08 0 1.2413e-06 5.95681e-08 0 1.12554e-06 5.622e-08 0 1.01638e-06 5.29836e-08 0 9.13544e-07 4.9922e-08 0 8.16624e-07 4.70749e-08 0 7.25165e-07 4.44659e-08 0 6.38676e-07 4.21079e-08 0 5.56648e-07 4.00064e-08 0 4.78564e-07 3.81627e-08 0 4.03912e-07 3.65751e-08 0 3.3218e-07 3.52405e-08 0 2.62866e-07 3.41552e-08 0 1.95477e-07 3.33155e-08 0 1.29523e-07 3.27183e-08 0 6.45238e-08 3.2361e-08 0 0 3.22421e-08 0 3.22128e-07 -7.04445e-07 0 1.14688e-06 -6.05756e-07 0 1.78718e-06 -4.39918e-07 0 2.20596e-06 -2.7044e-07 0 2.43361e-06 -1.33014e-07 0 2.52006e-06 -3.42028e-08 0 2.51063e-06 3.19306e-08 0 2.43942e-06 7.39139e-08 0 2.33035e-06 9.90866e-08 0 2.19963e-06 1.12906e-07 0 2.05806e-06 1.19198e-07 0 1.91269e-06 1.20578e-07 0 1.76811e-06 1.18822e-07 0 1.62718e-06 1.15127e-07 0 1.4916e-06 1.10304e-07 0 1.36234e-06 1.04899e-07 0 1.2398e-06 9.92778e-08 0 1.12407e-06 9.36859e-08 0 1.01498e-06 8.82841e-08 0 9.12229e-07 8.31766e-08 0 8.1541e-07 7.84286e-08 0 7.2406e-07 7.40788e-08 0 6.37685e-07 7.0148e-08 0 5.55771e-07 6.66455e-08 0 4.77802e-07 6.35728e-08 0 4.03262e-07 6.09272e-08 0 3.31642e-07 5.87033e-08 0 2.62439e-07 5.6895e-08 0 1.95158e-07 5.5496e-08 0 1.29312e-07 5.45009e-08 0 6.4418e-08 5.39056e-08 0 0 5.37075e-08 0 3.40952e-07 -1.00427e-06 0 1.20619e-06 -8.58959e-07 0 1.85905e-06 -6.1599e-07 0 2.26894e-06 -3.73335e-07 0 2.48062e-06 -1.80088e-07 0 2.5523e-06 -4.27853e-08 0 2.53151e-06 4.84426e-08 0 2.45228e-06 1.06073e-07 0 2.33774e-06 1.40469e-07 0 2.20337e-06 1.59227e-07 0 2.0594e-06 1.67632e-07 0 1.91249e-06 1.69291e-07 0 1.76693e-06 1.66647e-07 0 1.62541e-06 1.6135e-07 0 1.48952e-06 1.54514e-07 0 1.36011e-06 1.46891e-07 0 1.23754e-06 1.38984e-07 0 1.12186e-06 1.3113e-07 0 1.01287e-06 1.23552e-07 0 9.10253e-07 1.16391e-07 0 8.13588e-07 1.09738e-07 0 7.22403e-07 1.03645e-07 0 6.36198e-07 9.81406e-08 0 5.54456e-07 9.32368e-08 0 4.76659e-07 8.89355e-08 0 4.02289e-07 8.52325e-08 0 3.30836e-07 8.212e-08 0 2.61798e-07 7.95893e-08 0 1.9468e-07 7.76315e-08 0 1.28994e-07 7.62391e-08 0 6.42595e-08 7.54061e-08 0 0 7.51288e-08 0 3.6256e-07 -1.32984e-06 0 1.29056e-06 -1.12276e-06 0 1.95886e-06 -7.91468e-07 0 2.3539e-06 -4.703e-07 0 2.54311e-06 -2.20806e-07 0 2.59463e-06 -4.62353e-08 0 2.55879e-06 6.86626e-08 0 2.46897e-06 1.40783e-07 0 2.34728e-06 1.83566e-07 0 2.20814e-06 2.0668e-07 0 2.06104e-06 2.16803e-07 0 1.91212e-06 2.18474e-07 0 1.7653e-06 2.14763e-07 0 1.62302e-06 2.07741e-07 0 1.48671e-06 1.9881e-07 0 1.35711e-06 1.88912e-07 0 1.23451e-06 1.78682e-07 0 1.1189e-06 1.68543e-07 0 1.01005e-06 1.58772e-07 0 9.07616e-07 1.49549e-07 0 8.11156e-07 1.40985e-07 0 7.20192e-07 1.33146e-07 0 6.34215e-07 1.26066e-07 0 5.52703e-07 1.19761e-07 0 4.75135e-07 1.14232e-07 0 4.00992e-07 1.09472e-07 0 3.29762e-07 1.05472e-07 0 2.60944e-07 1.0222e-07 0 1.94042e-07 9.97043e-08 0 1.2857e-07 9.79151e-08 0 6.40483e-08 9.68448e-08 0 0 9.64886e-08 0 4.01584e-07 -1.67721e-06 0 1.40591e-06 -1.40159e-06 0 2.08942e-06 -9.64621e-07 0 2.46187e-06 -5.58813e-07 0 2.62056e-06 -2.53023e-07 0 2.64655e-06 -4.30599e-08 0 2.59192e-06 9.3595e-08 0 2.48915e-06 1.78716e-07 0 2.3587e-06 2.28817e-07 0 2.21377e-06 2.55556e-07 0 2.06287e-06 2.66899e-07 0 1.9115e-06 2.68245e-07 0 1.76315e-06 2.63238e-07 0 1.61995e-06 2.54339e-07 0 1.48315e-06 2.43209e-07 0 1.35333e-06 2.30968e-07 0 1.23071e-06 2.18369e-07 0 1.11519e-06 2.05914e-07 0 1.00652e-06 1.93931e-07 0 9.04313e-07 1.82633e-07 0 8.08114e-07 1.72151e-07 0 7.17427e-07 1.62562e-07 0 6.31735e-07 1.53906e-07 0 5.50512e-07 1.46199e-07 0 4.7323e-07 1.39442e-07 0 3.99371e-07 1.33627e-07 0 3.2842e-07 1.28741e-07 0 2.59877e-07 1.24769e-07 0 1.93246e-07 1.21696e-07 0 1.28041e-07 1.19511e-07 0 6.37844e-08 1.18204e-07 0 0 1.17769e-07 0 4.40093e-07 -2.0846e-06 0 1.55981e-06 -1.69645e-06 0 2.25571e-06 -1.13309e-06 0 2.59297e-06 -6.35481e-07 0 2.71263e-06 -2.74471e-07 0 2.70714e-06 -3.17655e-08 0 2.63033e-06 1.242e-07 0 2.5123e-06 2.20484e-07 0 2.3717e-06 2.76629e-07 0 2.22002e-06 3.06114e-07 0 2.06472e-06 3.18088e-07 0 1.91052e-06 3.1871e-07 0 1.76041e-06 3.12139e-07 0 1.61617e-06 3.0118e-07 0 1.4788e-06 2.87728e-07 0 1.34875e-06 2.73061e-07 0 1.22611e-06 2.58039e-07 0 1.11072e-06 2.43231e-07 0 1.00227e-06 2.29013e-07 0 9.00343e-07 2.15625e-07 0 8.04459e-07 2.03217e-07 0 7.14108e-07 1.91874e-07 0 6.2876e-07 1.8164e-07 0 5.47883e-07 1.72531e-07 0 4.70946e-07 1.64548e-07 0 3.97426e-07 1.57679e-07 0 3.26811e-07 1.51909e-07 0 2.58597e-07 1.47218e-07 0 1.92291e-07 1.4359e-07 0 1.27407e-07 1.4101e-07 0 6.3468e-08 1.39467e-07 0 0 1.38953e-07 0 5.1537e-07 -2.51704e-06 0 1.76526e-06 -2.01429e-06 0 2.46122e-06 -1.2912e-06 0 2.74823e-06 -6.96505e-07 0 2.81787e-06 -2.82618e-07 0 2.7756e-06 -1.09166e-08 0 2.67311e-06 1.61354e-07 0 2.53794e-06 2.66657e-07 0 2.38587e-06 3.27354e-07 0 2.22666e-06 3.58592e-07 0 2.06644e-06 3.70516e-07 0 1.90909e-06 3.69961e-07 0 1.75702e-06 3.61517e-07 0 1.61162e-06 3.48291e-07 0 1.47364e-06 3.32378e-07 0 1.34335e-06 3.15192e-07 0 1.22071e-06 2.97682e-07 0 1.10548e-06 2.80481e-07 0 9.97297e-07 2.64001e-07 0 8.95701e-07 2.48509e-07 0 8.00189e-07 2.34165e-07 0 7.10232e-07 2.21062e-07 0 6.25287e-07 2.09248e-07 0 5.44816e-07 1.98739e-07 0 4.68281e-07 1.8953e-07 0 3.9516e-07 1.81609e-07 0 3.24935e-07 1.74956e-07 0 2.57106e-07 1.69549e-07 0 1.91178e-07 1.65367e-07 0 1.26668e-07 1.62394e-07 0 6.30994e-08 1.60615e-07 0 0 1.60023e-07 0 5.89865e-07 -3.1029e-06 0 2.03843e-06 -2.34733e-06 0 2.71259e-06 -1.43297e-06 0 2.92606e-06 -7.36534e-07 0 2.93535e-06 -2.75057e-07 0 2.85035e-06 2.08627e-08 0 2.71952e-06 2.05862e-07 0 2.56534e-06 3.17697e-07 0 2.40082e-06 3.81314e-07 0 2.23337e-06 4.13173e-07 0 2.06782e-06 4.24314e-07 0 1.90706e-06 4.2207e-07 0 1.75287e-06 4.11418e-07 0 1.60625e-06 3.95693e-07 0 1.46763e-06 3.77164e-07 0 1.33709e-06 3.57354e-07 0 1.21448e-06 3.37289e-07 0 1.09946e-06 3.17649e-07 0 9.91589e-07 2.9888e-07 0 8.90383e-07 2.81264e-07 0 7.95302e-07 2.64974e-07 0 7.05799e-07 2.50108e-07 0 6.21318e-07 2.36712e-07 0 5.41311e-07 2.24801e-07 0 4.65238e-07 2.14369e-07 0 3.92571e-07 2.05398e-07 0 3.22794e-07 1.97865e-07 0 2.55403e-07 1.91743e-07 0 1.89908e-07 1.8701e-07 0 1.25824e-07 1.83644e-07 0 6.26786e-08 1.81631e-07 0 0 1.80962e-07 0 7.31243e-07 -3.68497e-06 0 2.40642e-06 -2.70817e-06 0 3.01133e-06 -1.54322e-06 0 3.12621e-06 -7.51049e-07 0 3.06209e-06 -2.49008e-07 0 2.9303e-06 6.47245e-08 0 2.76825e-06 2.58362e-07 0 2.59393e-06 3.74036e-07 0 2.41602e-06 4.38726e-07 0 2.23988e-06 4.70036e-07 0 2.06865e-06 4.79565e-07 0 1.90429e-06 4.75104e-07 0 1.74788e-06 4.61868e-07 0 1.59998e-06 4.43402e-07 0 1.46071e-06 4.22087e-07 0 1.32995e-06 3.99542e-07 0 1.20741e-06 3.76846e-07 0 1.09263e-06 3.54719e-07 0 9.85141e-07 3.33628e-07 0 8.84383e-07 3.13871e-07 0 7.89796e-07 2.95624e-07 0 7.00808e-07 2.78989e-07 0 6.16852e-07 2.6401e-07 0 5.3737e-07 2.50699e-07 0 4.61817e-07 2.39046e-07 0 3.89661e-07 2.29028e-07 0 3.20387e-07 2.20617e-07 0 2.5349e-07 2.13784e-07 0 1.88481e-07 2.08501e-07 0 1.24877e-07 2.04745e-07 0 6.22059e-08 2.02499e-07 0 0 2.01751e-07 0 9.38625e-07 -4.72138e-06 0 2.90325e-06 -3.05008e-06 0 3.35943e-06 -1.61153e-06 0 3.34462e-06 -7.32574e-07 0 3.1956e-06 -2.02692e-07 0 3.01352e-06 1.21713e-07 0 2.81821e-06 3.19414e-07 0 2.62291e-06 4.359e-07 0 2.43099e-06 4.99826e-07 0 2.24584e-06 5.29253e-07 0 2.06871e-06 5.36362e-07 0 1.90063e-06 5.29083e-07 0 1.74194e-06 5.12895e-07 0 1.59274e-06 4.91414e-07 0 1.45284e-06 4.67143e-07 0 1.3219e-06 4.41741e-07 0 1.19947e-06 4.16338e-07 0 1.085e-06 3.91672e-07 0 9.77945e-07 3.68228e-07 0 8.77698e-07 3.46309e-07 0 7.83667e-07 3.26095e-07 0 6.95257e-07 3.07686e-07 0 6.11888e-07 2.91123e-07 0 5.32992e-07 2.76413e-07 0 4.58018e-07 2.63541e-07 0 3.86432e-07 2.52479e-07 0 3.17716e-07 2.43194e-07 0 2.51368e-07 2.35652e-07 0 1.86897e-07 2.29822e-07 0 1.23826e-07 2.25678e-07 0 6.16815e-08 2.232e-07 0 0 2.22375e-07 0 1.18595e-06 -5.62982e-06 0 3.57135e-06 -3.39052e-06 0 3.75409e-06 -1.60434e-06 0 3.57427e-06 -6.79435e-07 0 3.33303e-06 -1.33343e-07 0 3.09777e-06 1.92349e-07 0 2.86826e-06 3.89242e-07 0 2.65145e-06 5.03622e-07 0 2.44523e-06 5.646e-07 0 2.25089e-06 5.9098e-07 0 2.06776e-06 5.94686e-07 0 1.89592e-06 5.84064e-07 0 1.73495e-06 5.64481e-07 0 1.58448e-06 5.39738e-07 0 1.44398e-06 5.12314e-07 0 1.31291e-06 4.8394e-07 0 1.19064e-06 4.55743e-07 0 1.07655e-06 4.28487e-07 0 9.69992e-07 4.02656e-07 0 8.70323e-07 3.78556e-07 0 7.76913e-07 3.56365e-07 0 6.89147e-07 3.36177e-07 0 6.06428e-07 3.18029e-07 0 5.28179e-07 3.01922e-07 0 4.53843e-07 2.87834e-07 0 3.82883e-07 2.75732e-07 0 3.14782e-07 2.65577e-07 0 2.49037e-07 2.5733e-07 0 1.85159e-07 2.50956e-07 0 1.22671e-07 2.46426e-07 0 6.11058e-08 2.43717e-07 0 0 2.42815e-07 0 2.11781e-06 -8.06341e-06 0 4.45519e-06 -3.51499e-06 0 4.17164e-06 -1.52437e-06 0 3.8122e-06 -5.80864e-07 0 3.46752e-06 -4.19889e-08 0 3.18256e-06 2.77343e-07 0 2.91614e-06 4.6808e-07 0 2.67924e-06 5.77061e-07 0 2.45788e-06 6.33264e-07 0 2.25484e-06 6.55105e-07 0 2.06547e-06 6.54628e-07 0 1.89005e-06 6.39989e-07 0 1.72676e-06 6.16647e-07 0 1.57511e-06 5.8834e-07 0 1.43406e-06 5.57592e-07 0 1.30294e-06 5.26111e-07 0 1.18091e-06 4.95044e-07 0 1.06726e-06 4.65142e-07 0 9.61272e-07 4.36892e-07 0 8.62252e-07 4.10591e-07 0 7.69533e-07 3.86412e-07 0 6.82477e-07 3.64442e-07 0 6.00472e-07 3.44709e-07 0 5.22931e-07 3.27207e-07 0 4.49292e-07 3.11907e-07 0 3.79017e-07 2.98769e-07 0 3.11587e-07 2.87748e-07 0 2.46498e-07 2.788e-07 0 1.83266e-07 2.71886e-07 0 1.21414e-07 2.66971e-07 0 6.04791e-08 2.64033e-07 0 0 2.63055e-07 0 2.27126e-06 -1.03076e-05 0 5.45588e-06 -3.35823e-06 0 4.69247e-06 -1.33843e-06 0 3.98288e-06 -4.40887e-07 0 3.63133e-06 7.27977e-08 0 3.24608e-06 3.76515e-07 0 2.97095e-06 5.55567e-07 0 2.7e-06 6.56479e-07 0 2.47127e-06 7.05522e-07 0 2.25586e-06 7.21784e-07 0 2.06235e-06 7.1604e-07 0 1.88248e-06 6.96912e-07 0 1.71746e-06 6.69322e-07 0 1.56448e-06 6.37224e-07 0 1.42309e-06 6.02933e-07 0 1.29193e-06 5.6824e-07 0 1.17025e-06 5.34208e-07 0 1.05712e-06 5.01613e-07 0 9.51781e-07 4.70908e-07 0 8.53481e-07 4.42389e-07 0 7.61524e-07 4.16213e-07 0 6.75245e-07 3.92457e-07 0 5.94019e-07 3.71141e-07 0 5.17249e-07 3.52247e-07 0 4.44369e-07 3.3574e-07 0 3.74836e-07 3.21571e-07 0 3.08131e-07 3.09689e-07 0 2.43754e-07 3.00045e-07 0 1.81219e-07 2.92593e-07 0 1.20056e-07 2.87298e-07 0 5.98016e-08 2.84132e-07 0 0 2.83078e-07 0 1.59339e-05 -1.45131e-05 0 6.56128e-06 -2.28751e-06 0 4.97042e-06 -1.15058e-06 0 4.25745e-06 -2.33554e-07 0 3.72336e-06 2.02493e-07 0 3.33679e-06 4.90344e-07 0 3.00527e-06 6.52349e-07 0 2.72626e-06 7.40458e-07 0 2.47811e-06 7.82293e-07 0 2.25697e-06 7.90207e-07 0 2.05649e-06 7.79349e-07 0 1.87386e-06 7.54486e-07 0 1.70653e-06 7.22649e-07 0 1.5527e-06 6.86247e-07 0 1.41091e-06 6.48368e-07 0 1.27991e-06 6.10259e-07 0 1.15863e-06 5.73227e-07 0 1.04611e-06 5.37864e-07 0 9.41505e-07 5.04685e-07 0 8.44006e-07 4.73924e-07 0 7.52884e-07 4.45745e-07 0 6.67453e-07 4.20201e-07 0 5.87072e-07 3.97303e-07 0 5.11136e-07 3.77022e-07 0 4.39073e-07 3.59313e-07 0 3.7034e-07 3.44119e-07 0 3.04417e-07 3.31381e-07 0 2.40804e-07 3.21045e-07 0 1.79021e-07 3.13061e-07 0 1.18597e-07 3.07387e-07 0 5.90739e-08 3.03996e-07 0 0 3.02867e-07 0 2.8782e-05 8.13216e-06 0 7.50137e-06 -2.42619e-06 0 4.86238e-06 -5.7311e-07 0 4.70353e-06 -8.10393e-08 0 3.69254e-06 3.79165e-07 0 3.48085e-06 6.11512e-07 0 3.00157e-06 7.55867e-07 0 2.76654e-06 8.32421e-07 0 2.47271e-06 8.6017e-07 0 2.2607e-06 8.62559e-07 0 2.04611e-06 8.42961e-07 0 1.86486e-06 8.13579e-07 0 1.69344e-06 7.7602e-07 0 1.53993e-06 7.35689e-07 0 1.39737e-06 6.93676e-07 0 1.26688e-06 6.52238e-07 0 1.146e-06 6.12012e-07 0 1.03425e-06 5.73894e-07 0 9.30432e-07 5.38179e-07 0 8.33828e-07 5.05178e-07 0 7.43611e-07 4.74981e-07 0 6.59101e-07 4.47652e-07 0 5.79631e-07 4.23173e-07 0 5.04593e-07 4.01511e-07 0 4.33408e-07 3.82606e-07 0 3.65532e-07 3.66394e-07 0 3.00446e-07 3.52807e-07 0 2.37652e-07 3.41785e-07 0 1.76671e-07 3.33272e-07 0 1.17037e-07 3.27224e-07 0 5.82964e-08 3.23608e-07 0 0 3.22406e-07 0 </DataArray> 
</PointData> 
<Points> 
<DataArray type="Float32" NumberOfComponents="3"> 