<?xml version="1.0"?> 
<VTKFile type="StructuredGrid" version="0.1"> 
<StructuredGrid WholeExtent="0 31 0 31 0 0"> 
<Piece Extent="0 31 0 31 0 0"> 
<PointData>
<DataArray type="Float32" Name="B" format="ascii" NumberOfComponents="3"> 
-0.00012778 2.47698e-05 0 -0.000171913 -7.76707e-07 0 -0.000186221 -7.08027e-07 0 -0.000197219 -1.3792e-06 0 -0.000223469 -1.50175e-06 0 -0.000245803 -1.6171e-06 0 -0.000272206 -1.60927e-06 0 -0.000296047 -1.51905e-06 0 -0.000318997 -1.37323e-06 0 -0.000338828 -1.18723e-06 0 -0.000355948 -9.91849e-07 0 -0.000369851 -7.94001e-07 0 -0.000380806 -6.04846e-07 0 -0.00038883 -4.23599e-07 0 -0.000394107 -2.50827e-07 0 -0.000396713 -8.29129e-08 0 -0.000396713 8.29129e-08 0 -0.000394107 2.50827e-07 0 -0.00038883 4.23599e-07 0 -0.000380806 6.04846e-07 0 -0.000369851 7.94001e-07 0 -0.000355948 9.91849e-07 0 -0.000338828 1.18723e-06 0 -0.000318997 1.37323e-06 0 -0.000296047 1.51905e-06 0 -0.000272206 1.60927e-06 0 -0.000245803 1.6171e-06 0 -0.000223469 1.50175e-06 0 -0.000197219 1.3792e-06 0 -0.000186221 7.08027e-07 0 -0.000171913 7.76707e-07 0 -0.00012778 -2.47698e-05 0 -4.93784e-06 1.63574e-05 0 1.53906e-05 -1.71785e-06 0 1.75898e-05 3.45059e-07 0 1.77276e-05 -1.22011e-07 0 2.05999e-05 2.2807e-09 0 2.23513e-05 -2.97085e-08 0 2.48846e-05 -3.00576e-08 0 2.69677e-05 -2.02363e-08 0 2.90871e-05 -2.65917e-08 0 3.08663e-05 -1.69047e-08 0 3.24321e-05 -1.83992e-08 0 3.36917e-05 -1.21369e-08 0 3.46918e-05 -1.08948e-08 0 3.54217e-05 -6.70119e-09 0 3.59035e-05 -4.52696e-09 0 3.61409e-05 -1.18365e-09 0 3.61409e-05 1.18365e-09 0 3.59035e-05 4.52696e-09 0 3.54217e-05 6.70119e-09 0 3.46918e-05 1.08948e-08 0 3.36917e-05 1.21369e-08 0 3.24321e-05 1.83992e-08 0 3.08663e-05 1.69047e-08 0 2.90871e-05 2.65917e-08 0 2.69677e-05 2.02363e-08 0 2.48846e-05 3.00576e-08 0 2.23513e-05 2.97085e-08 0 2.05999e-05 -2.2807e-09 0 1.77276e-05 1.22011e-07 0 1.75898e-05 -3.45059e-07 0 1.53906e-05 1.71785e-06 0 -4.93784e-06 -1.63574e-05 0 -1.75697e-06 1.31387e-05 0 -3.09625e-06 -1.27639e-06 0 -3.20905e-06 2.96366e-07 0 -3.5055e-06 -2.6204e-08 0 -3.89641e-06 7.52805e-08 0 -4.32067e-06 5.55399e-08 0 -4.75752e-06 5.57664e-08 0 -5.18276e-06 5.83341e-08 0 -5.57496e-06 4.71008e-08 0 -5.92336e-06 4.52024e-08 0 -6.2197e-06 3.49017e-08 0 -6.46322e-06 2.98706e-08 0 -6.65402e-06 2.16668e-08 0 -6.79456e-06 1.58573e-08 0 -6.88673e-06 9.01593e-09 0 -6.93239e-06 3.19837e-09 0 -6.93239e-06 -3.19837e-09 0 -6.88673e-06 -9.01593e-09 0 -6.79456e-06 -1.58573e-08 0 -6.65402e-06 -2.16668e-08 0 -6.46322e-06 -2.98706e-08 0 -6.2197e-06 -3.49017e-08 0 -5.92336e-06 -4.52024e-08 0 -5.57496e-06 -4.71008e-08 0 -5.18276e-06 -5.83341e-08 0 -4.75752e-06 -5.57664e-08 0 -4.32067e-06 -5.55399e-08 0 -3.89641e-06 -7.52805e-08 0 -3.5055e-06 2.6204e-08 0 -3.20905e-06 -2.96366e-07 0 -3.09625e-06 1.27639e-06 0 -1.75697e-06 -1.31387e-05 0 -1.03998e-06 7.34088e-06 0 7.91499e-07 -7.4717e-07 0 9.79908e-07 1.37566e-07 0 9.25097e-07 -7.26589e-08 0 1.11509e-06 -2.11778e-08 0 1.18839e-06 -3.65492e-08 0 1.33477e-06 -3.66354e-08 0 1.44014e-06 -3.10731e-08 0 1.55655e-06 -3.17057e-08 0 1.64998e-06 -2.48056e-08 0 1.73454e-06 -2.25938e-08 0 1.80144e-06 -1.69801e-08 0 1.85514e-06 -1.36581e-08 0 1.89406e-06 -9.16776e-09 0 1.91988e-06 -5.6728e-09 0 1.93255e-06 -1.73977e-09 0 1.93255e-06 1.73977e-09 0 1.91988e-06 5.6728e-09 0 1.89406e-06 9.16776e-09 0 1.85514e-06 1.36581e-08 0 1.80144e-06 1.69801e-08 0 1.73454e-06 2.25938e-08 0 1.64998e-06 2.48056e-08 0 1.55655e-06 3.17057e-08 0 1.44014e-06 3.10731e-08 0 1.33477e-06 3.66354e-08 0 1.18839e-06 3.65492e-08 0 1.11509e-06 2.11778e-08 0 9.25097e-07 7.26589e-08 0 9.79908e-07 -1.37566e-07 0 7.91499e-07 7.4717e-07 0 -1.03998e-06 -7.34088e-06 0 -7.79682e-07 7.51407e-06 0 -2.77263e-07 -7.2968e-07 0 -2.28547e-07 1.61847e-07 0 -3.04062e-07 -2.67768e-08 0 -3.05723e-07 2.95928e-08 0 -3.56993e-07 1.74814e-08 0 -3.83492e-07 1.76137e-08 0 -4.22996e-07 1.98785e-08 0 -4.52338e-07 1.47197e-08 0 -4.82055e-07 1.5264e-08 0 -5.05458e-07 1.10943e-08 0 -5.25631e-07 9.97163e-09 0 -5.40961e-07 6.96428e-09 0 -5.52479e-07 5.26386e-09 0 -5.59928e-07 2.90081e-09 0 -5.63657e-07 1.08365e-09 0 -5.63657e-07 -1.08365e-09 0 -5.59928e-07 -2.90081e-09 0 -5.52479e-07 -5.26386e-09 0 -5.40961e-07 -6.96428e-09 0 -5.25631e-07 -9.97163e-09 0 -5.05458e-07 -1.10943e-08 0 -4.82055e-07 -1.5264e-08 0 -4.52338e-07 -1.47197e-08 0 -4.22996e-07 -1.98785e-08 0 -3.83492e-07 -1.76137e-08 0 -3.56993e-07 -1.74814e-08 0 -3.05723e-07 -2.95928e-08 0 -3.04062e-07 2.67768e-08 0 -2.28547e-07 -1.61847e-07 0 -2.77263e-07 7.2968e-07 0 -7.79682e-07 -7.51407e-06 0 -5.52121e-07 5.27239e-06 0 2.49555e-08 -5.26339e-07 0 8.4176e-08 1.04398e-07 0 3.84312e-08 -3.90255e-08 0 7.47445e-08 -1.10361e-09 0 6.52438e-08 -1.11385e-08 0 8.15153e-08 -1.11302e-08 0 8.3734e-08 -8.09441e-09 0 9.28203e-08 -9.78161e-09 0 9.72359e-08 -6.63138e-09 0 1.02848e-07 -6.80916e-09 0 1.06507e-07 -4.67274e-09 0 1.09843e-07 -4.04773e-09 0 1.12068e-07 -2.55674e-09 0 1.13632e-07 -1.67936e-09 0 1.14366e-07 -4.62216e-10 0 1.14366e-07 4.62216e-10 0 1.13632e-07 1.67936e-09 0 1.12068e-07 2.55674e-09 0 1.09843e-07 4.04773e-09 0 1.06507e-07 4.67274e-09 0 1.02848e-07 6.80916e-09 0 9.72359e-08 6.63138e-09 0 9.28203e-08 9.78161e-09 0 8.3734e-08 8.09441e-09 0 8.15153e-08 1.11302e-08 0 6.52438e-08 1.11385e-08 0 7.47445e-08 1.10361e-09 0 3.84312e-08 3.90255e-08 0 8.4176e-08 -1.04398e-07 0 2.49555e-08 5.26339e-07 0 -5.52121e-07 -5.27239e-06 0 -4.58291e-07 4.87071e-06 0 -8.35569e-09 -4.75181e-07 0 3.50838e-08 1.01655e-07 0 -1.92912e-09 -2.33766e-08 0 2.17281e-08 1.25121e-08 0 1.07727e-08 4.22251e-09 0 1.89771e-08 4.29349e-09 0 1.67958e-08 6.18268e-09 0 2.00475e-08 3.44457e-09 0 2.02235e-08 4.6257e-09 0 2.17663e-08 2.7673e-09 0 2.23338e-08 2.92145e-09 0 2.31326e-08 1.80615e-09 0 2.35515e-08 1.51579e-09 0 2.39056e-08 7.54581e-10 0 2.40516e-08 3.31258e-10 0 2.40516e-08 -3.31258e-10 0 2.39056e-08 -7.54581e-10 0 2.35515e-08 -1.51579e-09 0 2.31326e-08 -1.80615e-09 0 2.23338e-08 -2.92145e-09 0 2.17663e-08 -2.7673e-09 0 2.02235e-08 -4.6257e-09 0 2.00475e-08 -3.44457e-09 0 1.67958e-08 -6.18268e-09 0 1.89771e-08 -4.29349e-09 0 1.07727e-08 -4.22251e-09 0 2.17281e-08 -1.25121e-08 0 -1.92912e-09 2.33766e-08 0 3.50838e-08 -1.01655e-07 0 -8.35569e-09 4.75181e-07 0 -4.58291e-07 -4.87071e-06 0 -3.71214e-07 3.82191e-06 0 -3.89476e-08 -3.77727e-07 0 -5.56794e-09 7.72403e-08 0 -3.81705e-08 -2.42469e-08 0 -2.32318e-08 3.48465e-09 0 -3.63162e-08 -3.47474e-09 0 -3.41983e-08 -3.44491e-09 0 -4.0279e-08 -1.54041e-09 0 -4.16831e-08 -3.13329e-09 0 -4.51122e-08 -1.40203e-09 0 -4.69228e-08 -2.06573e-09 0 -4.89784e-08 -1.09554e-09 0 -5.03101e-08 -1.17773e-09 0 -5.14292e-08 -6.25873e-10 0 -5.21012e-08 -4.87104e-10 0 -5.24578e-08 -9.51506e-11 0 -5.24578e-08 9.51506e-11 0 -5.21012e-08 4.87104e-10 0 -5.14292e-08 6.25873e-10 0 -5.03101e-08 1.17773e-09 0 -4.89784e-08 1.09554e-09 0 -4.69228e-08 2.06573e-09 0 -4.51122e-08 1.40203e-09 0 -4.16831e-08 3.13329e-09 0 -4.0279e-08 1.54041e-09 0 -3.41983e-08 3.44491e-09 0 -3.63162e-08 3.47474e-09 0 -2.32318e-08 -3.48465e-09 0 -3.81705e-08 2.42469e-08 0 -5.56794e-09 -7.72403e-08 0 -3.89476e-08 3.77727e-07 0 -3.71214e-07 -3.82191e-06 0 -3.25686e-07 3.31984e-06 0 6.78032e-09 -3.24778e-07 0 3.8746e-08 6.83194e-08 0 1.31262e-08 -1.78079e-08 0 3.19192e-08 6.46543e-09 0 2.57398e-08 6.76589e-10 0 3.35119e-08 7.20042e-10 0 3.3702e-08 2.13878e-09 0 3.76938e-08 4.5863e-10 0 3.92719e-08 1.52057e-09 0 4.16235e-08 5.14645e-10 0 4.30476e-08 8.93128e-10 0 4.44197e-08 3.91165e-10 0 4.53073e-08 4.45059e-10 0 4.59468e-08 1.65097e-10 0 4.62423e-08 1.10668e-10 0 4.62423e-08 -1.10668e-10 0 4.59468e-08 -1.65097e-10 0 4.53073e-08 -4.45059e-10 0 4.44197e-08 -3.91165e-10 0 4.30476e-08 -8.93128e-10 0 4.16235e-08 -5.14645e-10 0 3.92719e-08 -1.52057e-09 0 3.76938e-08 -4.5863e-10 0 3.3702e-08 -2.13878e-09 0 3.35119e-08 -7.20042e-10 0 2.57398e-08 -6.76589e-10 0 3.19192e-08 -6.46543e-09 0 1.31262e-08 1.78079e-08 0 3.8746e-08 -6.83194e-08 0 6.78032e-09 3.24778e-07 0 -3.25686e-07 -3.31984e-06 0 -2.82113e-07 2.68396e-06 0 -2.6328e-08 -2.64019e-07 0 -1.09118e-09 5.45993e-08 0 -2.53704e-08 -1.59575e-08 0 -1.37581e-08 3.56352e-09 0 -2.3212e-08 -1.23831e-09 0 -2.12136e-08 -1.21013e-09 0 -2.5393e-08 4.82151e-11 0 -2.60851e-08 -1.16503e-09 0 -2.8339e-08 -9.47343e-11 0 -2.94238e-08 -6.99553e-10 0 -3.07409e-08 -1.70006e-10 0 -3.15629e-08 -3.67293e-10 0 -3.22719e-08 -1.18356e-10 0 -3.26902e-08 -1.5087e-10 0 -3.29152e-08 -4.06968e-12 0 -3.29152e-08 4.06968e-12 0 -3.26902e-08 1.5087e-10 0 -3.22719e-08 1.18356e-10 0 -3.15629e-08 3.67293e-10 0 -3.07409e-08 1.70006e-10 0 -2.94238e-08 6.99553e-10 0 -2.8339e-08 9.47343e-11 0 -2.60851e-08 1.16503e-09 0 -2.5393e-08 -4.82151e-11 0 -2.12136e-08 1.21013e-09 0 -2.3212e-08 1.23831e-09 0 -1.37581e-08 -3.56352e-09 0 -2.53704e-08 1.59575e-08 0 -1.09118e-09 -5.45993e-08 0 -2.6328e-08 2.64019e-07 0 -2.82113e-07 -2.68396e-06 0 -2.57296e-07 2.22095e-06 0 -1.35368e-09 -2.17511e-07 0 2.32491e-08 4.54513e-08 0 2.67831e-09 -1.24008e-08 0 1.64766e-08 3.78832e-09 0 1.07682e-08 -1.20544e-10 0 1.58901e-08 -9.24949e-11 0 1.51367e-08 8.9035e-10 0 1.74099e-08 -1.85063e-10 0 1.78974e-08 5.91953e-10 0 1.90959e-08 -1.30436e-11 0 1.96848e-08 3.11241e-10 0 2.03449e-08 4.27521e-11 0 2.07353e-08 1.44386e-10 0 2.10357e-08 1.93952e-11 0 2.11679e-08 4.40073e-11 0 2.11679e-08 -4.40073e-11 0 2.10357e-08 -1.93952e-11 0 2.07353e-08 -1.44386e-10 0 2.03449e-08 -4.27521e-11 0 1.96848e-08 -3.11241e-10 0 1.90959e-08 1.30436e-11 0 1.78974e-08 -5.91953e-10 0 1.74099e-08 1.85063e-10 0 1.51367e-08 -8.9035e-10 0 1.58901e-08 9.24949e-11 0 1.07682e-08 1.20544e-10 0 1.64766e-08 -3.78832e-09 0 2.67831e-09 1.24008e-08 0 2.32491e-08 -4.54513e-08 0 -1.35368e-09 2.17511e-07 0 -2.57296e-07 -2.22095e-06 0 -2.34128e-07 1.74822e-06 0 -1.53864e-08 -1.716e-07 0 5.9277e-09 3.56289e-08 0 -1.37161e-08 -1.01408e-08 0 -3.20391e-09 2.57932e-09 0 -1.02018e-08 -5.27493e-10 0 -7.61793e-09 -5.07074e-10 0 -1.02116e-08 2.93536e-10 0 -9.96495e-09 -5.18002e-10 0 -1.11117e-08 1.44909e-10 0 -1.13921e-08 -2.80899e-10 0 -1.19768e-08 2.85511e-11 0 -1.22594e-08 -1.32245e-10 0 -1.25535e-08 -2.41494e-12 0 -1.27073e-08 -5.37649e-11 0 -1.27984e-08 1.19312e-11 0 -1.27984e-08 -1.19312e-11 0 -1.27073e-08 5.37649e-11 0 -1.25535e-08 2.41494e-12 0 -1.22594e-08 1.32245e-10 0 -1.19768e-08 -2.85511e-11 0 -1.13921e-08 2.80899e-10 0 -1.11117e-08 -1.44909e-10 0 -9.96495e-09 5.18002e-10 0 -1.02116e-08 -2.93536e-10 0 -7.61793e-09 5.07074e-10 0 -1.02018e-08 5.27493e-10 0 -3.20391e-09 -2.57932e-09 0 -1.37161e-08 1.01408e-08 0 5.9277e-09 -3.56289e-08 0 -1.53864e-08 1.716e-07 0 -2.34128e-07 -1.74822e-06 0 -2.20402e-07 1.3364e-06 0 -5.86711e-09 -1.30919e-07 0 1.47728e-08 2.72907e-08 0 -3.09633e-09 -7.56578e-09 0 7.99914e-09 2.16366e-09 0 2.52487e-09 -1.96015e-10 0 6.2026e-09 -1.79207e-10 0 4.9229e-09 4.19216e-10 0 6.25461e-09 -2.17249e-10 0 6.14013e-09 2.64472e-10 0 6.70551e-09 -8.484e-11 0 6.83444e-09 1.25529e-10 0 7.10327e-09 -2.14756e-11 0 7.21991e-09 5.37905e-11 0 7.33389e-09 -7.96451e-12 0 7.37628e-09 1.99962e-11 0 7.37628e-09 -1.99962e-11 0 7.33389e-09 7.96451e-12 0 7.21991e-09 -5.37905e-11 0 7.10327e-09 2.14756e-11 0 6.83444e-09 -1.25529e-10 0 6.70551e-09 8.484e-11 0 6.14013e-09 -2.64472e-10 0 6.25461e-09 2.17249e-10 0 4.9229e-09 -4.19216e-10 0 6.2026e-09 1.79207e-10 0 2.52487e-09 1.96015e-10 0 7.99914e-09 -2.16366e-09 0 -3.09633e-09 7.56578e-09 0 1.47728e-08 -2.72907e-08 0 -5.86711e-09 1.30919e-07 0 -2.20402e-07 -1.3364e-06 0 -2.08918e-07 9.3513e-07 0 -1.0437e-08 -9.17035e-08 0 8.76516e-09 1.90652e-08 0 -8.50021e-09 -5.37798e-09 0 1.32096e-09 1.42548e-09 0 -4.49046e-09 -2.32377e-10 0 -1.71585e-09 -2.20979e-10 0 -3.58505e-09 2.03697e-10 0 -2.94807e-09 -2.34017e-10 0 -3.60326e-09 1.14346e-10 0 -3.53847e-09 -1.1901e-10 0 -3.80156e-09 4.01266e-11 0 -3.85045e-09 -5.16104e-11 0 -3.96323e-09 1.2041e-11 0 -4.00213e-09 -2.08008e-11 0 -4.03466e-09 8.98289e-12 0 -4.03466e-09 -8.98289e-12 0 -4.00213e-09 2.08008e-11 0 -3.96323e-09 -1.2041e-11 0 -3.85045e-09 5.16104e-11 0 -3.80156e-09 -4.01266e-11 0 -3.53847e-09 1.1901e-10 0 -3.60326e-09 -1.14346e-10 0 -2.94807e-09 2.34017e-10 0 -3.58505e-09 -2.03697e-10 0 -1.71585e-09 2.20979e-10 0 -4.49046e-09 2.32377e-10 0 1.32096e-09 -1.42548e-09 0 -8.50021e-09 5.37798e-09 0 8.76516e-09 -1.90652e-08 0 -1.0437e-08 9.17035e-08 0 -2.08918e-07 -9.3513e-07 0 -2.02694e-07 5.56498e-07 0 -7.50721e-09 -5.45137e-08 0 1.12856e-08 1.1356e-08 0 -5.26544e-09 -3.16175e-09 0 4.61908e-09 8.87847e-10 0 -6.78567e-10 -9.55189e-11 0 2.38792e-09 -8.84831e-11 0 9.27038e-10 1.61425e-10 0 1.87711e-09 -1.02345e-10 0 1.53385e-09 9.97939e-11 0 1.84765e-09 -4.39723e-11 0 1.79822e-09 4.53189e-11 0 1.91275e-09 -1.42445e-11 0 1.92259e-09 1.86746e-11 0 1.96325e-09 -5.52193e-12 0 1.97051e-09 7.59569e-12 0 1.97051e-09 -7.59569e-12 0 1.96325e-09 5.52193e-12 0 1.92259e-09 -1.86746e-11 0 1.91275e-09 1.42445e-11 0 1.79822e-09 -4.53189e-11 0 1.84765e-09 4.39723e-11 0 1.53385e-09 -9.97939e-11 0 1.87711e-09 1.02345e-10 0 9.27038e-10 -1.61425e-10 0 2.38792e-09 8.84831e-11 0 -6.78567e-10 9.55189e-11 0 4.61908e-09 -8.87847e-10 0 -5.26544e-09 3.16175e-09 0 1.12856e-08 -1.1356e-08 0 -7.50721e-09 5.45137e-08 0 -2.02694e-07 -5.56498e-07 0 -1.9921e-07 1.83797e-07 0 -8.49606e-09 -1.80283e-08 0 9.89165e-09 3.74561e-09 0 -6.45129e-09 -1.06087e-09 0 3.10505e-09 2.76073e-10 0 -2.24439e-09 -5.00813e-11 0 6.06955e-10 -4.78461e-11 0 -9.7904e-10 3.58788e-11 0 -1.88278e-10 -4.97904e-11 0 -6.50766e-10 1.91879e-11 0 -4.5017e-10 -2.61607e-11 0 -5.86974e-10 5.66458e-12 0 -5.43953e-10 -1.18469e-11 0 -5.85435e-10 1.17249e-12 0 -5.79131e-10 -4.79807e-12 0 -5.88652e-10 1.53144e-12 0 -5.88652e-10 -1.53144e-12 0 -5.79131e-10 4.79807e-12 0 -5.85435e-10 -1.17249e-12 0 -5.43953e-10 1.18469e-11 0 -5.86974e-10 -5.66458e-12 0 -4.5017e-10 2.61607e-11 0 -6.50766e-10 -1.91879e-11 0 -1.88278e-10 4.97904e-11 0 -9.7904e-10 -3.58788e-11 0 6.06955e-10 4.78461e-11 0 -2.24439e-09 5.00813e-11 0 3.10505e-09 -2.76073e-10 0 -6.45129e-09 1.06087e-09 0 9.89165e-09 -3.74561e-09 0 -8.49606e-09 1.80283e-08 0 -1.9921e-07 -1.83797e-07 0 -1.9921e-07 -1.83797e-07 0 -8.49606e-09 1.80283e-08 0 9.89165e-09 -3.74561e-09 0 -6.45129e-09 1.06087e-09 0 3.10505e-09 -2.76073e-10 0 -2.24439e-09 5.00813e-11 0 6.06955e-10 4.78461e-11 0 -9.7904e-10 -3.58788e-11 0 -1.88278e-10 4.97904e-11 0 -6.50766e-10 -1.91879e-11 0 -4.5017e-10 2.61607e-11 0 -5.86974e-10 -5.66458e-12 0 -5.43953e-10 1.18469e-11 0 -5.85435e-10 -1.17249e-12 0 -5.79131e-10 4.79807e-12 0 -5.88652e-10 -1.53144e-12 0 -5.88652e-10 1.53144e-12 0 -5.79131e-10 -4.79807e-12 0 -5.85435e-10 1.17249e-12 0 -5.43953e-10 -1.18469e-11 0 -5.86974e-10 5.66458e-12 0 -4.5017e-10 -2.61607e-11 0 -6.50766e-10 1.91879e-11 0 -1.88278e-10 -4.97904e-11 0 -9.7904e-10 3.58788e-11 0 6.06955e-10 -4.78461e-11 0 -2.24439e-09 -5.00813e-11 0 3.10505e-09 2.76073e-10 0 -6.45129e-09 -1.06087e-09 0 9.89165e-09 3.74561e-09 0 -8.49606e-09 -1.80283e-08 0 -1.9921e-07 1.83797e-07 0 -2.02694e-07 -5.56498e-07 0 -7.50721e-09 5.45137e-08 0 1.12856e-08 -1.1356e-08 0 -5.26544e-09 3.16175e-09 0 4.61908e-09 -8.87847e-10 0 -6.78567e-10 9.55189e-11 0 2.38792e-09 8.84831e-11 0 9.27038e-10 -1.61425e-10 0 1.87711e-09 1.02345e-10 0 1.53385e-09 -9.97939e-11 0 1.84765e-09 4.39723e-11 0 1.79822e-09 -4.53189e-11 0 1.91275e-09 1.42445e-11 0 1.92259e-09 -1.86746e-11 0 1.96325e-09 5.52193e-12 0 1.97051e-09 -7.59569e-12 0 1.97051e-09 7.59569e-12 0 1.96325e-09 -5.52193e-12 0 1.92259e-09 1.86746e-11 0 1.91275e-09 -1.42445e-11 0 1.79822e-09 4.53189e-11 0 1.84765e-09 -4.39723e-11 0 1.53385e-09 9.97939e-11 0 1.87711e-09 -1.02345e-10 0 9.27038e-10 1.61425e-10 0 2.38792e-09 -8.84831e-11 0 -6.78567e-10 -9.55189e-11 0 4.61908e-09 8.87847e-10 0 -5.26544e-09 -3.16175e-09 0 1.12856e-08 1.1356e-08 0 -7.50721e-09 -5.45137e-08 0 -2.02694e-07 5.56498e-07 0 -2.08918e-07 -9.3513e-07 0 -1.0437e-08 9.17035e-08 0 8.76516e-09 -1.90652e-08 0 -8.50021e-09 5.37798e-09 0 1.32096e-09 -1.42548e-09 0 -4.49046e-09 2.32377e-10 0 -1.71585e-09 2.20979e-10 0 -3.58505e-09 -2.03697e-10 0 -2.94807e-09 2.34017e-10 0 -3.60326e-09 -1.14346e-10 0 -3.53847e-09 1.1901e-10 0 -3.80156e-09 -4.01266e-11 0 -3.85045e-09 5.16104e-11 0 -3.96323e-09 -1.2041e-11 0 -4.00213e-09 2.08008e-11 0 -4.03466e-09 -8.98289e-12 0 -4.03466e-09 8.98289e-12 0 -4.00213e-09 -2.08008e-11 0 -3.96323e-09 1.2041e-11 0 -3.85045e-09 -5.16104e-11 0 -3.80156e-09 4.01266e-11 0 -3.53847e-09 -1.1901e-10 0 -3.60326e-09 1.14346e-10 0 -2.94807e-09 -2.34017e-10 0 -3.58505e-09 2.03697e-10 0 -1.71585e-09 -2.20979e-10 0 -4.49046e-09 -2.32377e-10 0 1.32096e-09 1.42548e-09 0 -8.50021e-09 -5.37798e-09 0 8.76516e-09 1.90652e-08 0 -1.0437e-08 -9.17035e-08 0 -2.08918e-07 9.3513e-07 0 -2.20402e-07 -1.3364e-06 0 -5.86711e-09 1.30919e-07 0 1.47728e-08 -2.72907e-08 0 -3.09633e-09 7.56578e-09 0 7.99914e-09 -2.16366e-09 0 2.52487e-09 1.96015e-10 0 6.2026e-09 1.79207e-10 0 4.9229e-09 -4.19216e-10 0 6.25461e-09 2.17249e-10 0 6.14013e-09 -2.64472e-10 0 6.70551e-09 8.484e-11 0 6.83444e-09 -1.25529e-10 0 7.10327e-09 2.14756e-11 0 7.21991e-09 -5.37905e-11 0 7.33389e-09 7.96451e-12 0 7.37628e-09 -1.99962e-11 0 7.37628e-09 1.99962e-11 0 7.33389e-09 -7.96451e-12 0 7.21991e-09 5.37905e-11 0 7.10327e-09 -2.14756e-11 0 6.83444e-09 1.25529e-10 0 6.70551e-09 -8.484e-11 0 6.14013e-09 2.64472e-10 0 6.25461e-09 -2.17249e-10 0 4.9229e-09 4.19216e-10 0 6.2026e-09 -1.79207e-10 0 2.52487e-09 -1.96015e-10 0 7.99914e-09 2.16366e-09 0 -3.09633e-09 -7.56578e-09 0 1.47728e-08 2.72907e-08 0 -5.86711e-09 -1.30919e-07 0 -2.20402e-07 1.3364e-06 0 -2.34128e-07 -1.74822e-06 0 -1.53864e-08 1.716e-07 0 5.9277e-09 -3.56289e-08 0 -1.37161e-08 1.01408e-08 0 -3.20391e-09 -2.57932e-09 0 -1.02018e-08 5.27493e-10 0 -7.61793e-09 5.07074e-10 0 -1.02116e-08 -2.93536e-10 0 -9.96495e-09 5.18002e-10 0 -1.11117e-08 -1.44909e-10 0 -1.13921e-08 2.80899e-10 0 -1.19768e-08 -2.85511e-11 0 -1.22594e-08 1.32245e-10 0 -1.25535e-08 2.41494e-12 0 -1.27073e-08 5.37649e-11 0 -1.27984e-08 -1.19312e-11 0 -1.27984e-08 1.19312e-11 0 -1.27073e-08 -5.37649e-11 0 -1.25535e-08 -2.41494e-12 0 -1.22594e-08 -1.32245e-10 0 -1.19768e-08 2.85511e-11 0 -1.13921e-08 -2.80899e-10 0 -1.11117e-08 1.44909e-10 0 -9.96495e-09 -5.18002e-10 0 -1.02116e-08 2.93536e-10 0 -7.61793e-09 -5.07074e-10 0 -1.02018e-08 -5.27493e-10 0 -3.20391e-09 2.57932e-09 0 -1.37161e-08 -1.01408e-08 0 5.9277e-09 3.56289e-08 0 -1.53864e-08 -1.716e-07 0 -2.34128e-07 1.74822e-06 0 -2.57296e-07 -2.22095e-06 0 -1.35368e-09 2.17511e-07 0 2.32491e-08 -4.54513e-08 0 2.67831e-09 1.24008e-08 0 1.64766e-08 -3.78832e-09 0 1.07682e-08 1.20544e-10 0 1.58901e-08 9.24949e-11 0 1.51367e-08 -8.9035e-10 0 1.74099e-08 1.85063e-10 0 1.78974e-08 -5.91953e-10 0 1.90959e-08 1.30436e-11 0 1.96848e-08 -3.11241e-10 0 2.03449e-08 -4.27521e-11 0 2.07353e-08 -1.44386e-10 0 2.10357e-08 -1.93952e-11 0 2.11679e-08 -4.40073e-11 0 2.11679e-08 4.40073e-11 0 2.10357e-08 1.93952e-11 0 2.07353e-08 1.44386e-10 0 2.03449e-08 4.27521e-11 0 1.96848e-08 3.11241e-10 0 1.90959e-08 -1.30436e-11 0 1.78974e-08 5.91953e-10 0 1.74099e-08 -1.85063e-10 0 1.51367e-08 8.9035e-10 0 1.58901e-08 -9.24949e-11 0 1.07682e-08 -1.20544e-10 0 1.64766e-08 3.78832e-09 0 2.67831e-09 -1.24008e-08 0 2.32491e-08 4.54513e-08 0 -1.35368e-09 -2.17511e-07 0 -2.57296e-07 2.22095e-06 0 -2.82113e-07 -2.68396e-06 0 -2.6328e-08 2.64019e-07 0 -1.09118e-09 -5.45993e-08 0 -2.53704e-08 1.59575e-08 0 -1.37581e-08 -3.56352e-09 0 -2.3212e-08 1.23831e-09 0 -2.12136e-08 1.21013e-09 0 -2.5393e-08 -4.82151e-11 0 -2.60851e-08 1.16503e-09 0 -2.8339e-08 9.47343e-11 0 -2.94238e-08 6.99553e-10 0 -3.07409e-08 1.70006e-10 0 -3.15629e-08 3.67293e-10 0 -3.22719e-08 1.18356e-10 0 -3.26902e-08 1.5087e-10 0 -3.29152e-08 4.06968e-12 0 -3.29152e-08 -4.06968e-12 0 -3.26902e-08 -1.5087e-10 0 -3.22719e-08 -1.18356e-10 0 -3.15629e-08 -3.67293e-10 0 -3.07409e-08 -1.70006e-10 0 -2.94238e-08 -6.99553e-10 0 -2.8339e-08 -9.47343e-11 0 -2.60851e-08 -1.16503e-09 0 -2.5393e-08 4.82151e-11 0 -2.12136e-08 -1.21013e-09 0 -2.3212e-08 -1.23831e-09 0 -1.37581e-08 3.56352e-09 0 -2.53704e-08 -1.59575e-08 0 -1.09118e-09 5.45993e-08 0 -2.6328e-08 -2.64019e-07 0 -2.82113e-07 2.68396e-06 0 -3.25686e-07 -3.31984e-06 0 6.78032e-09 3.24778e-07 0 3.8746e-08 -6.83194e-08 0 1.31262e-08 1.78079e-08 0 3.19192e-08 -6.46543e-09 0 2.57398e-08 -6.76589e-10 0 3.35119e-08 -7.20042e-10 0 3.3702e-08 -2.13878e-09 0 3.76938e-08 -4.5863e-10 0 3.92719e-08 -1.52057e-09 0 4.16235e-08 -5.14645e-10 0 4.30476e-08 -8.93128e-10 0 4.44197e-08 -3.91165e-10 0 4.53073e-08 -4.45059e-10 0 4.59468e-08 -1.65097e-10 0 4.62423e-08 -1.10668e-10 0 4.62423e-08 1.10668e-10 0 4.59468e-08 1.65097e-10 0 4.53073e-08 4.45059e-10 0 4.44197e-08 3.91165e-10 0 4.30476e-08 8.93128e-10 0 4.16235e-08 5.14645e-10 0 3.92719e-08 1.52057e-09 0 3.76938e-08 4.5863e-10 0 3.3702e-08 2.13878e-09 0 3.35119e-08 7.20042e-10 0 2.57398e-08 6.76589e-10 0 3.19192e-08 6.46543e-09 0 1.31262e-08 -1.78079e-08 0 3.8746e-08 6.83194e-08 0 6.78032e-09 -3.24778e-07 0 -3.25686e-07 3.31984e-06 0 -3.71214e-07 -3.82191e-06 0 -3.89476e-08 3.77727e-07 0 -5.56794e-09 -7.72403e-08 0 -3.81705e-08 2.42469e-08 0 -2.32318e-08 -3.48465e-09 0 -3.63162e-08 3.47474e-09 0 -3.41983e-08 3.44491e-09 0 -4.0279e-08 1.54041e-09 0 -4.16831e-08 3.13329e-09 0 -4.51122e-08 1.40203e-09 0 -4.69228e-08 2.06573e-09 0 -4.89784e-08 1.09554e-09 0 -5.03101e-08 1.17773e-09 0 -5.14292e-08 6.25873e-10 0 -5.21012e-08 4.87104e-10 0 -5.24578e-08 9.51506e-11 0 -5.24578e-08 -9.51506e-11 0 -5.21012e-08 -4.87104e-10 0 -5.14292e-08 -6.25873e-10 0 -5.03101e-08 -1.17773e-09 0 -4.89784e-08 -1.09554e-09 0 -4.69228e-08 -2.06573e-09 0 -4.51122e-08 -1.40203e-09 0 -4.16831e-08 -3.13329e-09 0 -4.0279e-08 -1.54041e-09 0 -3.41983e-08 -3.44491e-09 0 -3.63162e-08 -3.47474e-09 0 -2.32318e-08 3.48465e-09 0 -3.81705e-08 -2.42469e-08 0 -5.56794e-09 7.72403e-08 0 -3.89476e-08 -3.77727e-07 0 -3.71214e-07 3.82191e-06 0 -4.58291e-07 -4.87071e-06 0 -8.35569e-09 4.75181e-07 0 3.50838e-08 -1.01655e-07 0 -1.92912e-09 2.33766e-08 0 2.17281e-08 -1.25121e-08 0 1.07727e-08 -4.22251e-09 0 1.89771e-08 -4.29349e-09 0 1.67958e-08 -6.18268e-09 0 2.00475e-08 -3.44457e-09 0 2.02235e-08 -4.6257e-09 0 2.17663e-08 -2.7673e-09 0 2.23338e-08 -2.92145e-09 0 2.31326e-08 -1.80615e-09 0 2.35515e-08 -1.51579e-09 0 2.39056e-08 -7.54581e-10 0 2.40516e-08 -3.31258e-10 0 2.40516e-08 3.31258e-10 0 2.39056e-08 7.54581e-10 0 2.35515e-08 1.51579e-09 0 2.31326e-08 1.80615e-09 0 2.23338e-08 2.92145e-09 0 2.17663e-08 2.7673e-09 0 2.02235e-08 4.6257e-09 0 2.00475e-08 3.44457e-09 0 1.67958e-08 6.18268e-09 0 1.89771e-08 4.29349e-09 0 1.07727e-08 4.22251e-09 0 2.17281e-08 1.25121e-08 0 -1.92912e-09 -2.33766e-08 0 3.50838e-08 1.01655e-07 0 -8.35569e-09 -4.75181e-07 0 -4.58291e-07 4.87071e-06 0 -5.52121e-07 -5.27239e-06 0 2.49555e-08 5.26339e-07 0 8.4176e-08 -1.04398e-07 0 3.84312e-08 3.90255e-08 0 7.47445e-08 1.10361e-09 0 6.52438e-08 1.11385e-08 0 8.15153e-08 1.11302e-08 0 8.3734e-08 8.09441e-09 0 9.28203e-08 9.78161e-09 0 9.72359e-08 6.63138e-09 0 1.02848e-07 6.80916e-09 0 1.06507e-07 4.67274e-09 0 1.09843e-07 4.04773e-09 0 1.12068e-07 2.55674e-09 0 1.13632e-07 1.67936e-09 0 1.14366e-07 4.62216e-10 0 1.14366e-07 -4.62216e-10 0 1.13632e-07 -1.67936e-09 0 1.12068e-07 -2.55674e-09 0 1.09843e-07 -4.04773e-09 0 1.06507e-07 -4.67274e-09 0 1.02848e-07 -6.80916e-09 0 9.72359e-08 -6.63138e-09 0 9.28203e-08 -9.78161e-09 0 8.3734e-08 -8.09441e-09 0 8.15153e-08 -1.11302e-08 0 6.52438e-08 -1.11385e-08 0 7.47445e-08 -1.10361e-09 0 3.84312e-08 -3.90255e-08 0 8.4176e-08 1.04398e-07 0 2.49555e-08 -5.26339e-07 0 -5.52121e-07 5.27239e-06 0 -7.79682e-07 -7.51407e-06 0 -2.77263e-07 7.2968e-07 0 -2.28547e-07 -1.61847e-07 0 -3.04062e-07 2.67768e-08 0 -3.05723e-07 -2.95928e-08 0 -3.56993e-07 -1.74814e-08 0 -3.83492e-07 -1.76137e-08 0 -4.22996e-07 -1.98785e-08 0 -4.52338e-07 -1.47197e-08 0 -4.82055e-07 -1.5264e-08 0 -5.05458e-07 -1.10943e-08 0 -5.25631e-07 -9.97163e-09 0 -5.40961e-07 -6.96428e-09 0 -5.52479e-07 -5.26386e-09 0 -5.59928e-07 -2.90081e-09 0 -5.63657e-07 -1.08365e-09 0 -5.63657e-07 1.08365e-09 0 -5.59928e-07 2.90081e-09 0 -5.52479e-07 5.26386e-09 0 -5.40961e-07 6.96428e-09 0 -5.25631e-07 9.97163e-09 0 -5.05458e-07 1.10943e-08 0 -4.82055e-07 1.5264e-08 0 -4.52338e-07 1.47197e-08 0 -4.22996e-07 1.98785e-08 0 -3.83492e-07 1.76137e-08 0 -3.56993e-07 1.74814e-08 0 -3.05723e-07 2.95928e-08 0 -3.04062e-07 -2.67768e-08 0 -2.28547e-07 1.61847e-07 0 -2.77263e-07 -7.2968e-07 0 -7.79682e-07 7.51407e-06 0 -1.03998e-06 -7.34088e-06 0 7.91499e-07 7.4717e-07 0 9.79908e-07 -1.37566e-07 0 9.25097e-07 7.26589e-08 0 1.11509e-06 2.11778e-08 0 1.18839e-06 3.65492e-08 0 1.33477e-06 3.66354e-08 0 1.44014e-06 3.10731e-08 0 1.55655e-06 3.17057e-08 0 1.64998e-06 2.48056e-08 0 1.73454e-06 2.25938e-08 0 1.80144e-06 1.69801e-08 0 1.85514e-06 1.36581e-08 0 1.89406e-06 9.16776e-09 0 1.91988e-06 5.6728e-09 0 1.93255e-06 1.73977e-09 0 1.93255e-06 -1.73977e-09 0 1.91988e-06 -5.6728e-09 0 1.89406e-06 -9.16776e-09 0 1.85514e-06 -1.36581e-08 0 1.80144e-06 -1.69801e-08 0 1.73454e-06 -2.25938e-08 0 1.64998e-06 -2.48056e-08 0 1.55655e-06 -3.17057e-08 0 1.44014e-06 -3.10731e-08 0 1.33477e-06 -3.66354e-08 0 1.18839e-06 -3.65492e-08 0 1.11509e-06 -2.11778e-08 0 9.25097e-07 -7.26589e-08 0 9.79908e-07 1.37566e-07 0 7.91499e-07 -7.4717e-07 0 -1.03998e-06 7.34088e-06 0 -1.75697e-06 -1.31387e-05 0 -3.09625e-06 1.27639e-06 0 -3.20905e-06 -2.96366e-07 0 -3.5055e-06 2.6204e-08 0 -3.89641e-06 -7.52805e-08 0 -4.32067e-06 -5.55399e-08 0 -4.75752e-06 -5.57664e-08 0 -5.18276e-06 -5.83341e-08 0 -5.57496e-06 -4.71008e-08 0 -5.92336e-06 -4.52024e-08 0 -6.2197e-06 -3.49017e-08 0 -6.46322e-06 -2.98706e-08 0 -6.65402e-06 -2.16668e-08 0 -6.79456e-06 -1.58573e-08 0 -6.88673e-06 -9.01593e-09 0 -6.93239e-06 -3.19837e-09 0 -6.93239e-06 3.19837e-09 0 -6.88673e-06 9.01593e-09 0 -6.79456e-06 1.58573e-08 0 -6.65402e-06 2.16668e-08 0 -6.46322e-06 2.98706e-08 0 -6.2197e-06 3.49017e-08 0 -5.92336e-06 4.52024e-08 0 -5.57496e-06 4.71008e-08 0 -5.18276e-06 5.83341e-08 0 -4.75752e-06 5.57664e-08 0 -4.32067e-06 5.55399e-08 0 -3.89641e-06 7.52805e-08 0 -3.5055e-06 -2.6204e-08 0 -3.20905e-06 2.96366e-07 0 -3.09625e-06 -1.27639e-06 0 -1.75697e-06 1.31387e-05 0 -4.93784e-06 -1.63574e-05 0 1.53906e-05 1.71785e-06 0 1.75898e-05 -3.45059e-07 0 1.77276e-05 1.22011e-07 0 2.05999e-05 -2.2807e-09 0 2.23513e-05 2.97085e-08 0 2.48846e-05 3.00576e-08 0 2.69677e-05 2.02363e-08 0 2.90871e-05 2.65917e-08 0 3.08663e-05 1.69047e-08 0 3.24321e-05 1.83992e-08 0 3.36917e-05 1.21369e-08 0 3.46918e-05 1.08948e-08 0 3.54217e-05 6.70119e-09 0 3.59035e-05 4.52696e-09 0 3.61409e-05 1.18365e-09 0 3.61409e-05 -1.18365e-09 0 3.59035e-05 -4.52696e-09 0 3.54217e-05 -6.70119e-09 0 3.46918e-05 -1.08948e-08 0 3.36917e-05 -1.21369e-08 0 3.24321e-05 -1.83992e-08 0 3.08663e-05 -1.69047e-08 0 2.90871e-05 -2.65917e-08 0 2.69677e-05 -2.02363e-08 0 2.48846e-05 -3.00576e-08 0 2.23513e-05 -2.97085e-08 0 2.05999e-05 2.2807e-09 0 1.77276e-05 -1.22011e-07 0 1.75898e-05 3.45059e-07 0 1.53906e-05 -1.71785e-06 0 -4.93784e-06 1.63574e-05 0 -0.00012778 -2.47698e-05 0 -0.000171913 7.76707e-07 0 -0.000186221 7.08027e-07 0 -0.000197219 1.3792e-06 0 -0.000223469 1.50175e-06 0 -0.000245803 1.6171e-06 0 -0.000272206 1.60927e-06 0 -0.000296047 1.51905e-06 0 -0.000318997 1.37323e-06 0 -0.000338828 1.18723e-06 0 -0.000355948 9.91849e-07 0 -0.000369851 7.94001e-07 0 -0.000380806 6.04846e-07 0 -0.00038883 4.23599e-07 0 -0.000394107 2.50827e-07 0 -0.000396713 8.29129e-08 0 -0.000396713 -8.29129e-08 0 -0.000394107 -2.50827e-07 0 -0.00038883 -4.23599e-07 0 -0.000380806 -6.04846e-07 0 -0.000369851 -7.94001e-07 0 -0.000355948 -9.91849e-07 0 -0.000338828 -1.18723e-06 0 -0.000318997 -1.37323e-06 0 -0.000296047 -1.51905e-06 0 -0.000272206 -1.60927e-06 0 -0.000245803 -1.6171e-06 0 -0.000223469 -1.50175e-06 0 -0.000197219 -1.3792e-06 0 -0.000186221 -7.08027e-07 0 -0.000171913 -7.76707e-07 0 -0.00012778 2.47698e-05 0 </DataArray> 
</PointData> 
<Points> 
<DataArray type="Float32" NumberOfComponents="3"> 