<?xml version="1.0"?> 
<VTKFile type="StructuredGrid" version="0.1"> 
<StructuredGrid WholeExtent="0 31 0 31 0 0"> 
<Piece Extent="0 31 0 31 0 0"> 
<PointData>
<DataArray type="Float32" Name="B" format="ascii" NumberOfComponents="3"> 
0 -0 0 -3.33407e-07 -0 0 -6.69232e-07 -0 0 -1.0099e-06 -0 0 -1.35788e-06 -0 0 -1.71565e-06 -0 0 -2.08573e-06 -0 0 -2.47073e-06 -0 0 -2.87329e-06 -0 0 -3.29613e-06 -0 0 -3.74203e-06 -0 0 -4.21384e-06 -0 0 -4.71448e-06 -0 0 -5.24693e-06 -0 0 -5.81419e-06 -0 0 -6.41929e-06 -0 0 -7.06522e-06 -0 0 -7.75492e-06 -0 0 -8.49121e-06 -0 0 -9.27672e-06 -0 0 -1.01138e-05 -0 0 -1.10045e-05 -0 0 -1.19502e-05 -0 0 -1.2952e-05 -0 0 -1.40099e-05 -0 0 -1.51233e-05 -0 0 -1.62903e-05 -0 0 -1.75081e-05 -0 0 -1.87723e-05 -0 0 -2.00773e-05 -0 0 -2.14159e-05 -0 0 -2.27792e-05 -0 0 0 3.32602e-07 0 -3.32199e-07 3.33809e-07 0 -6.66809e-07 3.37436e-07 0 -1.00626e-06 3.43501e-07 0 -1.35299e-06 3.52034e-07 0 -1.70949e-06 3.63074e-07 0 -2.07828e-06 3.76672e-07 0 -2.46196e-06 3.92886e-07 0 -2.86316e-06 4.1178e-07 0 -3.2846e-06 4.33425e-07 0 -3.72907e-06 4.57891e-07 0 -4.19943e-06 4.85245e-07 0 -4.69858e-06 5.15548e-07 0 -5.22953e-06 5.48848e-07 0 -5.79527e-06 5.85172e-07 0 -6.39887e-06 6.24519e-07 0 -7.04332e-06 6.66852e-07 0 -7.73161e-06 7.12082e-07 0 -8.46658e-06 7.60061e-07 0 -9.25091e-06 8.10565e-07 0 -1.0087e-05 8.63282e-07 0 -1.09769e-05 9.17792e-07 0 -1.19222e-05 9.73558e-07 0 -1.29238e-05 1.02991e-06 0 -1.39821e-05 1.08603e-06 0 -1.50963e-05 1.14097e-06 0 -1.62648e-05 1.19359e-06 0 -1.74847e-05 1.24265e-06 0 -1.87518e-05 1.28676e-06 0 -2.00604e-05 1.32443e-06 0 -2.14034e-05 1.35412e-06 0 -2.27719e-05 1.37428e-06 0 0 6.62791e-07 0 -3.2858e-07 6.65199e-07 0 -6.59555e-07 6.72436e-07 0 -9.9533e-07 6.84537e-07 0 -1.33834e-06 7.01562e-07 0 -1.69104e-06 7.23592e-07 0 -2.05596e-06 7.50729e-07 0 -2.43567e-06 7.83091e-07 0 -2.8328e-06 8.20811e-07 0 -3.25007e-06 8.6403e-07 0 -3.69025e-06 9.12892e-07 0 -4.15622e-06 9.67539e-07 0 -4.65091e-06 1.0281e-06 0 -5.17732e-06 1.09467e-06 0 -5.73851e-06 1.16731e-06 0 -6.33757e-06 1.24605e-06 0 -6.97758e-06 1.3308e-06 0 -7.66159e-06 1.4214e-06 0 -8.39255e-06 1.51758e-06 0 -9.17326e-06 1.6189e-06 0 -1.00063e-05 1.72475e-06 0 -1.08938e-05 1.8343e-06 0 -1.18376e-05 1.94651e-06 0 -1.28389e-05 2.06002e-06 0 -1.38982e-05 2.17323e-06 0 -1.50149e-05 2.28421e-06 0 -1.61878e-05 2.39073e-06 0 -1.7414e-05 2.49024e-06 0 -1.86895e-05 2.57995e-06 0 -2.00089e-05 2.65685e-06 0 -2.1365e-05 2.71779e-06 0 -2.2749e-05 2.75963e-06 0 0 9.88168e-07 0 -3.2257e-07 9.91765e-07 0 -6.47503e-07 1.00257e-06 0 -9.77177e-07 1.02065e-06 0 -1.31399e-06 1.04609e-06 0 -1.66039e-06 1.07901e-06 0 -2.01887e-06 1.11956e-06 0 -2.39197e-06 1.16794e-06 0 -2.78232e-06 1.22434e-06 0 -3.19262e-06 1.28899e-06 0 -3.62565e-06 1.36211e-06 0 -4.0843e-06 1.44392e-06 0 -4.57151e-06 1.53463e-06 0 -5.09033e-06 1.6344e-06 0 -5.64388e-06 1.74336e-06 0 -6.23531e-06 1.86154e-06 0 -6.86782e-06 1.98886e-06 0 -7.54459e-06 2.12512e-06 0 -8.26874e-06 2.26993e-06 0 -9.04327e-06 2.42267e-06 0 -9.87097e-06 2.58247e-06 0 -1.07543e-05 2.74813e-06 0 -1.16955e-05 2.91809e-06 0 -1.26959e-05 3.09039e-06 0 -1.37565e-05 3.26262e-06 0 -1.48773e-05 3.43188e-06 0 -1.60571e-05 3.59482e-06 0 -1.72936e-05 3.74759e-06 0 -1.85832e-05 3.88592e-06 0 -1.99205e-05 4.00521e-06 0 -2.12985e-05 4.1006e-06 0 -2.27085e-05 4.16725e-06 0 0 1.30636e-06 0 -3.14198e-07 1.31112e-06 0 -6.30715e-07 1.32545e-06 0 -9.51887e-07 1.34941e-06 0 -1.28007e-06 1.38314e-06 0 -1.61768e-06 1.42679e-06 0 -1.96716e-06 1.48058e-06 0 -2.33103e-06 1.54477e-06 0 -2.7119e-06 1.61963e-06 0 -3.11245e-06 1.70548e-06 0 -3.53547e-06 1.80263e-06 0 -3.98383e-06 1.91139e-06 0 -4.46052e-06 2.03208e-06 0 -4.96864e-06 2.16494e-06 0 -5.51137e-06 2.31017e-06 0 -6.09198e-06 2.46786e-06 0 -6.7138e-06 2.63796e-06 0 -7.38019e-06 2.82026e-06 0 -8.09452e-06 3.0143e-06 0 -8.86004e-06 3.21934e-06 0 -9.67991e-06 3.43427e-06 0 -1.0557e-05 3.65758e-06 0 -1.14939e-05 3.88726e-06 0 -1.24926e-05 4.12075e-06 0 -1.35546e-05 4.35488e-06 0 -1.46803e-05 4.5858e-06 0 -1.58694e-05 4.80901e-06 0 -1.71199e-05 5.01931e-06 0 -1.84288e-05 5.2109e-06 0 -1.9791e-05 5.37745e-06 0 -2.11998e-05 5.51224e-06 0 -2.26464e-05 5.60853e-06 0 0 1.61502e-06 0 -3.03508e-07 1.62093e-06 0 -6.09278e-07 1.6387e-06 0 -9.19589e-07 1.66843e-06 0 -1.23675e-06 1.71026e-06 0 -1.5631e-06 1.76443e-06 0 -1.90107e-06 1.83121e-06 0 -2.25311e-06 1.91092e-06 0 -2.62182e-06 2.00394e-06 0 -3.00984e-06 2.11066e-06 0 -3.41995e-06 2.23152e-06 0 -3.85504e-06 2.36694e-06 0 -4.31812e-06 2.51734e-06 0 -4.81235e-06 2.68309e-06 0 -5.34099e-06 2.86449e-06 0 -5.90743e-06 3.06173e-06 0 -6.5152e-06 3.27483e-06 0 -7.16786e-06 3.50362e-06 0 -7.86906e-06 3.74762e-06 0 -8.62244e-06 4.00603e-06 0 -9.43156e-06 4.27761e-06 0 -1.02998e-05 4.56056e-06 0 -1.12304e-05 4.85251e-06 0 -1.2226e-05 5.15037e-06 0 -1.32887e-05 5.45023e-06 0 -1.44199e-05 5.74733e-06 0 -1.56199e-05 6.03601e-06 0 -1.68877e-05 6.30967e-06 0 -1.82207e-05 6.56087e-06 0 -1.96146e-05 6.7814e-06 0 -2.1063e-05 6.96249e-06 0 -2.2557e-05 7.0952e-06 0 0 1.91187e-06 0 -2.90558e-07 1.91889e-06 0 -5.83306e-07 1.94001e-06 0 -8.80451e-07 1.97533e-06 0 -1.18423e-06 2.02507e-06 0 -1.49693e-06 2.08948e-06 0 -1.8209e-06 2.16891e-06 0 -2.15856e-06 2.26378e-06 0 -2.51244e-06 2.37454e-06 0 -2.88515e-06 2.50172e-06 0 -3.27947e-06 2.64585e-06 0 -3.69827e-06 2.80751e-06 0 -4.1446e-06 2.98725e-06 0 -4.62166e-06 3.18558e-06 0 -5.13281e-06 3.40295e-06 0 -5.68159e-06 3.63969e-06 0 -6.2717e-06 3.89597e-06 0 -6.90699e-06 4.17169e-06 0 -7.59142e-06 4.46646e-06 0 -8.32906e-06 4.77949e-06 0 -9.12401e-06 5.10945e-06 0 -9.9803e-06 5.45443e-06 0 -1.09018e-05 5.81174e-06 0 -1.18921e-05 6.17783e-06 0 -1.29542e-05 6.54818e-06 0 -1.40905e-05 6.91713e-06 0 -1.53023e-05 7.27787e-06 0 -1.65898e-05 7.62237e-06 0 -1.79514e-05 7.94141e-06 0 -1.93835e-05 8.22474e-06 0 -2.08801e-05 8.46123e-06 0 -2.24327e-05 8.63942e-06 0 0 2.19468e-06 0 -2.75419e-07 2.20278e-06 0 -5.52942e-07 2.22712e-06 0 -8.34687e-07 2.26785e-06 0 -1.12281e-06 2.3252e-06 0 -1.41951e-06 2.39951e-06 0 -1.72706e-06 2.49119e-06 0 -2.04781e-06 2.60074e-06 0 -2.38423e-06 2.72874e-06 0 -2.7389e-06 2.87582e-06 0 -3.11453e-06 3.04266e-06 0 -3.51401e-06 3.23e-06 0 -3.94038e-06 3.43854e-06 0 -4.39691e-06 3.669e-06 0 -4.88704e-06 3.92201e-06 0 -5.41445e-06 4.19809e-06 0 -5.98305e-06 4.4976e-06 0 -6.59698e-06 4.82064e-06 0 -7.26057e-06 5.16697e-06 0 -7.97838e-06 5.53589e-06 0 -8.7551e-06 5.92617e-06 0 -9.59549e-06 6.33582e-06 0 -1.05043e-05 6.76201e-06 0 -1.14862e-05 7.20087e-06 0 -1.25453e-05 7.64733e-06 0 -1.36853e-05 8.09494e-06 0 -1.49089e-05 8.53578e-06 0 -1.62176e-05 8.96034e-06 0 -1.76112e-05 9.35754e-06 0 -1.90872e-05 9.71483e-06 0 -2.06407e-05 1.00184e-05 0 -2.22633e-05 1.02538e-05 0 0 2.46131e-06 0 -2.58181e-07 2.47043e-06 0 -5.18361e-07 2.49786e-06 0 -7.82555e-07 2.54375e-06 0 -1.05282e-06 2.6084e-06 0 -1.33125e-06 2.69219e-06 0 -1.62002e-06 2.79561e-06 0 -1.92142e-06 2.91928e-06 0 -2.2378e-06 3.06386e-06 0 -2.5717e-06 3.23015e-06 0 -2.92577e-06 3.41899e-06 0 -3.30287e-06 3.63126e-06 0 -3.70605e-06 3.86791e-06 0 -4.13859e-06 4.12985e-06 0 -4.60402e-06 4.41796e-06 0 -5.10616e-06 4.73302e-06 0 -5.64912e-06 5.07566e-06 0 -6.23733e-06 5.44623e-06 0 -6.87553e-06 5.84477e-06 0 -7.5688e-06 6.27083e-06 0 -8.3225e-06 6.72336e-06 0 -9.14223e-06 7.20049e-06 0 -1.00338e-05 7.69941e-06 0 -1.10029e-05 8.21609e-06 0 -1.20553e-05 8.74507e-06 0 -1.31962e-05 9.27926e-06 0 -1.44301e-05 9.80971e-06 0 -1.57602e-05 1.03254e-05 0 -1.71881e-05 1.08134e-05 0 -1.87131e-05 1.12585e-05 0 -2.03314e-05 1.16438e-05 0 -2.20357e-05 1.19514e-05 0 0 2.70971e-06 0 -2.38947e-07 2.7198e-06 0 -4.79771e-07 2.75014e-06 0 -7.24366e-07 2.80092e-06 0 -9.74664e-07 2.87247e-06 0 -1.23265e-06 2.96524e-06 0 -1.5004e-06 3.07982e-06 0 -1.78005e-06 3.2169e-06 0 -2.0739e-06 3.3773e-06 0 -2.38436e-06 3.56195e-06 0 -2.71403e-06 3.77187e-06 0 -3.0657e-06 4.00816e-06 0 -3.4424e-06 4.27199e-06 0 -3.84742e-06 4.56452e-06 0 -4.28434e-06 4.88694e-06 0 -4.7571e-06 5.24035e-06 0 -5.27e-06 5.62571e-06 0 -5.82774e-06 6.04377e-06 0 -6.43548e-06 6.49495e-06 0 -7.09884e-06 6.97918e-06 0 -7.82389e-06 7.49577e-06 0 -8.61717e-06 8.04319e-06 0 -9.48558e-06 8.61882e-06 0 -1.04363e-05 9.21872e-06 0 -1.14768e-05 9.83729e-06 0 -1.2614e-05 1.0467e-05 0 -1.38547e-05 1.1098e-05 0 -1.52046e-05 1.1718e-05 0 -1.66675e-05 1.23118e-05 0 -1.82451e-05 1.28617e-05 0 -1.99355e-05 1.33471e-05 0 -2.17328e-05 1.37459e-05 0 0 2.93796e-06 0 -2.17839e-07 2.94895e-06 0 -4.37415e-07 2.982e-06 0 -6.60483e-07 3.03734e-06 0 -8.88836e-07 3.11534e-06 0 -1.12432e-06 3.21651e-06 0 -1.36887e-06 3.34153e-06 0 -1.62451e-06 3.49121e-06 0 -1.8934e-06 3.6665e-06 0 -2.17784e-06 3.86849e-06 0 -2.48032e-06 4.09839e-06 0 -2.80355e-06 4.35754e-06 0 -3.15049e-06 4.64734e-06 0 -3.5244e-06 4.96929e-06 0 -3.9289e-06 5.32491e-06 0 -4.36798e-06 5.71567e-06 0 -4.8461e-06 6.14301e-06 0 -5.36822e-06 6.60812e-06 0 -5.93989e-06 7.11197e-06 0 -6.56726e-06 7.65503e-06 0 -7.25713e-06 8.23718e-06 0 -8.01702e-06 8.85744e-06 0 -8.85507e-06 9.51369e-06 0 -9.78008e-06 1.02024e-05 0 -1.08013e-05 1.0918e-05 0 -1.19281e-05 1.1653e-05 0 -1.317e-05 1.23969e-05 0 -1.45354e-05 1.31362e-05 0 -1.60316e-05 1.38538e-05 0 -1.76634e-05 1.45289e-05 0 -1.94319e-05 1.51371e-05 0 -2.13333e-05 1.56511e-05 0 0 3.14424e-06 0 -1.94998e-07 3.15606e-06 0 -3.91574e-07 3.19161e-06 0 -5.91326e-07 3.25113e-06 0 -7.95887e-07 3.33505e-06 0 -1.00695e-06 3.44396e-06 0 -1.22628e-06 3.57862e-06 0 -1.45576e-06 3.73994e-06 0 -1.69739e-06 3.92903e-06 0 -1.95331e-06 4.14714e-06 0 -2.2259e-06 4.39569e-06 0 -2.51773e-06 4.67626e-06 0 -2.83166e-06 4.99056e-06 0 -3.17087e-06 5.3404e-06 0 -3.53894e-06 5.7277e-06 0 -3.9399e-06 6.15441e-06 0 -4.37829e-06 6.62246e-06 0 -4.85927e-06 7.13368e-06 0 -5.38872e-06 7.68966e-06 0 -5.97328e-06 8.29165e-06 0 -6.62048e-06 8.94029e-06 0 -7.33879e-06 9.63545e-06 0 -8.1377e-06 1.03758e-05 0 -9.02767e-06 1.11586e-05 0 -1.00201e-05 1.1979e-05 0 -1.11272e-05 1.28296e-05 0 -1.23614e-05 1.36998e-05 0 -1.37351e-05 1.45754e-05 0 -1.52597e-05 1.54376e-05 0 -1.69443e-05 1.62625e-05 0 -1.87943e-05 1.70213e-05 0 -2.08096e-05 1.76807e-05 0 0 3.3269e-06 0 -1.70581e-07 3.33947e-06 0 -3.42564e-07 3.37726e-06 0 -5.17368e-07 3.44055e-06 0 -6.96449e-07 3.52981e-06 0 -8.8132e-07 3.6457e-06 0 -1.07357e-06 3.78906e-06 0 -1.27489e-06 3.96093e-06 0 -1.4871e-06 4.16256e-06 0 -1.71217e-06 4.39537e-06 0 -1.95229e-06 4.661e-06 0 -2.20987e-06 4.96129e-06 0 -2.48761e-06 5.29824e-06 0 -2.78856e-06 5.67405e-06 0 -3.11619e-06 6.09108e-06 0 -3.47448e-06 6.55179e-06 0 -3.86799e-06 7.05872e-06 0 -4.302e-06 7.61441e-06 0 -4.78259e-06 8.22126e-06 0 -5.31683e-06 8.88146e-06 0 -5.91288e-06 9.59671e-06 0 -6.58015e-06 1.0368e-05 0 -7.32941e-06 1.11952e-05 0 -8.17292e-06 1.20769e-05 0 -9.12441e-06 1.30092e-05 0 -1.0199e-05 1.39858e-05 0 -1.14131e-05 1.49967e-05 0 -1.27835e-05 1.60273e-05 0 -1.4327e-05 1.70577e-05 0 -1.60587e-05 1.80614e-05 0 -1.79901e-05 1.90047e-05 0 -2.01268e-05 1.98474e-05 0 0 3.48447e-06 0 -1.44766e-07 3.49769e-06 0 -2.90739e-07 3.53744e-06 0 -4.39143e-07 3.60403e-06 0 -5.91236e-07 3.69798e-06 0 -7.48329e-07 3.81999e-06 0 -9.11807e-07 3.97102e-06 0 -1.08315e-06 4.15221e-06 0 -1.26397e-06 4.36493e-06 0 -1.45603e-06 4.61081e-06 0 -1.66127e-06 4.89169e-06 0 -1.88191e-06 5.20967e-06 0 -2.12041e-06 5.56708e-06 0 -2.37965e-06 5.96652e-06 0 -2.66289e-06 6.41079e-06 0 -2.97397e-06 6.90295e-06 0 -3.31735e-06 7.44621e-06 0 -3.69829e-06 8.04392e-06 0 -4.123e-06 8.69945e-06 0 -4.59878e-06 9.41611e-06 0 -5.1343e-06 1.01969e-05 0 -5.73976e-06 1.10443e-05 0 -6.42714e-06 1.19599e-05 0 -7.21043e-06 1.29439e-05 0 -8.10577e-06 1.39945e-05 0 -9.13158e-06 1.5107e-05 0 -1.03084e-05 1.62729e-05 0 -1.16587e-05 1.74785e-05 0 -1.32057e-05 1.87034e-05 0 -1.49724e-05 1.99194e-05 0 -1.69791e-05 2.10882e-05 0 -1.92402e-05 2.2162e-05 0 0 3.61563e-06 0 -1.17746e-07 3.6294e-06 0 -2.36489e-07 3.67081e-06 0 -3.57237e-07 3.74019e-06 0 -4.81034e-07 3.8381e-06 0 -6.08969e-07 3.96532e-06 0 -7.42199e-07 4.12286e-06 0 -8.81971e-07 4.31198e-06 0 -1.02965e-06 4.5342e-06 0 -1.18673e-06 4.79129e-06 0 -1.35492e-06 5.08533e-06 0 -1.53613e-06 5.41866e-06 0 -1.73257e-06 5.79395e-06 0 -1.94681e-06 6.21418e-06 0 -2.18186e-06 6.68266e-06 0 -2.44128e-06 7.20303e-06 0 -2.7293e-06 7.77926e-06 0 -3.05102e-06 8.41558e-06 0 -3.41254e-06 9.11647e-06 0 -3.82126e-06 9.88653e-06 0 -4.28608e-06 1.07303e-05 0 -4.81779e-06 1.16522e-05 0 -5.42933e-06 1.26559e-05 0 -6.13626e-06 1.3744e-05 0 -6.95704e-06 1.49173e-05 0 -7.9134e-06 1.61741e-05 0 -9.03052e-06 1.75083e-05 0 -1.0337e-05 1.89088e-05 0 -1.18641e-05 2.03565e-05 0 -1.36451e-05 2.18227e-05 0 -1.57121e-05 2.32656e-05 0 -1.80926e-05 2.46298e-05 0 0 3.7193e-06 0 -8.97339e-08 3.73351e-06 0 -1.80237e-07 3.77625e-06 0 -2.72291e-07 3.84787e-06 0 -3.66706e-07 3.94896e-06 0 -4.64329e-07 4.08036e-06 0 -5.66069e-07 4.24316e-06 0 -6.7291e-07 4.4387e-06 0 -7.85938e-07 4.66863e-06 0 -9.06369e-07 4.93489e-06 0 -1.03558e-06 5.23972e-06 0 -1.17518e-06 5.58574e-06 0 -1.327e-06 5.97592e-06 0 -1.49326e-06 6.41364e-06 0 -1.67658e-06 6.90268e-06 0 -1.88012e-06 7.44732e-06 0 -2.10774e-06 8.05226e-06 0 -2.36415e-06 8.7227e-06 0 -2.65516e-06 9.46431e-06 0 -2.98794e-06 1.02832e-05 0 -3.37136e-06 1.11856e-05 0 -3.8164e-06 1.21782e-05 0 -4.33665e-06 1.32672e-05 0 -4.9488e-06 1.44583e-05 0 -5.67332e-06 1.57561e-05 0 -6.53506e-06 1.71626e-05 0 -7.56382e-06 1.86764e-05 0 -8.79483e-06 2.02903e-05 0 -1.02688e-05 2.19892e-05 0 -1.2031e-05 2.37466e-05 0 -1.41297e-05 2.55198e-05 0 -1.66116e-05 2.72473e-05 0 0 3.79459e-06 0 -6.09542e-08 3.80912e-06 0 -1.22438e-07 3.85284e-06 0 -1.84993e-07 3.92611e-06 0 -2.49178e-07 4.02956e-06 0 -3.15586e-07 4.16405e-06 0 -3.84855e-07 4.33075e-06 0 -4.57684e-07 4.53109e-06 0 -5.34857e-07 4.7668e-06 0 -6.1726e-07 5.03995e-06 0 -7.05921e-07 5.35299e-06 0 -8.02047e-07 5.70873e-06 0 -9.07076e-07 6.11044e-06 0 -1.02275e-06 6.56184e-06 0 -1.15119e-06 7.0672e-06 0 -1.29503e-06 7.63137e-06 0 -1.45756e-06 8.25983e-06 0 -1.64291e-06 8.95873e-06 0 -1.85629e-06 9.73498e-06 0 -2.10433e-06 1.05962e-05 0 -2.39544e-06 1.15507e-05 0 -2.74035e-06 1.26076e-05 0 -3.15268e-06 1.37761e-05 0 -3.64971e-06 1.50657e-05 0 -4.25324e-06 1.64855e-05 0 -4.99061e-06 1.8043e-05 0 -5.89582e-06 1.97429e-05 0 -7.01063e-06 2.15849e-05 0 -8.38556e-06 2.35611e-05 0 -1.00803e-05 2.56511e-05 0 -1.21628e-05 2.78165e-05 0 -1.47063e-05 2.99942e-05 0 0 3.84086e-06 0 -3.16461e-08 3.85559e-06 0 -6.35732e-08 3.89992e-06 0 -9.6069e-08 3.97423e-06 0 -1.29434e-07 4.07915e-06 0 -1.63991e-07 4.21559e-06 0 -2.00093e-07 4.38476e-06 0 -2.38134e-07 4.58815e-06 0 -2.78567e-07 4.82757e-06 0 -3.21923e-07 5.10521e-06 0 -3.68832e-07 5.42363e-06 0 -4.20064e-07 5.78585e-06 0 -4.76571e-07 6.19535e-06 0 -5.39545e-07 6.65618e-06 0 -6.10505e-07 7.17302e-06 0 -6.914e-07 7.75126e-06 0 -7.84758e-07 8.39707e-06 0 -8.93874e-07 9.11755e-06 0 -1.02307e-06 9.9208e-06 0 -1.17803e-06 1.0816e-05 0 -1.36622e-06 1.18137e-05 0 -1.59749e-06 1.29253e-05 0 -1.88478e-06 1.41637e-05 0 -2.24505e-06 1.55428e-05 0 -2.70043e-06 1.70768e-05 0 -3.27963e-06 1.87802e-05 0 -4.01969e-06 2.06659e-05 0 -4.9679e-06 2.27435e-05 0 -6.18407e-06 2.50162e-05 0 -7.74272e-06 2.74761e-05 0 -9.7347e-06 3.00964e-05 0 -1.2267e-05 3.2822e-05 0 0 3.8577e-06 0 -2.0579e-09 3.87251e-06 0 -4.14155e-09 3.91707e-06 0 -6.2792e-09 3.99177e-06 0 -8.50444e-09 4.09726e-06 0 -1.08597e-08 4.23446e-06 0 -1.3401e-08 4.40461e-06 0 -1.6204e-08 4.60923e-06 0 -1.93732e-08 4.8502e-06 0 -2.30539e-08 5.12975e-06 0 -2.74501e-08 5.45057e-06 0 -3.28481e-08 5.81577e-06 0 -3.96516e-08 6.22903e-06 0 -4.84289e-08 6.69463e-06 0 -5.99804e-08 7.21759e-06 0 -7.54315e-08 7.80372e-06 0 -9.63619e-08 8.45981e-06 0 -1.24984e-07 9.19378e-06 0 -1.6439e-07 1.00148e-05 0 -2.18882e-07 1.09337e-05 0 -2.94431e-07 1.19628e-05 0 -3.99283e-07 1.31164e-05 0 -5.44773e-07 1.44109e-05 0 -7.46392e-07 1.58648e-05 0 -1.02518e-06 1.74986e-05 0 -1.40955e-06 1.93346e-05 0 -1.93752e-06 2.1396e-05 0 -2.65971e-06 2.37051e-05 0 -3.64291e-06 2.62812e-05 0 -4.97467e-06 2.91358e-05 0 -6.7684e-06 3.22648e-05 0 -9.1691e-06 3.56363e-05 0 0 3.84496e-06 0 2.75556e-08 3.85971e-06 0 5.53433e-08 3.90412e-06 0 8.35968e-08 3.97856e-06 0 1.12553e-07 4.08369e-06 0 1.42455e-07 4.22045e-06 0 1.73548e-07 4.39005e-06 0 2.06086e-07 4.59404e-06 0 2.40323e-07 4.83431e-06 0 2.76517e-07 5.11312e-06 0 3.14915e-07 5.4332e-06 0 3.55747e-07 5.79773e-06 0 3.99203e-07 6.21048e-06 0 4.45408e-07 6.67588e-06 0 4.94368e-07 7.19914e-06 0 5.45912e-07 7.7864e-06 0 5.99581e-07 8.44489e-06 0 6.54488e-07 9.18317e-06 0 7.09101e-07 1.00114e-05 0 7.60941e-07 1.09415e-05 0 8.06146e-07 1.19877e-05 0 8.3887e-07 1.31669e-05 0 8.50441e-07 1.4499e-05 0 8.28215e-07 1.60071e-05 0 7.54018e-07 1.77184e-05 0 6.02062e-07 1.96637e-05 0 3.36161e-07 2.18778e-05 0 -9.39481e-08 2.43985e-05 0 -7.57602e-07 2.72654e-05 0 -1.74991e-06 3.05166e-05 0 -3.20122e-06 3.41833e-05 0 -5.29004e-06 3.82788e-05 0 0 3.80274e-06 0 5.69374e-08 3.81732e-06 0 1.14363e-07 3.86118e-06 0 1.72771e-07 3.93471e-06 0 2.32667e-07 4.03856e-06 0 2.94578e-07 4.17363e-06 0 3.59054e-07 4.34115e-06 0 4.26675e-07 4.54263e-06 0 4.98063e-07 4.77993e-06 0 5.7388e-07 5.05532e-06 0 6.5484e-07 5.37147e-06 0 7.41706e-07 5.73158e-06 0 8.35292e-07 6.13941e-06 0 9.36459e-07 6.59942e-06 0 1.04609e-06 7.11688e-06 0 1.16506e-06 7.69807e-06 0 1.29418e-06 8.35046e-06 0 1.4341e-06 9.08297e-06 0 1.58514e-06 9.90634e-06 0 1.74707e-06 1.08335e-05 0 1.91874e-06 1.18802e-05 0 2.09752e-06 1.30652e-05 0 2.27854e-06 1.44116e-05 0 2.45353e-06 1.5947e-05 0 2.60926e-06 1.77047e-05 0 2.72527e-06 1.97245e-05 0 2.7709e-06 2.20532e-05 0 2.70106e-06 2.47455e-05 0 2.45058e-06 2.78641e-05 0 1.9258e-06 3.14792e-05 0 9.92617e-07 3.56678e-05 0 -5.43395e-07 4.05062e-05 0 0 3.7314e-06 0 8.58321e-08 3.74568e-06 0 1.72402e-07 3.78862e-06 0 2.60459e-07 3.8606e-06 0 3.50772e-07 3.96224e-06 0 4.44143e-07 4.09443e-06 0 5.41419e-07 4.25835e-06 0 6.43506e-07 4.45545e-06 0 7.51381e-07 4.68755e-06 0 8.6611e-07 4.95684e-06 0 9.88868e-07 5.2659e-06 0 1.12095e-06 5.61783e-06 0 1.26381e-06 6.0163e-06 0 1.41905e-06 6.46567e-06 0 1.58846e-06 6.9711e-06 0 1.77403e-06 7.5388e-06 0 1.97793e-06 8.17619e-06 0 2.20249e-06 8.89227e-06 0 2.45014e-06 9.69797e-06 0 2.72323e-06 1.06067e-05 0 3.02385e-06 1.16349e-05 0 3.35337e-06 1.28029e-05 0 3.71184e-06 1.41361e-05 0 4.09693e-06 1.56656e-05 0 4.50251e-06 1.74302e-05 0 4.91649e-06 1.94777e-05 0 5.31776e-06 2.18664e-05 0 5.6721e-06 2.46676e-05 0 5.9263e-06 2.79673e-05 0 6.0003e-06 3.18692e-05 0 5.77439e-06 3.64988e-05 0 5.06931e-06 4.20114e-05 0 0 3.63156e-06 0 1.13991e-07 3.64541e-06 0 2.28959e-07 3.68706e-06 0 3.45896e-07 3.75686e-06 0 4.65825e-07 3.85542e-06 0 5.89812e-07 3.98357e-06 0 7.18987e-07 4.14241e-06 0 8.54565e-07 4.33334e-06 0 9.97863e-07 4.55807e-06 0 1.15033e-06 4.81865e-06 0 1.31359e-06 5.11754e-06 0 1.48945e-06 5.45765e-06 0 1.67997e-06 5.84244e-06 0 1.88749e-06 6.27602e-06 0 2.1147e-06 6.76327e-06 0 2.3647e-06 7.31009e-06 0 2.64104e-06 7.92357e-06 0 2.94781e-06 8.61236e-06 0 3.28964e-06 9.38711e-06 0 3.67175e-06 1.0261e-05 0 4.09984e-06 1.12506e-05 0 4.57991e-06 1.23766e-05 0 5.11789e-06 1.36654e-05 0 5.71886e-06 1.51506e-05 0 6.38591e-06 1.68747e-05 0 7.11825e-06 1.88916e-05 0 7.90849e-06 2.12696e-05 0 8.73876e-06 2.40942e-05 0 9.57597e-06 2.74719e-05 0 1.03649e-05 3.15354e-05 0 1.10201e-05 3.64549e-05 0 1.14119e-05 4.24407e-05 0 0 3.50407e-06 0 1.41174e-07 3.51737e-06 0 2.83551e-07 3.55738e-06 0 4.28351e-07 3.62442e-06 0 5.76831e-07 3.71905e-06 0 7.30307e-07 3.84205e-06 0 8.90171e-07 3.99443e-06 0 1.05792e-06 4.17749e-06 0 1.2352e-06 4.3928e-06 0 1.4238e-06 4.64224e-06 0 1.62576e-06 4.92805e-06 0 1.84335e-06 5.2529e-06 0 2.07919e-06 5.61993e-06 0 2.33631e-06 6.03284e-06 0 2.61824e-06 6.49609e-06 0 2.92912e-06 7.01498e-06 0 3.27382e-06 7.59596e-06 0 3.65815e-06 8.24692e-06 0 4.08896e-06 8.97764e-06 0 4.57435e-06 9.80038e-06 0 5.12384e-06 1.07307e-05 0 5.74843e-06 1.17886e-05 0 6.46062e-06 1.3e-05 0 7.27408e-06 1.43986e-05 0 8.20294e-06 1.60285e-05 0 9.26044e-06 1.79473e-05 0 1.04566e-05 2.02297e-05 0 1.1795e-05 2.29719e-05 0 1.32687e-05 2.62957e-05 0 1.48563e-05 3.03557e-05 0 1.65185e-05 3.53462e-05 0 1.81976e-05 4.15335e-05 0 0 3.35001e-06 0 1.67158e-07 3.36266e-06 0 3.35726e-07 3.4007e-06 0 5.07134e-07 3.46443e-06 0 6.82855e-07 3.55436e-06 0 8.6443e-07 3.67118e-06 0 1.05349e-06 3.81583e-06 0 1.25179e-06 3.98945e-06 0 1.46124e-06 4.19345e-06 0 1.68397e-06 4.42952e-06 0 1.92234e-06 4.69962e-06 0 2.17906e-06 5.00608e-06 0 2.45722e-06 5.35163e-06 0 2.76043e-06 5.73949e-06 0 3.09296e-06 6.17344e-06 0 3.45985e-06 6.65802e-06 0 3.86716e-06 7.19869e-06 0 4.32222e-06 7.80215e-06 0 4.83393e-06 8.4767e-06 0 5.41311e-06 9.23289e-06 0 6.07298e-06 1.00842e-05 0 6.82957e-06 1.10485e-05 0 7.7022e-06 1.21491e-05 0 8.71378e-06 1.34175e-05 0 9.89085e-06 1.48963e-05 0 1.12629e-05 1.66429e-05 0 1.28607e-05 1.87344e-05 0 1.47135e-05 2.12728e-05 0 1.68449e-05 2.43905e-05 0 1.92696e-05 2.82524e-05 0 2.19967e-05 3.3069e-05 0 2.50414e-05 3.90673e-05 0 0 3.17069e-06 0 1.91735e-07 3.18258e-06 0 3.85067e-07 3.21836e-06 0 5.81614e-07 3.27829e-06 0 7.83042e-07 3.36281e-06 0 9.91089e-07 3.47253e-06 0 1.2076e-06 3.60829e-06 0 1.43453e-06 3.77107e-06 0 1.67406e-06 3.9621e-06 0 1.92854e-06 4.18282e-06 0 2.20065e-06 4.43488e-06 0 2.49341e-06 4.72024e-06 0 2.81029e-06 5.04114e-06 0 3.15538e-06 5.40017e-06 0 3.53348e-06 5.80033e-06 0 3.95037e-06 6.24518e-06 0 4.41301e-06 6.73891e-06 0 4.92998e-06 7.28663e-06 0 5.51182e-06 7.89463e-06 0 6.17167e-06 8.57091e-06 0 6.92596e-06 9.32586e-06 0 7.79528e-06 1.01733e-05 0 8.80543e-06 1.11321e-05 0 9.98854e-06 1.22285e-05 0 1.1384e-05 1.34996e-05 0 1.30393e-05 1.49977e-05 0 1.50089e-05 1.6797e-05 0 1.73519e-05 1.90006e-05 0 2.01259e-05 2.17457e-05 0 2.33818e-05 2.52086e-05 0 2.71628e-05 2.95863e-05 0 3.15286e-05 3.5154e-05 0 0 2.9676e-06 0 2.14721e-07 2.97866e-06 0 4.31201e-07 3.01191e-06 0 6.51226e-07 3.06759e-06 0 8.76627e-07 3.14607e-06 0 1.10931e-06 3.24789e-06 0 1.3513e-06 3.37375e-06 0 1.60473e-06 3.52449e-06 0 1.87196e-06 3.70111e-06 0 2.15556e-06 3.90481e-06 0 2.45839e-06 4.13691e-06 0 2.78372e-06 4.39893e-06 0 3.13529e-06 4.69259e-06 0 3.51747e-06 5.01978e-06 0 3.93543e-06 5.38265e-06 0 4.39538e-06 5.78359e-06 0 4.90488e-06 6.22534e-06 0 5.47329e-06 6.7111e-06 0 6.11224e-06 7.24468e-06 0 6.83647e-06 7.83085e-06 0 7.66476e-06 8.47579e-06 0 8.62122e-06 9.18794e-06 0 9.73696e-06 9.97928e-06 0 1.10522e-05 1.08675e-05 0 1.26188e-05 1.18793e-05 0 1.45023e-05 1.30561e-05 0 1.67838e-05 1.44615e-05 0 1.95578e-05 1.61923e-05 0 2.29238e-05 1.83909e-05 0 2.69698e-05 2.12422e-05 0 3.17555e-05 2.49789e-05 0 3.7325e-05 2.96961e-05 0 0 2.74241e-06 0 2.35949e-07 2.75256e-06 0 4.73799e-07 2.78306e-06 0 7.15473e-07 2.83411e-06 0 9.62945e-07 2.90602e-06 0 1.21826e-06 2.99925e-06 0 1.48357e-06 3.11436e-06 0 1.76118e-06 3.25204e-06 0 2.05355e-06 3.41309e-06 0 2.36339e-06 3.59842e-06 0 2.69371e-06 3.80903e-06 0 3.0479e-06 4.04602e-06 0 3.42981e-06 4.31054e-06 0 3.84395e-06 4.60378e-06 0 4.2956e-06 4.92695e-06 0 4.79112e-06 5.28126e-06 0 5.33824e-06 5.66788e-06 0 5.94654e-06 6.08789e-06 0 6.62805e-06 6.54237e-06 0 7.3981e-06 7.03235e-06 0 8.27655e-06 7.55909e-06 0 9.28936e-06 8.1243e-06 0 1.04709e-05 8.73107e-06 0 1.1867e-05 9.38511e-06 0 1.35391e-05 1.00978e-05 0 1.55696e-05 1.08912e-05 0 1.80673e-05 1.18076e-05 0 2.11696e-05 1.2926e-05 0 2.50369e-05 1.4384e-05 0 2.98138e-05 1.64088e-05 0 3.55713e-05 1.92519e-05 0 4.22686e-05 2.33248e-05 0 0 2.49696e-06 0 2.55282e-07 2.50613e-06 0 5.12581e-07 2.53368e-06 0 7.73937e-07 2.57978e-06 0 1.04144e-06 2.64468e-06 0 1.31723e-06 2.72874e-06 0 1.60359e-06 2.83241e-06 0 1.90289e-06 2.95623e-06 0 2.21771e-06 3.10079e-06 0 2.55081e-06 3.26676e-06 0 2.90525e-06 3.4548e-06 0 3.28445e-06 3.6656e-06 0 3.69225e-06 3.89977e-06 0 4.13308e-06 4.15783e-06 0 4.61213e-06 4.44011e-06 0 5.13556e-06 4.74663e-06 0 5.71082e-06 5.07699e-06 0 6.34713e-06 5.43023e-06 0 7.05603e-06 5.80457e-06 0 7.85234e-06 6.19722e-06 0 8.75535e-06 6.60407e-06 0 9.79067e-06 7.01957e-06 0 1.09928e-05 7.43635e-06 0 1.24091e-05 7.84583e-06 0 1.41054e-05 8.23876e-06 0 1.61752e-05 8.6092e-06 0 1.87496e-05 8.96204e-06 0 2.20175e-05 9.33215e-06 0 2.62241e-05 9.83205e-06 0 3.16562e-05 1.07091e-05 0 3.84509e-05 1.24926e-05 0 4.63121e-05 1.52878e-05 0 0 2.23319e-06 0 2.72601e-07 2.24132e-06 0 5.47314e-07 2.26577e-06 0 8.26269e-07 2.30666e-06 0 1.11164e-06 2.36419e-06 0 1.40567e-06 2.43864e-06 0 1.71069e-06 2.53034e-06 0 2.02914e-06 2.63969e-06 0 2.36363e-06 2.76711e-06 0 2.71694e-06 2.91302e-06 0 3.09212e-06 3.0778e-06 0 3.49249e-06 3.26177e-06 0 3.92177e-06 3.46508e-06 0 4.38416e-06 3.68763e-06 0 4.8845e-06 3.92895e-06 0 5.42845e-06 4.18804e-06 0 6.02275e-06 4.46311e-06 0 6.67563e-06 4.75129e-06 0 7.39733e-06 5.04825e-06 0 8.20087e-06 5.34758e-06 0 9.1033e-06 5.6402e-06 0 1.01271e-05 5.91319e-06 0 1.13036e-05 6.14899e-06 0 1.26752e-05 6.32321e-06 0 1.43055e-05 6.40396e-06 0 1.62831e-05 6.34921e-06 0 1.87537e-05 6.10925e-06 0 2.19269e-05 5.63679e-06 0 2.61839e-05 4.92787e-06 0 3.2045e-05 4.19494e-06 0 4.0162e-05 4.16547e-06 0 5.01027e-05 6.93729e-06 0 0 1.95316e-06 0 2.87813e-07 1.96022e-06 0 5.7781e-07 1.98144e-06 0 8.72195e-07 2.01692e-06 0 1.17321e-06 2.0668e-06 0 1.48314e-06 2.13128e-06 0 1.80437e-06 2.21063e-06 0 2.13938e-06 2.30509e-06 0 2.49076e-06 2.41493e-06 0 2.86126e-06 2.54038e-06 0 3.25385e-06 2.68159e-06 0 3.67169e-06 2.83857e-06 0 4.11827e-06 3.01109e-06 0 4.59742e-06 3.19856e-06 0 5.11344e-06 3.39991e-06 0 5.67122e-06 3.6133e-06 0 6.27642e-06 3.83585e-06 0 6.93578e-06 4.06325e-06 0 7.6574e-06 4.28906e-06 0 8.45154e-06 4.5041e-06 0 9.33099e-06 4.69501e-06 0 1.03135e-05 4.84315e-06 0 1.14212e-05 4.92156e-06 0 1.26896e-05 4.89287e-06 0 1.41613e-05 4.70264e-06 0 1.59201e-05 4.27436e-06 0 1.80589e-05 3.49506e-06 0 2.08247e-05 2.19965e-06 0 2.45062e-05 1.55349e-07 0 3.0133e-05 -2.9214e-06 0 3.95616e-05 -6.52311e-06 0 5.39719e-05 -5.69033e-06 0 0 1.65902e-06 0 3.00844e-07 1.66497e-06 0 6.03927e-07 1.68287e-06 0 9.11504e-07 1.71277e-06 0 1.22586e-06 1.7548e-06 0 1.54933e-06 1.80908e-06 0 1.88431e-06 1.87579e-06 0 2.23327e-06 1.95509e-06 0 2.59879e-06 2.04712e-06 0 2.98355e-06 2.15196e-06 0 3.39036e-06 2.26959e-06 0 3.82222e-06 2.39978e-06 0 4.28227e-06 2.54205e-06 0 4.7739e-06 2.6955e-06 0 5.30072e-06 2.85866e-06 0 5.86669e-06 3.02913e-06 0 6.47612e-06 3.20346e-06 0 7.13386e-06 3.37625e-06 0 7.84537e-06 3.54013e-06 0 8.61712e-06 3.68362e-06 0 9.45697e-06 3.79168e-06 0 1.03742e-05 3.84046e-06 0 1.13832e-05 3.79949e-06 0 1.24966e-05 3.61912e-06 0 1.37511e-05 3.23527e-06 0 1.51542e-05 2.5407e-06 0 1.6829e-05 1.38498e-06 0 1.87222e-05 -4.96208e-07 0 2.13301e-05 -3.56814e-06 0 2.44196e-05 -8.81703e-06 0 3.09966e-05 -1.94901e-05 0 7.84389e-05 -5.25901e-05 0 </DataArray> 
</PointData> 
<Points> 
<DataArray type="Float32" NumberOfComponents="3"> 