<?xml version="1.0"?> 
<VTKFile type="StructuredGrid" version="0.1"> 
<StructuredGrid WholeExtent="0 31 0 31 0 0"> 
<Piece Extent="0 31 0 31 0 0"> 
<PointData>
<DataArray type="Float32" Name="B" format="ascii" NumberOfComponents="3"> 
0 1.57088e-06 0 -2.84804e-07 1.57654e-06 0 -5.71731e-07 1.59353e-06 0 -8.62921e-07 1.62193e-06 0 -1.16054e-06 1.66184e-06 0 -1.4668e-06 1.71341e-06 0 -1.78398e-06 1.77679e-06 0 -2.11443e-06 1.85216e-06 0 -2.46058e-06 1.93965e-06 0 -2.82499e-06 2.03937e-06 0 -3.21034e-06 2.15131e-06 0 -3.61946e-06 2.27529e-06 0 -4.05535e-06 2.41089e-06 0 -4.52123e-06 2.55729e-06 0 -5.02055e-06 2.71317e-06 0 -5.5571e-06 2.87632e-06 0 -6.13493e-06 3.0436e-06 0 -6.75881e-06 3.20994e-06 0 -7.43369e-06 3.36864e-06 0 -8.16632e-06 3.50883e-06 0 -8.96309e-06 3.6169e-06 0 -9.83521e-06 3.67e-06 0 -1.07919e-05 3.64078e-06 0 -1.18547e-05 3.48133e-06 0 -1.30404e-05 3.13415e-06 0 -1.43932e-05 2.49677e-06 0 -1.59616e-05 1.43031e-06 0 -1.78327e-05 -3.04676e-07 0 -2.02327e-05 -3.16591e-06 0 -2.34289e-05 -7.95261e-06 0 -2.9695e-05 -1.79819e-05 0 -7.033e-05 -4.34227e-05 0 0 1.84933e-06 0 -2.72432e-07 1.85603e-06 0 -5.46935e-07 1.87618e-06 0 -8.25595e-07 1.90985e-06 0 -1.11054e-06 1.95721e-06 0 -1.40393e-06 2.01845e-06 0 -1.70804e-06 2.09381e-06 0 -2.0252e-06 2.18355e-06 0 -2.35787e-06 2.28794e-06 0 -2.70868e-06 2.40721e-06 0 -3.08042e-06 2.54153e-06 0 -3.47611e-06 2.69092e-06 0 -3.89904e-06 2.85522e-06 0 -4.35285e-06 3.03392e-06 0 -4.84162e-06 3.22604e-06 0 -5.36999e-06 3.42995e-06 0 -5.94333e-06 3.643e-06 0 -6.56802e-06 3.86123e-06 0 -7.25177e-06 4.07873e-06 0 -8.00424e-06 4.28699e-06 0 -8.83767e-06 4.47367e-06 0 -9.76861e-06 4.62147e-06 0 -1.08186e-05 4.70544e-06 0 -1.20203e-05 4.6909e-06 0 -1.3416e-05 4.52752e-06 0 -1.50813e-05 4.14456e-06 0 -1.71117e-05 3.43835e-06 0 -1.97262e-05 2.25832e-06 0 -2.32224e-05 3.96319e-07 0 -2.85093e-05 -2.38704e-06 0 -3.73176e-05 -5.57746e-06 0 -5.06074e-05 -4.69639e-06 0 0 2.11437e-06 0 -2.57994e-07 2.12209e-06 0 -5.17988e-07 2.1453e-06 0 -7.81999e-07 2.1841e-06 0 -1.05209e-06 2.23871e-06 0 -1.33037e-06 2.30938e-06 0 -1.61906e-06 2.39645e-06 0 -1.92047e-06 2.5003e-06 0 -2.23706e-06 2.62134e-06 0 -2.57148e-06 2.75999e-06 0 -2.9266e-06 2.91663e-06 0 -3.30557e-06 3.0916e-06 0 -3.7119e-06 3.28507e-06 0 -4.14958e-06 3.49699e-06 0 -4.62318e-06 3.72699e-06 0 -5.13803e-06 3.97418e-06 0 -5.70052e-06 4.23696e-06 0 -6.31841e-06 4.51275e-06 0 -7.00137e-06 4.79759e-06 0 -7.76168e-06 5.08563e-06 0 -8.6154e-06 5.36853e-06 0 -9.58377e-06 5.63445e-06 0 -1.06961e-05 5.8672e-06 0 -1.19927e-05 6.04449e-06 0 -1.35328e-05 6.13703e-06 0 -1.54004e-05 6.10673e-06 0 -1.77304e-05 5.90883e-06 0 -2.0721e-05 5.50213e-06 0 -2.47197e-05 4.88894e-06 0 -3.02091e-05 4.26842e-06 0 -3.77579e-05 4.32322e-06 0 -4.69598e-05 6.8323e-06 0 0 2.36399e-06 0 -2.4156e-07 2.37268e-06 0 -4.85029e-07 2.39883e-06 0 -7.32336e-07 2.44256e-06 0 -9.85454e-07 2.50415e-06 0 -1.24642e-06 2.58392e-06 0 -1.51738e-06 2.68232e-06 0 -1.80059e-06 2.79986e-06 0 -2.09846e-06 2.93712e-06 0 -2.41363e-06 3.09475e-06 0 -2.74898e-06 3.2734e-06 0 -3.10773e-06 3.47374e-06 0 -3.49352e-06 3.69641e-06 0 -3.91053e-06 3.94192e-06 0 -4.36364e-06 4.21063e-06 0 -4.85867e-06 4.50265e-06 0 -5.40262e-06 4.81768e-06 0 -6.00418e-06 5.15491e-06 0 -6.67422e-06 5.51281e-06 0 -7.42665e-06 5.8889e-06 0 -8.27961e-06 6.27955e-06 0 -9.25714e-06 6.67976e-06 0 -1.03916e-05 7.083e-06 0 -1.17274e-05 7.48165e-06 0 -1.33262e-05 7.86775e-06 0 -1.52751e-05 8.23655e-06 0 -1.76966e-05 8.59395e-06 0 -2.07651e-05 8.97421e-06 0 -2.47076e-05 9.48292e-06 0 -2.97839e-05 1.03519e-05 0 -3.61212e-05 1.20537e-05 0 -4.34579e-05 1.47407e-05 0 0 2.59623e-06 0 -2.23222e-07 2.60585e-06 0 -4.4824e-07 2.63478e-06 0 -6.76873e-07 2.68319e-06 0 -9.10985e-07 2.75141e-06 0 -1.15251e-06 2.83985e-06 0 -1.40348e-06 2.94906e-06 0 -1.66607e-06 3.0797e-06 0 -1.94261e-06 3.23255e-06 0 -2.23565e-06 3.40848e-06 0 -2.54804e-06 3.60846e-06 0 -2.88295e-06 3.83355e-06 0 -3.24403e-06 4.08487e-06 0 -3.63552e-06 4.36359e-06 0 -4.0624e-06 4.6709e-06 0 -4.53063e-06 5.00801e-06 0 -5.04748e-06 5.37608e-06 0 -5.62196e-06 5.77625e-06 0 -6.26534e-06 6.20964e-06 0 -6.99203e-06 6.67736e-06 0 -7.82062e-06 7.18078e-06 0 -8.77541e-06 7.72174e-06 0 -9.88858e-06 8.30343e-06 0 -1.12029e-05 8.9316e-06 0 -1.27759e-05 9.6174e-06 0 -1.46841e-05 1.0382e-05 0 -1.70286e-05 1.12657e-05 0 -1.99367e-05 1.23429e-05 0 -2.35562e-05 1.3742e-05 0 -2.80208e-05 1.56719e-05 0 -3.33964e-05 1.83685e-05 0 -3.96495e-05 2.21758e-05 0 0 2.80924e-06 0 -2.03091e-07 2.81972e-06 0 -4.07844e-07 2.85125e-06 0 -6.15943e-07 2.90405e-06 0 -8.29119e-07 2.97847e-06 0 -1.04917e-06 3.07503e-06 0 -1.278e-06 3.19439e-06 0 -1.51764e-06 3.33736e-06 0 -1.7703e-06 3.50492e-06 0 -2.03839e-06 3.69818e-06 0 -2.32463e-06 3.91843e-06 0 -2.63209e-06 4.16714e-06 0 -2.96427e-06 4.44594e-06 0 -3.32529e-06 4.75667e-06 0 -3.72e-06 5.10138e-06 0 -4.15424e-06 5.4824e-06 0 -4.6351e-06 5.90237e-06 0 -5.17133e-06 6.36439e-06 0 -5.77385e-06 6.87214e-06 0 -6.45645e-06 7.43023e-06 0 -7.23668e-06 8.04463e-06 0 -8.13708e-06 8.72344e-06 0 -9.18671e-06 9.47813e-06 0 -1.04231e-05 1.03256e-05 0 -1.18944e-05 1.12911e-05 0 -1.36617e-05 1.24138e-05 0 -1.58002e-05 1.37536e-05 0 -1.83975e-05 1.5401e-05 0 -2.15457e-05 1.74884e-05 0 -2.53266e-05 2.01881e-05 0 -2.97972e-05 2.37127e-05 0 -3.50023e-05 2.81695e-05 0 0 3.0013e-06 0 -1.81301e-07 3.01258e-06 0 -3.64108e-07 3.04649e-06 0 -5.49948e-07 3.1033e-06 0 -7.40392e-07 3.18341e-06 0 -9.37077e-07 3.28743e-06 0 -1.14174e-06 3.41613e-06 0 -1.35623e-06 3.57046e-06 0 -1.58259e-06 3.7516e-06 0 -1.82305e-06 3.96091e-06 0 -2.0801e-06 4.19998e-06 0 -2.35659e-06 4.47067e-06 0 -2.65579e-06 4.77512e-06 0 -2.98152e-06 5.1158e-06 0 -3.33829e-06 5.49561e-06 0 -3.73151e-06 5.91791e-06 0 -4.1677e-06 6.38673e-06 0 -4.65488e-06 6.90693e-06 0 -5.2029e-06 7.48453e-06 0 -5.82405e-06 8.12713e-06 0 -6.53365e-06 8.84462e-06 0 -7.35091e-06 9.65011e-06 0 -8.29987e-06 1.05615e-05 0 -9.41042e-06 1.16036e-05 0 -1.07192e-05 1.28112e-05 0 -1.22703e-05 1.42336e-05 0 -1.41142e-05 1.59404e-05 0 -1.63056e-05 1.80278e-05 0 -1.88982e-05 2.0624e-05 0 -2.19393e-05 2.38927e-05 0 -2.54705e-05 2.80193e-05 0 -2.95492e-05 3.32511e-05 0 0 3.17084e-06 0 -1.5801e-07 3.18283e-06 0 -3.17348e-07 3.21887e-06 0 -4.79361e-07 3.27927e-06 0 -6.45438e-07 3.36448e-06 0 -8.17028e-07 3.47518e-06 0 -9.95665e-07 3.61226e-06 0 -1.183e-06 3.7768e-06 0 -1.38084e-06 3.97016e-06 0 -1.59116e-06 4.19391e-06 0 -1.81619e-06 4.44995e-06 0 -2.05847e-06 4.74049e-06 0 -2.3209e-06 5.06813e-06 0 -2.60686e-06 5.43591e-06 0 -2.92033e-06 5.84744e-06 0 -3.26603e-06 6.30704e-06 0 -3.64964e-06 6.81989e-06 0 -4.07797e-06 7.39234e-06 0 -4.55934e-06 8.03229e-06 0 -5.10383e-06 8.74969e-06 0 -5.72375e-06 9.55737e-06 0 -6.43402e-06 1.0472e-05 0 -7.25259e-06 1.15158e-05 0 -8.20074e-06 1.27184e-05 0 -9.30305e-06 1.41197e-05 0 -1.05868e-05 1.57735e-05 0 -1.20806e-05 1.77522e-05 0 -1.38113e-05 2.0151e-05 0 -1.58008e-05 2.30936e-05 0 -1.80631e-05 2.67344e-05 0 -2.0607e-05 3.12693e-05 0 -2.34475e-05 3.69164e-05 0 0 3.31644e-06 0 -1.33393e-07 3.32904e-06 0 -2.67917e-07 3.36694e-06 0 -4.04721e-07 3.43045e-06 0 -5.44987e-07 3.52009e-06 0 -6.8995e-07 3.6366e-06 0 -8.40919e-07 3.78096e-06 0 -9.99302e-07 3.95438e-06 0 -1.16663e-06 4.15836e-06 0 -1.3446e-06 4.39469e-06 0 -1.53511e-06 4.66549e-06 0 -1.74028e-06 4.9733e-06 0 -1.96257e-06 5.32108e-06 0 -2.20481e-06 5.71237e-06 0 -2.47029e-06 6.15137e-06 0 -2.76286e-06 6.64311e-06 0 -3.08708e-06 7.1937e-06 0 -3.44834e-06 7.8106e-06 0 -3.85301e-06 8.50305e-06 0 -4.30863e-06 9.28263e-06 0 -4.82402e-06 1.0164e-05 0 -5.4094e-06 1.11661e-05 0 -6.0763e-06 1.23131e-05 0 -6.83737e-06 1.36368e-05 0 -7.70562e-06 1.51786e-05 0 -8.69319e-06 1.69924e-05 0 -9.80918e-06 1.91483e-05 0 -1.10568e-05 2.1736e-05 0 -1.24292e-05 2.48698e-05 0 -1.39065e-05 2.86941e-05 0 -1.5452e-05 3.33914e-05 0 -1.70121e-05 3.92089e-05 0 0 3.43688e-06 0 -1.07648e-07 3.44999e-06 0 -2.16214e-07 3.48943e-06 0 -3.26629e-07 3.55554e-06 0 -4.39851e-07 3.64886e-06 0 -5.56881e-07 3.77021e-06 0 -6.7878e-07 3.92064e-06 0 -8.06682e-07 4.10145e-06 0 -9.41823e-07 4.31427e-06 0 -1.08556e-06 4.56105e-06 0 -1.2394e-06 4.84412e-06 0 -1.40504e-06 5.16622e-06 0 -1.58438e-06 5.53064e-06 0 -1.77963e-06 5.94126e-06 0 -1.99326e-06 6.40272e-06 0 -2.22817e-06 6.92056e-06 0 -2.48765e-06 7.5015e-06 0 -2.77548e-06 8.1537e-06 0 -3.09596e-06 8.8872e-06 0 -3.4539e-06 9.71444e-06 0 -3.85455e-06 1.06509e-05 0 -4.30343e-06 1.17163e-05 0 -4.80595e-06 1.29352e-05 0 -5.36671e-06 1.43392e-05 0 -5.98841e-06 1.59681e-05 0 -6.6701e-06 1.78726e-05 0 -7.40463e-06 2.01165e-05 0 -8.17508e-06 2.27797e-05 0 -8.95026e-06 2.59621e-05 0 -9.67838e-06 2.9788e-05 0 -1.02794e-05 3.44167e-05 0 -1.06315e-05 4.00467e-05 0 0 3.53113e-06 0 -8.09875e-08 3.54464e-06 0 -1.62666e-07 3.5853e-06 0 -2.45735e-07 3.65344e-06 0 -3.30916e-07 3.74966e-06 0 -4.18959e-07 3.8748e-06 0 -5.10653e-07 4.02997e-06 0 -6.06844e-07 4.21657e-06 0 -7.08443e-07 4.43629e-06 0 -8.16443e-07 4.69121e-06 0 -9.31935e-07 4.98378e-06 0 -1.05612e-06 5.31693e-06 0 -1.19035e-06 5.69412e-06 0 -1.33611e-06 6.11948e-06 0 -1.49504e-06 6.59787e-06 0 -1.669e-06 7.13516e-06 0 -1.85996e-06 7.73835e-06 0 -2.07007e-06 8.41591e-06 0 -2.30153e-06 9.17814e-06 0 -2.5565e-06 1.00376e-05 0 -2.83683e-06 1.10099e-05 0 -3.14371e-06 1.2114e-05 0 -3.47705e-06 1.33738e-05 0 -3.83452e-06 1.48184e-05 0 -4.21021e-06 1.64843e-05 0 -4.5926e-06 1.84161e-05 0 -4.96174e-06 2.06685e-05 0 -5.28538e-06 2.33083e-05 0 -5.51353e-06 2.64158e-05 0 -5.57097e-06 3.00883e-05 0 -5.34543e-06 3.44435e-05 0 -4.66869e-06 3.96265e-05 0 0 3.5984e-06 0 -5.36378e-08 3.6122e-06 0 -1.0773e-07 3.65371e-06 0 -1.62736e-07 3.7233e-06 0 -2.19128e-07 3.82158e-06 0 -2.77393e-07 3.94941e-06 0 -3.38041e-07 4.10794e-06 0 -4.01612e-07 4.29861e-06 0 -4.6868e-07 4.52318e-06 0 -5.39855e-07 4.78379e-06 0 -6.15796e-07 5.08296e-06 0 -6.97202e-07 5.4237e-06 0 -7.8482e-07 5.80958e-06 0 -8.79433e-07 6.2448e-06 0 -9.81841e-07 6.73434e-06 0 -1.09283e-06 7.2841e-06 0 -1.21313e-06 7.90113e-06 0 -1.34329e-06 8.59382e-06 0 -1.48355e-06 9.37228e-06 0 -1.63364e-06 1.02487e-05 0 -1.79237e-06 1.12377e-05 0 -1.95719e-06 1.23572e-05 0 -2.12342e-06 1.36285e-05 0 -2.28318e-06 1.50778e-05 0 -2.42392e-06 1.67362e-05 0 -2.52632e-06 1.86408e-05 0 -2.56148e-06 2.08356e-05 0 -2.48698e-06 2.33717e-05 0 -2.24159e-06 2.63078e-05 0 -1.73737e-06 2.97097e-05 0 -8.4839e-07 3.36495e-05 0 6.079e-07 3.81988e-05 0 0 3.63811e-06 0 -2.58347e-08 3.65207e-06 0 -5.18817e-08 3.69409e-06 0 -7.83546e-08 3.76452e-06 0 -1.0547e-07 3.86399e-06 0 -1.33448e-07 3.99337e-06 0 -1.62512e-07 4.15383e-06 0 -1.92891e-07 4.34681e-06 0 -2.24815e-07 4.57412e-06 0 -2.58511e-07 4.83788e-06 0 -2.94198e-07 5.14065e-06 0 -3.32075e-07 5.48545e-06 0 -3.72299e-07 5.87583e-06 0 -4.14962e-07 6.31597e-06 0 -4.60044e-07 6.81077e-06 0 -5.07345e-07 7.36602e-06 0 -5.56397e-07 7.98852e-06 0 -6.06319e-07 8.68631e-06 0 -6.55616e-07 9.46892e-06 0 -7.01896e-07 1.03476e-05 0 -7.41459e-07 1.13357e-05 0 -7.68735e-07 1.24491e-05 0 -7.75492e-07 1.37063e-05 0 -7.49763e-07 1.51291e-05 0 -6.74388e-07 1.67429e-05 0 -5.25065e-07 1.85766e-05 0 -2.67738e-07 2.06626e-05 0 1.4485e-07 2.30364e-05 0 7.77832e-07 2.5735e-05 0 1.72054e-06 2.8794e-05 0 3.09534e-06 3.22426e-05 0 5.06984e-06 3.60929e-05 0 0 3.64993e-06 0 2.18038e-09 3.66394e-06 0 4.392e-09 3.70609e-06 0 6.66868e-09 3.77675e-06 0 9.04963e-09 3.87653e-06 0 1.15831e-08 4.0063e-06 0 1.43307e-08 4.16724e-06 0 1.7374e-08 4.36076e-06 0 2.08228e-08 4.58866e-06 0 2.48273e-08 4.85303e-06 0 2.95945e-08 5.1564e-06 0 3.54115e-08 5.50172e-06 0 4.26787e-08 5.89244e-06 0 5.19543e-08 6.33262e-06 0 6.40187e-08 6.82694e-06 0 7.99621e-08 7.38089e-06 0 1.01307e-07 8.00086e-06 0 1.30174e-07 8.69429e-06 0 1.69518e-07 9.46982e-06 0 2.23437e-07 1.03375e-05 0 2.976e-07 1.1309e-05 0 3.99819e-07 1.23977e-05 0 5.40811e-07 1.3619e-05 0 7.35198e-07 1.49901e-05 0 1.00281e-06 1.65304e-05 0 1.37039e-06 1.82605e-05 0 1.8737e-06 2.02021e-05 0 2.56031e-06 2.23762e-05 0 3.49297e-06 2.48007e-05 0 4.75388e-06 2.74863e-05 0 6.44956e-06 3.04289e-05 0 8.71614e-06 3.35986e-05 0 0 3.63377e-06 0 3.01646e-08 3.6477e-06 0 6.06015e-08 3.68962e-06 0 9.15891e-08 3.75989e-06 0 1.23419e-07 3.85911e-06 0 1.56403e-07 3.98814e-06 0 1.90883e-07 4.1481e-06 0 2.2724e-07 4.34041e-06 0 2.65914e-07 4.56678e-06 0 3.07416e-07 4.82927e-06 0 3.52356e-07 5.13029e-06 0 4.01474e-07 5.47268e-06 0 4.55684e-07 5.85973e-06 0 5.16133e-07 6.29524e-06 0 5.84273e-07 6.78362e-06 0 6.61967e-07 7.32992e-06 0 7.51625e-07 7.93996e-06 0 8.56381e-07 8.6204e-06 0 9.80339e-07 9.37883e-06 0 1.12888e-06 1.02239e-05 0 1.30909e-06 1.11654e-05 0 1.53025e-06 1.22141e-05 0 1.80459e-06 1.33821e-05 0 2.14808e-06 1.46823e-05 0 2.58156e-06 1.61281e-05 0 3.13206e-06 1.77328e-05 0 3.83438e-06 1.95087e-05 0 4.73296e-06 2.14645e-05 0 5.88399e-06 2.36032e-05 0 7.35743e-06 2.59172e-05 0 9.2386e-06 2.83813e-05 0 1.16279e-05 3.09435e-05 0 0 3.58978e-06 0 5.78777e-08 3.60352e-06 0 1.16262e-07 3.64485e-06 0 1.75671e-07 3.71413e-06 0 2.36639e-07 3.81193e-06 0 2.99734e-07 3.93908e-06 0 3.65565e-07 4.09667e-06 0 4.34803e-07 4.28605e-06 0 5.08195e-07 4.50885e-06 0 5.86589e-07 4.76704e-06 0 6.70967e-07 5.06289e-06 0 7.62481e-07 5.39907e-06 0 8.62503e-07 5.77864e-06 0 9.72689e-07 6.20512e-06 0 1.09506e-06 6.68251e-06 0 1.23213e-06 7.21536e-06 0 1.387e-06 7.80882e-06 0 1.5636e-06 8.46868e-06 0 1.76686e-06 9.20139e-06 0 2.00304e-06 1.00141e-05 0 2.28009e-06 1.09147e-05 0 2.60814e-06 1.19114e-05 0 3.00002e-06 1.30132e-05 0 3.47201e-06 1.42288e-05 0 4.04461e-06 1.55666e-05 0 4.74354e-06 1.70336e-05 0 5.60077e-06 1.86342e-05 0 6.65551e-06 2.03681e-05 0 7.95522e-06 2.22276e-05 0 9.55592e-06 2.41936e-05 0 1.15215e-05 2.62298e-05 0 1.39206e-05 2.82767e-05 0 0 3.51835e-06 0 8.50852e-08 3.53178e-06 0 1.70903e-07 3.57218e-06 0 2.58198e-07 3.63988e-06 0 3.4774e-07 3.73544e-06 0 4.40337e-07 3.85964e-06 0 5.36855e-07 4.0135e-06 0 6.38229e-07 4.19831e-06 0 7.45494e-07 4.4156e-06 0 8.59807e-07 4.6672e-06 0 9.8248e-07 4.95523e-06 0 1.11503e-06 5.28215e-06 0 1.25922e-06 5.65073e-06 0 1.41713e-06 6.06417e-06 0 1.59127e-06 6.52603e-06 0 1.78462e-06 7.04029e-06 0 2.00083e-06 7.6114e-06 0 2.24438e-06 8.24422e-06 0 2.52074e-06 8.94406e-06 0 2.83668e-06 9.71659e-06 0 3.20057e-06 1.05678e-05 0 3.62278e-06 1.15037e-05 0 4.11607e-06 1.25303e-05 0 4.69619e-06 1.36529e-05 0 5.38237e-06 1.48755e-05 0 6.19798e-06 1.62001e-05 0 7.17102e-06 1.76253e-05 0 8.33459e-06 1.91444e-05 0 9.72686e-06 2.07429e-05 0 1.13905e-05 2.23958e-05 0 1.33706e-05 2.4063e-05 0 1.57111e-05 2.56868e-05 0 0 3.4201e-06 0 1.11562e-07 3.43311e-06 0 2.2407e-07 3.47224e-06 0 3.38484e-07 3.53782e-06 0 4.55794e-07 3.63034e-06 0 5.77034e-07 3.75056e-06 0 7.03303e-07 3.89943e-06 0 8.35785e-07 4.07813e-06 0 9.75772e-07 4.28809e-06 0 1.1247e-06 4.53099e-06 0 1.28416e-06 4.80875e-06 0 1.45599e-06 5.12361e-06 0 1.64228e-06 5.47805e-06 0 1.84545e-06 5.87488e-06 0 2.06836e-06 6.31721e-06 0 2.31438e-06 6.80846e-06 0 2.58751e-06 7.35234e-06 0 2.89256e-06 7.95281e-06 0 3.2353e-06 8.61407e-06 0 3.62269e-06 9.34043e-06 0 4.06315e-06 1.01362e-05 0 4.56681e-06 1.10053e-05 0 5.14589e-06 1.19513e-05 0 5.815e-06 1.29765e-05 0 6.59151e-06 1.40818e-05 0 7.49584e-06 1.52652e-05 0 8.55164e-06 1.65214e-05 0 9.78574e-06 1.78394e-05 0 1.12276e-05 1.92014e-05 0 1.29083e-05 2.05803e-05 0 1.48581e-05 2.1937e-05 0 1.71028e-05 2.32191e-05 0 0 3.29585e-06 0 1.37096e-07 3.30834e-06 0 2.75337e-07 3.34591e-06 0 4.15883e-07 3.40883e-06 0 5.59928e-07 3.4976e-06 0 7.08715e-07 3.61288e-06 0 8.63557e-07 3.75557e-06 0 1.02586e-06 3.92674e-06 0 1.19714e-06 4.1277e-06 0 1.37908e-06 4.35995e-06 0 1.57352e-06 4.62524e-06 0 1.78255e-06 4.92553e-06 0 2.00851e-06 5.26302e-06 0 2.25411e-06 5.64014e-06 0 2.52246e-06 6.05954e-06 0 2.81716e-06 6.52405e-06 0 3.14243e-06 7.03671e-06 0 3.50325e-06 7.60063e-06 0 3.90545e-06 8.21899e-06 0 4.35594e-06 8.89486e-06 0 4.86287e-06 9.63104e-06 0 5.43585e-06 1.04298e-05 0 6.08615e-06 1.12927e-05 0 6.82693e-06 1.22198e-05 0 7.67337e-06 1.32093e-05 0 8.64276e-06 1.42568e-05 0 9.75444e-06 1.53543e-05 0 1.10294e-05 1.64888e-05 0 1.24895e-05 1.76412e-05 0 1.41564e-05 1.87848e-05 0 1.60491e-05 1.98836e-05 0 1.81809e-05 2.08926e-05 0 0 3.14666e-06 0 1.61488e-07 3.15854e-06 0 3.24304e-07 3.19424e-06 0 4.89792e-07 3.25403e-06 0 6.59332e-07 3.33836e-06 0 8.34357e-07 3.44784e-06 0 1.01637e-06 3.58326e-06 0 1.20698e-06 3.74561e-06 0 1.40789e-06 3.93604e-06 0 1.621e-06 4.15591e-06 0 1.84835e-06 4.40676e-06 0 2.09223e-06 4.69029e-06 0 2.35519e-06 5.00841e-06 0 2.64012e-06 5.36316e-06 0 2.9503e-06 5.75677e-06 0 3.28948e-06 6.19153e-06 0 3.66197e-06 6.66982e-06 0 4.07273e-06 7.19401e-06 0 4.52752e-06 7.76636e-06 0 5.03299e-06 8.38889e-06 0 5.59682e-06 9.06317e-06 0 6.22787e-06 9.79011e-06 0 6.93628e-06 1.05696e-05 0 7.73356e-06 1.14001e-05 0 8.63263e-06 1.22782e-05 0 9.64771e-06 1.31977e-05 0 1.07941e-05 1.41492e-05 0 1.20878e-05 1.51191e-05 0 1.35443e-05 1.60884e-05 0 1.51779e-05 1.70322e-05 0 1.69993e-05 1.7919e-05 0 1.90138e-05 1.87108e-05 0 0 2.97376e-06 0 1.84555e-07 2.98493e-06 0 3.70603e-07 3.01851e-06 0 5.59658e-07 3.07473e-06 0 7.53264e-07 3.15401e-06 0 9.53025e-07 3.25688e-06 0 1.16061e-06 3.38406e-06 0 1.3778e-06 3.53642e-06 0 1.60649e-06 3.71498e-06 0 1.84871e-06 3.92094e-06 0 2.10669e-06 4.15562e-06 0 2.38287e-06 4.42049e-06 0 2.67996e-06 4.71717e-06 0 3.00096e-06 5.04736e-06 0 3.34924e-06 5.41285e-06 0 3.72861e-06 5.81547e-06 0 4.14335e-06 6.25701e-06 0 4.59834e-06 6.73919e-06 0 5.09909e-06 7.26348e-06 0 5.65188e-06 7.83104e-06 0 6.26378e-06 8.44247e-06 0 6.94278e-06 9.09759e-06 0 7.69778e-06 9.79516e-06 0 8.53863e-06 1.05325e-05 0 9.47605e-06 1.13051e-05 0 1.05214e-05 1.21059e-05 0 1.16866e-05 1.2925e-05 0 1.2983e-05 1.37489e-05 0 1.44215e-05 1.45599e-05 0 1.60104e-05 1.53356e-05 0 1.7755e-05 1.60488e-05 0 1.9655e-05 1.66682e-05 0 0 2.77855e-06 0 2.0613e-07 2.78893e-06 0 4.13903e-07 2.82015e-06 0 6.2498e-07 2.87242e-06 0 8.41056e-07 2.94608e-06 0 1.06388e-06 3.04163e-06 0 1.29528e-06 3.1597e-06 0 1.53716e-06 3.30104e-06 0 1.79158e-06 3.46655e-06 0 2.0607e-06 3.65726e-06 0 2.34687e-06 3.8743e-06 0 2.65267e-06 4.11892e-06 0 2.98088e-06 4.39244e-06 0 3.33458e-06 4.69626e-06 0 3.71718e-06 5.0318e-06 0 4.13245e-06 5.40046e-06 0 4.5846e-06 5.80354e-06 0 5.0783e-06 6.24218e-06 0 5.61877e-06 6.71726e-06 0 6.2118e-06 7.22921e-06 0 6.8638e-06 7.7779e-06 0 7.58183e-06 8.36237e-06 0 8.37357e-06 8.98063e-06 0 9.24725e-06 9.62928e-06 0 1.02116e-05 1.03032e-05 0 1.12754e-05 1.09951e-05 0 1.24475e-05 1.16952e-05 0 1.3736e-05 1.23908e-05 0 1.51475e-05 1.30658e-05 0 1.66865e-05 1.37006e-05 0 1.83541e-05 1.42723e-05 0 2.01467e-05 1.4755e-05 0 0 2.56259e-06 0 2.26066e-07 2.57212e-06 0 4.53906e-07 2.60077e-06 0 6.85312e-07 2.64873e-06 0 9.22111e-07 2.71629e-06 0 1.16618e-06 2.8039e-06 0 1.41947e-06 2.91209e-06 0 1.68402e-06 3.04152e-06 0 1.96199e-06 3.19296e-06 0 2.25566e-06 3.36727e-06 0 2.56748e-06 3.56542e-06 0 2.9001e-06 3.78844e-06 0 3.25636e-06 4.03741e-06 0 3.63937e-06 4.31344e-06 0 4.05252e-06 4.61763e-06 0 4.49951e-06 4.951e-06 0 4.98439e-06 5.31445e-06 0 5.5116e-06 5.70868e-06 0 6.08599e-06 6.13405e-06 0 6.71286e-06 6.5905e-06 0 7.39791e-06 7.07736e-06 0 8.14728e-06 7.59315e-06 0 8.96749e-06 8.13542e-06 0 9.86528e-06 8.70043e-06 0 1.08475e-05 9.28288e-06 0 1.1921e-05 9.87566e-06 0 1.30919e-05 1.04695e-05 0 1.43655e-05 1.10528e-05 0 1.57455e-05 1.16114e-05 0 1.72333e-05 1.21284e-05 0 1.88273e-05 1.25845e-05 0 2.05217e-05 1.2959e-05 0 0 2.32759e-06 0 2.4423e-07 2.33621e-06 0 4.90348e-07 2.36211e-06 0 7.40261e-07 2.40544e-06 0 9.95907e-07 2.46649e-06 0 1.25927e-06 2.5456e-06 0 1.53242e-06 2.64325e-06 0 1.81749e-06 2.76e-06 0 2.11672e-06 2.89649e-06 0 2.4325e-06 3.05346e-06 0 2.76734e-06 3.23169e-06 0 3.12392e-06 3.43202e-06 0 3.50514e-06 3.65532e-06 0 3.91408e-06 3.90246e-06 0 4.35408e-06 4.17425e-06 0 4.82873e-06 4.47142e-06 0 5.34191e-06 4.79454e-06 0 5.89778e-06 5.14396e-06 0 6.50082e-06 5.51967e-06 0 7.1558e-06 5.92126e-06 0 7.86775e-06 6.3477e-06 0 8.64195e-06 6.79725e-06 0 9.48383e-06 7.26723e-06 0 1.03988e-05 7.75382e-06 0 1.13923e-05 8.25189e-06 0 1.2469e-05 8.75474e-06 0 1.36333e-05 9.25394e-06 0 1.48882e-05 9.73915e-06 0 1.62351e-05 1.01981e-05 0 1.76732e-05 1.06165e-05 0 1.91992e-05 1.09786e-05 0 2.08059e-05 1.12674e-05 0 0 2.07539e-06 0 2.60507e-07 2.08303e-06 0 5.23002e-07 2.10602e-06 0 7.89485e-07 2.14447e-06 0 1.06199e-06 2.19863e-06 0 1.3426e-06 2.26878e-06 0 1.63347e-06 2.35534e-06 0 1.9368e-06 2.45875e-06 0 2.25494e-06 2.57957e-06 0 2.5903e-06 2.71839e-06 0 2.94547e-06 2.87585e-06 0 3.32315e-06 3.05263e-06 0 3.72624e-06 3.2494e-06 0 4.15778e-06 3.46681e-06 0 4.62104e-06 3.70547e-06 0 5.11948e-06 3.96585e-06 0 5.65679e-06 4.24829e-06 0 6.23685e-06 4.55285e-06 0 6.86376e-06 4.87932e-06 0 7.5418e-06 5.22703e-06 0 8.27536e-06 5.59479e-06 0 9.06895e-06 5.98074e-06 0 9.92702e-06 6.38218e-06 0 1.08539e-05 6.79548e-06 0 1.18535e-05 7.21583e-06 0 1.29293e-05 7.63716e-06 0 1.40838e-05 8.05202e-06 0 1.53184e-05 8.45144e-06 0 1.66329e-05 8.82499e-06 0 1.80249e-05 9.16086e-06 0 1.94896e-05 9.44605e-06 0 2.10195e-05 9.66697e-06 0 0 1.8079e-06 0 2.74801e-07 1.81453e-06 0 5.51671e-07 1.83447e-06 0 8.32694e-07 1.86782e-06 0 1.11998e-06 1.91477e-06 0 1.4157e-06 1.97558e-06 0 1.72206e-06 2.05057e-06 0 2.04134e-06 2.14011e-06 0 2.37594e-06 2.24466e-06 0 2.72834e-06 2.36469e-06 0 3.10112e-06 2.5007e-06 0 3.49702e-06 2.65324e-06 0 3.9189e-06 2.82281e-06 0 4.36979e-06 3.0099e-06 0 4.85284e-06 3.21493e-06 0 5.3714e-06 3.4382e-06 0 5.92895e-06 3.67984e-06 0 6.5291e-06 3.93978e-06 0 7.1756e-06 4.21764e-06 0 7.87227e-06 4.51265e-06 0 8.62296e-06 4.82356e-06 0 9.43144e-06 5.14856e-06 0 1.03014e-05 5.48511e-06 0 1.12361e-05 5.82986e-06 0 1.22384e-05 6.17854e-06 0 1.33107e-05 6.52582e-06 0 1.4454e-05 6.86529e-06 0 1.56685e-05 7.18937e-06 0 1.69527e-05 7.48941e-06 0 1.83032e-05 7.75573e-06 0 1.97144e-05 7.97787e-06 0 2.11783e-05 8.14506e-06 0 0 1.52716e-06 0 2.87027e-07 1.53274e-06 0 5.76191e-07 1.54952e-06 0 8.69643e-07 1.57758e-06 0 1.16956e-06 1.61708e-06 0 1.47816e-06 1.66821e-06 0 1.79773e-06 1.73125e-06 0 2.13059e-06 1.80648e-06 0 2.47918e-06 1.89427e-06 0 2.846e-06 1.99499e-06 0 3.23367e-06 2.10903e-06 0 3.64492e-06 2.23681e-06 0 4.0826e-06 2.37869e-06 0 4.54965e-06 2.53504e-06 0 5.04918e-06 2.70613e-06 0 5.58437e-06 2.89212e-06 0 6.15852e-06 3.09305e-06 0 6.77502e-06 3.30873e-06 0 7.43728e-06 3.53872e-06 0 8.14873e-06 3.78225e-06 0 8.91272e-06 4.03813e-06 0 9.73245e-06 4.30469e-06 0 1.06109e-05 4.57967e-06 0 1.15505e-05 4.86015e-06 0 1.25534e-05 5.14246e-06 0 1.36207e-05 5.42211e-06 0 1.47528e-05 5.69375e-06 0 1.59487e-05 5.95119e-06 0 1.72059e-05 6.18741e-06 0 1.85205e-05 6.39469e-06 0 1.98861e-05 6.56478e-06 0 2.12947e-05 6.68925e-06 0 0 1.23527e-06 0 2.97119e-07 1.23977e-06 0 5.96429e-07 1.25329e-06 0 9.00133e-07 1.27592e-06 0 1.21046e-06 1.30775e-06 0 1.52968e-06 1.34895e-06 0 1.86011e-06 1.39973e-06 0 2.20413e-06 1.46031e-06 0 2.56419e-06 1.53096e-06 0 2.94283e-06 1.61197e-06 0 3.34267e-06 1.70364e-06 0 3.76643e-06 1.80625e-06 0 4.21692e-06 1.9201e-06 0 4.69707e-06 2.04542e-06 0 5.20986e-06 2.18239e-06 0 5.75838e-06 2.33108e-06 0 6.34576e-06 2.49146e-06 0 6.97517e-06 2.66332e-06 0 7.64977e-06 2.8462e-06 0 8.37263e-06 3.03942e-06 0 9.1467e-06 3.24193e-06 0 9.9747e-06 3.45229e-06 0 1.0859e-05 3.66861e-06 0 1.18016e-05 3.88848e-06 0 1.28037e-05 4.1089e-06 0 1.38658e-05 4.32625e-06 0 1.49875e-05 4.53629e-06 0 1.61671e-05 4.73412e-06 0 1.74016e-05 4.91427e-06 0 1.86862e-05 5.0708e-06 0 2.00146e-05 5.19739e-06 0 2.13784e-05 5.28767e-06 0 0 9.34381e-07 0 3.05023e-07 9.37776e-07 0 6.12277e-07 9.47981e-07 0 9.24006e-07 9.65045e-07 0 1.24248e-06 9.89055e-07 0 1.57e-06 1.02013e-06 0 1.90892e-06 1.05841e-06 0 2.26164e-06 1.10406e-06 0 2.63064e-06 1.15729e-06 0 3.01848e-06 1.21829e-06 0 3.42776e-06 1.28728e-06 0 3.86121e-06 1.36446e-06 0 4.32162e-06 1.45003e-06 0 4.81184e-06 1.54414e-06 0 5.33482e-06 1.64689e-06 0 5.89352e-06 1.75833e-06 0 6.49096e-06 1.87837e-06 0 7.13013e-06 2.00682e-06 0 7.81396e-06 2.1433e-06 0 8.54527e-06 2.28723e-06 0 9.32669e-06 2.43779e-06 0 1.01606e-05 2.59384e-06 0 1.10488e-05 2.75391e-06 0 1.1993e-05 2.91616e-06 0 1.29938e-05 3.0783e-06 0 1.40511e-05 3.23761e-06 0 1.51641e-05 3.39093e-06 0 1.63305e-05 3.53463e-06 0 1.75467e-05 3.6647e-06 0 1.88078e-05 3.77681e-06 0 2.01072e-05 3.86639e-06 0 2.14365e-05 3.92886e-06 0 0 6.26708e-07 0 3.10696e-07 6.28981e-07 0 6.23653e-07 6.35812e-07 0 9.41142e-07 6.47235e-07 0 1.26546e-06 6.63305e-07 0 1.59893e-06 6.84099e-07 0 1.94393e-06 7.09711e-07 0 2.30288e-06 7.40253e-07 0 2.67828e-06 7.75849e-07 0 3.07268e-06 8.1663e-07 0 3.48871e-06 8.62732e-07 0 3.92906e-06 9.14286e-07 0 4.39651e-06 9.71409e-07 0 4.89388e-06 1.0342e-06 0 5.42405e-06 1.10271e-06 0 5.98994e-06 1.17694e-06 0 6.59443e-06 1.25684e-06 0 7.24041e-06 1.34225e-06 0 7.93064e-06 1.4329e-06 0 8.66776e-06 1.52838e-06 0 9.45416e-06 1.6281e-06 0 1.02919e-05 1.7313e-06 0 1.11827e-05 1.83697e-06 0 1.21276e-05 1.94386e-06 0 1.31271e-05 2.05044e-06 0 1.41807e-05 2.1549e-06 0 1.52871e-05 2.25512e-06 0 1.64437e-05 2.34872e-06 0 1.76467e-05 2.43307e-06 0 1.88909e-05 2.50534e-06 0 2.01696e-05 2.56256e-06 0 2.14745e-05 2.60178e-06 0 0 3.14493e-07 0 3.14112e-07 3.15632e-07 0 6.30501e-07 3.19056e-07 0 9.51456e-07 3.24781e-07 0 1.27929e-06 3.32835e-07 0 1.61634e-06 3.43256e-07 0 1.96499e-06 3.56089e-07 0 2.32769e-06 3.71391e-07 0 2.70693e-06 3.89221e-07 0 3.10527e-06 4.09645e-07 0 3.52534e-06 4.32728e-07 0 3.96982e-06 4.58533e-07 0 4.44148e-06 4.87118e-07 0 4.94312e-06 5.18525e-07 0 5.47758e-06 5.52779e-07 0 6.04773e-06 5.8988e-07 0 6.65641e-06 6.2979e-07 0 7.30641e-06 6.72424e-07 0 8.00041e-06 7.17643e-07 0 8.74092e-06 7.65234e-07 0 9.5302e-06 8.149e-07 0 1.03702e-05 8.66248e-07 0 1.12623e-05 9.18768e-07 0 1.22076e-05 9.7183e-07 0 1.32061e-05 1.02467e-06 0 1.42573e-05 1.07637e-06 0 1.53596e-05 1.12588e-06 0 1.65102e-05 1.17203e-06 0 1.77052e-05 1.2135e-06 0 1.89393e-05 1.24891e-06 0 2.02056e-05 1.27678e-06 0 2.14958e-05 1.29567e-06 0 0 -0 0 3.15253e-07 -0 0 6.32788e-07 -0 0 9.54899e-07 -0 0 1.2839e-06 -0 0 1.62215e-06 -0 0 1.97202e-06 -0 0 2.33597e-06 -0 0 2.71649e-06 -0 0 3.11614e-06 -0 0 3.53756e-06 -0 0 3.98342e-06 -0 0 4.45647e-06 -0 0 4.95953e-06 -0 0 5.49542e-06 -0 0 6.06699e-06 -0 0 6.67705e-06 -0 0 7.32838e-06 -0 0 8.02362e-06 -0 0 8.76524e-06 -0 0 9.55547e-06 -0 0 1.03962e-05 -0 0 1.12887e-05 -0 0 1.22341e-05 -0 0 1.32323e-05 -0 0 1.42826e-05 -0 0 1.53835e-05 -0 0 1.65322e-05 -0 0 1.77245e-05 -0 0 1.89552e-05 -0 0 2.02173e-05 -0 0 2.15027e-05 -0 0 </DataArray> 
</PointData> 
<Points> 
<DataArray type="Float32" NumberOfComponents="3"> 