<?xml version="1.0"?> 
<VTKFile type="StructuredGrid" version="0.1"> 
<StructuredGrid WholeExtent="0 31 0 31 0 0"> 
<Piece Extent="0 31 0 31 0 0"> 
<PointData>
<DataArray type="Float32" Name="B" format="ascii" NumberOfComponents="3"> 
-0.000123944 2.4278e-05 0 -0.00010044 -1.33912e-06 0 -0.000108237 -6.34408e-08 0 -0.000115554 -6.18691e-07 0 -0.000130944 -5.88233e-07 0 -0.000144555 -6.56184e-07 0 -0.000160347 -6.51039e-07 0 -0.000174703 -6.08606e-07 0 -0.00018844 -5.51524e-07 0 -0.000200293 -4.70844e-07 0 -0.000210487 -3.93231e-07 0 -0.000218743 -3.11807e-07 0 -0.000225232 -2.37324e-07 0 -0.000229975 -1.65195e-07 0 -0.00023309 -9.78767e-08 0 -0.000234627 -3.21664e-08 0 -0.000234627 3.21664e-08 0 -0.00023309 9.78767e-08 0 -0.000229975 1.65195e-07 0 -0.000225232 2.37324e-07 0 -0.000218743 3.11807e-07 0 -0.000210487 3.93231e-07 0 -0.000200293 4.70844e-07 0 -0.00018844 5.51524e-07 0 -0.000174703 6.08606e-07 0 -0.000160347 6.51039e-07 0 -0.000144555 6.56184e-07 0 -0.000130944 5.88233e-07 0 -0.000115554 6.18691e-07 0 -0.000108237 6.34408e-08 0 -0.00010044 1.33912e-06 0 -0.000123944 -2.4278e-05 0 6.21143e-06 -7.29821e-07 0 1.34368e-05 -3.786e-07 0 1.51626e-05 6.80379e-08 0 1.5515e-05 -5.86875e-08 0 1.7934e-05 -3.44001e-08 0 1.95517e-05 -4.13686e-08 0 2.17664e-05 -4.4247e-08 0 2.36277e-05 -3.74767e-08 0 2.54957e-05 -3.77286e-08 0 2.70702e-05 -2.99155e-08 0 2.84486e-05 -2.6948e-08 0 2.9557e-05 -2.03925e-08 0 3.04349e-05 -1.63232e-08 0 3.10752e-05 -1.09832e-08 0 3.14972e-05 -6.78669e-09 0 3.17052e-05 -2.08087e-09 0 3.17052e-05 2.08087e-09 0 3.14972e-05 6.78669e-09 0 3.10752e-05 1.09832e-08 0 3.04349e-05 1.63232e-08 0 2.9557e-05 2.03925e-08 0 2.84486e-05 2.6948e-08 0 2.70702e-05 2.99155e-08 0 2.54957e-05 3.77286e-08 0 2.36277e-05 3.74767e-08 0 2.17664e-05 4.4247e-08 0 1.95517e-05 4.13686e-08 0 1.7934e-05 3.44001e-08 0 1.5515e-05 5.86875e-08 0 1.51626e-05 -6.80379e-08 0 1.34368e-05 3.786e-07 0 6.21143e-06 7.29821e-07 0 -3.12164e-07 2.70446e-06 0 -2.80555e-06 -5.08507e-07 0 -3.03491e-06 1.41137e-07 0 -3.19473e-06 1.77679e-08 0 -3.63194e-06 6.2307e-08 0 -3.99244e-06 5.77738e-08 0 -4.42415e-06 5.63519e-08 0 -4.81268e-06 5.66996e-08 0 -5.1866e-06 4.80059e-08 0 -5.50986e-06 4.39896e-08 0 -5.78846e-06 3.51044e-08 0 -6.01486e-06 2.9183e-08 0 -6.19301e-06 2.1586e-08 0 -6.32356e-06 1.5513e-08 0 -6.40933e-06 8.95754e-09 0 -6.45171e-06 3.09442e-09 0 -6.45171e-06 -3.09442e-09 0 -6.40933e-06 -8.95754e-09 0 -6.32356e-06 -1.5513e-08 0 -6.19301e-06 -2.1586e-08 0 -6.01486e-06 -2.9183e-08 0 -5.78846e-06 -3.51044e-08 0 -5.50986e-06 -4.39896e-08 0 -5.1866e-06 -4.80059e-08 0 -4.81268e-06 -5.66996e-08 0 -4.42415e-06 -5.63519e-08 0 -3.99244e-06 -5.77738e-08 0 -3.63194e-06 -6.2307e-08 0 -3.19473e-06 -1.77679e-08 0 -3.03491e-06 -1.41137e-07 0 -2.80555e-06 5.08507e-07 0 -3.12164e-07 -2.70446e-06 0 3.89272e-07 -9.1417e-08 0 7.36744e-07 -1.64583e-07 0 8.56791e-07 2.03547e-08 0 8.57875e-07 -3.98113e-08 0 1.00367e-06 -3.11327e-08 0 1.08722e-06 -3.5263e-08 0 1.21411e-06 -3.64279e-08 0 1.31565e-06 -3.25448e-08 0 1.42074e-06 -3.10467e-08 0 1.50778e-06 -2.56788e-08 0 1.58486e-06 -2.2275e-08 0 1.64642e-06 -1.73216e-08 0 1.69541e-06 -1.35268e-08 0 1.73103e-06 -9.27944e-09 0 1.75457e-06 -5.6147e-09 0 1.76615e-06 -1.78629e-09 0 1.76615e-06 1.78629e-09 0 1.75457e-06 5.6147e-09 0 1.73103e-06 9.27944e-09 0 1.69541e-06 1.35268e-08 0 1.64642e-06 1.73216e-08 0 1.58486e-06 2.2275e-08 0 1.50778e-06 2.56788e-08 0 1.42074e-06 3.10467e-08 0 1.31565e-06 3.25448e-08 0 1.21411e-06 3.64279e-08 0 1.08722e-06 3.5263e-08 0 1.00367e-06 3.11327e-08 0 8.57875e-07 3.98113e-08 0 8.56791e-07 -2.03547e-08 0 7.36744e-07 1.64583e-07 0 3.89272e-07 9.1417e-08 0 -6.3759e-09 1.46496e-06 0 -2.2256e-07 -2.81842e-07 0 -2.14393e-07 7.20242e-08 0 -2.46354e-07 -4.5189e-10 0 -2.67092e-07 2.28926e-08 0 -3.01034e-07 1.96768e-08 0 -3.29527e-07 1.88492e-08 0 -3.6081e-07 1.97931e-08 0 -3.87659e-07 1.60469e-08 0 -4.12519e-07 1.5276e-08 0 -4.33044e-07 1.18276e-08 0 -4.50175e-07 1.00788e-08 0 -4.63414e-07 7.31078e-09 0 -4.73231e-07 5.3441e-09 0 -4.79625e-07 3.03427e-09 0 -4.82805e-07 1.07905e-09 0 -4.82805e-07 -1.07905e-09 0 -4.79625e-07 -3.03427e-09 0 -4.73231e-07 -5.3441e-09 0 -4.63414e-07 -7.31078e-09 0 -4.50175e-07 -1.00788e-08 0 -4.33044e-07 -1.18276e-08 0 -4.12519e-07 -1.5276e-08 0 -3.87659e-07 -1.60469e-08 0 -3.6081e-07 -1.97931e-08 0 -3.29527e-07 -1.88492e-08 0 -3.01034e-07 -1.96768e-08 0 -2.67092e-07 -2.28926e-08 0 -2.46354e-07 4.5189e-10 0 -2.14393e-07 -7.20242e-08 0 -2.2256e-07 2.81842e-07 0 -6.3759e-09 -1.46496e-06 0 6.88243e-08 4.15644e-07 0 1.73502e-08 -1.53454e-07 0 4.34955e-08 2.91068e-08 0 2.68643e-08 -1.83452e-08 0 4.27412e-08 -7.9278e-09 0 4.02319e-08 -1.07384e-08 0 4.85455e-08 -1.1464e-08 0 5.07364e-08 -9.46007e-09 0 5.58953e-08 -9.78367e-09 0 5.878e-08 -7.55938e-09 0 6.21054e-08 -6.93936e-09 0 6.43649e-08 -5.16263e-09 0 6.63654e-08 -4.18159e-09 0 6.77164e-08 -2.78161e-09 0 6.86563e-08 -1.73614e-09 0 6.90999e-08 -5.22241e-10 0 6.90999e-08 5.22241e-10 0 6.86563e-08 1.73614e-09 0 6.77164e-08 2.78161e-09 0 6.63654e-08 4.18159e-09 0 6.43649e-08 5.16263e-09 0 6.21054e-08 6.93936e-09 0 5.878e-08 7.55938e-09 0 5.58953e-08 9.78367e-09 0 5.07364e-08 9.46007e-09 0 4.85455e-08 1.1464e-08 0 4.02319e-08 1.07384e-08 0 4.27412e-08 7.9278e-09 0 2.68643e-08 1.83452e-08 0 4.34955e-08 -2.91068e-08 0 1.73502e-08 1.53454e-07 0 6.88243e-08 -4.15644e-07 0 2.15991e-08 8.34021e-07 0 1.4046e-08 -1.73373e-07 0 3.4312e-08 4.12096e-08 0 2.12915e-08 -5.64771e-09 0 3.35181e-08 8.02845e-09 0 3.14966e-08 5.71162e-09 0 3.78252e-08 5.14823e-09 0 3.94519e-08 6.14861e-09 0 4.33723e-08 4.37502e-09 0 4.55686e-08 4.67371e-09 0 4.81147e-08 3.30563e-09 0 4.98554e-08 3.0345e-09 0 5.14005e-08 2.07553e-09 0 5.2449e-08 1.59674e-09 0 5.31792e-08 8.61553e-10 0 5.35247e-08 3.33768e-10 0 5.35247e-08 -3.33768e-10 0 5.31792e-08 -8.61553e-10 0 5.2449e-08 -1.59674e-09 0 5.14005e-08 -2.07553e-09 0 4.98554e-08 -3.0345e-09 0 4.81147e-08 -3.30563e-09 0 4.55686e-08 -4.67371e-09 0 4.33723e-08 -4.37502e-09 0 3.94519e-08 -6.14861e-09 0 3.78252e-08 -5.14823e-09 0 3.14966e-08 -5.71162e-09 0 3.35181e-08 -8.02845e-09 0 2.12915e-08 5.64771e-09 0 3.4312e-08 -4.12096e-08 0 1.4046e-08 1.73373e-07 0 2.15991e-08 -8.34021e-07 0 1.56848e-08 4.63854e-07 0 -3.9878e-08 -1.2275e-07 0 -2.73499e-08 2.58067e-08 0 -4.11187e-08 -9.99129e-09 0 -3.88254e-08 -1.0752e-09 0 -4.70378e-08 -3.06699e-09 0 -4.95762e-08 -3.55474e-09 0 -5.52542e-08 -2.35635e-09 0 -5.8771e-08 -3.04209e-09 0 -6.28132e-08 -1.95703e-09 0 -6.57656e-08 -2.0971e-09 0 -6.84446e-08 -1.38543e-09 0 -7.04126e-08 -1.23874e-09 0 -7.19269e-08 -7.58459e-10 0 -7.28893e-08 -5.14469e-10 0 -7.33778e-08 -1.32118e-10 0 -7.33778e-08 1.32118e-10 0 -7.28893e-08 5.14469e-10 0 -7.19269e-08 7.58459e-10 0 -7.04126e-08 1.23874e-09 0 -6.84446e-08 1.38543e-09 0 -6.57656e-08 2.0971e-09 0 -6.28132e-08 1.95703e-09 0 -5.8771e-08 3.04209e-09 0 -5.52542e-08 2.35635e-09 0 -4.95762e-08 3.55474e-09 0 -4.70378e-08 3.06699e-09 0 -3.88254e-08 1.0752e-09 0 -4.11187e-08 9.99129e-09 0 -2.73499e-08 -2.58067e-08 0 -3.9878e-08 1.2275e-07 0 1.56848e-08 -4.63854e-07 0 1.21656e-08 5.29843e-07 0 1.98292e-08 -1.15239e-07 0 3.55942e-08 2.63067e-08 0 2.6453e-08 -5.62701e-09 0 3.70024e-08 3.22248e-09 0 3.67183e-08 1.56474e-09 0 4.28645e-08 1.17139e-09 0 4.53826e-08 1.98217e-09 0 4.95469e-08 9.88478e-10 0 5.22645e-08 1.45622e-09 0 5.50878e-08 8.09795e-10 0 5.71394e-08 9.1039e-10 0 5.88824e-08 5.32888e-10 0 6.00978e-08 4.70081e-10 0 6.09265e-08 2.21205e-10 0 6.13248e-08 1.06418e-10 0 6.13248e-08 -1.06418e-10 0 6.09265e-08 -2.21205e-10 0 6.00978e-08 -4.70081e-10 0 5.88824e-08 -5.32888e-10 0 5.71394e-08 -9.1039e-10 0 5.50878e-08 -8.09795e-10 0 5.22645e-08 -1.45622e-09 0 4.95469e-08 -9.88478e-10 0 4.53826e-08 -1.98217e-09 0 4.28645e-08 -1.17139e-09 0 3.67183e-08 -1.56474e-09 0 3.70024e-08 -3.22248e-09 0 2.6453e-08 5.62701e-09 0 3.55942e-08 -2.63067e-08 0 1.98292e-08 1.15239e-07 0 1.21656e-08 -5.29843e-07 0 5.84124e-09 3.75369e-07 0 -2.49808e-08 -8.95987e-08 0 -1.49125e-08 1.94693e-08 0 -2.52063e-08 -6.11104e-09 0 -2.25764e-08 5.44871e-10 0 -2.81788e-08 -8.46096e-10 0 -2.92841e-08 -1.17688e-09 0 -3.28806e-08 -4.05592e-10 0 -3.48489e-08 -1.0124e-09 0 -3.73156e-08 -3.96254e-10 0 -3.90343e-08 -6.58261e-10 0 -4.06435e-08 -3.18266e-10 0 -4.18025e-08 -3.71999e-10 0 -4.27064e-08 -1.83134e-10 0 -4.32754e-08 -1.54556e-10 0 -4.35663e-08 -2.42964e-11 0 -4.35663e-08 2.42964e-11 0 -4.32754e-08 1.54556e-10 0 -4.27064e-08 1.83134e-10 0 -4.18025e-08 3.71999e-10 0 -4.06435e-08 3.18266e-10 0 -3.90343e-08 6.58261e-10 0 -3.73156e-08 3.96254e-10 0 -3.48489e-08 1.0124e-09 0 -3.28806e-08 4.05592e-10 0 -2.92841e-08 1.17688e-09 0 -2.81788e-08 8.46096e-10 0 -2.25764e-08 -5.44871e-10 0 -2.52063e-08 6.11104e-09 0 -1.49125e-08 -1.94693e-08 0 -2.49808e-08 8.95987e-08 0 5.84124e-09 -3.75369e-07 0 5.48001e-09 3.45619e-07 0 6.9239e-09 -7.64444e-08 0 1.87201e-08 1.7137e-08 0 1.09156e-08 -4.26527e-09 0 1.79548e-08 1.53557e-09 0 1.65957e-08 4.01746e-10 0 2.01349e-08 1.36393e-10 0 2.09224e-08 7.14744e-10 0 2.30623e-08 1.08981e-10 0 2.42105e-08 4.95297e-10 0 2.55805e-08 1.41739e-10 0 2.65005e-08 2.88198e-10 0 2.73258e-08 1.12042e-10 0 2.78813e-08 1.43106e-10 0 2.82699e-08 4.64915e-11 0 2.8453e-08 3.76311e-11 0 2.8453e-08 -3.76311e-11 0 2.82699e-08 -4.64915e-11 0 2.78813e-08 -1.43106e-10 0 2.73258e-08 -1.12042e-10 0 2.65005e-08 -2.88198e-10 0 2.55805e-08 -1.41739e-10 0 2.42105e-08 -4.95297e-10 0 2.30623e-08 -1.08981e-10 0 2.09224e-08 -7.14744e-10 0 2.01349e-08 -1.36393e-10 0 1.65957e-08 -4.01746e-10 0 1.79548e-08 -1.53557e-09 0 1.09156e-08 4.26527e-09 0 1.87201e-08 -1.7137e-08 0 6.9239e-09 7.64444e-08 0 5.48001e-09 -3.45619e-07 0 2.86087e-09 2.58728e-07 0 -1.26759e-08 -5.93069e-08 0 -3.54164e-09 1.30348e-08 0 -1.17275e-08 -3.76375e-09 0 -8.23937e-09 6.77074e-10 0 -1.18901e-08 -2.29443e-10 0 -1.15579e-08 -4.41532e-10 0 -1.34411e-08 4.36932e-11 0 -1.40006e-08 -3.8258e-10 0 -1.51244e-08 -1.69445e-11 0 -1.57507e-08 -2.28022e-10 0 -1.64369e-08 -4.5843e-11 0 -1.68864e-08 -1.1952e-10 0 -1.72613e-08 -3.30697e-11 0 -1.74866e-08 -4.96801e-11 0 -1.76061e-08 1.07234e-12 0 -1.76061e-08 -1.07234e-12 0 -1.74866e-08 4.96801e-11 0 -1.72613e-08 3.30697e-11 0 -1.68864e-08 1.1952e-10 0 -1.64369e-08 4.5843e-11 0 -1.57507e-08 2.28022e-10 0 -1.51244e-08 1.69445e-11 0 -1.40006e-08 3.8258e-10 0 -1.34411e-08 -4.36932e-11 0 -1.15579e-08 4.41532e-10 0 -1.18901e-08 2.29443e-10 0 -8.23937e-09 -6.77074e-10 0 -1.17275e-08 3.76375e-09 0 -3.54164e-09 -1.30348e-08 0 -1.26759e-08 5.93069e-08 0 2.86087e-09 -2.58728e-07 0 2.43254e-09 2.06878e-07 0 -1.57607e-10 -4.59182e-08 0 9.46559e-09 1.02196e-08 0 2.39604e-09 -2.68444e-09 0 7.50984e-09 7.83696e-10 0 5.56087e-09 9.44434e-11 0 7.67076e-09 -6.55222e-11 0 7.50873e-09 2.9078e-10 0 8.53871e-09 -6.04586e-11 0 8.82613e-09 1.88847e-10 0 9.39922e-09 -6.01208e-12 0 9.69869e-09 1.00221e-10 0 1.00207e-08 1.16133e-11 0 1.02143e-08 4.69997e-11 0 1.03616e-08 4.80243e-12 0 1.04267e-08 1.4985e-11 0 1.04267e-08 -1.4985e-11 0 1.03616e-08 -4.80243e-12 0 1.02143e-08 -4.69997e-11 0 1.00207e-08 -1.16133e-11 0 9.69869e-09 -1.00221e-10 0 9.39922e-09 6.01208e-12 0 8.82613e-09 -1.88847e-10 0 8.53871e-09 6.04586e-11 0 7.50873e-09 -2.9078e-10 0 7.67076e-09 6.55222e-11 0 5.56087e-09 -9.44434e-11 0 7.50984e-09 -7.83696e-10 0 2.39604e-09 2.68444e-09 0 9.46559e-09 -1.02196e-08 0 -1.57607e-10 4.59182e-08 0 2.43254e-09 -2.06878e-07 0 1.51917e-09 1.41646e-07 0 -7.02741e-09 -3.19355e-08 0 1.52924e-09 7.0453e-09 0 -5.57785e-09 -1.97472e-09 0 -1.77717e-09 4.23019e-10 0 -4.50216e-09 -6.27258e-11 0 -3.54414e-09 -1.75407e-10 0 -4.63929e-09 8.0986e-11 0 -4.56887e-09 -1.52899e-10 0 -5.08128e-09 3.60755e-11 0 -5.21546e-09 -8.44285e-11 0 -5.48293e-09 5.70224e-12 0 -5.61209e-09 -4.09589e-11 0 -5.74727e-09 -1.5491e-12 0 -5.81717e-09 -1.70315e-11 0 -5.85898e-09 3.73794e-12 0 -5.85898e-09 -3.73794e-12 0 -5.81717e-09 1.70315e-11 0 -5.74727e-09 1.5491e-12 0 -5.61209e-09 4.09589e-11 0 -5.48293e-09 -5.70224e-12 0 -5.21546e-09 8.44285e-11 0 -5.08128e-09 -3.60755e-11 0 -4.56887e-09 1.52899e-10 0 -4.63929e-09 -8.0986e-11 0 -3.54414e-09 1.75407e-10 0 -4.50216e-09 6.27258e-11 0 -1.77717e-09 -4.23019e-10 0 -5.57785e-09 1.97472e-09 0 1.52924e-09 -7.0453e-09 0 -7.02741e-09 3.19355e-08 0 1.51917e-09 -1.41646e-07 0 1.23904e-09 8.63141e-08 0 -3.05701e-09 -1.91306e-08 0 5.56854e-09 4.24892e-09 0 -1.12137e-09 -1.13205e-09 0 3.14784e-09 3.10996e-10 0 9.79353e-10 2.28131e-11 0 2.48113e-09 -4.37669e-11 0 1.93252e-09 1.05557e-10 0 2.49697e-09 -3.92663e-11 0 2.42895e-09 6.64655e-11 0 2.66953e-09 -1.27045e-11 0 2.71165e-09 3.35689e-11 0 2.82408e-09 -1.39644e-12 0 2.86729e-09 1.52077e-11 0 2.91415e-09 -5.87812e-13 0 2.93026e-09 5.38589e-12 0 2.93026e-09 -5.38589e-12 0 2.91415e-09 5.87812e-13 0 2.86729e-09 -1.52077e-11 0 2.82408e-09 1.39644e-12 0 2.71165e-09 -3.35689e-11 0 2.66953e-09 1.27045e-11 0 2.42895e-09 -6.64655e-11 0 2.49697e-09 3.92663e-11 0 1.93252e-09 -1.05557e-10 0 2.48113e-09 4.37669e-11 0 9.79353e-10 -2.28131e-11 0 3.14784e-09 -3.10996e-10 0 -1.12137e-09 1.13205e-09 0 5.56854e-09 -4.24892e-09 0 -3.05701e-09 1.91306e-08 0 1.23904e-09 -8.63141e-08 0 1.01737e-09 2.77327e-08 0 -4.65174e-09 -6.27133e-09 0 3.69323e-09 1.37971e-09 0 -2.98164e-09 -3.94e-10 0 9.65709e-10 7.59897e-11 0 -1.37624e-09 -1.97929e-11 0 -1.48824e-10 -4.1965e-11 0 -9.13373e-10 8.84257e-12 0 -5.75056e-10 -3.64556e-11 0 -8.29648e-10 1.53381e-12 0 -7.55167e-10 -2.12435e-11 0 -8.45649e-10 -2.6114e-12 0 -8.39055e-10 -1.08972e-11 0 -8.72819e-10 -2.30129e-12 0 -8.76885e-10 -4.53079e-12 0 -8.85834e-10 3.43384e-13 0 -8.85834e-10 -3.43384e-13 0 -8.76885e-10 4.53079e-12 0 -8.72819e-10 2.30129e-12 0 -8.39055e-10 1.08972e-11 0 -8.45649e-10 2.6114e-12 0 -7.55167e-10 2.12435e-11 0 -8.29648e-10 -1.53381e-12 0 -5.75056e-10 3.64556e-11 0 -9.13373e-10 -8.84257e-12 0 -1.48824e-10 4.1965e-11 0 -1.37624e-09 1.97929e-11 0 9.65709e-10 -7.59897e-11 0 -2.98164e-09 3.94e-10 0 3.69323e-09 -1.37971e-09 0 -4.65174e-09 6.27133e-09 0 1.01737e-09 -2.77327e-08 0 1.01737e-09 -2.77327e-08 0 -4.65174e-09 6.27133e-09 0 3.69323e-09 -1.37971e-09 0 -2.98164e-09 3.94e-10 0 9.65709e-10 -7.59897e-11 0 -1.37624e-09 1.97929e-11 0 -1.48824e-10 4.1965e-11 0 -9.13373e-10 -8.84257e-12 0 -5.75056e-10 3.64556e-11 0 -8.29648e-10 -1.53381e-12 0 -7.55167e-10 2.12435e-11 0 -8.45649e-10 2.6114e-12 0 -8.39055e-10 1.08972e-11 0 -8.72819e-10 2.30129e-12 0 -8.76885e-10 4.53079e-12 0 -8.85834e-10 -3.43384e-13 0 -8.85834e-10 3.43384e-13 0 -8.76885e-10 -4.53079e-12 0 -8.72819e-10 -2.30129e-12 0 -8.39055e-10 -1.08972e-11 0 -8.45649e-10 -2.6114e-12 0 -7.55167e-10 -2.12435e-11 0 -8.29648e-10 1.53381e-12 0 -5.75056e-10 -3.64556e-11 0 -9.13373e-10 8.84257e-12 0 -1.48824e-10 -4.1965e-11 0 -1.37624e-09 -1.97929e-11 0 9.65709e-10 7.59897e-11 0 -2.98164e-09 -3.94e-10 0 3.69323e-09 1.37971e-09 0 -4.65174e-09 -6.27133e-09 0 1.01737e-09 2.77327e-08 0 1.23904e-09 -8.63141e-08 0 -3.05701e-09 1.91306e-08 0 5.56854e-09 -4.24892e-09 0 -1.12137e-09 1.13205e-09 0 3.14784e-09 -3.10996e-10 0 9.79353e-10 -2.28131e-11 0 2.48113e-09 4.37669e-11 0 1.93252e-09 -1.05557e-10 0 2.49697e-09 3.92663e-11 0 2.42895e-09 -6.64655e-11 0 2.66953e-09 1.27045e-11 0 2.71165e-09 -3.35689e-11 0 2.82408e-09 1.39644e-12 0 2.86729e-09 -1.52077e-11 0 2.91415e-09 5.87812e-13 0 2.93026e-09 -5.38589e-12 0 2.93026e-09 5.38589e-12 0 2.91415e-09 -5.87812e-13 0 2.86729e-09 1.52077e-11 0 2.82408e-09 -1.39644e-12 0 2.71165e-09 3.35689e-11 0 2.66953e-09 -1.27045e-11 0 2.42895e-09 6.64655e-11 0 2.49697e-09 -3.92663e-11 0 1.93252e-09 1.05557e-10 0 2.48113e-09 -4.37669e-11 0 9.79353e-10 2.28131e-11 0 3.14784e-09 3.10996e-10 0 -1.12137e-09 -1.13205e-09 0 5.56854e-09 4.24892e-09 0 -3.05701e-09 -1.91306e-08 0 1.23904e-09 8.63141e-08 0 1.51917e-09 -1.41646e-07 0 -7.02741e-09 3.19355e-08 0 1.52924e-09 -7.0453e-09 0 -5.57785e-09 1.97472e-09 0 -1.77717e-09 -4.23019e-10 0 -4.50216e-09 6.27258e-11 0 -3.54414e-09 1.75407e-10 0 -4.63929e-09 -8.0986e-11 0 -4.56887e-09 1.52899e-10 0 -5.08128e-09 -3.60755e-11 0 -5.21546e-09 8.44285e-11 0 -5.48293e-09 -5.70224e-12 0 -5.61209e-09 4.09589e-11 0 -5.74727e-09 1.5491e-12 0 -5.81717e-09 1.70315e-11 0 -5.85898e-09 -3.73794e-12 0 -5.85898e-09 3.73794e-12 0 -5.81717e-09 -1.70315e-11 0 -5.74727e-09 -1.5491e-12 0 -5.61209e-09 -4.09589e-11 0 -5.48293e-09 5.70224e-12 0 -5.21546e-09 -8.44285e-11 0 -5.08128e-09 3.60755e-11 0 -4.56887e-09 -1.52899e-10 0 -4.63929e-09 8.0986e-11 0 -3.54414e-09 -1.75407e-10 0 -4.50216e-09 -6.27258e-11 0 -1.77717e-09 4.23019e-10 0 -5.57785e-09 -1.97472e-09 0 1.52924e-09 7.0453e-09 0 -7.02741e-09 -3.19355e-08 0 1.51917e-09 1.41646e-07 0 2.43254e-09 -2.06878e-07 0 -1.57607e-10 4.59182e-08 0 9.46559e-09 -1.02196e-08 0 2.39604e-09 2.68444e-09 0 7.50984e-09 -7.83696e-10 0 5.56087e-09 -9.44434e-11 0 7.67076e-09 6.55222e-11 0 7.50873e-09 -2.9078e-10 0 8.53871e-09 6.04586e-11 0 8.82613e-09 -1.88847e-10 0 9.39922e-09 6.01208e-12 0 9.69869e-09 -1.00221e-10 0 1.00207e-08 -1.16133e-11 0 1.02143e-08 -4.69997e-11 0 1.03616e-08 -4.80243e-12 0 1.04267e-08 -1.4985e-11 0 1.04267e-08 1.4985e-11 0 1.03616e-08 4.80243e-12 0 1.02143e-08 4.69997e-11 0 1.00207e-08 1.16133e-11 0 9.69869e-09 1.00221e-10 0 9.39922e-09 -6.01208e-12 0 8.82613e-09 1.88847e-10 0 8.53871e-09 -6.04586e-11 0 7.50873e-09 2.9078e-10 0 7.67076e-09 -6.55222e-11 0 5.56087e-09 9.44434e-11 0 7.50984e-09 7.83696e-10 0 2.39604e-09 -2.68444e-09 0 9.46559e-09 1.02196e-08 0 -1.57607e-10 -4.59182e-08 0 2.43254e-09 2.06878e-07 0 2.86087e-09 -2.58728e-07 0 -1.26759e-08 5.93069e-08 0 -3.54164e-09 -1.30348e-08 0 -1.17275e-08 3.76375e-09 0 -8.23937e-09 -6.77074e-10 0 -1.18901e-08 2.29443e-10 0 -1.15579e-08 4.41532e-10 0 -1.34411e-08 -4.36932e-11 0 -1.40006e-08 3.8258e-10 0 -1.51244e-08 1.69445e-11 0 -1.57507e-08 2.28022e-10 0 -1.64369e-08 4.5843e-11 0 -1.68864e-08 1.1952e-10 0 -1.72613e-08 3.30697e-11 0 -1.74866e-08 4.96801e-11 0 -1.76061e-08 -1.07234e-12 0 -1.76061e-08 1.07234e-12 0 -1.74866e-08 -4.96801e-11 0 -1.72613e-08 -3.30697e-11 0 -1.68864e-08 -1.1952e-10 0 -1.64369e-08 -4.5843e-11 0 -1.57507e-08 -2.28022e-10 0 -1.51244e-08 -1.69445e-11 0 -1.40006e-08 -3.8258e-10 0 -1.34411e-08 4.36932e-11 0 -1.15579e-08 -4.41532e-10 0 -1.18901e-08 -2.29443e-10 0 -8.23937e-09 6.77074e-10 0 -1.17275e-08 -3.76375e-09 0 -3.54164e-09 1.30348e-08 0 -1.26759e-08 -5.93069e-08 0 2.86087e-09 2.58728e-07 0 5.48001e-09 -3.45619e-07 0 6.9239e-09 7.64444e-08 0 1.87201e-08 -1.7137e-08 0 1.09156e-08 4.26527e-09 0 1.79548e-08 -1.53557e-09 0 1.65957e-08 -4.01746e-10 0 2.01349e-08 -1.36393e-10 0 2.09224e-08 -7.14744e-10 0 2.30623e-08 -1.08981e-10 0 2.42105e-08 -4.95297e-10 0 2.55805e-08 -1.41739e-10 0 2.65005e-08 -2.88198e-10 0 2.73258e-08 -1.12042e-10 0 2.78813e-08 -1.43106e-10 0 2.82699e-08 -4.64915e-11 0 2.8453e-08 -3.76311e-11 0 2.8453e-08 3.76311e-11 0 2.82699e-08 4.64915e-11 0 2.78813e-08 1.43106e-10 0 2.73258e-08 1.12042e-10 0 2.65005e-08 2.88198e-10 0 2.55805e-08 1.41739e-10 0 2.42105e-08 4.95297e-10 0 2.30623e-08 1.08981e-10 0 2.09224e-08 7.14744e-10 0 2.01349e-08 1.36393e-10 0 1.65957e-08 4.01746e-10 0 1.79548e-08 1.53557e-09 0 1.09156e-08 -4.26527e-09 0 1.87201e-08 1.7137e-08 0 6.9239e-09 -7.64444e-08 0 5.48001e-09 3.45619e-07 0 5.84124e-09 -3.75369e-07 0 -2.49808e-08 8.95987e-08 0 -1.49125e-08 -1.94693e-08 0 -2.52063e-08 6.11104e-09 0 -2.25764e-08 -5.44871e-10 0 -2.81788e-08 8.46096e-10 0 -2.92841e-08 1.17688e-09 0 -3.28806e-08 4.05592e-10 0 -3.48489e-08 1.0124e-09 0 -3.73156e-08 3.96254e-10 0 -3.90343e-08 6.58261e-10 0 -4.06435e-08 3.18266e-10 0 -4.18025e-08 3.71999e-10 0 -4.27064e-08 1.83134e-10 0 -4.32754e-08 1.54556e-10 0 -4.35663e-08 2.42964e-11 0 -4.35663e-08 -2.42964e-11 0 -4.32754e-08 -1.54556e-10 0 -4.27064e-08 -1.83134e-10 0 -4.18025e-08 -3.71999e-10 0 -4.06435e-08 -3.18266e-10 0 -3.90343e-08 -6.58261e-10 0 -3.73156e-08 -3.96254e-10 0 -3.48489e-08 -1.0124e-09 0 -3.28806e-08 -4.05592e-10 0 -2.92841e-08 -1.17688e-09 0 -2.81788e-08 -8.46096e-10 0 -2.25764e-08 5.44871e-10 0 -2.52063e-08 -6.11104e-09 0 -1.49125e-08 1.94693e-08 0 -2.49808e-08 -8.95987e-08 0 5.84124e-09 3.75369e-07 0 1.21656e-08 -5.29843e-07 0 1.98292e-08 1.15239e-07 0 3.55942e-08 -2.63067e-08 0 2.6453e-08 5.62701e-09 0 3.70024e-08 -3.22248e-09 0 3.67183e-08 -1.56474e-09 0 4.28645e-08 -1.17139e-09 0 4.53826e-08 -1.98217e-09 0 4.95469e-08 -9.88478e-10 0 5.22645e-08 -1.45622e-09 0 5.50878e-08 -8.09795e-10 0 5.71394e-08 -9.1039e-10 0 5.88824e-08 -5.32888e-10 0 6.00978e-08 -4.70081e-10 0 6.09265e-08 -2.21205e-10 0 6.13248e-08 -1.06418e-10 0 6.13248e-08 1.06418e-10 0 6.09265e-08 2.21205e-10 0 6.00978e-08 4.70081e-10 0 5.88824e-08 5.32888e-10 0 5.71394e-08 9.1039e-10 0 5.50878e-08 8.09795e-10 0 5.22645e-08 1.45622e-09 0 4.95469e-08 9.88478e-10 0 4.53826e-08 1.98217e-09 0 4.28645e-08 1.17139e-09 0 3.67183e-08 1.56474e-09 0 3.70024e-08 3.22248e-09 0 2.6453e-08 -5.62701e-09 0 3.55942e-08 2.63067e-08 0 1.98292e-08 -1.15239e-07 0 1.21656e-08 5.29843e-07 0 1.56848e-08 -4.63854e-07 0 -3.9878e-08 1.2275e-07 0 -2.73499e-08 -2.58067e-08 0 -4.11187e-08 9.99129e-09 0 -3.88254e-08 1.0752e-09 0 -4.70378e-08 3.06699e-09 0 -4.95762e-08 3.55474e-09 0 -5.52542e-08 2.35635e-09 0 -5.8771e-08 3.04209e-09 0 -6.28132e-08 1.95703e-09 0 -6.57656e-08 2.0971e-09 0 -6.84446e-08 1.38543e-09 0 -7.04126e-08 1.23874e-09 0 -7.19269e-08 7.58459e-10 0 -7.28893e-08 5.14469e-10 0 -7.33778e-08 1.32118e-10 0 -7.33778e-08 -1.32118e-10 0 -7.28893e-08 -5.14469e-10 0 -7.19269e-08 -7.58459e-10 0 -7.04126e-08 -1.23874e-09 0 -6.84446e-08 -1.38543e-09 0 -6.57656e-08 -2.0971e-09 0 -6.28132e-08 -1.95703e-09 0 -5.8771e-08 -3.04209e-09 0 -5.52542e-08 -2.35635e-09 0 -4.95762e-08 -3.55474e-09 0 -4.70378e-08 -3.06699e-09 0 -3.88254e-08 -1.0752e-09 0 -4.11187e-08 -9.99129e-09 0 -2.73499e-08 2.58067e-08 0 -3.9878e-08 -1.2275e-07 0 1.56848e-08 4.63854e-07 0 2.15991e-08 -8.34021e-07 0 1.4046e-08 1.73373e-07 0 3.4312e-08 -4.12096e-08 0 2.12915e-08 5.64771e-09 0 3.35181e-08 -8.02845e-09 0 3.14966e-08 -5.71162e-09 0 3.78252e-08 -5.14823e-09 0 3.94519e-08 -6.14861e-09 0 4.33723e-08 -4.37502e-09 0 4.55686e-08 -4.67371e-09 0 4.81147e-08 -3.30563e-09 0 4.98554e-08 -3.0345e-09 0 5.14005e-08 -2.07553e-09 0 5.2449e-08 -1.59674e-09 0 5.31792e-08 -8.61553e-10 0 5.35247e-08 -3.33768e-10 0 5.35247e-08 3.33768e-10 0 5.31792e-08 8.61553e-10 0 5.2449e-08 1.59674e-09 0 5.14005e-08 2.07553e-09 0 4.98554e-08 3.0345e-09 0 4.81147e-08 3.30563e-09 0 4.55686e-08 4.67371e-09 0 4.33723e-08 4.37502e-09 0 3.94519e-08 6.14861e-09 0 3.78252e-08 5.14823e-09 0 3.14966e-08 5.71162e-09 0 3.35181e-08 8.02845e-09 0 2.12915e-08 -5.64771e-09 0 3.4312e-08 4.12096e-08 0 1.4046e-08 -1.73373e-07 0 2.15991e-08 8.34021e-07 0 6.88243e-08 -4.15644e-07 0 1.73502e-08 1.53454e-07 0 4.34955e-08 -2.91068e-08 0 2.68643e-08 1.83452e-08 0 4.27412e-08 7.9278e-09 0 4.02319e-08 1.07384e-08 0 4.85455e-08 1.1464e-08 0 5.07364e-08 9.46007e-09 0 5.58953e-08 9.78367e-09 0 5.878e-08 7.55938e-09 0 6.21054e-08 6.93936e-09 0 6.43649e-08 5.16263e-09 0 6.63654e-08 4.18159e-09 0 6.77164e-08 2.78161e-09 0 6.86563e-08 1.73614e-09 0 6.90999e-08 5.22241e-10 0 6.90999e-08 -5.22241e-10 0 6.86563e-08 -1.73614e-09 0 6.77164e-08 -2.78161e-09 0 6.63654e-08 -4.18159e-09 0 6.43649e-08 -5.16263e-09 0 6.21054e-08 -6.93936e-09 0 5.878e-08 -7.55938e-09 0 5.58953e-08 -9.78367e-09 0 5.07364e-08 -9.46007e-09 0 4.85455e-08 -1.1464e-08 0 4.02319e-08 -1.07384e-08 0 4.27412e-08 -7.9278e-09 0 2.68643e-08 -1.83452e-08 0 4.34955e-08 2.91068e-08 0 1.73502e-08 -1.53454e-07 0 6.88243e-08 4.15644e-07 0 -6.3759e-09 -1.46496e-06 0 -2.2256e-07 2.81842e-07 0 -2.14393e-07 -7.20242e-08 0 -2.46354e-07 4.5189e-10 0 -2.67092e-07 -2.28926e-08 0 -3.01034e-07 -1.96768e-08 0 -3.29527e-07 -1.88492e-08 0 -3.6081e-07 -1.97931e-08 0 -3.87659e-07 -1.60469e-08 0 -4.12519e-07 -1.5276e-08 0 -4.33044e-07 -1.18276e-08 0 -4.50175e-07 -1.00788e-08 0 -4.63414e-07 -7.31078e-09 0 -4.73231e-07 -5.3441e-09 0 -4.79625e-07 -3.03427e-09 0 -4.82805e-07 -1.07905e-09 0 -4.82805e-07 1.07905e-09 0 -4.79625e-07 3.03427e-09 0 -4.73231e-07 5.3441e-09 0 -4.63414e-07 7.31078e-09 0 -4.50175e-07 1.00788e-08 0 -4.33044e-07 1.18276e-08 0 -4.12519e-07 1.5276e-08 0 -3.87659e-07 1.60469e-08 0 -3.6081e-07 1.97931e-08 0 -3.29527e-07 1.88492e-08 0 -3.01034e-07 1.96768e-08 0 -2.67092e-07 2.28926e-08 0 -2.46354e-07 -4.5189e-10 0 -2.14393e-07 7.20242e-08 0 -2.2256e-07 -2.81842e-07 0 -6.3759e-09 1.46496e-06 0 3.89272e-07 9.1417e-08 0 7.36744e-07 1.64583e-07 0 8.56791e-07 -2.03547e-08 0 8.57875e-07 3.98113e-08 0 1.00367e-06 3.11327e-08 0 1.08722e-06 3.5263e-08 0 1.21411e-06 3.64279e-08 0 1.31565e-06 3.25448e-08 0 1.42074e-06 3.10467e-08 0 1.50778e-06 2.56788e-08 0 1.58486e-06 2.2275e-08 0 1.64642e-06 1.73216e-08 0 1.69541e-06 1.35268e-08 0 1.73103e-06 9.27944e-09 0 1.75457e-06 5.6147e-09 0 1.76615e-06 1.78629e-09 0 1.76615e-06 -1.78629e-09 0 1.75457e-06 -5.6147e-09 0 1.73103e-06 -9.27944e-09 0 1.69541e-06 -1.35268e-08 0 1.64642e-06 -1.73216e-08 0 1.58486e-06 -2.2275e-08 0 1.50778e-06 -2.56788e-08 0 1.42074e-06 -3.10467e-08 0 1.31565e-06 -3.25448e-08 0 1.21411e-06 -3.64279e-08 0 1.08722e-06 -3.5263e-08 0 1.00367e-06 -3.11327e-08 0 8.57875e-07 -3.98113e-08 0 8.56791e-07 2.03547e-08 0 7.36744e-07 -1.64583e-07 0 3.89272e-07 -9.1417e-08 0 -3.12164e-07 -2.70446e-06 0 -2.80555e-06 5.08507e-07 0 -3.03491e-06 -1.41137e-07 0 -3.19473e-06 -1.77679e-08 0 -3.63194e-06 -6.2307e-08 0 -3.99244e-06 -5.77738e-08 0 -4.42415e-06 -5.63519e-08 0 -4.81268e-06 -5.66996e-08 0 -5.1866e-06 -4.80059e-08 0 -5.50986e-06 -4.39896e-08 0 -5.78846e-06 -3.51044e-08 0 -6.01486e-06 -2.9183e-08 0 -6.19301e-06 -2.1586e-08 0 -6.32356e-06 -1.5513e-08 0 -6.40933e-06 -8.95754e-09 0 -6.45171e-06 -3.09442e-09 0 -6.45171e-06 3.09442e-09 0 -6.40933e-06 8.95754e-09 0 -6.32356e-06 1.5513e-08 0 -6.19301e-06 2.1586e-08 0 -6.01486e-06 2.9183e-08 0 -5.78846e-06 3.51044e-08 0 -5.50986e-06 4.39896e-08 0 -5.1866e-06 4.80059e-08 0 -4.81268e-06 5.66996e-08 0 -4.42415e-06 5.63519e-08 0 -3.99244e-06 5.77738e-08 0 -3.63194e-06 6.2307e-08 0 -3.19473e-06 1.77679e-08 0 -3.03491e-06 1.41137e-07 0 -2.80555e-06 -5.08507e-07 0 -3.12164e-07 2.70446e-06 0 6.21143e-06 7.29821e-07 0 1.34368e-05 3.786e-07 0 1.51626e-05 -6.80379e-08 0 1.5515e-05 5.86875e-08 0 1.7934e-05 3.44001e-08 0 1.95517e-05 4.13686e-08 0 2.17664e-05 4.4247e-08 0 2.36277e-05 3.74767e-08 0 2.54957e-05 3.77286e-08 0 2.70702e-05 2.99155e-08 0 2.84486e-05 2.6948e-08 0 2.9557e-05 2.03925e-08 0 3.04349e-05 1.63232e-08 0 3.10752e-05 1.09832e-08 0 3.14972e-05 6.78669e-09 0 3.17052e-05 2.08087e-09 0 3.17052e-05 -2.08087e-09 0 3.14972e-05 -6.78669e-09 0 3.10752e-05 -1.09832e-08 0 3.04349e-05 -1.63232e-08 0 2.9557e-05 -2.03925e-08 0 2.84486e-05 -2.6948e-08 0 2.70702e-05 -2.99155e-08 0 2.54957e-05 -3.77286e-08 0 2.36277e-05 -3.74767e-08 0 2.17664e-05 -4.4247e-08 0 1.95517e-05 -4.13686e-08 0 1.7934e-05 -3.44001e-08 0 1.5515e-05 -5.86875e-08 0 1.51626e-05 6.80379e-08 0 1.34368e-05 -3.786e-07 0 6.21143e-06 -7.29821e-07 0 -0.000123944 -2.4278e-05 0 -0.00010044 1.33912e-06 0 -0.000108237 6.34408e-08 0 -0.000115554 6.18691e-07 0 -0.000130944 5.88233e-07 0 -0.000144555 6.56184e-07 0 -0.000160347 6.51039e-07 0 -0.000174703 6.08606e-07 0 -0.00018844 5.51524e-07 0 -0.000200293 4.70844e-07 0 -0.000210487 3.93231e-07 0 -0.000218743 3.11807e-07 0 -0.000225232 2.37324e-07 0 -0.000229975 1.65195e-07 0 -0.00023309 9.78767e-08 0 -0.000234627 3.21664e-08 0 -0.000234627 -3.21664e-08 0 -0.00023309 -9.78767e-08 0 -0.000229975 -1.65195e-07 0 -0.000225232 -2.37324e-07 0 -0.000218743 -3.11807e-07 0 -0.000210487 -3.93231e-07 0 -0.000200293 -4.70844e-07 0 -0.00018844 -5.51524e-07 0 -0.000174703 -6.08606e-07 0 -0.000160347 -6.51039e-07 0 -0.000144555 -6.56184e-07 0 -0.000130944 -5.88233e-07 0 -0.000115554 -6.18691e-07 0 -0.000108237 -6.34408e-08 0 -0.00010044 -1.33912e-06 0 -0.000123944 2.4278e-05 0 </DataArray> 
</PointData> 
<Points> 
<DataArray type="Float32" NumberOfComponents="3"> 