<?xml version="1.0"?> 
<VTKFile type="StructuredGrid" version="0.1"> 
<StructuredGrid WholeExtent="0 31 0 31 0 0"> 
<Piece Extent="0 31 0 31 0 0"> 
<PointData>
<DataArray type="Float32" Name="B" format="ascii" NumberOfComponents="3"> 
-3.6755e-06 -0 0 -3.90258e-06 -0 0 -4.13042e-06 -0 0 -4.35683e-06 -0 0 -4.57945e-06 -0 0 -4.79577e-06 -0 0 -5.0032e-06 -0 0 -5.19912e-06 -0 0 -5.38093e-06 -0 0 -5.54618e-06 -0 0 -5.69254e-06 -0 0 -5.81792e-06 -0 0 -5.92051e-06 -0 0 -5.99881e-06 -0 0 -6.05167e-06 -0 0 -6.07829e-06 -0 0 -6.07829e-06 -0 0 -6.05167e-06 -0 0 -5.99881e-06 -0 0 -5.92051e-06 -0 0 -5.81792e-06 -0 0 -5.69254e-06 -0 0 -5.54618e-06 -0 0 -5.38093e-06 -0 0 -5.19912e-06 -0 0 -5.0032e-06 -0 0 -4.79577e-06 -0 0 -4.57945e-06 -0 0 -4.35683e-06 -0 0 -4.13042e-06 -0 0 -3.90258e-06 -0 0 -3.6755e-06 -0 0 -3.67413e-06 2.26338e-07 0 -3.90219e-06 2.28151e-07 0 -4.13112e-06 2.27885e-07 0 -4.35872e-06 2.25333e-07 0 -4.5826e-06 2.20327e-07 0 -4.80022e-06 2.12749e-07 0 -5.00896e-06 2.02543e-07 0 -5.20617e-06 1.89713e-07 0 -5.38923e-06 1.74333e-07 0 -5.55564e-06 1.56538e-07 0 -5.70304e-06 1.36524e-07 0 -5.82934e-06 1.14544e-07 0 -5.93269e-06 9.08915e-08 0 -6.01157e-06 6.59017e-08 0 -6.06481e-06 3.99366e-08 0 -6.09164e-06 1.33785e-08 0 -6.09164e-06 -1.33785e-08 0 -6.06481e-06 -3.99366e-08 0 -6.01157e-06 -6.59017e-08 0 -5.93269e-06 -9.08915e-08 0 -5.82934e-06 -1.14544e-07 0 -5.70304e-06 -1.36524e-07 0 -5.55564e-06 -1.56538e-07 0 -5.38923e-06 -1.74333e-07 0 -5.20617e-06 -1.89713e-07 0 -5.00896e-06 -2.02543e-07 0 -4.80022e-06 -2.12749e-07 0 -4.5826e-06 -2.20327e-07 0 -4.35872e-06 -2.25333e-07 0 -4.13112e-06 -2.27885e-07 0 -3.90219e-06 -2.28151e-07 0 -3.67413e-06 -2.26338e-07 0 -3.66988e-06 4.54515e-07 0 -3.90089e-06 4.58384e-07 0 -4.13311e-06 4.58063e-07 0 -4.3643e-06 4.5313e-07 0 -4.59198e-06 4.43235e-07 0 -4.81354e-06 4.28139e-07 0 -5.02626e-06 4.07719e-07 0 -5.22739e-06 3.81988e-07 0 -5.41422e-06 3.5109e-07 0 -5.58413e-06 3.15302e-07 0 -5.73471e-06 2.75024e-07 0 -5.86376e-06 2.30765e-07 0 -5.96939e-06 1.83125e-07 0 -6.05002e-06 1.32782e-07 0 -6.10445e-06 8.04683e-08 0 -6.13187e-06 2.69567e-08 0 -6.13187e-06 -2.69567e-08 0 -6.10445e-06 -8.04683e-08 0 -6.05002e-06 -1.32782e-07 0 -5.96939e-06 -1.83125e-07 0 -5.86376e-06 -2.30765e-07 0 -5.73471e-06 -2.75024e-07 0 -5.58413e-06 -3.15302e-07 0 -5.41422e-06 -3.5109e-07 0 -5.22739e-06 -3.81988e-07 0 -5.02626e-06 -4.07719e-07 0 -4.81354e-06 -4.28139e-07 0 -4.59198e-06 -4.43235e-07 0 -4.3643e-06 -4.5313e-07 0 -4.13311e-06 -4.58063e-07 0 -3.90089e-06 -4.58384e-07 0 -3.66988e-06 -4.54515e-07 0 -3.66237e-06 6.86389e-07 0 -3.89834e-06 6.92809e-07 0 -4.13611e-06 6.9287e-07 0 -4.37335e-06 6.85904e-07 0 -4.60746e-06 6.71366e-07 0 -4.8357e-06 6.48873e-07 0 -5.05516e-06 6.18231e-07 0 -5.26294e-06 5.79452e-07 0 -5.45614e-06 5.32758e-07 0 -5.632e-06 4.78576e-07 0 -5.78795e-06 4.17522e-07 0 -5.92166e-06 3.50379e-07 0 -6.03114e-06 2.78073e-07 0 -6.11473e-06 2.0164e-07 0 -6.17116e-06 1.22202e-07 0 -6.19959e-06 4.0938e-08 0 -6.19959e-06 -4.0938e-08 0 -6.17116e-06 -1.22202e-07 0 -6.11473e-06 -2.0164e-07 0 -6.03114e-06 -2.78073e-07 0 -5.92166e-06 -3.50379e-07 0 -5.78795e-06 -4.17522e-07 0 -5.632e-06 -4.78576e-07 0 -5.45614e-06 -5.32758e-07 0 -5.26294e-06 -5.79452e-07 0 -5.05516e-06 -6.18231e-07 0 -4.8357e-06 -6.48873e-07 0 -4.60746e-06 -6.71366e-07 0 -4.37335e-06 -6.85904e-07 0 -4.13611e-06 -6.9287e-07 0 -3.89834e-06 -6.92809e-07 0 -3.66237e-06 -6.86389e-07 0 -3.65094e-06 9.23856e-07 0 -3.89394e-06 9.33601e-07 0 -4.13961e-06 9.34724e-07 0 -4.38549e-06 9.26278e-07 0 -4.62881e-06 9.07483e-07 0 -4.86661e-06 8.77789e-07 0 -5.09576e-06 8.36914e-07 0 -5.31308e-06 7.84865e-07 0 -5.51544e-06 7.21946e-07 0 -5.69983e-06 6.4875e-07 0 -5.86348e-06 5.66131e-07 0 -6.00386e-06 4.75176e-07 0 -6.11884e-06 3.77161e-07 0 -6.20665e-06 2.73512e-07 0 -6.26595e-06 1.65766e-07 0 -6.29582e-06 5.55333e-08 0 -6.29582e-06 -5.55333e-08 0 -6.26595e-06 -1.65766e-07 0 -6.20665e-06 -2.73512e-07 0 -6.11884e-06 -3.77161e-07 0 -6.00386e-06 -4.75176e-07 0 -5.86348e-06 -5.66131e-07 0 -5.69983e-06 -6.4875e-07 0 -5.51544e-06 -7.21946e-07 0 -5.31308e-06 -7.84865e-07 0 -5.09576e-06 -8.36914e-07 0 -4.86661e-06 -8.77789e-07 0 -4.62881e-06 -9.07483e-07 0 -4.38549e-06 -9.26278e-07 0 -4.13961e-06 -9.34724e-07 0 -3.89394e-06 -9.33601e-07 0 -3.65094e-06 -9.23856e-07 0 -3.63463e-06 1.16886e-06 0 -3.8868e-06 1.18303e-06 0 -4.14285e-06 1.18618e-06 0 -4.40014e-06 1.17704e-06 0 -4.65567e-06 1.15454e-06 0 -4.90617e-06 1.11794e-06 0 -5.14819e-06 1.06682e-06 0 -5.3782e-06 1.0012e-06 0 -5.59274e-06 9.21457e-07 0 -5.78847e-06 8.28384e-07 0 -5.96231e-06 7.23108e-07 0 -6.11153e-06 6.07057e-07 0 -6.23379e-06 4.81901e-07 0 -6.32717e-06 3.49495e-07 0 -6.39023e-06 2.11825e-07 0 -6.422e-06 7.09646e-08 0 -6.422e-06 -7.09646e-08 0 -6.39023e-06 -2.11825e-07 0 -6.32717e-06 -3.49495e-07 0 -6.23379e-06 -4.81901e-07 0 -6.11153e-06 -6.07057e-07 0 -5.96231e-06 -7.23108e-07 0 -5.78847e-06 -8.28384e-07 0 -5.59274e-06 -9.21457e-07 0 -5.3782e-06 -1.0012e-06 0 -5.14819e-06 -1.06682e-06 0 -4.90617e-06 -1.11794e-06 0 -4.65567e-06 -1.15454e-06 0 -4.40014e-06 -1.17704e-06 0 -4.14285e-06 -1.18618e-06 0 -3.8868e-06 -1.18303e-06 0 -3.63463e-06 -1.16886e-06 0 -3.61211e-06 1.42342e-06 0 -3.87571e-06 1.44347e-06 0 -4.1448e-06 1.44996e-06 0 -4.41651e-06 1.4412e-06 0 -4.68752e-06 1.41577e-06 0 -4.95419e-06 1.37266e-06 0 -5.21262e-06 1.31131e-06 0 -5.45883e-06 1.23171e-06 0 -5.68889e-06 1.13436e-06 0 -5.89904e-06 1.02027e-06 0 -6.08584e-06 8.90902e-07 0 -6.24625e-06 7.48075e-07 0 -6.37769e-06 5.93915e-07 0 -6.47808e-06 4.30756e-07 0 -6.54588e-06 2.61083e-07 0 -6.58003e-06 8.74672e-08 0 -6.58003e-06 -8.74672e-08 0 -6.54588e-06 -2.61083e-07 0 -6.47808e-06 -4.30756e-07 0 -6.37769e-06 -5.93915e-07 0 -6.24625e-06 -7.48075e-07 0 -6.08584e-06 -8.90902e-07 0 -5.89904e-06 -1.02027e-06 0 -5.68889e-06 -1.13436e-06 0 -5.45883e-06 -1.23171e-06 0 -5.21262e-06 -1.31131e-06 0 -4.95419e-06 -1.37266e-06 0 -4.68752e-06 -1.41577e-06 0 -4.41651e-06 -1.4412e-06 0 -4.1448e-06 -1.44996e-06 0 -3.87571e-06 -1.44347e-06 0 -3.61211e-06 -1.42342e-06 0 -3.58163e-06 1.68962e-06 0 -3.85906e-06 1.71749e-06 0 -4.14406e-06 1.72905e-06 0 -4.43351e-06 1.7221e-06 0 -4.72368e-06 1.69477e-06 0 -5.01043e-06 1.64569e-06 0 -5.28929e-06 1.57414e-06 0 -5.55566e-06 1.48005e-06 0 -5.805e-06 1.36408e-06 0 -6.03303e-06 1.22751e-06 0 -6.23583e-06 1.0722e-06 0 -6.41002e-06 9.00463e-07 0 -6.55272e-06 7.1495e-07 0 -6.66169e-06 5.18548e-07 0 -6.73526e-06 3.1429e-07 0 -6.77231e-06 1.05291e-07 0 -6.77231e-06 -1.05291e-07 0 -6.73526e-06 -3.1429e-07 0 -6.66169e-06 -5.18548e-07 0 -6.55272e-06 -7.1495e-07 0 -6.41002e-06 -9.00463e-07 0 -6.23583e-06 -1.0722e-06 0 -6.03303e-06 -1.22751e-06 0 -5.805e-06 -1.36408e-06 0 -5.55566e-06 -1.48005e-06 0 -5.28929e-06 -1.57414e-06 0 -5.01043e-06 -1.64569e-06 0 -4.72368e-06 -1.69477e-06 0 -4.43351e-06 -1.7221e-06 0 -4.14406e-06 -1.72905e-06 0 -3.85906e-06 -1.71749e-06 0 -3.58163e-06 -1.68962e-06 0 -3.54094e-06 1.96964e-06 0 -3.83472e-06 2.00781e-06 0 -4.13879e-06 2.02672e-06 0 -4.4497e-06 2.02348e-06 0 -4.76322e-06 1.99561e-06 0 -5.07455e-06 1.94132e-06 0 -5.37845e-06 1.85961e-06 0 -5.66953e-06 1.75039e-06 0 -5.94248e-06 1.61449e-06 0 -6.19231e-06 1.45356e-06 0 -6.41455e-06 1.26998e-06 0 -6.60535e-06 1.06666e-06 0 -6.76158e-06 8.46899e-07 0 -6.8808e-06 6.1421e-07 0 -6.96123e-06 3.72244e-07 0 -7.00172e-06 1.24701e-07 0 -7.00172e-06 -1.24701e-07 0 -6.96123e-06 -3.72244e-07 0 -6.8808e-06 -6.1421e-07 0 -6.76158e-06 -8.46899e-07 0 -6.60535e-06 -1.06666e-06 0 -6.41455e-06 -1.26998e-06 0 -6.19231e-06 -1.45356e-06 0 -5.94248e-06 -1.61449e-06 0 -5.66953e-06 -1.75039e-06 0 -5.37845e-06 -1.85961e-06 0 -5.07455e-06 -1.94132e-06 0 -4.76322e-06 -1.99561e-06 0 -4.4497e-06 -2.02348e-06 0 -4.13879e-06 -2.02672e-06 0 -3.83472e-06 -2.00781e-06 0 -3.54094e-06 -1.96964e-06 0 -3.48715e-06 2.26571e-06 0 -3.79995e-06 2.3174e-06 0 -4.12657e-06 2.34661e-06 0 -4.46316e-06 2.34958e-06 0 -4.80488e-06 2.32302e-06 0 -5.14606e-06 2.26453e-06 0 -5.48047e-06 2.17275e-06 0 -5.80162e-06 2.04756e-06 0 -6.1032e-06 1.89004e-06 0 -6.37932e-06 1.70236e-06 0 -6.62483e-06 1.48757e-06 0 -6.8354e-06 1.24935e-06 0 -7.00759e-06 9.91792e-07 0 -7.13882e-06 7.19156e-07 0 -7.22725e-06 4.35776e-07 0 -7.27175e-06 1.45971e-07 0 -7.27175e-06 -1.45971e-07 0 -7.22725e-06 -4.35776e-07 0 -7.13882e-06 -7.19156e-07 0 -7.00759e-06 -9.91792e-07 0 -6.8354e-06 -1.24935e-06 0 -6.62483e-06 -1.48757e-06 0 -6.37932e-06 -1.70236e-06 0 -6.1032e-06 -1.89004e-06 0 -5.80162e-06 -2.04756e-06 0 -5.48047e-06 -2.17275e-06 0 -5.14606e-06 -2.26453e-06 0 -4.80488e-06 -2.32302e-06 0 -4.46316e-06 -2.34958e-06 0 -4.12657e-06 -2.34661e-06 0 -3.79995e-06 -2.3174e-06 0 -3.48715e-06 -2.26571e-06 0 -3.41657e-06 2.58012e-06 0 -3.75119e-06 2.64945e-06 0 -4.1042e-06 2.69285e-06 0 -4.47135e-06 2.70535e-06 0 -4.84698e-06 2.68256e-06 0 -5.22432e-06 2.62121e-06 0 -5.59569e-06 2.5195e-06 0 -5.95332e-06 2.37724e-06 0 -6.28942e-06 2.1959e-06 0 -6.59704e-06 1.97837e-06 0 -6.87015e-06 1.72864e-06 0 -7.10392e-06 1.45142e-06 0 -7.29465e-06 1.15177e-06 0 -7.43969e-06 8.34843e-07 0 -7.53727e-06 5.05728e-07 0 -7.58631e-06 1.69375e-07 0 -7.58631e-06 -1.69375e-07 0 -7.53727e-06 -5.05728e-07 0 -7.43969e-06 -8.34843e-07 0 -7.29465e-06 -1.15177e-06 0 -7.10392e-06 -1.45142e-06 0 -6.87015e-06 -1.72864e-06 0 -6.59704e-06 -1.97837e-06 0 -6.28942e-06 -2.1959e-06 0 -5.95332e-06 -2.37724e-06 0 -5.59569e-06 -2.5195e-06 0 -5.22432e-06 -2.62121e-06 0 -4.84698e-06 -2.68256e-06 0 -4.47135e-06 -2.70535e-06 0 -4.1042e-06 -2.69285e-06 0 -3.75119e-06 -2.64945e-06 0 -3.41657e-06 -2.58012e-06 0 -3.32448e-06 2.91511e-06 0 -3.68378e-06 3.00742e-06 0 -4.06748e-06 3.07011e-06 0 -4.47084e-06 3.09658e-06 0 -4.88726e-06 3.08088e-06 0 -5.3084e-06 3.01856e-06 0 -5.72494e-06 2.90707e-06 0 -6.12673e-06 2.74625e-06 0 -6.50446e-06 2.53813e-06 0 -6.84958e-06 2.2867e-06 0 -7.15514e-06 1.99727e-06 0 -7.41577e-06 1.67593e-06 0 -7.62766e-06 1.32901e-06 0 -7.78827e-06 9.62696e-07 0 -7.89604e-06 5.82897e-07 0 -7.95011e-06 1.9517e-07 0 -7.95011e-06 -1.9517e-07 0 -7.89604e-06 -5.82897e-07 0 -7.78827e-06 -9.62696e-07 0 -7.62766e-06 -1.32901e-06 0 -7.41577e-06 -1.67593e-06 0 -7.15514e-06 -1.99727e-06 0 -6.84958e-06 -2.2867e-06 0 -6.50446e-06 -2.53813e-06 0 -6.12673e-06 -2.74625e-06 0 -5.72494e-06 -2.90707e-06 0 -5.3084e-06 -3.01856e-06 0 -4.88726e-06 -3.08088e-06 0 -4.47084e-06 -3.09658e-06 0 -4.06748e-06 -3.07011e-06 0 -3.68378e-06 -3.00742e-06 0 -3.32448e-06 -2.91511e-06 0 -3.20488e-06 3.27275e-06 0 -3.59167e-06 3.39496e-06 0 -4.01074e-06 3.48373e-06 0 -4.457e-06 3.53019e-06 0 -4.92259e-06 3.5262e-06 0 -5.39719e-06 3.46537e-06 0 -5.86846e-06 3.34437e-06 0 -6.32422e-06 3.16287e-06 0 -6.75204e-06 2.92392e-06 0 -7.1417e-06 2.63315e-06 0 -7.48503e-06 2.29784e-06 0 -7.77631e-06 1.926e-06 0 -8.01184e-06 1.52557e-06 0 -8.18953e-06 1.10398e-06 0 -8.30831e-06 6.67951e-07 0 -8.36777e-06 2.23562e-07 0 -8.36777e-06 -2.23562e-07 0 -8.30831e-06 -6.67951e-07 0 -8.18953e-06 -1.10398e-06 0 -8.01184e-06 -1.52557e-06 0 -7.77631e-06 -1.926e-06 0 -7.48503e-06 -2.29784e-06 0 -7.1417e-06 -2.63315e-06 0 -6.75204e-06 -2.92392e-06 0 -6.32422e-06 -3.16287e-06 0 -5.86846e-06 -3.34437e-06 0 -5.39719e-06 -3.46537e-06 0 -4.92259e-06 -3.5262e-06 0 -4.457e-06 -3.53019e-06 0 -4.01074e-06 -3.48373e-06 0 -3.59167e-06 -3.39496e-06 0 -3.20488e-06 -3.27275e-06 0 -3.05009e-06 3.65471e-06 0 -3.46681e-06 3.8158e-06 0 -3.92635e-06 3.93978e-06 0 -4.42337e-06 4.01462e-06 0 -4.94861e-06 4.02869e-06 0 -5.48888e-06 3.97321e-06 0 -6.02876e-06 3.8427e-06 0 -6.55039e-06 3.63737e-06 0 -7.03889e-06 3.36181e-06 0 -7.48114e-06 3.02425e-06 0 -7.86796e-06 2.63493e-06 0 -8.19348e-06 2.20456e-06 0 -8.45467e-06 1.74317e-06 0 -8.65039e-06 1.25958e-06 0 -8.78058e-06 7.61288e-07 0 -8.84553e-06 2.54661e-07 0 -8.84553e-06 -2.54661e-07 0 -8.78058e-06 -7.61288e-07 0 -8.65039e-06 -1.25958e-06 0 -8.45467e-06 -1.74317e-06 0 -8.19348e-06 -2.20456e-06 0 -7.86796e-06 -2.63493e-06 0 -7.48114e-06 -3.02425e-06 0 -7.03889e-06 -3.36181e-06 0 -6.55039e-06 -3.63737e-06 0 -6.02876e-06 -3.8427e-06 0 -5.48888e-06 -3.97321e-06 0 -4.94861e-06 -4.02869e-06 0 -4.42337e-06 -4.01462e-06 0 -3.92635e-06 -3.93978e-06 0 -3.46681e-06 -3.8158e-06 0 -3.05009e-06 -3.65471e-06 0 -2.85027e-06 4.06175e-06 0 -3.29859e-06 4.27347e-06 0 -3.80373e-06 4.44516e-06 0 -4.36089e-06 4.56008e-06 0 -4.9591e-06 4.6018e-06 0 -5.58139e-06 4.55618e-06 0 -6.20507e-06 4.4167e-06 0 -6.80915e-06 4.18277e-06 0 -7.37108e-06 3.86203e-06 0 -7.8753e-06 3.46715e-06 0 -8.31127e-06 3.01296e-06 0 -8.67393e-06 2.51393e-06 0 -8.96176e-06 1.98275e-06 0 -9.17549e-06 1.4297e-06 0 -9.31667e-06 8.62833e-07 0 -9.38681e-06 2.88409e-07 0 -9.38681e-06 -2.88409e-07 0 -9.31667e-06 -8.62833e-07 0 -9.17549e-06 -1.4297e-06 0 -8.96176e-06 -1.98275e-06 0 -8.67393e-06 -2.51393e-06 0 -8.31127e-06 -3.01296e-06 0 -7.8753e-06 -3.46715e-06 0 -7.37108e-06 -3.86203e-06 0 -6.80915e-06 -4.18277e-06 0 -6.20507e-06 -4.4167e-06 0 -5.58139e-06 -4.55618e-06 0 -4.9591e-06 -4.6018e-06 0 -4.36089e-06 -4.56008e-06 0 -3.80373e-06 -4.44516e-06 0 -3.29859e-06 -4.27347e-06 0 -2.85027e-06 -4.06175e-06 0 -2.59298e-06 4.49309e-06 0 -3.07266e-06 4.77073e-06 0 -3.62814e-06 5.00722e-06 0 -4.25615e-06 5.17952e-06 0 -4.94469e-06 5.26238e-06 0 -5.67112e-06 5.23614e-06 0 -6.40659e-06 5.0864e-06 0 -7.11332e-06 4.81575e-06 0 -7.76535e-06 4.43671e-06 0 -8.3415e-06 3.96931e-06 0 -8.83164e-06 3.43547e-06 0 -9.23257e-06 2.85504e-06 0 -9.54615e-06 2.24378e-06 0 -9.77616e-06 1.61334e-06 0 -9.92673e-06 9.71745e-07 0 -1.00011e-05 3.24489e-07 0 -1.00011e-05 -3.24489e-07 0 -9.92673e-06 -9.71745e-07 0 -9.77616e-06 -1.61334e-06 0 -9.54615e-06 -2.24378e-06 0 -9.23257e-06 -2.85504e-06 0 -8.83164e-06 -3.43547e-06 0 -8.3415e-06 -3.96931e-06 0 -7.76535e-06 -4.43671e-06 0 -7.11332e-06 -4.81575e-06 0 -6.40659e-06 -5.0864e-06 0 -5.67112e-06 -5.23614e-06 0 -4.94469e-06 -5.26238e-06 0 -4.25615e-06 -5.17952e-06 0 -3.62814e-06 -5.00722e-06 0 -3.07266e-06 -4.77073e-06 0 -2.59298e-06 -4.49309e-06 0 -2.26255e-06 4.94485e-06 0 -2.77003e-06 5.30816e-06 0 -3.37824e-06 5.63351e-06 0 -4.08925e-06 5.88825e-06 0 -4.89091e-06 6.03573e-06 0 -5.75342e-06 6.03758e-06 0 -6.62679e-06 5.87908e-06 0 -7.46841e-06 5.5586e-06 0 -8.23001e-06 5.10006e-06 0 -8.88868e-06 4.53741e-06 0 -9.4352e-06 3.90391e-06 0 -9.87236e-06 3.22621e-06 0 -1.02075e-05 2.52343e-06 0 -1.04495e-05 1.80768e-06 0 -1.06061e-05 1.08607e-06 0 -1.06829e-05 3.62201e-07 0 -1.06829e-05 -3.62201e-07 0 -1.06061e-05 -1.08607e-06 0 -1.04495e-05 -1.80768e-06 0 -1.02075e-05 -2.52343e-06 0 -9.87236e-06 -3.22621e-06 0 -9.4352e-06 -3.90391e-06 0 -8.88868e-06 -4.53741e-06 0 -8.23001e-06 -5.10006e-06 0 -7.46841e-06 -5.5586e-06 0 -6.62679e-06 -5.87908e-06 0 -5.75342e-06 -6.03758e-06 0 -4.89091e-06 -6.03573e-06 0 -4.08925e-06 -5.88825e-06 0 -3.37824e-06 -5.63351e-06 0 -2.77003e-06 -5.30816e-06 0 -2.26255e-06 -4.94485e-06 0 -1.84017e-06 5.40861e-06 0 -2.36512e-06 5.88204e-06 0 -3.02368e-06 6.32886e-06 0 -3.82805e-06 6.70608e-06 0 -4.77293e-06 6.9524e-06 0 -5.82004e-06 7.01372e-06 0 -6.90294e-06 6.83783e-06 0 -7.91867e-06 6.44061e-06 0 -8.81572e-06 5.86715e-06 0 -9.56342e-06 5.17533e-06 0 -1.01634e-05 4.41506e-06 0 -1.06284e-05 3.62139e-06 0 -1.0976e-05 2.81513e-06 0 -1.12219e-05 2.00735e-06 0 -1.13789e-05 1.20231e-06 0 -1.14552e-05 4.00356e-07 0 -1.14552e-05 -4.00356e-07 0 -1.13789e-05 -1.20231e-06 0 -1.12219e-05 -2.00735e-06 0 -1.0976e-05 -2.81513e-06 0 -1.06284e-05 -3.62139e-06 0 -1.01634e-05 -4.41506e-06 0 -9.56342e-06 -5.17533e-06 0 -8.81572e-06 -5.86715e-06 0 -7.91867e-06 -6.44061e-06 0 -6.90294e-06 -6.83783e-06 0 -5.82004e-06 -7.01372e-06 0 -4.77293e-06 -6.9524e-06 0 -3.82805e-06 -6.70608e-06 0 -3.02368e-06 -6.32886e-06 0 -2.36512e-06 -5.88204e-06 0 -1.84017e-06 -5.40861e-06 0 -1.30424e-06 5.86728e-06 0 -1.82609e-06 6.47936e-06 0 -2.51954e-06 7.09243e-06 0 -3.42128e-06 7.65042e-06 0 -4.54675e-06 8.0686e-06 0 -5.85498e-06 8.21183e-06 0 -7.20559e-06 8.0237e-06 0 -8.46899e-06 7.50207e-06 0 -9.52395e-06 6.75093e-06 0 -1.03595e-05 5.87856e-06 0 -1.0997e-05 4.95749e-06 0 -1.14722e-05 4.02734e-06 0 -1.18159e-05 3.10736e-06 0 -1.20532e-05 2.20356e-06 0 -1.2202e-05 1.31514e-06 0 -1.22736e-05 4.37145e-07 0 -1.22736e-05 -4.37145e-07 0 -1.2202e-05 -1.31514e-06 0 -1.20532e-05 -2.20356e-06 0 -1.18159e-05 -3.10736e-06 0 -1.14722e-05 -4.02734e-06 0 -1.0997e-05 -4.95749e-06 0 -1.03595e-05 -5.87856e-06 0 -9.52395e-06 -6.75093e-06 0 -8.46899e-06 -7.50207e-06 0 -7.20559e-06 -8.0237e-06 0 -5.85498e-06 -8.21183e-06 0 -4.54675e-06 -8.0686e-06 0 -3.42128e-06 -7.65042e-06 0 -2.51954e-06 -7.09243e-06 0 -1.82609e-06 -6.47936e-06 0 -1.30424e-06 -5.86728e-06 0 -6.34055e-07 6.29386e-06 0 -1.11472e-06 7.07209e-06 0 -1.80576e-06 7.90236e-06 0 -2.78051e-06 8.73518e-06 0 -4.11801e-06 9.44008e-06 0 -5.82775e-06 9.81822e-06 0 -7.69675e-06 9.56342e-06 0 -9.2943e-06 8.78791e-06 0 -1.05192e-05 7.7487e-06 0 -1.14111e-05 6.62574e-06 0 -1.20511e-05 5.50506e-06 0 -1.2504e-05 4.42138e-06 0 -1.28191e-05 3.38208e-06 0 -1.303e-05 2.38388e-06 0 -1.31593e-05 1.41716e-06 0 -1.32207e-05 4.70184e-07 0 -1.32207e-05 -4.70184e-07 0 -1.31593e-05 -1.41716e-06 0 -1.303e-05 -2.38388e-06 0 -1.28191e-05 -3.38208e-06 0 -1.2504e-05 -4.42138e-06 0 -1.20511e-05 -5.50506e-06 0 -1.14111e-05 -6.62574e-06 0 -1.05192e-05 -7.7487e-06 0 -9.2943e-06 -8.78791e-06 0 -7.69675e-06 -9.56342e-06 0 -5.82775e-06 -9.81822e-06 0 -4.11801e-06 -9.44008e-06 0 -2.78051e-06 -8.73518e-06 0 -1.80576e-06 -7.90236e-06 0 -1.11472e-06 -7.07209e-06 0 -6.34055e-07 -6.29386e-06 0 1.85734e-07 6.64337e-06 0 -1.97361e-07 7.60608e-06 0 -8.08392e-07 8.70538e-06 0 -1.77093e-06 9.91207e-06 0 -3.27747e-06 1.11718e-05 0 -5.61228e-06 1.20123e-05 0 -8.42897e-06 1.16434e-05 0 -1.04643e-05 1.03225e-05 0 -1.1785e-05 8.81519e-06 0 -1.26525e-05 7.36061e-06 0 -1.32269e-05 6.01298e-06 0 -1.36103e-05 4.76851e-06 0 -1.38631e-05 3.61526e-06 0 -1.40256e-05 2.53208e-06 0 -1.4122e-05 1.49943e-06 0 -1.41669e-05 4.9646e-07 0 -1.41669e-05 -4.9646e-07 0 -1.4122e-05 -1.49943e-06 0 -1.40256e-05 -2.53208e-06 0 -1.38631e-05 -3.61526e-06 0 -1.36103e-05 -4.76851e-06 0 -1.32269e-05 -6.01298e-06 0 -1.26525e-05 -7.36061e-06 0 -1.1785e-05 -8.81519e-06 0 -1.04643e-05 -1.03225e-05 0 -8.42897e-06 -1.16434e-05 0 -5.61228e-06 -1.20123e-05 0 -3.27747e-06 -1.11718e-05 0 -1.77093e-06 -9.91207e-06 0 -8.08392e-07 -8.70538e-06 0 -1.97361e-07 -7.60608e-06 0 1.85734e-07 -6.64337e-06 0 1.15351e-06 6.87013e-06 0 9.45348e-07 8.00759e-06 0 5.22157e-07 9.3661e-06 0 -2.30011e-07 1.10675e-05 0 -1.59975e-06 1.29944e-05 0 -4.31228e-06 1.58627e-05 0 -8.47196e-06 1.46073e-05 0 -1.05077e-05 1.19349e-05 0 -1.17007e-05 9.80189e-06 0 -1.23688e-05 7.98796e-06 0 -1.27916e-05 6.41187e-06 0 -1.30412e-05 5.02604e-06 0 -1.31957e-05 3.77699e-06 0 -1.32851e-05 2.63049e-06 0 -1.33349e-05 1.55169e-06 0 -1.33567e-05 5.12992e-07 0 -1.33567e-05 -5.12992e-07 0 -1.33349e-05 -1.55169e-06 0 -1.32851e-05 -2.63049e-06 0 -1.31957e-05 -3.77699e-06 0 -1.30412e-05 -5.02604e-06 0 -1.27916e-05 -6.41187e-06 0 -1.23688e-05 -7.98796e-06 0 -1.17007e-05 -9.80189e-06 0 -1.05077e-05 -1.19349e-05 0 -8.47196e-06 -1.46073e-05 0 -4.31228e-06 -1.58627e-05 0 -1.59975e-06 -1.29944e-05 0 -2.30011e-07 -1.10675e-05 0 5.22157e-07 -9.3661e-06 0 9.45348e-07 -8.00759e-06 0 1.15351e-06 -6.87013e-06 0 2.24699e-06 6.90689e-06 0 2.28131e-06 8.17421e-06 0 2.18445e-06 9.74892e-06 0 1.85512e-06 1.18442e-05 0 1.14911e-06 1.43895e-05 0 -8.1621e-08 1.86028e-05 0 -1.48072e-06 1.68096e-05 0 -2.58242e-06 1.31313e-05 0 -3.18823e-06 1.04776e-05 0 -3.513e-06 8.37255e-06 0 -3.66541e-06 6.62784e-06 0 -3.7307e-06 5.14481e-06 0 -3.74739e-06 3.83899e-06 0 -3.7437e-06 2.66084e-06 0 -3.73386e-06 1.56475e-06 0 -3.72706e-06 5.16558e-07 0 -3.72706e-06 -5.16558e-07 0 -3.73386e-06 -1.56475e-06 0 -3.7437e-06 -2.66084e-06 0 -3.74739e-06 -3.83899e-06 0 -3.7307e-06 -5.14481e-06 0 -3.66541e-06 -6.62784e-06 0 -3.513e-06 -8.37255e-06 0 -3.18823e-06 -1.04776e-05 0 -2.58242e-06 -1.31313e-05 0 -1.48072e-06 -1.68096e-05 0 -8.1621e-08 -1.86028e-05 0 1.14911e-06 -1.43895e-05 0 1.85512e-06 -1.18442e-05 0 2.18445e-06 -9.74892e-06 0 2.28131e-06 -8.17421e-06 0 2.24699e-06 -6.90689e-06 0 3.41349e-06 6.68981e-06 0 3.74992e-06 8.02511e-06 0 4.0582e-06 9.707e-06 0 4.31731e-06 1.19821e-05 0 4.49444e-06 1.48134e-05 0 4.56854e-06 1.92988e-05 0 4.54799e-06 1.74465e-05 0 4.62749e-06 1.34954e-05 0 4.7575e-06 1.06271e-05 0 4.92804e-06 8.39946e-06 0 5.10406e-06 6.59381e-06 0 5.27052e-06 5.08599e-06 0 5.41346e-06 3.77726e-06 0 5.52623e-06 2.60923e-06 0 5.6036e-06 1.53106e-06 0 5.64298e-06 5.04895e-07 0 5.64298e-06 -5.04895e-07 0 5.6036e-06 -1.53106e-06 0 5.52623e-06 -2.60923e-06 0 5.41346e-06 -3.77726e-06 0 5.27052e-06 -5.08599e-06 0 5.10406e-06 -6.59381e-06 0 4.92804e-06 -8.39946e-06 0 4.7575e-06 -1.06271e-05 0 4.62749e-06 -1.34954e-05 0 4.54799e-06 -1.74465e-05 0 4.56854e-06 -1.92988e-05 0 4.49444e-06 -1.48134e-05 0 4.31731e-06 -1.19821e-05 0 4.0582e-06 -9.707e-06 0 3.74992e-06 -8.02511e-06 0 3.41349e-06 -6.68981e-06 0 4.58958e-06 6.2227e-06 0 5.24243e-06 7.51393e-06 0 5.98359e-06 9.16309e-06 0 6.85862e-06 1.13827e-05 0 7.94577e-06 1.41455e-05 0 9.30179e-06 1.85345e-05 0 1.07707e-05 1.67439e-05 0 1.1986e-05 1.29145e-05 0 1.28999e-05 1.01535e-05 0 1.35859e-05 8.01009e-06 0 1.4113e-05 6.27479e-06 0 1.45207e-05 4.82897e-06 0 1.48316e-05 3.57914e-06 0 1.50576e-05 2.46818e-06 0 1.52055e-05 1.44663e-06 0 1.52786e-05 4.76745e-07 0 1.52786e-05 -4.76745e-07 0 1.52055e-05 -1.44663e-06 0 1.50576e-05 -2.46818e-06 0 1.48316e-05 -3.57914e-06 0 1.45207e-05 -4.82897e-06 0 1.4113e-05 -6.27479e-06 0 1.35859e-05 -8.01009e-06 0 1.28999e-05 -1.01535e-05 0 1.1986e-05 -1.29145e-05 0 1.07707e-05 -1.67439e-05 0 9.30179e-06 -1.85345e-05 0 7.94577e-06 -1.41455e-05 0 6.85862e-06 -1.13827e-05 0 5.98359e-06 -9.16309e-06 0 5.24243e-06 -7.51393e-06 0 4.58958e-06 -6.2227e-06 0 5.69943e-06 5.44415e-06 0 6.65221e-06 6.65234e-06 0 7.78047e-06 8.13001e-06 0 9.1901e-06 1.00841e-05 0 1.10927e-05 1.23708e-05 0 1.38865e-05 1.62566e-05 0 1.73317e-05 1.4647e-05 0 1.96883e-05 1.14083e-05 0 2.12905e-05 9.08017e-06 0 2.24236e-05 7.22012e-06 0 2.32632e-05 5.67698e-06 0 2.38917e-05 4.37748e-06 0 2.4359e-05 3.2457e-06 0 2.46921e-05 2.23843e-06 0 2.4907e-05 1.31153e-06 0 2.50125e-05 4.32232e-07 0 2.50125e-05 -4.32232e-07 0 2.4907e-05 -1.31153e-06 0 2.46921e-05 -2.23843e-06 0 2.4359e-05 -3.2457e-06 0 2.38917e-05 -4.37748e-06 0 2.32632e-05 -5.67698e-06 0 2.24236e-05 -7.22012e-06 0 2.12905e-05 -9.08017e-06 0 1.96883e-05 -1.14083e-05 0 1.73317e-05 -1.4647e-05 0 1.38865e-05 -1.62566e-05 0 1.10927e-05 -1.23708e-05 0 9.1901e-06 -1.00841e-05 0 7.78047e-06 -8.13001e-06 0 6.65221e-06 -6.65234e-06 0 5.69943e-06 -5.44415e-06 0 6.68802e-06 4.4802e-06 0 7.89453e-06 5.47462e-06 0 9.31298e-06 6.73381e-06 0 1.10566e-05 8.22e-06 0 1.34002e-05 9.88092e-06 0 1.69941e-05 1.1582e-05 0 2.1853e-05 1.09893e-05 0 2.47581e-05 9.21943e-06 0 2.67726e-05 7.56291e-06 0 2.81922e-05 6.10737e-06 0 2.92675e-05 4.84875e-06 0 3.00691e-05 3.755e-06 0 3.06677e-05 2.79243e-06 0 3.10922e-05 1.92755e-06 0 3.13659e-05 1.1303e-06 0 3.14998e-05 3.72418e-07 0 3.14998e-05 -3.72418e-07 0 3.13659e-05 -1.1303e-06 0 3.10922e-05 -1.92755e-06 0 3.06677e-05 -2.79243e-06 0 3.00691e-05 -3.755e-06 0 2.92675e-05 -4.84875e-06 0 2.81922e-05 -6.10737e-06 0 2.67726e-05 -7.56291e-06 0 2.47581e-05 -9.21943e-06 0 2.1853e-05 -1.09893e-05 0 1.69941e-05 -1.1582e-05 0 1.34002e-05 -9.88092e-06 0 1.10566e-05 -8.22e-06 0 9.31298e-06 -6.73381e-06 0 7.89453e-06 -5.47462e-06 0 6.68802e-06 -4.4802e-06 0 7.54131e-06 3.147e-06 0 8.94326e-06 4.08646e-06 0 1.05227e-05 5.09702e-06 0 1.23849e-05 6.17768e-06 0 1.46794e-05 7.19821e-06 0 1.7489e-05 7.84621e-06 0 2.04151e-05 7.6832e-06 0 2.30308e-05 6.86276e-06 0 2.50491e-05 5.82681e-06 0 2.6615e-05 4.79891e-06 0 2.78188e-05 3.85289e-06 0 2.8745e-05 3.00306e-06 0 2.94389e-05 2.24111e-06 0 2.99359e-05 1.54994e-06 0 3.02563e-05 9.09669e-07 0 3.04136e-05 2.99854e-07 0 3.04136e-05 -2.99854e-07 0 3.02563e-05 -9.09669e-07 0 2.99359e-05 -1.54994e-06 0 2.94389e-05 -2.24111e-06 0 2.8745e-05 -3.00306e-06 0 2.78188e-05 -3.85289e-06 0 2.6615e-05 -4.79891e-06 0 2.50491e-05 -5.82681e-06 0 2.30308e-05 -6.86276e-06 0 2.04151e-05 -7.6832e-06 0 1.7489e-05 -7.84621e-06 0 1.46794e-05 -7.19821e-06 0 1.23849e-05 -6.17768e-06 0 1.05227e-05 -5.09702e-06 0 8.94326e-06 -4.08646e-06 0 7.54131e-06 -3.147e-06 0 8.21821e-06 1.86921e-06 0 9.83804e-06 2.52776e-06 0 1.14644e-05 3.39232e-06 0 1.32701e-05 4.17535e-06 0 1.53584e-05 4.80354e-06 0 1.77153e-05 5.13724e-06 0 2.01848e-05 5.07999e-06 0 2.24286e-05 4.66661e-06 0 2.43549e-05 4.06088e-06 0 2.59346e-05 3.40006e-06 0 2.72048e-05 2.75757e-06 0 2.82018e-05 2.16193e-06 0 2.89611e-05 1.61867e-06 0 2.95086e-05 1.12133e-06 0 2.98635e-05 6.58656e-07 0 3.00379e-05 2.17172e-07 0 3.00379e-05 -2.17172e-07 0 2.98635e-05 -6.58656e-07 0 2.95086e-05 -1.12133e-06 0 2.89611e-05 -1.61867e-06 0 2.82018e-05 -2.16193e-06 0 2.72048e-05 -2.75757e-06 0 2.59346e-05 -3.40006e-06 0 2.43549e-05 -4.06088e-06 0 2.24286e-05 -4.66661e-06 0 2.01848e-05 -5.07999e-06 0 1.77153e-05 -5.13724e-06 0 1.53584e-05 -4.80354e-06 0 1.32701e-05 -4.17535e-06 0 1.14644e-05 -3.39232e-06 0 9.83804e-06 -2.52776e-06 0 8.21821e-06 -1.86921e-06 0 9.04959e-06 -2.21331e-07 0 1.07112e-05 9.57696e-07 0 1.22159e-05 1.76305e-06 0 1.38568e-05 2.32176e-06 0 1.57454e-05 2.68884e-06 0 1.78232e-05 2.87541e-06 0 1.99427e-05 2.85267e-06 0 2.19817e-05 2.65256e-06 0 2.3806e-05 2.33811e-06 0 2.53691e-05 1.97613e-06 0 2.66612e-05 1.61139e-06 0 2.76965e-05 1.26685e-06 0 2.8494e-05 9.49408e-07 0 2.90734e-05 6.57827e-07 0 2.94505e-05 3.86314e-07 0 2.96363e-05 1.27365e-07 0 2.96363e-05 -1.27365e-07 0 2.94505e-05 -3.86314e-07 0 2.90734e-05 -6.57827e-07 0 2.8494e-05 -9.49408e-07 0 2.76965e-05 -1.26685e-06 0 2.66612e-05 -1.61139e-06 0 2.53691e-05 -1.97613e-06 0 2.3806e-05 -2.33811e-06 0 2.19817e-05 -2.65256e-06 0 1.99427e-05 -2.85267e-06 0 1.78232e-05 -2.87541e-06 0 1.57454e-05 -2.68884e-06 0 1.38568e-05 -2.32176e-06 0 1.22159e-05 -1.76305e-06 0 1.07112e-05 -9.57696e-07 0 9.04959e-06 2.21331e-07 0 9.68751e-06 -2.5865e-06 0 1.19046e-05 -3.37416e-07 0 1.27567e-05 4.10783e-07 0 1.41733e-05 6.36743e-07 0 1.59259e-05 7.61729e-07 0 1.78806e-05 8.15194e-07 0 1.98903e-05 8.11749e-07 0 2.18308e-05 7.52963e-07 0 2.36029e-05 6.58924e-07 0 2.51512e-05 5.50578e-07 0 2.64509e-05 4.42817e-07 0 2.75033e-05 3.43101e-07 0 2.83193e-05 2.53748e-07 0 2.89146e-05 1.73898e-07 0 2.93028e-05 1.0135e-07 0 2.94943e-05 3.32784e-08 0 2.94943e-05 -3.32784e-08 0 2.93028e-05 -1.0135e-07 0 2.89146e-05 -1.73898e-07 0 2.83193e-05 -2.53748e-07 0 2.75033e-05 -3.43101e-07 0 2.64509e-05 -4.42817e-07 0 2.51512e-05 -5.50578e-07 0 2.36029e-05 -6.58924e-07 0 2.18308e-05 -7.52963e-07 0 1.98903e-05 -8.11749e-07 0 1.78806e-05 -8.15194e-07 0 1.59259e-05 -7.61729e-07 0 1.41733e-05 -6.36743e-07 0 1.27567e-05 -4.10783e-07 0 1.19046e-05 3.37416e-07 0 9.68751e-06 2.5865e-06 0 2.33485e-05 -3.82387e-06 0 1.2224e-05 1.0052e-06 0 1.30152e-05 -8.56726e-07 0 1.39821e-05 -9.10305e-07 0 1.60183e-05 -1.12207e-06 0 1.78196e-05 -1.17338e-06 0 1.99257e-05 -1.17071e-06 0 2.18178e-05 -1.11417e-06 0 2.3623e-05 -1.00516e-06 0 2.51623e-05 -8.78177e-07 0 2.64755e-05 -7.3385e-07 0 2.75276e-05 -5.92038e-07 0 2.83486e-05 -4.51304e-07 0 2.89443e-05 -3.1762e-07 0 2.93339e-05 -1.87982e-07 0 2.95255e-05 -6.24265e-08 0 2.95255e-05 6.24265e-08 0 2.93339e-05 1.87982e-07 0 2.89443e-05 3.1762e-07 0 2.83486e-05 4.51304e-07 0 2.75276e-05 5.92038e-07 0 2.64755e-05 7.3385e-07 0 2.51623e-05 8.78177e-07 0 2.3623e-05 1.00516e-06 0 2.18178e-05 1.11417e-06 0 1.99257e-05 1.17071e-06 0 1.78196e-05 1.17338e-06 0 1.60183e-05 1.12207e-06 0 1.39821e-05 9.10305e-07 0 1.30152e-05 8.56726e-07 0 1.2224e-05 -1.0052e-06 0 2.33485e-05 3.82387e-06 0 </DataArray> 
</PointData> 
<Points> 
<DataArray type="Float32" NumberOfComponents="3"> 