<?xml version="1.0"?> 
<VTKFile type="StructuredGrid" version="0.1"> 
<StructuredGrid WholeExtent="0 31 0 31 0 0"> 
<Piece Extent="0 31 0 31 0 0"> 
<PointData>
<DataArray type="Float32" Name="B" format="ascii" NumberOfComponents="3"> 
0 -0 0 -2.59074e-07 -0 0 -5.2002e-07 -0 0 -7.84719e-07 -0 0 -1.05507e-06 -0 0 -1.333e-06 -0 0 -1.62046e-06 -0 0 -1.91946e-06 -0 0 -2.23204e-06 -0 0 -2.56031e-06 -0 0 -2.9064e-06 -0 0 -3.27254e-06 -0 0 -3.66095e-06 -0 0 -4.07394e-06 -0 0 -4.51382e-06 -0 0 -4.98292e-06 -0 0 -5.48353e-06 -0 0 -6.01793e-06 -0 0 -6.58826e-06 -0 0 -7.19655e-06 -0 0 -7.84459e-06 -0 0 -8.53392e-06 -0 0 -9.26567e-06 -0 0 -1.00405e-05 -0 0 -1.08586e-05 -0 0 -1.17193e-05 -0 0 -1.26213e-05 -0 0 -1.35622e-05 -0 0 -1.45389e-05 -0 0 -1.55467e-05 -0 0 -1.65802e-05 -0 0 -1.76327e-05 -0 0 0 2.58451e-07 0 -2.58139e-07 2.59385e-07 0 -5.18145e-07 2.62193e-07 0 -7.81895e-07 2.66888e-07 0 -1.05128e-06 2.73492e-07 0 -1.32823e-06 2.82035e-07 0 -1.61469e-06 2.92557e-07 0 -1.91267e-06 3.05101e-07 0 -2.22421e-06 3.19716e-07 0 -2.5514e-06 3.36455e-07 0 -2.89639e-06 3.55371e-07 0 -3.2614e-06 3.76516e-07 0 -3.64867e-06 3.99933e-07 0 -4.0605e-06 4.25659e-07 0 -4.49921e-06 4.53713e-07 0 -4.96715e-06 4.84093e-07 0 -5.46664e-06 5.16765e-07 0 -5.99995e-06 5.51663e-07 0 -6.56927e-06 5.88667e-07 0 -7.17665e-06 6.27604e-07 0 -7.82393e-06 6.6823e-07 0 -8.51267e-06 7.10222e-07 0 -9.24407e-06 7.53162e-07 0 -1.00189e-05 7.96533e-07 0 -1.08372e-05 8.39708e-07 0 -1.16986e-05 8.81943e-07 0 -1.26017e-05 9.22379e-07 0 -1.35443e-05 9.60048e-07 0 -1.45231e-05 9.93884e-07 0 -1.55338e-05 1.02275e-06 0 -1.65707e-05 1.04544e-06 0 -1.76271e-05 1.06079e-06 0 0 5.15035e-07 0 -2.55338e-07 5.16899e-07 0 -5.1253e-07 5.22501e-07 0 -7.73438e-07 5.31867e-07 0 -1.03994e-06 5.45044e-07 0 -1.31396e-06 5.62094e-07 0 -1.59742e-06 5.83092e-07 0 -1.89233e-06 6.0813e-07 0 -2.20072e-06 6.37308e-07 0 -2.52469e-06 6.70732e-07 0 -2.86638e-06 7.08513e-07 0 -3.228e-06 7.50756e-07 0 -3.61183e-06 7.97556e-07 0 -4.02017e-06 8.48987e-07 0 -4.45538e-06 9.05096e-07 0 -4.91983e-06 9.65885e-07 0 -5.4159e-06 1.0313e-06 0 -5.94593e-06 1.10121e-06 0 -6.51218e-06 1.17539e-06 0 -7.1168e-06 1.25351e-06 0 -7.76173e-06 1.33508e-06 0 -8.44868e-06 1.41948e-06 0 -9.17898e-06 1.50587e-06 0 -9.95353e-06 1.59324e-06 0 -1.07727e-05 1.68034e-06 0 -1.16361e-05 1.76567e-06 0 -1.25425e-05 1.84751e-06 0 -1.349e-05 1.92392e-06 0 -1.44754e-05 1.99274e-06 0 -1.54944e-05 2.05165e-06 0 -1.65414e-05 2.09825e-06 0 -1.76098e-05 2.13011e-06 0 0 7.67893e-07 0 -2.50685e-07 7.70678e-07 0 -5.03201e-07 7.79046e-07 0 -7.59387e-07 7.9304e-07 0 -1.0211e-06 8.12728e-07 0 -1.29024e-06 8.38205e-07 0 -1.56872e-06 8.6959e-07 0 -1.85852e-06 9.07021e-07 0 -2.16168e-06 9.50653e-07 0 -2.48026e-06 1.00065e-06 0 -2.81643e-06 1.05719e-06 0 -3.17241e-06 1.12044e-06 0 -3.55048e-06 1.19054e-06 0 -3.95297e-06 1.26763e-06 0 -4.3823e-06 1.35179e-06 0 -4.84089e-06 1.44304e-06 0 -5.3312e-06 1.54132e-06 0 -5.85567e-06 1.64646e-06 0 -6.4167e-06 1.75815e-06 0 -7.01659e-06 1.87592e-06 0 -7.65747e-06 1.99908e-06 0 -8.34126e-06 2.1267e-06 0 -9.06955e-06 2.25758e-06 0 -9.8435e-06 2.39019e-06 0 -1.06637e-05 2.52269e-06 0 -1.15302e-05 2.65284e-06 0 -1.24421e-05 2.77804e-06 0 -1.33976e-05 2.89535e-06 0 -1.43938e-05 3.00147e-06 0 -1.54266e-05 3.09288e-06 0 -1.64907e-05 3.16583e-06 0 -1.75791e-05 3.2166e-06 0 0 1.01519e-06 0 -2.44204e-07 1.01888e-06 0 -4.90205e-07 1.02997e-06 0 -7.3981e-07 1.04852e-06 0 -9.94849e-07 1.07463e-06 0 -1.25718e-06 1.10841e-06 0 -1.52871e-06 1.15004e-06 0 -1.81138e-06 1.19971e-06 0 -2.1072e-06 1.25763e-06 0 -2.41826e-06 1.32403e-06 0 -2.7467e-06 1.39916e-06 0 -3.09475e-06 1.48325e-06 0 -3.4647e-06 1.57653e-06 0 -3.85896e-06 1.6792e-06 0 -4.27996e-06 1.79138e-06 0 -4.73023e-06 1.91315e-06 0 -5.21233e-06 2.04446e-06 0 -5.72884e-06 2.18513e-06 0 -6.28234e-06 2.33481e-06 0 -6.87535e-06 2.49291e-06 0 -7.51025e-06 2.65856e-06 0 -8.18928e-06 2.83061e-06 0 -8.91436e-06 3.00748e-06 0 -9.68706e-06 3.18721e-06 0 -1.05084e-05 3.36733e-06 0 -1.13789e-05 3.54489e-06 0 -1.22979e-05 3.71642e-06 0 -1.32643e-05 3.87791e-06 0 -1.42754e-05 4.02491e-06 0 -1.53275e-05 4.15254e-06 0 -1.64153e-05 4.25565e-06 0 -1.75319e-05 4.32904e-06 0 0 1.25511e-06 0 -2.35927e-07 1.25968e-06 0 -4.73607e-07 1.27344e-06 0 -7.14805e-07 1.29646e-06 0 -9.61309e-07 1.32885e-06 0 -1.21494e-06 1.37078e-06 0 -1.47756e-06 1.42247e-06 0 -1.75109e-06 1.48416e-06 0 -2.03751e-06 1.55613e-06 0 -2.33889e-06 1.63869e-06 0 -2.65737e-06 1.73216e-06 0 -2.99518e-06 1.83688e-06 0 -3.35465e-06 1.95314e-06 0 -3.7382e-06 2.08122e-06 0 -4.14836e-06 2.22136e-06 0 -4.58774e-06 2.37369e-06 0 -5.05904e-06 2.53821e-06 0 -5.56501e-06 2.71477e-06 0 -6.10846e-06 2.903e-06 0 -6.69217e-06 3.10227e-06 0 -7.31887e-06 3.3116e-06 0 -7.99118e-06 3.52961e-06 0 -8.71148e-06 3.75446e-06 0 -9.48186e-06 3.98373e-06 0 -1.03039e-05 4.21444e-06 0 -1.11787e-05 4.4429e-06 0 -1.21063e-05 4.66475e-06 0 -1.3086e-05 4.87491e-06 0 -1.41159e-05 5.06766e-06 0 -1.51924e-05 5.23669e-06 0 -1.63107e-05 5.37525e-06 0 -1.7464e-05 5.47648e-06 0 0 1.48587e-06 0 -2.25899e-07 1.49132e-06 0 -4.53496e-07 1.50767e-06 0 -6.84501e-07 1.53502e-06 0 -9.2065e-07 1.57353e-06 0 -1.16371e-06 1.6234e-06 0 -1.41551e-06 1.68489e-06 0 -1.67791e-06 1.75832e-06 0 -1.95288e-06 1.84404e-06 0 -2.24244e-06 1.94244e-06 0 -2.54873e-06 2.05393e-06 0 -2.87397e-06 2.17894e-06 0 -3.22053e-06 2.3179e-06 0 -3.59085e-06 2.47119e-06 0 -3.98755e-06 2.63914e-06 0 -4.41334e-06 2.822e-06 0 -4.87108e-06 3.01987e-06 0 -5.36371e-06 3.23268e-06 0 -5.89431e-06 3.46011e-06 0 -6.46597e-06 3.70151e-06 0 -7.08185e-06 3.95588e-06 0 -7.74502e-06 4.2217e-06 0 -8.45845e-06 4.49689e-06 0 -9.22486e-06 4.77872e-06 0 -1.00466e-05 5.06368e-06 0 -1.09254e-05 5.3474e-06 0 -1.18623e-05 5.62465e-06 0 -1.28574e-05 5.88924e-06 0 -1.39093e-05 6.13407e-06 0 -1.50154e-05 6.35127e-06 0 -1.61709e-05 6.53227e-06 0 -1.73694e-05 6.66828e-06 0 0 1.70577e-06 0 -2.14174e-07 1.71205e-06 0 -4.2998e-07 1.7309e-06 0 -6.4906e-07 1.76244e-06 0 -8.73086e-07 1.80686e-06 0 -1.10377e-06 1.86441e-06 0 -1.34286e-06 1.93539e-06 0 -1.59219e-06 2.0202e-06 0 -1.85367e-06 2.11927e-06 0 -2.12928e-06 2.23309e-06 0 -2.42115e-06 2.36217e-06 0 -2.73148e-06 2.50707e-06 0 -3.06265e-06 2.66833e-06 0 -3.41716e-06 2.84648e-06 0 -3.79767e-06 3.04199e-06 0 -4.20703e-06 3.25527e-06 0 -4.64823e-06 3.48656e-06 0 -5.12447e-06 3.73593e-06 0 -5.63908e-06 4.00316e-06 0 -6.19556e-06 4.28772e-06 0 -6.7975e-06 4.58861e-06 0 -7.44856e-06 4.90429e-06 0 -8.15238e-06 5.23257e-06 0 -8.91246e-06 5.57045e-06 0 -9.73204e-06 5.91399e-06 0 -1.06139e-05 6.25824e-06 0 -1.156e-05 6.59707e-06 0 -1.25716e-05 6.92317e-06 0 -1.36484e-05 7.22802e-06 0 -1.47884e-05 7.50196e-06 0 -1.59878e-05 7.73437e-06 0 -1.72403e-05 7.91418e-06 0 0 1.91314e-06 0 -2.0082e-07 1.92021e-06 0 -4.03192e-07 1.94145e-06 0 -6.08681e-07 1.97701e-06 0 -8.18877e-07 2.02708e-06 0 -1.03542e-06 2.09198e-06 0 -1.25998e-06 2.17208e-06 0 -1.49434e-06 2.26783e-06 0 -1.74033e-06 2.37976e-06 0 -1.9999e-06 2.50847e-06 0 -2.27512e-06 2.6546e-06 0 -2.56818e-06 2.81882e-06 0 -2.88146e-06 3.00185e-06 0 -3.21748e-06 3.20438e-06 0 -3.57898e-06 3.42707e-06 0 -3.96889e-06 3.6705e-06 0 -4.39039e-06 3.93514e-06 0 -4.84688e-06 4.22124e-06 0 -5.34202e-06 4.52882e-06 0 -5.87969e-06 4.85749e-06 0 -6.46403e-06 5.20642e-06 0 -7.09933e-06 5.57416e-06 0 -7.79e-06 5.95851e-06 0 -8.54049e-06 6.35633e-06 0 -9.35511e-06 6.76341e-06 0 -1.02379e-05 7.17428e-06 0 -1.11921e-05 7.58202e-06 0 -1.22204e-05 7.97818e-06 0 -1.33238e-05 8.35273e-06 0 -1.45017e-05 8.69406e-06 0 -1.57512e-05 8.98918e-06 0 -1.70666e-05 9.22428e-06 0 0 2.10638e-06 0 -1.85917e-07 2.1142e-06 0 -3.73293e-07 2.13771e-06 0 -5.63599e-07 2.17706e-06 0 -7.58337e-07 2.23249e-06 0 -9.59048e-07 2.30437e-06 0 -1.16734e-06 2.39312e-06 0 -1.38487e-06 2.49929e-06 0 -1.61343e-06 2.62349e-06 0 -1.85489e-06 2.76645e-06 0 -2.11126e-06 2.92893e-06 0 -2.3847e-06 3.11178e-06 0 -2.67755e-06 3.31587e-06 0 -2.99236e-06 3.5421e-06 0 -3.3319e-06 3.79137e-06 0 -3.69921e-06 4.06449e-06 0 -4.09759e-06 4.3622e-06 0 -4.53068e-06 4.68503e-06 0 -5.00244e-06 5.0333e-06 0 -5.5172e-06 5.40691e-06 0 -6.07962e-06 5.80531e-06 0 -6.69472e-06 6.22728e-06 0 -7.36778e-06 6.67078e-06 0 -8.10433e-06 7.13273e-06 0 -8.90997e-06 7.60881e-06 0 -9.79016e-06 8.09319e-06 0 -1.075e-05 8.57827e-06 0 -1.17937e-05 9.05456e-06 0 -1.29243e-05 9.51043e-06 0 -1.4143e-05 9.93218e-06 0 -1.54482e-05 1.03041e-05 0 -1.68354e-05 1.06091e-05 0 0 2.284e-06 0 -1.69559e-07 2.29253e-06 0 -3.40468e-07 2.31815e-06 0 -5.14095e-07 2.36104e-06 0 -6.91831e-07 2.42149e-06 0 -8.75117e-07 2.49989e-06 0 -1.06545e-06 2.59676e-06 0 -1.26441e-06 2.71272e-06 0 -1.47366e-06 2.84849e-06 0 -1.695e-06 3.00491e-06 0 -1.93036e-06 3.18291e-06 0 -2.18184e-06 3.38349e-06 0 -2.45173e-06 3.60774e-06 0 -2.74256e-06 3.8568e-06 0 -3.05712e-06 4.13179e-06 0 -3.3985e-06 4.43387e-06 0 -3.77013e-06 4.76408e-06 0 -4.17586e-06 5.12334e-06 0 -4.61994e-06 5.51234e-06 0 -5.10711e-06 5.93144e-06 0 -5.6426e-06 6.38048e-06 0 -6.23217e-06 6.85869e-06 0 -6.88209e-06 7.36438e-06 0 -7.59908e-06 7.89476e-06 0 -8.3902e-06 8.44564e-06 0 -9.26271e-06 9.01106e-06 0 -1.02237e-05 9.58299e-06 0 -1.12798e-05 1.0151e-05 0 -1.24364e-05 1.07019e-05 0 -1.3697e-05 1.12199e-05 0 -1.50626e-05 1.16859e-05 0 -1.65302e-05 1.20792e-05 0 0 2.4446e-06 0 -1.51851e-07 2.45377e-06 0 -3.04932e-07 2.48133e-06 0 -4.60487e-07 2.52748e-06 0 -6.19787e-07 2.59254e-06 0 -7.84152e-07 2.67696e-06 0 -9.54958e-07 2.78133e-06 0 -1.13366e-06 2.90635e-06 0 -1.32182e-06 3.05285e-06 0 -1.52112e-06 3.22181e-06 0 -1.73338e-06 3.41431e-06 0 -1.96061e-06 3.63155e-06 0 -2.20502e-06 3.87483e-06 0 -2.46908e-06 4.14554e-06 0 -2.75557e-06 4.44513e-06 0 -3.06759e-06 4.77509e-06 0 -3.40866e-06 5.13687e-06 0 -3.78277e-06 5.53185e-06 0 -4.19444e-06 5.96122e-06 0 -4.64877e-06 6.4259e-06 0 -5.15158e-06 6.92636e-06 0 -5.70936e-06 7.46242e-06 0 -6.32939e-06 8.03305e-06 0 -7.01971e-06 8.63602e-06 0 -7.78904e-06 9.26758e-06 0 -8.64667e-06 9.92202e-06 0 -9.60219e-06 1.05912e-05 0 -1.0665e-05 1.1264e-05 0 -1.18438e-05 1.1926e-05 0 -1.31455e-05 1.2559e-05 0 -1.45743e-05 1.31406e-05 0 -1.61298e-05 1.36453e-05 0 0 2.58689e-06 0 -1.32917e-07 2.59664e-06 0 -2.66927e-07 2.62595e-06 0 -4.0314e-07 2.67503e-06 0 -5.4269e-07 2.74426e-06 0 -6.86758e-07 2.83412e-06 0 -8.36583e-07 2.94527e-06 0 -9.93484e-07 3.07851e-06 0 -1.15888e-06 3.23478e-06 0 -1.33431e-06 3.41519e-06 0 -1.52147e-06 3.62099e-06 0 -1.72223e-06 3.85357e-06 0 -1.9387e-06 4.11448e-06 0 -2.17325e-06 4.4054e-06 0 -2.42856e-06 4.7281e-06 0 -2.70772e-06 5.08447e-06 0 -3.01425e-06 5.47643e-06 0 -3.35223e-06 5.90591e-06 0 -3.72637e-06 6.37472e-06 0 -4.1421e-06 6.88449e-06 0 -4.60571e-06 7.43648e-06 0 -5.12442e-06 8.03139e-06 0 -5.70653e-06 8.66912e-06 0 -6.36142e-06 9.34836e-06 0 -7.09962e-06 1.00662e-05 0 -7.93274e-06 1.08178e-05 0 -8.87323e-06 1.15952e-05 0 -9.93404e-06 1.23872e-05 0 -1.11279e-05 1.31785e-05 0 -1.24663e-05 1.39487e-05 0 -1.39581e-05 1.46719e-05 0 -1.56074e-05 1.53173e-05 0 0 2.70971e-06 0 -1.1289e-07 2.71996e-06 0 -2.26725e-07 2.75081e-06 0 -3.42462e-07 2.80247e-06 0 -4.61085e-07 2.87536e-06 0 -5.8362e-07 2.97001e-06 0 -7.11149e-07 3.08715e-06 0 -8.44831e-07 3.22766e-06 0 -9.85922e-07 3.3926e-06 0 -1.1358e-06 3.58321e-06 0 -1.29598e-06 3.80091e-06 0 -1.46819e-06 4.0473e-06 0 -1.65436e-06 4.32416e-06 0 -1.8567e-06 4.63348e-06 0 -2.07778e-06 4.97741e-06 0 -2.32055e-06 5.35826e-06 0 -2.58849e-06 5.77847e-06 0 -2.88566e-06 6.2406e-06 0 -3.21685e-06 6.7472e-06 0 -3.58771e-06 7.30076e-06 0 -4.0049e-06 7.90353e-06 0 -4.47629e-06 8.55736e-06 0 -5.01108e-06 9.2634e-06 0 -5.62e-06 1.00217e-05 0 -6.31545e-06 1.08308e-05 0 -7.11151e-06 1.16871e-05 0 -8.02393e-06 1.25838e-05 0 -9.06981e-06 1.35104e-05 0 -1.0267e-05 1.44512e-05 0 -1.1633e-05 1.53845e-05 0 -1.31833e-05 1.62807e-05 0 -1.49288e-05 1.71033e-05 0 0 2.81205e-06 0 -9.19221e-08 2.82273e-06 0 -1.84626e-07 2.85487e-06 0 -2.78905e-07 2.90873e-06 0 -3.75578e-07 2.98471e-06 0 -4.755e-07 3.08344e-06 0 -5.79578e-07 3.20568e-06 0 -6.88791e-07 3.35241e-06 0 -8.04207e-07 3.52478e-06 0 -9.27007e-07 3.72418e-06 0 -1.05852e-06 3.95217e-06 0 -1.20024e-06 4.21057e-06 0 -1.3539e-06 4.50142e-06 0 -1.5215e-06 4.82699e-06 0 -1.70539e-06 5.18982e-06 0 -1.90833e-06 5.59269e-06 0 -2.13363e-06 6.03861e-06 0 -2.38521e-06 6.53081e-06 0 -2.66783e-06 7.07269e-06 0 -2.98718e-06 7.66774e-06 0 -3.35014e-06 8.31941e-06 0 -3.76502e-06 9.03096e-06 0 -4.24178e-06 9.80515e-06 0 -4.79236e-06 1.06439e-05 0 -5.43094e-06 1.15478e-05 0 -6.17416e-06 1.25152e-05 0 -7.0413e-06 1.35417e-05 0 -8.05422e-06 1.46182e-05 0 -9.23693e-06 1.57303e-05 0 -1.06147e-05 1.68557e-05 0 -1.2212e-05 1.79624e-05 0 -1.405e-05 1.90078e-05 0 0 2.89304e-06 0 -7.0174e-08 2.90407e-06 0 -1.40955e-07 2.93726e-06 0 -2.12962e-07 2.99287e-06 0 -2.86831e-07 3.07136e-06 0 -3.63234e-07 3.17338e-06 0 -4.42888e-07 3.29976e-06 0 -5.26568e-07 3.45154e-06 0 -6.15132e-07 3.62999e-06 0 -7.09538e-07 3.83658e-06 0 -8.10874e-07 4.07307e-06 0 -9.20393e-07 4.34144e-06 0 -1.03955e-06 4.64398e-06 0 -1.17008e-06 4.98328e-06 0 -1.31403e-06 5.36224e-06 0 -1.47386e-06 5.78411e-06 0 -1.6526e-06 6.25249e-06 0 -1.8539e-06 6.77136e-06 0 -2.08227e-06 7.34501e-06 0 -2.34327e-06 7.97806e-06 0 -2.64375e-06 8.67534e-06 0 -2.99219e-06 9.44177e-06 0 -3.39904e-06 1.02821e-05 0 -3.87715e-06 1.12007e-05 0 -4.44223e-06 1.22007e-05 0 -5.11333e-06 1.32837e-05 0 -5.91329e-06 1.44485e-05 0 -6.86907e-06 1.56894e-05 0 -8.01176e-06 1.69946e-05 0 -9.37608e-06 1.83437e-05 0 -1.09988e-05 1.9704e-05 0 -1.29155e-05 2.1028e-05 0 0 2.95199e-06 0 -4.78202e-08 2.96328e-06 0 -9.60634e-08 2.99724e-06 0 -1.4516e-07 3.05417e-06 0 -1.95558e-07 3.13453e-06 0 -2.47729e-07 3.239e-06 0 -3.02183e-07 3.36847e-06 0 -3.59478e-07 3.52405e-06 0 -4.20237e-07 3.70708e-06 0 -4.85167e-07 3.91915e-06 0 -5.55085e-07 4.16213e-06 0 -6.30949e-07 4.4382e-06 0 -7.13899e-07 4.74985e-06 0 -8.0531e-07 5.09997e-06 0 -9.06859e-07 5.4918e-06 0 -1.02061e-06 5.92907e-06 0 -1.14915e-06 6.41595e-06 0 -1.2957e-06 6.95717e-06 0 -1.46431e-06 7.55798e-06 0 -1.66015e-06 8.22417e-06 0 -1.88973e-06 8.96211e-06 0 -2.16135e-06 9.77858e-06 0 -2.48552e-06 1.06807e-05 0 -2.87553e-06 1.16756e-05 0 -3.34814e-06 1.27701e-05 0 -3.92434e-06 1.39698e-05 0 -4.63018e-06 1.52781e-05 0 -5.49764e-06 1.66947e-05 0 -6.56536e-06 1.82132e-05 0 -7.87897e-06 1.9818e-05 0 -9.49047e-06 2.14793e-05 0 -1.14558e-05 2.31487e-05 0 0 2.9884e-06 0 -2.50449e-08 2.99985e-06 0 -5.03203e-08 3.0343e-06 0 -7.60622e-08 3.09206e-06 0 -1.02517e-07 3.17361e-06 0 -1.2995e-07 3.27965e-06 0 -1.58649e-07 3.41112e-06 0 -1.88938e-07 3.56915e-06 0 -2.21188e-07 3.75517e-06 0 -2.55831e-07 3.97084e-06 0 -2.9338e-07 4.21816e-06 0 -3.34459e-07 4.49943e-06 0 -3.79836e-07 4.81734e-06 0 -4.30468e-07 5.175e-06 0 -4.8757e-07 5.57601e-06 0 -5.52692e-07 6.02449e-06 0 -6.27835e-07 6.52518e-06 0 -7.15596e-07 7.0835e-06 0 -8.19364e-07 7.70564e-06 0 -9.43578e-07 8.39863e-06 0 -1.09406e-06 9.17038e-06 0 -1.27844e-06 1.00297e-05 0 -1.50673e-06 1.09864e-05 0 -1.79202e-06 1.20509e-05 0 -2.15132e-06 1.3234e-05 0 -2.60672e-06 1.45466e-05 0 -3.18658e-06 1.59984e-05 0 -3.92716e-06 1.75966e-05 0 -4.87421e-06 1.93433e-05 0 -6.08473e-06 2.12324e-05 0 -7.62818e-06 2.3243e-05 0 -9.58632e-06 2.53327e-05 0 0 3.00193e-06 0 -2.03987e-09 3.01344e-06 0 -4.11272e-09 3.0481e-06 0 -6.25381e-09 3.10619e-06 0 -8.5033e-09 3.18823e-06 0 -1.09093e-08 3.29493e-06 0 -1.35319e-08 3.42723e-06 0 -1.64484e-08 3.58632e-06 0 -1.9761e-08 3.77365e-06 0 -2.36062e-08 3.99096e-06 0 -2.81693e-08 4.2403e-06 0 -3.37038e-08 4.52408e-06 0 -4.0558e-08 4.84515e-06 0 -4.92132e-08 5.20679e-06 0 -6.03354e-08 5.61286e-06 0 -7.48481e-08 6.06782e-06 0 -9.40322e-08 6.5769e-06 0 -1.19663e-07 7.14614e-06 0 -1.54201e-07 7.78261e-06 0 -2.01043e-07 8.49447e-06 0 -2.64874e-07 9.29121e-06 0 -3.52131e-07 1.01837e-05 0 -4.7162e-07 1.11844e-05 0 -6.35327e-07 1.23075e-05 0 -8.59486e-07 1.35683e-05 0 -1.16594e-06 1.49839e-05 0 -1.58388e-06 1.65716e-05 0 -2.1521e-06 1.83485e-05 0 -2.92173e-06 2.03289e-05 0 -3.95971e-06 2.25215e-05 0 -5.35281e-06 2.49228e-05 0 -7.21189e-06 2.75083e-05 0 0 2.99245e-06 0 2.09978e-08 3.00394e-06 0 4.21624e-08 3.03849e-06 0 6.36617e-08 3.09642e-06 0 8.56652e-08 3.17823e-06 0 1.08345e-07 3.28463e-06 0 1.31875e-07 3.41659e-06 0 1.56432e-07 3.5753e-06 0 1.82191e-07 3.76222e-06 0 2.09325e-07 3.97911e-06 0 2.37997e-07 4.22806e-06 0 2.6835e-07 4.51154e-06 0 3.0049e-07 4.83247e-06 0 3.34466e-07 5.19426e-06 0 3.70231e-07 5.60093e-06 0 4.07585e-07 6.05719e-06 0 4.46104e-07 6.56861e-06 0 4.85019e-07 7.14176e-06 0 5.23054e-07 7.78439e-06 0 5.58191e-07 8.50569e-06 0 5.87341e-07 9.31652e-06 0 6.05879e-07 1.02297e-05 0 6.07006e-07 1.12605e-05 0 5.80878e-07 1.24264e-05 0 5.13417e-07 1.3748e-05 0 3.84737e-07 1.52489e-05 0 1.67022e-07 1.69553e-05 0 -1.7828e-07 1.88959e-05 0 -7.04244e-07 2.11006e-05 0 -1.48364e-06 2.35985e-05 0 -2.61612e-06 2.64129e-05 0 -4.23814e-06 2.95536e-05 0 0 2.96004e-06 0 4.38687e-08 2.97139e-06 0 8.81031e-08 3.00555e-06 0 1.33073e-07 3.0628e-06 0 1.79158e-07 3.14366e-06 0 2.26749e-07 3.24883e-06 0 2.76256e-07 3.37926e-06 0 3.28109e-07 3.53612e-06 0 3.82767e-07 3.72087e-06 0 4.40716e-07 3.93526e-06 0 5.02478e-07 4.18136e-06 0 5.68606e-07 4.46164e-06 0 6.39687e-07 4.77903e-06 0 7.16334e-07 5.13697e-06 0 7.99169e-07 5.53954e-06 0 8.88798e-07 5.99157e-06 0 9.85762e-07 6.49881e-06 0 1.09046e-06 7.06813e-06 0 1.20303e-06 7.70779e-06 0 1.32316e-06 8.4277e-06 0 1.44981e-06 9.23984e-06 0 1.5808e-06 1.01587e-05 0 1.71219e-06 1.12017e-05 0 1.83745e-06 1.23901e-05 0 1.94623e-06 1.3749e-05 0 2.02266e-06 1.53088e-05 0 2.04311e-06 1.71049e-05 0 1.97294e-06 1.91789e-05 0 1.76223e-06 2.15784e-05 0 1.33938e-06 2.43568e-05 0 6.01835e-07 2.75725e-05 0 -5.99083e-07 3.12842e-05 0 0 2.90496e-06 0 6.63746e-08 2.91608e-06 0 1.3331e-07 2.94953e-06 0 2.01373e-07 3.00562e-06 0 2.71148e-07 3.08481e-06 0 3.43242e-07 3.18781e-06 0 4.18294e-07 3.31553e-06 0 4.96988e-07 3.4691e-06 0 5.80057e-07 3.64995e-06 0 6.68301e-07 3.85975e-06 0 7.62597e-07 4.10055e-06 0 8.63913e-07 4.37473e-06 0 9.73321e-07 4.68515e-06 0 1.09201e-06 5.03519e-06 0 1.2213e-06 5.42884e-06 0 1.36265e-06 5.87092e-06 0 1.51764e-06 6.36714e-06 0 1.68796e-06 6.92446e-06 0 1.87533e-06 7.55128e-06 0 2.08142e-06 8.2579e-06 0 2.30766e-06 9.05695e-06 0 2.55488e-06 9.96403e-06 0 2.82287e-06 1.09984e-05 0 3.1096e-06 1.21839e-05 0 3.41009e-06 1.35501e-05 0 3.71477e-06 1.51332e-05 0 4.00727e-06 1.69777e-05 0 4.26117e-06 1.91376e-05 0 4.43574e-06 2.16781e-05 0 4.4697e-06 2.46783e-05 0 4.27173e-06 2.82339e-05 0 3.70497e-06 3.24621e-05 0 0 2.82766e-06 0 8.83215e-08 2.83846e-06 0 1.7739e-07 2.87093e-06 0 2.67965e-07 2.92536e-06 0 3.60824e-07 3.0022e-06 0 4.56783e-07 3.10212e-06 0 5.56701e-07 3.22598e-06 0 6.61502e-07 3.37487e-06 0 7.72185e-07 3.55011e-06 0 8.8985e-07 3.75332e-06 0 1.01572e-06 3.98642e-06 0 1.15115e-06 4.25167e-06 0 1.29769e-06 4.55176e-06 0 1.45711e-06 4.88991e-06 0 1.63141e-06 5.2699e-06 0 1.82289e-06 5.69631e-06 0 2.03421e-06 6.17464e-06 0 2.26839e-06 6.71159e-06 0 2.52886e-06 7.31537e-06 0 2.81946e-06 7.99616e-06 0 3.14434e-06 8.76666e-06 0 3.50789e-06 9.64283e-06 0 3.91434e-06 1.06448e-05 0 4.36725e-06 1.17983e-05 0 4.86862e-06 1.31356e-05 0 5.41744e-06 1.46979e-05 0 6.00766e-06 1.6537e-05 0 6.62536e-06 1.87177e-05 0 7.24502e-06 2.1321e-05 0 7.82454e-06 2.44478e-05 0 8.2988e-06 2.82273e-05 0 8.5688e-06 3.28226e-05 0 0 2.72881e-06 0 1.09523e-07 2.73918e-06 0 2.1997e-07 2.7704e-06 0 3.32277e-07 2.82271e-06 0 4.47409e-07 2.89655e-06 0 5.66374e-07 2.99253e-06 0 6.90239e-07 3.11144e-06 0 8.20149e-07 3.25431e-06 0 9.57352e-07 3.42236e-06 0 1.10322e-06 3.61708e-06 0 1.2593e-06 3.84021e-06 0 1.42731e-06 4.09384e-06 0 1.60924e-06 4.38043e-06 0 1.80738e-06 4.7029e-06 0 2.02438e-06 5.0647e-06 0 2.26336e-06 5.46998e-06 0 2.52799e-06 5.92377e-06 0 2.8226e-06 6.4322e-06 0 3.15234e-06 7.00287e-06 0 3.52323e-06 7.64526e-06 0 3.94236e-06 8.3714e-06 0 4.41791e-06 9.19669e-06 0 4.95909e-06 1.0141e-05 0 5.57597e-06 1.12302e-05 0 6.27889e-06 1.24979e-05 0 7.07741e-06 1.3988e-05 0 7.97865e-06 1.57573e-05 0 8.98492e-06 1.78785e-05 0 1.00906e-05 2.04443e-05 0 1.12793e-05 2.35716e-05 0 1.25217e-05 2.74092e-05 0 1.37747e-05 3.21552e-05 0 0 2.60923e-06 0 1.29803e-07 2.6191e-06 0 2.60693e-07 2.64881e-06 0 3.93771e-07 2.69857e-06 0 5.30172e-07 2.76879e-06 0 6.7108e-07 2.86002e-06 0 8.17749e-07 2.973e-06 0 9.71526e-07 3.10862e-06 0 1.13388e-06 3.268e-06 0 1.30642e-06 3.45246e-06 0 1.49098e-06 3.66356e-06 0 1.6896e-06 3.90313e-06 0 1.90464e-06 4.17333e-06 0 2.13886e-06 4.47667e-06 0 2.39546e-06 4.81615e-06 0 2.67829e-06 5.19533e-06 0 2.99191e-06 5.61851e-06 0 3.34185e-06 6.09091e-06 0 3.73482e-06 6.61906e-06 0 4.17895e-06 7.21115e-06 0 4.68416e-06 7.87773e-06 0 5.26243e-06 8.6325e-06 0 5.92821e-06 9.49359e-06 0 6.69856e-06 1.04852e-05 0 7.59316e-06 1.164e-05 0 8.63385e-06 1.30016e-05 0 9.84337e-06 1.46288e-05 0 1.12432e-05 1.65987e-05 0 1.28509e-05 1.90113e-05 0 1.4678e-05 2.19918e-05 0 1.67318e-05 2.56981e-05 0 1.90254e-05 3.0313e-05 0 0 2.46992e-06 0 1.49e-07 2.47922e-06 0 2.99233e-07 2.50717e-06 0 4.5195e-07 2.554e-06 0 6.08439e-07 2.62005e-06 0 7.70039e-07 2.70581e-06 0 9.3817e-07 2.81193e-06 0 1.11435e-06 2.93921e-06 0 1.30024e-06 3.0886e-06 0 1.49766e-06 3.26125e-06 0 1.70865e-06 3.45849e-06 0 1.93553e-06 3.68186e-06 0 2.18096e-06 3.93314e-06 0 2.44805e-06 4.2144e-06 0 2.74045e-06 4.52803e-06 0 3.06257e-06 4.87685e-06 0 3.4197e-06 5.26421e-06 0 3.81833e-06 5.69416e-06 0 4.26644e-06 6.17168e-06 0 4.77396e-06 6.7031e-06 0 5.35328e-06 7.29659e-06 0 6.01991e-06 7.96299e-06 0 6.79322e-06 8.71701e-06 0 7.69727e-06 9.57902e-06 0 8.76154e-06 1.05775e-05 0 1.00213e-05 1.17527e-05 0 1.15171e-05 1.31611e-05 0 1.32926e-05 1.48806e-05 0 1.5391e-05 1.70147e-05 0 1.78506e-05 1.9695e-05 0 2.07061e-05 2.30728e-05 0 2.40057e-05 2.73377e-05 0 0 2.31205e-06 0 1.66965e-07 2.32069e-06 0 3.35294e-07 2.3467e-06 0 5.06368e-07 2.39024e-06 0 6.81607e-07 2.45162e-06 0 8.62486e-07 2.53127e-06 0 1.05056e-06 2.62974e-06 0 1.2475e-06 2.7477e-06 0 1.45511e-06 2.88597e-06 0 1.67537e-06 3.04549e-06 0 1.91049e-06 3.22734e-06 0 2.16298e-06 3.43273e-06 0 2.43571e-06 3.66304e-06 0 2.73203e-06 3.91983e-06 0 3.05589e-06 4.20481e-06 0 3.41204e-06 4.51995e-06 0 3.80625e-06 4.86749e-06 0 4.24563e-06 5.25004e-06 0 4.73905e-06 5.67072e-06 0 5.29768e-06 6.13342e-06 0 5.93575e-06 6.64317e-06 0 6.67149e-06 7.20677e-06 0 7.5284e-06 7.83379e-06 0 8.53675e-06 8.53823e-06 0 9.73537e-06 9.34107e-06 0 1.11733e-05 1.02743e-05 0 1.2911e-05 1.13868e-05 0 1.50182e-05 1.27521e-05 0 1.75689e-05 1.44766e-05 0 2.06287e-05 1.6699e-05 0 2.4245e-05 1.95864e-05 0 2.84577e-05 2.32452e-05 0 0 2.13689e-06 0 1.83571e-07 2.14483e-06 0 3.68617e-07 2.1687e-06 0 5.56632e-07 2.20865e-06 0 7.49148e-07 2.26494e-06 0 9.47752e-07 2.33792e-06 0 1.15412e-06 2.42806e-06 0 1.37001e-06 2.53592e-06 0 1.59736e-06 2.66213e-06 0 1.83826e-06 2.80743e-06 0 2.09503e-06 2.97266e-06 0 2.37027e-06 3.1587e-06 0 2.66698e-06 3.36651e-06 0 2.9886e-06 3.59709e-06 0 3.3392e-06 3.85148e-06 0 3.72367e-06 4.13072e-06 0 4.14792e-06 4.43585e-06 0 4.61929e-06 4.76791e-06 0 5.14695e-06 5.12793e-06 0 5.74262e-06 5.51698e-06 0 6.4214e-06 5.93636e-06 0 7.20302e-06 6.38782e-06 0 8.11356e-06 6.87427e-06 0 9.18768e-06 7.4008e-06 0 1.04717e-05 7.97696e-06 0 1.20275e-05 8.62062e-06 0 1.3936e-05 9.36508e-06 0 1.62992e-05 1.02711e-05 0 1.92342e-05 1.14426e-05 0 2.28481e-05 1.30447e-05 0 2.71934e-05 1.52696e-05 0 3.22482e-05 1.83519e-05 0 0 1.94588e-06 0 1.98703e-07 1.95306e-06 0 3.98976e-07 1.97464e-06 0 6.02405e-07 2.01074e-06 0 8.10613e-07 2.06158e-06 0 1.02528e-06 2.12744e-06 0 1.24816e-06 2.2087e-06 0 1.4811e-06 2.30578e-06 0 1.72611e-06 2.41919e-06 0 1.98533e-06 2.54947e-06 0 2.26114e-06 2.69718e-06 0 2.55618e-06 2.86291e-06 0 2.87343e-06 3.0472e-06 0 3.21631e-06 3.25054e-06 0 3.58883e-06 3.47329e-06 0 3.99574e-06 3.71558e-06 0 4.44279e-06 3.97728e-06 0 4.93705e-06 4.25784e-06 0 5.4874e-06 4.55612e-06 0 6.1052e-06 4.8703e-06 0 6.80523e-06 5.19761e-06 0 7.60706e-06 5.53426e-06 0 8.53703e-06 5.87534e-06 0 9.63123e-06 6.21507e-06 0 1.09396e-05 6.54777e-06 0 1.25326e-05 6.87045e-06 0 1.45091e-05 7.18931e-06 0 1.70081e-05 7.53384e-06 0 2.0211e-05 7.99001e-06 0 2.43193e-05 8.74597e-06 0 2.94348e-05 1.01609e-05 0 3.53621e-05 1.24155e-05 0 0 1.74053e-06 0 2.12269e-07 1.74691e-06 0 4.26185e-07 1.76606e-06 0 6.43408e-07 1.79811e-06 0 8.65634e-07 1.84321e-06 0 1.09461e-06 1.90158e-06 0 1.33215e-06 1.97352e-06 0 1.58016e-06 2.05934e-06 0 1.84067e-06 2.1594e-06 0 2.11586e-06 2.27406e-06 0 2.40809e-06 2.40368e-06 0 2.71995e-06 2.54854e-06 0 3.05433e-06 2.70883e-06 0 3.41451e-06 2.88457e-06 0 3.80423e-06 3.0755e-06 0 4.22789e-06 3.28097e-06 0 4.69073e-06 3.49977e-06 0 5.19911e-06 3.72991e-06 0 5.76095e-06 3.96827e-06 0 6.38632e-06 4.21029e-06 0 7.08834e-06 4.44934e-06 0 7.88447e-06 4.67611e-06 0 8.79855e-06 4.87773e-06 0 9.8637e-06 5.03671e-06 0 1.11278e-05 5.12988e-06 0 1.26602e-05 5.12769e-06 0 1.45687e-05 4.99571e-06 0 1.70159e-05 4.70384e-06 0 2.0274e-05 4.26034e-06 0 2.47295e-05 3.82706e-06 0 3.07997e-05 3.95951e-06 0 3.81529e-05 5.90323e-06 0 0 1.52244e-06 0 2.24192e-07 1.52798e-06 0 4.50091e-07 1.54462e-06 0 6.79416e-07 1.57244e-06 0 9.13917e-07 1.61156e-06 0 1.15539e-06 1.66217e-06 0 1.40569e-06 1.72446e-06 0 1.66674e-06 1.79865e-06 0 1.94059e-06 1.885e-06 0 2.22939e-06 1.9837e-06 0 2.53545e-06 2.09491e-06 0 2.86125e-06 2.21871e-06 0 3.20952e-06 2.35497e-06 0 3.58326e-06 2.50333e-06 0 3.98583e-06 2.66307e-06 0 4.42106e-06 2.83289e-06 0 4.89339e-06 3.01075e-06 0 5.40806e-06 3.1935e-06 0 5.97146e-06 3.37644e-06 0 6.5915e-06 3.5528e-06 0 7.27839e-06 3.71273e-06 0 8.04551e-06 3.84237e-06 0 8.91119e-06 3.92178e-06 0 9.9012e-06 3.92313e-06 0 1.10526e-05 3.80632e-06 0 1.24234e-05 3.51487e-06 0 1.41006e-05 2.96692e-06 0 1.62484e-05 2.0446e-06 0 1.91375e-05 5.89487e-07 0 2.34469e-05 -1.56477e-06 0 3.05725e-05 -3.95908e-06 0 4.1139e-05 -3.13599e-06 0 0 1.29328e-06 0 2.34412e-07 1.29795e-06 0 4.70576e-07 1.312e-06 0 7.10256e-07 1.33546e-06 0 9.55241e-07 1.36845e-06 0 1.20736e-06 1.41107e-06 0 1.46848e-06 1.46348e-06 0 1.74055e-06 1.52582e-06 0 2.02559e-06 1.59823e-06 0 2.3257e-06 1.6808e-06 0 2.6431e-06 1.77355e-06 0 2.98013e-06 1.87636e-06 0 3.33929e-06 1.98894e-06 0 3.72324e-06 2.11063e-06 0 4.13484e-06 2.24044e-06 0 4.57725e-06 2.37659e-06 0 5.05379e-06 2.51663e-06 0 5.56855e-06 2.65646e-06 0 6.1254e-06 2.79084e-06 0 6.73054e-06 2.91082e-06 0 7.38813e-06 3.00587e-06 0 8.10998e-06 3.05689e-06 0 8.89894e-06 3.04293e-06 0 9.78291e-06 2.92365e-06 0 1.07569e-05 2.655e-06 0 1.18962e-05 2.15168e-06 0 1.3169e-05 1.30312e-06 0 1.47924e-05 -7.63946e-08 0 1.66949e-05 -2.38183e-06 0 1.96123e-05 -6.12898e-06 0 2.48118e-05 -1.43048e-05 0 5.37383e-05 -2.90179e-05 0 </DataArray> 
</PointData> 
<Points> 
<DataArray type="Float32" NumberOfComponents="3"> 