<?xml version="1.0"?> 
<VTKFile type="StructuredGrid" version="0.1"> 
<StructuredGrid WholeExtent="0 95 0 95 0 0"> 
<Piece Extent="0 95 0 95 0 0"> 
<PointData>
<DataArray type="Float32" Name="B" format="ascii" NumberOfComponents="3"> 
-1.97299e-05 5.61599e-06 0 -1.67062e-05 3.35342e-06 0 -1.50535e-05 1.09084e-06 0 -1.47711e-05 -1.11751e-06 0 -1.49831e-05 -1.64482e-06 0 -1.49147e-05 -2.17213e-06 0 -1.45668e-05 -2.69888e-06 0 -1.41551e-05 -3.21707e-06 0 -1.38494e-05 -3.73526e-06 0 -1.36492e-05 -4.2346e-06 0 -1.34671e-05 -4.55172e-06 0 -1.32421e-05 -4.86884e-06 0 -1.29745e-05 -5.18054e-06 0 -1.27021e-05 -5.45436e-06 0 -1.24483e-05 -5.72818e-06 0 -1.22128e-05 -5.99159e-06 0 -1.19805e-05 -6.19878e-06 0 -1.17427e-05 -6.40596e-06 0 -1.14995e-05 -6.60624e-06 0 -1.12579e-05 -6.77658e-06 0 -1.10214e-05 -6.94693e-06 0 -1.079e-05 -7.10959e-06 0 -1.0561e-05 -7.24481e-06 0 -1.03334e-05 -7.38004e-06 0 -1.01072e-05 -7.50869e-06 0 -9.88372e-06 -7.61761e-06 0 -9.66349e-06 -7.72652e-06 0 -9.44651e-06 -7.82909e-06 0 -9.23238e-06 -7.91542e-06 0 -9.02098e-06 -8.00176e-06 0 -8.81231e-06 -8.08235e-06 0 -8.60661e-06 -8.15032e-06 0 -8.40398e-06 -8.2183e-06 0 -8.2044e-06 -8.28098e-06 0 -8.00779e-06 -8.33356e-06 0 -7.81412e-06 -8.38614e-06 0 -7.62339e-06 -8.43394e-06 0 -7.4356e-06 -8.4738e-06 0 -7.25074e-06 -8.51366e-06 0 -7.06881e-06 -8.54923e-06 0 -6.88973e-06 -8.57854e-06 0 -6.71347e-06 -8.60785e-06 0 -6.54003e-06 -8.63337e-06 0 -6.36932e-06 -8.65401e-06 0 -6.20133e-06 -8.67465e-06 0 -6.03604e-06 -8.69197e-06 0 -5.87335e-06 -8.70552e-06 0 -5.71323e-06 -8.71908e-06 0 -5.55568e-06 -8.72978e-06 0 -5.40056e-06 -8.73761e-06 0 -5.24788e-06 -8.74545e-06 0 -5.0976e-06 -8.75087e-06 0 -4.9496e-06 -8.75415e-06 0 -4.80387e-06 -8.75743e-06 0 -4.66039e-06 -8.75872e-06 0 -4.51902e-06 -8.75845e-06 0 -4.37975e-06 -8.75818e-06 0 -4.24256e-06 -8.75631e-06 0 -4.10731e-06 -8.75335e-06 0 -3.97401e-06 -8.75038e-06 0 -3.8426e-06 -8.7462e-06 0 -3.71298e-06 -8.74128e-06 0 -3.58512e-06 -8.73636e-06 0 -3.459e-06 -8.73056e-06 0 -3.33448e-06 -8.72432e-06 0 -3.21157e-06 -8.71807e-06 0 -3.09022e-06 -8.71128e-06 0 -2.97032e-06 -8.70424e-06 0 -2.85186e-06 -8.6972e-06 0 -2.73479e-06 -8.68993e-06 0 -2.619e-06 -8.68256e-06 0 -2.50449e-06 -8.67519e-06 0 -2.39121e-06 -8.66785e-06 0 -2.27905e-06 -8.66054e-06 0 -2.16801e-06 -8.65322e-06 0 -2.05804e-06 -8.6462e-06 0 -1.94903e-06 -8.63926e-06 0 -1.84098e-06 -8.63232e-06 0 -1.73384e-06 -8.6259e-06 0 -1.62751e-06 -8.61961e-06 0 -1.52199e-06 -8.61332e-06 0 -1.41722e-06 -8.60775e-06 0 -1.31312e-06 -8.60232e-06 0 -1.20966e-06 -8.59689e-06 0 -1.10681e-06 -8.59236e-06 0 -1.00447e-06 -8.58796e-06 0 -9.02637e-07 -8.58357e-06 0 -8.01252e-07 -8.58022e-06 0 -7.00229e-07 -8.57699e-06 0 -5.99567e-07 -8.57376e-06 0 -4.99204e-07 -8.57171e-06 0 -3.99058e-07 -8.56973e-06 0 -2.99127e-07 -8.56776e-06 0 -1.99346e-07 -8.56705e-06 0 -9.96371e-08 -8.56639e-06 0 0 -8.56573e-06 0 -1.98499e-05 3.92266e-06 0 -1.73105e-05 2.26525e-06 0 -1.58209e-05 6.07845e-07 0 -1.53803e-05 -1.0177e-06 0 -1.53468e-05 -1.65538e-06 0 -1.51521e-05 -2.29306e-06 0 -1.47968e-05 -2.92048e-06 0 -1.44118e-05 -3.39386e-06 0 -1.40999e-05 -3.86724e-06 0 -1.38607e-05 -4.32756e-06 0 -1.3637e-05 -4.66163e-06 0 -1.33885e-05 -4.99569e-06 0 -1.31156e-05 -5.32123e-06 0 -1.28413e-05 -5.5871e-06 0 -1.258e-05 -5.85297e-06 0 -1.23317e-05 -6.10997e-06 0 -1.20867e-05 -6.31905e-06 0 -1.18397e-05 -6.52812e-06 0 -1.15908e-05 -6.72948e-06 0 -1.13441e-05 -6.89744e-06 0 -1.11019e-05 -7.0654e-06 0 -1.08641e-05 -7.22601e-06 0 -1.06291e-05 -7.36036e-06 0 -1.03963e-05 -7.49471e-06 0 -1.01658e-05 -7.62228e-06 0 -9.93817e-06 -7.72955e-06 0 -9.71393e-06 -7.83682e-06 0 -9.49301e-06 -7.93779e-06 0 -9.27519e-06 -8.02269e-06 0 -9.06039e-06 -8.10759e-06 0 -8.84862e-06 -8.18671e-06 0 -8.64001e-06 -8.25312e-06 0 -8.43461e-06 -8.31952e-06 0 -8.2324e-06 -8.38066e-06 0 -8.03333e-06 -8.43172e-06 0 -7.83735e-06 -8.48279e-06 0 -7.64448e-06 -8.52909e-06 0 -7.45467e-06 -8.56745e-06 0 -7.26792e-06 -8.60581e-06 0 -7.08422e-06 -8.63991e-06 0 -6.90347e-06 -8.66778e-06 0 -6.72566e-06 -8.69565e-06 0 -6.55077e-06 -8.71975e-06 0 -6.37871e-06 -8.73901e-06 0 -6.20945e-06 -8.75827e-06 0 -6.04299e-06 -8.77424e-06 0 -5.8792e-06 -8.78649e-06 0 -5.71806e-06 -8.79874e-06 0 -5.55956e-06 -8.80817e-06 0 -5.40358e-06 -8.81477e-06 0 -5.25008e-06 -8.82138e-06 0 -5.09906e-06 -8.82561e-06 0 -4.95038e-06 -8.82774e-06 0 -4.80402e-06 -8.82988e-06 0 -4.65996e-06 -8.83006e-06 0 -4.51807e-06 -8.82873e-06 0 -4.37833e-06 -8.8274e-06 0 -4.24071e-06 -8.82452e-06 0 -4.10508e-06 -8.82057e-06 0 -3.97143e-06 -8.81663e-06 0 -3.83972e-06 -8.81152e-06 0 -3.70983e-06 -8.80571e-06 0 -3.58174e-06 -8.79989e-06 0 -3.45542e-06 -8.79327e-06 0 -3.33074e-06 -8.78621e-06 0 -3.2077e-06 -8.77915e-06 0 -3.08624e-06 -8.77161e-06 0 -2.96626e-06 -8.76385e-06 0 -2.84774e-06 -8.75609e-06 0 -2.73064e-06 -8.74814e-06 0 -2.61485e-06 -8.74013e-06 0 -2.50035e-06 -8.73212e-06 0 -2.3871e-06 -8.7242e-06 0 -2.275e-06 -8.71632e-06 0 -2.16402e-06 -8.70844e-06 0 -2.05414e-06 -8.70092e-06 0 -1.94523e-06 -8.6935e-06 0 -1.8373e-06 -8.68607e-06 0 -1.7303e-06 -8.67924e-06 0 -1.62412e-06 -8.67253e-06 0 -1.51875e-06 -8.66583e-06 0 -1.41415e-06 -8.65992e-06 0 -1.31022e-06 -8.65416e-06 0 -1.20696e-06 -8.6484e-06 0 -1.1043e-06 -8.64361e-06 0 -1.00217e-06 -8.63895e-06 0 -9.00543e-07 -8.6343e-06 0 -7.99374e-07 -8.63077e-06 0 -6.98574e-07 -8.62736e-06 0 -5.9814e-07 -8.62394e-06 0 -4.98009e-07 -8.62178e-06 0 -3.98097e-07 -8.61969e-06 0 -2.98405e-07 -8.61761e-06 0 -1.98863e-07 -8.61687e-06 0 -9.93951e-08 -8.61617e-06 0 0 -8.61546e-06 0 -1.99699e-05 2.5518e-06 0 -1.79148e-05 1.33891e-06 0 -1.65882e-05 1.26025e-07 0 -1.59895e-05 -1.07047e-06 0 -1.57105e-05 -1.7589e-06 0 -1.53895e-05 -2.44733e-06 0 -1.50269e-05 -3.12055e-06 0 -1.46684e-05 -3.56556e-06 0 -1.43503e-05 -4.01057e-06 0 -1.40722e-05 -4.44591e-06 0 -1.38069e-05 -4.7878e-06 0 -1.3535e-05 -5.12969e-06 0 -1.32567e-05 -5.46144e-06 0 -1.29805e-05 -5.72217e-06 0 -1.27117e-05 -5.98289e-06 0 -1.24505e-05 -6.23557e-06 0 -1.21928e-05 -6.44477e-06 0 -1.19367e-05 -6.65398e-06 0 -1.1682e-05 -6.85507e-06 0 -1.14304e-05 -7.02099e-06 0 -1.11825e-05 -7.18691e-06 0 -1.09382e-05 -7.34565e-06 0 -1.06972e-05 -7.4787e-06 0 -1.04592e-05 -7.61175e-06 0 -1.02243e-05 -7.73794e-06 0 -9.99263e-06 -7.84352e-06 0 -9.76437e-06 -7.9491e-06 0 -9.53951e-06 -8.04842e-06 0 -9.318e-06 -8.13173e-06 0 -9.09981e-06 -8.21504e-06 0 -8.88494e-06 -8.29256e-06 0 -8.67341e-06 -8.35733e-06 0 -8.46524e-06 -8.4221e-06 0 -8.26041e-06 -8.48161e-06 0 -8.05886e-06 -8.53108e-06 0 -7.86058e-06 -8.58056e-06 0 -7.66557e-06 -8.62528e-06 0 -7.47375e-06 -8.66208e-06 0 -7.28511e-06 -8.69888e-06 0 -7.09963e-06 -8.73145e-06 0 -6.91721e-06 -8.75782e-06 0 -6.73785e-06 -8.7842e-06 0 -6.56151e-06 -8.80684e-06 0 -6.38809e-06 -8.82467e-06 0 -6.21757e-06 -8.8425e-06 0 -6.04993e-06 -8.85708e-06 0 -5.88505e-06 -8.86799e-06 0 -5.72289e-06 -8.87889e-06 0 -5.56345e-06 -8.88701e-06 0 -5.40659e-06 -8.89235e-06 0 -5.25229e-06 -8.8977e-06 0 -5.10052e-06 -8.90071e-06 0 -4.95116e-06 -8.90167e-06 0 -4.80417e-06 -8.90263e-06 0 -4.65954e-06 -8.90168e-06 0 -4.51712e-06 -8.89926e-06 0 -4.37691e-06 -8.89684e-06 0 -4.23886e-06 -8.89293e-06 0 -4.10285e-06 -8.88799e-06 0 -3.96885e-06 -8.88304e-06 0 -3.83684e-06 -8.87699e-06 0 -3.70668e-06 -8.87027e-06 0 -3.57836e-06 -8.86354e-06 0 -3.45185e-06 -8.85606e-06 0 -3.327e-06 -8.84818e-06 0 -3.20382e-06 -8.8403e-06 0 -3.08226e-06 -8.83199e-06 0 -2.9622e-06 -8.82349e-06 0 -2.84362e-06 -8.81499e-06 0 -2.72649e-06 -8.80637e-06 0 -2.61069e-06 -8.7977e-06 0 -2.49621e-06 -8.78903e-06 0 -2.38299e-06 -8.78053e-06 0 -2.27094e-06 -8.77208e-06 0 -2.16004e-06 -8.76363e-06 0 -2.05024e-06 -8.75559e-06 0 -1.94144e-06 -8.74768e-06 0 -1.83363e-06 -8.73976e-06 0 -1.72676e-06 -8.7325e-06 0 -1.62072e-06 -8.72538e-06 0 -1.51551e-06 -8.71827e-06 0 -1.41108e-06 -8.71201e-06 0 -1.30733e-06 -8.70591e-06 0 -1.20425e-06 -8.69982e-06 0 -1.10179e-06 -8.69476e-06 0 -9.9986e-07 -8.68984e-06 0 -8.98448e-07 -8.68493e-06 0 -7.97497e-07 -8.68121e-06 0 -6.96919e-07 -8.67761e-06 0 -5.96713e-07 -8.67401e-06 0 -4.96813e-07 -8.67173e-06 0 -3.97136e-07 -8.66954e-06 0 -2.97682e-07 -8.66734e-06 0 -1.98381e-07 -8.66656e-06 0 -9.91532e-08 -8.66582e-06 0 0 -8.66508e-06 0 -2.00885e-05 1.50332e-06 0 -1.85085e-05 5.74359e-07 0 -1.73426e-05 -3.54605e-07 0 -1.65909e-05 -1.27578e-06 0 -1.60727e-05 -1.95535e-06 0 -1.56284e-05 -2.63493e-06 0 -1.52576e-05 -3.29909e-06 0 -1.49242e-05 -3.73217e-06 0 -1.45993e-05 -4.16524e-06 0 -1.4283e-05 -4.58964e-06 0 -1.39768e-05 -4.93025e-06 0 -1.36818e-05 -5.27086e-06 0 -1.33978e-05 -5.60119e-06 0 -1.31194e-05 -5.85956e-06 0 -1.28432e-05 -6.11793e-06 0 -1.25691e-05 -6.36837e-06 0 -1.22989e-05 -6.57595e-06 0 -1.20336e-05 -6.78353e-06 0 -1.17732e-05 -6.98299e-06 0 -1.15165e-05 -7.14723e-06 0 -1.12628e-05 -7.31147e-06 0 -1.10122e-05 -7.46851e-06 0 -1.07653e-05 -7.59985e-06 0 -1.05221e-05 -7.73118e-06 0 -1.02827e-05 -7.85565e-06 0 -1.0047e-05 -7.95951e-06 0 -9.81472e-06 -8.06337e-06 0 -9.58593e-06 -8.16097e-06 0 -9.36072e-06 -8.24254e-06 0 -9.13914e-06 -8.32412e-06 0 -8.92117e-06 -8.39991e-06 0 -8.70673e-06 -8.46297e-06 0 -8.49578e-06 -8.52602e-06 0 -8.28833e-06 -8.58384e-06 0 -8.08432e-06 -8.63163e-06 0 -7.88374e-06 -8.67943e-06 0 -7.68658e-06 -8.7225e-06 0 -7.49275e-06 -8.75769e-06 0 -7.30221e-06 -8.79287e-06 0 -7.11496e-06 -8.82385e-06 0 -6.93088e-06 -8.84867e-06 0 -6.74996e-06 -8.8735e-06 0 -6.57218e-06 -8.89462e-06 0 -6.39741e-06 -8.91098e-06 0 -6.22563e-06 -8.92734e-06 0 -6.05681e-06 -8.94049e-06 0 -5.89083e-06 -8.95001e-06 0 -5.72766e-06 -8.95953e-06 0 -5.56728e-06 -8.96631e-06 0 -5.40954e-06 -8.97035e-06 0 -5.25443e-06 -8.9744e-06 0 -5.10193e-06 -8.97617e-06 0 -4.95188e-06 -8.97592e-06 0 -4.80426e-06 -8.97567e-06 0 -4.65906e-06 -8.97358e-06 0 -4.51612e-06 -8.97005e-06 0 -4.37543e-06 -8.96651e-06 0 -4.23696e-06 -8.96154e-06 0 -4.10056e-06 -8.95558e-06 0 -3.96623e-06 -8.94962e-06 0 -3.83392e-06 -8.9426e-06 0 -3.70349e-06 -8.93495e-06 0 -3.57494e-06 -8.92729e-06 0 -3.44823e-06 -8.91894e-06 0 -3.32322e-06 -8.91022e-06 0 -3.19991e-06 -8.9015e-06 0 -3.07824e-06 -8.89242e-06 0 -2.9581e-06 -8.88317e-06 0 -2.83947e-06 -8.87392e-06 0 -2.72231e-06 -8.86461e-06 0 -2.6065e-06 -8.85527e-06 0 -2.49204e-06 -8.84594e-06 0 -2.37886e-06 -8.83683e-06 0 -2.26686e-06 -8.8278e-06 0 -2.15603e-06 -8.81877e-06 0 -2.04632e-06 -8.81022e-06 0 -1.93763e-06 -8.8018e-06 0 -1.82994e-06 -8.79339e-06 0 -1.7232e-06 -8.78569e-06 0 -1.6173e-06 -8.77816e-06 0 -1.51225e-06 -8.77062e-06 0 -1.40799e-06 -8.76401e-06 0 -1.30442e-06 -8.75758e-06 0 -1.20153e-06 -8.75114e-06 0 -1.09927e-06 -8.7458e-06 0 -9.97542e-07 -8.74063e-06 0 -8.96343e-07 -8.73545e-06 0 -7.9561e-07 -8.73154e-06 0 -6.95256e-07 -8.72775e-06 0 -5.95279e-07 -8.72396e-06 0 -4.95612e-07 -8.72157e-06 0 -3.96171e-07 -8.71926e-06 0 -2.96956e-07 -8.71695e-06 0 -1.97895e-07 -8.71613e-06 0 -9.89101e-08 -8.71536e-06 0 0 -8.71458e-06 0 -2.01653e-05 6.67598e-07 0 -1.87708e-05 -7.72117e-08 0 -1.76987e-05 -8.22021e-07 0 -1.69487e-05 -1.56361e-06 0 -1.63914e-05 -2.20526e-06 0 -1.59121e-05 -2.8469e-06 0 -1.55105e-05 -3.47518e-06 0 -1.51505e-05 -3.9028e-06 0 -1.48038e-05 -4.33042e-06 0 -1.44702e-05 -4.74935e-06 0 -1.41491e-05 -5.0842e-06 0 -1.38398e-05 -5.41906e-06 0 -1.35423e-05 -5.74417e-06 0 -1.32518e-05 -6.00105e-06 0 -1.2965e-05 -6.25794e-06 0 -1.26821e-05 -6.50673e-06 0 -1.24039e-05 -6.71178e-06 0 -1.21309e-05 -6.91684e-06 0 -1.1863e-05 -7.11393e-06 0 -1.15994e-05 -7.27648e-06 0 -1.13395e-05 -7.43902e-06 0 -1.10833e-05 -7.59431e-06 0 -1.0831e-05 -7.72366e-06 0 -1.05829e-05 -7.85302e-06 0 -1.03388e-05 -7.97554e-06 0 -1.00987e-05 -8.07758e-06 0 -9.86229e-06 -8.17962e-06 0 -9.62972e-06 -8.27539e-06 0 -9.40096e-06 -8.3551e-06 0 -9.17603e-06 -8.43482e-06 0 -8.95491e-06 -8.50877e-06 0 -8.73751e-06 -8.57003e-06 0 -8.5238e-06 -8.63129e-06 0 -8.31376e-06 -8.68732e-06 0 -8.10733e-06 -8.73337e-06 0 -7.90448e-06 -8.77941e-06 0 -7.7052e-06 -8.82076e-06 0 -7.50938e-06 -8.85426e-06 0 -7.31698e-06 -8.88776e-06 0 -7.12799e-06 -8.91709e-06 0 -6.9423e-06 -8.94031e-06 0 -6.75986e-06 -8.96353e-06 0 -6.58067e-06 -8.98309e-06 0 -6.40458e-06 -8.99794e-06 0 -6.23158e-06 -9.01278e-06 0 -6.06163e-06 -9.02446e-06 0 -5.8946e-06 -9.03255e-06 0 -5.73045e-06 -9.04064e-06 0 -5.56918e-06 -9.04605e-06 0 -5.41061e-06 -9.04876e-06 0 -5.25474e-06 -9.05148e-06 0 -5.10154e-06 -9.05197e-06 0 -4.95085e-06 -9.05049e-06 0 -4.80266e-06 -9.04901e-06 0 -4.65693e-06 -9.04574e-06 0 -4.51351e-06 -9.04107e-06 0 -4.3724e-06 -9.0364e-06 0 -4.23354e-06 -9.03034e-06 0 -4.09681e-06 -9.02334e-06 0 -3.96218e-06 -9.01634e-06 0 -3.82961e-06 -9.00834e-06 0 -3.69896e-06 -8.99974e-06 0 -3.57023e-06 -8.99114e-06 0 -3.44337e-06 -8.9819e-06 0 -3.31824e-06 -8.97233e-06 0 -3.19483e-06 -8.96276e-06 0 -3.0731e-06 -8.95288e-06 0 -2.95292e-06 -8.94286e-06 0 -2.83428e-06 -8.93285e-06 0 -2.71714e-06 -8.92284e-06 0 -2.60137e-06 -8.91283e-06 0 -2.48695e-06 -8.90282e-06 0 -2.37385e-06 -8.8931e-06 0 -2.26195e-06 -8.88348e-06 0 -2.15123e-06 -8.87386e-06 0 -2.04166e-06 -8.86478e-06 0 -1.9331e-06 -8.85586e-06 0 -1.82557e-06 -8.84694e-06 0 -1.719e-06 -8.8388e-06 0 -1.61329e-06 -8.83084e-06 0 -1.50844e-06 -8.82289e-06 0 -1.40439e-06 -8.81592e-06 0 -1.30103e-06 -8.80914e-06 0 -1.19837e-06 -8.80235e-06 0 -1.09635e-06 -8.79674e-06 0 -9.94859e-07 -8.7913e-06 0 -8.93908e-07 -8.78586e-06 0 -7.93432e-07 -8.78174e-06 0 -6.93338e-07 -8.77777e-06 0 -5.93626e-07 -8.77379e-06 0 -4.94229e-07 -8.77127e-06 0 -3.9506e-07 -8.76885e-06 0 -2.9612e-07 -8.76643e-06 0 -1.97338e-07 -8.76557e-06 0 -9.86307e-08 -8.76476e-06 0 0 -8.76395e-06 0 -2.02421e-05 -5.23837e-08 0 -1.90332e-05 -6.58983e-07 0 -1.80547e-05 -1.26558e-06 0 -1.73066e-05 -1.87203e-06 0 -1.67102e-05 -2.47369e-06 0 -1.61958e-05 -3.07535e-06 0 -1.57633e-05 -3.66565e-06 0 -1.53769e-05 -4.08552e-06 0 -1.50082e-05 -4.50539e-06 0 -1.46574e-05 -4.91672e-06 0 -1.43213e-05 -5.24546e-06 0 -1.39978e-05 -5.57419e-06 0 -1.36868e-05 -5.89365e-06 0 -1.33841e-05 -6.14821e-06 0 -1.30869e-05 -6.40277e-06 0 -1.27951e-05 -6.64918e-06 0 -1.25088e-05 -6.85156e-06 0 -1.22281e-05 -7.05395e-06 0 -1.19528e-05 -7.24848e-06 0 -1.16823e-05 -7.40901e-06 0 -1.14161e-05 -7.56954e-06 0 -1.11543e-05 -7.72279e-06 0 -1.08968e-05 -7.85003e-06 0 -1.06437e-05 -7.97727e-06 0 -1.03949e-05 -8.09772e-06 0 -1.01503e-05 -8.19778e-06 0 -9.90987e-06 -8.29785e-06 0 -9.67351e-06 -8.39164e-06 0 -9.44119e-06 -8.46939e-06 0 -9.21291e-06 -8.54714e-06 0 -8.98864e-06 -8.61915e-06 0 -8.76829e-06 -8.67852e-06 0 -8.55181e-06 -8.73789e-06 0 -8.3392e-06 -8.79206e-06 0 -8.13035e-06 -8.83628e-06 0 -7.92523e-06 -8.88049e-06 0 -7.72383e-06 -8.92004e-06 0 -7.52601e-06 -8.9518e-06 0 -7.33175e-06 -8.98356e-06 0 -7.14103e-06 -9.01117e-06 0 -6.95371e-06 -9.03274e-06 0 -6.76976e-06 -9.0543e-06 0 -6.58916e-06 -9.07224e-06 0 -6.41176e-06 -9.08553e-06 0 -6.23753e-06 -9.09881e-06 0 -6.06645e-06 -9.10897e-06 0 -5.89837e-06 -9.1156e-06 0 -5.73325e-06 -9.12223e-06 0 -5.57107e-06 -9.12622e-06 0 -5.41168e-06 -9.12757e-06 0 -5.25505e-06 -9.12892e-06 0 -5.10115e-06 -9.1281e-06 0 -4.94983e-06 -9.12536e-06 0 -4.80105e-06 -9.12262e-06 0 -4.65479e-06 -9.11814e-06 0 -4.5109e-06 -9.11231e-06 0 -4.36936e-06 -9.10648e-06 0 -4.23013e-06 -9.09932e-06 0 -4.09305e-06 -9.09126e-06 0 -3.95812e-06 -9.0832e-06 0 -3.8253e-06 -9.0742e-06 0 -3.69443e-06 -9.06464e-06 0 -3.56551e-06 -9.05507e-06 0 -3.4385e-06 -9.04493e-06 0 -3.31325e-06 -9.03449e-06 0 -3.18975e-06 -9.02405e-06 0 -3.06796e-06 -9.01337e-06 0 -2.94775e-06 -9.00258e-06 0 -2.8291e-06 -8.99178e-06 0 -2.71197e-06 -8.98106e-06 0 -2.59623e-06 -8.97037e-06 0 -2.48187e-06 -8.95967e-06 0 -2.36885e-06 -8.94933e-06 0 -2.25704e-06 -8.93911e-06 0 -2.14643e-06 -8.92889e-06 0 -2.03699e-06 -8.91928e-06 0 -1.92858e-06 -8.90985e-06 0 -1.8212e-06 -8.90041e-06 0 -1.71481e-06 -8.89183e-06 0 -1.60929e-06 -8.88344e-06 0 -1.50463e-06 -8.87505e-06 0 -1.40078e-06 -8.86772e-06 0 -1.29765e-06 -8.86058e-06 0 -1.19521e-06 -8.85345e-06 0 -1.09342e-06 -8.84756e-06 0 -9.92175e-07 -8.84185e-06 0 -8.91474e-07 -8.83613e-06 0 -7.91253e-07 -8.83182e-06 0 -6.9142e-07 -8.82765e-06 0 -5.91973e-07 -8.82349e-06 0 -4.92846e-07 -8.82085e-06 0 -3.9395e-07 -8.81831e-06 0 -2.95285e-07 -8.81578e-06 0 -1.9678e-07 -8.81488e-06 0 -9.83513e-08 -8.81402e-06 0 0 -8.81317e-06 0 -2.0321e-05 -6.56758e-07 0 -1.92907e-05 -1.17103e-06 0 -1.84029e-05 -1.6853e-06 0 -1.76575e-05 -2.20099e-06 0 -1.70243e-05 -2.76062e-06 0 -1.64766e-05 -3.32024e-06 0 -1.60143e-05 -3.87051e-06 0 -1.56019e-05 -4.28033e-06 0 -1.52117e-05 -4.69015e-06 0 -1.48438e-05 -5.09176e-06 0 -1.44928e-05 -5.41401e-06 0 -1.41552e-05 -5.73625e-06 0 -1.38309e-05 -6.04964e-06 0 -1.35161e-05 -6.30104e-06 0 -1.32084e-05 -6.55243e-06 0 -1.29078e-05 -6.79573e-06 0 -1.26135e-05 -6.99529e-06 0 -1.2325e-05 -7.19485e-06 0 -1.20424e-05 -7.38665e-06 0 -1.17649e-05 -7.54484e-06 0 -1.14925e-05 -7.70303e-06 0 -1.12251e-05 -7.85396e-06 0 -1.09624e-05 -7.97895e-06 0 -1.07043e-05 -8.10395e-06 0 -1.04508e-05 -8.22218e-06 0 -1.02018e-05 -8.32011e-06 0 -9.95725e-06 -8.41804e-06 0 -9.7171e-06 -8.50971e-06 0 -9.48123e-06 -8.5854e-06 0 -9.2496e-06 -8.66109e-06 0 -9.02219e-06 -8.73106e-06 0 -8.79888e-06 -8.78845e-06 0 -8.57964e-06 -8.84583e-06 0 -8.36445e-06 -8.89804e-06 0 -8.15319e-06 -8.94035e-06 0 -7.9458e-06 -8.98267e-06 0 -7.74227e-06 -9.02035e-06 0 -7.54247e-06 -9.0503e-06 0 -7.34635e-06 -9.08025e-06 0 -7.1539e-06 -9.10609e-06 0 -6.96496e-06 -9.12595e-06 0 -6.7795e-06 -9.1458e-06 0 -6.59749e-06 -9.16207e-06 0 -6.41878e-06 -9.17375e-06 0 -6.24333e-06 -9.18542e-06 0 -6.07113e-06 -9.19403e-06 0 -5.902e-06 -9.19915e-06 0 -5.73591e-06 -9.20428e-06 0 -5.57284e-06 -9.20682e-06 0 -5.41262e-06 -9.20677e-06 0 -5.25523e-06 -9.20673e-06 0 -5.10064e-06 -9.20457e-06 0 -4.94868e-06 -9.20054e-06 0 -4.79933e-06 -9.19651e-06 0 -4.65255e-06 -9.1908e-06 0 -4.50819e-06 -9.18378e-06 0 -4.36622e-06 -9.17677e-06 0 -4.22661e-06 -9.16849e-06 0 -4.0892e-06 -9.15934e-06 0 -3.95397e-06 -9.1502e-06 0 -3.8209e-06 -9.14018e-06 0 -3.68981e-06 -9.12963e-06 0 -3.56071e-06 -9.11909e-06 0 -3.43355e-06 -9.10803e-06 0 -3.30818e-06 -9.0967e-06 0 -3.18459e-06 -9.08538e-06 0 -3.06274e-06 -9.07388e-06 0 -2.9425e-06 -9.0623e-06 0 -2.82384e-06 -9.05072e-06 0 -2.70673e-06 -9.03927e-06 0 -2.59102e-06 -9.02788e-06 0 -2.47673e-06 -9.01649e-06 0 -2.36378e-06 -9.00552e-06 0 -2.25207e-06 -8.99469e-06 0 -2.14158e-06 -8.98386e-06 0 -2.03227e-06 -8.97371e-06 0 -1.924e-06 -8.96375e-06 0 -1.81679e-06 -8.9538e-06 0 -1.71057e-06 -8.94476e-06 0 -1.60524e-06 -8.93593e-06 0 -1.50078e-06 -8.92711e-06 0 -1.39715e-06 -8.91941e-06 0 -1.29423e-06 -8.91192e-06 0 -1.19202e-06 -8.90443e-06 0 -1.09047e-06 -8.89826e-06 0 -9.89467e-07 -8.89227e-06 0 -8.89018e-07 -8.88628e-06 0 -7.89055e-07 -8.88177e-06 0 -6.89484e-07 -8.87741e-06 0 -5.90306e-07 -8.87304e-06 0 -4.9145e-07 -8.87029e-06 0 -3.92829e-07 -8.86763e-06 0 -2.94443e-07 -8.86498e-06 0 -1.96217e-07 -8.86404e-06 0 -9.80695e-08 -8.86315e-06 0 0 -8.86226e-06 0 -2.04305e-05 -1.18488e-06 0 -1.9476e-05 -1.63533e-06 0 -1.86342e-05 -2.08578e-06 0 -1.79053e-05 -2.53837e-06 0 -1.72708e-05 -3.05705e-06 0 -1.67147e-05 -3.57572e-06 0 -1.62369e-05 -4.08688e-06 0 -1.58068e-05 -4.48517e-06 0 -1.54006e-05 -4.88347e-06 0 -1.50182e-05 -5.27399e-06 0 -1.46541e-05 -5.58934e-06 0 -1.43042e-05 -5.90469e-06 0 -1.39684e-05 -6.21157e-06 0 -1.36431e-05 -6.45919e-06 0 -1.33257e-05 -6.70681e-06 0 -1.30163e-05 -6.94644e-06 0 -1.27139e-05 -7.14295e-06 0 -1.24178e-05 -7.33945e-06 0 -1.21282e-05 -7.52829e-06 0 -1.18442e-05 -7.68387e-06 0 -1.15657e-05 -7.83946e-06 0 -1.12926e-05 -7.98783e-06 0 -1.10246e-05 -8.11043e-06 0 -1.07616e-05 -8.23303e-06 0 -1.05035e-05 -8.34889e-06 0 -1.02502e-05 -8.44454e-06 0 -1.00016e-05 -8.54019e-06 0 -9.75771e-06 -8.62962e-06 0 -9.51831e-06 -8.70313e-06 0 -9.28336e-06 -8.77665e-06 0 -9.05285e-06 -8.84448e-06 0 -8.82665e-06 -8.89978e-06 0 -8.60469e-06 -8.95509e-06 0 -8.38696e-06 -9.00526e-06 0 -8.17332e-06 -9.04559e-06 0 -7.9637e-06 -9.08593e-06 0 -7.75811e-06 -9.12167e-06 0 -7.55637e-06 -9.14975e-06 0 -7.35844e-06 -9.17782e-06 0 -7.1643e-06 -9.20184e-06 0 -6.97379e-06 -9.21993e-06 0 -6.78687e-06 -9.23801e-06 0 -6.6035e-06 -9.25257e-06 0 -6.42353e-06 -9.26259e-06 0 -6.24692e-06 -9.27261e-06 0 -6.07363e-06 -9.27961e-06 0 -5.90351e-06 -9.2832e-06 0 -5.7365e-06 -9.28678e-06 0 -5.57259e-06 -9.28783e-06 0 -5.4116e-06 -9.28636e-06 0 -5.2535e-06 -9.28489e-06 0 -5.09827e-06 -9.28136e-06 0 -4.94572e-06 -9.27601e-06 0 -4.79584e-06 -9.27066e-06 0 -4.64859e-06 -9.26369e-06 0 -4.5038e-06 -9.25547e-06 0 -4.36146e-06 -9.24724e-06 0 -4.22152e-06 -9.23781e-06 0 -4.08383e-06 -9.22757e-06 0 -3.94836e-06 -9.21732e-06 0 -3.81508e-06 -9.20626e-06 0 -3.68382e-06 -9.19472e-06 0 -3.55458e-06 -9.18317e-06 0 -3.42732e-06 -9.17118e-06 0 -3.30188e-06 -9.15896e-06 0 -3.17825e-06 -9.14673e-06 0 -3.05639e-06 -9.1344e-06 0 -2.93615e-06 -9.12202e-06 0 -2.81753e-06 -9.10963e-06 0 -2.70047e-06 -9.09746e-06 0 -2.58485e-06 -9.08536e-06 0 -2.47066e-06 -9.07326e-06 0 -2.35784e-06 -9.06165e-06 0 -2.24626e-06 -9.0502e-06 0 -2.13593e-06 -9.03875e-06 0 -2.02679e-06 -9.02806e-06 0 -1.91871e-06 -9.01757e-06 0 -1.8117e-06 -9.00709e-06 0 -1.7057e-06 -8.99759e-06 0 -1.60059e-06 -8.98832e-06 0 -1.49637e-06 -8.97906e-06 0 -1.39299e-06 -8.97099e-06 0 -1.29032e-06 -8.96314e-06 0 -1.18839e-06 -8.95529e-06 0 -1.08711e-06 -8.94883e-06 0 -9.8639e-07 -8.94256e-06 0 -8.8623e-07 -8.9363e-06 0 -7.86562e-07 -8.93158e-06 0 -6.87292e-07 -8.92702e-06 0 -5.88418e-07 -8.92246e-06 0 -4.89872e-07 -8.91958e-06 0 -3.91562e-07 -8.91681e-06 0 -2.9349e-07 -8.91404e-06 0 -1.95581e-07 -8.91305e-06 0 -9.77511e-08 -8.91212e-06 0 0 -8.9112e-06 0 -2.05401e-05 -1.66769e-06 0 -1.96613e-05 -2.06917e-06 0 -1.88656e-05 -2.47064e-06 0 -1.81531e-05 -2.87461e-06 0 -1.75173e-05 -3.3559e-06 0 -1.69528e-05 -3.83718e-06 0 -1.64595e-05 -4.31251e-06 0 -1.60117e-05 -4.69845e-06 0 -1.55895e-05 -5.0844e-06 0 -1.51927e-05 -5.46303e-06 0 -1.48154e-05 -5.77105e-06 0 -1.44531e-05 -6.07906e-06 0 -1.4106e-05 -6.37899e-06 0 -1.37701e-05 -6.6224e-06 0 -1.3443e-05 -6.86581e-06 0 -1.31248e-05 -7.10136e-06 0 -1.28142e-05 -7.29453e-06 0 -1.25106e-05 -7.4877e-06 0 -1.22139e-05 -7.67329e-06 0 -1.19235e-05 -7.82606e-06 0 -1.16389e-05 -7.97883e-06 0 -1.13602e-05 -8.12444e-06 0 -1.10869e-05 -8.24446e-06 0 -1.08189e-05 -8.36449e-06 0 -1.05563e-05 -8.47782e-06 0 -1.02987e-05 -8.57106e-06 0 -1.0046e-05 -8.6643e-06 0 -9.79832e-06 -8.75135e-06 0 -9.55538e-06 -8.82258e-06 0 -9.31712e-06 -8.89381e-06 0 -9.08352e-06 -8.95939e-06 0 -8.85441e-06 -9.01253e-06 0 -8.62974e-06 -9.06567e-06 0 -8.40947e-06 -9.1137e-06 0 -8.19345e-06 -9.15198e-06 0 -7.98161e-06 -9.19027e-06 0 -7.77394e-06 -9.224e-06 0 -7.57026e-06 -9.25013e-06 0 -7.37052e-06 -9.27627e-06 0 -7.1747e-06 -9.2984e-06 0 -6.98262e-06 -9.31466e-06 0 -6.79423e-06 -9.33093e-06 0 -6.60952e-06 -9.34372e-06 0 -6.42829e-06 -9.35204e-06 0 -6.2505e-06 -9.36036e-06 0 -6.07614e-06 -9.36572e-06 0 -5.90502e-06 -9.36772e-06 0 -5.73709e-06 -9.36972e-06 0 -5.57234e-06 -9.36925e-06 0 -5.41058e-06 -9.36632e-06 0 -5.25177e-06 -9.36338e-06 0 -5.09589e-06 -9.35845e-06 0 -4.94276e-06 -9.35175e-06 0 -4.79236e-06 -9.34506e-06 0 -4.64463e-06 -9.33681e-06 0 -4.49942e-06 -9.32735e-06 0 -4.35671e-06 -9.31789e-06 0 -4.21644e-06 -9.30729e-06 0 -4.07846e-06 -9.29592e-06 0 -3.94274e-06 -9.28455e-06 0 -3.80925e-06 -9.27244e-06 0 -3.67783e-06 -9.25988e-06 0 -3.54846e-06 -9.24732e-06 0 -3.42109e-06 -9.23438e-06 0 -3.29558e-06 -9.22124e-06 0 -3.17191e-06 -9.2081e-06 0 -3.05003e-06 -9.19492e-06 0 -2.9298e-06 -9.18173e-06 0 -2.81122e-06 -9.16853e-06 0 -2.69422e-06 -9.15561e-06 0 -2.57868e-06 -9.14279e-06 0 -2.46459e-06 -9.12997e-06 0 -2.35189e-06 -9.11771e-06 0 -2.24045e-06 -9.10564e-06 0 -2.13028e-06 -9.09357e-06 0 -2.02131e-06 -9.08232e-06 0 -1.91342e-06 -9.0713e-06 0 -1.80661e-06 -9.06028e-06 0 -1.70082e-06 -9.05032e-06 0 -1.59594e-06 -9.0406e-06 0 -1.49196e-06 -9.03088e-06 0 -1.38882e-06 -9.02243e-06 0 -1.28642e-06 -9.01422e-06 0 -1.18475e-06 -9.00601e-06 0 -1.08375e-06 -8.99926e-06 0 -9.83312e-07 -8.99271e-06 0 -8.83442e-07 -8.98616e-06 0 -7.8407e-07 -8.98124e-06 0 -6.85099e-07 -8.97648e-06 0 -5.86531e-07 -8.97172e-06 0 -4.88293e-07 -8.96871e-06 0 -3.90295e-07 -8.96583e-06 0 -2.92538e-07 -8.96294e-06 0 -1.94945e-07 -8.96191e-06 0 -9.74328e-08 -8.96094e-06 0 0 -8.95997e-06 0 -2.065e-05 -2.10532e-06 0 -1.98432e-05 -2.47261e-06 0 -1.90918e-05 -2.8399e-06 0 -1.83956e-05 -3.2097e-06 0 -1.77594e-05 -3.65715e-06 0 -1.71873e-05 -4.1046e-06 0 -1.66791e-05 -4.54739e-06 0 -1.62143e-05 -4.92016e-06 0 -1.57766e-05 -5.29292e-06 0 -1.53658e-05 -5.65889e-06 0 -1.49755e-05 -5.95912e-06 0 -1.46011e-05 -6.25936e-06 0 -1.42427e-05 -6.55191e-06 0 -1.38963e-05 -6.79067e-06 0 -1.35597e-05 -7.02943e-06 0 -1.32327e-05 -7.2605e-06 0 -1.2914e-05 -7.45004e-06 0 -1.26029e-05 -7.63958e-06 0 -1.22993e-05 -7.82165e-06 0 -1.20023e-05 -7.97139e-06 0 -1.17117e-05 -8.12113e-06 0 -1.14273e-05 -8.26377e-06 0 -1.11487e-05 -8.38105e-06 0 -1.08759e-05 -8.49833e-06 0 -1.06086e-05 -8.60897e-06 0 -1.03467e-05 -8.69966e-06 0 -1.009e-05 -8.79035e-06 0 -9.83859e-06 -8.8749e-06 0 -9.59211e-06 -8.94374e-06 0 -9.35054e-06 -9.01257e-06 0 -9.11386e-06 -9.0758e-06 0 -8.88186e-06 -9.12668e-06 0 -8.65447e-06 -9.17755e-06 0 -8.43168e-06 -9.22337e-06 0 -8.21328e-06 -9.25952e-06 0 -7.99922e-06 -9.29568e-06 0 -7.78949e-06 -9.32732e-06 0 -7.58387e-06 -9.35146e-06 0 -7.38233e-06 -9.37559e-06 0 -7.18483e-06 -9.39577e-06 0 -6.99119e-06 -9.41016e-06 0 -6.80134e-06 -9.42455e-06 0 -6.61528e-06 -9.43552e-06 0 -6.43279e-06 -9.4421e-06 0 -6.25385e-06 -9.44867e-06 0 -6.07842e-06 -9.45234e-06 0 -5.9063e-06 -9.45272e-06 0 -5.73746e-06 -9.4531e-06 0 -5.57187e-06 -9.45108e-06 0 -5.40934e-06 -9.44664e-06 0 -5.24984e-06 -9.44221e-06 0 -5.09332e-06 -9.43585e-06 0 -4.93961e-06 -9.42778e-06 0 -4.78868e-06 -9.4197e-06 0 -4.64049e-06 -9.41014e-06 0 -4.49487e-06 -9.39943e-06 0 -4.35178e-06 -9.38871e-06 0 -4.21119e-06 -9.37693e-06 0 -4.07293e-06 -9.36441e-06 0 -3.93697e-06 -9.3519e-06 0 -3.80328e-06 -9.33871e-06 0 -3.67169e-06 -9.32512e-06 0 -3.54219e-06 -9.31152e-06 0 -3.41473e-06 -9.29762e-06 0 -3.28915e-06 -9.28355e-06 0 -3.16544e-06 -9.26948e-06 0 -3.04355e-06 -9.25545e-06 0 -2.92334e-06 -9.24142e-06 0 -2.8048e-06 -9.2274e-06 0 -2.68787e-06 -9.21372e-06 0 -2.57241e-06 -9.20017e-06 0 -2.45842e-06 -9.18663e-06 0 -2.34585e-06 -9.17371e-06 0 -2.23456e-06 -9.161e-06 0 -2.12455e-06 -9.1483e-06 0 -2.01575e-06 -9.13649e-06 0 -1.90806e-06 -9.12492e-06 0 -1.80145e-06 -9.11336e-06 0 -1.69588e-06 -9.10293e-06 0 -1.59123e-06 -9.09275e-06 0 -1.48749e-06 -9.08258e-06 0 -1.38461e-06 -9.07375e-06 0 -1.28247e-06 -9.06517e-06 0 -1.18107e-06 -9.05659e-06 0 -1.08035e-06 -9.04955e-06 0 -9.80197e-07 -9.04272e-06 0 -8.8062e-07 -9.03589e-06 0 -7.81547e-07 -9.03075e-06 0 -6.8288e-07 -9.02579e-06 0 -5.84621e-07 -9.02083e-06 0 -4.86696e-07 -9.0177e-06 0 -3.89013e-07 -9.01469e-06 0 -2.91574e-07 -9.01168e-06 0 -1.94302e-07 -9.01061e-06 0 -9.71106e-08 -9.0096e-06 0 0 -9.00859e-06 0 -2.07635e-05 -2.51216e-06 0 -1.99931e-05 -2.85435e-06 0 -1.92678e-05 -3.19655e-06 0 -1.85876e-05 -3.54109e-06 0 -1.79586e-05 -3.95835e-06 0 -1.73864e-05 -4.37561e-06 0 -1.68707e-05 -4.78924e-06 0 -1.63952e-05 -5.14848e-06 0 -1.59467e-05 -5.50773e-06 0 -1.55252e-05 -5.86068e-06 0 -1.51244e-05 -6.15288e-06 0 -1.47398e-05 -6.44507e-06 0 -1.43714e-05 -6.72996e-06 0 -1.40156e-05 -6.9637e-06 0 -1.36701e-05 -7.19745e-06 0 -1.3335e-05 -7.42368e-06 0 -1.30087e-05 -7.60934e-06 0 -1.26904e-05 -7.79499e-06 0 -1.23801e-05 -7.97331e-06 0 -1.20769e-05 -8.11981e-06 0 -1.17803e-05 -8.26631e-06 0 -1.14905e-05 -8.40578e-06 0 -1.12068e-05 -8.52015e-06 0 -1.09291e-05 -8.63453e-06 0 -1.06574e-05 -8.74231e-06 0 -1.03913e-05 -8.83032e-06 0 -1.01306e-05 -8.91834e-06 0 -9.87548e-06 -9.00025e-06 0 -9.62555e-06 -9.06658e-06 0 -9.38074e-06 -9.13292e-06 0 -9.14104e-06 -9.19368e-06 0 -8.9062e-06 -9.24221e-06 0 -8.67616e-06 -9.29074e-06 0 -8.4509e-06 -9.33425e-06 0 -8.2302e-06 -9.3682e-06 0 -8.01398e-06 -9.40214e-06 0 -7.80224e-06 -9.43163e-06 0 -7.59475e-06 -9.4537e-06 0 -7.39146e-06 -9.47577e-06 0 -7.19235e-06 -9.49393e-06 0 -6.9972e-06 -9.5064e-06 0 -6.80596e-06 -9.51886e-06 0 -6.6186e-06 -9.52796e-06 0 -6.43492e-06 -9.53274e-06 0 -6.25488e-06 -9.53752e-06 0 -6.07843e-06 -9.53946e-06 0 -5.90538e-06 -9.53818e-06 0 -5.73569e-06 -9.5369e-06 0 -5.56932e-06 -9.53328e-06 0 -5.40608e-06 -9.52732e-06 0 -5.24593e-06 -9.52136e-06 0 -5.08883e-06 -9.51353e-06 0 -4.9346e-06 -9.50406e-06 0 -4.7832e-06 -9.49458e-06 0 -4.6346e-06 -9.48369e-06 0 -4.48861e-06 -9.47169e-06 0 -4.34521e-06 -9.4597e-06 0 -4.20435e-06 -9.4467e-06 0 -4.06585e-06 -9.43302e-06 0 -3.92971e-06 -9.41934e-06 0 -3.79587e-06 -9.40506e-06 0 -3.66417e-06 -9.39041e-06 0 -3.53458e-06 -9.37577e-06 0 -3.40707e-06 -9.36088e-06 0 -3.28147e-06 -9.34587e-06 0 -3.15777e-06 -9.33086e-06 0 -3.03592e-06 -9.31596e-06 0 -2.91577e-06 -9.30109e-06 0 -2.79731e-06 -9.28623e-06 0 -2.68049e-06 -9.27178e-06 0 -2.56516e-06 -9.2575e-06 0 -2.45133e-06 -9.24321e-06 0 -2.33892e-06 -9.22963e-06 0 -2.22782e-06 -9.21628e-06 0 -2.11801e-06 -9.20293e-06 0 -2.00943e-06 -9.19055e-06 0 -1.90197e-06 -9.17844e-06 0 -1.79561e-06 -9.16632e-06 0 -1.6903e-06 -9.15542e-06 0 -1.58592e-06 -9.14478e-06 0 -1.48246e-06 -9.13415e-06 0 -1.37987e-06 -9.12494e-06 0 -1.27803e-06 -9.11598e-06 0 -1.17694e-06 -9.10703e-06 0 -1.07654e-06 -9.09968e-06 0 -9.76712e-07 -9.09257e-06 0 -8.77466e-07 -9.08545e-06 0 -7.78729e-07 -9.0801e-06 0 -6.80404e-07 -9.07493e-06 0 -5.8249e-07 -9.06977e-06 0 -4.84915e-07 -9.06651e-06 0 -3.87585e-07 -9.06338e-06 0 -2.90501e-07 -9.06025e-06 0 -1.93586e-07 -9.05913e-06 0 -9.67519e-08 -9.05808e-06 0 0 -9.05703e-06 0 -2.08771e-05 -2.8983e-06 0 -2.0143e-05 -3.22048e-06 0 -1.94438e-05 -3.54266e-06 0 -1.87795e-05 -3.86699e-06 0 -1.81579e-05 -4.25776e-06 0 -1.75855e-05 -4.64852e-06 0 -1.70623e-05 -5.03647e-06 0 -1.6576e-05 -5.38218e-06 0 -1.61168e-05 -5.72789e-06 0 -1.56846e-05 -6.06781e-06 0 -1.52733e-05 -6.35182e-06 0 -1.48785e-05 -6.63584e-06 0 -1.45001e-05 -6.9129e-06 0 -1.41349e-05 -7.1413e-06 0 -1.37806e-05 -7.3697e-06 0 -1.34373e-05 -7.59078e-06 0 -1.31034e-05 -7.77233e-06 0 -1.2778e-05 -7.95388e-06 0 -1.24609e-05 -8.12822e-06 0 -1.21514e-05 -8.27127e-0