<?xml version="1.0"?> 
<VTKFile type="StructuredGrid" version="0.1"> 
<StructuredGrid WholeExtent="0 31 0 31 0 0"> 
<Piece Extent="0 31 0 31 0 0"> 
<PointData>
<DataArray type="Float32" Name="B" format="ascii" NumberOfComponents="3"> 
0 -0 0 -9.92821e-06 -0 0 -1.9785e-05 -0 0 -2.94943e-05 -0 0 -3.89725e-05 -0 0 -4.81281e-05 -0 0 -5.68641e-05 -0 0 -6.50831e-05 -0 0 -7.26935e-05 -0 0 -7.96149e-05 -0 0 -8.57817e-05 -0 0 -9.11446e-05 -0 0 -9.56704e-05 -0 0 -9.9339e-05 -0 0 -0.000102142 -0 0 -0.000104078 -0 0 -0.000105155 -0 0 -0.000105384 -0 0 -0.000104784 -0 0 -0.000103379 -0 0 -0.000101204 -0 0 -9.83034e-05 -0 0 -9.47381e-05 -0 0 -9.05839e-05 -0 0 -8.59335e-05 -0 0 -8.08941e-05 -0 0 -7.55834e-05 -0 0 -7.01223e-05 -0 0 -6.46274e-05 -0 0 -5.9204e-05 -0 0 -5.39402e-05 -0 0 -4.89047e-05 -0 0 0 6.6301e-06 0 -9.94396e-06 6.6067e-06 0 -1.98175e-05 6.53479e-06 0 -2.95454e-05 6.40998e-06 0 -3.90441e-05 6.22657e-06 0 -4.82213e-05 5.97965e-06 0 -5.69791e-05 5.66701e-06 0 -6.52186e-05 5.2904e-06 0 -7.2847e-05 4.85566e-06 0 -7.9783e-05 4.37186e-06 0 -8.59607e-05 3.84977e-06 0 -9.13311e-05 3.30038e-06 0 -9.58611e-05 2.7336e-06 0 -9.95316e-05 2.15771e-06 0 -0.000102334 1.57916e-06 0 -0.000104269 1.00291e-06 0 -0.000105343 4.3293e-07 0 -0.000105569 -1.27079e-07 0 -0.000104963 -6.73006e-07 0 -0.00010355 -1.19965e-06 0 -0.000101365 -1.70019e-06 0 -9.84516e-05 -2.16596e-06 0 -9.48694e-05 -2.58664e-06 0 -9.06946e-05 -2.95097e-06 0 -8.60201e-05 -3.24813e-06 0 -8.09545e-05 -3.4694e-06 0 -7.56167e-05 -3.60997e-06 0 -7.01295e-05 -3.67007e-06 0 -6.46111e-05 -3.65515e-06 0 -5.9168e-05 -3.57508e-06 0 -5.3889e-05 -3.44252e-06 0 -4.88427e-05 -3.27094e-06 0 0 1.32808e-05 0 -9.99072e-06 1.32348e-05 0 -1.99144e-05 1.3093e-05 0 -2.96979e-05 1.2846e-05 0 -3.92581e-05 1.24815e-05 0 -4.8501e-05 1.19887e-05 0 -5.73247e-05 1.13627e-05 0 -6.56264e-05 1.06068e-05 0 -7.33091e-05 9.73322e-06 0 -8.0289e-05 8.76073e-06 0 -8.64993e-05 7.71163e-06 0 -9.18917e-05 6.60838e-06 0 -9.64345e-05 5.47115e-06 0 -0.00010011 4.31651e-06 0 -0.000102913 3.15724e-06 0 -0.000104843 2.00301e-06 0 -0.000105909 8.61454e-07 0 -0.000106123 -2.60355e-07 0 -0.000105501 -1.3545e-06 0 -0.000104066 -2.41079e-06 0 -0.000101851 -3.41573e-06 0 -9.88978e-05 -4.35191e-06 0 -9.5265e-05 -5.19834e-06 0 -9.10281e-05 -5.93192e-06 0 -8.62813e-05 -6.53019e-06 0 -8.1136e-05 -6.97494e-06 0 -7.57162e-05 -7.256e-06 0 -7.01498e-05 -7.37371e-06 0 -6.45604e-05 -7.33941e-06 0 -5.90579e-05 -7.17355e-06 0 -5.37332e-05 -6.90229e-06 0 -4.86549e-05 -6.55326e-06 0 0 1.99721e-05 0 -1.0067e-05 1.99051e-05 0 -2.0073e-05 1.96979e-05 0 -2.99491e-05 1.93344e-05 0 -3.96128e-05 1.87938e-05 0 -4.89668e-05 1.80575e-05 0 -5.79029e-05 1.71165e-05 0 -6.63101e-05 1.59759e-05 0 -7.40846e-05 1.46549e-05 0 -8.11381e-05 1.31837e-05 0 -8.74026e-05 1.15974e-05 0 -9.28307e-05 9.93129e-06 0 -9.73938e-05 8.21623e-06 0 -0.000101078 6.47719e-06 0 -0.000103879 4.73298e-06 0 -0.000105802 2.99743e-06 0 -0.000106855 1.28125e-06 0 -0.000107049 -4.05805e-07 0 -0.0001064 -2.05262e-06 0 -0.00010493 -3.64454e-06 0 -0.000102665 -5.16163e-06 0 -9.96472e-05 -6.57763e-06 0 -9.59303e-05 -7.86022e-06 0 -9.15893e-05 -8.97324e-06 0 -8.67202e-05 -9.88091e-06 0 -8.14401e-05 -1.05538e-05 0 -7.58805e-05 -1.09752e-05 0 -7.01797e-05 -1.11454e-05 0 -6.44699e-05 -1.10824e-05 0 -5.88677e-05 -1.0819e-05 0 -5.34668e-05 -1.03964e-05 0 -4.83358e-05 -9.85802e-06 0 0 2.67224e-05 0 -1.01698e-05 2.66372e-05 0 -2.02885e-05 2.63719e-05 0 -3.02938e-05 2.59017e-05 0 -4.01045e-05 2.51936e-05 0 -4.96182e-05 2.4218e-05 0 -5.87161e-05 2.29599e-05 0 -6.72755e-05 2.14258e-05 0 -7.51813e-05 1.96437e-05 0 -8.23388e-05 1.76577e-05 0 -8.86782e-05 1.55185e-05 0 -9.41547e-05 1.32756e-05 0 -9.8744e-05 1.09716e-05 0 -0.000102438 8.63989e-06 0 -0.000105236 6.30469e-06 0 -0.000107148 3.98321e-06 0 -0.000108181 1.68818e-06 0 -0.000108349 -5.68947e-07 0 -0.000107665 -2.77484e-06 0 -0.000106146 -4.9112e-06 0 -0.000103816 -6.95213e-06 0 -0.000100708 -8.8624e-06 0 -9.68738e-05 -1.05975e-05 0 -9.23859e-05 -1.21062e-05 0 -8.73425e-05 -1.33367e-05 0 -8.18681e-05 -1.42454e-05 0 -7.61074e-05 -1.48071e-05 0 -7.02127e-05 -1.50215e-05 0 -6.43305e-05 -1.4915e-05 0 -5.85866e-05 -1.45352e-05 0 -5.30791e-05 -1.39417e-05 0 -4.78758e-05 -1.31955e-05 0 0 3.35474e-05 0 -1.02948e-05 3.34483e-05 0 -2.05534e-05 3.31366e-05 0 -3.07238e-05 3.25749e-05 0 -4.07273e-05 3.1713e-05 0 -5.0454e-05 3.05052e-05 0 -5.97704e-05 2.89272e-05 0 -6.85332e-05 2.69867e-05 0 -7.66128e-05 2.47235e-05 0 -8.39052e-05 2.21996e-05 0 -9.03394e-05 1.94852e-05 0 -9.58746e-05 1.66466e-05 0 -0.000100494 1.37389e-05 0 -0.000104196 1.08037e-05 0 -0.000106989 7.87007e-06 0 -0.000108884 4.95715e-06 0 -0.000109894 2.07837e-06 0 -0.000110029 -7.54587e-07 0 -0.000109302 -3.52754e-06 0 -0.000107725 -6.21976e-06 0 -0.000105313 -8.80017e-06 0 -0.000102094 -1.12247e-05 0 -9.81102e-05 -1.34353e-05 0 -9.34316e-05 -1.53632e-05 0 -8.81582e-05 -1.69364e-05 0 -8.24249e-05 -1.80927e-05 0 -7.63934e-05 -1.87947e-05 0 -7.02392e-05 -1.90414e-05 0 -6.41279e-05 -1.88697e-05 0 -5.81988e-05 -1.83465e-05 0 -5.25548e-05 -1.75542e-05 0 -4.72615e-05 -1.65748e-05 0 0 4.04592e-05 0 -1.04351e-05 4.03526e-05 0 -2.08558e-05 4.00118e-05 0 -3.12263e-05 3.93817e-05 0 -4.14718e-05 3.83873e-05 0 -5.1472e-05 3.69588e-05 0 -6.10685e-05 3.50574e-05 0 -7.00941e-05 3.26923e-05 0 -7.83938e-05 2.99196e-05 0 -8.58528e-05 2.6826e-05 0 -9.23993e-05 2.35065e-05 0 -9.80003e-05 2.00474e-05 0 -0.00010265 1.65176e-05 0 -0.000106357 1.29664e-05 0 -0.000109138 9.42591e-06 0 -0.000111012 5.91582e-06 0 -0.000111992 2.44832e-06 0 -0.000112091 -9.6653e-07 0 -0.000111316 -4.31557e-06 0 -0.000109672 -7.57728e-06 0 -0.000107168 -1.07167e-05 0 -0.000103818 -1.36813e-05 0 -9.96554e-05 -1.63985e-05 0 -9.47415e-05 -1.87784e-05 0 -8.91781e-05 -2.07228e-05 0 -8.31123e-05 -2.21438e-05 0 -7.67334e-05 -2.29869e-05 0 -7.0245e-05 -2.32488e-05 0 -6.38423e-05 -2.29814e-05 0 -5.76823e-05 -2.22776e-05 0 -5.18729e-05 -2.12489e-05 0 -4.64749e-05 -2.0003e-05 0 0 4.74638e-05 0 -1.05805e-05 4.73589e-05 0 -2.11785e-05 4.70144e-05 0 -3.17816e-05 4.63506e-05 0 -4.23232e-05 4.52563e-05 0 -5.26683e-05 4.36254e-05 0 -6.26278e-05 4.13963e-05 0 -7.19844e-05 3.85806e-05 0 -8.05563e-05 3.52588e-05 0 -8.82128e-05 3.15522e-05 0 -9.4886e-05 2.75888e-05 0 -0.000100555 2.34787e-05 0 -0.00010523 1.9305e-05 0 -0.000108934 1.51236e-05 0 -0.000111696 1.09678e-05 0 -0.000113541 6.85544e-06 0 -0.000114487 2.79505e-06 0 -0.000114546 -1.20727e-06 0 -0.00011372 -5.14167e-06 0 -0.000112008 -8.98816e-06 0 -0.000109404 -1.27099e-05 0 -0.00010591 -1.62469e-05 0 -0.000101542 -1.95112e-05 0 -9.63479e-05 -2.23875e-05 0 -9.0428e-05 -2.47435e-05 0 -8.39464e-05 -2.64548e-05 0 -7.71214e-05 -2.74405e-05 0 -7.02106e-05 -2.76937e-05 0 -6.3446e-05 -2.7288e-05 0 -5.70075e-05 -2.6353e-05 0 -5.10061e-05 -2.50388e-05 0 -4.54934e-05 -2.34844e-05 0 0 5.45588e-05 0 -1.07168e-05 5.44688e-05 0 -2.14956e-05 5.41573e-05 0 -3.23608e-05 5.35109e-05 0 -4.32586e-05 5.23665e-05 0 -5.40351e-05 5.05614e-05 0 -6.44415e-05 4.79998e-05 0 -7.42157e-05 4.4696e-05 0 -8.31164e-05 4.07692e-05 0 -9.10008e-05 3.63916e-05 0 -9.78083e-05 3.17347e-05 0 -0.00010354 2.69366e-05 0 -0.000108229 2.20946e-05 0 -0.000111918 1.72685e-05 0 -0.000114649 1.249e-05 0 -0.000116457 7.77181e-06 0 -0.000117364 3.11616e-06 0 -0.000117382 -1.47764e-06 0 -0.000116507 -6.00594e-06 0 -0.000114728 -1.04532e-05 0 -0.000112026 -1.47837e-05 0 -0.00010838 -1.89321e-05 0 -0.000103785 -2.27954e-05 0 -9.8268e-05 -2.62283e-05 0 -9.19201e-05 -2.90532e-05 0 -8.49195e-05 -3.10923e-05 0 -7.75467e-05 -3.22236e-05 0 -7.01079e-05 -3.24347e-05 0 -6.29012e-05 -3.18308e-05 0 -5.61348e-05 -3.05963e-05 0 -4.992e-05 -2.89334e-05 0 -4.42895e-05 -2.70191e-05 0 0 6.17298e-05 0 -1.08229e-05 6.1673e-05 0 -2.17708e-05 6.14464e-05 0 -3.2919e-05 6.08925e-05 0 -4.42425e-05 5.97735e-05 0 -5.55646e-05 5.7842e-05 0 -6.6574e-05 5.49396e-05 0 -7.68664e-05 5.10911e-05 0 -8.61627e-05 4.64795e-05 0 -9.42984e-05 4.13533e-05 0 -0.000101239 3.59409e-05 0 -0.000107018 3.04121e-05 0 -0.000111701 2.48755e-05 0 -0.000115355 1.93912e-05 0 -0.000118041 1.39848e-05 0 -0.000119801 8.66024e-06 0 -0.000120665 3.41002e-06 0 -0.000120642 -1.77648e-06 0 -0.000119723 -6.90512e-06 0 -0.000117887 -1.19686e-05 0 -0.000115095 -1.69362e-05 0 -0.000111303 -2.17418e-05 0 -0.00010647 -2.62688e-05 0 -0.000100592 -3.03389e-05 0 -9.37337e-05 -3.3715e-05 0 -8.60961e-05 -3.61399e-05 0 -7.79998e-05 -3.74245e-05 0 -6.9897e-05 -3.75416e-05 0 -6.21546e-05 -3.66548e-05 0 -5.50134e-05 -3.50286e-05 0 -4.85712e-05 -3.2937e-05 0 -4.28309e-05 -3.06013e-05 0 0 6.8946e-05 0 -1.08718e-05 6.89468e-05 0 -2.19502e-05 6.88767e-05 0 -3.33921e-05 6.85235e-05 0 -4.52187e-05 6.75485e-05 0 -5.72284e-05 6.55583e-05 0 -6.89491e-05 6.23077e-05 0 -7.99069e-05 5.7829e-05 0 -8.96627e-05 5.24171e-05 0 -9.8066e-05 4.64387e-05 0 -0.00010512 4.01956e-05 0 -0.000110917 3.38883e-05 0 -0.000115563 2.76315e-05 0 -0.000119156 2.14782e-05 0 -0.000121776 1.54426e-05 0 -0.000123477 9.51546e-06 0 -0.000124293 3.67582e-06 0 -0.000124232 -2.10034e-06 0 -0.000123281 -7.83203e-06 0 -0.000121404 -1.35246e-05 0 -0.000118544 -1.91581e-05 0 -0.000114623 -2.46718e-05 0 -0.000109559 -2.99417e-05 0 -0.000103289 -3.47567e-05 0 -9.5841e-05 -3.88031e-05 0 -8.74011e-05 -4.17024e-05 0 -7.84517e-05 -4.31488e-05 0 -6.9518e-05 -4.31024e-05 0 -6.11339e-05 -4.18067e-05 0 -5.35751e-05 -3.9665e-05 0 -4.69088e-05 -3.7045e-05 0 -4.10811e-05 -3.4217e-05 0 0 7.61553e-05 0 -1.08246e-05 7.62445e-05 0 -2.19637e-05 7.64251e-05 0 -3.3679e-05 7.64292e-05 0 -4.60973e-05 7.57766e-05 0 -5.90203e-05 7.38702e-05 0 -7.18559e-05 7.02402e-05 0 -8.36384e-05 6.49841e-05 0 -9.39317e-05 5.86018e-05 0 -0.000102587 5.16361e-05 0 -0.000109716 4.44739e-05 0 -0.00011548 3.7339e-05 0 -0.000120045 3.03393e-05 0 -0.000123541 2.35117e-05 0 -0.000126071 1.68516e-05 0 -0.000127699 1.03317e-05 0 -0.000128462 3.91365e-06 0 -0.000128369 -2.44321e-06 0 -0.000127402 -8.77504e-06 0 -0.00012551 -1.51046e-05 0 -0.000122616 -2.143e-05 0 -0.000118606 -2.77052e-05 0 -0.000113339 -3.38113e-05 0 -0.000106679 -3.95113e-05 0 -9.85462e-05 -4.44036e-05 0 -8.91255e-05 -4.79293e-05 0 -7.88966e-05 -4.95724e-05 0 -6.88792e-05 -4.92206e-05 0 -5.9732e-05 -4.73338e-05 0 -5.17364e-05 -4.45079e-05 0 -4.48701e-05 -4.12396e-05 0 -3.9e-05 -3.78422e-05 0 0 8.32758e-05 0 -1.06387e-05 8.34914e-05 0 -2.17095e-05 8.40426e-05 0 -3.36416e-05 8.46126e-05 0 -4.67268e-05 8.45835e-05 0 -6.082e-05 8.29331e-05 0 -7.48392e-05 7.89099e-05 0 -8.77272e-05 7.26408e-05 0 -9.85783e-05 6.50364e-05 0 -0.000107446 5.69113e-05 0 -0.000114565 4.87343e-05 0 -0.000120225 4.07258e-05 0 -0.000124648 3.29685e-05 0 -0.000128005 2.54694e-05 0 -0.000130414 1.81977e-05 0 -0.000131953 1.11024e-05 0 -0.00013266 4.1246e-06 0 -0.000132544 -2.79658e-06 0 -0.000131581 -9.71765e-06 0 -0.00012971 -1.66844e-05 0 -0.000126832 -2.37202e-05 0 -0.000122794 -3.08079e-05 0 -0.000117396 -3.78516e-05 0 -0.000110373 -4.46155e-05 0 -0.00010152 -5.06126e-05 0 -9.0818e-05 -5.50076e-05 0 -7.92174e-05 -5.68677e-05 0 -6.78298e-05 -5.60433e-05 0 -5.78074e-05 -5.32649e-05 0 -4.93858e-05 -4.95397e-05 0 -4.23911e-05 -4.54836e-05 0 -3.65487e-05 -4.14369e-05 0 0 9.01999e-05 0 -1.02544e-05 9.05785e-05 0 -2.10767e-05 9.16311e-05 0 -3.30605e-05 9.30507e-05 0 -4.68471e-05 9.40774e-05 0 -6.26718e-05 9.3246e-05 0 -7.92949e-05 8.86486e-05 0 -9.35109e-05 8.08736e-05 0 -0.000104932 7.1681e-05 0 -0.000113862 6.21978e-05 0 -0.000120857 5.29119e-05 0 -0.000126307 4.39975e-05 0 -0.000130515 3.54806e-05 0 -0.000133679 2.73254e-05 0 -0.000135936 1.94648e-05 0 -0.000137366 1.18209e-05 0 -0.000138014 4.31051e-06 0 -0.000137886 -3.14931e-06 0 -0.000136953 -1.0639e-05 0 -0.000135148 -1.82311e-05 0 -0.000132351 -2.59839e-05 0 -0.000128382 -3.39219e-05 0 -0.000122956 -4.20044e-05 0 -0.000115707 -5.00391e-05 0 -0.000106105 -5.75162e-05 0 -9.38803e-05 -6.32833e-05 0 -7.94634e-05 -6.55516e-05 0 -6.61136e-05 -6.37011e-05 0 -5.51417e-05 -5.96059e-05 0 -4.6407e-05 -5.46991e-05 0 -3.93962e-05 -4.97149e-05 0 -3.36905e-05 -4.49517e-05 0 0 9.67691e-05 0 -9.63383e-06 9.73524e-05 0 -1.99125e-05 9.90476e-05 0 -3.16868e-05 0.00010159 0 -4.59869e-05 0.000104438 0 -6.39181e-05 0.000105079 0 -8.29743e-05 9.97872e-05 0 -9.89159e-05 8.9692e-05 0 -0.000110592 7.84252e-05 0 -0.000119398 6.7377e-05 0 -0.00012606 5.69199e-05 0 -0.000131184 4.70879e-05 0 -0.000135084 3.78315e-05 0 -0.000137999 2.90492e-05 0 -0.000140064 2.06358e-05 0 -0.000141369 1.24799e-05 0 -0.000141954 4.4743e-06 0 -0.000141825 -3.48872e-06 0 -0.000140954 -1.15136e-05 0 -0.000139264 -1.97055e-05 0 -0.000136635 -2.81605e-05 0 -0.000132841 -3.69672e-05 0 -0.000127586 -4.61588e-05 0 -0.000120285 -5.56806e-05 0 -0.000110235 -6.5135e-05 0 -9.60716e-05 -7.31014e-05 0 -7.89854e-05 -7.59126e-05 0 -6.32671e-05 -7.23975e-05 0 -5.1492e-05 -6.62347e-05 0 -4.26493e-05 -5.9885e-05 0 -3.58406e-05 -5.38362e-05 0 -3.04029e-05 -4.83031e-05 0 0 0.000102829 0 -8.70237e-06 0.000103635 0 -1.8146e-05 0.000106027 0 -2.91537e-05 0.000110035 0 -4.33674e-05 0.000115267 0 -6.44917e-05 0.000120925 0 -9.25913e-05 0.000113296 0 -0.000109459 9.88509e-05 0 -0.000121111 8.50231e-05 0 -0.000129278 7.22875e-05 0 -0.000135442 6.06403e-05 0 -0.000140058 4.99236e-05 0 -0.000143567 3.99697e-05 0 -0.000146164 3.06098e-05 0 -0.000148004 2.16919e-05 0 -0.000149163 1.30726e-05 0 -0.000149683 4.61892e-06 0 -0.000149568 -3.80013e-06 0 -0.000148788 -1.23144e-05 0 -0.000147276 -2.10609e-05 0 -0.000144889 -3.01815e-05 0 -0.000141446 -3.98314e-05 0 -0.000136518 -5.01601e-05 0 -0.000129669 -6.13027e-05 0 -0.000119436 -7.32346e-05 0 -0.000104116 -8.5446e-05 0 -7.77276e-05 -9.04607e-05 0 -5.85239e-05 -8.17578e-05 0 -4.65042e-05 -7.29875e-05 0 -3.80531e-05 -6.48768e-05 0 -3.1656e-05 -5.77322e-05 0 -2.66768e-05 -5.14266e-05 0 0 0.000108217 0 -7.48241e-06 0.00010922 0 -1.56636e-05 0.000112247 0 -2.53335e-05 0.000117976 0 -3.81272e-05 0.000125488 0 -5.77802e-05 0.000140087 0 -8.44335e-05 0.000128106 0 -9.99476e-05 0.00010764 0 -0.000110413 9.10933e-05 0 -0.000117582 7.67241e-05 0 -0.000122935 6.39373e-05 0 -0.000126906 5.2426e-05 0 -0.000129916 4.18415e-05 0 -0.00013214 3.19764e-05 0 -0.000133716 2.26146e-05 0 -0.000134712 1.35926e-05 0 -0.000135164 4.74736e-06 0 -0.000135076 -4.06839e-06 0 -0.000134419 -1.30144e-05 0 -0.000133136 -2.22474e-05 0 -0.000131095 -3.19729e-05 0 -0.000128132 -4.23837e-05 0 -0.000123838 -5.38091e-05 0 -0.00011779 -6.65314e-05 0 -0.000108526 -8.11144e-05 0 -9.43139e-05 -9.92599e-05 0 -6.90925e-05 -0.000108517 0 -5.10399e-05 -9.07281e-05 0 -4.00702e-05 -7.9487e-05 0 -3.25262e-05 -6.93979e-05 0 -2.68871e-05 -6.12621e-05 0 -2.25331e-05 -5.42594e-05 0 0 0.000112665 0 -5.99386e-06 0.00011386 0 -1.24995e-05 0.000117501 0 -2.02658e-05 0.000124579 0 -3.02915e-05 0.000134373 0 -4.3774e-05 0.000153952 0 -5.84183e-05 0.000139718 0 -7.02771e-05 0.000115092 0 -7.83785e-05 9.62324e-05 0 -8.41951e-05 8.04332e-05 0 -8.8431e-05 6.66943e-05 0 -9.1632e-05 5.4506e-05 0 -9.40428e-05 4.34034e-05 0 -9.58439e-05 3.31165e-05 0 -9.71244e-05 2.33894e-05 0 -9.79435e-05 1.40328e-05 0 -9.83261e-05 4.8641e-06 0 -9.82752e-05 -4.28171e-06 0 -9.77713e-05 -1.35838e-05 0 -9.67614e-05 -2.32245e-05 0 -9.51624e-05 -3.34489e-05 0 -9.28004e-05 -4.45116e-05 0 -8.94386e-05 -5.68574e-05 0 -8.45401e-05 -7.09695e-05 0 -7.74121e-05 -8.78146e-05 0 -6.65973e-05 -0.000110056 0 -5.30884e-05 -0.00012148 0 -4.08623e-05 -9.86011e-05 0 -3.22563e-05 -8.49276e-05 0 -2.61357e-05 -7.32825e-05 0 -2.15936e-05 -6.4243e-05 0 -1.80204e-05 -5.66298e-05 0 0 0.000116038 0 -4.25434e-06 0.000117374 0 -8.84234e-06 0.00012148 0 -1.41628e-05 0.000129431 0 -2.07818e-05 0.000140808 0 -2.90813e-05 0.000161786 0 -3.82518e-05 0.000147018 0 -4.55567e-05 0.00012047 0 -5.09899e-05 0.000100056 0 -5.49486e-05 8.32201e-05 0 -5.79331e-05 6.8789e-05 0 -6.02122e-05 5.60983e-05 0 -6.19688e-05 4.46118e-05 0 -6.32979e-05 3.40068e-05 0 -6.42613e-05 2.40024e-05 0 -6.48909e-05 1.43889e-05 0 -6.52029e-05 4.97147e-06 0 -6.51991e-05 -4.42816e-06 0 -6.48666e-05 -1.40015e-05 0 -6.41768e-05 -2.39512e-05 0 -6.30714e-05 -3.45469e-05 0 -6.1459e-05 -4.6096e-05 0 -5.91604e-05 -5.91136e-05 0 -5.59114e-05 -7.42369e-05 0 -5.12175e-05 -9.2605e-05 0 -4.46893e-05 -0.000116727 0 -3.6345e-05 -0.000128633 0 -2.8939e-05 -0.00010428 0 -2.33084e-05 -8.89223e-05 0 -1.91132e-05 -7.62598e-05 0 -1.585e-05 -6.65482e-05 0 -1.3214e-05 -5.8491e-05 0 0 0.000118235 0 -2.38573e-06 0.000119636 0 -4.8486e-06 0.000123957 0 -7.50541e-06 0.000132329 0 -1.04673e-05 0.000144339 0 -1.37571e-05 0.000165913 0 -1.69424e-05 0.000150854 0 -1.99464e-05 0.000123478 0 -2.23492e-05 0.000102318 0 -2.43004e-05 8.49463e-05 0 -2.58791e-05 7.01336e-05 0 -2.71769e-05 5.71559e-05 0 -2.8229e-05 4.54365e-05 0 -2.90643e-05 3.46308e-05 0 -2.96945e-05 2.44439e-05 0 -3.01283e-05 1.46579e-05 0 -3.0369e-05 5.07119e-06 0 -3.04171e-05 -4.49957e-06 0 -3.02703e-05 -1.42525e-05 0 -2.99211e-05 -2.43984e-05 0 -2.93581e-05 -3.52214e-05 0 -2.85529e-05 -4.70506e-05 0 -2.747e-05 -6.04416e-05 0 -2.60177e-05 -7.6091e-05 0 -2.41164e-05 -9.51934e-05 0 -2.16168e-05 -0.000120128 0 -1.89405e-05 -0.000132303 0 -1.61695e-05 -0.000107323 0 -1.37464e-05 -9.12849e-05 0 -1.1667e-05 -7.81296e-05 0 -9.8493e-06 -6.80934e-05 0 -8.21896e-06 -5.98074e-05 0 0 0.000119194 0 -4.75995e-07 0.000120579 0 -7.82082e-07 0.00012485 0 -6.95971e-07 0.000133139 0 2.29406e-08 0.000145011 0 1.48245e-06 0.000166504 0 3.12407e-06 0.000151396 0 4.46842e-06 0.000124054 0 5.08982e-06 0.000102921 0 5.22864e-06 8.55411e-05 0 5.07281e-06 7.06894e-05 0 4.78268e-06 5.76543e-05 0 4.44177e-06 4.58644e-05 0 4.10821e-06 3.49804e-05 0 3.81349e-06 2.471e-05 0 3.57732e-06 1.48379e-05 0 3.40827e-06 5.16426e-06 0 3.3069e-06 -4.49256e-06 0 3.26585e-06 -1.43291e-05 0 3.26698e-06 -2.45537e-05 0 3.28096e-06 -3.54484e-05 0 3.25261e-06 -4.73373e-05 0 3.10246e-06 -6.07713e-05 0 2.67547e-06 -7.64351e-05 0 1.79036e-06 -9.55189e-05 0 2.14774e-07 -0.000120431 0 -1.6167e-06 -0.000132667 0 -3.21568e-06 -0.000107782 0 -4.01572e-06 -9.18936e-05 0 -4.11855e-06 -7.88266e-05 0 -3.75936e-06 -6.88353e-05 0 -3.14945e-06 -6.05506e-05 0 0 0.000118921 0 1.35411e-06 0.000120216 0 3.12239e-06 0.000124183 0 5.81811e-06 0.00013187 0 1.01439e-05 0.000142858 0 1.66354e-05 0.000163367 0 2.41763e-05 0.000148578 0 2.98573e-05 0.00012221 0 3.34408e-05 0.000101885 0 3.55485e-05 8.50157e-05 0 3.67631e-05 7.04658e-05 0 3.7436e-05 5.75983e-05 0 3.77855e-05 4.58992e-05 0 3.79379e-05 3.50575e-05 0 3.79711e-05 2.48021e-05 0 3.79285e-05 1.49294e-05 0 3.78308e-05 5.25041e-06 0 3.76798e-05 -4.4084e-06 0 3.74578e-05 -1.42331e-05 0 3.71256e-05 -2.44207e-05 0 3.66101e-05 -3.52324e-05 0 3.5791e-05 -4.69649e-05 0 3.4458e-05 -6.0113e-05 0 3.22698e-05 -7.52877e-05 0 2.86568e-05 -9.35927e-05 0 2.30137e-05 -0.000117568 0 1.5598e-05 -0.000129534 0 9.34273e-06 -0.000105693 0 5.39087e-06 -9.07592e-05 0 3.23702e-06 -7.83779e-05 0 2.21605e-06 -6.87919e-05 0 1.87207e-06 -6.07307e-05 0 0 0.000117521 0 3.01387e-06 0.000118643 0 6.61558e-06 0.000122059 0 1.16227e-05 0.000128731 0 1.92158e-05 0.000137791 0 3.11623e-05 0.000156521 0 4.54806e-05 0.000142253 0 5.56132e-05 0.000118048 0 6.17739e-05 9.93397e-05 0 6.56232e-05 8.34706e-05 0 6.80388e-05 6.95147e-05 0 6.95902e-05 5.70246e-05 0 7.05707e-05 4.55599e-05 0 7.1178e-05 3.48751e-05 0 7.15193e-05 2.47259e-05 0 7.16616e-05 1.4935e-05 0 7.16346e-05 5.32763e-06 0 7.14409e-05 -4.25231e-06 0 7.10562e-05 -1.39767e-05 0 7.04197e-05 -2.40171e-05 0 6.94313e-05 -3.46084e-05 0 6.79026e-05 -4.59834e-05 0 6.55516e-05 -5.85646e-05 0 6.18238e-05 -7.2776e-05 0 5.58605e-05 -8.95119e-05 0 4.6026e-05 -0.000111389 0 3.21377e-05 -0.000122917 0 2.07911e-05 -0.00010096 0 1.40136e-05 -8.80858e-05 0 1.00909e-05 -7.68806e-05 0 7.90669e-06 -6.80477e-05 0 6.73508e-06 -6.04241e-05 0 0 0.000115084 0 4.39515e-06 0.000116004 0 9.54502e-06 0.000118771 0 1.62704e-05 0.000123906 0 2.63124e-05 0.000130608 0 4.37525e-05 0.000142727 0 6.91158e-05 0.000131414 0 8.23965e-05 0.000111971 0 9.06779e-05 9.55858e-05 0 9.57426e-05 8.10574e-05 0 9.91919e-05 6.79443e-05 0 0.000101459 5.59857e-05 0 0.000103003 4.48851e-05 0 0.00010401 3.44523e-05 0 0.000104635 2.44939e-05 0 0.000104948 1.48578e-05 0 0.00010499 5.39399e-06 0 0.000104766 -4.03526e-06 0 0.000104241 -1.35774e-05 0 0.000103352 -2.33793e-05 0 0.000101954 -3.36264e-05 0 9.98731e-05 -4.44975e-05 0 9.66649e-05 -5.62735e-05 0 9.19151e-05 -6.91945e-05 0 8.40473e-05 -8.3675e-05 0 7.13112e-05 -0.000100879 0 4.66653e-05 -0.000109567 0 3.01687e-05 -9.43704e-05 0 2.13606e-05 -8.40437e-05 0 1.62344e-05 -7.4611e-05 0 1.31335e-05 -6.67165e-05 0 1.13444e-05 -5.96712e-05 0 0 0.000111801 0 5.49322e-06 0.00011251 0 1.17395e-05 0.000114601 0 1.96093e-05 0.000117975 0 3.06521e-05 0.000122309 0 4.8055e-05 0.000125672 0 7.12753e-05 0.000118469 0 8.52335e-05 0.000104822 0 9.43233e-05 9.10246e-05 0 0.000100271 7.79987e-05 0 0.000104414 6.5879e-05 0 0.00010727 5.45586e-05 0 0.000109267 4.39202e-05 0 0.000110621 3.3817e-05 0 0.000111491 2.41209e-05 0 0.000111959 1.47032e-05 0 0.00011207 5.44589e-06 0 0.000111827 -3.77013e-06 0 0.000111196 -1.30608e-05 0 0.000110102 -2.25504e-05 0 0.000108401 -3.23601e-05 0 0.000105889 -4.26273e-05 0 0.000102154 -5.34566e-05 0 9.67045e-05 -6.49377e-05 0 8.823e-05 -7.69137e-05 0 7.50444e-05 -8.84321e-05 0 5.28056e-05 -9.31569e-05 0 3.66608e-05 -8.69077e-05 0 2.72369e-05 -7.91928e-05 0 2.14438e-05 -7.1826e-05 0 1.78328e-05 -6.4977e-05 0 1.56356e-05 -5.85906e-05 0 0 0.000107943 0 6.28043e-06 0.000108417 0 1.32143e-05 0.000109776 0 2.16332e-05 0.000111749 0 3.24789e-05 0.000113661 0 4.6509e-05 0.000113394 0 6.13219e-05 0.000107673 0 7.39395e-05 9.75569e-05 0 8.28707e-05 8.60652e-05 0 8.92802e-05 7.4551e-05 0 9.38335e-05 6.34426e-05 0 9.71224e-05 5.28364e-05 0 9.94646e-05 4.27132e-05 0 0.000101104 3.30038e-05 0 0.00010218 2.36229e-05 0 0.000102785 1.44787e-05 0 0.000102962 5.4783e-06 0 0.000102715 -3.47048e-06 0 0.000102012 -1.24587e-05 0 0.000100772 -2.15746e-05 0 9.88681e-05 -3.08983e-05 0 9.60724e-05 -4.04915e-05 0 9.20864e-05 -5.03634e-05 0 8.63439e-05 -6.04051e-05 0 7.82126e-05 -7.01718e-05 0 6.65725e-05 -7.82883e-05 0 5.29753e-05 -8.17035e-05 0 4.04804e-05 -7.93124e-05 0 3.15948e-05 -7.43179e-05 0 2.56852e-05 -6.87248e-05 0 2.19293e-05 -6.30484e-05 0 1.95754e-05 -5.74038e-05 0 0 0.000103651 0 6.75783e-06 0.000103923 0 1.40801e-05 0.00010465 0 2.254e-05 0.000105507 0 3.27141e-05 0.000105778 0 4.4747e-05 0.000104052 0 5.75598e-05 9.89346e-05 0 6.84201e-05 9.07758e-05 0 7.69494e-05 8.10764e-05 0 8.33557e-05 7.09068e-05 0 8.81439e-05 6.07785e-05 0 9.16879e-05 5.08966e-05 0 9.4288e-05 4.13219e-05 0 9.6142e-05 3.20441e-05 0 9.73885e-05 2.302e-05 0 9.81106e-05 1.419e-05 0 9.83511e-05 5.48805e-06 0 9.81156e-05 -3.1534e-06 0 9.73722e-05 -1.17992e-05 0 9.605e-05 -2.05061e-05 0 9.40245e-05 -2.93137e-05 0 9.11145e-05 -3.82268e-05 0 8.70407e-05 -4.71784e-05 0 8.14562e-05 -5.59551e-05 0 7.38916e-05 -6.40358e-05 0 6.41873e-05 -7.03372e-05 0 5.27885e-05 -7.33415e-05 0 4.25208e-05 -7.2669e-05 0 3.45914e-05 -6.96632e-05 0 2.90179e-05 -6.56326e-05 0 2.53811e-05 -6.11083e-05 0 2.31591e-05 -5.61835e-05 0 0 9.91083e-05 0 6.99853e-06 9.92165e-05 0 1.44238e-05 9.94461e-05 0 2.26886e-05 9.94896e-05 0 3.20616e-05 9.87473e-05 0 4.23987e-05 9.63558e-05 0 5.27678e-05 9.15989e-05 0 6.22838e-05 8.46397e-05 0 7.01473e-05 7.62662e-05 0 7.63831e-05 6.72292e-05 0 8.12053e-05 5.79974e-05 0 8.48891e-05 4.88169e-05 0 8.76519e-05 3.97969e-05 0 8.96641e-05 3.09709e-05 0 9.10426e-05 2.23304e-05 0 9.18636e-05 1.38443e-05 0 9.21657e-05 5.47104e-06 0 9.19547e-05 -2.83397e-06 0 9.12038e-05 -1.11116e-05 0 8.98497e-05 -1.9391e-05 0 8.77902e-05 -2.76786e-05 0 8.48722e-05 -3.59378e-05 0 8.08996e-05 -4.4056e-05 0 7.56248e-05 -5.17841e-05 0 6.88698e-05 -5.86506e-05 0 6.06589e-05 -6.39025e-05 0 5.18611e-05 -6.675e-05 0 4.34623e-05 -6.70253e-05 0 3.65453e-05 -6.54239e-05 0 3.14676e-05 -6.27353e-05 0 2.82085e-05 -5.93386e-05 0 2.6407e-05 -5.51702e-05 0 0 9.44596e-05 0 7.04365e-06 9.44443e-05 0 1.43965e-05 9.43115e-05 0 2.23159e-05 9.37995e-05 0 3.0928e-05 9.24645e-05 0 4.00677e-05 8.9748e-05 0 4.92308e-05 8.528e-05 0 5.76118e-05 7.91242e-05 0 6.48302e-05 7.17346e-05 0 7.07601e-05 6.36256e-05 0 7.55059e-05 5.5187e-05 0 7.9225e-05 4.66617e-05 0 8.20786e-05 3.81835e-05 0 8.41958e-05 2.98141e-05 0 8.56737e-05 2.15716e-05 0 8.65761e-05 1.34483e-05 0 8.69372e-05 5.42392e-06 0 8.67631e-05 -2.52616e-06 0 8.60316e-05 -1.0422e-05 0 8.46924e-05 -1.82703e-05 0 8.26631e-05 -2.6052e-05 0 7.9832e-05 -3.37047e-05 0 7.6059e-05 -4.10945e-05 0 7.12135e-05 -4.79798e-05 0 6.52258e-05 -5.3975e-05 0 5.82688e-05 -5.85741e-05 0 5.07904e-05 -6.13385e-05 0 4.36968e-05 -6.22278e-05 0 3.76551e-05 -6.16386e-05 0 3.31048e-05 -6.01254e-05 0 3.03473e-05 -5.7919e-05 0 2.93764e-05 -5.45364e-05 0 0 8.98177e-05 0 6.95164e-06 8.97148e-05 0 1.41071e-05 8.93344e-05 0 2.16238e-05 8.84702e-05 0 2.95395e-05 8.67969e-05 0 3.76973e-05 8.39632e-05 0 4.57162e-05 7.97341e-05 0 5.31995e-05 7.41582e-05 0 5.97933e-05 6.75142e-05 0 6.53767e-05 6.01607e-05 0 6.99658e-05 5.24091e-05 0 7.3651e-05 4.4482e-05 0 7.65361e-05 3.65194e-05 0 7.87161e-05 2.85996e-05 0 8.02648e-05 2.0759e-05 0 8.12337e-05 1.30083e-05 0 8.16511e-05 5.34395e-06 0 8.15232e-05 -2.24174e-06 0 8.0834e-05 -9.75215e-06 0 7.95454e-05 -1.71767e-05 0 7.7598e-05 -2.44792e-05 0 7.49137e-05 -3.15825e-05 0 7.14091e-05 -3.83494e-05 0 6.70181e-05 -4.45628e-05 0 6.17565e-05 -4.99214e-05 0 5.57871e-05 -5.40847e-05 0 4.95226e-05 -5.68054e-05 0 4.34498e-05 -5.80873e-05 0 3.80988e-05 -5.82528e-05 0 3.39376e-05 -5.77766e-05 0 3.16229e-05 -5.69923e-05 0 3.20301e-05 -5.49146e-05 0 0 8.52599e-05 0 6.76565e-06 8.5101e-05 0 1.36527e-05 8.45665e-05 0 2.0742e-05 8.34962e-05 0 2.803e-05 8.16565e-05 0 3.53895e-05 7.88035e-05 0 4.25801e-05 7.47997e-05 0 4.93003e-05 6.96708e-05 0 5.53301e-05 6.36062e-05 0 6.05499e-05 5.68674e-05 0 6.4942e-05 4.97047e-05 0 6.85445e-05 4.23147e-05 0 7.14192e-05 3.48341e-05 0 7.36286e-05 2.73485e-05 0 7.52254e-05 1.99058e-05 0 7.62482e-05 1.25296e-05 0 7.67193e-05 5.22929e-06 0 7.66449e-05 -1.99005e-06 0 7.60147e-05 -9.11912e-06 0 7.48035e-05 -1.61352e-05 0 7.29723e-05 -2.29916e-05 0 7.04751e-05 -2.96056e-05 0 6.72676e-05 -3.58453e-05 0 6.33353e-05 -4.15231e-05 0 5.87194e-05 -4.64034e-05 0 5.35803e-05 -5.02505e-05 0 4.81704e-05 -5.29187e-05 0 4.288e-05 -5.44561e-05 0 3.80143e-05 -5.51502e-05 0 3.39997e-05 -5.55024e-05 0 3.15098e-05 -5.64873e-05 0 3.46528e-05 -5.76903e-05 0 0 8.08384e-05 0 6.5235e-06 8.06483e-05 0 1.31031e-05 8.00321e-05 0 1.97647e-05 7.88647e-05 0 2.64816e-05 7.6969e-05 0 3.31528e-05 7.41719e-05 0 3.96259e-05 7.03749e-05 0 4.56903e-05 6.56028e-05 0 5.12057e-05 5.99966e-05 0 5.60687e-05 5.37594e-05 0 6.02441e-05 4.70978e-05 0 6.37355e-05 4.01849e-05 0 6.65713e-05 3.31491e-05 0 6.87862e-05 2.60769e-05 0 7.0414e-05 1.90224e-05 0 7.14807e-05 1.20169e-05 0 7.20028e-05 5.07883e-06 0 7.19862e-05 -1.77772e-06 0 7.14269e-05 -8.53511e-06 0 7.03098e-05 -1.51626e-05 0 6.8618e-05 -2.16094e-05 0 6.6325e-05 -2.77913e-05 0 6.34308e-05 -3.35888e-05 0 5.99267e-05 -3.88363e-05 0 5.59148e-05 -4.33501e-05 0 5.14347e-05 -4.69512e-05 0 4.68237e-05 -4.9551e-05 0 4.20063e-05 -5.12226e-05 0 3.77615e-05 -5.21716e-05 0 3.31591e-05 -5.31342e-05 0 2.97396e-05 -5.45571e-05 0 3.3468e-05 -7.05882e-05 0 </DataArray> 
</PointData> 
<Points> 
<DataArray type="Float32" NumberOfComponents="3"> 