<?xml version="1.0"?> 
<VTKFile type="StructuredGrid" version="0.1"> 
<StructuredGrid WholeExtent="0 31 0 31 0 0"> 
<Piece Extent="0 31 0 31 0 0"> 
<PointData>
<DataArray type="Float32" Name="B" format="ascii" NumberOfComponents="3"> 
0 -8.67604e-05 0 6.63145e-06 -8.65483e-05 0 1.33102e-05 -8.58698e-05 0 2.00484e-05 -8.46122e-05 0 2.68216e-05 -8.26179e-05 0 3.3526e-05 -7.97328e-05 0 4.00691e-05 -7.58735e-05 0 4.61535e-05 -7.10635e-05 0 5.17238e-05 -6.54331e-05 0 5.66538e-05 -5.91686e-05 0 6.09184e-05 -5.24628e-05 0 6.45102e-05 -4.54797e-05 0 6.74556e-05 -3.83435e-05 0 6.97829e-05 -3.11404e-05 0 7.15226e-05 -2.39263e-05 0 7.26975e-05 -1.67358e-05 0 7.3323e-05 -9.59146e-06 0 7.34044e-05 -2.51157e-06 0 7.29382e-05 4.48237e-06 0 7.19122e-05 1.13568e-05 0 7.03106e-05 1.80594e-05 0 6.81136e-05 2.45077e-05 0 6.53197e-05 3.05873e-05 0 6.19331e-05 3.61431e-05 0 5.80364e-05 4.10072e-05 0 5.37022e-05 4.50195e-05 0 4.91557e-05 4.81056e-05 0 4.44439e-05 5.03468e-05 0 4.0209e-05 5.19381e-05 0 3.56201e-05 5.36388e-05 0 3.20166e-05 5.58717e-05 0 3.73405e-05 7.41068e-05 0 0 -9.35814e-05 0 7.02749e-06 -9.34175e-05 0 1.41954e-05 -9.28655e-05 0 2.15998e-05 -9.17573e-05 0 2.92449e-05 -8.98554e-05 0 3.69977e-05 -8.68762e-05 0 4.46052e-05 -8.27077e-05 0 5.16917e-05 -7.73521e-05 0 5.80413e-05 -7.102e-05 0 6.35247e-05 -6.39895e-05 0 6.81334e-05 -5.65208e-05 0 7.19155e-05 -4.88122e-05 0 7.49434e-05 -4.10004e-05 0 7.72864e-05 -3.31688e-05 0 7.90024e-05 -2.53643e-05 0 8.01323e-05 -1.76092e-05 0 8.06996e-05 -9.91274e-06 0 8.07101e-05 -2.27963e-06 0 8.01522e-05 5.28128e-06 0 7.89976e-05 1.27485e-05 0 7.7202e-05 2.0077e-05 0 7.4712e-05 2.71863e-05 0 7.14724e-05 3.39451e-05 0 6.74592e-05 4.01642e-05 0 6.27043e-05 4.55985e-05 0 5.73812e-05 4.99947e-05 0 5.17413e-05 5.31847e-05 0 4.62651e-05 5.52364e-05 0 4.12863e-05 5.63901e-05 0 3.73205e-05 5.71445e-05 0 3.50726e-05 5.80423e-05 0 3.69985e-05 5.79337e-05 0 0 -0.000100716 0 7.27589e-06 -0.000100656 0 1.48263e-05 -0.000100399 0 2.28847e-05 -9.97045e-05 0 3.15402e-05 -9.81544e-05 0 4.06128e-05 -9.53013e-05 0 4.95409e-05 -9.07556e-05 0 5.78984e-05 -8.4626e-05 0 6.51427e-05 -7.72995e-05 0 7.11833e-05 -6.92389e-05 0 7.60785e-05 -6.08067e-05 0 7.99756e-05 -5.22397e-05 0 8.30139e-05 -4.36706e-05 0 8.53144e-05 -3.51662e-05 0 8.69653e-05 -2.67505e-05 0 8.80265e-05 -1.84232e-05 0 8.85298e-05 -1.01712e-05 0 8.84812e-05 -1.97778e-06 0 8.78607e-05 6.17025e-06 0 8.66217e-05 1.42728e-05 0 8.469e-05 2.2306e-05 0 8.19615e-05 3.02036e-05 0 7.83175e-05 3.78344e-05 0 7.36358e-05 4.49652e-05 0 6.78925e-05 5.12398e-05 0 6.12224e-05 5.62075e-05 0 5.42368e-05 5.94996e-05 0 4.74569e-05 6.10356e-05 0 4.16176e-05 6.12373e-05 0 3.7168e-05 6.05435e-05 0 3.44903e-05 5.91747e-05 0 3.35187e-05 5.65429e-05 0 0 -0.00010794 0 7.23865e-06 -0.000108065 0 1.4936e-05 -0.000108347 0 2.35219e-05 -0.000108471 0 3.33377e-05 -0.000107833 0 4.43079e-05 -0.000105402 0 5.56763e-05 -0.000100453 0 6.56699e-05 -9.31078e-05 0 7.39272e-05 -8.42938e-05 0 8.04181e-05 -7.4835e-05 0 8.54564e-05 -6.5212e-05 0 8.93187e-05 -5.56575e-05 0 9.22492e-05 -4.62697e-05 0 9.44173e-05 -3.70709e-05 0 9.59444e-05 -2.80464e-05 0 9.69053e-05 -1.91613e-05 0 9.73388e-05 -1.0372e-05 0 9.72507e-05 -1.63236e-06 0 9.66137e-05 7.10047e-06 0 9.53656e-05 1.58601e-05 0 9.33993e-05 2.46591e-05 0 9.05625e-05 3.34726e-05 0 8.66316e-05 4.21995e-05 0 8.13569e-05 5.06035e-05 0 7.44598e-05 5.82007e-05 0 6.60188e-05 6.41627e-05 0 5.64627e-05 6.75548e-05 0 4.7663e-05 6.82424e-05 0 4.05141e-05 6.6914e-05 0 3.52831e-05 6.45109e-05 0 3.18144e-05 6.14124e-05 0 2.97247e-05 5.76535e-05 0 0 -0.000114891 0 6.75445e-06 -0.000115284 0 1.41271e-05 -0.000116396 0 2.2885e-05 -0.000117948 0 3.38652e-05 -0.000119238 0 4.75778e-05 -0.000118356 0 6.18161e-05 -0.000112674 0 7.42391e-05 -0.000103006 0 8.33136e-05 -9.18691e-05 0 8.99786e-05 -8.05574e-05 0 9.48387e-05 -6.95256e-05 0 9.844e-05 -5.8898e-05 0 0.000101086 -4.86732e-05 0 0.000103006 -3.87984e-05 0 0.000104334 -2.92013e-05 0 0.000105157 -1.98032e-05 0 0.000105515 -1.05235e-05 0 0.000105414 -1.28185e-06 0 0.000104823 8.00103e-06 0 0.000103667 1.74013e-05 0 0.000101826 2.69869e-05 0 9.90867e-05 3.6805e-05 0 9.51641e-05 4.68492e-05 0 8.95377e-05 5.69851e-05 0 8.16359e-05 6.6744e-05 0 7.05635e-05 7.48134e-05 0 5.7914e-05 7.86478e-05 0 4.61081e-05 7.73902e-05 0 3.74578e-05 7.35993e-05 0 3.15738e-05 6.90693e-05 0 2.77341e-05 6.4348e-05 0 2.52311e-05 5.95411e-05 0 0 -0.000121033 0 5.63538e-06 -0.00012176 0 1.20159e-05 -0.000123922 0 1.99734e-05 -0.000127565 0 3.11815e-05 -0.000132326 0 4.94501e-05 -0.000137361 0 7.49378e-05 -0.000129149 0 8.91939e-05 -0.000114062 0 9.84276e-05 -9.94975e-05 0 0.00010442 -8.59531e-05 0 0.000108683 -7.34167e-05 0 0.000111674 -6.17279e-05 0 0.000113838 -5.07242e-05 0 0.000115368 -4.02469e-05 0 0.000116418 -3.01572e-05 0 0.00011706 -2.03267e-05 0 0.000117338 -1.06373e-05 0 0.000117255 -9.72804e-07 0 0.000116778 8.7828e-06 0 0.000115844 1.87543e-05 0 0.00011431 2.90742e-05 0 0.000111998 3.98926e-05 0 0.000108478 5.13601e-05 0 0.000103314 6.36209e-05 0 9.50219e-05 7.6665e-05 0 8.18559e-05 8.99647e-05 0 5.76532e-05 9.60792e-05 0 4.09236e-05 8.85764e-05 0 3.15805e-05 8.08885e-05 0 2.58964e-05 7.37427e-05 0 2.22834e-05 6.73483e-05 0 2.00069e-05 6.15093e-05 0 0 -0.000125789 0 3.86183e-06 -0.000126808 0 8.32036e-06 -0.00012991 0 1.41658e-05 -0.000136031 0 2.27185e-05 -0.000144264 0 3.63433e-05 -0.000161813 0 5.37218e-05 -0.000147751 0 6.48973e-05 -0.000124285 0 7.18577e-05 -0.000106006 0 7.63052e-05 -9.03498e-05 0 7.93015e-05 -7.64452e-05 0 8.13641e-05 -6.38832e-05 0 8.28127e-05 -5.22469e-05 0 8.38269e-05 -4.13126e-05 0 8.45161e-05 -3.08539e-05 0 8.49422e-05 -2.07108e-05 0 8.51348e-05 -1.07246e-05 0 8.50973e-05 -7.55435e-07 0 8.48069e-05 9.35328e-06 0 8.42091e-05 1.97564e-05 0 8.32031e-05 3.06729e-05 0 8.16194e-05 4.23154e-05 0 7.91506e-05 5.50857e-05 0 7.52949e-05 6.93726e-05 0 6.90098e-05 8.60185e-05 0 5.86178e-05 0.00010755 0 4.21617e-05 0.000119325 0 2.96351e-05 9.90635e-05 0 2.23999e-05 8.76e-05 0 1.81409e-05 7.76005e-05 0 1.55963e-05 6.98153e-05 0 1.40602e-05 6.31157e-05 0 0 -0.000128431 0 1.51503e-06 -0.000129677 0 3.32491e-06 -0.000133517 0 5.80619e-06 -0.00014105 0 9.4813e-06 -0.000151976 0 1.47282e-05 -0.000172432 0 2.0694e-05 -0.000157389 0 2.53113e-05 -0.000130638 0 2.835e-05 -0.000110035 0 3.02742e-05 -9.29627e-05 0 3.15198e-05 -7.82088e-05 0 3.23471e-05 -6.50947e-05 0 3.29119e-05 -5.30949e-05 0 3.33028e-05 -4.18988e-05 0 3.35734e-05 -3.12433e-05 0 3.37536e-05 -2.09354e-05 0 3.3858e-05 -1.0798e-05 0 3.38888e-05 -6.69463e-07 0 3.38355e-05 9.62468e-06 0 3.36729e-05 2.0272e-05 0 3.33528e-05 3.15268e-05 0 3.27926e-05 4.36872e-05 0 3.18439e-05 5.72617e-05 0 3.02551e-05 7.29057e-05 0 2.76012e-05 9.18004e-05 0 2.34304e-05 0.000116521 0 1.79871e-05 0.000129156 0 1.3354e-05 0.00010584 0 1.03997e-05 9.1504e-05 0 8.76139e-06 7.98796e-05 0 7.9345e-06 7.1095e-05 0 7.57188e-06 6.38277e-05 0 0 -0.000128634 0 -1.10821e-06 -0.000129924 0 -2.3184e-06 -0.000133918 0 -3.7366e-06 -0.000141781 0 -5.5335e-06 -0.000153152 0 -7.81085e-06 -0.000174248 0 -1.04989e-05 -0.000158969 0 -1.24518e-05 -0.00013167 0 -1.39282e-05 -0.000110638 0 -1.49583e-05 -9.33023e-05 0 -1.57178e-05 -7.83953e-05 0 -1.62701e-05 -6.52015e-05 0 -1.6676e-05 -5.31603e-05 0 -1.69583e-05 -4.19486e-05 0 -1.71357e-05 -3.12912e-05 0 -1.72153e-05 -2.09901e-05 0 -1.72012e-05 -1.08624e-05 0 -1.70924e-05 -7.43492e-07 0 -1.68838e-05 9.54679e-06 0 -1.65664e-05 2.02005e-05 0 -1.61199e-05 3.14839e-05 0 -1.55196e-05 4.37068e-05 0 -1.47028e-05 5.74122e-05 0 -1.36041e-05 7.32913e-05 0 -1.2046e-05 9.2581e-05 0 -9.99793e-06 0.000117808 0 -7.20277e-06 0.000130633 0 -4.81161e-06 0.000106627 0 -2.90581e-06 9.17952e-05 0 -1.40415e-06 7.9796e-05 0 -1.68407e-07 7.08208e-05 0 8.61475e-07 6.34777e-05 0 0 -0.000126281 0 -3.64957e-06 -0.000127438 0 -7.73894e-06 -0.000130983 0 -1.29175e-05 -0.000137968 0 -2.00503e-05 -0.000147847 0 -3.00052e-05 -0.000167536 0 -4.07328e-05 -0.00015277 0 -4.95448e-05 -0.000127233 0 -5.52869e-05 -0.000107646 0 -5.91817e-05 -9.12483e-05 0 -6.18394e-05 -7.69436e-05 0 -6.3736e-05 -6.4162e-05 0 -6.50801e-05 -5.24216e-05 0 -6.60232e-05 -4.14473e-05 0 -6.66392e-05 -3.09903e-05 0 -6.69759e-05 -2.08709e-05 0 -6.70528e-05 -1.0919e-05 0 -6.68703e-05 -9.81796e-07 0 -6.64107e-05 9.10788e-06 0 -6.56274e-05 1.95242e-05 0 -6.44488e-05 3.05067e-05 0 -6.27253e-05 4.2318e-05 0 -6.02517e-05 5.54225e-05 0 -5.65568e-05 7.03671e-05 0 -5.1037e-05 8.82179e-05 0 -4.24799e-05 0.000111697 0 -3.20556e-05 0.000124034 0 -2.24758e-05 0.000101478 0 -1.58259e-05 8.82123e-05 0 -1.12915e-05 7.72103e-05 0 -8.08764e-06 6.88724e-05 0 -5.68646e-06 6.19531e-05 0 0 -0.000121621 0 -5.73567e-06 -0.000122505 0 -1.21864e-05 -0.000125173 0 -2.01386e-05 -0.000130181 0 -3.13297e-05 -0.000136748 0 -4.99793e-05 -0.000148921 0 -7.67115e-05 -0.000137474 0 -9.09714e-05 -0.000117954 0 -0.000100138 -0.000101597 0 -0.000106038 -8.71177e-05 0 -0.000110275 -7.40373e-05 0 -0.000113256 -6.20798e-05 0 -0.000115424 -5.09402e-05 0 -0.000116943 -4.04297e-05 0 -0.000117958 -3.03589e-05 0 -0.000118531 -2.05835e-05 0 -0.000118698 -1.0962e-05 0 -0.000118461 -1.3661e-06 0 -0.000117789 8.34294e-06 0 -0.000116623 1.83043e-05 0 -0.000114824 2.86988e-05 0 -0.000112234 3.97036e-05 0 -0.000108418 5.16079e-05 0 -0.00010298 6.46675e-05 0 -9.43297e-05 7.93333e-05 0 -8.06598e-05 9.68592e-05 0 -5.46182e-05 0.000105965 0 -3.6798e-05 9.10524e-05 0 -2.66293e-05 8.12791e-05 0 -1.99708e-05 7.25161e-05 0 -1.51998e-05 6.54369e-05 0 -1.17007e-05 5.93541e-05 0 0 -0.000115151 0 -7.21584e-06 -0.000115725 0 -1.51077e-05 -0.000117403 0 -2.45383e-05 -0.000119955 0 -3.67118e-05 -0.000123006 0 -5.33256e-05 -0.000123787 0 -7.24217e-05 -0.000117708 0 -8.67466e-05 -0.000106224 0 -9.66963e-05 -9.37197e-05 0 -0.00010378 -8.15607e-05 0 -0.000108921 -7.00516e-05 0 -0.000112703 -5.91688e-05 0 -0.000115473 -4.88467e-05 0 -0.000117459 -3.89705e-05 0 -0.0001188 -2.94378e-05 0 -0.000119578 -2.01409e-05 0 -0.000119834 -1.09811e-05 0 -0.00011957 -1.85843e-06 0 -0.000118753 7.32349e-06 0 -0.000117308 1.66676e-05 0 -0.000115104 2.6269e-05 0 -0.000111923 3.62324e-05 0 -0.000107431 4.66099e-05 0 -0.000101057 5.7408e-05 0 -9.18985e-05 6.83001e-05 0 -7.84722e-05 7.78951e-05 0 -6.04169e-05 8.17749e-05 0 -4.50336e-05 7.84463e-05 0 -3.43457e-05 7.24535e-05 0 -2.67473e-05 6.65126e-05 0 -2.11635e-05 6.09382e-05 0 -1.69192e-05 5.59003e-05 0 0 -0.000107596 0 -8.02143e-06 -0.000107858 0 -1.6587e-05 -0.000108562 0 -2.6262e-05 -0.000109413 0 -3.75985e-05 -0.000109644 0 -5.07163e-05 -0.000108087 0 -6.44322e-05 -0.000102958 0 -7.62937e-05 -9.48876e-05 0 -8.57352e-05 -8.53426e-05 0 -9.29949e-05 -7.53517e-05 0 -9.85457e-05 -6.54064e-05 0 -0.000102762 -5.57071e-05 0 -0.00010593 -4.62999e-05 0 -0.000108242 -3.71727e-05 0 -0.000109831 -2.82793e-05 0 -0.000110775 -1.95631e-05 0 -0.000111116 -1.09615e-05 0 -0.000110857 -2.41202e-06 0 -0.000109967 6.14617e-06 0 -0.000108376 1.47657e-05 0 -0.000105962 2.34867e-05 0 -0.000102546 3.23133e-05 0 -9.78549e-05 4.11885e-05 0 -9.15339e-05 4.98991e-05 0 -8.31333e-05 5.79374e-05 0 -7.2445e-05 6.42561e-05 0 -6.00734e-05 6.73661e-05 0 -4.8523e-05 6.6614e-05 0 -3.90459e-05 6.37585e-05 0 -3.1615e-05 5.99433e-05 0 -2.58039e-05 5.5922e-05 0 -2.12192e-05 5.1989e-05 0 0 -9.94688e-05 0 -8.29691e-06 -9.95099e-05 0 -1.695e-05 -9.95441e-05 0 -2.62841e-05 -9.92867e-05 0 -3.64724e-05 -9.82637e-05 0 -4.73396e-05 -9.56987e-05 0 -5.81204e-05 -9.12633e-05 0 -6.80982e-05 -8.49407e-05 0 -7.65951e-05 -7.73257e-05 0 -8.35608e-05 -6.90397e-05 0 -8.91274e-05 -6.05007e-05 0 -9.35058e-05 -5.19392e-05 0 -9.68769e-05 -4.3471e-05 0 -9.93886e-05 -3.51378e-05 0 -0.000101146 -2.69435e-05 0 -0.000102217 -1.88702e-05 0 -0.000102639 -1.08906e-05 0 -0.000102415 -2.97453e-06 0 -0.000101522 4.90387e-06 0 -9.9901e-05 1.27597e-05 0 -9.74598e-05 2.05844e-05 0 -9.40648e-05 2.83303e-05 0 -8.9552e-05 3.58742e-05 0 -8.3731e-05 4.29763e-05 0 -7.64951e-05 4.92086e-05 0 -6.79261e-05 5.39383e-05 0 -5.87423e-05 5.65594e-05 0 -4.97116e-05 5.70786e-05 0 -4.16653e-05 5.58179e-05 0 -3.48636e-05 5.35554e-05 0 -2.92425e-05 5.07824e-05 0 -2.4616e-05 4.78274e-05 0 0 -9.12434e-05 0 -8.20636e-06 -9.114e-05 0 -1.66193e-05 -9.07641e-05 0 -2.53891e-05 -8.99273e-05 0 -3.45504e-05 -8.83114e-05 0 -4.39333e-05 -8.56235e-05 0 -5.31934e-05 -8.15731e-05 0 -6.17659e-05 -7.62569e-05 0 -6.93744e-05 -6.99384e-05 0 -7.58568e-05 -6.2954e-05 0 -8.12324e-05 -5.55951e-05 0 -8.55818e-05 -4.80684e-05 0 -8.90117e-05 -4.04999e-05 0 -9.16172e-05 -3.2961e-05 0 -9.3475e-05 -2.54849e-05 0 -9.46379e-05 -1.80835e-05 0 -9.51352e-05 -1.07567e-05 0 -9.49727e-05 -3.50151e-06 0 -9.41328e-05 3.68111e-06 0 -9.25751e-05 1.07774e-05 0 -9.02364e-05 1.7751e-05 0 -8.70374e-05 2.45269e-05 0 -8.28891e-05 3.09744e-05 0 -7.77324e-05 3.68819e-05 0 -7.15734e-05 4.1953e-05 0 -6.46058e-05 4.58469e-05 0 -5.71445e-05 4.82978e-05 0 -4.98019e-05 4.92104e-05 0 -4.29811e-05 4.88833e-05 0 -3.69239e-05 4.76287e-05 0 -3.16825e-05 4.5803e-05 0 -2.72076e-05 4.36608e-05 0 0 -8.32001e-05 0 -7.90412e-06 -8.30192e-05 0 -1.59074e-05 -8.24327e-05 0 -2.40709e-05 -8.13195e-05 0 -3.23701e-05 -7.95133e-05 0 -4.06716e-05 -7.68224e-05 0 -4.87184e-05 -7.31814e-05 0 -5.62894e-05 -6.85941e-05 0 -6.31249e-05 -6.32075e-05 0 -6.91069e-05 -5.7225e-05 0 -7.41928e-05 -5.08453e-05 0 -7.84066e-05 -4.4229e-05 0 -8.17966e-05 -3.74937e-05 0 -8.44196e-05 -3.07175e-05 0 -8.6325e-05 -2.395e-05 0 -8.75503e-05 -1.72216e-05 0 -8.81177e-05 -1.0552e-05 0 -8.80333e-05 -3.95776e-06 0 -8.72875e-05 2.54067e-06 0 -8.58559e-05 8.91196e-06 0 -8.37034e-05 1.51049e-05 0 -8.07891e-05 2.10397e-05 0 -7.70829e-05 2.65969e-05 0 -7.25818e-05 3.16145e-05 0 -6.73534e-05 3.58935e-05 0 -6.15451e-05 3.92319e-05 0 -5.54517e-05 4.14873e-05 0 -4.9336e-05 4.26659e-05 0 -4.35042e-05 4.28513e-05 0 -3.81468e-05 4.22655e-05 0 -3.33525e-05 4.1123e-05 0 -2.91282e-05 3.96174e-05 0 0 -7.55077e-05 0 -7.49425e-06 -7.52911e-05 0 -1.50237e-05 -7.46155e-05 0 -2.2595e-05 -7.34126e-05 0 -3.0167e-05 -7.15848e-05 0 -3.76357e-05 -6.90532e-05 0 -4.48578e-05 -6.57594e-05 0 -5.16347e-05 -6.17364e-05 0 -5.78325e-05 -5.70702e-05 0 -6.33415e-05 -5.18873e-05 0 -6.81131e-05 -4.63236e-05 0 -7.21367e-05 -4.05025e-05 0 -7.54294e-05 -3.45234e-05 0 -7.80188e-05 -2.84623e-05 0 -7.99342e-05 -2.23743e-05 0 -8.11995e-05 -1.63003e-05 0 -8.18309e-05 -1.02724e-05 0 -8.18346e-05 -4.32016e-06 0 -8.12075e-05 1.52427e-06 0 -7.99389e-05 7.21978e-06 0 -7.80139e-05 1.27108e-05 0 -7.54209e-05 1.79216e-05 0 -7.21604e-05 2.27532e-05 0 -6.82631e-05 2.70839e-05 0 -6.38006e-05 3.0781e-05 0 -5.89092e-05 3.37239e-05 0 -5.37535e-05 3.58366e-05 0 -4.85669e-05 3.71017e-05 0 -4.3532e-05 3.76016e-05 0 -3.87958e-05 3.74506e-05 0 -3.44438e-05 3.67973e-05 0 -3.05112e-05 3.578e-05 0 0 -6.82392e-05 0 -7.04547e-06 -6.80138e-05 0 -1.40879e-05 -6.73227e-05 0 -2.11086e-05 -6.61275e-05 0 -2.80583e-05 -6.43799e-05 0 -3.48551e-05 -6.20334e-05 0 -4.13836e-05 -5.90777e-05 0 -4.75369e-05 -5.55301e-05 0 -5.31969e-05 -5.14511e-05 0 -5.82843e-05 -4.69273e-05 0 -6.27465e-05 -4.20555e-05 0 -6.65617e-05 -3.69295e-05 0 -6.97273e-05 -3.16319e-05 0 -7.22531e-05 -2.62313e-05 0 -7.41536e-05 -2.07831e-05 0 -7.54429e-05 -1.53323e-05 0 -7.61319e-05 -9.91787e-06 0 -7.6227e-05 -4.57614e-06 0 -7.57301e-05 6.54284e-07 0 -7.46402e-05 5.72875e-06 0 -7.2957e-05 1.05927e-05 0 -7.06858e-05 1.51791e-05 0 -6.78461e-05 1.94077e-05 0 -6.44782e-05 2.31888e-05 0 -6.06552e-05 2.64314e-05 0 -5.64798e-05 2.90582e-05 0 -5.20956e-05 3.1022e-05 0 -4.76378e-05 3.23242e-05 0 -4.32517e-05 3.30021e-05 0 -3.905e-05 3.31384e-05 0 -3.51105e-05 3.28307e-05 0 -3.1475e-05 3.21799e-05 0 0 -6.14177e-05 0 -6.59633e-06 -6.11979e-05 0 -1.31695e-05 -6.05312e-05 0 -1.96863e-05 -5.93978e-05 0 -2.60975e-05 -5.7773e-05 0 -3.23343e-05 -5.56399e-05 0 -3.83167e-05 -5.29943e-05 0 -4.39507e-05 -4.98591e-05 0 -4.91591e-05 -4.62785e-05 0 -5.38736e-05 -4.23148e-05 0 -5.80485e-05 -3.80395e-05 0 -6.16556e-05 -3.35257e-05 0 -6.46833e-05 -2.88411e-05 0 -6.71302e-05 -2.40462e-05 0 -6.90011e-05 -1.91933e-05 0 -7.03032e-05 -1.43278e-05 0 -7.10436e-05 -9.49088e-06 0 -7.12286e-05 -4.72188e-06 0 -7.08632e-05 -6.14042e-08 0 -6.99533e-05 4.44604e-06 0 -6.85074e-05 8.7499e-06 0 -6.65412e-05 1.27924e-05 0 -6.40817e-05 1.65096e-05 0 -6.11736e-05 1.98341e-05 0 -5.7881e-05 2.27024e-05 0 -5.42915e-05 2.50631e-05 0 -5.05033e-05 2.68872e-05 0 -4.66322e-05 2.8172e-05 0 -4.27802e-05 2.8949e-05 0 -3.90366e-05 2.927e-05 0 -3.54678e-05 2.92046e-05 0 -3.21172e-05 2.88262e-05 0 0 -5.50328e-05 0 -6.16886e-06 -5.48269e-05 0 -1.23041e-05 -5.42057e-05 0 -1.83668e-05 -5.31598e-05 0 -2.43084e-05 -5.16795e-05 0 -3.00704e-05 -4.97588e-05 0 -3.55852e-05 -4.74047e-05 0 -4.07871e-05 -4.46368e-05 0 -4.56095e-05 -4.14906e-05 0 -4.99987e-05 -3.80137e-05 0 -5.39126e-05 -3.42614e-05 0 -5.73229e-05 -3.02911e-05 0 -6.02132e-05 -2.61592e-05 0 -6.25758e-05 -2.1918e-05 0 -6.44096e-05 -1.76152e-05 0 -6.5717e-05 -1.32944e-05 0 -6.65026e-05 -8.99617e-06 0 -6.67724e-05 -4.75976e-06 0 -6.65336e-05 -6.25121e-07 0 -6.57956e-05 3.36568e-06 0 -6.45724e-05 7.16724e-06 0 -6.28844e-05 1.07306e-05 0 -6.07622e-05 1.40045e-05 0 -5.82485e-05 1.69379e-05 0 -5.54009e-05 1.94848e-05 0 -5.22891e-05 2.16096e-05 0 -4.89964e-05 2.32925e-05 0 -4.56045e-05 2.45341e-05 0 -4.21966e-05 2.53538e-05 0 -3.88439e-05 2.57893e-05 0 -3.56036e-05 2.589e-05 0 -3.25164e-05 2.57107e-05 0 0 -4.90585e-05 0 -5.77391e-06 -4.88704e-05 0 -1.15098e-05 -4.83044e-05 0 -1.71664e-05 -4.73575e-05 0 -2.26976e-05 -4.60271e-05 0 -2.80517e-05 -4.43154e-05 0 -3.3174e-05 -4.22315e-05 0 -3.80071e-05 -3.97948e-05 0 -4.24995e-05 -3.70346e-05 0 -4.66047e-05 -3.39887e-05 0 -5.02858e-05 -3.07008e-05 0 -5.35155e-05 -2.72176e-05 0 -5.62752e-05 -2.35859e-05 0 -5.85544e-05 -1.98507e-05 0 -6.03482e-05 -1.60547e-05 0 -6.16562e-05 -1.22383e-05 0 -6.24813e-05 -8.43969e-06 0 -6.28289e-05 -4.69628e-06 0 -6.27072e-05 -1.04557e-06 0 -6.21279e-05 2.47394e-06 0 -6.11072e-05 5.82231e-06 0 -5.96677e-05 8.95832e-06 0 -5.78398e-05 1.18407e-05 0 -5.56637e-05 1.443e-05 0 -5.31891e-05 1.66921e-05 0 -5.04752e-05 1.86013e-05 0 -4.75862e-05 2.01441e-05 0 -4.45912e-05 2.13203e-05 0 -4.1555e-05 2.21448e-05 0 -3.85362e-05 2.26443e-05 0 -3.55836e-05 2.28551e-05 0 -3.27348e-05 2.28182e-05 0 0 -4.34601e-05 0 -5.41655e-06 -4.32912e-05 0 -1.07937e-05 -4.27842e-05 0 -1.60904e-05 -4.19392e-05 0 -2.12631e-05 -4.07578e-05 0 -2.62654e-05 -3.92453e-05 0 -3.10494e-05 -3.74128e-05 0 -3.5568e-05 -3.52778e-05 0 -3.97763e-05 -3.28652e-05 0 -4.36349e-05 -3.0206e-05 0 -4.71106e-05 -2.73356e-05 0 -5.01776e-05 -2.42924e-05 0 -5.28173e-05 -2.11155e-05 0 -5.50176e-05 -1.78436e-05 0 -5.67716e-05 -1.45144e-05 0 -5.80773e-05 -1.11642e-05 0 -5.89363e-05 -7.82803e-06 0 -5.93536e-05 -4.54027e-06 0 -5.93377e-05 -1.3351e-06 0 -5.89011e-05 1.75311e-06 0 -5.80607e-05 4.68968e-06 0 -5.68393e-05 7.44003e-06 0 -5.5266e-05 9.97065e-06 0 -5.33773e-05 1.22507e-05 0 -5.12167e-05 1.42541e-05 0 -4.88336e-05 1.59619e-05 0 -4.62825e-05 1.7364e-05 0 -4.3618e-05 1.84607e-05 0 -4.08943e-05 1.92624e-05 0 -3.81603e-05 1.97889e-05 0 -3.54581e-05 2.00675e-05 0 -3.28217e-05 2.01291e-05 0 0 -3.81995e-05 0 -5.09828e-06 -3.80501e-05 0 -1.01575e-05 -3.76024e-05 0 -1.5138e-05 -3.6858e-05 0 -1.99986e-05 -3.58204e-05 0 -2.46973e-05 -3.44967e-05 0 -2.91919e-05 -3.28976e-05 0 -3.34406e-05 -3.10395e-05 0 -3.74049e-05 -2.89433e-05 0 -4.10499e-05 -2.66349e-05 0 -4.43459e-05 -2.41435e-05 0 -4.72688e-05 -2.15008e-05 0 -4.98005e-05 -1.87398e-05 0 -5.19284e-05 -1.58936e-05 0 -5.36448e-05 -1.29949e-05 0 -5.49464e-05 -1.00759e-05 0 -5.58342e-05 -7.16792e-06 0 -5.63128e-05 -4.30172e-06 0 -5.63904e-05 -1.50772e-06 0 -5.60796e-05 1.18391e-06 0 -5.53971e-05 3.74344e-06 0 -5.43647e-05 6.1419e-06 0 -5.30096e-05 8.35201e-06 0 -5.13646e-05 1.03493e-05 0 -4.94678e-05 1.21134e-05 0 -4.73617e-05 1.36299e-05 0 -4.50913e-05 1.48912e-05 0 -4.27033e-05 1.58974e-05 0 -4.02427e-05 1.66562e-05 0 -3.77511e-05 1.71825e-05 0 -3.52653e-05 1.74966e-05 0 -3.2816e-05 1.76226e-05 0 0 -3.32377e-05 0 -4.81891e-06 -3.31075e-05 0 -9.60001e-06 -3.27176e-05 0 -1.43052e-05 -3.20703e-05 0 -1.8896e-05 -3.11701e-05 0 -2.33337e-05 -3.0024e-05 0 -2.758e-05 -2.86425e-05 0 -3.15981e-05 -2.704e-05 0 -3.53534e-05 -2.52343e-05 0 -3.88146e-05 -2.32471e-05 0 -4.19549e-05 -2.11028e-05 0 -4.47518e-05 -1.88276e-05 0 -4.71881e-05 -1.64492e-05 0 -4.92511e-05 -1.39959e-05 0 -5.09329e-05 -1.14957e-05 0 -5.22297e-05 -8.97655e-06 0 -5.31418e-05 -6.46596e-06 0 -5.36733e-05 -3.99091e-06 0 -5.38321e-05 -1.57793e-06 0 -5.36303e-05 7.46967e-07 0 -5.30839e-05 2.95851e-06 0 -5.22134e-05 5.0326e-06 0 -5.10437e-05 6.94694e-06 0 -4.96043e-05 8.6819e-06 0 -4.79286e-05 1.02215e-05 0 -4.60535e-05 1.15545e-05 0 -4.40178e-05 1.26749e-05 0 -4.18608e-05 1.35826e-05 0 -3.96212e-05 1.42836e-05 0 -3.73351e-05 1.47888e-05 0 -3.50348e-05 1.51139e-05 0 -3.27484e-05 1.52775e-05 0 0 -2.85365e-05 0 -4.57727e-06 -2.84248e-05 0 -9.1183e-06 -2.80905e-05 0 -1.35868e-05 -2.75361e-05 0 -1.79465e-05 -2.67661e-05 0 -2.21616e-05 -2.57873e-05 0 -2.61971e-05 -2.46092e-05 0 -3.00192e-05 -2.32441e-05 0 -3.35967e-05 -2.17074e-05 0 -3.69013e-05 -2.0017e-05 0 -3.99081e-05 -1.81931e-05 0 -4.25965e-05 -1.62576e-05 0 -4.49499e-05 -1.42337e-05 0 -4.6956e-05 -1.21449e-05 0 -4.86069e-05 -1.00153e-05 0 -4.98985e-05 -7.86856e-06 0 -5.08307e-05 -5.72839e-06 0 -5.14071e-05 -3.61794e-06 0 -5.16354e-05 -1.55993e-06 0 -5.15265e-05 4.2356e-07 0 -5.10958e-05 2.31135e-06 0 -5.03621e-05 4.0835e-06 0 -4.93483e-05 5.72185e-06 0 -4.80808e-05 7.21064e-06 0 -4.65894e-05 8.53719e-06 0 -4.49063e-05 9.69258e-06 0 -4.30652e-05 1.06721e-05 0 -4.11004e-05 1.14756e-05 0 -3.90456e-05 1.21074e-05 0 -3.69324e-05 1.25759e-05 0 -3.47898e-05 1.28929e-05 0 -3.26432e-05 1.3073e-05 0 0 -2.40589e-05 0 -4.37189e-06 -2.3965e-05 0 -8.70912e-06 -2.36838e-05 0 -1.29772e-05 -2.3218e-05 0 -1.71418e-05 -2.25715e-05 0 -2.11695e-05 -2.17504e-05 0 -2.50277e-05 -2.07632e-05 0 -2.86853e-05 -1.96203e-05 0 -3.21135e-05 -1.83345e-05 0 -3.52863e-05 -1.69205e-05 0 -3.81805e-05 -1.53951e-05 0 -4.07768e-05 -1.37763e-05 0 -4.30595e-05 -1.2083e-05 0 -4.50168e-05 -1.03349e-05 0 -4.66407e-05 -8.55187e-06 0 -4.79272e-05 -6.75398e-06 0 -4.88758e-05 -4.96101e-06 0 -4.94899e-05 -3.19243e-06 0 -4.97762e-05 -1.46728e-06 0 -4.97453e-05 1.96067e-07 0 -4.94112e-05 1.78012e-06 0 -4.87915e-05 3.26861e-06 0 -4.7907e-05 4.64686e-06 0 -4.67817e-05 5.90225e-06 0 -4.54422e-05 7.02475e-06 0 -4.3917e-05 8.00729e-06 0 -4.22362e-05 8.84612e-06 0 -4.04298e-05 9.54099e-06 0 -3.85278e-05 1.00951e-05 0 -3.65584e-05 1.05147e-05 0 -3.45479e-05 1.0809e-05 0 -3.25197e-05 1.09891e-05 0 0 -1.97696e-05 0 -4.20117e-06 -1.96926e-05 0 -8.36918e-06 -1.94622e-05 0 -1.24711e-05 -1.90807e-05 0 -1.64743e-05 -1.85516e-05 0 -2.03472e-05 -1.78802e-05 0 -2.40592e-05 -1.70733e-05 0 -2.75812e-05 -1.61398e-05 0 -3.08865e-05 -1.509e-05 0 -3.39504e-05 -1.39358e-05 0 -3.67515e-05 -1.26908e-05 0 -3.92714e-05 -1.13695e-05 0 -4.14952e-05 -9.98713e-06 0 -4.34116e-05 -8.55968e-06 0 -4.50127e-05 -7.10335e-06 0 -4.62945e-05 -5.63444e-06 0 -4.72562e-05 -4.16914e-06 0 -4.79009e-05 -2.72338e-06 0 -4.82349e-05 -1.31268e-06 0 -4.82678e-05 4.80655e-08 0 -4.80129e-05 1.34474e-06 0 -4.74862e-05 2.56431e-06 0 -4.67071e-05 3.69514e-06 0 -4.56972e-05 4.72727e-06 0 -4.44808e-05 5.65284e-06 0 -4.30836e-05 6.46629e-06 0 -4.15325e-05 7.16468e-06 0 -3.98547e-05 7.74769e-06 0 -3.8077e-05 8.21765e-06 0 -3.62252e-05 8.5793e-06 0 -3.43233e-05 8.83953e-06 0 -3.2393e-05 9.00677e-06 0 0 -1.56344e-05 0 -4.06366e-06 -1.55737e-05 0 -8.09543e-06 -1.53921e-05 0 -1.20637e-05 -1.50914e-05 0 -1.59373e-05 -1.46745e-05 0 -1.96861e-05 -1.41456e-05 0 -2.3281e-05 -1.35105e-05 0 -2.66945e-05 -1.27758e-05 0 -2.99011e-05 -1.195e-05 0 -3.28779e-05 -1.10422e-05 0 -3.56042e-05 -1.00631e-05 0 -3.80627e-05 -9.0238e-06 0 -4.0239e-05 -7.93643e-06 0 -4.21222e-05 -6.8134e-06 0 -4.37047e-05 -5.6674e-06 0 -4.49823e-05 -4.51125e-06 0 -4.59543e-05 -3.35767e-06 0 -4.66233e-05 -2.21918e-06 0 -4.69951e-05 -1.10797e-06 0 -4.70788e-05 -3.56869e-08 0 -4.68867e-05 9.86684e-07 0 -4.64339e-05 1.94905e-06 0 -4.57381e-05 2.84245e-06 0 -4.48196e-05 3.65926e-06 0 -4.37004e-05 4.39346e-06 0 -4.24042e-05 5.04082e-06 0 -4.09555e-05 5.59904e-06 0 -3.93793e-05 6.06784e-06 0 -3.77001e-05 6.44886e-06 0 -3.59417e-05 6.74558e-06 0 -3.41265e-05 6.96308e-06 0 -3.22749e-05 7.10763e-06 0 0 -1.16209e-05 0 -3.95808e-06 -1.15759e-05 0 -7.88529e-06 -1.14413e-05 0 -1.17511e-05 -1.12183e-05 0 -1.55254e-05 -1.09094e-05 0 -1.91791e-05 -1.05177e-05 0 -2.26844e-05 -1.00473e-05 0 -2.60149e-05 -9.50336e-06 0 -2.91462e-05 -8.89201e-06 0 -3.20562e-05 -8.22015e-06 0 -3.47253e-05 -7.49547e-06 0 -3.71366e-05 -6.72629e-06 0 -3.92764e-05 -5.92144e-06 0 -4.1134e-05 -5.09008e-06 0 -4.27021e-05 -4.2416e-06 0 -4.39763e-05 -3.38544e-06 0 -4.4956e-05 -2.53103e-06 0 -4.56433e-05 -1.68763e-06 0 -4.60438e-05 -8.64214e-07 0 -4.61662e-05 -6.93781e-08 0 -4.60218e-05 6.88819e-07 0 -4.56249e-05 1.403e-06 0 -4.49923e-05 2.06662e-06 0 -4.41428e-05 2.67416e-06 0 -4.30971e-05 3.22124e-06 0 -4.18772e-05 3.7048e-06 0 -4.0506e-05 4.12317e-06 0 -3.90066e-05 4.47607e-06 0 -3.74022e-05 4.76464e-06 0 -3.57148e-05 4.99131e-06 0 -3.39657e-05 5.15966e-06 0 -3.21744e-05 5.27412e-06 0 0 -7.69764e-06 0 -3.88341e-06 -7.66787e-06 0 -7.73669e-06 -7.57886e-06 0 -1.153e-05 -7.43151e-06 0 -1.52342e-05 -7.22733e-06 0 -1.88209e-05 -6.96848e-06 0 -2.2263e-05 -6.65772e-06 0 -2.55349e-05 -6.29846e-06 0 -2.86131e-05 -5.89471e-06 0 -3.1476e-05 -5.45102e-06 0 -3.41046e-05 -4.97247e-06 0 -3.64826e-05 -4.46453e-06 0 -3.85966e-05 -3.93299e-06 0 -4.04361e-05 -3.38391e-06 0 -4.19938e-05 -2.82345e-06 0 -4.32655e-05 -2.25786e-06 0 -4.42504e-05 -1.69335e-06 0 -4.49506e-05 -1.13602e-06 0 -4.53713e-05 -5.91791e-07 0 -4.55207e-05 -6.63154e-08 0 -4.54097e-05 4.35116e-07 0 -4.50521e-05 9.07669e-07 0 -4.44637e-05 1.34707e-06 0 -4.36625e-05 1.74972e-06 0 -4.26682e-05 2.11278e-06 0 -4.15016e-05 2.43423e-06 0 -4.01845e-05 2.71298e-06 0 -3.8739e-05 2.94884e-06 0 -3.71869e-05 3.14251e-06 0 -3.55494e-05 3.29553e-06 0 -3.38469e-05 3.41017e-06 0 -3.20981e-05 3.48929e-06 0 0 -3.83399e-06 0 -3.8389e-06 -3.81918e-06 0 -7.64814e-06 -3.7749e-06 0 -1.13983e-05 -3.7016e-06 0 -1.50607e-05 -3.60005e-06 0 -1.86075e-05 -3.47132e-06 0 -2.20119e-05 -3.31678e-06 0 -2.52491e-05 -3.13815e-06 0 -2.82956e-05 -2.93741e-06 0 -3.11305e-05 -2.71683e-06 0 -3.37351e-05 -2.47891e-06 0 -3.60932e-05 -2.22638e-06 0 -3.81917e-05 -1.96212e-06 0 -4.00204e-05 -1.68912e-06 0 -4.15719e-05 -1.41044e-06 0 -4.28421e-05 -1.12919e-06 0 -4.38301e-05 -8.48456e-07 0 -4.45379e-05 -5.71263e-07 0 -4.49705e-05 -3.00554e-07 0 -4.51359e-05 -3.91309e-08 0 -4.50448e-05 2.10385e-07 0 -4.47104e-05 4.45602e-07 0 -4.41481e-05 6.64411e-07 0 -4.33755e-05 8.65032e-07 0 -4.24116e-05 1.04606e-06 0 -4.12766e-05 1.20652e-06 0 -3.99916e-05 1.34584e-06 0 -3.85779e-05 1.46394e-06 0 -3.70568e-05 1.56115e-06 0 -3.54489e-05 1.63822e-06 0 -3.3774e-05 1.69625e-06 0 -3.20506e-05 1.73664e-06 0 0 -0 0 -3.82412e-06 -1.92457e-20 0 -7.61873e-06 -3.1583e-20 0 -1.13546e-05 -0 0 -1.50031e-05 -1.18325e-21 0 -1.85366e-05 -1.11563e-19 0 -2.19286e-05 -6.75564e-20 0 -2.51541e-05 -0 0 -2.81902e-05 -0 0 -3.10158e-05 -0 0 -3.36123e-05 -0 0 -3.59639e-05 -0 0 -3.80573e-05 -0 0 -3.98824e-05 3.32233e-20 0 -4.14318e-05 2.93472e-19 0 -4.27015e-05 5.38839e-20 0 -4.36905e-05 -0 0 -4.44008e-05 -0 0 -4.48374e-05 7.16078e-20 0 -4.50081e-05 3.14366e-19 0 -4.49235e-05 2.67938e-20 0 -4.45968e-05 -0 0 -4.40432e-05 -0 0 -4.32801e-05 -0 0 -4.23262e-05 -0 0 -4.12016e-05 -0 0 -3.99272e-05 -0 0 -3.85241e-05 -0 0 -3.70132e-05 -0 0 -3.54152e-05 -0 0 -3.37495e-05 -0 0 -3.20344e-05 -0 0 </DataArray> 
</PointData> 
<Points> 
<DataArray type="Float32" NumberOfComponents="3"> 