<?xml version="1.0"?> 
<VTKFile type="StructuredGrid" version="0.1"> 
<StructuredGrid WholeExtent="0 31 0 31 0 0"> 
<Piece Extent="0 31 0 31 0 0"> 
<PointData>
<DataArray type="Float32" Name="B" format="ascii" NumberOfComponents="3"> 
-1.97299e-05 5.61599e-06 0 -1.47932e-05 -1.15153e-06 0 -1.45077e-05 -2.76574e-06 0 -1.36173e-05 -4.29598e-06 0 -1.29024e-05 -5.25121e-06 0 -1.21385e-05 -6.05843e-06 0 -1.14054e-05 -6.67218e-06 0 -1.06864e-05 -7.17066e-06 0 -9.99145e-06 -7.56491e-06 0 -9.32184e-06 -7.87922e-06 0 -8.67925e-06 -8.12621e-06 0 -8.06457e-06 -8.31829e-06 0 -7.47775e-06 -8.4648e-06 0 -6.91842e-06 -8.57382e-06 0 -6.38572e-06 -8.65201e-06 0 -5.87856e-06 -8.70509e-06 0 -5.3956e-06 -8.73787e-06 0 -4.9354e-06 -8.75447e-06 0 -4.49641e-06 -8.7584e-06 0 -4.07704e-06 -8.75268e-06 0 -3.67567e-06 -8.73985e-06 0 -3.29069e-06 -8.7221e-06 0 -2.92047e-06 -8.70129e-06 0 -2.56343e-06 -8.67899e-06 0 -2.21802e-06 -8.65653e-06 0 -1.88269e-06 -8.63501e-06 0 -1.55594e-06 -8.61535e-06 0 -1.2363e-06 -8.59829e-06 0 -9.22307e-07 -8.58442e-06 0 -6.12536e-07 -8.57418e-06 0 -3.05568e-07 -8.56789e-06 0 0 -8.56573e-06 0 -2.00935e-05 1.44591e-06 0 -1.65782e-05 -1.33741e-06 0 -1.52302e-05 -3.36586e-06 0 -1.42348e-05 -4.66556e-06 0 -1.33349e-05 -5.67687e-06 0 -1.24885e-05 -6.44408e-06 0 -1.16791e-05 -7.05487e-06 0 -1.09047e-05 -7.5358e-06 0 -1.01641e-05 -7.91686e-06 0 -9.45741e-06 -8.21559e-06 0 -8.78448e-06 -8.4475e-06 0 -8.14472e-06 -8.62432e-06 0 -7.53733e-06 -8.75597e-06 0 -6.96111e-06 -8.85057e-06 0 -6.41466e-06 -8.915e-06 0 -5.89638e-06 -8.95502e-06 0 -5.40457e-06 -8.97553e-06 0 -4.93741e-06 -8.98069e-06 0 -4.49311e-06 -8.97404e-06 0 -4.0698e-06 -8.95858e-06 0 -3.66568e-06 -8.93688e-06 0 -3.27895e-06 -8.91111e-06 0 -2.90783e-06 -8.88312e-06 0 -2.55062e-06 -8.85445e-06 0 -2.20563e-06 -8.82642e-06 0 -1.87122e-06 -8.80012e-06 0 -1.5458e-06 -8.77644e-06 0 -1.22781e-06 -8.75611e-06 0 -9.15728e-07 -8.73971e-06 0 -6.08049e-07 -8.72767e-06 0 -3.03295e-07 -8.7203e-06 0 0 -8.71777e-06 0 -2.03351e-05 -7.27447e-07 0 -1.76461e-05 -2.28034e-06 0 -1.59882e-05 -3.9506e-06 0 -1.4797e-05 -5.17709e-06 0 -1.37664e-05 -6.13498e-06 0 -1.28259e-05 -6.87919e-06 0 -1.19451e-05 -7.46584e-06 0 -1.11143e-05 -7.92739e-06 0 -1.03282e-05 -8.2888e-06 0 -9.5846e-06 -8.56887e-06 0 -8.88136e-06 -8.78246e-06 0 -8.21681e-06 -8.94166e-06 0 -7.58911e-06 -9.05637e-06 0 -6.99637e-06 -9.13487e-06 0 -6.43656e-06 -9.18407e-06 0 -5.9076e-06 -9.20981e-06 0 -5.40737e-06 -9.21702e-06 0 -4.93372e-06 -9.20985e-06 0 -4.48455e-06 -9.19186e-06 0 -4.05777e-06 -9.16604e-06 0 -3.65135e-06 -9.13493e-06 0 -3.26331e-06 -9.10068e-06 0 -2.89173e-06 -9.0651e-06 0 -2.53475e-06 -9.02974e-06 0 -2.19059e-06 -8.99587e-06 0 -1.8575e-06 -8.96456e-06 0 -1.5338e-06 -8.93668e-06 0 -1.21785e-06 -8.91295e-06 0 -9.08049e-07 -8.89391e-06 0 -6.02832e-07 -8.88e-06 0 -3.00658e-07 -8.87149e-06 0 0 -8.86858e-06 0 -2.06719e-05 -2.18568e-06 0 -1.83899e-05 -3.30274e-06 0 -1.66545e-05 -4.64154e-06 0 -1.53195e-05 -5.75534e-06 0 -1.41768e-05 -6.64736e-06 0 -1.31484e-05 -7.35268e-06 0 -1.21988e-05 -7.90848e-06 0 -1.13126e-05 -8.34377e-06 0 -1.04818e-05 -8.68115e-06 0 -9.70162e-06 -8.93872e-06 0 -8.96856e-06 -9.13104e-06 0 -8.27964e-06 -9.2701e-06 0 -7.63213e-06 -9.36582e-06 0 -7.02337e-06 -9.42647e-06 0 -6.45073e-06 -9.45899e-06 0 -5.91163e-06 -9.46922e-06 0 -5.40351e-06 -9.46208e-06 0 -4.92391e-06 -9.44171e-06 0 -4.4704e-06 -9.41163e-06 0 -4.04065e-06 -9.37481e-06 0 -3.63242e-06 -9.33374e-06 0 -3.24355e-06 -9.29056e-06 0 -2.87197e-06 -9.24703e-06 0 -2.51568e-06 -9.20465e-06 0 -2.17279e-06 -9.16468e-06 0 -1.84144e-06 -9.12814e-06 0 -1.51987e-06 -9.09589e-06 0 -1.20635e-06 -9.0686e-06 0 -8.99225e-07 -9.04682e-06 0 -5.96856e-07 -9.03096e-06 0 -2.97641e-07 -9.02129e-06 0 0 -9.01798e-06 0 -2.10221e-05 -3.35548e-06 0 -1.89687e-05 -4.2927e-06 0 -1.72276e-05 -5.39737e-06 0 -1.5796e-05 -6.38883e-06 0 -1.45598e-05 -7.20703e-06 0 -1.34516e-05 -7.86335e-06 0 -1.24366e-05 -8.38128e-06 0 -1.14971e-05 -8.78459e-06 0 -1.06227e-05 -9.09345e-06 0 -9.80686e-06 -9.32486e-06 0 -9.04469e-06 -9.49291e-06 0 -8.33211e-06 -9.60936e-06 0 -7.66546e-06 -9.68402e-06 0 -7.04134e-06 -9.72509e-06 0 -6.45652e-06 -9.73948e-06 0 -5.9079e-06 -9.73297e-06 0 -5.39253e-06 -9.71044e-06 0 -4.90757e-06 -9.67599e-06 0 -4.4503e-06 -9.63308e-06 0 -4.01815e-06 -9.58462e-06 0 -3.60865e-06 -9.53308e-06 0 -3.21947e-06 -9.48051e-06 0 -2.84839e-06 -9.42865e-06 0 -2.49327e-06 -9.37895e-06 0 -2.1521e-06 -9.33261e-06 0 -1.82293e-06 -9.29063e-06 0 -1.50392e-06 -9.25384e-06 0 -1.19326e-06 -9.22287e-06 0 -8.89213e-07 -9.19825e-06 0 -5.90091e-07 -9.18037e-06 0 -2.94232e-07 -9.16948e-06 0 0 -9.16576e-06 0 -2.13884e-05 -4.39293e-06 0 -1.9457e-05 -5.24137e-06 0 -1.77226e-05 -6.18864e-06 0 -1.62254e-05 -7.06628e-06 0 -1.49115e-05 -7.80786e-06 0 -1.37318e-05 -8.40863e-06 0 -1.26558e-05 -8.8828e-06 0 -1.16653e-05 -9.24902e-06 0 -1.07489e-05 -9.52512e-06 0 -9.89868e-06 -9.72684e-06 0 -9.10843e-06 -9.86768e-06 0 -8.37309e-06 -9.95906e-06 0 -7.68814e-06 -1.00106e-05 0 -7.04947e-06 -1.00304e-05 0 -6.45325e-06 -1.00252e-05 0 -5.89587e-06 -1.00007e-05 0 -5.37395e-06 -9.96176e-06 0 -4.8843e-06 -9.91236e-06 0 -4.42393e-06 -9.85589e-06 0 -3.98998e-06 -9.7952e-06 0 -3.57981e-06 -9.73266e-06 0 -3.19088e-06 -9.67028e-06 0 -2.82082e-06 -9.60972e-06 0 -2.46737e-06 -9.55239e-06 0 -2.12841e-06 -9.49945e-06 0 -1.8019e-06 -9.45183e-06 0 -1.48589e-06 -9.41032e-06 0 -1.17851e-06 -9.37555e-06 0 -8.77971e-07 -9.34799e-06 0 -5.82511e-07 -9.32802e-06 0 -2.90417e-07 -9.31588e-06 0 0 -9.31174e-06 0 -2.17599e-05 -5.36633e-06 0 -1.98905e-05 -6.16332e-06 0 -1.81567e-05 -7.00052e-06 0 -1.66097e-05 -7.77903e-06 0 -1.52301e-05 -8.44441e-06 0 -1.39863e-05 -8.98577e-06 0 -1.28537e-05 -9.41138e-06 0 -1.18151e-05 -9.73602e-06 0 -1.08587e-05 -9.97539e-06 0 -9.97551e-06 -1.0144e-05 0 -9.15844e-06 -1.02548e-05 0 -8.40146e-06 -1.03187e-05 0 -7.69925e-06 -1.03451e-05 0 -7.047e-06 -1.03419e-05 0 -6.44026e-06 -1.03157e-05 0 -5.87497e-06 -1.0272e-05 0 -5.3473e-06 -1.02157e-05 0 -4.85373e-06 -1.01505e-05 0 -4.39095e-06 -1.00798e-05 0 -3.95588e-06 -1.00062e-05 0 -3.54566e-06 -9.93219e-06 0 -3.15757e-06 -9.85957e-06 0 -2.7891e-06 -9.78998e-06 0 -2.43786e-06 -9.72474e-06 0 -2.10161e-06 -9.66494e-06 0 -1.77823e-06 -9.61149e-06 0 -1.4657e-06 -9.56512e-06 0 -1.16206e-06 -9.52641e-06 0 -8.65461e-07 -9.49582e-06 0 -5.74091e-07 -9.4737e-06 0 -2.86183e-07 -9.46028e-06 0 0 -9.4557e-06 0 -2.21352e-05 -6.31137e-06 0 -2.02871e-05 -7.07315e-06 0 -1.85427e-05 -7.82844e-06 0 -1.69521e-05 -8.52105e-06 0 -1.5515e-05 -9.1125e-06 0 -1.42133e-05 -9.5921e-06 0 -1.30282e-05 -9.96531e-06 0 -1.19445e-05 -1.02444e-05 0 -1.09502e-05 -1.04434e-05 0 -1.00358e-05 -1.05757e-05 0 -9.19344e-06 -1.06537e-05 0 -8.41616e-06 -1.06877e-05 0 -7.69789e-06 -1.0687e-05 0 -7.03315e-06 -1.06591e-05 0 -6.41693e-06 -1.06105e-05 0 -5.84467e-06 -1.05466e-05 0 -5.31214e-06 -1.04718e-05 0 -4.81546e-06 -1.039e-05 0 -4.35105e-06 -1.03043e-05 0 -3.91558e-06 -1.02174e-05 0 -3.50598e-06 -1.01313e-05 0 -3.11936e-06 -1.00481e-05 0 -2.75307e-06 -9.96914e-06 0 -2.4046e-06 -9.89571e-06 0 -2.07161e-06 -9.82883e-06 0 -1.75187e-06 -9.76937e-06 0 -1.44328e-06 -9.71799e-06 0 -1.14385e-06 -9.67523e-06 0 -8.51645e-07 -9.64154e-06 0 -5.64807e-07 -9.6172e-06 0 -2.81519e-07 -9.60246e-06 0 0 -9.59743e-06 0 -2.25111e-05 -7.24982e-06 0 -2.06561e-05 -7.9831e-06 0 -1.8889e-05 -8.67253e-06 0 -1.72558e-05 -9.28906e-06 0 -1.57661e-05 -9.80898e-06 0 -1.44113e-05 -1.02253e-05 0 -1.31775e-05 -1.05429e-05 0 -1.20515e-05 -1.07728e-05 0 -1.10217e-05 -1.0928e-05 0 -1.00782e-05 -1.1021e-05 0 -9.21217e-06 -1.10635e-05 0 -8.41611e-06 -1.10655e-05 0 -7.68315e-06 -1.10357e-05 0 -7.00718e-06 -1.09815e-05 0 -6.38262e-06 -1.09092e-05 0 -5.80444e-06 -1.08238e-05 0 -5.26802e-06 -1.07297e-05 0 -4.76914e-06 -1.06304e-05 0 -4.30392e-06 -1.05291e-05 0 -3.86882e-06 -1.04282e-05 0 -3.46055e-06 -1.03298e-05 0 -3.07608e-06 -1.02356e-05 0 -2.7126e-06 -1.01469e-05 0 -2.36748e-06 -1.0065e-05 0 -2.03829e-06 -9.99087e-06 0 -1.72271e-06 -9.92522e-06 0 -1.41858e-06 -9.86869e-06 0 -1.12384e-06 -9.82179e-06 0 -8.36491e-07 -9.7849e-06 0 -5.54636e-07 -9.75831e-06 0 -2.76414e-07 -9.74221e-06 0 0 -9.73672e-06 0 -2.28854e-05 -8.19647e-06 0 -2.10021e-05 -8.90298e-06 0 -1.92009e-05 -9.53499e-06 0 -1.75233e-05 -1.00817e-05 0 -1.59835e-05 -1.05317e-05 0 -1.4579e-05 -1.08833e-05 0 -1.32998e-05 -1.11425e-05 0 -1.21345e-05 -1.13201e-05 0 -1.10717e-05 -1.14282e-05 0 -1.01011e-05 -1.1479e-05 0 -9.21345e-06 -1.14834e-05 0 -8.4003e-06 -1.14511e-05 0 -7.65419e-06 -1.13905e-05 0 -6.96836e-06 -1.13085e-05 0 -6.33674e-06 -1.12111e-05 0 -5.75379e-06 -1.11031e-05 0 -5.21453e-06 -1.09888e-05 0 -4.71441e-06 -1.08714e-05 0 -4.24928e-06 -1.07539e-05 0 -3.81537e-06 -1.06385e-05 0 -3.40919e-06 -1.05272e-05 0 -3.02756e-06 -1.04216e-05 0 -2.66754e-06 -1.0323e-05 0 -2.32639e-06 -1.02324e-05 0 -2.00157e-06 -1.01508e-05 0 -1.6907e-06 -1.00788e-05 0 -1.39155e-06 -1.0017e-05 0 -1.10198e-06 -9.96584e-06 0 -8.19965e-07 -9.92568e-06 0 -5.43559e-07 -9.89678e-06 0 -2.70857e-07 -9.87929e-06 0 0 -9.87334e-06 0 -2.32555e-05 -9.16232e-06 0 -2.13269e-05 -9.84078e-06 0 -1.94813e-05 -1.04188e-05 0 -1.77559e-05 -1.08986e-05 0 -1.6167e-05 -1.12794e-05 0 -1.47153e-05 -1.15646e-05 0 -1.33937e-05 -1.17627e-05 0 -1.21919e-05 -1.18847e-05 0 -1.10987e-05 -1.19428e-05 0 -1.01034e-05 -1.19485e-05 0 -9.19612e-06 -1.19124e-05 0 -8.36776e-06 -1.18438e-05 0 -7.61017e-06 -1.17506e-05 0 -6.91602e-06 -1.16393e-05 0 -6.2787e-06 -1.15156e-05 0 -5.69223e-06 -1.13841e-05 0 -5.15127e-06 -1.12486e-05 0 -4.65094e-06 -1.11124e-05 0 -4.18685e-06 -1.09781e-05 0 -3.75498e-06 -1.08477e-05 0 -3.3517e-06 -1.07232e-05 0 -2.97365e-06 -1.06059e-05 0 -2.61777e-06 -1.0497e-05 0 -2.28122e-06 -1.03975e-05 0 -1.96137e-06 -1.03083e-05 0 -1.65577e-06 -1.02298e-05 0 -1.36211e-06 -1.01626e-05 0 -1.07823e-06 -1.01071e-05 0 -8.02042e-07 -1.00636e-05 0 -5.31557e-07 -1.00324e-05 0 -2.64841e-07 -1.00135e-05 0 0 -1.00071e-05 0 -2.36187e-05 -1.01562e-05 0 -2.16305e-05 -1.08032e-05 0 -1.9731e-05 -1.13272e-05 0 -1.79541e-05 -1.17406e-05 0 -1.63159e-05 -1.20511e-05 0 -1.4819e-05 -1.22679e-05 0 -1.34577e-05 -1.24019e-05 0 -1.22222e-05 -1.24654e-05 0 -1.11012e-05 -1.24704e-05 0 -1.00837e-05 -1.24285e-05 0 -9.15908e-06 -1.23496e-05 0 -8.31755e-06 -1.22427e-05 0 -7.55033e-06 -1.21151e-05 0 -6.8495e-06 -1.19732e-05 0 -6.20796e-06 -1.1822e-05 0 -5.61932e-06 -1.1666e-05 0 -5.07787e-06 -1.15087e-05 0 -4.57843e-06 -1.13529e-05 0 -4.11637e-06 -1.12012e-05 0 -3.68747e-06 -1.10555e-05 0 -3.28791e-06 -1.09173e-05 0 -2.91421e-06 -1.0788e-05 0 -2.56318e-06 -1.06687e-05 0 -2.23188e-06 -1.05601e-05 0 -1.91761e-06 -1.0463e-05 0 -1.61785e-06 -1.03779e-05 0 -1.33025e-06 -1.03053e-05 0 -1.05256e-06 -1.02454e-05 0 -7.82696e-07 -1.01986e-05 0 -5.18614e-07 -1.01649e-05 0 -2.58356e-07 -1.01446e-05 0 0 -1.01377e-05 0 -2.39717e-05 -1.11856e-05 0 -2.19114e-05 -1.17961e-05 0 -1.99497e-05 -1.22633e-05 0 -1.81173e-05 -1.26083e-05 0 -1.64294e-05 -1.28464e-05 0 -1.48888e-05 -1.2992e-05 0 -1.34902e-05 -1.30589e-05 0 -1.22238e-05 -1.30607e-05 0 -1.1078e-05 -1.30099e-05 0 -1.00409e-05 -1.29177e-05 0 -9.1013e-06 -1.27939e-05 0 -8.24879e-06 -1.26468e-05 0 -7.47392e-06 -1.24833e-05 0 -6.76819e-06 -1.23093e-05 0 -6.12403e-06 -1.21297e-05 0 -5.53464e-06 -1.19482e-05 0 -4.99398e-06 -1.17683e-05 0 -4.4966e-06 -1.15924e-05 0 -4.03762e-06 -1.14229e-05 0 -3.61264e-06 -1.12613e-05 0 -3.21768e-06 -1.11092e-05 0 -2.84911e-06 -1.09677e-05 0 -2.50366e-06 -1.08377e-05 0 -2.1783e-06 -1.07198e-05 0 -1.87024e-06 -1.06148e-05 0 -1.57691e-06 -1.0523e-05 0 -1.2959e-06 -1.04448e-05 0 -1.02495e-06 -1.03804e-05 0 -7.61905e-07 -1.03302e-05 0 -5.04718e-07 -1.02941e-05 0 -2.51398e-07 -1.02723e-05 0 0 -1.02649e-05 0 -2.4311e-05 -1.22574e-05 0 -2.21674e-05 -1.28245e-05 0 -2.01357e-05 -1.32301e-05 0 -1.8244e-05 -1.35028e-05 0 -1.65058e-05 -1.36649e-05 0 -1.49231e-05 -1.37357e-05 0 -1.34897e-05 -1.37322e-05 0 -1.21953e-05 -1.36692e-05 0 -1.10275e-05 -1.35597e-05 0 -9.97369e-06 -1.34148e-05 0 -9.02179e-06 -1.32439e-05 0 -8.16067e-06 -1.30549e-05 0 -7.38025e-06 -1.28541e-05 0 -6.67152e-06 -1.26469e-05 0 -6.02642e-06 -1.24377e-05 0 -5.43781e-06 -1.22301e-05 0 -4.8993e-06 -1.20268e-05 0 -4.40519e-06 -1.18304e-05 0 -3.95039e-06 -1.16425e-05 0 -3.53032e-06 -1.14648e-05 0 -3.14085e-06 -1.12985e-05 0 -2.77825e-06 -1.11445e-05 0 -2.43913e-06 -1.10036e-05 0 -2.1204e-06 -1.08763e-05 0 -1.81919e-06 -1.07632e-05 0 -1.53289e-06 -1.06646e-05 0 -1.25904e-06 -1.05808e-05 0 -9.95358e-07 -1.05119e-05 0 -7.39655e-07 -1.04582e-05 0 -4.89858e-07 -1.04197e-05 0 -2.4396e-07 -1.03964e-05 0 0 -1.03885e-05 0 -2.46324e-05 -1.33776e-05 0 -2.2395e-05 -1.38931e-05 0 -2.02864e-05 -1.42302e-05 0 -1.83321e-05 -1.44251e-05 0 -1.65432e-05 -1.45063e-05 0 -1.49199e-05 -1.44982e-05 0 -1.34544e-05 -1.44204e-05 0 -1.21352e-05 -1.42893e-05 0 -1.09486e-05 -1.41183e-05 0 -9.88107e-06 -1.39184e-05 0 -8.91964e-06 -1.36985e-05 0 -8.05242e-06 -1.34659e-05 0 -7.26871e-06 -1.32264e-05 0 -6.55897e-06 -1.2985e-05 0 -5.91473e-06 -1.27454e-05 0 -5.32848e-06 -1.25108e-05 0 -4.79354e-06 -1.22837e-05 0 -4.30397e-06 -1.20661e-05 0 -3.85449e-06 -1.18596e-05 0 -3.44036e-06 -1.16655e-05 0 -3.05732e-06 -1.14847e-05 0 -2.70154e-06 -1.1318e-05 0 -2.36952e-06 -1.11661e-05 0 -2.05812e-06 -1.10293e-05 0 -1.76442e-06 -1.09081e-05 0 -1.48576e-06 -1.08026e-05 0 -1.21966e-06 -1.07131e-05 0 -9.63777e-07 -1.06397e-05 0 -7.15931e-07 -1.05824e-05 0 -4.74025e-07 -1.05414e-05 0 -2.36039e-07 -1.05167e-05 0 0 -1.05083e-05 0 -2.49312e-05 -1.45522e-05 0 -2.259e-05 -1.50062e-05 0 -2.03982e-05 -1.52661e-05 0 -1.83785e-05 -1.53757e-05 0 -1.65391e-05 -1.53701e-05 0 -1.48771e-05 -1.5278e-05 0 -1.33826e-05 -1.51219e-05 0 -1.20419e-05 -1.49194e-05 0 -1.084e-05 -1.46842e-05 0 -9.76197e-06 -1.4427e-05 0 -8.79398e-06 -1.41562e-05 0 -7.92333e-06 -1.38786e-05 0 -7.13872e-06 -1.35993e-05 0 -6.43009e-06 -1.33226e-05 0 -5.78858e-06 -1.30518e-05 0 -5.20635e-06 -1.27897e-05 0 -4.67646e-06 -1.25382e-05 0 -4.19276e-06 -1.22991e-05 0 -3.74978e-06 -1.20736e-05 0 -3.34265e-06 -1.18627e-05 0 -2.967e-06 -1.16673e-05 0 -2.61889e-06 -1.14878e-05 0 -2.29477e-06 -1.13247e-05 0 -1.99143e-06 -1.11784e-05 0 -1.70591e-06 -1.10489e-05 0 -1.43551e-06 -1.09365e-05 0 -1.17772e-06 -1.08413e-05 0 -9.30192e-07 -1.07633e-05 0 -6.90726e-07 -1.07026e-05 0 -4.57215e-07 -1.06591e-05 0 -2.27632e-07 -1.06329e-05 0 0 -1.0624e-05 0 -2.52018e-05 -1.57871e-05 0 -2.27472e-05 -1.61677e-05 0 -2.04667e-05 -1.63397e-05 0 -1.83797e-05 -1.63552e-05 0 -1.64905e-05 -1.62555e-05 0 -1.47924e-05 -1.60738e-05 0 -1.32723e-05 -1.5835e-05 0 -1.1914e-05 -1.55577e-05 0 -1.07004e-05 -1.52556e-05 0 -9.61543e-06 -1.4939e-05 0 -8.64404e-06 -1.46157e-05 0 -7.77279e-06 -1.42917e-05 0 -6.98978e-06 -1.39715e-05 0 -6.28447e-06 -1.36587e-05 0 -5.64765e-06 -1.33561e-05 0 -5.07117e-06 -1.30658e-05 0 -4.54786e-06 -1.27896e-05 0 -4.07139e-06 -1.25286e-05 0 -3.63613e-06 -1.22839e-05 0 -3.23709e-06 -1.20562e-05 0 -2.8698e-06 -1.18459e-05 0 -2.53025e-06 -1.16535e-05 0 -2.21484e-06 -1.14792e-05 0 -1.92029e-06 -1.13232e-05 0 -1.64362e-06 -1.11855e-05 0 -1.38211e-06 -1.10662e-05 0 -1.13322e-06 -1.09653e-05 0 -8.94597e-07 -1.08827e-05 0 -6.64036e-07 -1.08184e-05 0 -4.39425e-07 -1.07725e-05 0 -2.18738e-07 -1.07448e-05 0 0 -1.07354e-05 0 -2.54377e-05 -1.7088e-05 0 -2.28604e-05 -1.73812e-05 0 -2.04864e-05 -1.74527e-05 0 -1.83312e-05 -1.73634e-05 0 -1.6394e-05 -1.71614e-05 0 -1.46632e-05 -1.68839e-05 0 -1.31216e-05 -1.65577e-05 0 -1.17499e-05 -1.62021e-05 0 -1.05288e-05 -1.58305e-05 0 -9.44056e-06 -1.54526e-05 0 -8.46913e-06 -1.50753e-05 0 -7.60026e-06 -1.47038e-05 0 -6.82146e-06 -1.43418e-05 0 -6.12178e-06 -1.39922e-05 0 -5.49167e-06 -1.36572e-05 0 -4.92273e-06 -1.33385e-05 0 -4.40759e-06 -1.30371e-05 0 -3.93974e-06 -1.27541e-05 0 -3.51345e-06 -1.249e-05 0 -3.12362e-06 -1.22452e-05 0 -2.76569e-06 -1.20201e-05 0 -2.4356e-06 -1.18147e-05 0 -2.12971e-06 -1.16292e-05 0 -1.84469e-06 -1.14634e-05 0 -1.57756e-06 -1.13175e-05 0 -1.32556e-06 -1.11912e-05 0 -1.08615e-06 -1.10846e-05 0 -8.56993e-07 -1.09974e-05 0 -6.35862e-07 -1.09297e-05 0 -4.20657e-07 -1.08813e-05 0 -2.09359e-07 -1.08521e-05 0 0 -1.08422e-05 0 -2.56311e-05 -1.84606e-05 0 -2.29224e-05 -1.86501e-05 0 -2.04511e-05 -1.8606e-05 0 -1.8228e-05 -1.83998e-05 0 -1.62458e-05 -1.80862e-05 0 -1.44868e-05 -1.7706e-05 0 -1.29285e-05 -1.72877e-05 0 -1.15482e-05 -1.68504e-05 0 -1.0324e-05 -1.6407e-05 0 -9.23657e-06 -1.5966e-05 0 -8.26865e-06 -1.55335e-05 0 -7.40527e-06 -1.51135e-05 0 -6.63341e-06 -1.4709e-05 0 -5.94175e-06 -1.43221e-05 0 -5.32045e-06 -1.39543e-05 0 -4.76088e-06 -1.36068e-05 0 -4.25552e-06 -1.32801e-05 0 -3.79774e-06 -1.29748e-05 0 -3.38168e-06 -1.26912e-05 0 -3.00218e-06 -1.24293e-05 0 -2.65463e-06 -1.21893e-05 0 -2.33492e-06 -1.19709e-05 0 -2.03936e-06 -1.17741e-05 0 -1.76463e-06 -1.15987e-05 0 -1.50772e-06 -1.14446e-05 0 -1.26586e-06 -1.13114e-05 0 -1.03654e-06 -1.11991e-05 0 -8.17387e-07 -1.11073e-05 0 -6.0621e-07 -1.10361e-05 0 -4.00915e-07 -1.09852e-05 0 -1.99495e-07 -1.09546e-05 0 0 -1.09442e-05 0 -2.57732e-05 -1.9911e-05 0 -2.29245e-05 -1.99772e-05 0 -2.03534e-05 -1.98e-05 0 -1.80644e-05 -1.94629e-05 0 -1.60418e-05 -1.90274e-05 0 -1.42601e-05 -1.85375e-05 0 -1.26911e-05 -1.80223e-05 0 -1.13075e-05 -1.75002e-05 0 -1.00852e-05 -1.69828e-05 0 -9.00279e-06 -1.64773e-05 0 -8.04211e-06 -1.59885e-05 0 -7.18747e-06 -1.55193e-05 0 -6.42537e-06 -1.50718e-05 0 -5.74419e-06 -1.46472e-05 0 -5.13382e-06 -1.42464e-05 0 -4.58551e-06 -1.38698e-05 0 -4.09159e-06 -1.35177e-05 0 -3.64532e-06 -1.31901e-05 0 -3.2408e-06 -1.28869e-05 0 -2.87278e-06 -1.2608e-05 0 -2.53663e-06 -1.2353e-05 0 -2.22822e-06 -1.21217e-05 0 -1.94383e-06 -1.19137e-05 0 -1.68013e-06 -1.17287e-05 0 -1.43412e-06 -1.15664e-05 0 -1.20305e-06 -1.14263e-05 0 -9.84382e-07 -1.13083e-05 0 -7.75793e-07 -1.12121e-05 0 -5.75092e-07 -1.11374e-05 0 -3.80207e-07 -1.10841e-05 0 -1.89152e-07 -1.10521e-05 0 0 -1.10412e-05 0 -2.58533e-05 -2.1445e-05 0 -2.28566e-05 -2.13648e-05 0 -2.01849e-05 -2.10341e-05 0 -1.7834e-05 -2.05504e-05 0 -1.57776e-05 -1.99819e-05 0 -1.39804e-05 -1.93752e-05 0 -1.24074e-05 -1.87586e-05 0 -1.10267e-05 -1.81488e-05 0 -9.81146e-06 -1.75556e-05 0 -8.73868e-06 -1.69844e-05 0 -7.78915e-06 -1.64385e-05 0 -6.9466e-06 -1.59197e-05 0 -6.19717e-06 -1.54288e-05 0 -5.52896e-06 -1.49663e-05 0 -4.93174e-06 -1.45323e-05 0 -4.39659e-06 -1.41267e-05 0 -3.91578e-06 -1.37492e-05 0 -3.4825e-06 -1.33993e-05 0 -3.09081e-06 -1.30766e-05 0 -2.73544e-06 -1.27807e-05 0 -2.41172e-06 -1.25109e-05 0 -2.11552e-06 -1.22667e-05 0 -1.84313e-06 -1.20476e-05 0 -1.59122e-06 -1.18531e-05 0 -1.3568e-06 -1.16826e-05 0 -1.13713e-06 -1.15358e-05 0 -9.29715e-07 -1.14122e-05 0 -7.32232e-07 -1.13115e-05 0 -5.42523e-07 -1.12334e-05 0 -3.58543e-07 -1.11777e-05 0 -1.78335e-07 -1.11442e-05 0 0 -1.11329e-05 0 -2.58587e-05 -2.30687e-05 0 -2.27066e-05 -2.28145e-05 0 -1.99358e-05 -2.23066e-05 0 -1.753e-05 -2.16587e-05 0 -1.54487e-05 -2.09459e-05 0 -1.36449e-05 -2.02152e-05 0 -1.20757e-05 -1.9493e-05 0 -1.07048e-05 -1.87932e-05 0 -9.50225e-06 -1.81228e-05 0 -8.44386e-06 -1.74852e-05 0 -7.50953e-06 -1.68818e-05 0 -6.68253e-06 -1.6313e-05 0 -5.94872e-06 -1.57787e-05 0 -5.29605e-06 -1.52783e-05 0 -4.71417e-06 -1.48112e-05 0 -4.19412e-06 -1.43766e-05 0 -3.72811e-06 -1.39737e-05 0 -3.30932e-06 -1.36017e-05 0 -2.93177e-06 -1.32597e-05 0 -2.5902e-06 -1.29468e-05 0 -2.27995e-06 -1.26623e-05 0 -1.99688e-06 -1.24054e-05 0 -1.73732e-06 -1.21753e-05 0 -1.49795e-06 -1.19714e-05 0 -1.2758e-06 -1.17929e-05 0 -1.06817e-06 -1.16394e-05 0 -8.7257e-07 -1.15103e-05 0 -6.86732e-07 -1.14052e-05 0 -5.08525e-07 -1.13238e-05 0 -3.35938e-07 -1.12658e-05 0 -1.67051e-07 -1.12309e-05 0 0 -1.1219e-05 0 -2.57742e-05 -2.47886e-05 0 -2.24604e-05 -2.43271e-05 0 -1.9595e-05 -2.3614e-05 0 -1.7145e-05 -2.27827e-05 0 -1.50505e-05 -2.19139e-05 0 -1.3251e-05 -2.10529e-05 0 -1.16947e-05 -2.02217e-05 0 -1.03408e-05 -1.94301e-05 0 -9.15715e-06 -1.86817e-05 0 -8.11815e-06 -1.79773e-05 0 -7.20318e-06 -1.73164e-05 0 -6.39524e-06 -1.66978e-05 0 -5.68004e-06 -1.61201e-05 0 -5.04549e-06 -1.5582e-05 0 -4.48119e-06 -1.50819e-05 0 -3.97818e-06 -1.46185e-05 0 -3.52867e-06 -1.41905e-05 0 -3.12585e-06 -1.37965e-05 0 -2.76375e-06 -1.34354e-05 0 -2.43715e-06 -1.31059e-05 0 -2.1414e-06 -1.28069e-05 0 -1.87239e-06 -1.25374e-05 0 -1.62648e-06 -1.22965e-05 0 -1.40039e-06 -1.20833e-05 0 -1.19119e-06 -1.1897e-05 0 -9.96196e-07 -1.17369e-05 0 -8.12991e-07 -1.16024e-05 0 -6.3933e-07 -1.14931e-05 0 -4.73125e-07 -1.14084e-05 0 -3.12411e-07 -1.1348e-05 0 -1.5531e-07 -1.13117e-05 0 0 -1.12994e-05 0 -2.55811e-05 -2.66112e-05 0 -2.21008e-05 -2.59015e-05 0 -1.91501e-05 -2.49505e-05 0 -1.66712e-05 -2.39154e-05 0 -1.45791e-05 -2.28795e-05 0 -1.27966e-05 -2.18828e-05 0 -1.12635e-05 -2.09404e-05 0 -9.9346e-06 -2.00561e-05 0 -8.77604e-06 -1.92296e-05 0 -7.76154e-06 -1.84586e-05 0 -6.87017e-06 -1.77404e-05 0 -6.08483e-06 -1.70723e-05 0 -5.39127e-06 -1.64516e-05 0 -4.77742e-06 -1.58761e-05 0 -4.23294e-06 -1.53434e-05 0 -3.74891e-06 -1.48516e-05 0 -3.31759e-06 -1.43988e-05 0 -2.93222e-06 -1.39832e-05 0 -2.58689e-06 -1.36032e-05 0 -2.27641e-06 -1.32573e-05 0 -1.99617e-06 -1.2944e-05 0 -1.74214e-06 -1.26622e-05 0 -1.51069e-06 -1.24107e-05 0 -1.29862e-06 -1.21885e-05 0 -1.10302e-06 -1.19945e-05 0 -9.21287e-07 -1.1828e-05 0 -7.51032e-07 -1.16883e-05 0 -5.90067e-07 -1.15747e-05 0 -4.36356e-07 -1.14868e-05 0 -2.87983e-07 -1.14242e-05 0 -1.43121e-07 -1.13866e-05 0 0 -1.13738e-05 0 -2.52568e-05 -2.85436e-05 0 -2.1607e-05 -2.75345e-05 0 -1.85871e-05 -2.63074e-05 0 -1.61012e-05 -2.50472e-05 0 -1.40309e-05 -2.38349e-05 0 -1.22804e-05 -2.2699e-05 0 -1.07815e-05 -2.16444e-05 0 -9.486e-06 -2.06677e-05 0 -8.35909e-06 -1.97636e-05 0 -7.37427e-06 -1.89267e-05 0 -6.51074e-06 -1.81519e-05 0 -5.75155e-06 -1.74349e-05 0 -5.08263e-06 -1.67719e-05 0 -4.49206e-06 -1.61595e-05 0 -3.96961e-06 -1.55948e-05 0 -3.50649e-06 -1.5075e-05 0 -3.09505e-06 -1.45978e-05 0 -2.72861e-06 -1.4161e-05 0 -2.40134e-06 -1.37625e-05 0 -2.10812e-06 -1.34005e-05 0 -1.84442e-06 -1.30733e-05 0 -1.60625e-06 -1.27795e-05 0 -1.39008e-06 -1.25177e-05 0 -1.19274e-06 -1.22866e-05 0 -1.0114e-06 -1.20852e-05 0 -8.43514e-07 -1.19124e-05 0 -6.86756e-07 -1.17676e-05 0 -5.38996e-07 -1.165e-05 0 -3.98256e-07 -1.1559e-05 0 -2.6268e-07 -1.14942e-05 0 -1.30498e-07 -1.14553e-05 0 0 -1.1442e-05 0 -2.47708e-05 -3.05936e-05 0 -2.09538e-05 -2.92194e-05 0 -1.78906e-05 -2.76709e-05 0 -1.54283e-05 -2.61659e-05 0 -1.34034e-05 -2.47706e-05 0 -1.17018e-05 -2.34946e-05 0 -1.0249e-05 -2.23288e-05 0 -8.99551e-06 -2.12611e-05 0 -7.90677e-06 -2.02808e-05 0 -6.9568e-06 -1.93792e-05 0 -6.12531e-06 -1.85489e-05 0 -5.39578e-06 -1.7784e-05 0 -4.75447e-06 -1.70794e-05 0 -4.18971e-06 -1.6431e-05 0 -3.69149e-06 -1.58348e-05 0 -3.25119e-06 -1.52877e-05 0 -2.86129e-06 -1.47867e-05 0 -2.51524e-06 -1.43291e-05 0 -2.2073e-06 -1.39126e-05 0 -1.93247e-06 -1.3535e-05 0 -1.68629e-06 -1.31943e-05 0 -1.46488e-06 -1.28888e-05 0 -1.26476e-06 -1.26169e-05 0 -1.08286e-06 -1.23773e-05 0 -9.16424e-07 -1.21686e-05 0 -7.62966e-07 -1.19899e-05 0 -6.20236e-07 -1.18401e-05 0 -4.86173e-07 -1.17185e-05 0 -3.58868e-07 -1.16245e-05 0 -2.3653e-07 -1.15576e-05 0 -1.17456e-07 -1.15175e-05 0 0 -1.15039e-05 0 -2.40889e-05 -3.27718e-05 0 -2.01081e-05 -3.09426e-05 0 -1.7045e-05 -2.90209e-05 0 -1.46474e-05 -2.72556e-05 0 -1.26964e-05 -2.56762e-05 0 -1.10617e-05 -2.42626e-05 0 -9.66697e-06 -2.29886e-05 0 -8.46408e-06 -2.18326e-05 0 -7.41991e-06 -2.07784e-05 0 -6.50983e-06 -1.98139e-05 0 -5.71447e-06 -1.89296e-05 0 -5.01802e-06 -1.8118e-05 0 -4.40722e-06 -1.7373e-05 0 -3.87076e-06 -1.66893e-05 0 -3.39894e-06 -1.60626e-05 0 -2.98332e-06 -1.54889e-05 0 -2.61659e-06 -1.49647e-05 0 -2.29235e-06 -1.4487e-05 0 -2.00501e-06 -1.4053e-05 0 -1.74966e-06 -1.36602e-05 0 -1.52199e-06 -1.33065e-05 0 -1.31819e-06 -1.29897e-05 0 -1.1349e-06 -1.27081e-05 0 -9.69132e-07 -1.24602e-05 0 -8.1821e-07 -1.22446e-05 0 -6.79741e-07 -1.20601e-05 0 -5.51554e-07 -1.19055e-05 0 -4.31665e-07 -1.17802e-05 0 -3.18241e-07 -1.16834e-05 0 -2.09566e-07 -1.16144e-05 0 -1.0401e-07 -1.15731e-05 0 0 -1.1559e-05 0 -2.31461e-05 -3.50898e-05 0 -1.90302e-05 -3.26796e-05 0 -1.60352e-05 -3.03274e-05 0 -1.37575e-05 -2.82979e-05 0 -1.19114e-05 -2.65399e-05 0 -1.03623e-05 -2.49957e-05 0 -9.03738e-06 -2.36189e-05 0 -7.89319e-06 -2.23786e-05 0 -6.89967e-06 -2.12536e-05 0 -6.03426e-06 -2.02285e-05 0 -5.27898e-06 -1.92921e-05 0 -4.61891e-06 -1.84353e-05 0 -4.04143e-06 -1.76512e-05 0 -3.5357e-06 -1.69335e-05 0 -3.09236e-06 -1.62772e-05 0 -2.70326e-06 -1.56777e-05 0 -2.36129e-06 -1.51311e-05 0 -2.06026e-06 -1.4634e-05 0 -1.79474e-06 -1.41831e-05 0 -1.55996e-06 -1.37758e-05 0 -1.35174e-06 -1.34094e-05 0 -1.16639e-06 -1.30818e-05 0 -1.00067e-06 -1.27909e-05 0 -8.51696e-07 -1.25351e-05 0 -7.1689e-07 -1.23129e-05 0 -5.93951e-07 -1.21228e-05 0 -4.80802e-07 -1.19637e-05 0 -3.75543e-07 -1.18348e-05 0 -2.76428e-07 -1.17352e-05 0 -1.81823e-07 -1.16643e-05 0 -9.01781e-08 -1.16218e-05 0 0 -1.16074e-05 0 -2.19029e-05 -3.75837e-05 0 -1.76567e-05 -3.43763e-05 0 -1.48547e-05 -3.15499e-05 0 -1.27623e-05 -2.92715e-05 0 -1.10538e-05 -2.73504e-05 0 -9.60735e-06 -2.56872e-05 0 -8.36292e-06 -2.42152e-05 0 -7.28479e-06 -2.28959e-05 0 -6.3475e-06 -2.17037e-05 0 -5.53125e-06 -2.0621e-05 0 -4.81975e-06 -1.96346e-05 0 -4.1992e-06 -1.87346e-05 0 -3.65774e-06 -1.79127e-05 0 -3.18508e-06 -1.71623e-05 0 -2.77225e-06 -1.64775e-05 0 -2.41143e-06 -1.58533e-05 0 -2.09578e-06 -1.52852e-05 0 -1.81932e-06 -1.47694e-05 0 -1.5768e-06 -1.43024e-05 0 -1.36363e-06 -1.3881e-05 0 -1.17577e-06 -1.35026e-05 0 -1.0097e-06 -1.31646e-05 0 -8.62269e-07 -1.2865e-05 0 -7.30725e-07 -1.26017e-05 0 -6.12607e-07 -1.2373e-05 0 -5.05719e-07 -1.21777e-05 0 -4.0808e-07 -1.20143e-05 0 -3.17889e-07 -1.1882e-05 0 -2.33491e-07 -1.17798e-05 0 -1.53342e-07 -1.17072e-05 0 -7.59804e-08 -1.16636e-05 0 0 -1.16488e-05 0 -2.00954e-05 -4.02638e-05 0 -1.59349e-05 -3.59298e-05 0 -1.35078e-05 -3.26352e-05 0 -1.16756e-05 -3.01568e-05 0 -1.01316e-05 -2.80967e-05 0 -8.80246e-06 -2.63314e-05 0 -7.64707e-06 -2.47734e-05 0 -6.6413e-06 -2.33816e-05 0 -5.76515e-06 -2.21266e-05 0 -5.00211e-06 -2.09894e-05 0 -4.33783e-06 -1.99556e-05 0 -3.75976e-06 -1.90143e-05 0 -3.25689e-06 -1.81564e-05 0 -2.81953e-06 -1.73747e-05 0 -2.43917e-06 -1.66627e-05 0 -2.10834e-06 -1.60148e-05 0 -1.8205e-06 -1.54262e-05 0 -1.5699e-06 -1.48926e-05 0 -1.35153e-06 -1.44102e-05 0 -1.16098e-06 -1.39756e-05 0 -9.94378e-07 -1.35857e-05 0 -8.48346e-07 -1.3238e-05 0 -7.19899e-07 -1.29299e-05 0 -6.06402e-07 -1.26595e-05 0 -5.05523e-07 -1.24249e-05 0 -4.15178e-07 -1.22246e-05 0 -3.33499e-07 -1.20572e-05 0 -2.58789e-07 -1.19217e-05 0 -1.89493e-07 -1.18171e-05 0 -1.24165e-07 -1.17427e-05 0 -6.14383e-08 -1.16981e-05 0 0 -1.1683e-05 0 -1.77222e-05 -4.3275e-05 0 -1.37167e-05 -3.70558e-05 0 -1.20603e-05 -3.35646e-05 0 -1.05093e-05 -3.0926e-05 0 -9.15956e-06 -2.87754e-05 0 -7.9532e-06 -2.69225e-05 0 -6.89411e-06 -2.52908e-05 0 -5.96536e-06 -2.3833e-05 0 -5.15455e-06 -2.25201e-05 0 -4.4483e-06 -2.13319e-05 0 -3.83437e-06 -2.02534e-05 0 -3.30154e-06 -1.9273e-05 0 -2.83968e-06 -1.83811e-05 0 -2.43974e-06 -1.75697e-05 0 -2.09371e-06 -1.68318e-05 0 -1.79451e-06 -1.61615e-05 0 -1.53591e-06 -1.55534e-05 0 -1.31244e-06 -1.5003e-05 0 -1.11932e-06 -1.45061e-05 0 -9.52345e-07 -1.40589e-05 0 -8.07846e-07 -1.36583e-05 0 -6.82604e-07 -1.33013e-05 0 -5.73795e-07 -1.29854e-05 0 -4.78929e-07 -1.27084e-05 0 -3.95806e-07 -1.24682e-05 0 -3.22473e-07 -1.22633e-05 0 -2.57177e-07 -1.20922e-05 0 -1.98336e-07 -1.19536e-05 0 -1.44504e-07 -1.18468e-05 0 -9.43378e-08 -1.17708e-05 0 -4.65744e-08 -1.17253e-05 0 0 -1.17099e-05 0 -1.10465e-05 -4.46071e-05 0 -1.14696e-05 -3.76118e-05 0 -1.05178e-05 -3.42951e-05 0 -9.31692e-06 -3.15763e-05 0 -8.1445e-06 -2.93822e-05 0 -7.06908e-06 -2.74583e-05 0 -6.10806e-06 -2.57652e-05 0 -5.2601e-06 -2.42481e-05 0 -4.51784e-06 -2.28825e-05 0 -3.87146e-06 -2.1647e-05 0 -3.31069e-06 -2.05268e-05 0 -2.82563e-06 -1.95097e-05 0 -2.40703e-06 -1.85857e-05 0 -2.04652e-06 -1.77463e-05 0 -1.73659e-06 -1.6984e-05 0 -1.47057e-06 -1.62926e-05 0 -1.24257e-06 -1.56663e-05 0 -1.04742e-06 -1.51001e-05 0 -8.80592e-07 -1.45895e-05 0 -7.38112e-07 -1.41307e-05 0 -6.16515e-07 -1.372e-05 0 -5.12768e-07 -1.33545e-05 0 -4.24217e-07 -1.30313e-05 0 -3.48529e-07 -1.27481e-05 0 -2.83652e-07 -1.25027e-05 0 -2.27765e-07 -1.22935e-05 0 -1.79247e-07 -1.21189e-05 0 -1.36636e-07 -1.19777e-05 0 -9.86009e-08 -1.18687e-05 0 -6.39124e-08 -1.17914e-05 0 -3.14144e-08 -1.1745e-05 0 0 -1.17292e-05 0 </DataArray> 
</PointData> 
<Points> 
<DataArray type="Float32" NumberOfComponents="3"> 