<?xml version="1.0"?> 
<VTKFile type="StructuredGrid" version="0.1"> 
<StructuredGrid WholeExtent="0 31 0 31 0 0"> 
<Piece Extent="0 31 0 31 0 0"> 
<PointData>
<DataArray type="Float32" Name="B" format="ascii" NumberOfComponents="3"> 
-7.74254e-06 -4.46071e-05 0 -1.12298e-05 -3.76118e-05 0 -1.04298e-05 -3.42951e-05 0 -9.31738e-06 -3.15763e-05 0 -8.15159e-06 -2.93822e-05 0 -7.08414e-06 -2.74583e-05 0 -6.12345e-06 -2.57652e-05 0 -5.2752e-06 -2.42481e-05 0 -4.53175e-06 -2.28825e-05 0 -3.884e-06 -2.1647e-05 0 -3.32185e-06 -2.05268e-05 0 -2.83544e-06 -1.95097e-05 0 -2.41562e-06 -1.85857e-05 0 -2.054e-06 -1.77463e-05 0 -1.74308e-06 -1.6984e-05 0 -1.47618e-06 -1.62926e-05 0 -1.24741e-06 -1.56663e-05 0 -1.05159e-06 -1.51001e-05 0 -8.84167e-07 -1.45895e-05 0 -7.41171e-07 -1.41307e-05 0 -6.19124e-07 -1.372e-05 0 -5.14985e-07 -1.33545e-05 0 -4.26089e-07 -1.30313e-05 0 -3.50099e-07 -1.27481e-05 0 -2.84955e-07 -1.25027e-05 0 -2.28831e-07 -1.22935e-05 0 -1.801e-07 -1.21189e-05 0 -1.37296e-07 -1.19777e-05 0 -9.90831e-08 -1.18687e-05 0 -6.42277e-08 -1.17914e-05 0 -3.15703e-08 -1.1745e-05 0 0 -1.17292e-05 0 -7.08622e-06 -3.97002e-05 0 -6.61962e-06 -3.8021e-05 0 -6.34527e-06 -3.54304e-05 0 -5.71457e-06 -3.30068e-05 0 -4.99273e-06 -3.07675e-05 0 -4.27124e-06 -2.87468e-05 0 -3.60319e-06 -2.69183e-05 0 -3.00481e-06 -2.52655e-05 0 -2.48024e-06 -2.37695e-05 0 -2.02662e-06 -2.24149e-05 0 -1.63838e-06 -2.11878e-05 0 -1.30885e-06 -2.00759e-05 0 -1.03126e-06 -1.90688e-05 0 -7.99112e-07 -1.81568e-05 0 -6.06446e-07 -1.73316e-05 0 -4.47886e-07 -1.65856e-05 0 -3.1866e-07 -1.59123e-05 0 -2.14571e-07 -1.53057e-05 0 -1.31953e-07 -1.47605e-05 0 -6.76157e-08 -1.4272e-05 0 -1.87917e-08 -1.38361e-05 0 1.69141e-08 -1.34491e-05 0 4.15747e-08 -1.31078e-05 0 5.69858e-08 -1.28093e-05 0 6.4706e-08 -1.25513e-05 0 6.60939e-08 -1.23317e-05 0 6.23408e-08 -1.21486e-05 0 5.45007e-08 -1.20007e-05 0 4.35176e-08 -1.18868e-05 0 3.02495e-08 -1.18059e-05 0 1.54921e-08 -1.17574e-05 0 0 -1.1741e-05 0 -4.08846e-06 -4.08747e-05 0 -3.42138e-06 -3.85716e-05 0 -2.79717e-06 -3.62535e-05 0 -2.272e-06 -3.39112e-05 0 -1.77664e-06 -3.16779e-05 0 -1.32203e-06 -2.95943e-05 0 -9.16083e-07 -2.76789e-05 0 -5.64512e-07 -2.59298e-05 0 -2.67349e-07 -2.43394e-05 0 -2.16798e-08 -2.28965e-05 0 1.77087e-07 -2.15896e-05 0 3.34165e-07 -2.0407e-05 0 4.54816e-07 -1.9338e-05 0 5.44029e-07 -1.83723e-05 0 6.06363e-07 -1.7501e-05 0 6.45887e-07 -1.67156e-05 0 6.66174e-07 -1.60086e-05 0 6.70327e-07 -1.53735e-05 0 6.61015e-07 -1.48042e-05 0 6.40517e-07 -1.42954e-05 0 6.10773e-07 -1.38424e-05 0 5.7342e-07 -1.34412e-05 0 5.29842e-07 -1.3088e-05 0 4.812e-07 -1.27798e-05 0 4.28469e-07 -1.25138e-05 0 3.72466e-07 -1.22877e-05 0 3.13881e-07 -1.20995e-05 0 2.53295e-07 -1.19475e-05 0 1.91205e-07 -1.18306e-05 0 1.28042e-07 -1.17476e-05 0 6.41893e-08 -1.16979e-05 0 0 -1.16811e-05 0 -6.03528e-07 -4.22014e-05 0 2.62658e-07 -3.96039e-05 0 8.25078e-07 -3.70255e-05 0 1.23248e-06 -3.45569e-05 0 1.52609e-06 -3.2225e-05 0 1.741e-06 -3.00563e-05 0 1.8947e-06 -2.80597e-05 0 1.99865e-06 -2.62353e-05 0 2.0608e-06 -2.4576e-05 0 2.0877e-06 -2.30719e-05 0 2.08502e-06 -2.17114e-05 0 2.05774e-06 -2.04827e-05 0 2.01025e-06 -1.93745e-05 0 1.94635e-06 -1.8376e-05 0 1.8693e-06 -1.74772e-05 0 1.78186e-06 -1.66692e-05 0 1.68634e-06 -1.59437e-05 0 1.58466e-06 -1.52934e-05 0 1.47839e-06 -1.47119e-05 0 1.36879e-06 -1.41933e-05 0 1.25687e-06 -1.37326e-05 0 1.14343e-06 -1.33253e-05 0 1.02907e-06 -1.29674e-05 0 9.14243e-07 -1.26555e-05 0 7.99277e-07 -1.23868e-05 0 6.8439e-07 -1.21586e-05 0 5.69713e-07 -1.19688e-05 0 4.55309e-07 -1.18158e-05 0 3.41185e-07 -1.16981e-05 0 2.27305e-07 -1.16146e-05 0 1.13605e-07 -1.15646e-05 0 0 -1.15477e-05 0 3.83182e-06 -4.36056e-05 0 4.46058e-06 -4.0478e-05 0 4.81929e-06 -3.75753e-05 0 4.97579e-06 -3.48814e-05 0 5.00084e-06 -3.23988e-05 0 4.93752e-06 -3.01237e-05 0 4.81554e-06 -2.80495e-05 0 4.65428e-06 -2.61664e-05 0 4.46685e-06 -2.44621e-05 0 4.26228e-06 -2.29232e-05 0 4.04696e-06 -2.15361e-05 0 3.82554e-06 -2.02874e-05 0 3.60145e-06 -1.91645e-05 0 3.3772e-06 -1.81555e-05 0 3.15465e-06 -1.72496e-05 0 2.93514e-06 -1.64373e-05 0 2.71961e-06 -1.57097e-05 0 2.50867e-06 -1.5059e-05 0 2.30267e-06 -1.44783e-05 0 2.10177e-06 -1.39614e-05 0 1.90596e-06 -1.35031e-05 0 1.71513e-06 -1.30985e-05 0 1.52902e-06 -1.27435e-05 0 1.34733e-06 -1.24346e-05 0 1.16968e-06 -1.21687e-05 0 9.95654e-07 -1.19431e-05 0 8.24782e-07 -1.17557e-05 0 6.56576e-07 -1.16047e-05 0 4.90527e-07 -1.14886e-05 0 3.26108e-07 -1.14064e-05 0 1.6278e-07 -1.13571e-05 0 0 -1.13404e-05 0 9.11276e-06 -4.44848e-05 0 9.30309e-06 -4.08857e-05 0 9.2365e-06 -3.76466e-05 0 9.00418e-06 -3.47299e-05 0 8.66405e-06 -3.21022e-05 0 8.25947e-06 -2.97361e-05 0 7.81991e-06 -2.76072e-05 0 7.36533e-06 -2.56935e-05 0 6.90884e-06 -2.39749e-05 0 6.45892e-06 -2.24326e-05 0 6.02088e-06 -2.10493e-05 0 5.5979e-06 -1.98093e-05 0 5.19173e-06 -1.86982e-05 0 4.80313e-06 -1.7703e-05 0 4.43223e-06 -1.68121e-05 0 4.07869e-06 -1.60152e-05 0 3.74187e-06 -1.5303e-05 0 3.42095e-06 -1.46674e-05 0 3.11495e-06 -1.41013e-05 0 2.82284e-06 -1.35983e-05 0 2.54351e-06 -1.31529e-05 0 2.27586e-06 -1.27603e-05 0 2.01876e-06 -1.24162e-05 0 1.77109e-06 -1.21172e-05 0 1.53175e-06 -1.186e-05 0 1.29966e-06 -1.1642e-05 0 1.07372e-06 -1.1461e-05 0 8.52894e-07 -1.13153e-05 0 6.36132e-07 -1.12033e-05 0 4.22406e-07 -1.1124e-05 0 2.10699e-07 -1.10765e-05 0 0 -1.10604e-05 0 1.51982e-05 -4.44528e-05 0 1.46826e-05 -4.04775e-05 0 1.40166e-05 -3.69959e-05 0 1.32612e-05 -3.39287e-05 0 1.24627e-05 -3.12177e-05 0 1.16526e-05 -2.88146e-05 0 1.08526e-05 -2.66802e-05 0 1.00766e-05 -2.47816e-05 0 9.33297e-06 -2.3091e-05 0 8.62648e-06 -2.15842e-05 0 7.95908e-06 -2.02404e-05 0 7.33099e-06 -1.90415e-05 0 6.74128e-06 -1.79714e-05 0 6.18829e-06 -1.70162e-05 0 5.66995e-06 -1.61636e-05 0 5.18393e-06 -1.54028e-05 0 4.72782e-06 -1.47243e-05 0 4.29918e-06 -1.41201e-05 0 3.89561e-06 -1.35827e-05 0 3.5148e-06 -1.31059e-05 0 3.15451e-06 -1.26843e-05 0 2.81261e-06 -1.23131e-05 0 2.48707e-06 -1.19881e-05 0 2.17595e-06 -1.17058e-05 0 1.87741e-06 -1.14633e-05 0 1.58968e-06 -1.12578e-05 0 1.31108e-06 -1.10874e-05 0 1.04e-06 -1.09501e-05 0 7.74856e-07 -1.08447e-05 0 5.14132e-07 -1.077e-05 0 2.56337e-07 -1.07254e-05 0 0 -1.07102e-05 0 2.17917e-05 -4.31107e-05 0 2.03875e-05 -3.89741e-05 0 1.89809e-05 -3.54151e-05 0 1.76043e-05 -3.23301e-05 0 1.62784e-05 -2.96425e-05 0 1.50166e-05 -2.72903e-05 0 1.38263e-05 -2.52239e-05 0 1.2711e-05 -2.34029e-05 0 1.16708e-05 -2.17941e-05 0 1.07039e-05 -2.03697e-05 0 9.8072e-06 -1.91064e-05 0 8.97648e-06 -1.79844e-05 0 8.20723e-06 -1.69868e-05 0 7.49476e-06 -1.60991e-05 0 6.83435e-06 -1.5309e-05 0 6.22141e-06 -1.46055e-05 0 5.65157e-06 -1.39794e-05 0 5.12067e-06 -1.34226e-05 0 4.62482e-06 -1.29281e-05 0 4.16039e-06 -1.24899e-05 0 3.72397e-06 -1.21028e-05 0 3.31243e-06 -1.17621e-05 0 2.92283e-06 -1.14642e-05 0 2.55242e-06 -1.12055e-05 0 2.19865e-06 -1.09833e-05 0 1.8591e-06 -1.07952e-05 0 1.53151e-06 -1.06391e-05 0 1.2137e-06 -1.05135e-05 0 9.03613e-07 -1.04171e-05 0 5.99255e-07 -1.03488e-05 0 2.98685e-07 -1.03079e-05 0 0 -1.02941e-05 0 2.84727e-05 -4.02045e-05 0 2.60807e-05 -3.61889e-05 0 2.38678e-05 -3.27729e-05 0 2.18251e-05 -2.98431e-05 0 1.99438e-05 -2.73166e-05 0 1.82146e-05 -2.5126e-05 0 1.66278e-05 -2.32178e-05 0 1.51735e-05 -2.15487e-05 0 1.38416e-05 -2.00837e-05 0 1.26222e-05 -1.87939e-05 0 1.15057e-05 -1.76553e-05 0 1.04828e-05 -1.66481e-05 0 9.54486e-06 -1.57556e-05 0 8.68365e-06 -1.49635e-05 0 7.89161e-06 -1.42599e-05 0 7.16171e-06 -1.36347e-05 0 6.48754e-06 -1.3079e-05 0 5.86319e-06 -1.25853e-05 0 5.28328e-06 -1.21473e-05 0 4.74286e-06 -1.17594e-05 0 4.23744e-06 -1.14169e-05 0 3.76287e-06 -1.11156e-05 0 3.31538e-06 -1.08521e-05 0 2.89146e-06 -1.06234e-05 0 2.48788e-06 -1.04269e-05 0 2.10164e-06 -1.02606e-05 0 1.7299e-06 -1.01226e-05 0 1.37003e-06 -1.00116e-05 0 1.01949e-06 -9.92632e-06 0 6.75856e-07 -9.86592e-06 0 3.36793e-07 -9.82978e-06 0 0 -9.81753e-06 0 3.4724e-05 -3.56613e-05 0 3.13664e-05 -3.20755e-05 0 2.83672e-05 -2.90417e-05 0 2.56793e-05 -2.64556e-05 0 2.32643e-05 -2.42395e-05 0 2.10901e-05 -2.23299e-05 0 1.91297e-05 -2.06763e-05 0 1.73594e-05 -1.92377e-05 0 1.57584e-05 -1.7981e-05 0 1.43084e-05 -1.68792e-05 0 1.29931e-05 -1.591e-05 0 1.17979e-05 -1.5055e-05 0 1.07097e-05 -1.42991e-05 0 9.71692e-06 -1.36295e-05 0 8.80904e-06 -1.30354e-05 0 7.97671e-06 -1.2508e-05 0 7.21149e-06 -1.20395e-05 0 6.50584e-06 -1.16234e-05 0 5.85295e-06 -1.12542e-05 0 5.2467e-06 -1.09273e-05 0 4.68155e-06 -1.06384e-05 0 4.15249e-06 -1.03843e-05 0 3.65497e-06 -1.01619e-05 0 3.1848e-06 -9.96887e-06 0 2.73818e-06 -9.80294e-06 0 2.31156e-06 -9.6624e-06 0 1.90166e-06 -9.54578e-06 0 1.50539e-06 -9.45186e-06 0 1.11983e-06 -9.37971e-06 0 7.42202e-07 -9.3286e-06 0 3.69801e-07 -9.29801e-06 0 0 -9.28765e-06 0 4.00394e-05 -2.96125e-05 0 3.58488e-05 -2.67372e-05 0 3.21685e-05 -2.43075e-05 0 2.89208e-05 -2.22415e-05 0 2.60435e-05 -2.04768e-05 0 2.34855e-05 -1.89614e-05 0 2.12045e-05 -1.76537e-05 0 1.91648e-05 -1.65197e-05 0 1.7336e-05 -1.55318e-05 0 1.56921e-05 -1.46676e-05 0 1.42108e-05 -1.39087e-05 0 1.28725e-05 -1.32401e-05 0 1.16604e-05 -1.26493e-05 0 1.05595e-05 -1.21261e-05 0 9.55693e-06 -1.16618e-05 0 8.64105e-06 -1.12492e-05 0 7.80177e-06 -1.08824e-05 0 7.03008e-06 -1.05563e-05 0 6.31797e-06 -1.02666e-05 0 5.6583e-06 -1.00096e-05 0 5.04469e-06 -9.7822e-06 0 4.47137e-06 -9.58182e-06 0 3.93315e-06 -9.40621e-06 0 3.42533e-06 -9.25348e-06 0 2.94359e-06 -9.12205e-06 0 2.48398e-06 -9.01057e-06 0 2.04283e-06 -8.91795e-06 0 1.61672e-06 -8.8433e-06 0 1.2024e-06 -8.78589e-06 0 7.96814e-07 -8.7452e-06 0 3.96977e-07 -8.72083e-06 0 0 -8.71258e-06 0 4.40004e-05 -2.23575e-05 0 3.91937e-05 -2.0408e-05 0 3.50034e-05 -1.87574e-05 0 3.13342e-05 -1.7354e-05 0 2.81082e-05 -1.61561e-05 0 2.52609e-05 -1.51286e-05 0 2.2739e-05 -1.42427e-05 0 2.04976e-05 -1.34748e-05 0 1.84991e-05 -1.28059e-05 0 1.67116e-05 -1.22204e-05 0 1.51078e-05 -1.17055e-05 0 1.36645e-05 -1.1251e-05 0 1.23617e-05 -1.08484e-05 0 1.1182e-05 -1.04906e-05 0 1.01104e-05 -1.01721e-05 0 9.13373e-06 -9.88798e-06 0 8.24055e-06 -9.63431e-06 0 7.42076e-06 -9.40779e-06 0 6.66543e-06 -9.20563e-06 0 5.96669e-06 -9.0255e-06 0 5.31748e-06 -8.86545e-06 0 4.71154e-06 -8.7238e-06 0 4.14321e-06 -8.59916e-06 0 3.60738e-06 -8.49035e-06 0 3.0994e-06 -8.39639e-06 0 2.61502e-06 -8.31644e-06 0 2.1503e-06 -8.24983e-06 0 1.70159e-06 -8.19602e-06 0 1.26542e-06 -8.15456e-06 0 8.38526e-07 -8.12513e-06 0 4.17744e-07 -8.10749e-06 0 0 -8.10151e-06 0 4.63266e-05 -1.43046e-05 0 4.11642e-05 -1.34104e-05 0 3.66755e-05 -1.2652e-05 0 3.27583e-05 -1.20063e-05 0 2.93267e-05 -1.14541e-05 0 2.63094e-05 -1.0979e-05 0 2.36464e-05 -1.05675e-05 0 2.12874e-05 -1.02087e-05 0 1.91905e-05 -9.89359e-06 0 1.732e-05 -9.61503e-06 0 1.56458e-05 -9.36731e-06 0 1.41422e-05 -9.14583e-06 0 1.27874e-05 -8.9469e-06 0 1.15625e-05 -8.76756e-06 0 1.04512e-05 -8.60542e-06 0 9.43948e-06 -8.45855e-06 0 8.515e-06 -8.32538e-06 0 7.66704e-06 -8.20464e-06 0 6.88618e-06 -8.09528e-06 0 6.16409e-06 -7.99645e-06 0 5.49338e-06 -7.90743e-06 0 4.86746e-06 -7.82764e-06 0 4.28045e-06 -7.75661e-06 0 3.72702e-06 -7.69392e-06 0 3.20234e-06 -7.63927e-06 0 2.702e-06 -7.59237e-06 0 2.22192e-06 -7.553e-06 0 1.75833e-06 -7.521e-06 0 1.30767e-06 -7.49622e-06 0 8.66541e-07 -7.47856e-06 0 4.31708e-07 -7.46795e-06 0 0 -7.46435e-06 0 4.68782e-05 -5.89162e-06 0 4.1631e-05 -6.10837e-06 0 3.70722e-05 -6.29303e-06 0 3.3098e-05 -6.44903e-06 0 2.96208e-05 -6.57945e-06 0 2.65668e-05 -6.68718e-06 0 2.38745e-05 -6.77487e-06 0 2.1492e-05 -6.84493e-06 0 1.93759e-05 -6.89958e-06 0 1.74896e-05 -6.94082e-06 0 1.58022e-05 -6.97049e-06 0 1.42873e-05 -6.99026e-06 0 1.29226e-05 -7.00163e-06 0 1.16888e-05 -7.00599e-06 0 1.05693e-05 -7.00455e-06 0 9.54995e-06 -6.99842e-06 0 8.61817e-06 -6.98861e-06 0 7.76315e-06 -6.97598e-06 0 6.97538e-06 -6.96134e-06 0 6.24646e-06 -6.94536e-06 0 5.56896e-06 -6.92868e-06 0 4.93628e-06 -6.91183e-06 0 4.34249e-06 -6.89529e-06 0 3.78227e-06 -6.87947e-06 0 3.25077e-06 -6.86472e-06 0 2.74358e-06 -6.85136e-06 0 2.25663e-06 -6.83962e-06 0 1.78613e-06 -6.82974e-06 0 1.32854e-06 -6.82187e-06 0 8.80465e-07 -6.81614e-06 0 4.38673e-07 -6.81266e-06 0 0 -6.81147e-06 0 4.56202e-05 2.44129e-06 0 4.05607e-05 1.12136e-06 0 3.61641e-05 1.22188e-09 0 3.23289e-05 -9.49399e-07 0 2.89702e-05 -1.7559e-06 0 2.60172e-05 -2.44048e-06 0 2.34109e-05 -3.02185e-06 0 2.11016e-05 -3.51585e-06 0 1.9048e-05 -3.93572e-06 0 1.7215e-05 -4.29261e-06 0 1.5573e-05 -4.59591e-06 0 1.40969e-05 -4.85352e-06 0 1.27651e-05 -5.07212e-06 0 1.15593e-05 -5.25739e-06 0 1.04637e-05 -5.41416e-06 0 9.46441e-06 -5.54656e-06 0 8.54959e-06 -5.6581e-06 0 7.70878e-06 -5.75182e-06 0 6.93285e-06 -5.83032e-06 0 6.21372e-06 -5.89583e-06 0 5.54423e-06 -5.95027e-06 0 4.91802e-06 -5.99529e-06 0 4.32939e-06 -6.03232e-06 0 3.77319e-06 -6.06255e-06 0 3.24476e-06 -6.08703e-06 0 2.73984e-06 -6.10663e-06 0 2.25448e-06 -6.12205e-06 0 1.78504e-06 -6.1339e-06 0 1.32808e-06 -6.14265e-06 0 8.8033e-07 -6.14866e-06 0 4.38656e-07 -6.15217e-06 0 0 -6.15335e-06 0 4.26139e-05 1.02534e-05 0 3.80118e-05 7.90299e-06 0 3.40039e-05 5.91383e-06 0 3.04968e-05 4.22682e-06 0 2.74145e-05 2.79412e-06 0 2.46943e-05 1.57491e-06 0 2.22841e-05 5.35332e-07 0 2.01407e-05 -3.52811e-07 0 1.82275e-05 -1.11292e-06 0 1.65137e-05 -1.76446e-06 0 1.49732e-05 -2.32367e-06 0 1.35836e-05 -2.80413e-06 0 1.2326e-05 -3.21724e-06 0 1.11836e-05 -3.57261e-06 0 1.01424e-05 -3.87835e-06 0 9.18996e-06 -4.14135e-06 0 8.3154e-06 -4.36747e-06 0 7.50927e-06 -4.56171e-06 0 6.76321e-06 -4.72834e-06 0 6.06985e-06 -4.87102e-06 0 5.42262e-06 -4.99288e-06 0 4.81565e-06 -5.0966e-06 0 4.24368e-06 -5.18448e-06 0 3.70195e-06 -5.25848e-06 0 3.18614e-06 -5.32024e-06 0 2.69227e-06 -5.37117e-06 0 2.2167e-06 -5.41243e-06 0 1.75601e-06 -5.44497e-06 0 1.30699e-06 -5.46953e-06 0 8.66593e-07 -5.4867e-06 0 4.31884e-07 -5.49688e-06 0 0 -5.50032e-06 0 3.80296e-05 1.71098e-05 0 3.41404e-05 1.38765e-05 0 3.07278e-05 1.11473e-05 0 2.77177e-05 8.83313e-06 0 2.50511e-05 6.86572e-06 0 2.26792e-05 5.18799e-06 0 2.05619e-05 3.75338e-06 0 1.86655e-05 2.52353e-06 0 1.69614e-05 1.4668e-06 0 1.54251e-05 5.56978e-07 0 1.40359e-05 -2.27731e-07 0 1.27756e-05 -9.05519e-07 0 1.16288e-05 -1.49164e-06 0 1.05818e-05 -1.99892e-06 0 9.6227e-06 -2.4382e-06 0 8.74119e-06 -2.81869e-06 0 7.92808e-06 -3.1482e-06 0 7.17528e-06 -3.43339e-06 0 6.47562e-06 -3.67996e-06 0 5.82272e-06 -3.89279e-06 0 5.21086e-06 -4.07606e-06 0 4.63492e-06 -4.23334e-06 0 4.09026e-06 -4.36769e-06 0 3.57268e-06 -4.48173e-06 0 3.07835e-06 -4.57765e-06 0 2.60374e-06 -4.65732e-06 0 2.14558e-06 -4.7223e-06 0 1.70082e-06 -4.77383e-06 0 1.26659e-06 -4.81293e-06 0 8.40121e-07 -4.84037e-06 0 4.18786e-07 -4.85668e-06 0 0 -4.86219e-06 0 3.21791e-05 2.26111e-05 0 2.92091e-05 1.87288e-05 0 2.65545e-05 1.54495e-05 0 2.41728e-05 1.26636e-05 0 2.20294e-05 1.02887e-05 0 2.00954e-05 8.2568e-06 0 1.83462e-05 6.51302e-06 0 1.67605e-05 5.01231e-06 0 1.53198e-05 3.71762e-06 0 1.40077e-05 2.5983e-06 0 1.281e-05 1.62881e-06 0 1.17139e-05 7.87841e-07 0 1.07082e-05 5.74563e-08 0 9.78301e-06 -5.77458e-07 0 8.92933e-06 -1.12971e-06 0 8.13926e-06 -1.61017e-06 0 7.40569e-06 -2.02812e-06 0 6.72228e-06 -2.3915e-06 0 6.08332e-06 -2.70709e-06 0 5.48366e-06 -2.98072e-06 0 4.91866e-06 -3.21738e-06 0 4.3841e-06 -3.42138e-06 0 3.87616e-06 -3.59636e-06 0 3.39133e-06 -3.74549e-06 0 2.92638e-06 -3.8714e-06 0 2.47835e-06 -3.97636e-06 0 2.04445e-06 -4.06221e-06 0 1.62208e-06 -4.1305e-06 0 1.20877e-06 -4.18243e-06 0 8.02159e-07 -4.21894e-06 0 3.9998e-07 -4.24067e-06 0 0 -4.24801e-06 0 2.55071e-05 2.64802e-05 0 2.35741e-05 2.22419e-05 0 2.17711e-05 1.86456e-05 0 2.00945e-05 1.55751e-05 0 1.85388e-05 1.29439e-05 0 1.70977e-05 1.06808e-05 0 1.57642e-05 8.72851e-06 0 1.45307e-05 7.03981e-06 0 1.33898e-05 5.57579e-06 0 1.2334e-05 4.30407e-06 0 1.13562e-05 3.19757e-06 0 1.04495e-05 2.23354e-06 0 9.60738e-06 1.39274e-06 0 8.82389e-06 6.58865e-07 0 8.09339e-06 1.80318e-08 0 7.41065e-06 -5.41623e-07 0 6.77088e-06 -1.03026e-06 0 6.16966e-06 -1.45661e-06 0 5.60291e-06 -1.82816e-06 0 5.06691e-06 -2.15139e-06 0 4.5582e-06 -2.43184e-06 0 4.07362e-06 -2.67432e-06 0 3.61026e-06 -2.88292e-06 0 3.16539e-06 -3.06117e-06 0 2.73651e-06 -3.21206e-06 0 2.32127e-06 -3.33812e-06 0 1.91747e-06 -3.44144e-06 0 1.52301e-06 -3.52377e-06 0 1.13592e-06 -3.58647e-06 0 7.54276e-07 -3.63059e-06 0 3.76242e-07 -3.65687e-06 0 0 -3.66575e-06 0 1.85353e-05 2.86106e-05 0 1.76437e-05 2.43311e-05 0 1.67014e-05 2.06638e-05 0 1.57423e-05 1.75046e-05 0 1.47892e-05 1.47749e-05 0 1.38573e-05 1.24091e-05 0 1.29565e-05 1.03536e-05 0 1.20924e-05 8.56407e-06 0 1.12681e-05 7.00317e-06 0 1.04849e-05 5.63968e-06 0 9.74247e-06 4.44715e-06 0 9.03968e-06 3.40313e-06 0 8.37481e-06 2.48846e-06 0 7.74573e-06 1.68674e-06 0 7.15012e-06 9.83907e-07 0 6.58554e-06 3.67833e-07 0 6.04951e-06 -1.71934e-07 0 5.53962e-06 -6.4443e-07 0 5.0535e-06 -1.05747e-06 0 4.58887e-06 -1.41783e-06 0 4.14357e-06 -1.73135e-06 0 3.71554e-06 -2.0031e-06 0 3.30283e-06 -2.23743e-06 0 2.90357e-06 -2.43811e-06 0 2.51603e-06 -2.60831e-06 0 2.13854e-06 -2.75075e-06 0 1.76951e-06 -2.86769e-06 0 1.40742e-06 -2.96098e-06 0 1.05083e-06 -3.03211e-06 0 6.98305e-07 -3.0822e-06 0 3.48481e-07 -3.11205e-06 0 0 -3.12215e-06 0 1.17718e-05 2.91022e-05 0 1.18158e-05 2.50593e-05 0 1.16614e-05 2.15422e-05 0 1.13705e-05 1.8473e-05 0 1.09874e-05 1.57904e-05 0 1.0544e-05 1.34418e-05 0 1.00635e-05 1.13829e-05 0 9.56254e-06 9.57572e-06 0 9.05291e-06 7.98803e-06 0 8.54306e-06 6.59203e-06 0 8.03881e-06 5.36381e-06 0 7.54406e-06 4.28275e-06 0 7.06131e-06 3.33097e-06 0 6.59201e-06 2.49298e-06 0 6.13686e-06 1.75532e-06 0 5.69602e-06 1.10628e-06 0 5.26926e-06 5.35645e-07 0 4.85604e-06 3.45304e-08 0 4.45568e-06 -4.04824e-07 0 4.06733e-06 -7.89179e-07 0 3.69009e-06 -1.12442e-06 0 3.32301e-06 -1.41566e-06 0 2.96511e-06 -1.66734e-06 0 2.61542e-06 -1.88326e-06 0 2.27296e-06 -2.06672e-06 0 1.93678e-06 -2.22048e-06 0 1.60593e-06 -2.34688e-06 0 1.2795e-06 -2.44783e-06 0 9.56578e-07 -2.52486e-06 0 6.36271e-07 -2.57915e-06 0 3.17702e-07 -2.61152e-06 0 0 -2.62246e-06 0 5.62471e-06 2.82193e-05 0 6.41688e-06 2.46147e-05 0 6.91649e-06 2.14141e-05 0 7.19743e-06 1.85742e-05 0 7.3146e-06 1.60563e-05 0 7.30938e-06 1.38245e-05 0 7.21301e-06 1.1847e-05 0 7.0492e-06 1.00949e-05 0 6.83594e-06 8.54271e-06 0 6.58689e-06 7.16787e-06 0 6.31243e-06 5.95032e-06 0 6.0204e-06 4.87232e-06 0 5.71671e-06 3.91822e-06 0 5.40578e-06 3.07418e-06 0 5.09089e-06 2.328e-06 0 4.77445e-06 1.6689e-06 0 4.45819e-06 1.08737e-06 0 4.14331e-06 5.75047e-07 0 3.83062e-06 1.24553e-07 0 3.52064e-06 -2.70593e-07 0 3.21363e-06 -6.16078e-07 0 2.90972e-06 -9.16874e-07 0 2.60886e-06 -1.17731e-06 0 2.31092e-06 -1.40116e-06 0 2.01571e-06 -1.59163e-06 0 1.72297e-06 -1.75149e-06 0 1.4324e-06 -1.88306e-06 0 1.14367e-06 -1.98825e-06 0 8.56426e-07 -2.06857e-06 0 5.70318e-07 -2.12521e-06 0 2.84968e-07 -2.159e-06 0 0 -2.17043e-06 0 3.35913e-07 2.63279e-05 0 1.65893e-06 2.32608e-05 0 2.65127e-06 2.04727e-05 0 3.38333e-06 1.79507e-05 0 3.90992e-06 1.56781e-05 0 4.27413e-06 1.36356e-05 0 4.50981e-06 1.18041e-05 0 4.64365e-06 1.01646e-05 0 4.69672e-06 8.69895e-06 0 4.68571e-06 7.3904e-06 0 4.62382e-06 6.22339e-06 0 4.52156e-06 5.18369e-06 0 4.38725e-06 4.25837e-06 0 4.22752e-06 3.43575e-06 0 4.04767e-06 2.70526e-06 0 3.85188e-06 2.05746e-06 0 3.6435e-06 1.48386e-06 0 3.42522e-06 9.76899e-07 0 3.19913e-06 5.29825e-07 0 2.96695e-06 1.36656e-07 0 2.73e-06 -2.07904e-07 0 2.48936e-06 -5.08526e-07 0 2.24586e-06 -7.69304e-07 0 2.00017e-06 -9.93808e-07 0 1.75281e-06 -1.18513e-06 0 1.5042e-06 -1.3459e-06 0 1.25465e-06 -1.47836e-06 0 1.00442e-06 -1.58436e-06 0 7.53692e-07 -1.66536e-06 0 5.02633e-07 -1.72251e-06 0 2.51366e-07 -1.75661e-06 0 0 -1.76815e-06 0 -4.0227e-06 2.37899e-05 0 -2.36794e-06 2.12731e-05 0 -1.03822e-06 1.8928e-05 0 2.33965e-08 1.67638e-05 0 8.64095e-07 1.478e-05 0 1.5228e-06 1.29712e-05 0 2.03148e-06 1.13288e-05 0 2.41634e-06 9.8427e-06 0 2.69886e-06 8.50169e-06 0 2.89665e-06 7.29455e-06 0 3.02415e-06 6.21019e-06 0 3.09322e-06 5.23796e-06 0 3.11365e-06 4.3678e-06 0 3.09348e-06 3.59032e-06 0 3.03937e-06 2.89686e-06 0 2.95685e-06 2.27944e-06 0 2.85049e-06 1.7308e-06 0 2.72412e-06 1.24436e-06 0 2.58093e-06 8.14168e-07 0 2.42359e-06 4.34886e-07 0 2.25436e-06 1.01742e-07 0 2.07515e-06 -1.89504e-07 0 1.88756e-06 -4.42602e-07 0 1.69298e-06 -6.60837e-07 0 1.49259e-06 -8.4707e-07 0 1.28741e-06 -1.00376e-06 0 1.07835e-06 -1.13298e-06 0 8.66192e-07 -1.23647e-06 0 6.51652e-07 -1.31561e-06 0 4.35376e-07 -1.37148e-06 0 2.17968e-07 -1.40482e-06 0 0 -1.41611e-06 0 -7.50415e-06 2.09004e-05 0 -5.6701e-06 1.88893e-05 0 -4.1306e-06 1.69716e-05 0 -2.84501e-06 1.51672e-05 0 -1.7771e-06 1.34856e-05 0 -8.95168e-07 1.19303e-05 0 -1.71862e-07 1.05008e-05 0 4.16229e-07 9.1934e-06 0 8.89046e-07 8.00271e-06 0 1.26353e-06 6.92216e-06 0 1.55404e-06 5.94457e-06 0 1.77276e-06 5.06256e-06 0 1.93003e-06 4.26876e-06 0 2.03463e-06 3.55604e-06 0 2.09402e-06 2.91756e-06 0 2.11459e-06 2.3469e-06 0 2.10178e-06 1.83807e-06 0 2.06025e-06 1.38554e-06 0 1.99402e-06 9.84247e-07 0 1.90654e-06 6.29589e-07 0 1.80082e-06 3.17403e-07 0 1.67945e-06 4.39578e-08 0 1.54472e-06 -1.9407e-07 0 1.39862e-06 -3.99614e-07 0 1.24292e-06 -5.75243e-07 0 1.0792e-06 -7.23171e-07 0 9.08877e-07 -8.45286e-07 0 7.3323e-07 -9.43155e-07 0 5.53443e-07 -1.01805e-06 0 3.7062e-07 -1.07093e-06 0 1.85803e-07 -1.10251e-06 0 0 -1.1132e-06 0 -1.02234e-05 1.78597e-05 0 -8.31101e-06 1.62867e-05 0 -6.65413e-06 1.47561e-05 0 -5.22656e-06 1.32905e-05 0 -4.00281e-06 1.19038e-05 0 -2.95907e-06 1.06044e-05 0 -2.07361e-06 9.39634e-06 0 -1.32691e-06 8.28038e-06 0 -7.01655e-07 7.25511e-06 0 -1.82562e-07 6.31751e-06 0 2.43775e-07 5.46353e-06 0 5.89088e-07 4.68845e-06 0 8.63629e-07 3.98724e-06 0 1.07635e-06 3.35471e-06 0 1.23506e-06 2.78575e-06 0 1.3466e-06 2.27537e-06 0 1.41694e-06 1.81882e-06 0 1.45132e-06 1.41162e-06 0 1.45434e-06 1.04961e-06 0 1.43005e-06 7.2895e-07 0 1.38204e-06 4.46125e-07 0 1.31346e-06 1.9796e-07 0 1.22714e-06 -1.83968e-08 0 1.12559e-06 -2.05481e-07 0 1.01109e-06 -3.65525e-07 0 8.85677e-07 -5.00462e-07 0 7.51228e-07 -6.11947e-07 0 6.09461e-07 -7.0136e-07 0 4.61979e-07 -7.69817e-07 0 3.10289e-07 -8.18182e-07 0 1.55831e-07 -8.47069e-07 0 0 -8.56847e-07 0 -1.23071e-05 1.47862e-05 0 -1.03755e-05 1.35822e-05 0 -8.6617e-06 1.23908e-05 0 -7.15032e-06 1.1233e-05 0 -5.82482e-06 1.01231e-05 0 -4.66843e-06 9.07107e-06 0 -3.66479e-06 8.08296e-06 0 -2.79847e-06 7.16204e-06 0 -2.05509e-06 6.30929e-06 0 -1.42145e-06 5.52405e-06 0 -8.85569e-07 4.80446e-06 0 -4.36607e-07 4.14783e-06 0 -6.48136e-08 3.55095e-06 0 2.38553e-07 3.01027e-06 0 4.81317e-07 2.52211e-06 0 6.70473e-07 2.08277e-06 0 8.12269e-07 1.68861e-06 0 9.1229e-07 1.33616e-06 0 9.75529e-07 1.02209e-06 0 1.00646e-06 7.43339e-07 0 1.00908e-06 4.97036e-07 0 9.87e-07 2.80576e-07 0 9.4347e-07 9.15988e-08 0 8.8143e-07 -7.20082e-08 0 8.03552e-07 -2.12114e-07 0 7.12284e-07 -3.30347e-07 0 6.09877e-07 -4.28104e-07 0 4.98424e-07 -5.06555e-07 0 3.79886e-07 -5.6665e-07 0 2.56122e-07 -6.09122e-07 0 1.28916e-07 -6.34495e-07 0 0 -6.43085e-07 0 -1.38684e-05 1.17395e-05 0 -1.19474e-05 1.08448e-05 0 -1.02123e-05 9.9476e-06 0 -8.65534e-06 9.06526e-06 0 -7.26652e-06 8.21029e-06 0 -6.03463e-06 7.39206e-06 0 -4.94789e-06 6.617e-06 0 -3.99442e-06 5.88915e-06 0 -3.16265e-06 5.21065e-06 0 -2.44148e-06 4.58215e-06 0 -1.82042e-06 4.00317e-06 0 -1.2897e-06 3.4724e-06 0 -8.40262e-07 2.98793e-06 0 -4.63785e-07 2.54748e-06 0 -1.52636e-07 2.14853e-06 0 1.00148e-07 1.78846e-06 0 3.00907e-07 1.4646e-06 0 4.55402e-07 1.17436e-06 0 5.68864e-07 9.15229e-07 0 6.46043e-07 6.84824e-07 0 6.91254e-07 4.80928e-07 0 7.0842e-07 3.01494e-07 0 7.01116e-07 1.44656e-07 0 6.72608e-07 8.73264e-09 0 6.25895e-07 -1.0777e-07 0 5.63741e-07 -2.06159e-07 0 4.88708e-07 -2.87562e-07 0 4.03192e-07 -3.52923e-07 0 3.09451e-07 -4.0301e-07 0 2.09635e-07 -4.38421e-07 0 1.05813e-07 -4.5958e-07 0 0 -4.66744e-07 0 -1.49972e-05 8.7424e-06 0 -1.3098e-05 8.11014e-06 0 -1.13602e-05 7.46978e-06 0 -9.78083e-06 6.83425e-06 0 -8.35457e-06 6.21332e-06 0 -7.07419e-06 5.6146e-06 0 -5.93135e-06 5.04365e-06 0 -4.91706e-06 4.50424e-06 0 -4.02203e-06 3.99871e-06 0 -3.23697e-06 3.5282e-06 0 -2.55278e-06 3.09293e-06 0 -1.96068e-06 2.69239e-06 0 -1.45234e-06 2.32558e-06 0 -1.01989e-06 1.99112e-06 0 -6.55986e-07 1.68738e-06 0 -3.53791e-07 1.4126e-06 0 -1.06985e-07 1.16495e-06 0 9.02619e-08 9.42607e-07 0 2.43312e-07 7.43774e-07 0 3.57087e-07 5.66734e-07 0 4.36108e-07 4.09868e-07 0 4.8452e-07 2.71671e-07 0 5.06134e-07 1.50761e-07 0 5.04459e-07 4.58871e-08 0 4.82733e-07 -4.40669e-08 0 4.43964e-07 -1.20082e-07 0 3.90952e-07 -1.83006e-07 0 3.26329e-07 -2.33551e-07 0 2.52584e-07 -2.72298e-07 0 1.72094e-07 -2.99697e-07 0 8.71531e-08 -3.16072e-07 0 0 -3.21617e-07 0 -1.57601e-05 5.79554e-06 0 -1.38825e-05 5.39199e-06 0 -1.21493e-05 4.98043e-06 0 -1.05605e-05 4.56936e-06 0 -9.11349e-06 4.16536e-06 0 -7.80379e-06 3.77373e-06 0 -6.62544e-06 3.39846e-06 0 -5.57147e-06 3.04238e-06 0 -4.63429e-06 2.70736e-06 0 -3.80597e-06 2.39446e-06 0 -3.07846e-06 2.1041e-06 0 -2.44381e-06 1.83617e-06 0 -1.89427e-06 1.59021e-06 0 -1.42239e-06 1.36545e-06 0 -1.02109e-06 1.16094e-06 0 -6.83691e-07 9.75612e-07 0 -4.03923e-07 8.08336e-07 0 -1.75951e-07 6.57948e-07 0 5.64617e-09 5.23305e-07 0 1.45892e-07 4.03294e-07 0 2.49433e-07 2.96861e-07 0 3.20558e-07 2.03019e-07 0 3.63238e-07 1.20858e-07 0 3.81143e-07 4.95498e-08 0 3.77682e-07 -1.16457e-08 0 3.56029e-07 -6.33822e-08 0 3.19155e-07 -1.06224e-07 0 2.69858e-07 -1.40649e-07 0 2.10793e-07 -1.67045e-07 0 1.44501e-07 -1.85714e-07 0 7.34365e-08 -1.96872e-07 0 0 -2.00651e-07 0 -1.62021e-05 2.8874e-06 0 -1.43397e-05 2.6909e-06 0 -1.26117e-05 2.48968e-06 0 -1.10196e-05 2.28794e-06 0 -9.56247e-06 2.08898e-06 0 -8.23724e-06 1.89549e-06 0 -7.03935e-06 1.70954e-06 0 -5.96305e-06 1.53264e-06 0 -5.00176e-06 1.36581e-06 0 -4.14839e-06 1.20967e-06 0 -3.39558e-06 1.0645e-06 0 -2.73589e-06 9.30316e-07 0 -2.16195e-06 8.0695e-07 0 -1.6666e-06 6.94069e-07 0 -1.24294e-06 5.91239e-07 0 -8.84412e-07 4.97958e-07 0 -5.84801e-07 4.13683e-07 0 -3.38281e-07 3.37856e-07 0 -1.39409e-07 2.69917e-07 0 1.68894e-08 2.09323e-07 0 1.35326e-07 1.55555e-07 0 2.20274e-07 1.08124e-07 0 2.7579e-07 6.65785e-08 0 3.05642e-07 3.0508e-08 0 3.13338e-07 -4.57268e-10 0 3.02151e-07 -2.66434e-08 0 2.75152e-07 -4.83328e-08 0 2.35241e-07 -6.5764e-08 0 1.85171e-07 -7.91316e-08 0 1.27581e-07 -8.85873e-08 0 6.5025e-08 -9.42394e-08 0 0 -9.61534e-08 0 -1.63494e-05 -0 0 -1.44925e-05 -0 0 -1.27667e-05 -0 0 -1.11739e-05 -0 0 -9.71368e-06 -0 0 -8.38352e-06 -0 0 -7.17931e-06 -0 0 -6.09569e-06 -0 0 -5.12643e-06 -0 0 -4.26472e-06 -0 0 -3.50345e-06 -0 0 -2.83535e-06 -0 0 -2.25319e-06 -0 0 -1.74992e-06 -0 0 -1.31869e-06 -0 0 -9.52993e-07 -0 0 -6.46639e-07 -0 0 -3.93809e-07 -0 0 -1.89051e-07 -0 0 -2.72773e-08 -0 0 9.6245e-08 -0 0 1.85916e-07 -0 0 2.45821e-07 -0 0 2.79762e-07 -0 0 2.91277e-07 -0 0 2.83675e-07 -0 0 2.60061e-07 -0 0 2.23367e-07 -0 0 1.76381e-07 -0 0 1.21776e-07 -0 0 6.21392e-08 -0 0 0 -0 0 </DataArray> 
</PointData> 
<Points> 
<DataArray type="Float32" NumberOfComponents="3"> 