<?xml version="1.0"?> 
<VTKFile type="StructuredGrid" version="0.1"> 
<StructuredGrid WholeExtent="0 31 0 31 0 0"> 
<Piece Extent="0 31 0 31 0 0"> 
<PointData>
<DataArray type="Float32" Name="B" format="ascii" NumberOfComponents="3"> 
0 1.09559e-05 0 -2.64658e-06 1.09229e-05 0 -5.27313e-06 1.0826e-05 0 -7.85986e-06 1.06664e-05 0 -1.03874e-05 1.04457e-05 0 -1.28372e-05 1.01663e-05 0 -1.51913e-05 9.8312e-06 0 -1.74332e-05 9.4439e-06 0 -1.95474e-05 9.00852e-06 0 -2.15199e-05 8.52965e-06 0 -2.33386e-05 8.01232e-06 0 -2.49929e-05 7.46198e-06 0 -2.6474e-05 6.88436e-06 0 -2.77754e-05 6.2855e-06 0 -2.88923e-05 5.67162e-06 0 -2.98223e-05 5.0491e-06 0 -3.05648e-05 4.42441e-06 0 -3.11215e-05 3.80409e-06 0 -3.14961e-05 3.19468e-06 0 -3.16945e-05 2.60277e-06 0 -3.17242e-05 2.03495e-06 0 -3.15952e-05 1.49805e-06 0 -3.13189e-05 9.9882e-07 0 -3.09092e-05 5.45592e-07 0 -3.03816e-05 1.45137e-07 0 -2.97523e-05 -1.86344e-07 0 -2.90511e-05 -4.47872e-07 0 -2.82704e-05 -5.77537e-07 0 -2.75548e-05 -6.34337e-07 0 -2.66036e-05 -2.45959e-07 0 -2.66804e-05 9.87434e-08 0 -1.97299e-05 4.83844e-06 0 0 1.18537e-05 0 -2.73054e-06 1.18172e-05 0 -5.44015e-06 1.171e-05 0 -8.10816e-06 1.15334e-05 0 -1.07144e-05 1.12892e-05 0 -1.32392e-05 1.09802e-05 0 -1.56642e-05 1.06095e-05 0 -1.79719e-05 1.01812e-05 0 -2.01462e-05 9.69981e-06 0 -2.21725e-05 9.17047e-06 0 -2.40381e-05 8.5988e-06 0 -2.57318e-05 7.99083e-06 0 -2.72447e-05 7.35299e-06 0 -2.85697e-05 6.69196e-06 0 -2.97019e-05 6.01469e-06 0 -3.06387e-05 5.32825e-06 0 -3.13795e-05 4.63984e-06 0 -3.19259e-05 3.95667e-06 0 -3.22816e-05 3.28601e-06 0 -3.24524e-05 2.63509e-06 0 -3.2446e-05 2.01117e-06 0 -3.22718e-05 1.42158e-06 0 -3.1941e-05 8.73983e-07 0 -3.14662e-05 3.76334e-07 0 -3.0861e-05 -6.1665e-08 0 -3.01397e-05 -4.29919e-07 0 -2.93143e-05 -7.09661e-07 0 -2.83988e-05 -8.86024e-07 0 -2.73728e-05 -8.948e-07 0 -2.6213e-05 -7.1279e-07 0 -2.44056e-05 1.11954e-08 0 -2.00935e-05 1.06011e-06 0 0 1.2781e-05 0 -2.82316e-06 1.27407e-05 0 -5.6244e-06 1.26228e-05 0 -8.38205e-06 1.24284e-05 0 -1.1075e-05 1.21597e-05 0 -1.36827e-05 1.18196e-05 0 -1.61858e-05 1.14118e-05 0 -1.85659e-05 1.09405e-05 0 -2.08063e-05 1.0411e-05 0 -2.28917e-05 9.8289e-06 0 -2.48087e-05 9.20036e-06 0 -2.65456e-05 8.53211e-06 0 -2.80931e-05 7.83124e-06 0 -2.94438e-05 7.10518e-06 0 -3.05925e-05 6.36157e-06 0 -3.15363e-05 5.60823e-06 0 -3.22748e-05 4.85308e-06 0 -3.28093e-05 4.10407e-06 0 -3.31437e-05 3.36915e-06 0 -3.32838e-05 2.65621e-06 0 -3.32371e-05 1.97312e-06 0 -3.30132e-05 1.32779e-06 0 -3.26226e-05 7.28243e-07 0 -3.20772e-05 1.82974e-07 0 -3.13887e-05 -2.98789e-07 0 -3.05679e-05 -7.0586e-07 0 -2.96217e-05 -1.02449e-06 0 -2.85463e-05 -1.23418e-06 0 -2.73099e-05 -1.30515e-06 0 -2.58011e-05 -1.19554e-06 0 -2.36506e-05 -8.50316e-07 0 -2.03351e-05 -6.25427e-07 0 0 1.37407e-05 0 -2.92487e-06 1.36966e-05 0 -5.82671e-06 1.35673e-05 0 -8.68279e-06 1.33543e-05 0 -1.14709e-05 1.30599e-05 0 -1.41695e-05 1.26872e-05 0 -1.67582e-05 1.22403e-05 0 -1.92179e-05 1.17241e-05 0 -2.15307e-05 1.11441e-05 0 -2.36808e-05 1.05066e-05 0 -2.56539e-05 9.81841e-06 0 -2.7438e-05 9.08693e-06 0 -2.90232e-05 8.31997e-06 0 -3.04016e-05 7.52568e-06 0 -3.15679e-05 6.71249e-06 0 -3.25192e-05 5.88896e-06 0 -3.32546e-05 5.06378e-06 0 -3.37757e-05 4.24563e-06 0 -3.40864e-05 3.44316e-06 0 -3.41926e-05 2.66493e-06 0 -3.41019e-05 1.91941e-06 0 -3.38236e-05 1.21498e-06 0 -3.33685e-05 5.60056e-07 0 -3.27474e-05 -3.68013e-08 0 -3.19711e-05 -5.66501e-07 0 -3.10481e-05 -1.01902e-06 0 -2.9981e-05 -1.38253e-06 0 -2.876e-05 -1.64288e-06 0 -2.73456e-05 -1.78344e-06 0 -2.56412e-05 -1.79527e-06 0 -2.34385e-05 -1.71285e-06 0 -2.06719e-05 -1.78306e-06 0 0 1.47359e-05 0 -3.03611e-06 1.46878e-05 0 -6.04799e-06 1.45466e-05 0 -9.01172e-06 1.4314e-05 0 -1.19039e-05 1.39925e-05 0 -1.47019e-05 1.35856e-05 0 -1.73842e-05 1.30977e-05 0 -1.99307e-05 1.25342e-05 0 -2.23226e-05 1.19011e-05 0 -2.45432e-05 1.12054e-05 0 -2.65776e-05 1.04545e-05 0 -2.8413e-05 9.65651e-06 0 -3.00389e-05 8.82006e-06 0 -3.14473e-05 7.95405e-06 0 -3.26326e-05 7.0677e-06 0 -3.35914e-05 6.17038e-06 0 -3.43232e-05 5.27155e-06 0 -3.48294e-05 4.38067e-06 0 -3.51139e-05 3.5071e-06 0 -3.51829e-05 2.66008e-06 0 -3.50443e-05 1.84864e-06 0 -3.47074e-05 1.08165e-06 0 -3.4183e-05 3.67775e-07 0 -3.34818e-05 -2.8439e-07 0 -3.26141e-05 -8.66231e-07 0 -3.15874e-05 -1.36892e-06 0 -3.0403e-05 -1.78348e-06 0 -2.90505e-05 -2.10118e-06 0 -2.74978e-05 -2.31733e-06 0 -2.56781e-05 -2.44089e-06 0 -2.3509e-05 -2.52771e-06 0 -2.10221e-05 -2.71281e-06 0 0 1.577e-05 0 -3.15739e-06 1.57175e-05 0 -6.28924e-06 1.55638e-05 0 -9.3703e-06 1.53106e-05 0 -1.23759e-05 1.49606e-05 0 -1.52822e-05 1.45176e-05 0 -1.80665e-05 1.39865e-05 0 -2.07075e-05 1.33731e-05 0 -2.31856e-05 1.26841e-05 0 -2.54828e-05 1.1927e-05 0 -2.75837e-05 1.11101e-05 0 -2.94747e-05 1.02421e-05 0 -3.11448e-05 9.33243e-06 0 -3.25856e-05 8.39088e-06 0 -3.3791e-05 7.42747e-06 0 -3.47579e-05 6.45243e-06 0 -3.54852e-05 5.47603e-06 0 -3.59748e-05 4.50852e-06 0 -3.62308e-05 3.56002e-06 0 -3.62593e-05 2.64044e-06 0 -3.60688e-05 1.75942e-06 0 -3.56689e-05 9.2626e-07 0 -3.50706e-05 1.49886e-07 0 -3.42851e-05 -5.61164e-07 0 -3.33228e-05 -1.19879e-06 0 -3.21914e-05 -1.75545e-06 0 -3.08935e-05 -2.22466e-06 0 -2.94224e-05 -2.60239e-06 0 -2.77575e-05 -2.8908e-06 0 -2.5865e-05 -3.10719e-06 0 -2.3722e-05 -3.29859e-06 0 -2.13884e-05 -3.5436e-06 0 0 1.68463e-05 0 -3.28925e-06 1.67893e-05 0 -6.55152e-06 1.66224e-05 0 -9.76016e-06 1.63474e-05 0 -1.28891e-05 1.59673e-05 0 -1.59131e-05 1.54862e-05 0 -1.88082e-05 1.49095e-05 0 -2.15519e-05 1.42435e-05 0 -2.41234e-05 1.34955e-05 0 -2.65039e-05 1.26736e-05 0 -2.86768e-05 1.17869e-05 0 -3.0628e-05 1.0845e-05 0 -3.23458e-05 9.85805e-06 0 -3.38214e-05 8.83678e-06 0 -3.50485e-05 7.79208e-06 0 -3.60235e-05 6.73504e-06 0 -3.67458e-05 5.67681e-06 0 -3.72171e-05 4.62847e-06 0 -3.74418e-05 3.60092e-06 0 -3.74265e-05 2.60479e-06 0 -3.718e-05 1.65032e-06 0 -3.67125e-05 7.47287e-07 0 -3.60357e-05 -9.51316e-08 0 -3.51614e-05 -8.68431e-07 0 -3.41011e-05 -1.56498e-06 0 -3.28639e-05 -2.17836e-06 0 -3.1455e-05 -2.70408e-06 0 -2.98735e-05 -3.14118e-06 0 -2.81113e-05 -3.49548e-06 0 -2.6158e-05 -3.78507e-06 0 -2.40213e-05 -4.04577e-06 0 -2.17599e-05 -4.32432e-06 0 0 1.79684e-05 0 -3.43228e-06 1.79067e-05 0 -6.83604e-06 1.77258e-05 0 -1.01831e-05 1.74278e-05 0 -1.34457e-05 1.70159e-05 0 -1.65974e-05 1.64946e-05 0 -1.96127e-05 1.58697e-05 0 -2.24677e-05 1.5148e-05 0 -2.51404e-05 1.43375e-05 0 -2.7611e-05 1.34471e-05 0 -2.98618e-05 1.24866e-05 0 -3.18779e-05 1.14665e-05 0 -3.36472e-05 1.0398e-05 0 -3.51602e-05 9.29243e-06 0 -3.64103e-05 8.16182e-06 0 -3.7394e-05 7.01815e-06 0 -3.81104e-05 5.87348e-06 0 -3.85617e-05 4.73978e-06 0 -3.87523e-05 3.62876e-06 0 -3.86896e-05 2.55183e-06 0 -3.83827e-05 1.51986e-06 0 -3.78428e-05 5.43125e-07 0 -3.70824e-05 -3.6887e-07 0 -3.61147e-05 -1.2076e-06 0 -3.49524e-05 -1.96577e-06 0 -3.36071e-05 -2.63778e-06 0 -3.20875e-05 -3.22051e-06 0 -3.03991e-05 -3.71479e-06 0 -2.85444e-05 -4.12765e-06 0 -2.65291e-05 -4.4753e-06 0 -2.43748e-05 -4.78398e-06 0 -2.21352e-05 -5.08348e-06 0 0 1.91404e-05 0 -3.58713e-06 1.90736e-05 0 -7.14406e-06 1.88779e-05 0 -1.06409e-05 1.85555e-05 0 -1.40484e-05 1.81099e-05 0 -1.73383e-05 1.7546e-05 0 -2.04836e-05 1.687e-05 0 -2.34591e-05 1.60893e-05 0 -2.62413e-05 1.52127e-05 0 -2.88091e-05 1.42498e-05 0 -3.11441e-05 1.32111e-05 0 -3.32303e-05 1.21083e-05 0 -3.50548e-05 1.09532e-05 0 -3.66079e-05 9.75851e-06 0 -3.78826e-05 8.53699e-06 0 -3.88752e-05 7.30167e-06 0 -3.95849e-05 6.0656e-06 0 -4.00141e-05 4.84165e-06 0 -4.01678e-05 3.64245e-06 0 -4.00537e-05 2.48017e-06 0 -3.96819e-05 1.36643e-06 0 -3.90644e-05 3.12056e-07 0 -3.8215e-05 -6.73065e-07 0 -3.71484e-05 -1.58026e-06 0 -3.58793e-05 -2.4024e-06 0 -3.44222e-05 -3.13437e-06 0 -3.27897e-05 -3.77388e-06 0 -3.09934e-05 -4.3225e-06 0 -2.90445e-05 -4.78721e-06 0 -2.69589e-05 -5.1816e-06 0 -2.47652e-05 -5.52507e-06 0 -2.25111e-05 -5.83787e-06 0 0 2.03661e-05 0 -3.7545e-06 2.02939e-05 0 -7.47697e-06 2.00826e-05 0 -1.11357e-05 1.97344e-05 0 -1.46998e-05 1.92531e-05 0 -1.81391e-05 1.8644e-05 0 -2.1425e-05 1.79138e-05 0 -2.45305e-05 1.70706e-05 0 -2.74309e-05 1.61238e-05 0 -3.01038e-05 1.50838e-05 0 -3.25294e-05 1.39624e-05 0 -3.4691e-05 1.27717e-05 0 -3.6575e-05 1.1525e-05 0 -3.81709e-05 1.02357e-05 0 -3.94717e-05 8.91788e-06 0 -4.04735e-05 7.58551e-06 0 -4.11757e-05 6.25267e-06 0 -4.15808e-05 4.93324e-06 0 -4.16943e-05 3.64078e-06 0 -4.15246e-05 2.38834e-06 0 -4.10828e-05 1.18832e-06 0 -4.0382e-05 5.21955e-08 0 -3.94375e-05 -1.00966e-06 0 -3.82658e-05 -1.9883e-06 0 -3.6884e-05 -2.87654e-06 0 -3.53096e-05 -3.66948e-06 0 -3.35596e-05 -4.36514e-06 0 -3.16509e-05 -4.96523e-06 0 -2.96016e-05 -5.47607e-06 0 -2.74344e-05 -5.90883e-06 0 -2.51811e-05 -6.27825e-06 0 -2.28854e-05 -6.59921e-06 0 0 2.16499e-05 0 -3.93512e-06 2.15721e-05 0 -7.83628e-06 2.13441e-05 0 -1.16698e-05 2.09685e-05 0 -1.54029e-05 2.04493e-05 0 -1.90034e-05 1.97922e-05 0 -2.2441e-05 1.90045e-05 0 -2.5687e-05 1.80949e-05 0 -2.87149e-05 1.70735e-05 0 -3.15009e-05 1.59518e-05 0 -3.40241e-05 1.47423e-05 0 -3.62668e-05 1.34584e-05 0 -3.82145e-05 1.21144e-05 0 -3.98563e-05 1.07248e-05 0 -4.11848e-05 9.30481e-06 0 -4.21961e-05 7.86955e-06 0 -4.28896e-05 6.43416e-06 0 -4.32682e-05 5.01361e-06 0 -4.33381e-05 3.62246e-06 0 -4.31083e-05 2.27473e-06 0 -4.25909e-05 9.83642e-07 0 -4.18006e-05 -2.38546e-07 0 -4.07541e-05 -1.38086e-06 0 -3.947e-05 -2.43393e-06 0 -3.79684e-05 -3.39034e-06 0 -3.62697e-05 -4.24509e-06 0 -3.43952e-05 -4.99619e-06 0 -3.23666e-05 -5.64513e-06 0 -3.02078e-05 -6.19735e-06 0 -2.7946e-05 -6.66212e-06 0 -2.5615e-05 -7.05113e-06 0 -2.32555e-05 -7.37623e-06 0 0 2.29963e-05 0 -4.12981e-06 2.29125e-05 0 -8.22357e-06 2.26669e-05 0 -1.22456e-05 2.22623e-05 0 -1.61608e-05 2.17028e-05 0 -1.99352e-05 2.09948e-05 0 -2.35364e-05 2.01459e-05 0 -2.69338e-05 1.91657e-05 0 -3.00991e-05 1.8065e-05 0 -3.3007e-05 1.68563e-05 0 -3.56351e-05 1.55532e-05 0 -3.79648e-05 1.41702e-05 0 -3.99808e-05 1.27227e-05 0 -4.16715e-05 1.12266e-05 0 -4.30293e-05 9.69809e-06 0 -4.40502e-05 8.15362e-06 0 -4.47339e-05 6.60949e-06 0 -4.50836e-05 5.08176e-06 0 -4.51059e-05 3.5861e-06 0 -4.48111e-05 2.13755e-06 0 -4.42121e-05 7.50317e-07 0 -4.33252e-05 -5.62499e-07 0 -4.2169e-05 -1.78919e-06 0 -4.07644e-05 -2.91977e-06 0 -3.91342e-05 -3.94641e-06 0 -3.73025e-05 -4.86383e-06 0 -3.52944e-05 -5.66973e-06 0 -3.31364e-05 -6.36522e-06 0 -3.08567e-05 -6.95491e-06 0 -2.84865e-05 -7.44665e-06 0 -2.60608e-05 -7.85024e-06 0 -2.36187e-05 -8.17596e-06 0 0 2.44103e-05 0 -4.33942e-06 2.43201e-05 0 -8.64058e-06 2.40558e-05 0 -1.28655e-05 2.36202e-05 0 -1.6977e-05 2.30181e-05 0 -2.09389e-05 2.22558e-05 0 -2.47163e-05 2.13419e-05 0 -2.82767e-05 2.02864e-05 0 -3.15899e-05 1.91014e-05 0 -3.46289e-05 1.78001e-05 0 -3.73698e-05 1.63972e-05 0 -3.97928e-05 1.49087e-05 0 -4.18817e-05 1.33512e-05 0 -4.36246e-05 1.17418e-05 0 -4.50134e-05 1.0098e-05 0 -4.60441e-05 8.43756e-06 0 -4.67165e-05 6.77798e-06 0 -4.70345e-05 5.13657e-06 0 -4.70052e-05 3.53015e-06 0 -4.66398e-05 1.97489e-06 0 -4.59525e-05 4.86049e-07 0 -4.49613e-05 -9.22269e-07 0 -4.36867e-05 -2.23748e-06 0 -4.21521e-05 -3.44885e-06 0 -4.03835e-05 -4.54792e-06 0 -3.84083e-05 -5.52894e-06 0 -3.62558e-05 -6.38918e-06 0 -3.39567e-05 -7.12925e-06 0 -3.15433e-05 -7.75309e-06 0 -2.905e-05 -8.26758e-06 0 -2.65134e-05 -8.68148e-06 0 -2.39717e-05 -9.0044e-06 0 0 2.58969e-05 0 -4.56487e-06 2.57999e-05 0 -9.08914e-06 2.55158e-05 0 -1.35325e-05 2.50474e-05 0 -1.78553e-05 2.43998e-05 0 -2.20188e-05 2.35799e-05 0 -2.59861e-05 2.25967e-05 0 -2.9722e-05 2.14611e-05 0 -3.31944e-05 2.0186e-05 0 -3.63743e-05 1.8786e-05 0 -3.92363e-05 1.72769e-05 0 -4.17592e-05 1.5676e-05 0 -4.39261e-05 1.40012e-05 0 -4.57244e-05 1.22712e-05 0 -4.71458e-05 1.05048e-05 0 -4.81863e-05 8.72113e-06 0 -4.88461e-05 6.93893e-06 0 -4.91292e-05 5.17683e-06 0 -4.90437e-05 3.45293e-06 0 -4.86018e-05 1.7846e-06 0 -4.78189e-05 1.88299e-07 0 -4.67147e-05 -1.32076e-06 0 -4.5312e-05 -2.72895e-06 0 -4.36368e-05 -4.02462e-06 0 -4.17182e-05 -5.19853e-06 0 -3.95874e-05 -6.24427e-06 0 -3.72778e-05 -7.15857e-06 0 -3.48242e-05 -7.94154e-06 0 -3.2263e-05 -8.5966e-06 0 -2.96315e-05 -9.13009e-06 0 -2.69681e-05 -9.55033e-06 0 -2.4311e-05 -9.86695e-06 0 0 2.74616e-05 0 -4.80713e-06 2.73574e-05 0 -9.57118e-06 2.70522e-05 0 -1.42494e-05 2.6549e-05 0 -1.87994e-05 2.58531e-05 0 -2.31801e-05 2.49718e-05 0 -2.73516e-05 2.39147e-05 0 -3.12765e-05 2.26937e-05 0 -3.49201e-05 2.13226e-05 0 -3.82513e-05 1.98172e-05 0 -4.12431e-05 1.81948e-05 0 -4.3873e-05 1.6474e-05 0 -4.61231e-05 1.46743e-05 0 -4.79802e-05 1.28158e-05 0 -4.94359e-05 1.09189e-05 0 -5.04862e-05 9.00406e-06 0 -5.11315e-05 7.09152e-06 0 -5.13765e-05 5.20122e-06 0 -5.123e-05 3.3526e-06 0 -5.07049e-05 1.56437e-06 0 -4.98184e-05 -1.45724e-07 0 -4.85918e-05 -1.76119e-06 0 -4.70501e-05 -3.26721e-06 0 -4.52223e-05 -4.65102e-06 0 -4.31408e-05 -5.90243e-06 0 -4.08406e-05 -7.01423e-06 0 -3.83594e-05 -7.98252e-06 0 -3.57363e-05 -8.80693e-06 0 -3.30117e-05 -9.49052e-06 0 -3.02262e-05 -1.00395e-05 0 -2.74201e-05 -1.04621e-05 0 -2.46324e-05 -1.07686e-05 0 0 2.91101e-05 0 -5.06719e-06 2.89984e-05 0 -1.00888e-05 2.86708e-05 0 -1.50193e-05 2.81307e-05 0 -1.98137e-05 2.73834e-05 0 -2.4428e-05 2.64367e-05 0 -2.88194e-05 2.5301e-05 0 -3.29475e-05 2.39887e-05 0 -3.67752e-05 2.25151e-05 0 -4.0269e-05 2.08971e-05 0 -4.33999e-05 1.91535e-05 0 -4.61442e-05 1.73047e-05 0 -4.84829e-05 1.53717e-05 0 -5.04024e-05 1.33763e-05 0 -5.1894e-05 1.13404e-05 0 -5.29539e-05 9.28602e-06 0 -5.35828e-05 7.23485e-06 0 -5.3786e-05 5.20829e-06 0 -5.35729e-05 3.22717e-06 0 -5.29577e-05 1.31165e-06 0 -5.19588e-05 -5.19087e-07 0 -5.05993e-05 -2.24714e-06 0 -4.89067e-05 -3.85628e-06 0 -4.69129e-05 -5.33248e-06 0 -4.46538e-05 -6.66439e-06 0 -4.21688e-05 -7.84385e-06 0 -3.94998e-05 -8.86625e-06 0 -3.66905e-05 -9.73077e-06 0 -3.37855e-05 -1.04403e-05 0 -3.08292e-05 -1.10011e-05 0 -2.78644e-05 -1.1422e-05 0 -2.49312e-05 -1.17141e-05 0 0 3.08487e-05 0 -5.34612e-06 3.07289e-05 0 -1.0644e-05 3.03777e-05 0 -1.58455e-05 2.97983e-05 0 -2.09026e-05 2.89964e-05 0 -2.57681e-05 2.79802e-05 0 -3.03961e-05 2.67605e-05 0 -3.4743e-05 2.53509e-05 0 -3.87686e-05 2.37675e-05 0 -4.24369e-05 2.20291e-05 0 -4.57169e-05 2.0156e-05 0 -4.85833e-05 1.81704e-05 0 -5.10162e-05 1.60951e-05 0 -5.30017e-05 1.39536e-05 0 -5.45308e-05 1.17696e-05 0 -5.56e-05 9.56664e-06 0 -5.62104e-05 7.36797e-06 0 -5.63677e-05 5.19647e-06 0 -5.60824e-05 3.07449e-06 0 -5.53694e-05 1.0237e-06 0 -5.42486e-05 -9.35139e-07 0 -5.27448e-05 -2.78252e-06 0 -5.0888e-05 -4.50063e-06 0 -4.87134e-05 -6.07393e-06 0 -4.62605e-05 -7.48973e-06 0 -4.35731e-05 -8.73874e-06 0 -4.06981e-05 -9.81557e-06 0 -3.76842e-05 -1.0719e-05 0 -3.45805e-05 -1.14518e-05 0 -3.14356e-05 -1.20206e-05 0 -2.82954e-05 -1.24352e-05 0 -2.52018e-05 -1.27082e-05 0 0 3.26837e-05 0 -5.64499e-06 3.25555e-05 0 -1.12391e-05 3.21792e-05 0 -1.67314e-05 3.15584e-05 0 -2.20708e-05 3.06986e-05 0 -2.72065e-05 2.96083e-05 0 -3.20892e-05 2.8299e-05 0 -3.66715e-05 2.67852e-05 0 -4.09099e-05 2.50845e-05 0 -4.47656e-05 2.32171e-05 0 -4.82052e-05 2.12054e-05 0 -5.12019e-05 1.90734e-05 0 -5.37349e-05 1.6846e-05 0 -5.57899e-05 1.45486e-05 0 -5.7358e-05 1.22067e-05 0 -5.8436e-05 9.84547e-06 0 -5.90255e-05 7.48979e-06 0 -5.91328e-05 5.16407e-06 0 -5.8769e-05 2.89222e-06 0 -5.795e-05 6.97531e-07 0 -5.66969e-05 -1.39752e-06 0 -5.50364e-05 -3.37163e-06 0 -5.30011e-05 -5.20519e-06 0 -5.06291e-05 -6.88088e-06 0 -4.79642e-05 -8.38441e-06 0 -4.50552e-05 -9.7052e-06 0 -4.1954e-05 -1.0837e-05 0 -3.87149e-05 -1.1778e-05 0 -3.53925e-05 -1.25312e-05 0 -3.20399e-05 -1.3104e-05 0 -2.87068e-05 -1.35073e-05 0 -2.54377e-05 -1.37554e-05 0 0 3.46221e-05 0 -5.96487e-06 3.44849e-05 0 -1.18763e-05 3.40823e-05 0 -1.76805e-05 3.34176e-05 0 -2.33231e-05 3.24964e-05 0 -2.87497e-05 3.13273e-05 0 -3.39066e-05 2.99224e-05 0 -3.87425e-05 2.82972e-05 0 -4.32098e-05 2.64707e-05 0 -4.72666e-05 2.4465e-05 0 -5.0877e-05 2.23047e-05 0 -5.40125e-05 2.00159e-05 0 -5.66516e-05 1.76259e-05 0 -5.87796e-05 1.51621e-05 0 -6.03881e-05 1.26518e-05 0 -6.14743e-05 1.0122e-05 0 -6.20402e-05 7.59916e-06 0 -6.20929e-05 5.1093e-06 0 -6.1644e-05 2.67789e-06 0 -6.07103e-05 3.29966e-07 0 -5.9314e-05 -1.91016e-06 0 -5.74834e-05 -4.01918e-06 0 -5.52535e-05 -5.97539e-06 0 -5.2666e-05 -7.75941e-06 0 -4.97692e-05 -9.35507e-06 0 -4.66167e-05 -1.07502e-05 0 -4.32668e-05 -1.19376e-05 0 -3.978e-05 -1.2915e-05 0 -3.62168e-05 -1.36856e-05 0 -3.26359e-05 -1.42577e-05 0 -2.90915e-05 -1.46437e-05 0 -2.56311e-05 -1.48605e-05 0 0 3.66709e-05 0 -6.30681e-06 3.65243e-05 0 -1.25578e-05 3.60942e-05 0 -1.86965e-05 3.53833e-05 0 -2.46649e-05 3.43972e-05 0 -3.04045e-05 3.31444e-05 0 -3.58569e-05 3.16374e-05 0 -4.0966e-05 2.98929e-05 0 -4.56798e-05 2.79314e-05 0 -4.99524e-05 2.57772e-05 0 -5.37454e-05 2.34574e-05 0 -5.70286e-05 2.10006e-05 0 -5.97798e-05 1.84365e-05 0 -6.19844e-05 1.57948e-05 0 -6.36344e-05 1.3105e-05 0 -6.47278e-05 1.03956e-05 0 -6.52673e-05 7.69485e-06 0 -6.52605e-05 5.03025e-06 0 -6.47197e-05 2.42891e-06 0 -6.36621e-05 -8.23769e-08 0 -6.21108e-05 -2.47728e-06 0 -6.00958e-05 -4.73025e-06 0 -5.76541e-05 -6.81718e-06 0 -5.48312e-05 -8.71627e-06 0 -5.16799e-05 -1.04091e-05 0 -4.826e-05 -1.18817e-05 0 -4.46363e-05 -1.31255e-05 0 -4.08765e-05 -1.41379e-05 0 -3.70482e-05 -1.49223e-05 0 -3.32165e-05 -1.54883e-05 0 -2.94411e-05 -1.58504e-05 0 -2.57732e-05 -1.60282e-05 0 0 3.88377e-05 0 -6.67176e-06 3.86814e-05 0 -1.32857e-05 3.82225e-05 0 -1.97827e-05 3.74634e-05 0 -2.61012e-05 3.64088e-05 0 -3.2178e-05 3.50672e-05 0 -3.79493e-05 3.34513e-05 0 -4.33532e-05 3.15788e-05 0 -4.83325e-05 2.94722e-05 0 -5.28369e-05 2.71583e-05 0 -5.6825e-05 2.4667e-05 0 -6.0265e-05 2.20298e-05 0 -6.31343e-05 1.92793e-05 0 -6.54186e-05 1.64476e-05 0 -6.71111e-05 1.35662e-05 0 -6.82104e-05 1.06656e-05 0 -6.87204e-05 7.77554e-06 0 -6.86492e-05 4.92494e-06 0 -6.80093e-05 2.14254e-06 0 -6.68183e-05 -5.4305e-07 0 -6.50998e-05 -3.10335e-06 0 -6.28848e-05 -5.51032e-06 0 -6.02127e-05 -7.73706e-06 0 -5.71324e-05 -9.7589e-06 0 -5.3702e-05 -1.15547e-05 0 -4.99877e-05 -1.31083e-05 0 -4.60622e-05 -1.44096e-05 0 -4.20012e-05 -1.54554e-05 0 -3.78808e-05 -1.62497e-05 0 -3.37736e-05 -1.68035e-05 0 -2.97457e-05 -1.71336e-05 0 -2.58533e-05 -1.72633e-05 0 0 4.11302e-05 0 -7.06053e-06 4.0964e-05 0 -1.40619e-05 4.04754e-05 0 -2.09425e-05 3.9666e-05 0 -2.76374e-05 3.85396e-05 0 -3.40779e-05 3.71039e-05 0 -4.01938e-05 3.53718e-05 0 -4.59163e-05 3.3362e-05 0 -5.11818e-05 3.10993e-05 0 -5.59351e-05 2.86133e-05 0 -6.01315e-05 2.59372e-05 0 -6.37376e-05 2.31061e-05 0 -6.67308e-05 2.01558e-05 0 -6.90978e-05 1.7121e-05 0 -7.08331e-05 1.40354e-05 0 -7.19369e-05 1.09313e-05 0 -7.2414e-05 7.83983e-06 0 -7.22731e-05 4.79133e-06 0 -7.1527e-05 1.816e-06 0 -7.01929e-05 -1.05573e-06 0 -6.82944e-05 -3.7931e-06 0 -6.58632e-05 -6.36527e-06 0 -6.29405e-05 -8.74212e-06 0 -5.95788e-05 -1.08955e-05 0 -5.58416e-05 -1.28011e-05 0 -5.18029e-05 -1.44398e-05 0 -4.7544e-05 -1.57999e-05 0 -4.31504e-05 -1.68774e-05 0 -3.87077e-05 -1.7677e-05 0 -3.42974e-05 -1.82113e-05 0 -2.99937e-05 -1.85e-05 0 -2.58587e-05 -1.85707e-05 0 0 4.35565e-05 0 -7.47364e-06 4.33801e-05 0 -1.48877e-05 4.28614e-05 0 -2.2179e-05 4.20003e-05 0 -2.92787e-05 4.0799e-05 0 -3.61121e-05 3.92639e-05 0 -4.26011e-05 3.74078e-05 0 -4.86686e-05 3.52505e-05 0 -5.42433e-05 3.28192e-05 0 -5.9264e-05 3.01472e-05 0 -6.36825e-05 2.72717e-05 0 -6.7464e-05 2.4232e-05 0 -7.05865e-05 2.10672e-05 0 -7.30383e-05 1.78153e-05 0 -7.48163e-05 1.45122e-05 0 -7.59225e-05 1.11917e-05 0 -7.63631e-05 7.8863e-06 0 -7.61475e-05 4.62738e-06 0 -7.52879e-05 1.44651e-06 0 -7.3801e-05 -1.62416e-06 0 -7.17096e-05 -4.55144e-06 0 -6.90451e-05 -7.30138e-06 0 -6.58503e-05 -9.84008e-06 0 -6.21807e-05 -1.21353e-05 0 -5.81063e-05 -1.41584e-05 0 -5.37092e-05 -1.58873e-05 0 -4.90815e-05 -1.73076e-05 0 -4.43198e-05 -1.84149e-05 0 -3.9521e-05 -1.92144e-05 0 -3.47769e-05 -1.97208e-05 0 -3.01712e-05 -1.9957e-05 0 -2.57742e-05 -1.99557e-05 0 0 4.61245e-05 0 -7.91121e-06 4.59382e-05 0 -1.5764e-05 4.53893e-05 0 -2.34944e-05 4.44757e-05 0 -3.10299e-05 4.3197e-05 0 -3.82885e-05 4.15575e-05 0 -4.51828e-05 3.95691e-05 0 -5.16249e-05 3.7253e-05 0 -5.75342e-05 3.46393e-05 0 -6.28424e-05 3.17657e-05 0 -6.74973e-05 2.86745e-05 0 -7.14632e-05 2.54097e-05 0 -7.47196e-05 2.20148e-05 0 -7.72576e-05 1.85309e-05 0 -7.90772e-05 1.49962e-05 0 -8.01832e-05 1.14459e-05 0 -8.05836e-05 7.91347e-06 0 -8.02881e-05 4.43109e-06 0 -7.93083e-05 1.03133e-06 0 -7.76593e-05 -2.25204e-06 0 -7.53621e-05 -5.38338e-06 0 -7.24469e-05 -8.32523e-06 0 -6.89568e-05 -1.10393e-05 0 -6.49506e-05 -1.34881e-05 0 -6.05047e-05 -1.56383e-05 0 -5.57111e-05 -1.74631e-05 0 -5.06743e-05 -1.89455e-05 0 -4.55045e-05 -2.00803e-05 0 -4.03113e-05 -2.08736e-05 0 -3.51986e-05 -2.13424e-05 0 -3.02616e-05 -2.15128e-05 0 -2.55811e-05 -2.14236e-05 0 0 4.88422e-05 0 -8.37269e-06 4.86464e-05 0 -1.66904e-05 4.80683e-05 0 -2.489e-05 4.71026e-05 0 -3.28951e-05 4.5745e-05 0 -4.06156e-05 4.39962e-05 0 -4.79515e-05 4.18669e-05 0 -5.4802e-05 3.93793e-05 0 -6.10742e-05 3.65675e-05 0 -6.66915e-05 3.34747e-05 0 -7.15974e-05 3.01493e-05 0 -7.57561e-05 2.66414e-05 0 -7.91498e-05 2.29993e-05 0 -8.1774e-05 1.92675e-05 0 -8.36331e-05 1.54865e-05 0 -8.47356e-05 1.16927e-05 0 -8.50917e-05 7.91989e-06 0 -8.47115e-05 4.2006e-06 0 -8.36055e-05 5.67959e-07 0 -8.17859e-05 -2.94292e-06 0 -7.92705e-05 -6.29391e-06 0 -7.60869e-05 -9.44368e-06 0 -7.22772e-05 -1.23487e-05 0 -6.7903e-05 -1.49653e-05 0 -6.30473e-05 -1.72536e-05 0 -5.78138e-05 -1.91814e-05 0 -5.2322e-05 -2.07281e-05 0 -4.66985e-05 -2.18876e-05 0 -4.1068e-05 -2.26675e-05 0 -3.55474e-05 -2.30875e-05 0 -3.02449e-05 -2.31769e-05 0 -2.52568e-05 -2.29802e-05 0 0 5.17171e-05 0 -8.85655e-06 5.15129e-05 0 -1.7665e-05 5.09079e-05 0 -2.63652e-05 4.98923e-05 0 -3.48776e-05 4.84555e-05 0 -4.31014e-05 4.65934e-05 0 -5.09212e-05 4.43139e-05 0 -5.82186e-05 4.16407e-05 0 -6.48857e-05 3.86127e-05 0 -7.08353e-05 3.52803e-05 0 -7.60069e-05 3.16999e-05 0 -8.03656e-05 2.79287e-05 0 -8.38983e-05 2.40207e-05 0 -8.66067e-05 2.00244e-05 0 -8.85016e-05 1.59821e-05 0 -8.95963e-05 1.19308e-05 0 -8.9904e-05 7.90415e-06 0 -8.9435e-05 3.93427e-06 0 -8.81977e-05 5.42129e-08 0 -8.62004e-05 -3.7e-06 0 -8.34557e-05 -7.28785e-06 0 -7.99863e-05 -1.06637e-05 0 -7.58318e-05 -1.37779e-05 0 -7.10552e-05 -1.65791e-05 0 -6.57466e-05 -1.90191e-05 0 -6.00236e-05 -2.10583e-05 0 -5.40242e-05 -2.26718e-05 0 -4.78952e-05 -2.38526e-05 0 -4.17791e-05 -2.46108e-05 0 -3.58058e-05 -2.49698e-05 0 -3.00977e-05 -2.49604e-05 0 -2.47708e-05 -2.46322e-05 0 0 5.47559e-05 0 -9.3598e-06 5.45449e-05 0 -1.86834e-05 5.39174e-05 0 -2.79172e-05 5.28566e-05 0 -3.69787e-05 5.13429e-05 0 -4.5754e-05 4.93643e-05 0 -5.41072e-05 4.6925e-05 0 -6.18966e-05 4.405e-05 0 -6.89946e-05 4.07847e-05 0 -7.53017e-05 3.7189e-05 0 -8.07531e-05 3.33295e-05 0 -8.5317e-05 2.92726e-05 0 -8.89875e-05 2.50787e-05 0 -9.17757e-05 2.08002e-05 0 -9.37005e-05 1.64812e-05 0 -9.47821e-05 1.21586e-05 0 -9.5037e-05 7.8649e-06 0 -9.44758e-05 3.63083e-06 0 -9.3104e-05 -5.11529e-07 0 -9.0924e-05 -4.52588e-06 0 -8.79409e-05 -8.36956e-06 0 -8.41697e-05 -1.19924e-05 0 -7.96447e-05 -1.53373e-05 0 -7.44282e-05 -1.83433e-05 0 -6.86181e-05 -2.09515e-05 0 -6.23479e-05 -2.31126e-05 0 -5.57796e-05 -2.47958e-05 0 -4.9086e-05 -2.59931e-05 0 -4.24307e-05 -2.67197e-05 0 -3.59554e-05 -2.70045e-05 0 -2.97908e-05 -2.68782e-05 0 -2.40889e-05 -2.63875e-05 0 0 5.79635e-05 0 -9.87728e-06 5.77487e-05 0 -1.97376e-05 5.71062e-05 0 -2.9539e-05 5.60087e-05 0 -3.91969e-05 5.44237e-05 0 -4.85808e-05 5.23274e-05 0 -5.75265e-05 4.97179e-05 0 -6.58614e-05 4.66221e-05 0 -7.34317e-05 4.30943e-05 0 -8.01229e-05 3.92073e-05 0 -8.5867e-05 3.5041e-05 0 -9.0638e-05 3.0673e-05 0 -9.44416e-05 2.61713e-05 0 -9.73013e-05 2.15925e-05 0 -9.92476e-05 1.69816e-05 0 -0.000100309 1.23744e-05 0 -0.000100507 7.80102e-06 0 -9.98514e-05 3.28954e-06 0 -9.83442e-05 -1.13007e-06 0 -9.59797e-05 -5.42224e-06 0 -9.27523e-05 -9.54263e-06 0 -8.86657e-05 -1.34362e-05 0 -8.37446e-05 -1.70374e-05 0 -7.80481e-05 -2.02731e-05 0 -7.16808e-05 -2.30703e-05 0 -6.4796e-05 -2.53664e-05 0 -5.75864e-05 -2.7122e-05 0 -5.02598e-05 -2.83293e-05 0 -4.30078e-05 -2.90112e-05 0 -3.59769e-05 -2.92094e-05 0 -2.92969e-05 -2.89495e-05 0 -2.31461e-05 -2.82617e-05 0 0 6.13427e-05 0 -1.04008e-05 6.11286e-05 0 -2.08145e-05 6.04827e-05 0 -3.12181e-05 5.9363e-05 0 -4.1527e-05 5.77174e-05 0 -5.15882e-05 5.55047e-05 0 -6.1199e-05 5.27139e-05 0 -7.01435e-05 4.93746e-05 0 -7.82337e-05 4.55536e-05 0 -8.5337e-05 4.13415e-05 0 -9.13839e-05 3.6836e-05 0 -9.63594e-05 3.21284e-05 0 -0.000100286 2.72956e-05 0 -0.000103204 2.23978e-05 0 -0.00010516 1.74802e-05 0 -0.000106193 1.25761e-05 0 -0.000106329 7.71156e-06 0 -0.000105579 2.91042e-06 0 -0.000103938 -1.80108e-06 0 -0.000101392 -6.38939e-06 0 -9.79195e-05 -1.08094e-05 0 -9.35077e-05 -1.50012e-05 0 -8.81665e-05 -1.88893e-05 0 -8.19469e-05 -2.23856e-05 0 -7.49589e-05 -2.53981e-05 0 -6.73789e-05 -2.78459e-05 0 -5.94406e-05 -2.96771e-05 0 -5.14015e-05 -3.08835e-05 0 -4.34905e-05 -3.15029e-05 0 -3.58617e-05 -3.15998e-05 0 -2.85764e-05 -3.12092e-05 0 -2.19029e-05 -3.02705e-05 0 0 6.48921e-05 0 -1.09174e-05 6.46857e-05 0 -2.18928e-05 6.40545e-05 0 -3.29335e-05 6.29351e-05 0 -4.39571e-05 6.12472e-05 0 -5.47811e-05 5.89236e-05 0 -6.5148e-05 5.59395e-05 0 -7.4781e-05 5.23285e-05 0 -8.34461e-05 4.81758e-05 0 -9.09896e-05 4.35974e-05 0 -9.73447e-05 3.87144e-05 0 -0.000102515 3.36351e-05 0 -0.000106546 2.84461e-05 0 -0.000109504 2.32108e-05 0 -0.000111453 1.79729e-05 0 -0.000112446 1.27612e-05 0 -0.000112516 7.59596e-06 0 -0.000111673 2.49447e-06 0 -0.000109907 -2.52267e-06 0 -0.000107187 -7.42571e-06 0 -0.000103475 -1.21701e-05 0 -9.87352e-05 -1.66917e-05 0 -9.29536e-05 -2.09037e-05 0 -8.61662e-05 -2.46995e-05 0 -7.8484e-05 -2.79619e-05 0 -7.0111e-05 -3.05835e-05 0 -6.13357e-05 -3.2493e-05 0 -5.24856e-05 -3.36824e-05 0 -4.38552e-05 -3.42084e-05 0 -3.55977e-05 -3.41876e-05 0 -2.76631e-05 -3.36949e-05 0 -2.00954e-05 -3.25162e-05 0 0 6.86047e-05 0 -1.14084e-05 6.84163e-05 0 -2.29413e-05 6.78267e-05 0 -3.46524e-05 6.67427e-05 0 -4.6467e-05 6.50421e-05 0 -5.81622e-05 6.26192e-05 0 -6.94014e-05 5.9428e-05 0 -7.9821e-05 5.55089e-05 0 -8.91245e-05 5.09754e-05 0 -9.71348e-05 4.59795e-05 0 -0.000103796 4.06735e-05 0 -0.000109141 3.51865e-05 0 -0.00011325 2.9615e-05 0 -0.00011622 2.40244e-05 0 -0.00011814 1.84544e-05 0 -0.000119079 1.29271e-05 0 -0.000119079 7.45408e-06 0 -0.000118148 2.04395e-06 0 -0.000116268 -3.2909e-06 0 -0.000113392 -8.52698e-06 0 -0.000109456 -1.36224e-05 0 -0.000104394 -1.85098e-05 0 -9.81583e-05 -2.30907e-05 0 -9.07578e-05 -2.72355e-05 0 -8.22973e-05 -3.07938e-05 0 -7.30112e-05 -3.36187e-05 0 -6.32589e-05 -3.56129e-05 0 -5.34795e-05 -3.67526e-05 0 -4.40425e-05 -3.71519e-05 0 -3.52346e-05 -3.69277e-05 0 -2.65687e-05 -3.65041e-05 0 -1.77222e-05 -3.51634e-05 0 0 7.24647e-05 0 -1.18442e-05 7.23092e-05 0 -2.39087e-05 7.18006e-05 0 -3.63202e-05 7.08053e-05 0 -4.90191e-05 6.91386e-05 0 -6.17305e-05 6.6638e-05 0 -7.39978e-05 6.32224e-05 0 -8.53297e-05 5.89467e-05 0 -9.53446e-05 5.39675e-05 0 -0.000103843 4.84894e-05 0 -0.000110794 4.27065e-05 0 -0.000116278 3.67716e-05 0 -0.000120424 3.07908e-05 0 -0.000123368 2.48285e-05 0 -0.000125231 1.89177e-05 0 -0.0001261 1.30702e-05 0 -0.000126024 7.28635e-06 0 -0.000125014 1.56275e-06 0 -0.00012304 -4.09923e-06 0 -0.000120034 -9.68545e-06 0 -0.000115904 -1.51597e-05 0 -0.000110541 -2.04538e-05 0 -0.00010385 -2.54579e-05 0 -9.57953e-05 -3.00159e-05 0 -8.64602e-05 -3.39317e-05 0 -7.61063e-05 -3.7006e-05 0 -6.52002e-05 -3.90836e-05 0 -5.42937e-05 -4.01569e-05 0 -4.40389e-05 -4.02892e-05 0 -3.44693e-05 -3.99287e-05 0 -2.66026e-05 -3.90062e-05 0 -1.10465e-05 -4.08552e-05 0 </DataArray> 
</PointData> 
<Points> 
<DataArray type="Float32" NumberOfComponents="3"> 