<?xml version="1.0"?> 
<VTKFile type="StructuredGrid" version="0.1"> 
<StructuredGrid WholeExtent="0 31 0 31 0 0"> 
<Piece Extent="0 31 0 31 0 0"> 
<PointData>
<DataArray type="Float32" Name="B" format="ascii" NumberOfComponents="3"> 
-5.70955e-06 -0 0 -5.62801e-06 -0 0 -5.53725e-06 -0 0 -5.43737e-06 -0 0 -5.32851e-06 -0 0 -5.21082e-06 -0 0 -5.08447e-06 -0 0 -4.94967e-06 -0 0 -4.80665e-06 -0 0 -4.65567e-06 -0 0 -4.49699e-06 -0 0 -4.33092e-06 -0 0 -4.15777e-06 -0 0 -3.97787e-06 -0 0 -3.79157e-06 -0 0 -3.59923e-06 -0 0 -3.40121e-06 -0 0 -3.19788e-06 -0 0 -2.98961e-06 -0 0 -2.77678e-06 -0 0 -2.55977e-06 -0 0 -2.33895e-06 -0 0 -2.11469e-06 -0 0 -1.88735e-06 -0 0 -1.65729e-06 -0 0 -1.42487e-06 -0 0 -1.19044e-06 -0 0 -9.54341e-07 -0 0 -7.16913e-07 -0 0 -4.78492e-07 -0 0 -2.39411e-07 -0 0 0 -0 0 -5.71434e-06 -7.69249e-08 0 -5.63275e-06 -8.6195e-08 0 -5.54194e-06 -9.53715e-08 0 -5.442e-06 -1.04431e-07 0 -5.33306e-06 -1.13349e-07 0 -5.21527e-06 -1.22101e-07 0 -5.08882e-06 -1.30662e-07 0 -4.9539e-06 -1.39005e-07 0 -4.81075e-06 -1.47107e-07 0 -4.65963e-06 -1.54943e-07 0 -4.5008e-06 -1.62492e-07 0 -4.33456e-06 -1.69734e-07 0 -4.16124e-06 -1.76651e-07 0 -3.98117e-06 -1.83229e-07 0 -3.79469e-06 -1.89455e-07 0 -3.60216e-06 -1.9532e-07 0 -3.40394e-06 -2.00816e-07 0 -3.20042e-06 -2.05939e-07 0 -2.99196e-06 -2.10687e-07 0 -2.77894e-06 -2.15059e-07 0 -2.56173e-06 -2.19057e-07 0 -2.34072e-06 -2.22684e-07 0 -2.11627e-06 -2.25944e-07 0 -1.88875e-06 -2.28841e-07 0 -1.65851e-06 -2.31381e-07 0 -1.42591e-06 -2.33569e-07 0 -1.1913e-06 -2.3541e-07 0 -9.55024e-07 -2.3691e-07 0 -7.17423e-07 -2.38073e-07 0 -4.78831e-07 -2.38903e-07 0 -2.3958e-07 -2.39401e-07 0 0 -2.3957e-07 0 -5.72844e-06 -1.53922e-07 0 -5.64673e-06 -1.72483e-07 0 -5.55575e-06 -1.90859e-07 0 -5.45562e-06 -2.09002e-07 0 -5.34645e-06 -2.26864e-07 0 -5.22839e-06 -2.44394e-07 0 -5.10163e-06 -2.6154e-07 0 -4.96637e-06 -2.78252e-07 0 -4.82283e-06 -2.94479e-07 0 -4.67129e-06 -3.10173e-07 0 -4.51201e-06 -3.25291e-07 0 -4.34529e-06 -3.39793e-07 0 -4.17147e-06 -3.53643e-07 0 -3.99087e-06 -3.66811e-07 0 -3.80384e-06 -3.79273e-07 0 -3.61076e-06 -3.9101e-07 0 -3.41198e-06 -4.02007e-07 0 -3.20789e-06 -4.12255e-07 0 -2.99886e-06 -4.21751e-07 0 -2.78527e-06 -4.30494e-07 0 -2.5675e-06 -4.38487e-07 0 -2.34593e-06 -4.45736e-07 0 -2.12092e-06 -4.5225e-07 0 -1.89285e-06 -4.58039e-07 0 -1.66208e-06 -4.63113e-07 0 -1.42895e-06 -4.67484e-07 0 -1.19382e-06 -4.71162e-07 0 -9.57032e-07 -4.74158e-07 0 -7.18923e-07 -4.7648e-07 0 -4.79829e-07 -4.78136e-07 0 -2.40078e-07 -4.79132e-07 0 0 -4.7947e-07 0 -5.75188e-06 -2.31062e-07 0 -5.66996e-06 -2.58957e-07 0 -5.57873e-06 -2.86578e-07 0 -5.47827e-06 -3.13854e-07 0 -5.36872e-06 -3.4071e-07 0 -5.25021e-06 -3.6707e-07 0 -5.12294e-06 -3.92854e-07 0 -4.9871e-06 -4.17984e-07 0 -4.84292e-06 -4.42384e-07 0 -4.69068e-06 -4.65981e-07 0 -4.53064e-06 -4.88708e-07 0 -4.36313e-06 -5.10505e-07 0 -4.18846e-06 -5.31317e-07 0 -4.00699e-06 -5.51101e-07 0 -3.81906e-06 -5.69818e-07 0 -3.62505e-06 -5.8744e-07 0 -3.42533e-06 -6.03947e-07 0 -3.22029e-06 -6.19325e-07 0 -3.01031e-06 -6.33569e-07 0 -2.79577e-06 -6.46679e-07 0 -2.57707e-06 -6.58661e-07 0 -2.35456e-06 -6.69524e-07 0 -2.12864e-06 -6.79283e-07 0 -1.89966e-06 -6.87953e-07 0 -1.66799e-06 -6.9555e-07 0 -1.43399e-06 -7.02093e-07 0 -1.198e-06 -7.07597e-07 0 -9.60358e-07 -7.1208e-07 0 -7.21408e-07 -7.15554e-07 0 -4.8148e-07 -7.18031e-07 0 -2.40902e-07 -7.1952e-07 0 0 -7.20026e-07 0 -5.7847e-06 -3.0841e-07 0 -5.70251e-06 -3.45702e-07 0 -5.61092e-06 -3.82639e-07 0 -5.51003e-06 -4.19123e-07 0 -5.39994e-06 -4.55052e-07 0 -5.28081e-06 -4.90321e-07 0 -5.15281e-06 -5.24821e-07 0 -5.01616e-06 -5.58446e-07 0 -4.87108e-06 -5.91092e-07 0 -4.71785e-06 -6.22659e-07 0 -4.55676e-06 -6.53057e-07 0 -4.38812e-06 -6.82202e-07 0 -4.21227e-06 -7.10024e-07 0 -4.02955e-06 -7.3646e-07 0 -3.84035e-06 -7.61461e-07 0 -3.64504e-06 -7.84989e-07 0 -3.444e-06 -8.07018e-07 0 -3.23763e-06 -8.27532e-07 0 -3.02631e-06 -8.46523e-07 0 -2.81045e-06 -8.63994e-07 0 -2.59042e-06 -8.79955e-07 0 -2.36661e-06 -8.94419e-07 0 -2.1394e-06 -9.07406e-07 0 -1.90916e-06 -9.18939e-07 0 -1.67625e-06 -9.29042e-07 0 -1.44102e-06 -9.37739e-07 0 -1.20382e-06 -9.45055e-07 0 -9.64991e-07 -9.5101e-07 0 -7.24869e-07 -9.55625e-07 0 -4.83781e-07 -9.58915e-07 0 -2.4205e-07 -9.60892e-07 0 0 -9.61563e-07 0 -5.827e-06 -3.86025e-07 0 -5.74446e-06 -4.32802e-07 0 -5.65242e-06 -4.79151e-07 0 -5.55097e-06 -5.24944e-07 0 -5.4402e-06 -5.70052e-07 0 -5.32026e-06 -6.14338e-07 0 -5.19134e-06 -6.57663e-07 0 -5.05364e-06 -6.99888e-07 0 -4.9074e-06 -7.40879e-07 0 -4.75289e-06 -7.80509e-07 0 -4.59042e-06 -8.1866e-07 0 -4.42032e-06 -8.55227e-07 0 -4.24292e-06 -8.90118e-07 0 -4.05861e-06 -9.23256e-07 0 -3.86775e-06 -9.54579e-07 0 -3.67075e-06 -9.84041e-07 0 -3.468e-06 -1.01161e-06 0 -3.2599e-06 -1.03726e-06 0 -3.04686e-06 -1.061e-06 0 -2.82928e-06 -1.08282e-06 0 -2.60755e-06 -1.10275e-06 0 -2.38206e-06 -1.12079e-06 0 -2.15319e-06 -1.13699e-06 0 -1.92132e-06 -1.15136e-06 0 -1.68681e-06 -1.16394e-06 0 -1.45001e-06 -1.17477e-06 0 -1.21126e-06 -1.18387e-06 0 -9.70916e-07 -1.19128e-06 0 -7.29294e-07 -1.19702e-06 0 -4.86722e-07 -1.20111e-06 0 -2.43518e-07 -1.20357e-06 0 0 -1.2044e-06 0 -5.87884e-06 -4.63955e-07 0 -5.79591e-06 -5.20329e-07 0 -5.70334e-06 -5.76212e-07 0 -5.60121e-06 -6.31447e-07 0 -5.48962e-06 -6.85872e-07 0 -5.36871e-06 -7.39316e-07 0 -5.23865e-06 -7.91604e-07 0 -5.09966e-06 -8.42565e-07 0 -4.95198e-06 -8.9203e-07 0 -4.79589e-06 -9.3984e-07 0 -4.63172e-06 -9.8585e-07 0 -4.4598e-06 -1.02993e-06 0 -4.2805e-06 -1.07197e-06 0 -4.0942e-06 -1.11187e-06 0 -3.9013e-06 -1.14956e-06 0 -3.7022e-06 -1.18499e-06 0 -3.49734e-06 -1.21811e-06 0 -3.28712e-06 -1.24892e-06 0 -3.07195e-06 -1.27739e-06 0 -2.85225e-06 -1.30356e-06 0 -2.62843e-06 -1.32742e-06 0 -2.40088e-06 -1.34902e-06 0 -2.16998e-06 -1.36839e-06 0 -1.93612e-06 -1.38557e-06 0 -1.69965e-06 -1.4006e-06 0 -1.46094e-06 -1.41352e-06 0 -1.22031e-06 -1.42439e-06 0 -9.78113e-07 -1.43322e-06 0 -7.34667e-07 -1.44007e-06 0 -4.90292e-07 -1.44494e-06 0 -2.453e-07 -1.44787e-06 0 0 -1.44887e-06 0 -5.94036e-06 -5.42237e-07 0 -5.85699e-06 -6.08345e-07 0 -5.76383e-06 -6.73914e-07 0 -5.66092e-06 -7.38755e-07 0 -5.54837e-06 -8.02669e-07 0 -5.4263e-06 -8.65446e-07 0 -5.29489e-06 -9.26873e-07 0 -5.15436e-06 -9.86738e-07 0 -5.00496e-06 -1.04484e-06 0 -4.84698e-06 -1.10097e-06 0 -4.68076e-06 -1.15497e-06 0 -4.50666e-06 -1.20668e-06 0 -4.32507e-06 -1.25596e-06 0 -4.13638e-06 -1.3027e-06 0 -3.94102e-06 -1.34682e-06 0 -3.73943e-06 -1.38825e-06 0 -3.53203e-06 -1.42695e-06 0 -3.31926e-06 -1.4629e-06 0 -3.10156e-06 -1.49611e-06 0 -2.87935e-06 -1.52659e-06 0 -2.65304e-06 -1.55436e-06 0 -2.42304e-06 -1.57948e-06 0 -2.18974e-06 -1.60198e-06 0 -1.95352e-06 -1.62192e-06 0 -1.71474e-06 -1.63936e-06 0 -1.47377e-06 -1.65434e-06 0 -1.23093e-06 -1.66693e-06 0 -9.86555e-07 -1.67716e-06 0 -7.40968e-07 -1.68508e-06 0 -4.94477e-07 -1.69072e-06 0 -2.47388e-07 -1.69411e-06 0 0 -1.69526e-06 0 -6.0117e-06 -6.20887e-07 0 -5.92787e-06 -6.96896e-07 0 -5.83405e-06 -7.72338e-07 0 -5.73028e-06 -8.46985e-07 0 -5.61663e-06 -9.20599e-07 0 -5.49324e-06 -9.92924e-07 0 -5.36026e-06 -1.0637e-06 0 -5.21793e-06 -1.13268e-06 0 -5.06651e-06 -1.1996e-06 0 -4.90632e-06 -1.26425e-06 0 -4.73769e-06 -1.3264e-06 0 -4.56102e-06 -1.38587e-06 0 -4.37673e-06 -1.4425e-06 0 -4.18523e-06 -1.49617e-06 0 -3.98699e-06 -1.54677e-06 0 -3.78245e-06 -1.59424e-06 0 -3.57209e-06 -1.63853e-06 0 -3.35634e-06 -1.67964e-06 0 -3.13568e-06 -1.71756e-06 0 -2.91053e-06 -1.75232e-06 0 -2.68133e-06 -1.78397e-06 0 -2.44849e-06 -1.81255e-06 0 -2.21241e-06 -1.83814e-06 0 -1.97347e-06 -1.86079e-06 0 -1.73203e-06 -1.88057e-06 0 -1.48846e-06 -1.89756e-06 0 -1.24307e-06 -1.91182e-06 0 -9.96208e-07 -1.92341e-06 0 -7.4817e-07 -1.93237e-06 0 -4.9926e-07 -1.93875e-06 0 -2.49774e-07 -1.94258e-06 0 0 -1.94388e-06 0 -6.09302e-06 -6.999e-07 0 -6.00873e-06 -7.86008e-07 0 -5.91422e-06 -8.71547e-07 0 -5.80951e-06 -9.56243e-07 0 -5.69465e-06 -1.03981e-06 0 -5.56975e-06 -1.12194e-06 0 -5.43499e-06 -1.20233e-06 0 -5.2906e-06 -1.28067e-06 0 -5.13685e-06 -1.35666e-06 0 -4.97408e-06 -1.43002e-06 0 -4.80266e-06 -1.5005e-06 0 -4.62301e-06 -1.56789e-06 0 -4.43558e-06 -1.63201e-06 0 -4.24083e-06 -1.6927e-06 0 -4.03924e-06 -1.74986e-06 0 -3.8313e-06 -1.80341e-06 0 -3.61751e-06 -1.85331e-06 0 -3.39834e-06 -1.89956e-06 0 -3.17427e-06 -1.94217e-06 0 -2.94576e-06 -1.98118e-06 0 -2.71325e-06 -2.01664e-06 0 -2.47717e-06 -2.04863e-06 0 -2.23793e-06 -2.07723e-06 0 -1.9959e-06 -2.10252e-06 0 -1.75146e-06 -2.12459e-06 0 -1.50495e-06 -2.14352e-06 0 -1.2567e-06 -2.15939e-06 0 -1.00703e-06 -2.17228e-06 0 -7.5624e-07 -2.18224e-06 0 -5.04617e-07 -2.18933e-06 0 -2.52445e-07 -2.19359e-06 0 0 -2.19503e-06 0 -6.18453e-06 -7.79244e-07 0 -6.09981e-06 -8.75685e-07 0 -6.00461e-06 -9.71585e-07 0 -5.89889e-06 -1.06662e-06 0 -5.7827e-06 -1.16045e-06 0 -5.65613e-06 -1.25271e-06 0 -5.51936e-06 -1.34302e-06 0 -5.37262e-06 -1.43101e-06 0 -5.21621e-06 -1.51634e-06 0 -5.05048e-06 -1.59867e-06 0 -4.87586e-06 -1.67771e-06 0 -4.69278e-06 -1.75321e-06 0 -4.50175e-06 -1.82495e-06 0 -4.30325e-06 -1.89278e-06 0 -4.09783e-06 -1.95656e-06 0 -3.88601e-06 -2.01624e-06 0 -3.6683e-06 -2.07176e-06 0 -3.44523e-06 -2.12314e-06 0 -3.2173e-06 -2.17039e-06 0 -2.98498e-06 -2.21359e-06 0 -2.74874e-06 -2.25279e-06 0 -2.50902e-06 -2.28811e-06 0 -2.26622e-06 -2.31963e-06 0 -2.02074e-06 -2.34747e-06 0 -1.77294e-06 -2.37174e-06 0 -1.52317e-06 -2.39252e-06 0 -1.27175e-06 -2.40994e-06 0 -1.01897e-06 -2.42407e-06 0 -7.65138e-07 -2.43498e-06 0 -5.10522e-07 -2.44275e-06 0 -2.5539e-07 -2.44741e-06 0 0 -2.44899e-06 0 -6.28645e-06 -8.58845e-07 0 -6.20138e-06 -9.65894e-07 0 -6.1055e-06 -1.07247e-06 0 -5.99875e-06 -1.1782e-06 0 -5.88113e-06 -1.28265e-06 0 -5.75273e-06 -1.38541e-06 0 -5.61371e-06 -1.48601e-06 0 -5.46432e-06 -1.58402e-06 0 -5.30488e-06 -1.67902e-06 0 -5.13579e-06 -1.77062e-06 0 -4.9575e-06 -1.85847e-06 0 -4.77051e-06 -1.94228e-06 0 -4.57536e-06 -2.02182e-06 0 -4.37261e-06 -2.0969e-06 0 -4.16282e-06 -2.16739e-06 0 -3.94658e-06 -2.23322e-06 0 -3.72445e-06 -2.29437e-06 0 -3.49698e-06 -2.35084e-06 0 -3.26469e-06 -2.40268e-06 0 -3.02811e-06 -2.44998e-06 0 -2.7877e-06 -2.49284e-06 0 -2.54392e-06 -2.53138e-06 0 -2.29719e-06 -2.56572e-06 0 -2.04789e-06 -2.59601e-06 0 -1.7964e-06 -2.62236e-06 0 -1.54304e-06 -2.64491e-06 0 -1.28813e-06 -2.66378e-06 0 -1.03197e-06 -2.67907e-06 0 -7.74817e-07 -2.69088e-06 0 -5.16942e-07 -2.69927e-06 0 -2.58589e-07 -2.7043e-06 0 0 -2.70601e-06 0 -6.39906e-06 -9.38584e-07 0 -6.31376e-06 -1.05656e-06 0 -6.21728e-06 -1.1742e-06 0 -6.10948e-06 -1.29102e-06 0 -5.99035e-06 -1.40655e-06 0 -5.85994e-06 -1.52026e-06 0 -5.71843e-06 -1.6316e-06 0 -5.56606e-06 -1.74005e-06 0 -5.40321e-06 -1.84511e-06 0 -5.2303e-06 -1.94632e-06 0 -5.04785e-06 -2.04328e-06 0 -4.85641e-06 -2.13565e-06 0 -4.65658e-06 -2.22316e-06 0 -4.44899e-06 -2.30562e-06 0 -4.23427e-06 -2.38289e-06 0 -4.01304e-06 -2.45491e-06 0 -3.78593e-06 -2.52166e-06 0 -3.55352e-06 -2.58317e-06 0 -3.31638e-06 -2.63952e-06 0 -3.07505e-06 -2.69083e-06 0 -2.83003e-06 -2.73722e-06 0 -2.58177e-06 -2.77885e-06 0 -2.33071e-06 -2.81588e-06 0 -2.07724e-06 -2.84847e-06 0 -1.82171e-06 -2.87678e-06 0 -1.56445e-06 -2.90098e-06 0 -1.30577e-06 -2.92119e-06 0 -1.04594e-06 -2.93756e-06 0 -7.85218e-07 -2.95018e-06 0 -5.23837e-07 -2.95915e-06 0 -2.62025e-07 -2.96452e-06 0 0 -2.96635e-06 0 -6.52268e-06 -1.01828e-06 0 -6.43734e-06 -1.14757e-06 0 -6.34036e-06 -1.2767e-06 0 -6.23156e-06 -1.40513e-06 0 -6.11085e-06 -1.53226e-06 0 -5.97828e-06 -1.65746e-06 0 -5.834e-06 -1.78008e-06 0 -5.67831e-06 -1.89948e-06 0 -5.5116e-06 -2.01506e-06 0 -5.33436e-06 -2.12628e-06 0 -5.14717e-06 -2.23269e-06 0 -4.95068e-06 -2.33388e-06 0 -4.74555e-06 -2.42957e-06 0 -4.53249e-06 -2.51955e-06 0 -4.3122e-06 -2.60367e-06 0 -4.08538e-06 -2.68188e-06 0 -3.85269e-06 -2.75419e-06 0 -3.61478e-06 -2.82067e-06 0 -3.37226e-06 -2.88142e-06 0 -3.12568e-06 -2.9366e-06 0 -2.87558e-06 -2.98637e-06 0 -2.62242e-06 -3.03093e-06 0 -2.36664e-06 -3.07047e-06 0 -2.10863e-06 -3.10521e-06 0 -1.84874e-06 -3.13533e-06 0 -1.58729e-06 -3.16102e-06 0 -1.32456e-06 -3.18246e-06 0 -1.06081e-06 -3.19979e-06 0 -7.96272e-07 -3.21314e-06 0 -5.3116e-07 -3.22262e-06 0 -2.65673e-07 -3.2283e-06 0 0 -3.23022e-06 0 -6.65767e-06 -1.09767e-06 0 -6.57256e-06 -1.23871e-06 0 -6.47528e-06 -1.37988e-06 0 -6.36555e-06 -1.52051e-06 0 -6.24323e-06 -1.65989e-06 0 -6.10833e-06 -1.79724e-06 0 -5.96101e-06 -1.93177e-06 0 -5.80158e-06 -2.06272e-06 0 -5.63051e-06 -2.18937e-06 0 -5.44837e-06 -2.31108e-06 0 -5.25581e-06 -2.42732e-06 0 -5.05358e-06 -2.53764e-06 0 -4.84246e-06 -2.64172e-06 0 -4.62322e-06 -2.73934e-06 0 -4.39667e-06 -2.83037e-06 0 -4.16357e-06 -2.91477e-06 0 -3.92466e-06 -2.99258e-06 0 -3.68065e-06 -3.06391e-06 0 -3.43217e-06 -3.12891e-06 0 -3.17983e-06 -3.18777e-06 0 -2.92417e-06 -3.24073e-06 0 -2.66568e-06 -3.28802e-06 0 -2.40479e-06 -3.32988e-06 0 -2.14189e-06 -3.36656e-06 0 -1.87732e-06 -3.3983e-06 0 -1.61139e-06 -3.42532e-06 0 -1.34436e-06 -3.44782e-06 0 -1.07646e-06 -3.46599e-06 0 -8.07897e-07 -3.47997e-06 0 -5.38856e-07 -3.48988e-06 0 -2.69504e-07 -3.49582e-06 0 0 -3.49783e-06 0 -6.80444e-06 -1.17638e-06 0 -6.71996e-06 -1.32971e-06 0 -6.62266e-06 -1.48356e-06 0 -6.51215e-06 -1.63713e-06 0 -6.38821e-06 -1.78954e-06 0 -6.25081e-06 -1.93983e-06 0 -6.10012e-06 -2.08705e-06 0 -5.93651e-06 -2.23027e-06 0 -5.76051e-06 -2.36862e-06 0 -5.57278e-06 -2.50137e-06 0 -5.37412e-06 -2.62788e-06 0 -5.16538e-06 -2.74766e-06 0 -4.94746e-06 -2.86036e-06 0 -4.72125e-06 -2.96575e-06 0 -4.48766e-06 -3.06371e-06 0 -4.24755e-06 -3.15426e-06 0 -4.00173e-06 -3.23746e-06 0 -3.75096e-06 -3.31348e-06 0 -3.49594e-06 -3.38253e-06 0 -3.23729e-06 -3.44487e-06 0 -2.97558e-06 -3.50077e-06 0 -2.71132e-06 -3.55053e-06 0 -2.44493e-06 -3.59446e-06 0 -2.1768e-06 -3.63285e-06 0 -1.90726e-06 -3.66599e-06 0 -1.63659e-06 -3.69413e-06 0 -1.36502e-06 -3.71752e-06 0 -1.09277e-06 -3.73637e-06 0 -8.19997e-07 -3.75086e-06 0 -5.46859e-07 -3.76112e-06 0 -2.73487e-07 -3.76726e-06 0 0 -3.76934e-06 0 -6.96352e-06 -1.25391e-06 0 -6.88019e-06 -1.42016e-06 0 -6.78326e-06 -1.58747e-06 0 -6.6722e-06 -1.75487e-06 0 -6.54667e-06 -1.92127e-06 0 -6.4066e-06 -2.08549e-06 0 -6.25218e-06 -2.24634e-06 0 -6.08385e-06 -2.40269e-06 0 -5.90223e-06 -2.55351e-06 0 -5.70814e-06 -2.69792e-06 0 -5.50251e-06 -2.83519e-06 0 -5.28636e-06 -2.96479e-06 0 -5.06073e-06 -3.08633e-06 0 -4.82666e-06 -3.19959e-06 0 -4.58517e-06 -3.30451e-06 0 -4.33723e-06 -3.40111e-06 0 -4.08373e-06 -3.48954e-06 0 -3.82551e-06 -3.57004e-06 0 -3.56331e-06 -3.64289e-06 0 -3.29779e-06 -3.7084e-06 0 -3.02954e-06 -3.76695e-06 0 -2.75907e-06 -3.81889e-06 0 -2.48681e-06 -3.86458e-06 0 -2.21313e-06 -3.9044e-06 0 -1.93833e-06 -3.93866e-06 0 -1.66268e-06 -3.96769e-06 0 -1.38637e-06 -3.99176e-06 0 -1.10959e-06 -4.01112e-06 0 -8.3246e-07 -4.02597e-06 0 -5.55095e-07 -4.03648e-06 0 -2.77583e-07 -4.04276e-06 0 0 -4.04489e-06 0 -7.13547e-06 -1.32958e-06 0 -7.05402e-06 -1.5095e-06 0 -6.95803e-06 -1.69123e-06 0 -6.84673e-06 -1.87358e-06 0 -6.71969e-06 -2.05516e-06 0 -6.57677e-06 -2.2345e-06 0 -6.41819e-06 -2.41013e-06 0 -6.24448e-06 -2.58065e-06 0 -6.05643e-06 -2.74483e-06 0 -5.85503e-06 -2.90163e-06 0 -5.64143e-06 -3.05022e-06 0 -5.41681e-06 -3.19001e-06 0 -5.18242e-06 -3.32061e-06 0 -4.93947e-06 -3.44183e-06 0 -4.68911e-06 -3.55363e-06 0 -4.43244e-06 -3.65614e-06 0 -4.17044e-06 -3.74958e-06 0 -3.90403e-06 -3.83427e-06 0 -3.63398e-06 -3.91058e-06 0 -3.36101e-06 -3.97892e-06 0 -3.08571e-06 -4.03974e-06 0 -2.8086e-06 -4.09348e-06 0 -2.53009e-06 -4.14059e-06 0 -2.25055e-06 -4.18149e-06 0 -1.97024e-06 -4.21657e-06 0 -1.6894e-06 -4.2462e-06 0 -1.4082e-06 -4.2707e-06 0 -1.12675e-06 -4.29036e-06 0 -8.45157e-07 -4.30542e-06 0 -5.63475e-07 -4.31606e-06 0 -2.81747e-07 -4.32241e-06 0 0 -4.32456e-06 0 -7.32099e-06 -1.40244e-06 0 -7.24242e-06 -1.59695e-06 0 -7.14812e-06 -1.79432e-06 0 -7.03706e-06 -1.993e-06 0 -6.90862e-06 -2.19126e-06 0 -6.76262e-06 -2.38722e-06 0 -6.59934e-06 -2.57903e-06 0 -6.41946e-06 -2.76497e-06 0 -6.22398e-06 -2.94356e-06 0 -6.01414e-06 -3.11358e-06 0 -5.79134e-06 -3.27409e-06 0 -5.55702e-06 -3.42446e-06 0 -5.31266e-06 -3.56431e-06 0 -5.05966e-06 -3.6935e-06 0 -4.79935e-06 -3.81208e-06 0 -4.53295e-06 -3.92027e-06 0 -4.26156e-06 -4.0184e-06 0 -3.98615e-06 -4.10689e-06 0 -3.70757e-06 -4.18624e-06 0 -3.42654e-06 -4.25696e-06 0 -3.14369e-06 -4.31961e-06 0 -2.85951e-06 -4.37472e-06 0 -2.57441e-06 -4.42281e-06 0 -2.28872e-06 -4.46439e-06 0 -2.00269e-06 -4.49992e-06 0 -1.71649e-06 -4.52982e-06 0 -1.43025e-06 -4.55447e-06 0 -1.14406e-06 -4.5742e-06 0 -8.57937e-07 -4.58928e-06 0 -5.719e-07 -4.59991e-06 0 -2.85931e-07 -4.60625e-06 0 0 -4.60839e-06 0 -7.52091e-06 -1.47123e-06 0 -7.44657e-06 -1.68148e-06 0 -7.35501e-06 -1.89599e-06 0 -7.24482e-06 -2.11279e-06 0 -7.11516e-06 -2.32962e-06 0 -6.9658e-06 -2.54408e-06 0 -6.79713e-06 -2.7538e-06 0 -6.61005e-06 -2.95668e-06 0 -6.40589e-06 -3.15091e-06 0 -6.18621e-06 -3.33508e-06 0 -5.95274e-06 -3.50815e-06 0 -5.70727e-06 -3.66947e-06 0 -5.45152e-06 -3.81871e-06 0 -5.18714e-06 -3.95582e-06 0 -4.91565e-06 -4.08096e-06 0 -4.63843e-06 -4.19448e-06 0 -4.35666e-06 -4.29686e-06 0 -4.07141e-06 -4.38867e-06 0 -3.78357e-06 -4.47053e-06 0 -3.49389e-06 -4.54309e-06 0 -3.20297e-06 -4.60702e-06 0 -2.91132e-06 -4.66296e-06 0 -2.61931e-06 -4.71153e-06 0 -2.32723e-06 -4.75333e-06 0 -2.03529e-06 -4.78888e-06 0 -1.74361e-06 -4.81868e-06 0 -1.45227e-06 -4.84316e-06 0 -1.16128e-06 -4.86269e-06 0 -8.7063e-07 -4.87757e-06 0 -5.80254e-07 -4.88804e-06 0 -2.90076e-07 -4.89428e-06 0 0 -4.89639e-06 0 -7.73623e-06 -1.53421e-06 0 -7.66798e-06 -1.76162e-06 0 -7.58059e-06 -1.99523e-06 0 -7.47212e-06 -2.23247e-06 0 -7.34145e-06 -2.47033e-06 0 -7.18833e-06 -2.70566e-06 0 -7.01335e-06 -2.93546e-06 0 -6.81776e-06 -3.15709e-06 0 -6.60331e-06 -3.36839e-06 0 -6.37205e-06 -3.56773e-06 0 -6.12614e-06 -3.75402e-06 0 -5.86776e-06 -3.92663e-06 0 -5.59897e-06 -4.0853e-06 0 -5.3217e-06 -4.23014e-06 0 -5.03767e-06 -4.36148e-06 0 -4.74841e-06 -4.47985e-06 0 -4.45523e-06 -4.58592e-06 0 -4.15925e-06 -4.68041e-06 0 -3.86141e-06 -4.76412e-06 0 -3.56245e-06 -4.83786e-06 0 -3.26298e-06 -4.90241e-06 0 -2.96347e-06 -4.95856e-06 0 -2.66426e-06 -5.00703e-06 0 -2.36559e-06 -5.0485e-06 0 -2.06761e-06 -5.08359e-06 0 -1.77039e-06 -5.11286e-06 0 -1.47392e-06 -5.13679e-06 0 -1.17817e-06 -5.15581e-06 0 -8.83045e-07 -5.17026e-06 0 -5.8841e-07 -5.1804e-06 0 -2.94117e-07 -5.18643e-06 0 0 -5.18847e-06 0 -7.96816e-06 -1.58898e-06 0 -7.90859e-06 -1.83538e-06 0 -7.82734e-06 -2.0907e-06 0 -7.72173e-06 -2.35143e-06 0 -7.59028e-06 -2.61352e-06 0 -7.4328e-06 -2.87278e-06 0 -7.25022e-06 -3.12533e-06 0 -7.04434e-06 -3.36789e-06 0 -6.81755e-06 -3.59789e-06 0 -6.57251e-06 -3.81353e-06 0 -6.31198e-06 -4.01366e-06 0 -6.03861e-06 -4.19777e-06 0 -5.75487e-06 -4.36578e-06 0 -5.46298e-06 -4.518e-06 0 -5.16489e-06 -4.65501e-06 0 -4.86228e-06 -4.77757e-06 0 -4.55657e-06 -4.88656e-06 0 -4.24894e-06 -4.98294e-06 0 -3.94033e-06 -5.0677e-06 0 -3.6315e-06 -5.1418e-06 0 -3.32302e-06 -5.20621e-06 0 -3.01531e-06 -5.26184e-06 0 -2.70867e-06 -5.30952e-06 0 -2.40326e-06 -5.35004e-06 0 -2.09917e-06 -5.3841e-06 0 -1.7964e-06 -5.41235e-06 0 -1.49486e-06 -5.43533e-06 0 -1.19444e-06 -5.45349e-06 0 -8.94964e-07 -5.46724e-06 0 -5.96221e-07 -5.47685e-06 0 -2.97983e-07 -5.48256e-06 0 0 -5.48448e-06 0 -8.21825e-06 -1.63218e-06 0 -8.17097e-06 -1.89998e-06 0 -8.09858e-06 -2.18052e-06 0 -7.9973e-06 -2.46891e-06 0 -7.86527e-06 -2.75951e-06 0 -7.70245e-06 -3.04665e-06 0 -7.51042e-06 -3.32529e-06 0 -7.29183e-06 -3.59136e-06 0 -7.05e-06 -3.84188e-06 0 -6.78844e-06 -4.07491e-06 0 -6.51062e-06 -4.28943e-06 0 -6.21979e-06 -4.48509e-06 0 -5.91887e-06 -4.66211e-06 0 -5.61041e-06 -4.82113e-06 0 -5.29658e-06 -4.96303e-06 0 -4.97921e-06 -5.08887e-06 0 -4.65981e-06 -5.19983e-06 0 -4.33958e-06 -5.29711e-06 0 -4.01946e-06 -5.38192e-06 0 -3.70018e-06 -5.45544e-06 0 -3.38227e-06 -5.51879e-06 0 -3.06608e-06 -5.57304e-06 0 -2.75183e-06 -5.61914e-06 0 -2.43961e-06 -5.65801e-06 0 -2.12942e-06 -5.69042e-06 0 -1.82117e-06 -5.7171e-06 0 -1.51469e-06 -5.73865e-06 0 -1.20977e-06 -5.75558e-06 0 -9.06147e-07 -5.76832e-06 0 -6.03529e-07 -5.7772e-06 0 -3.01592e-07 -5.78246e-06 0 0 -5.78423e-06 0 -8.48836e-06 -1.659e-06 0 -8.45865e-06 -1.95147e-06 0 -8.39889e-06 -2.26218e-06 0 -8.30386e-06 -2.58403e-06 0 -8.17119e-06 -2.90894e-06 0 -8.00141e-06 -3.22911e-06 0 -7.79719e-06 -3.53795e-06 0 -7.56257e-06 -3.83052e-06 0 -7.30213e-06 -4.10349e-06 0 -7.02055e-06 -4.35496e-06 0 -6.7222e-06 -4.58415e-06 0 -6.411e-06 -4.79112e-06 0 -6.09036e-06 -4.97653e-06 0 -5.76315e-06 -5.14143e-06 0 -5.43177e-06 -5.28713e-06 0 -5.09815e-06 -5.41509e-06 0 -4.76385e-06 -5.52679e-06 0 -4.43008e-06 -5.62375e-06 0 -4.09774e-06 -5.70743e-06 0 -3.76749e-06 -5.77924e-06 0 -3.43979e-06 -5.84047e-06 0 -3.1149e-06 -5.89236e-06 0 -2.79295e-06 -5.936e-06 0 -2.47393e-06 -5.97241e-06 0 -2.15773e-06 -6.00246e-06 0 -1.84416e-06 -6.02696e-06 0 -1.53295e-06 -6.04656e-06 0 -1.2238e-06 -6.06184e-06 0 -9.16328e-07 -6.07325e-06 0 -6.10155e-07 -6.08116e-06 0 -3.04856e-07 -6.08583e-06 0 0 -6.08739e-06 0 -8.78118e-06 -1.66241e-06 0 -8.77654e-06 -1.98413e-06 0 -8.73488e-06 -2.33231e-06 0 -8.64835e-06 -2.69596e-06 0 -8.51446e-06 -3.06319e-06 0 -8.3349e-06 -3.42307e-06 0 -8.11439e-06 -3.76711e-06 0 -7.85904e-06 -4.08949e-06 0 -7.57532e-06 -4.38679e-06 0 -7.26934e-06 -4.65744e-06 0 -6.94653e-06 -4.90121e-06 0 -6.61157e-06 -5.1188e-06 0 -6.26833e-06 -5.31151e-06 0 -5.92001e-06 -5.48097e-06 0 -5.56914e-06 -5.62902e-06 0 -5.21774e-06 -5.75756e-06 0 -4.86734e-06 -5.8685e-06 0 -4.51912e-06 -5.96367e-06 0 -4.1739e-06 -6.04481e-06 0 -3.83225e-06 -6.11358e-06 0 -3.49449e-06 -6.17148e-06 0 -3.16079e-06 -6.2199e-06 0 -2.83115e-06 -6.26007e-06 0 -2.50543e-06 -6.29313e-06 0 -2.18341e-06 -6.32004e-06 0 -1.86478e-06 -6.34168e-06 0 -1.54917e-06 -6.35877e-06 0 -1.23614e-06 -6.37193e-06 0 -9.25217e-07 -6.38167e-06 0 -6.15906e-07 -6.38835e-06 0 -3.0768e-07 -6.39227e-06 0 0 -6.39358e-06 0 -9.09946e-06 -1.63138e-06 0 -9.1323e-06 -1.98961e-06 0 -9.11616e-06 -2.38629e-06 0 -9.04079e-06 -2.8043e-06 0 -8.90364e-06 -3.225e-06 0 -8.70942e-06 -3.63321e-06 0 -8.46634e-06 -4.01826e-06 0 -8.18376e-06 -4.37385e-06 0 -7.87063e-06 -4.69699e-06 0 -7.5348e-06 -4.98698e-06 0 -7.1829e-06 -5.24458e-06 0 -6.8203e-06 -5.47147e-06 0 -6.45132e-06 -5.6698e-06 0 -6.07934e-06 -5.84197e-06 0 -5.707e-06 -5.99044e-06 0 -5.33628e-06 -6.11766e-06 0 -4.96864e-06 -6.22597e-06 0 -4.60515e-06 -6.31759e-06 0 -4.24649e-06 -6.39456e-06 0 -3.89309e-06 -6.45878e-06 0 -3.54514e-06 -6.51196e-06 0 -3.20263e-06 -6.55565e-06 0 -2.86541e-06 -6.59124e-06 0 -2.53323e-06 -6.61996e-06 0 -2.20571e-06 -6.64287e-06 0 -1.8824e-06 -6.66092e-06 0 -1.56281e-06 -6.67489e-06 0 -1.24637e-06 -6.68544e-06 0 -9.325e-07 -6.6931e-06 0 -6.20575e-07 -6.69829e-06 0 -3.09959e-07 -6.7013e-06 0 0 -6.7023e-06 0 -9.44939e-06 -1.54966e-06 0 -9.53692e-06 -1.95429e-06 0 -9.55835e-06 -2.41865e-06 0 -9.49557e-06 -2.90998e-06 0 -9.35023e-06 -3.39992e-06 0 -9.13274e-06 -3.8671e-06 0 -8.8576e-06 -4.29939e-06 0 -8.5388e-06 -4.69104e-06 0 -8.18839e-06 -5.04061e-06 0 -7.81616e-06 -5.34908e-06 0 -7.4298e-06 -5.6188e-06 0 -7.0353e-06 -5.85278e-06 0 -6.63721e-06 -6.05431e-06 0 -6.23899e-06 -6.22668e-06 0 -5.8432e-06 -6.37312e-06 0 -5.4517e-06 -6.49666e-06 0 -5.06579e-06 -6.60013e-06 0 -4.68633e-06 -6.68614e-06 0 -4.31383e-06 -6.75704e-06 0 -3.9485e-06 -6.81498e-06 0 -3.59034e-06 -6.86189e-06 0 -3.23917e-06 -6.89948e-06 0 -2.89466e-06 -6.92925e-06 0 -2.55638e-06 -6.95256e-06 0 -2.2238e-06 -6.97054e-06 0 -1.89632e-06 -6.9842e-06 0 -1.5733e-06 -6.99439e-06 0 -1.25405e-06 -7.0018e-06 0 -9.37842e-07 -7.00699e-06 0 -6.2394e-07 -7.01039e-06 0 -3.11583e-07 -7.01232e-06 0 0 -7.01295e-06 0 -9.83329e-06 -1.38318e-06 0 -1.00132e-05 -1.85951e-06 0 -1.00852e-05 -2.42218e-06 0 -1.00346e-05 -3.01856e-06 0 -9.86889e-06 -3.5986e-06 0 -9.6134e-06 -4.13692e-06 0 -9.29205e-06 -4.62178e-06 0 -8.92501e-06 -5.05076e-06 0 -8.52764e-06 -5.4256e-06 0 -8.11138e-06 -5.75011e-06 0 -7.68468e-06 -6.02886e-06 0 -7.25376e-06 -6.26662e-06 0 -6.82316e-06 -6.468e-06 0 -6.39615e-06 -6.63735e-06 0 -5.97508e-06 -6.7787e-06 0 -5.56151e-06 -6.89572e-06 0 -5.15648e-06 -6.99174e-06 0 -4.76057e-06 -7.06975e-06 0 -4.374e-06 -7.13244e-06 0 -3.99675e-06 -7.18219e-06 0 -3.62857e-06 -7.22111e-06 0 -3.26907e-06 -7.25107e-06 0 -2.9177e-06 -7.2737e-06 0 -2.57384e-06 -7.29043e-06 0 -2.2368e-06 -7.30249e-06 0 -1.90579e-06 -7.31094e-06 0 -1.58003e-06 -7.31664e-06 0 -1.25868e-06 -7.32034e-06 0 -9.40887e-07 -7.32263e-06 0 -6.25765e-07 -7.32394e-06 0 -3.12434e-07 -7.3246e-06 0 0 -7.32481e-06 0 -1.02736e-05 -1.08849e-06 0 -1.05929e-05 -1.66248e-06 0 -1.07442e-05 -2.39808e-06 0 -1.06879e-05 -3.14469e-06 0 -1.04773e-05 -3.84192e-06 0 -1.01588e-05 -4.46127e-06 0 -9.77139e-06 -5.0009e-06 0 -9.34096e-06 -5.465e-06 0 -8.88536e-06 -5.86115e-06 0 -8.41676e-06 -6.19701e-06 0 -7.9436e-06 -6.47999e-06 0 -7.47179e-06 -6.71686e-06 0 -7.00544e-06 -6.91371e-06 0 -6.54736e-06 -7.076e-06 0 -6.09943e-06 -7.20857e-06 0 -5.66279e-06 -7.31574e-06 0 -5.23807e-06 -7.40131e-06 0 -4.82547e-06 -7.46866e-06 0 -4.42488e-06 -7.52074e-06 0 -4.03595e-06 -7.56018e-06 0 -3.65816e-06 -7.58925e-06 0 -3.29085e-06 -7.60995e-06 0 -2.93326e-06 -7.62401e-06 0 -2.58453e-06 -7.63294e-06 0 -2.24377e-06 -7.63803e-06 0 -1.91004e-06 -7.64036e-06 0 -1.58237e-06 -7.64086e-06 0 -1.25978e-06 -7.64027e-06 0 -9.41264e-07 -7.6392e-06 0 -6.25807e-07 -7.63811e-06 0 -3.12392e-07 -7.63733e-06 0 0 -7.63704e-06 0 -1.07586e-05 -4.81355e-07 0 -1.139e-05 -1.3349e-06 0 -1.16016e-05 -2.35751e-06 0 -1.14988e-05 -3.33256e-06 0 -1.11893e-05 -4.16391e-06 0 -1.07715e-05 -4.86757e-06 0 -1.02923e-05 -5.45572e-06 0 -9.7813e-06 -5.94755e-06 0 -9.25562e-06 -6.35703e-06 0 -8.72642e-06 -6.69683e-06 0 -8.20102e-06 -6.97723e-06 0 -7.68427e-06 -7.2071e-06 0 -7.17939e-06 -7.39396e-06 0 -6.68841e-06 -7.54433e-06 0 -6.21249e-06 -7.66382e-06 0 -5.75218e-06 -7.75732e-06 0 -5.30757e-06 -7.82907e-06 0 -4.87839e-06 -7.88278e-06 0 -4.46412e-06 -7.92165e-06 0 -4.06404e-06 -7.94848e-06 0 -3.67731e-06 -7.9657e-06 0 -3.30296e-06 -7.97541e-06 0 -2.93997e-06 -7.97941e-06 0 -2.58726e-06 -7.97925e-06 0 -2.24373e-06 -7.97628e-06 0 -1.90824e-06 -7.97159e-06 0 -1.57966e-06 -7.96613e-06 0 -1.25682e-06 -7.96065e-06 0 -9.38593e-07 -7.95577e-06 0 -6.23812e-07 -7.95196e-06 0 -3.11331e-07 -7.94953e-06 0 0 -7.94868e-06 0 -1.14276e-05 6.87687e-07 0 -1.25727e-05 -7.43463e-07 0 -1.28243e-05 -2.45571e-06 0 -1.24924e-05 -3.65147e-06 0 -1.20086e-05 -4.62407e-06 0 -1.14414e-05 -5.38638e-06 0 -1.08443e-05 -6.00809e-06 0 -1.02357e-05 -6.51189e-06 0 -9.62918e-06 -6.92269e-06 0 -9.03222e-06 -7.25591e-06 0 -8.44977e-06 -7.52497e-06 0 -7.88494e-06 -7.74028e-06 0 -7.33953e-06 -7.91066e-06 0 -6.81448e-06 -8.04347e-06 0 -6.31002e-06 -8.14499e-06 0 -5.82596e-06 -8.22057e-06 0 -5.36173e-06 -8.27481e-06 0 -4.91649e-06 -8.31167e-06 0 -4.48925e-06 -8.33453e-06 0 -4.07887e-06 -8.34634e-06 0 -3.68413e-06 -8.34962e-06 0 -3.30376e-06 -8.34652e-06 0 -2.93645e-06 -8.3389e-06 0 -2.58087e-06 -8.32835e-06 0 -2.23569e-06 -8.31619e-06 0 -1.89958e-06 -8.30355e-06 0 -1.57121e-06 -8.29136e-06 0 -1.24928e-06 -8.2804e-06 0 -9.32487e-07 -8.27125e-06 0 -6.19529e-07 -8.26438e-06 0 -3.09126e-07 -8.26012e-06 0 0 -8.25864e-06 0 -1.20524e-05 5.61599e-06 0 -1.53062e-05 -1.15153e-06 0 -1.43262e-05 -2.76574e-06 0 -1.36668e-05 -4.29598e-06 0 -1.28843e-05 -5.25121e-06 0 -1.21433e-05 -6.05843e-06 0 -1.14046e-05 -6.67218e-06 0 -1.06876e-05 -7.17066e-06 0 -9.99262e-06 -7.56491e-06 0 -9.32315e-06 -7.87922e-06 0 -8.68071e-06 -8.12621e-06 0 -8.06602e-06 -8.31829e-06 0 -7.47922e-06 -8.4648e-06 0 -6.91986e-06 -8.57382e-06 0 -6.38712e-06 -8.65201e-06 0 -5.87989e-06 -8.70509e-06 0 -5.39686e-06 -8.73787e-06 0 -4.93658e-06 -8.75447e-06 0 -4.49751e-06 -8.7584e-06 0 -4.07805e-06 -8.75268e-06 0 -3.6766e-06 -8.73985e-06 0 -3.29152e-06 -8.7221e-06 0 -2.92121e-06 -8.70129e-06 0 -2.56409e-06 -8.67899e-06 0 -2.21859e-06 -8.65653e-06 0 -1.88318e-06 -8.63501e-06 0 -1.55635e-06 -8.61535e-06 0 -1.23662e-06 -8.59829e-06 0 -9.22547e-07 -8.58442e-06 0 -6.12695e-07 -8.57418e-06 0 -3.05648e-07 -8.56789e-06 0 0 -8.56573e-06 0 </DataArray> 
</PointData> 
<Points> 
<DataArray type="Float32" NumberOfComponents="3"> 