<?xml version="1.0"?> 
<VTKFile type="StructuredGrid" version="0.1"> 
<StructuredGrid WholeExtent="0 31 0 31 0 0"> 
<Piece Extent="0 31 0 31 0 0"> 
<PointData>
<DataArray type="Float32" Name="B" format="ascii" NumberOfComponents="3"> 
0 7.24647e-05 0 -3.95297e-06 7.23092e-05 0 -7.97937e-06 7.18006e-05 0 -1.21121e-05 7.08053e-05 0 -1.63488e-05 6.91386e-05 0 -2.05624e-05 6.6638e-05 0 -2.46315e-05 6.32224e-05 0 -2.84042e-05 5.89467e-05 0 -3.17387e-05 5.39675e-05 0 -3.45717e-05 4.84894e-05 0 -3.6891e-05 4.27065e-05 0 -3.87219e-05 3.67716e-05 0 -4.01065e-05 3.07908e-05 0 -4.10904e-05 2.48285e-05 0 -4.1713e-05 1.89177e-05 0 -4.20035e-05 1.30702e-05 0 -4.19785e-05 7.28635e-06 0 -4.16412e-05 1.56275e-06 0 -4.09816e-05 -4.09923e-06 0 -3.99779e-05 -9.68545e-06 0 -3.85987e-05 -1.51597e-05 0 -3.68085e-05 -2.04538e-05 0 -3.45768e-05 -2.54579e-05 0 -3.18925e-05 -3.00159e-05 0 -2.87856e-05 -3.39317e-05 0 -2.5341e-05 -3.7006e-05 0 -2.17244e-05 -3.90836e-05 0 -1.81252e-05 -4.01569e-05 0 -1.46722e-05 -4.02892e-05 0 -1.16017e-05 -3.99287e-05 0 -8.63928e-06 -3.90062e-05 0 -7.74254e-06 -4.08552e-05 0 0 7.65191e-05 0 -4.21736e-06 7.64341e-05 0 -8.61672e-06 7.61085e-05 0 -1.33362e-05 7.53461e-05 0 -1.83668e-05 7.38433e-05 0 -2.36045e-05 7.13436e-05 0 -2.87138e-05 6.76552e-05 0 -3.3355e-05 6.28973e-05 0 -3.73311e-05 5.73168e-05 0 -4.05621e-05 5.12109e-05 0 -4.30816e-05 4.48393e-05 0 -4.49745e-05 3.83811e-05 0 -4.63375e-05 3.19465e-05 0 -4.72574e-05 2.55909e-05 0 -4.78021e-05 1.93328e-05 0 -4.80181e-05 1.31672e-05 0 -4.79296e-05 7.07672e-06 0 -4.75393e-05 1.04075e-06 0 -4.6828e-05 -4.95649e-06 0 -4.57554e-05 -1.09168e-05 0 -4.42606e-05 -1.68173e-05 0 -4.2266e-05 -2.25967e-05 0 -3.96864e-05 -2.81385e-05 0 -3.64522e-05 -3.32565e-05 0 -3.25497e-05 -3.76854e-05 0 -2.80852e-05 -4.11244e-05 0 -2.32912e-05 -4.33307e-05 0 -1.85541e-05 -4.41938e-05 0 -1.42834e-05 -4.3952e-05 0 -1.06866e-05 -4.29023e-05 0 -8.08877e-06 -4.15902e-05 0 -7.08622e-06 -4.00509e-05 0 0 8.07148e-05 0 -4.28605e-06 8.07686e-05 0 -8.9238e-06 8.08368e-05 0 -1.41825e-05 8.06026e-05 0 -2.02217e-05 7.96084e-05 0 -2.66984e-05 7.71882e-05 0 -3.31155e-05 7.32017e-05 0 -3.88729e-05 6.76924e-05 0 -4.35549e-05 6.11824e-05 0 -4.7139e-05 5.41894e-05 0 -4.97657e-05 4.70475e-05 0 -5.16204e-05 3.99588e-05 0 -5.28734e-05 3.3017e-05 0 -5.36608e-05 2.62519e-05 0 -5.40813e-05 1.96532e-05 0 -5.41985e-05 1.31882e-05 0 -5.40441e-05 6.8134e-06 0 -5.36198e-05 4.82307e-07 0 -5.28973e-05 -5.84668e-06 0 -5.18171e-05 -1.2202e-05 0 -5.02862e-05 -1.85879e-05 0 -4.81759e-05 -2.49664e-05 0 -4.53267e-05 -3.12342e-05 0 -4.15678e-05 -3.71779e-05 0 -3.67795e-05 -4.24512e-05 0 -3.10132e-05 -4.65247e-05 0 -2.47257e-05 -4.88661e-05 0 -1.85764e-05 -4.94271e-05 0 -1.31499e-05 -4.83482e-05 0 -8.92761e-06 -4.63077e-05 0 -5.95466e-06 -4.37427e-05 0 -4.08846e-06 -4.08083e-05 0 0 8.47631e-05 0 -3.99679e-06 8.50615e-05 0 -8.54872e-06 8.57981e-05 0 -1.4239e-05 8.66356e-05 0 -2.13699e-05 8.66876e-05 0 -3.00265e-05 8.50479e-05 0 -3.87115e-05 8.03273e-05 0 -4.59033e-05 7.3454e-05 0 -5.12835e-05 6.55248e-05 0 -5.50537e-05 5.729e-05 0 -5.75904e-05 4.91893e-05 0 -5.92311e-05 4.1379e-05 0 -6.02365e-05 3.39048e-05 0 -6.07924e-05 2.67428e-05 0 -6.10252e-05 1.98379e-05 0 -6.10121e-05 1.31187e-05 0 -6.07903e-05 6.50708e-06 0 -6.03602e-05 -7.61552e-08 0 -5.96859e-05 -6.70655e-06 0 -5.86918e-05 -1.34505e-05 0 -5.72549e-05 -2.03551e-05 0 -5.51945e-05 -2.74338e-05 0 -5.22585e-05 -3.46276e-05 0 -4.81217e-05 -4.17637e-05 0 -4.24268e-05 -4.83833e-05 0 -3.50002e-05 -5.37139e-05 0 -2.62016e-05 -5.66336e-05 0 -1.76128e-05 -5.61864e-05 0 -1.08186e-05 -5.37299e-05 0 -5.85724e-06 -5.01281e-05 0 -2.5846e-06 -4.62075e-05 0 -6.03528e-07 -4.22255e-05 0 0 8.82168e-05 0 -3.13214e-06 8.88344e-05 0 -7.0598e-06 9.06434e-05 0 -1.2601e-05 9.31912e-05 0 -2.11305e-05 9.5861e-05 0 -3.27985e-05 9.51059e-05 0 -4.48096e-05 8.97227e-05 0 -5.38689e-05 8.03277e-05 0 -5.96287e-05 7.00609e-05 0 -6.31754e-05 6.02397e-05 0 -6.5275e-05 5.10158e-05 0 -6.64427e-05 4.2455e-05 0 -6.70156e-05 3.44743e-05 0 -6.72158e-05 2.69737e-05 0 -6.71845e-05 1.98354e-05 0 -6.70049e-05 1.29412e-05 0 -6.67153e-05 6.17297e-06 0 -6.63146e-05 -5.85694e-07 0 -6.57632e-05 -7.44985e-06 0 -6.49764e-05 -1.45318e-05 0 -6.38134e-05 -2.19398e-05 0 -6.20541e-05 -2.97611e-05 0 -5.93658e-05 -3.80617e-05 0 -5.52422e-05 -4.67544e-05 0 -4.89321e-05 -5.56609e-05 0 -3.9372e-05 -6.34314e-05 0 -2.69455e-05 -6.68856e-05 0 -1.50002e-05 -6.53581e-05 0 -6.40846e-06 -5.99902e-05 0 -1.12803e-06 -5.42521e-05 0 2.07172e-06 -4.86651e-05 0 3.83182e-06 -4.35817e-05 0 0 9.03962e-05 0 -1.53449e-06 9.14536e-05 0 -3.85384e-06 9.44787e-05 0 -8.38994e-06 9.97562e-05 0 -1.59313e-05 0.000106624 0 -3.49932e-05 0.000115177 0 -5.45245e-05 0.000103407 0 -6.44421e-05 8.71908e-05 0 -6.939e-05 7.42511e-05 0 -7.19614e-05 6.24973e-05 0 -7.31227e-05 5.21838e-05 0 -7.34872e-05 4.29384e-05 0 -7.34122e-05 3.45625e-05 0 -7.31189e-05 2.68405e-05 0 -7.27425e-05 1.95887e-05 0 -7.23593e-05 1.26378e-05 0 -7.20029e-05 5.82966e-06 0 -7.16707e-05 -9.89171e-07 0 -7.13243e-05 -7.97333e-06 0 -7.08827e-05 -1.52855e-05 0 -7.02073e-05 -2.30986e-05 0 -6.90746e-05 -3.16133e-05 0 -6.71271e-05 -4.10084e-05 0 -6.37544e-05 -5.16304e-05 0 -5.79982e-05 -6.31919e-05 0 -4.72795e-05 -7.7742e-05 0 -2.69793e-05 -8.75037e-05 0 -7.21957e-06 -7.65331e-05 0 8.89438e-07 -6.67523e-05 0 5.77621e-06 -5.79542e-05 0 8.10421e-06 -5.06659e-05 0 9.11276e-06 -4.44353e-05 0 0 9.05716e-05 0 9.01505e-07 9.20374e-05 0 1.10765e-06 9.62444e-05 0 -3.12137e-07 0.0001042 0 -4.61766e-06 0.00011546 0 -1.45638e-05 0.00013338 0 -2.50238e-05 0.000115335 0 -3.07932e-05 9.22959e-05 0 -3.31626e-05 7.68424e-05 0 -3.37673e-05 6.34114e-05 0 -3.34286e-05 5.22569e-05 0 -3.26465e-05 4.25606e-05 0 -3.17106e-05 3.39967e-05 0 -3.07943e-05 2.62389e-05 0 -2.99991e-05 1.90421e-05 0 -2.93799e-05 1.21921e-05 0 -2.89593e-05 5.49692e-06 0 -2.87329e-05 -1.22778e-06 0 -2.86699e-05 -8.17028e-06 0 -2.87068e-05 -1.55376e-05 0 -2.87345e-05 -2.35634e-05 0 -2.85723e-05 -3.25577e-05 0 -2.79246e-05 -4.28245e-05 0 -2.62871e-05 -5.51532e-05 0 -2.28372e-05 -6.92524e-05 0 -1.59427e-05 -9.0636e-05 0 -4.32272e-06 -0.000106662 0 6.79904e-06 -8.62774e-05 0 1.2262e-05 -7.19983e-05 0 1.4766e-05 -6.03309e-05 0 1.54825e-05 -5.15399e-05 0 1.51982e-05 -4.43697e-05 0 0 8.80444e-05 0 3.98731e-06 8.9763e-05 0 7.61841e-06 9.48138e-05 0 1.04953e-05 0.000104364 0 1.20274e-05 0.000118265 0 1.25622e-05 0.000138753 0 1.27483e-05 0.000119278 0 1.34573e-05 9.35797e-05 0 1.50869e-05 7.6563e-05 0 1.72469e-05 6.23192e-05 0 1.95507e-05 5.08257e-05 0 2.17553e-05 4.10768e-05 0 2.37164e-05 3.26271e-05 0 2.53522e-05 2.50815e-05 0 2.66186e-05 1.8151e-05 0 2.74949e-05 1.15925e-05 0 2.79754e-05 5.19315e-06 0 2.80663e-05 -1.25029e-06 0 2.77852e-05 -7.94724e-06 0 2.71652e-05 -1.51331e-05 0 2.62628e-05 -2.30856e-05 0 2.51723e-05 -3.21829e-05 0 2.40506e-05 -4.28481e-05 0 2.31532e-05 -5.60565e-05 0 2.28786e-05 -7.17911e-05 0 2.36276e-05 -9.59087e-05 0 2.50109e-05 -0.000113435 0 2.61616e-05 -9.05404e-05 0 2.64294e-05 -7.36553e-05 0 2.54543e-05 -6.03826e-05 0 2.37969e-05 -5.06618e-05 0 2.17917e-05 -4.30168e-05 0 0 8.23233e-05 0 7.40032e-06 8.41059e-05 0 1.48834e-05 8.93728e-05 0 2.25318e-05 9.93142e-05 0 3.04685e-05 0.000113827 0 3.84781e-05 0.000134655 0 4.62267e-05 0.000115409 0 5.33026e-05 8.96838e-05 0 5.94649e-05 7.27214e-05 0 6.47599e-05 5.87386e-05 0 6.92619e-05 4.76225e-05 0 7.30238e-05 3.83241e-05 0 7.60862e-05 3.03604e-05 0 7.84822e-05 2.33164e-05 0 8.02386e-05 1.6891e-05 0 8.13768e-05 1.08351e-05 0 8.19111e-05 4.93259e-06 0 8.18495e-05 -1.02215e-06 0 8.11931e-05 -7.2419e-06 0 7.9937e-05 -1.39686e-05 0 7.80711e-05 -2.14924e-05 0 7.55804e-05 -3.02122e-05 0 7.24436e-05 -4.05893e-05 0 6.86289e-05 -5.3643e-05 0 6.4085e-05 -6.94476e-05 0 5.8791e-05 -9.37343e-05 0 5.30158e-05 -0.000111192 0 4.72021e-05 -8.81354e-05 0 4.17181e-05 -7.08309e-05 0 3.68165e-05 -5.73695e-05 0 3.24146e-05 -4.76345e-05 0 2.84727e-05 -4.01068e-05 0 0 7.32866e-05 0 1.07297e-05 7.49284e-05 0 2.19602e-05 7.97235e-05 0 3.42841e-05 8.8843e-05 0 4.85241e-05 0.000102108 0 6.52135e-05 0.000122629 0 8.17611e-05 0.000104179 0 9.53564e-05 8.0318e-05 0 0.000105945 6.51429e-05 0 0.000114297 5.25438e-05 0 0.000120941 4.25804e-05 0 0.000126218 3.42679e-05 0 0.000130347 2.71826e-05 0 0.000133475 2.09408e-05 0 0.0001357 1.52654e-05 0 0.000137085 9.92596e-06 0 0.000137666 4.72318e-06 0 0.000137451 -5.32378e-07 0 0.000136425 -6.03711e-06 0 0.000134544 -1.20151e-05 0 0.00013173 -1.87336e-05 0 0.000127862 -2.65623e-05 0 0.000122746 -3.59051e-05 0 0.000116069 -4.77205e-05 0 0.000107336 -6.19133e-05 0 9.58184e-05 -8.45459e-05 0 8.16168e-05 -0.00010146 0 6.75992e-05 -7.90083e-05 0 5.64266e-05 -6.33079e-05 0 4.76531e-05 -5.10928e-05 0 4.05672e-05 -4.23381e-05 0 3.4724e-05 -3.55689e-05 0 0 6.121e-05 0 1.35827e-05 6.25264e-05 0 2.7936e-05 6.62854e-05 0 4.42138e-05 7.3333e-05 0 6.34707e-05 8.30819e-05 0 9.09719e-05 9.83495e-05 0 0.000118441 8.42258e-05 0 0.000137946 6.60868e-05 0 0.000152124 5.41479e-05 0 0.000163011 4.39906e-05 0 0.000171465 3.5853e-05 0 0.000178044 2.90153e-05 0 0.000183097 2.31681e-05 0 0.00018686 1.80066e-05 0 0.00018949 1.33073e-05 0 0.000191087 8.88154e-06 0 0.000191704 4.56555e-06 0 0.000191352 2.03402e-07 0 0.000189999 -4.36629e-06 0 0.000187569 -9.32724e-06 0 0.000183929 -1.48951e-05 0 0.000178871 -2.1363e-05 0 0.000172077 -2.90249e-05 0 0.000163026 -3.85788e-05 0 0.000150902 -4.97579e-05 0 0.000133724 -6.69418e-05 0 0.000108916 -7.98636e-05 0 8.4493e-05 -6.30776e-05 0 6.88316e-05 -5.14006e-05 0 5.67973e-05 -4.18886e-05 0 4.75071e-05 -3.49623e-05 0 4.00394e-05 -2.95345e-05 0 0 4.67216e-05 0 1.56615e-05 4.7549e-05 0 3.22017e-05 5.00614e-05 0 5.08808e-05 5.41384e-05 0 7.25804e-05 5.95354e-05 0 0.000102755 6.31666e-05 0 0.000132812 5.79506e-05 0 0.000154621 4.87883e-05 0 0.000170849 4.06125e-05 0 0.000183407 3.36474e-05 0 0.000193151 2.77808e-05 0 0.00020069 2.2798e-05 0 0.000206437 1.84712e-05 0 0.00021068 1.46164e-05 0 0.000213618 1.10784e-05 0 0.000215375 7.72857e-06 0 0.000216018 4.45319e-06 0 0.000215559 1.14434e-06 0 0.000213955 -2.31013e-06 0 0.000211106 -6.03542e-06 0 0.000206841 -1.01814e-05 0 0.000200904 -1.49245e-05 0 0.000192917 -2.04814e-05 0 0.000182312 -2.70522e-05 0 0.000168285 -3.4729e-05 0 0.000148986 -4.32609e-05 0 0.000121828 -4.76787e-05 0 9.50364e-05 -4.30333e-05 0 7.7331e-05 -3.63407e-05 0 6.34197e-05 -3.05993e-05 0 5.26343e-05 -2.59394e-05 0 4.40004e-05 -2.23242e-05 0 0 3.05821e-05 0 1.68354e-05 3.09639e-05 0 3.45845e-05 3.20552e-05 0 5.40599e-05 3.37478e-05 0 7.6235e-05 3.55024e-05 0 0.000100148 3.60483e-05 0 0.000123782 3.3881e-05 0 0.000144637 3.00081e-05 0 0.000161515 2.59022e-05 0 0.000174869 2.21471e-05 0 0.000185325 1.884e-05 0 0.00019342 1.59228e-05 0 0.000199577 1.33082e-05 0 0.000204106 1.09121e-05 0 0.000207227 8.66351e-06 0 0.000209079 6.50183e-06 0 0.000209736 4.37386e-06 0 0.000209211 2.22893e-06 0 0.000207455 1.44918e-08 0 0.000204354 -2.32844e-06 0 0.000199719 -4.86862e-06 0 0.000193271 -7.68669e-06 0 0.000184627 -1.08649e-05 0 0.000173293 -1.44545e-05 0 0.0001587 -1.8349e-05 0 0.000140465 -2.19519e-05 0 0.000119868 -2.37732e-05 0 9.95196e-05 -2.27819e-05 0 8.15767e-05 -2.04512e-05 0 6.71826e-05 -1.80097e-05 0 5.56003e-05 -1.59425e-05 0 4.63266e-05 -1.42854e-05 0 0 1.37115e-05 0 1.71302e-05 1.36367e-05 0 3.5122e-05 1.34187e-05 0 5.47895e-05 1.30648e-05 0 7.6491e-05 1.26124e-05 0 9.99173e-05 1.21253e-05 0 0.000122927 1.1694e-05 0 0.000143282 1.12647e-05 0 0.000160167 1.0769e-05 0 0.000173683 1.01814e-05 0 0.000184308 9.50249e-06 0 0.000192541 8.74617e-06 0 0.000198799 7.92772e-06 0 0.000203399 7.06202e-06 0 0.000206563 6.16256e-06 0 0.000208437 5.24175e-06 0 0.000209096 4.31121e-06 0 0.000208554 3.38223e-06 0 0.000206759 2.46616e-06 0 0.000203593 1.57484e-06 0 0.000198862 7.2098e-07 0 0.000192284 -8.16778e-08 0 0.000183481 -8.19202e-07 0 0.000171999 -1.47956e-06 0 0.000157415 -2.06401e-06 0 0.000139703 -2.60081e-06 0 0.000119762 -3.1614e-06 0 9.99436e-05 -3.8034e-06 0 8.25331e-05 -4.44108e-06 0 6.80265e-05 -5.01674e-06 0 5.63079e-05 -5.50067e-06 0 4.68782e-05 -5.89541e-06 0 0 -3.01396e-06 0 1.65408e-05 -3.54506e-06 0 3.39881e-05 -5.07938e-06 0 5.32037e-05 -7.50379e-06 0 7.51275e-05 -1.0254e-05 0 9.95334e-05 -1.18403e-05 0 0.00012368 -1.05043e-05 0 0.000144462 -7.40779e-06 0 0.000161128 -4.26473e-06 0 0.000174277 -1.69196e-06 0 0.000184557 2.43177e-07 0 0.00019251 1.63167e-06 0 0.000198557 2.59447e-06 0 0.000203005 3.24555e-06 0 0.00020607 3.6829e-06 0 0.000207891 3.99136e-06 0 0.000208541 4.24701e-06 0 0.00020803 4.52266e-06 0 0.000206312 4.89312e-06 0 0.000203273 5.4407e-06 0 0.000198727 6.25937e-06 0 0.000192398 7.45742e-06 0 0.000183904 9.14808e-06 0 0.000172745 1.14121e-05 0 0.00015833 1.41686e-05 0 0.000140126 1.67832e-05 0 0.00011897 1.75185e-05 0 9.80724e-05 1.51819e-05 0 8.03139e-05 1.14912e-05 0 6.60987e-05 7.882e-06 0 5.47197e-05 4.84953e-06 0 4.56202e-05 2.41454e-06 0 0 -1.87186e-05 0 1.50706e-05 -1.96925e-05 0 3.10111e-05 -2.26484e-05 0 4.90551e-05 -2.75083e-05 0 7.01772e-05 -3.40942e-05 0 9.95739e-05 -3.93913e-05 0 0.000128888 -3.46099e-05 0 0.000150145 -2.58725e-05 0 0.000165871 -1.86582e-05 0 0.000177995 -1.29059e-05 0 0.000187383 -8.46309e-06 0 0.000194641 -5.05837e-06 0 0.000200172 -2.42845e-06 0 0.000204256 -3.58965e-07 0 0.000207086 1.33108e-06 0 0.000208782 2.79334e-06 0 0.000209409 4.16309e-06 0 0.000208978 5.56912e-06 0 0.000207448 7.14457e-06 0 0.000204721 9.03665e-06 0 0.000200632 1.14194e-05 0 0.00019493 1.44972e-05 0 0.000187247 1.85199e-05 0 0.000177017 2.37408e-05 0 0.000163423 3.02885e-05 0 0.000144597 3.81926e-05 0 0.000118088 4.19324e-05 0 9.19651e-05 3.53303e-05 0 7.47063e-05 2.71022e-05 0 6.12723e-05 2.01648e-05 0 5.0894e-05 1.45682e-05 0 4.26139e-05 1.02131e-05 0 0 -3.24854e-05 0 1.27153e-05 -3.39464e-05 0 2.61591e-05 -3.80964e-05 0 4.14517e-05 -4.5937e-05 0 5.95659e-05 -5.68075e-05 0 8.57574e-05 -7.44879e-05 0 0.000111925 -6.03211e-05 0 0.000130348 -4.24384e-05 0 0.000143683 -3.16127e-05 0 0.000153901 -2.27577e-05 0 0.000161827 -1.61476e-05 0 0.000167994 -1.09724e-05 0 0.000172732 -6.89735e-06 0 0.000176265 -3.58688e-06 0 0.000178738 -7.95302e-07 0 0.000180248 1.68708e-06 0 0.000180841 4.04333e-06 0 0.00018053 6.44823e-06 0 0.000179284 9.0819e-06 0 0.00017703 1.2148e-05 0 0.000173645 1.58827e-05 0 0.000168932 2.0608e-05 0 0.00016259 2.66403e-05 0 0.000154121 3.4765e-05 0 0.00014274 4.46752e-05 0 0.000126527 6.14147e-05 0 0.000102886 7.4154e-05 0 7.96131e-05 5.46867e-05 0 6.49059e-05 4.157e-05 0 5.36302e-05 3.08887e-05 0 4.49725e-05 2.31256e-05 0 3.80296e-05 1.70203e-05 0 0 -4.35951e-05 0 9.62444e-06 -4.53388e-05 0 1.96887e-05 -5.04798e-05 0 3.07016e-05 -6.01537e-05 0 4.34338e-05 -7.43435e-05 0 5.81124e-05 -9.55415e-05 0 7.26642e-05 -7.83245e-05 0 8.47695e-05 -5.56165e-05 0 9.42327e-05 -4.1714e-05 0 0.000101713 -3.06398e-05 0 0.000107681 -2.23425e-05 0 0.000112435 -1.58165e-05 0 0.000116166 -1.06044e-05 0 0.000119002 -6.30282e-06 0 0.000121028 -2.61525e-06 0 0.000122301 7.05638e-07 0 0.000122852 3.87584e-06 0 0.000122688 7.1009e-06 0 0.000121797 1.05933e-05 0 0.000120139 1.45929e-05 0 0.000117648 1.9385e-05 0 0.000114216 2.53565e-05 0 0.000109676 3.29428e-05 0 0.000103758 4.31199e-05 0 9.60212e-05 5.59007e-05 0 8.5844e-05 7.72117e-05 0 7.34654e-05 9.26896e-05 0 6.12571e-05 6.93224e-05 0 5.1355e-05 5.24158e-05 0 4.3609e-05 3.93181e-05 0 3.73444e-05 2.98351e-05 0 3.21791e-05 2.25163e-05 0 0 -5.14444e-05 0 6.12268e-06 -5.3306e-05 0 1.2254e-05 -5.87857e-05 0 1.83775e-05 -6.91263e-05 0 2.45399e-05 -8.41778e-05 0 3.05003e-05 -0.000105999 0 3.62234e-05 -8.78281e-05 0 4.16036e-05 -6.35362e-05 0 4.64489e-05 -4.82254e-05 0 5.07361e-05 -3.59996e-05 0 5.44582e-05 -2.67417e-05 0 5.76151e-05 -1.93758e-05 0 6.02141e-05 -1.34089e-05 0 6.2268e-05 -8.41227e-06 0 6.37912e-05 -4.07226e-06 0 6.47973e-05 -1.2655e-07 0 6.52967e-05 3.65444e-06 0 6.52956e-05 7.48952e-06 0 6.47969e-05 1.16043e-05 0 6.38004e-05 1.62529e-05 0 6.2306e-05 2.17363e-05 0 6.03162e-05 2.84651e-05 0 5.78405e-05 3.69079e-05 0 5.48976e-05 4.81084e-05 0 5.15148e-05 6.21416e-05 0 4.77378e-05 8.4849e-05 0 4.37828e-05 0.000101057 0 3.97816e-05 7.68008e-05 0 3.57963e-05 5.87188e-05 0 3.20945e-05 4.4585e-05 0 2.86532e-05 3.43288e-05 0 2.55071e-05 2.63753e-05 0 0 -5.58446e-05 0 2.61697e-06 -5.75955e-05 0 4.79693e-06 -6.27532e-05 0 6.07848e-06 -7.24351e-05 0 5.54564e-06 -8.65942e-05 0 3.64619e-06 -0.000107543 0 1.37188e-06 -8.96024e-05 0 1.03857e-07 -6.58664e-05 0 3.34092e-07 -5.08617e-05 0 1.43542e-06 -3.86591e-05 0 2.91064e-06 -2.92237e-05 0 4.46134e-06 -2.15691e-05 0 5.91456e-06 -1.52512e-05 0 7.17144e-06 -9.87321e-06 0 8.17783e-06 -5.13871e-06 0 8.90648e-06 -7.95541e-07 0 9.34803e-06 3.37995e-06 0 9.50687e-06 7.60163e-06 0 9.40118e-06 1.2089e-05 0 9.06722e-06 1.70855e-05 0 8.56836e-06 2.28745e-05 0 8.01296e-06 2.98337e-05 0 7.58368e-06 3.83821e-05 0 7.58863e-06 4.9473e-05 0 8.53427e-06 6.30986e-05 0 1.10559e-05 8.51334e-05 0 1.4667e-05 0.000100981 0 1.79872e-05 7.74536e-05 0 2.00173e-05 6.01145e-05 0 2.02875e-05 4.64936e-05 0 1.96685e-05 3.64333e-05 0 1.85353e-05 2.85161e-05 0 0 -5.69674e-05 0 -5.03222e-07 -5.84495e-05 0 -1.6983e-06 -6.26463e-05 0 -4.73713e-06 -7.05321e-05 0 -1.05683e-05 -8.14227e-05 0 -2.49384e-05 -9.90929e-05 0 -3.97629e-05 -8.31495e-05 0 -4.74521e-05 -6.29672e-05 0 -5.10581e-05 -4.99404e-05 0 -5.26705e-05 -3.8804e-05 0 -5.31564e-05 -2.99003e-05 0 -5.30479e-05 -2.24537e-05 0 -5.26475e-05 -1.61604e-05 0 -5.21363e-05 -1.06973e-05 0 -5.16214e-05 -5.81708e-06 0 -5.11615e-05 -1.29813e-06 0 -5.07822e-05 3.05997e-06 0 -5.04809e-05 7.45075e-06 0 -5.0228e-05 1.20705e-05 0 -4.99599e-05 1.7132e-05 0 -4.95657e-05 2.28696e-05 0 -4.88606e-05 2.95877e-05 0 -4.75391e-05 3.75654e-05 0 -4.50679e-05 4.75461e-05 0 -4.0581e-05 5.9147e-05 0 -3.19937e-05 7.75817e-05 0 -1.62653e-05 9.13909e-05 0 -1.00628e-06 7.1118e-05 0 5.66216e-06 5.7053e-05 0 9.42577e-06 4.52888e-05 0 1.11335e-05 3.63437e-05 0 1.17718e-05 2.90136e-05 0 0 -5.53804e-05 0 -2.92042e-06 -5.64173e-05 0 -6.63417e-06 -5.94724e-05 0 -1.23444e-05 -6.4468e-05 0 -2.11884e-05 -7.0947e-05 0 -3.85747e-05 -7.66341e-05 0 -5.63754e-05 -6.89149e-05 0 -6.68177e-05 -5.67068e-05 0 -7.26944e-05 -4.62359e-05 0 -7.61492e-05 -3.69961e-05 0 -7.81066e-05 -2.90627e-05 0 -7.91509e-05 -2.2212e-05 0 -7.96302e-05 -1.62397e-05 0 -7.97626e-05 -1.09437e-05 0 -7.96825e-05 -6.13591e-06 0 -7.94673e-05 -1.6409e-06 0 -7.91524e-05 2.70779e-06 0 -7.87375e-05 7.07213e-06 0 -7.8187e-05 1.16146e-05 0 -7.74233e-05 1.65022e-05 0 -7.6313e-05 2.19108e-05 0 -7.46395e-05 2.80245e-05 0 -7.20584e-05 3.50246e-05 0 -6.79915e-05 4.31055e-05 0 -6.15244e-05 5.21549e-05 0 -5.05291e-05 6.26338e-05 0 -3.22373e-05 6.826e-05 0 -1.44593e-05 6.00485e-05 0 -5.37953e-06 5.05316e-05 0 3.24329e-07 4.18861e-05 0 3.65899e-06 3.44542e-05 0 5.62471e-06 2.81748e-05 0 0 -5.17462e-05 0 -4.54603e-06 -5.23985e-05 0 -9.80117e-06 -5.42412e-05 0 -1.65378e-05 -5.68782e-05 0 -2.57022e-05 -5.94739e-05 0 -3.7763e-05 -5.95213e-05 0 -5.00008e-05 -5.57504e-05 0 -5.94435e-05 -4.88783e-05 0 -6.59391e-05 -4.11986e-05 0 -7.03079e-05 -3.38663e-05 0 -7.3193e-05 -2.71413e-05 0 -7.50538e-05 -2.1089e-05 0 -7.62026e-05 -1.56438e-05 0 -7.68488e-05 -1.07025e-05 0 -7.71285e-05 -6.14276e-06 0 -7.71236e-05 -1.83773e-06 0 -7.68735e-05 2.33982e-06 0 -7.63797e-05 6.5157e-06 0 -7.56067e-05 1.08134e-05 0 -7.44767e-05 1.53523e-05 0 -7.28587e-05 2.0243e-05 0 -7.05499e-05 2.5573e-05 0 -6.72472e-05 3.1387e-05 0 -6.25033e-05 3.75938e-05 0 -5.56924e-05 4.39022e-05 0 -4.60181e-05 4.9119e-05 0 -3.36659e-05 5.09061e-05 0 -2.16555e-05 4.84947e-05 0 -1.27736e-05 4.30963e-05 0 -6.64767e-06 3.71549e-05 0 -2.46882e-06 3.14424e-05 0 3.35913e-07 2.63011e-05 0 0 -4.68074e-05 0 -5.48825e-06 -4.71589e-05 0 -1.1467e-05 -4.80731e-05 0 -1.83969e-05 -4.92016e-05 0 -2.65763e-05 -4.98134e-05 0 -3.57523e-05 -4.90581e-05 0 -4.4871e-05 -4.60545e-05 0 -5.27732e-05 -4.13461e-05 0 -5.8985e-05 -3.57997e-05 0 -6.36226e-05 -3.00691e-05 0 -6.69834e-05 -2.45362e-05 0 -6.93549e-05 -1.93491e-05 0 -7.09684e-05 -1.45409e-05 0 -7.19954e-05 -1.0078e-05 0 -7.25549e-05 -5.8943e-06 0 -7.27222e-05 -1.9071e-06 0 -7.25351e-05 1.97303e-06 0 -7.19972e-05 5.83635e-06 0 -7.10777e-05 9.76896e-06 0 -6.97093e-05 1.38469e-05 0 -6.77818e-05 1.8126e-05 0 -6.51348e-05 2.2626e-05 0 -6.15504e-05 2.7296e-05 0 -5.67581e-05 3.19664e-05 0 -5.04829e-05 3.62293e-05 0 -4.26376e-05 3.94014e-05 0 -3.37348e-05 4.05824e-05 0 -2.49855e-05 3.91929e-05 0 -1.75128e-05 3.60779e-05 0 -1.16633e-05 3.20557e-05 0 -7.26416e-06 2.7836e-05 0 -4.0227e-06 2.37765e-05 0 0 -4.11541e-05 0 -5.93325e-06 -4.12992e-05 0 -1.216e-05 -4.16396e-05 0 -1.89088e-05 -4.19055e-05 0 -2.62492e-05 -4.16904e-05 0 -3.39487e-05 -4.0489e-05 0 -4.14848e-05 -3.81316e-05 0 -4.82842e-05 -3.46766e-05 0 -5.40055e-05 -3.05124e-05 0 -5.85876e-05 -2.6049e-05 0 -6.21283e-05 -2.15643e-05 0 -6.47785e-05 -1.72207e-05 0 -6.66866e-05 -1.30864e-05 0 -6.79765e-05 -9.17116e-06 0 -6.87413e-05 -5.44785e-06 0 -6.90434e-05 -1.86911e-06 0 -6.89161e-05 1.62234e-06 0 -6.83642e-05 5.08581e-06 0 -6.7365e-05 8.57571e-06 0 -6.58672e-05 1.21337e-05 0 -6.37899e-05 1.5778e-05 0 -6.10233e-05 1.94875e-05 0 -5.74362e-05 2.31793e-05 0 -5.2898e-05 2.66735e-05 0 -4.73364e-05 2.96722e-05 0 -4.08444e-05 3.17436e-05 0 -3.38036e-05 3.24759e-05 0 -2.68386e-05 3.17887e-05 0 -2.05371e-05 2.98336e-05 0 -1.52144e-05 2.71071e-05 0 -1.09041e-05 2.40235e-05 0 -7.50415e-06 2.08973e-05 0 0 -3.51845e-05 0 -6.07375e-06 -3.52125e-05 0 -1.22993e-05 -3.52335e-05 0 -1.87758e-05 -3.50838e-05 0 -2.54885e-05 -3.45212e-05 0 -3.22771e-05 -3.33313e-05 0 -3.88458e-05 -3.13673e-05 0 -4.48764e-05 -2.87013e-05 0 -5.01439e-05 -2.55147e-05 0 -5.45527e-05 -2.20291e-05 0 -5.81123e-05 -1.84381e-05 0 -6.08885e-05 -1.48729e-05 0 -6.29659e-05 -1.1407e-05 0 -6.44252e-05 -8.06872e-06 0 -6.53331e-05 -4.85501e-06 0 -6.57372e-05 -1.74338e-06 0 -6.56645e-05 1.29882e-06 0 -6.51215e-05 4.30667e-06 0 -6.40939e-05 7.31042e-06 0 -6.2548e-05 1.03278e-05 0 -6.0432e-05 1.33547e-05 0 -5.7682e-05 1.63535e-05 0 -5.42329e-05 1.9239e-05 0 -5.00415e-05 2.18667e-05 0 -4.51254e-05 2.40281e-05 0 -3.96128e-05 2.54864e-05 0 -3.37682e-05 2.60456e-05 0 -2.79573e-05 2.56221e-05 0 -2.25334e-05 2.43575e-05 0 -1.7725e-05 2.24727e-05 0 -1.36258e-05 2.02333e-05 0 -1.02234e-05 1.78612e-05 0 0 -2.91398e-05 0 -6.05168e-06 -2.91089e-05 0 -1.21668e-05 -2.89822e-05 0 -1.83723e-05 -2.8661e-05 0 -2.46304e-05 -2.80169e-05 0 -3.08196e-05 -2.6925e-05 0 -3.67608e-05 -2.53343e-05 0 -4.22605e-05 -2.32631e-05 0 -4.71625e-05 -2.08101e-05 0 -5.13785e-05 -1.81067e-05 0 -5.48836e-05 -1.52771e-05 0 -5.76971e-05 -1.24187e-05 0 -5.98604e-05 -9.59488e-06 0 -6.14217e-05 -6.83837e-06 0 -6.24247e-05 -4.15828e-06 0 -6.29034e-05 -1.54774e-06 0 -6.28792e-05 1.0089e-06 0 -6.23594e-05 3.52954e-06 0 -6.13379e-05 6.02792e-06 0 -5.97966e-05 8.50711e-06 0 -5.77086e-05 1.09524e-05 0 -5.50447e-05 1.33236e-05 0 -5.17843e-05 1.55487e-05 0 -4.79323e-05 1.75205e-05 0 -4.35412e-05 1.91042e-05 0 -3.87311e-05 2.01585e-05 0 -3.36951e-05 2.05767e-05 0 -2.86695e-05 2.03364e-05 0 -2.38817e-05 1.94911e-05 0 -1.95066e-05 1.818e-05 0 -1.56391e-05 1.65611e-05 0 -1.23071e-05 1.47899e-05 0 0 -2.31411e-05 0 -5.95907e-06 -2.30889e-05 0 -1.19294e-05 -2.29144e-05 0 -1.79009e-05 -2.25627e-05 0 -2.38242e-05 -2.19617e-05 0 -2.9609e-05 -2.10504e-05 0 -3.51312e-05 -1.97952e-05 0 -4.02597e-05 -1.82129e-05 0 -4.48837e-05 -1.63577e-05 0 -4.89276e-05 -1.43066e-05 0 -5.23548e-05 -1.21399e-05 0 -5.51603e-05 -9.92519e-06 0 -5.73595e-05 -7.71163e-06 0 -5.89775e-05 -5.52893e-06 0 -6.00409e-05 -3.39046e-06 0 -6.05728e-05 -1.29778e-06 0 -6.05896e-05 7.54346e-07 0 -6.00995e-05 2.77294e-06 0 -5.91031e-05 4.76177e-06 0 -5.75947e-05 6.71638e-06 0 -5.55662e-05 8.61917e-06 0 -5.30127e-05 1.0435e-05 0 -4.99408e-05 1.21083e-05 0 -4.63801e-05 1.35644e-05 0 -4.23946e-05 1.47164e-05 0 -3.80902e-05 1.54811e-05 0 -3.36121e-05 1.58006e-05 0 -2.91281e-05 1.56585e-05 0 -2.48023e-05 1.50947e-05 0 -2.07658e-05 1.41867e-05 0 -1.71071e-05 1.30351e-05 0 -1.38684e-05 1.17435e-05 0 0 -1.72359e-05 0 -5.85046e-06 -1.71839e-05 0 -1.16831e-05 -1.70195e-05 0 -1.74673e-05 -1.67124e-05 0 -2.31511e-05 -1.62246e-05 0 -2.86583e-05 -1.55226e-05 0 -3.38965e-05 -1.45921e-05 0 -3.87694e-05 -1.34414e-05 0 -4.31913e-05 -1.21024e-05 0 -4.70979e-05 -1.06214e-05 0 -5.04497e-05 -9.04811e-06 0 -5.32298e-05 -7.42763e-06 0 -5.54381e-05 -5.7949e-06 0 -5.70848e-05 -4.1733e-06 0 -5.81849e-05 -2.57569e-06 0 -5.87534e-05 -1.00695e-06 0 -5.8803e-05 5.32832e-07 0 -5.83426e-05 2.04479e-06 0 -5.73776e-05 3.52776e-06 0 -5.59116e-05 4.97481e-06 0 -5.39495e-05 6.37006e-06 0 -5.15018e-05 7.68632e-06 0 -4.85915e-05 8.88426e-06 0 -4.52599e-05 9.91428e-06 0 -4.15735e-05 1.07222e-05 0 -3.76254e-05 1.12586e-05 0 -3.35325e-05 1.14904e-05 0 -2.94234e-05 1.14114e-05 0 -2.54229e-05 1.10432e-05 0 -2.1638e-05 1.04341e-05 0 -1.8147e-05 9.64582e-06 0 -1.49972e-05 8.74589e-06 0 0 -1.14272e-05 0 -5.75689e-06 -1.13875e-05 0 -1.14803e-05 -1.12647e-05 0 -1.71293e-05 -1.10433e-05 0 -2.26501e-05 -1.07036e-05 0 -2.79759e-05 -1.02295e-05 0 -3.30302e-05 -9.61345e-06 0 -3.77352e-05 -8.86132e-06 0 -4.20202e-05 -7.99084e-06 0 -4.58285e-05 -7.02811e-06 0 -4.91205e-05 -6.00229e-06 0 -5.18737e-05 -4.94065e-06 0 -5.40795e-05 -3.8654e-06 0 -5.57393e-05 -2.79237e-06 0 -5.68603e-05 -1.73126e-06 0 -5.74525e-05 -6.86903e-07 0 -5.7526e-05 3.38798e-07 0 -5.70901e-05 1.34472e-06 0 -5.61538e-05 2.3283e-06 0 -5.47265e-05 3.28335e-06 0 -5.28213e-05 4.19826e-06 0 -5.04584e-05 5.05482e-06 0 -4.76693e-05 5.82811e-06 0 -4.45012e-05 6.48811e-06 0 -4.10196e-05 7.00323e-06 0 -3.73091e-05 7.34577e-06 0 -3.34688e-05 7.49796e-06 0 -2.96052e-05 7.45639e-06 0 -2.58219e-05 7.23444e-06 0 -2.22097e-05 6.85925e-06 0 -1.88397e-05 6.36695e-06 0 -1.57601e-05 5.79804e-06 0 0 -5.69352e-06 0 -5.69508e-06 -5.67233e-06 0 -1.13491e-05 -5.60747e-06 0 -1.69161e-05 -5.49237e-06 0 -2.2342e-05 -5.3189e-06 0 -2.75641e-05 -5.08019e-06 0 -3.25141e-05 -4.77354e-06 0 -3.71234e-05 -4.40162e-06 0 -4.1329e-05 -3.9725e-06 0 -4.50783e-05 -3.49806e-06 0 -4.83325e-05 -2.99173e-06 0 -5.10665e-05 -2.46637e-06 0 -5.32675e-05 -1.93274e-06 0 -5.49322e-05 -1.39876e-06 0 -5.60638e-05 -8.69578e-07 0 -5.66693e-05 -3.48057e-07 0 -5.67573e-05 1.64325e-07 0 -5.63376e-05 6.66463e-07 0 -5.54209e-05 1.15655e-06 0 -5.402e-05 1.63107e-06 0 -5.21527e-05 2.08395e-06 0 -4.98439e-05 2.50611e-06 0 -4.71296e-05 2.88552e-06 0 -4.40593e-05 3.20803e-06 0 -4.06977e-05 3.45913e-06 0 -3.71237e-05 3.62634e-06 0 -3.34276e-05 3.70177e-06 0 -2.97041e-05 3.68425e-06 0 -2.60456e-05 3.57975e-06 0 -2.25344e-05 3.40086e-06 0 -1.92372e-05 3.16416e-06 0 -1.62021e-05 2.8887e-06 0 0 -0 0 -5.67322e-06 -0 0 -1.13031e-05 -0 0 -1.68423e-05 -0 0 -2.22363e-05 -0 0 -2.74241e-05 -0 0 -3.23397e-05 -0 0 -3.69173e-05 -0 0 -4.10964e-05 -0 0 -4.48257e-05 -0 0 -4.80668e-05 -0 0 -5.07938e-05 -0 0 -5.29926e-05 -0 0 -5.46585e-05 -0 0 -5.57934e-05 -0 0 -5.64032e-05 -0 0 -5.64963e-05 -0 0 -5.60823e-05 -0 0 -5.51726e-05 -0 0 -5.37812e-05 -0 0 -5.19273e-05 -0 0 -4.96374e-05 -0 0 -4.69489e-05 -0 0 -4.39117e-05 -0 0 -4.05902e-05 -0 0 -3.70616e-05 -0 0 -3.34131e-05 -0 0 -2.9736e-05 -0 0 -2.61189e-05 -0 0 -2.26415e-05 -0 0 -1.93691e-05 -0 0 -1.63494e-05 -0 0 </DataArray> 
</PointData> 
<Points> 
<DataArray type="Float32" NumberOfComponents="3"> 