<?xml version="1.0"?> 
<VTKFile type="StructuredGrid" version="0.1"> 
<StructuredGrid WholeExtent="0 31 0 31 0 0"> 
<Piece Extent="0 31 0 31 0 0"> 
<PointData>
<DataArray type="Float32" Name="B" format="ascii" NumberOfComponents="3"> 
0 -0 0 -3.82157e-07 -0 0 -7.62606e-07 -0 0 -1.13966e-06 -0 0 -1.51164e-06 -0 0 -1.87694e-06 -0 0 -2.23399e-06 -0 0 -2.58129e-06 -0 0 -2.91741e-06 -0 0 -3.24103e-06 -0 0 -3.5509e-06 -0 0 -3.84589e-06 -0 0 -4.12498e-06 -0 0 -4.38722e-06 -0 0 -4.63183e-06 -0 0 -4.85809e-06 -0 0 -5.0654e-06 -0 0 -5.25326e-06 -0 0 -5.42126e-06 -0 0 -5.56906e-06 -0 0 -5.6964e-06 -0 0 -5.80306e-06 -0 0 -5.88889e-06 -0 0 -5.95376e-06 -0 0 -5.99755e-06 -0 0 -6.02019e-06 -0 0 -6.02161e-06 -0 0 -6.00175e-06 -0 0 -5.96058e-06 -0 0 -5.89811e-06 -0 0 -5.81439e-06 -0 0 -5.70955e-06 -0 0 0 2.55171e-07 0 -3.82548e-07 2.54584e-07 0 -7.63384e-07 2.52862e-07 0 -1.14081e-06 2.5002e-07 0 -1.51317e-06 2.46082e-07 0 -1.87883e-06 2.4108e-07 0 -2.23622e-06 2.35056e-07 0 -2.58385e-06 2.28058e-07 0 -2.92028e-06 2.20141e-07 0 -3.24418e-06 2.11368e-07 0 -3.55431e-06 2.01804e-07 0 -3.84954e-06 1.91518e-07 0 -4.12883e-06 1.80584e-07 0 -4.39126e-06 1.69073e-07 0 -4.63603e-06 1.57059e-07 0 -4.86243e-06 1.44611e-07 0 -5.06985e-06 1.31797e-07 0 -5.25781e-06 1.18679e-07 0 -5.42588e-06 1.05313e-07 0 -5.57374e-06 9.175e-08 0 -5.70113e-06 7.80304e-08 0 -5.80783e-06 6.41885e-08 0 -5.89369e-06 5.02505e-08 0 -5.95858e-06 3.62359e-08 0 -6.00239e-06 2.21587e-08 0 -6.02505e-06 8.02979e-09 0 -6.02647e-06 -6.14071e-09 0 -6.00662e-06 -2.03402e-08 0 -5.96545e-06 -3.45508e-08 0 -5.90297e-06 -4.8746e-08 0 -5.81923e-06 -6.28896e-08 0 -5.71434e-06 -7.69304e-08 0 0 5.1085e-07 0 -3.83698e-07 5.09673e-07 0 -7.65676e-07 5.06223e-07 0 -1.14423e-06 5.00528e-07 0 -1.51768e-06 4.92637e-07 0 -1.8844e-06 4.82616e-07 0 -2.2428e-06 4.70546e-07 0 -2.59138e-06 4.56525e-07 0 -2.92871e-06 4.40665e-07 0 -3.25344e-06 4.23089e-07 0 -3.56434e-06 4.03929e-07 0 -3.86026e-06 3.83326e-07 0 -4.14017e-06 3.61425e-07 0 -4.40315e-06 3.38371e-07 0 -4.64839e-06 3.1431e-07 0 -4.87519e-06 2.89384e-07 0 -5.08296e-06 2.63728e-07 0 -5.27119e-06 2.37467e-07 0 -5.43948e-06 2.10714e-07 0 -5.58752e-06 1.83569e-07 0 -5.71504e-06 1.56115e-07 0 -5.82185e-06 1.28419e-07 0 -5.9078e-06 1.00535e-07 0 -5.97275e-06 7.24994e-08 0 -6.01663e-06 4.43404e-08 0 -6.03933e-06 1.60781e-08 0 -6.04079e-06 -1.22683e-08 0 -6.02096e-06 -4.06753e-08 0 -5.97979e-06 -6.91082e-08 0 -5.91728e-06 -9.7515e-08 0 -5.83346e-06 -1.25824e-07 0 -5.72844e-06 -1.53933e-07 0 0 7.67546e-07 0 -3.85614e-07 7.65776e-07 0 -7.69491e-07 7.60584e-07 0 -1.14991e-06 7.52016e-07 0 -1.52518e-06 7.40143e-07 0 -1.89365e-06 7.25064e-07 0 -2.25374e-06 7.06905e-07 0 -2.60391e-06 6.85812e-07 0 -2.94274e-06 6.61953e-07 0 -3.26886e-06 6.35515e-07 0 -3.58103e-06 6.06698e-07 0 -3.8781e-06 5.75712e-07 0 -4.15904e-06 5.42778e-07 0 -4.42293e-06 5.08116e-07 0 -4.66895e-06 4.71946e-07 0 -4.89642e-06 4.34482e-07 0 -5.10474e-06 3.95928e-07 0 -5.29342e-06 3.56474e-07 0 -5.46209e-06 3.16289e-07 0 -5.61041e-06 2.75524e-07 0 -5.73816e-06 2.34305e-07 0 -5.84514e-06 1.92733e-07 0 -5.93123e-06 1.50885e-07 0 -5.9963e-06 1.08817e-07 0 -6.04026e-06 6.65677e-08 0 -6.06304e-06 2.4164e-08 0 -6.06457e-06 -1.83687e-08 0 -6.04477e-06 -6.09983e-08 0 -6.00361e-06 -1.03676e-07 0 -5.94105e-06 -1.46328e-07 0 -5.85711e-06 -1.88846e-07 0 -5.75188e-06 -2.31078e-07 0 0 1.02577e-06 0 -3.88301e-07 1.0234e-06 0 -7.74842e-07 1.01645e-06 0 -1.15788e-06 1.00498e-06 0 -1.5357e-06 9.89077e-07 0 -1.90664e-06 9.68887e-07 0 -2.26909e-06 9.44572e-07 0 -2.6215e-06 9.16332e-07 0 -2.96242e-06 8.84391e-07 0 -3.29048e-06 8.49002e-07 0 -3.60443e-06 8.10432e-07 0 -3.90311e-06 7.68967e-07 0 -4.18549e-06 7.24901e-07 0 -4.45064e-06 6.78533e-07 0 -4.69775e-06 6.30158e-07 0 -4.92615e-06 5.80065e-07 0 -5.13524e-06 5.28528e-07 0 -5.32456e-06 4.75803e-07 0 -5.49372e-06 4.2212e-07 0 -5.64244e-06 3.6768e-07 0 -5.7705e-06 3.12651e-07 0 -5.87772e-06 2.57168e-07 0 -5.96399e-06 2.01333e-07 0 -6.02921e-06 1.45215e-07 0 -6.0733e-06 8.88633e-08 0 -6.09619e-06 3.23075e-08 0 -6.09781e-06 -2.44252e-08 0 -6.07808e-06 -8.1299e-08 0 -6.03693e-06 -1.38255e-07 0 -5.97432e-06 -1.95199e-07 0 -5.89023e-06 -2.51992e-07 0 -5.7847e-06 -3.0843e-07 0 0 1.28605e-06 0 -3.9177e-07 1.28307e-06 0 -7.81751e-07 1.27433e-06 0 -1.16817e-06 1.25991e-06 0 -1.54929e-06 1.23992e-06 0 -1.92341e-06 1.21455e-06 0 -2.28889e-06 1.18399e-06 0 -2.64419e-06 1.1485e-06 0 -2.98781e-06 1.10837e-06 0 -3.31838e-06 1.06391e-06 0 -3.63462e-06 1.01546e-06 0 -3.93537e-06 9.6338e-07 0 -4.2196e-06 9.0805e-07 0 -4.48637e-06 8.49842e-07 0 -4.73488e-06 7.89133e-07 0 -4.96446e-06 7.26288e-07 0 -5.17453e-06 6.61655e-07 0 -5.36464e-06 5.95558e-07 0 -5.53444e-06 5.28286e-07 0 -5.68365e-06 4.60096e-07 0 -5.81209e-06 3.91197e-07 0 -5.9196e-06 3.21758e-07 0 -6.00609e-06 2.51904e-07 0 -6.0715e-06 1.81717e-07 0 -6.11575e-06 1.11249e-07 0 -6.13879e-06 4.05299e-08 0 -6.14053e-06 -3.04182e-08 0 -6.1209e-06 -1.01562e-07 0 -6.07979e-06 -1.72839e-07 0 -6.01713e-06 -2.44138e-07 0 -5.93286e-06 -3.15293e-07 0 -5.827e-06 -3.86048e-07 0 0 1.5489e-06 0 -3.96034e-07 1.5453e-06 0 -7.90242e-07 1.53474e-06 0 -1.18082e-06 1.51732e-06 0 -1.56598e-06 1.49317e-06 0 -1.94401e-06 1.46252e-06 0 -2.31323e-06 1.4256e-06 0 -2.67206e-06 1.38274e-06 0 -3.019e-06 1.33427e-06 0 -3.35264e-06 1.28059e-06 0 -3.67169e-06 1.2221e-06 0 -3.97498e-06 1.15924e-06 0 -4.26146e-06 1.09248e-06 0 -4.53021e-06 1.02226e-06 0 -4.78042e-06 9.49059e-07 0 -5.01143e-06 8.73306e-07 0 -5.22269e-06 7.95432e-07 0 -5.41376e-06 7.15832e-07 0 -5.58431e-06 6.34859e-07 0 -5.7341e-06 5.52823e-07 0 -5.86297e-06 4.6998e-07 0 -5.97081e-06 3.86531e-07 0 -6.05757e-06 3.02621e-07 0 -6.12319e-06 2.18342e-07 0 -6.16763e-06 1.33746e-07 0 -6.19084e-06 4.88544e-08 0 -6.19275e-06 -3.63229e-08 0 -6.17325e-06 -1.21763e-07 0 -6.13222e-06 -2.07409e-07 0 -6.06953e-06 -2.93141e-07 0 -5.98509e-06 -3.78766e-07 0 -5.87884e-06 -4.6398e-07 0 0 1.81487e-06 0 -4.01109e-07 1.81064e-06 0 -8.00349e-07 1.79822e-06 0 -1.19587e-06 1.77772e-06 0 -1.58585e-06 1.74933e-06 0 -1.96853e-06 1.71328e-06 0 -2.34219e-06 1.66987e-06 0 -2.70523e-06 1.61948e-06 0 -3.0561e-06 1.5625e-06 0 -3.39339e-06 1.49941e-06 0 -3.71577e-06 1.43068e-06 0 -4.02207e-06 1.35685e-06 0 -4.31122e-06 1.27844e-06 0 -4.58229e-06 1.19602e-06 0 -4.8345e-06 1.11012e-06 0 -5.06719e-06 1.02127e-06 0 -5.27982e-06 9.29976e-07 0 -5.47199e-06 8.36713e-07 0 -5.64339e-06 7.41901e-07 0 -5.79383e-06 6.45906e-07 0 -5.92319e-06 5.4903e-07 0 -6.03139e-06 4.51506e-07 0 -6.11842e-06 3.53498e-07 0 -6.18427e-06 2.55107e-07 0 -6.22893e-06 1.56375e-07 0 -6.25235e-06 5.73066e-08 0 -6.25447e-06 -4.21088e-08 0 -6.23516e-06 -1.41871e-07 0 -6.19426e-06 -2.41938e-07 0 -6.1316e-06 -3.4219e-07 0 -6.04701e-06 -4.42416e-07 0 -5.94036e-06 -5.42261e-07 0 0 2.0845e-06 0 -4.07015e-07 2.07962e-06 0 -8.1211e-07 2.06529e-06 0 -1.21338e-06 2.04165e-06 0 -1.60897e-06 2.00889e-06 0 -1.99705e-06 1.96731e-06 0 -2.37588e-06 1.91725e-06 0 -2.7438e-06 1.85915e-06 0 -3.09925e-06 1.79346e-06 0 -3.44076e-06 1.72074e-06 0 -3.767e-06 1.64154e-06 0 -4.07677e-06 1.55649e-06 0 -4.369e-06 1.4662e-06 0 -4.64276e-06 1.37132e-06 0 -4.89726e-06 1.27248e-06 0 -5.13186e-06 1.17031e-06 0 -5.34604e-06 1.06539e-06 0 -5.53944e-06 9.58281e-07 0 -5.71179e-06 8.49466e-07 0 -5.86294e-06 7.39377e-07 0 -5.9928e-06 6.28363e-07 0 -6.10137e-06 5.16691e-07 0 -6.18868e-06 4.04544e-07 0 -6.25477e-06 2.92021e-07 0 -6.29965e-06 1.79151e-07 0 -6.32332e-06 6.5914e-08 0 -6.3257e-06 -4.77381e-08 0 -6.30665e-06 -1.61841e-07 0 -6.26597e-06 -2.7638e-07 0 -6.20341e-06 -3.9125e-07 0 -6.11873e-06 -5.06226e-07 0 -6.0117e-06 -6.20908e-07 0 0 2.35836e-06 0 -4.13775e-07 2.3528e-06 0 -8.2557e-07 2.33651e-06 0 -1.23343e-06 2.30963e-06 0 -1.63542e-06 2.27239e-06 0 -2.02968e-06 2.22512e-06 0 -2.41442e-06 2.16823e-06 0 -2.78793e-06 2.10219e-06 0 -3.14859e-06 2.02756e-06 0 -3.49492e-06 1.94495e-06 0 -3.82556e-06 1.85502e-06 0 -4.13928e-06 1.75846e-06 0 -4.435e-06 1.656e-06 0 -4.71178e-06 1.54838e-06 0 -4.96886e-06 1.43634e-06 0 -5.2056e-06 1.32057e-06 0 -5.42151e-06 1.20179e-06 0 -5.61625e-06 1.0806e-06 0 -5.78962e-06 9.57593e-07 0 -5.94149e-06 8.33254e-07 0 -6.07187e-06 7.07983e-07 0 -6.1808e-06 5.82083e-07 0 -6.26837e-06 4.55752e-07 0 -6.33468e-06 3.29086e-07 0 -6.37979e-06 2.02091e-07 0 -6.40374e-06 7.47068e-08 0 -6.40644e-06 -5.31639e-08 0 -6.38774e-06 -1.81611e-07 0 -6.34739e-06 -3.10668e-07 0 -6.28505e-06 -4.40258e-07 0 -6.20038e-06 -5.70156e-07 0 -6.09302e-06 -6.99916e-07 0 0 2.63702e-06 0 -4.21414e-07 2.63077e-06 0 -8.40781e-07 2.61245e-06 0 -1.25608e-06 2.58223e-06 0 -1.66531e-06 2.54036e-06 0 -2.06656e-06 2.48723e-06 0 -2.45796e-06 2.42328e-06 0 -2.83776e-06 2.34907e-06 0 -3.2043e-06 2.26522e-06 0 -3.55606e-06 2.17242e-06 0 -3.89164e-06 2.07144e-06 0 -4.20979e-06 1.96306e-06 0 -4.50941e-06 1.8481e-06 0 -4.78957e-06 1.72742e-06 0 -5.04951e-06 1.60184e-06 0 -5.28859e-06 1.47218e-06 0 -5.50638e-06 1.33924e-06 0 -5.70257e-06 1.20373e-06 0 -5.87699e-06 1.06631e-06 0 -6.0296e-06 9.27538e-07 0 -6.16047e-06 7.87877e-07 0 -6.26971e-06 6.47662e-07 0 -6.35749e-06 5.07104e-07 0 -6.42399e-06 3.66293e-07 0 -6.46933e-06 2.25202e-07 0 -6.49358e-06 8.37173e-08 0 -6.49668e-06 -5.83294e-08 0 -6.47845e-06 -2.01104e-07 0 -6.43857e-06 -3.44712e-07 0 -6.37662e-06 -4.89125e-07 0 -6.2921e-06 -6.34133e-07 0 -6.18453e-06 -7.7925e-07 0 0 2.92108e-06 0 -4.29963e-07 2.91412e-06 0 -8.57802e-07 2.8937e-06 0 -1.28142e-06 2.86001e-06 0 -1.69875e-06 2.81336e-06 0 -2.1078e-06 2.75415e-06 0 -2.50665e-06 2.6829e-06 0 -2.89348e-06 2.60024e-06 0 -3.26659e-06 2.50686e-06 0 -3.62439e-06 2.40355e-06 0 -3.96547e-06 2.29116e-06 0 -4.28853e-06 2.17058e-06 0 -4.59248e-06 2.04276e-06 0 -4.87636e-06 1.90863e-06 0 -5.13942e-06 1.76915e-06 0 -5.38105e-06 1.62525e-06 0 -5.60085e-06 1.47783e-06 0 -5.79855e-06 1.3277e-06 0 -5.97405e-06 1.17561e-06 0 -6.12738e-06 1.02221e-06 0 -6.25867e-06 8.6801e-07 0 -6.36814e-06 7.13385e-07 0 -6.45606e-06 5.58563e-07 0 -6.52269e-06 4.03621e-07 0 -6.56823e-06 2.48488e-07 0 -6.59281e-06 9.2979e-08 0 -6.59639e-06 -6.3166e-08 0 -6.57876e-06 -2.20219e-07 0 -6.53955e-06 -3.78388e-07 0 -6.4782e-06 -5.37721e-07 0 -6.39406e-06 -6.98042e-07 0 -6.28645e-06 -8.58836e-07 0 0 3.21116e-06 0 -4.39455e-07 3.20346e-06 0 -8.76702e-07 3.18086e-06 0 -1.30956e-06 3.14358e-06 0 -1.73588e-06 3.09195e-06 0 -2.15359e-06 3.02644e-06 0 -2.56069e-06 2.94762e-06 0 -2.95531e-06 2.85618e-06 0 -3.33568e-06 2.75293e-06 0 -3.70017e-06 2.63873e-06 0 -4.0473e-06 2.51453e-06 0 -4.37578e-06 2.38134e-06 0 -4.68446e-06 2.24022e-06 0 -4.9724e-06 2.09222e-06 0 -5.23885e-06 1.93843e-06 0 -5.48322e-06 1.77989e-06 0 -5.70514e-06 1.61762e-06 0 -5.9044e-06 1.45254e-06 0 -6.08096e-06 1.2855e-06 0 -6.23494e-06 1.11723e-06 0 -6.36656e-06 9.48322e-07 0 -6.47615e-06 7.79186e-07 0 -6.56409e-06 6.10069e-07 0 -6.63074e-06 4.41027e-07 0 -6.67643e-06 2.71938e-07 0 -6.70135e-06 1.02525e-07 0 -6.70549e-06 -6.75924e-08 0 -6.68865e-06 -2.38829e-07 0 -6.65036e-06 -4.11531e-07 0 -6.58991e-06 -5.85865e-07 0 -6.50645e-06 -7.61719e-07 0 -6.39906e-06 -9.38554e-07 0 0 3.50791e-06 0 -4.49928e-07 3.49943e-06 0 -8.97554e-07 3.47456e-06 0 -1.3406e-06 3.43354e-06 0 -1.77683e-06 3.37673e-06 0 -2.20408e-06 3.30465e-06 0 -2.62029e-06 3.21795e-06 0 -3.02348e-06 3.1174e-06 0 -3.41183e-06 3.00388e-06 0 -3.78365e-06 2.87836e-06 0 -4.13743e-06 2.7419e-06 0 -4.47182e-06 2.59563e-06 0 -4.78566e-06 2.44073e-06 0 -5.07801e-06 2.2784e-06 0 -5.34809e-06 2.10982e-06 0 -5.59538e-06 1.93619e-06 0 -5.81951e-06 1.75864e-06 0 -6.02034e-06 1.57824e-06 0 -6.19791e-06 1.39592e-06 0 -6.35243e-06 1.21253e-06 0 -6.48423e-06 1.02872e-06 0 -6.59377e-06 8.44969e-07 0 -6.68156e-06 6.61532e-07 0 -6.7481e-06 4.78447e-07 0 -6.79385e-06 2.95529e-07 0 -6.81909e-06 1.12387e-07 0 -6.8239e-06 -7.1514e-08 0 -6.80805e-06 -2.56773e-07 0 -6.77099e-06 -4.43931e-07 0 -6.71183e-06 -6.33319e-07 0 -6.62947e-06 -8.24929e-07 0 -6.52268e-06 -1.01822e-06 0 0 3.81199e-06 0 -4.61425e-07 3.8027e-06 0 -9.20442e-07 3.77546e-06 0 -1.37467e-06 3.73053e-06 0 -1.82177e-06 3.66831e-06 0 -2.25949e-06 3.58939e-06 0 -2.68566e-06 3.49447e-06 0 -3.09825e-06 3.3844e-06 0 -3.49533e-06 3.26017e-06 0 -3.87517e-06 3.12286e-06 0 -4.23618e-06 2.97364e-06 0 -4.577e-06 2.81378e-06 0 -4.89643e-06 2.64456e-06 0 -5.1935e-06 2.46734e-06 0 -5.46748e-06 2.28346e-06 0 -5.71782e-06 2.09423e-06 0 -5.94423e-06 1.90094e-06 0 -6.14662e-06 1.70477e-06 0 -6.32511e-06 1.50682e-06 0 -6.48001e-06 1.308e-06 0 -6.61179e-06 1.10909e-06 0 -6.72105e-06 9.10598e-07 0 -6.80845e-06 7.12826e-07 0 -6.87469e-06 5.15785e-07 0 -6.92036e-06 3.19214e-07 0 -6.9459e-06 1.22588e-07 0 -6.95147e-06 -7.48228e-08 0 -6.93685e-06 -2.73857e-07 0 -6.90141e-06 -4.75315e-07 0 -6.84405e-06 -6.79764e-07 0 -6.76335e-06 -8.87354e-07 0 -6.65767e-06 -1.09757e-06 0 0 4.12411e-06 0 -4.73993e-07 4.11397e-06 0 -9.45461e-07 4.08425e-06 0 -1.41191e-06 4.03522e-06 0 -1.87089e-06 3.96735e-06 0 -2.32003e-06 3.88126e-06 0 -2.75708e-06 3.77773e-06 0 -3.1799e-06 3.65772e-06 0 -3.5865e-06 3.5223e-06 0 -3.97505e-06 3.37267e-06 0 -4.34392e-06 3.21014e-06 0 -4.69168e-06 3.03608e-06 0 -5.01713e-06 2.85196e-06 0 -5.31927e-06 2.65926e-06 0 -5.59737e-06 2.45947e-06 0 -5.85091e-06 2.25408e-06 0 -6.07963e-06 2.04451e-06 0 -6.28352e-06 1.8321e-06 0 -6.46279e-06 1.61808e-06 0 -6.61787e-06 1.40351e-06 0 -6.74936e-06 1.18924e-06 0 -6.85803e-06 9.75893e-07 0 -6.94475e-06 7.6378e-07 0 -7.0104e-06 5.52903e-07 0 -7.05579e-06 3.42916e-07 0 -7.08155e-06 1.33138e-07 0 -7.08797e-06 -7.73996e-08 0 -7.07488e-06 -2.89843e-07 0 -7.04154e-06 -5.05339e-07 0 -6.98664e-06 -7.24782e-07 0 -6.90831e-06 -9.48563e-07 0 -6.80444e-06 -1.17622e-06 0 0 4.445e-06 0 -4.87682e-07 4.43397e-06 0 -9.72711e-07 4.40164e-06 0 -1.45246e-06 4.34832e-06 0 -1.92437e-06 4.2745e-06 0 -2.38595e-06 4.18089e-06 0 -2.83483e-06 4.06835e-06 0 -3.26877e-06 3.93791e-06 0 -3.68568e-06 3.79076e-06 0 -4.08367e-06 3.62824e-06 0 -4.46104e-06 3.45176e-06 0 -4.81629e-06 3.26288e-06 0 -5.14819e-06 3.06318e-06 0 -5.45573e-06 2.85433e-06 0 -5.73817e-06 2.63798e-06 0 -5.99502e-06 2.41578e-06 0 -6.22607e-06 2.18933e-06 0 -6.43137e-06 1.96013e-06 0 -6.61123e-06 1.72958e-06 0 -6.7662e-06 1.49886e-06 0 -6.89706e-06 1.26898e-06 0 -7.00476e-06 1.04062e-06 0 -7.09039e-06 8.14167e-07 0 -7.15509e-06 5.89609e-07 0 -7.19992e-06 3.66516e-07 0 -7.22577e-06 1.44025e-07 0 -7.2331e-06 -7.91179e-08 0 -7.22186e-06 -3.04448e-07 0 -7.19123e-06 -5.33569e-07 0 -7.1396e-06 -7.6783e-07 0 -7.06463e-06 -1.00798e-06 0 -6.96352e-06 -1.25369e-06 0 0 4.77542e-06 0 -5.0255e-07 4.76345e-06 0 -1.00231e-06 4.72838e-06 0 -1.49651e-06 4.67054e-06 0 -1.98245e-06 4.59049e-06 0 -2.45752e-06 4.48897e-06 0 -2.91922e-06 4.36694e-06 0 -3.36521e-06 4.22555e-06 0 -3.79328e-06 4.06609e-06 0 -4.20147e-06 3.89002e-06 0 -4.58798e-06 3.69892e-06 0 -4.95128e-06 3.49449e-06 0 -5.29008e-06 3.27848e-06 0 -5.60335e-06 3.05274e-06 0 -5.89035e-06 2.81909e-06 0 -6.1506e-06 2.57937e-06 0 -6.38396e-06 2.33536e-06 0 -6.59053e-06 2.08876e-06 0 -6.77073e-06 1.84113e-06 0 -6.92525e-06 1.59383e-06 0 -7.05505e-06 1.34801e-06 0 -7.16129e-06 1.10448e-06 0 -7.24533e-06 8.6369e-07 0 -7.30859e-06 6.25644e-07 0 -7.35247e-06 3.89833e-07 0 -7.37817e-06 1.55198e-07 0 -7.38645e-06 -7.98528e-08 0 -7.37741e-06 -3.17339e-07 0 -7.3502e-06 -5.59463e-07 0 -7.3029e-06 -8.08205e-07 0 -7.23255e-06 -1.06484e-06 0 -7.13547e-06 -1.32925e-06 0 0 5.11618e-06 0 -5.18659e-07 5.10324e-06 0 -1.03437e-06 5.06527e-06 0 -1.54422e-06 5.00267e-06 0 -2.04536e-06 4.91603e-06 0 -2.53503e-06 4.80619e-06 0 -3.0106e-06 4.67417e-06 0 -3.4696e-06 4.52124e-06 0 -3.90973e-06 4.34882e-06 0 -4.3289e-06 4.1585e-06 0 -4.72524e-06 3.95202e-06 0 -5.09717e-06 3.73125e-06 0 -5.44332e-06 3.49813e-06 0 -5.76265e-06 3.25466e-06 0 -6.05441e-06 3.00289e-06 0 -6.31815e-06 2.74486e-06 0 -6.55375e-06 2.48254e-06 0 -6.7614e-06 2.21784e-06 0 -6.94164e-06 1.95251e-06 0 -7.09529e-06 1.68813e-06 0 -7.2235e-06 1.426e-06 0 -7.32769e-06 1.16709e-06 0 -7.40949e-06 9.11966e-07 0 -7.47068e-06 6.60661e-07 0 -7.51307e-06 4.12608e-07 0 -7.53827e-06 1.66547e-07 0 -7.54744e-06 -7.94963e-08 0 -7.54097e-06 -3.28133e-07 0 -7.51804e-06 -5.8235e-07 0 -7.4764e-06 -8.44996e-07 0 -7.41233e-06 -1.11811e-06 0 -7.32099e-06 -1.40198e-06 0 0 5.46815e-06 0 -5.36077e-07 5.45416e-06 0 -1.06904e-06 5.41315e-06 0 -1.5958e-06 5.34552e-06 0 -2.11336e-06 5.25193e-06 0 -2.6188e-06 5.13329e-06 0 -3.10935e-06 4.99073e-06 0 -3.58238e-06 4.82562e-06 0 -4.03549e-06 4.63952e-06 0 -4.46647e-06 4.43418e-06 0 -4.87337e-06 4.2115e-06 0 -5.2545e-06 3.97352e-06 0 -5.60848e-06 3.72238e-06 0 -5.93421e-06 3.46029e-06 0 -6.23093e-06 3.18949e-06 0 -6.4982e-06 2.91225e-06 0 -6.73596e-06 2.63077e-06 0 -6.94447e-06 2.34718e-06 0 -7.12437e-06 2.06346e-06 0 -7.27664e-06 1.78141e-06 0 -7.40264e-06 1.50253e-06 0 -7.50403e-06 1.228e-06 0 -7.5828e-06 9.58511e-07 0 -7.64112e-06 6.94199e-07 0 -7.68128e-06 4.34468e-07 0 -7.70544e-06 1.77872e-07 0 -7.71533e-06 -7.79821e-08 0 -7.71175e-06 -3.36412e-07 0 -7.6941e-06 -6.0141e-07 0 -7.65982e-06 -8.77029e-07 0 -7.6042e-06 -1.16645e-06 0 -7.52091e-06 -1.47059e-06 0 0 5.83222e-06 0 -5.5488e-07 5.81712e-06 0 -1.10646e-06 5.77288e-06 0 -1.65148e-06 5.69993e-06 0 -2.18675e-06 5.59899e-06 0 -2.70919e-06 5.47105e-06 0 -3.21587e-06 5.31734e-06 0 -3.70402e-06 5.13936e-06 0 -4.17108e-06 4.93881e-06 0 -4.61474e-06 4.7176e-06 0 -5.03294e-06 4.47781e-06 0 -5.42391e-06 4.22166e-06 0 -5.78619e-06 3.95151e-06 0 -6.11866e-06 3.66978e-06 0 -6.42053e-06 3.37896e-06 0 -6.69138e-06 3.08153e-06 0 -6.93118e-06 2.77994e-06 0 -7.14026e-06 2.47657e-06 0 -7.31938e-06 2.17366e-06 0 -7.46968e-06 1.87325e-06 0 -7.59271e-06 1.5771e-06 0 -7.69044e-06 1.28662e-06 0 -7.76519e-06 1.00272e-06 0 -7.81961e-06 7.2566e-07 0 -7.85657e-06 4.54895e-07 0 -7.87892e-06 1.88837e-07 0 -7.88912e-06 -7.53281e-08 0 -7.8887e-06 -3.41734e-07 0 -7.87745e-06 -6.15651e-07 0 -7.85261e-06 -9.02787e-07 0 -7.80834e-06 -1.20801e-06 0 -7.73623e-06 -1.53332e-06 0 0 6.20933e-06 0 -5.75148e-07 6.19307e-06 0 -1.1468e-06 6.14541e-06 0 -1.71149e-06 6.06682e-06 0 -2.26584e-06 5.95809e-06 0 -2.80659e-06 5.82029e-06 0 -3.33063e-06 5.65478e-06 0 -3.83502e-06 5.46317e-06 0 -4.31707e-06 5.24731e-06 0 -4.77433e-06 5.0093e-06 0 -5.20461e-06 4.7514e-06 0 -5.60607e-06 4.47604e-06 0 -5.97716e-06 4.1858e-06 0 -6.31671e-06 3.88333e-06 0 -6.62392e-06 3.57137e-06 0 -6.89836e-06 3.25265e-06 0 -7.14004e-06 2.92989e-06 0 -7.34937e-06 2.60574e-06 0 -7.5272e-06 2.28272e-06 0 -7.67483e-06 1.96316e-06 0 -7.79404e-06 1.64912e-06 0 -7.88706e-06 1.34229e-06 0 -7.95662e-06 1.04384e-06 0 -8.00587e-06 7.54273e-07 0 -8.03835e-06 4.73177e-07 0 -8.05774e-06 1.98915e-07 0 -8.06755e-06 -7.17004e-08 0 -8.07033e-06 -3.43689e-07 0 -8.06669e-06 -6.23902e-07 0 -8.05388e-06 -9.20313e-07 0 -8.02479e-06 -1.24033e-06 0 -7.96816e-06 -1.58774e-06 0 0 6.60051e-06 0 -5.9697e-07 6.58301e-06 0 -1.19022e-06 6.53172e-06 0 -1.77609e-06 6.44715e-06 0 -2.35098e-06 6.33015e-06 0 -2.91142e-06 6.1819e-06 0 -3.45411e-06 6.00385e-06 0 -3.97596e-06 5.79778e-06 0 -4.47409e-06 5.5657e-06 0 -4.9459e-06 5.30987e-06 0 -5.3891e-06 5.03278e-06 0 -5.80172e-06 4.73706e-06 0 -6.18214e-06 4.42554e-06 0 -6.52914e-06 4.10112e-06 0 -6.84186e-06 3.76679e-06 0 -7.11991e-06 3.42556e-06 0 -7.36329e-06 3.08045e-06 0 -7.57248e-06 2.73439e-06 0 -7.74845e-06 2.39022e-06 0 -7.89263e-06 2.0506e-06 0 -8.00701e-06 1.71791e-06 0 -8.09412e-06 1.39418e-06 0 -8.15708e-06 1.08095e-06 0 -8.19959e-06 7.7906e-07 0 -8.22592e-06 4.88352e-07 0 -8.2408e-06 2.07302e-07 0 -8.24901e-06 -6.7513e-08 0 -8.25467e-06 -3.41984e-07 0 -8.25979e-06 -6.2483e-07 0 -8.26218e-06 -9.2709e-07 0 -8.25337e-06 -1.26002e-06 0 -8.21825e-06 -1.63044e-06 0 0 7.00683e-06 0 -6.20443e-07 6.98801e-06 0 -1.23693e-06 6.93286e-06 0 -1.84557e-06 6.84193e-06 0 -2.44253e-06 6.71615e-06 0 -3.02413e-06 6.55678e-06 0 -3.58686e-06 6.36543e-06 0 -4.12743e-06 6.14399e-06 0 -4.64279e-06 5.89467e-06 0 -5.13018e-06 5.61993e-06 0 -5.58717e-06 5.32246e-06 0 -6.01167e-06 5.00514e-06 0 -6.40198e-06 4.67103e-06 0 -6.75679e-06 4.32332e-06 0 -7.07522e-06 3.96527e-06 0 -7.35686e-06 3.6002e-06 0 -7.60173e-06 3.23142e-06 0 -7.81037e-06 2.86219e-06 0 -7.98382e-06 2.49569e-06 0 -8.12368e-06 2.13492e-06 0 -8.23212e-06 1.78267e-06 0 -8.31194e-06 1.44136e-06 0 -8.36665e-06 1.11298e-06 0 -8.40051e-06 7.98804e-07 0 -8.4186e-06 4.99146e-07 0 -8.4268e-06 2.12817e-07 0 -8.43154e-06 -6.35735e-08 0 -8.43907e-06 -3.36599e-07 0 -8.4538e-06 -6.17016e-07 0 -8.47511e-06 -9.19898e-07 0 -8.49345e-06 -1.26237e-06 0 -8.48836e-06 -1.65653e-06 0 0 7.42942e-06 0 -6.4567e-07 7.4092e-06 0 -1.28713e-06 7.34994e-06 0 -1.92023e-06 7.25225e-06 0 -2.5409e-06 7.11712e-06 0 -3.14522e-06 6.94593e-06 0 -3.72946e-06 6.74042e-06 0 -4.2901e-06 6.50264e-06 0 -4.82392e-06 6.23499e-06 0 -5.32797e-06 5.94013e-06 0 -5.79967e-06 5.62098e-06 0 -6.23681e-06 5.2807e-06 0 -6.63758e-06 4.92259e-06 0 -7.0006e-06 4.55013e-06 0 -7.32493e-06 4.16689e-06 0 -7.61014e-06 3.77649e-06 0 -7.85627e-06 3.38258e-06 0 -8.06389e-06 2.98877e-06 0 -8.23414e-06 2.59859e-06 0 -8.36871e-06 2.21544e-06 0 -8.46996e-06 1.84253e-06 0 -8.54094e-06 1.48275e-06 0 -8.58552e-06 1.13862e-06 0 -8.60848e-06 8.12016e-07 0 -8.61572e-06 5.03908e-07 0 -8.61435e-06 2.13778e-07 0 -8.61276e-06 -6.12878e-08 0 -8.62009e-06 -3.2806e-07 0 -8.64448e-06 -5.99165e-07 0 -8.68882e-06 -8.94701e-07 0 -8.74356e-06 -1.24072e-06 0 -8.78118e-06 -1.65881e-06 0 0 7.8695e-06 0 -6.72765e-07 7.84779e-06 0 -1.34105e-06 7.78415e-06 0 -2.00041e-06 7.67925e-06 0 -2.64653e-06 7.53417e-06 0 -3.27523e-06 7.35039e-06 0 -3.88253e-06 7.12979e-06 0 -4.46469e-06 6.87461e-06 0 -5.01826e-06 6.58744e-06 0 -5.54013e-06 6.27116e-06 0 -6.02753e-06 5.92894e-06 0 -6.47812e-06 5.5642e-06 0 -6.88996e-06 5.18055e-06 0 -7.26159e-06 4.78175e-06 0 -7.59203e-06 4.37169e-06 0 -7.88079e-06 3.95434e-06 0 -8.12792e-06 3.53369e-06 0 -8.33403e-06 3.11371e-06 0 -8.5003e-06 2.69834e-06 0 -8.62855e-06 2.29138e-06 0 -8.72126e-06 1.89651e-06 0 -8.7817e-06 1.51714e-06 0 -8.81404e-06 1.1564e-06 0 -8.8235e-06 8.16923e-07 0 -8.81673e-06 5.0056e-07 0 -8.80208e-06 2.0787e-07 0 -8.79005e-06 -6.29296e-08 0 -8.79337e-06 -3.1787e-07 0 -8.82577e-06 -5.70583e-07 0 -8.897e-06 -8.46621e-07 0 -9.00065e-06 -1.18545e-06 0 -9.09946e-06 -1.62623e-06 0 0 8.32836e-06 0 -7.0185e-07 8.30505e-06 0 -1.39892e-06 8.23675e-06 0 -2.08647e-06 8.12417e-06 0 -2.7599e-06 7.96847e-06 0 -3.41475e-06 7.77127e-06 0 -4.04677e-06 7.53459e-06 0 -4.65197e-06 7.26086e-06 0 -5.22669e-06 6.95287e-06 0 -5.76759e-06 6.61375e-06 0 -6.27174e-06 6.24695e-06 0 -6.73662e-06 5.85615e-06 0 -7.16019e-06 5.44526e-06 0 -7.54088e-06 5.01839e-06 0 -7.87763e-06 4.57975e-06 0 -8.16993e-06 4.13367e-06 0 -8.4178e-06 3.6845e-06 0 -8.62187e-06 3.23661e-06 0 -8.78337e-06 2.79433e-06 0 -8.90419e-06 2.36193e-06 0 -8.98693e-06 1.94356e-06 0 -9.03499e-06 1.54321e-06 0 -9.05276e-06 1.16468e-06 0 -9.04582e-06 8.11471e-07 0 -9.02136e-06 4.86565e-07 0 -8.98879e-06 1.92028e-07 0 -8.96064e-06 -7.19396e-08 0 -8.95367e-06 -3.09176e-07 0 -8.98925e-06 -5.32105e-07 0 -9.08925e-06 -7.70485e-07 0 -9.25823e-06 -1.08224e-06 0 -9.44939e-06 -1.54086e-06 0 0 8.80737e-06 0 -7.33058e-07 8.78236e-06 0 -1.46101e-06 8.70908e-06 0 -2.17881e-06 8.5883e-06 0 -2.88153e-06 8.42128e-06 0 -3.5644e-06 8.20975e-06 0 -4.22291e-06 7.95591e-06 0 -4.85279e-06 7.66238e-06 0 -5.45013e-06 7.33218e-06 0 -6.01137e-06 6.9687e-06 0 -6.53338e-06 6.57566e-06 0 -7.01348e-06 6.15705e-06 0 -7.44947e-06 5.71711e-06 0 -7.83969e-06 5.26027e-06 0 -8.18299e-06 4.79113e-06 0 -8.4788e-06 4.31437e-06 0 -8.72713e-06 3.83473e-06 0 -8.92862e-06 3.35699e-06 0 -9.08452e-06 2.88591e-06 0 -9.19677e-06 2.42622e-06 0 -9.26802e-06 1.98256e-06 0 -9.30177e-06 1.55953e-06 0 -9.30252e-06 1.16166e-06 0 -9.27602e-06 7.93367e-07 0 -9.22974e-06 4.58952e-07 0 -9.17376e-06 1.6241e-07 0 -9.12212e-06 -9.32446e-08 0 -9.09535e-06 -3.0752e-07 0 -9.12364e-06 -4.88066e-07 0 -9.24858e-06 -6.62329e-07 0 -9.50291e-06 -9.10089e-07 0 -9.83329e-06 -1.37164e-06 0 0 9.30801e-06 0 -7.66532e-07 9.28119e-06 0 -1.52761e-06 9.20259e-06 0 -2.27784e-06 9.07305e-06 0 -3.01196e-06 8.89393e-06 0 -3.72488e-06 8.6671e-06 0 -4.41176e-06 8.39493e-06 0 -5.06806e-06 8.08026e-06 0 -5.6896e-06 7.72634e-06 0 -6.27257e-06 7.33684e-06 0 -6.81363e-06 6.91578e-06 0 -7.30992e-06 6.46746e-06 0 -7.75908e-06 5.99649e-06 0 -8.15932e-06 5.50765e-06 0 -8.50942e-06 5.00591e-06 0 -8.80874e-06 4.49634e-06 0 -9.05727e-06 3.98411e-06 0 -9.25562e-06 3.47441e-06 0 -9.40506e-06 2.97242e-06 0 -9.50755e-06 2.48335e-06 0 -9.56578e-06 2.01237e-06 0 -9.58325e-06 1.56465e-06 0 -9.56445e-06 1.14545e-06 0 -9.51509e-06 7.60144e-07 0 -9.44262e-06 4.14439e-07 0 -9.35712e-06 1.14425e-07 0 -9.27314e-06 -1.33213e-07 0 -9.21322e-06 -3.21977e-07 0 -9.21587e-06 -4.48376e-07 0 -9.34632e-06 -5.26621e-07 0 -9.70517e-06 -6.35945e-07 0 -1.02736e-05 -1.05732e-06 0 0 9.83184e-06 0 -8.02427e-07 9.80308e-06 0 -1.59902e-06 9.7188e-06 0 -2.38402e-06 9.5799e-06 0 -3.15179e-06 9.38784e-06 0 -3.89691e-06 9.14466e-06 0 -4.61419e-06 8.85291e-06 0 -5.29877e-06 8.51564e-06 0 -5.94619e-06 8.13637e-06 0 -6.55238e-06 7.71906e-06 0 -7.11376e-06 7.26805e-06 0 -7.62728e-06 6.78799e-06 0 -8.09041e-06 6.28384e-06 0 -8.50123e-06 5.76078e-06 0 -8.8584e-06 5.22418e-06 0 -9.16125e-06 4.67951e-06 0 -9.40969e-06 4.13237e-06 0 -9.60434e-06 3.58838e-06 0 -9.74646e-06 3.05318e-06 0 -9.838e-06 2.53242e-06 0 -9.88165e-06 2.0318e-06 0 -9.88086e-06 1.55706e-06 0 -9.84e-06 1.11413e-06 0 -9.76453e-06 7.09318e-07 0 -9.66147e-06 3.49531e-07 0 -9.54017e-06 4.32081e-08 0 -9.41414e-06 -1.99741e-07 0 -9.30504e-06 -3.64558e-07 0 -9.25318e-06 -4.33102e-07 0 -9.34368e-06 -3.86003e-07 0 -9.79041e-06 -2.29978e-07 0 -1.07586e-05 -4.50434e-07 0 0 1.03805e-05 0 -8.40909e-07 1.03497e-05 0 -1.67558e-06 1.02594e-05 0 -2.49785e-06 1.01104e-05 0 -3.30169e-06 9.90456e-06 0 -4.08129e-06 9.64389e-06 0 -4.83111e-06 9.33119e-06 0 -5.54597e-06 8.96975e-06 0 -6.22107e-06 8.56337e-06 0 -6.85206e-06 8.11632e-06 0 -7.43513e-06 7.63328e-06 0 -7.96699e-06 7.11927e-06 0 -8.44494e-06 6.57963e-06 0 -8.86692e-06 6.01996e-06 0 -9.23149e-06 5.44604e-06 0 -9.53788e-06 4.86379e-06 0 -9.78598e-06 4.27923e-06 0 -9.97637e-06 3.69843e-06 0 -1.01103e-05 3.12749e-06 0 -1.01897e-05 2.57253e-06 0 -1.02172e-05 2.03971e-06 0 -1.01963e-05 1.5353e-06 0 -1.01309e-05 1.06589e-06 0 -1.00263e-05 6.3835e-07 0 -9.88854e-06 2.61204e-07 0 -9.7255e-06 -5.68966e-08 0 -9.54872e-06 -2.99046e-07 0 -9.37216e-06 -4.53991e-07 0 -9.2351e-06 -4.62307e-07 0 -9.18889e-06 -3.2088e-07 0 -9.58175e-06 2.92991e-07 0 -1.14276e-05 8.93959e-07 0 0 1.09559e-05 0 -8.82163e-07 1.09229e-05 0 -1.75765e-06 1.0826e-05 0 -2.61986e-06 1.06664e-05 0 -3.46236e-06 1.04457e-05 0 -4.27891e-06 1.01663e-05 0 -5.06359e-06 9.8312e-06 0 -5.81085e-06 9.4439e-06 0 -6.51556e-06 9.00852e-06 0 -7.17307e-06 8.52965e-06 0 -7.77927e-06 8.01232e-06 0 -8.33067e-06 7.46198e-06 0 -8.82437e-06 6.88436e-06 0 -9.25815e-06 6.2855e-06 0 -9.63046e-06 5.67162e-06 0 -9.94044e-06 5.0491e-06 0 -1.01879e-05 4.42441e-06 0 -1.03735e-05 3.80409e-06 0 -1.04984e-05 3.19468e-06 0 -1.05645e-05 2.60277e-06 0 -1.05744e-05 2.03495e-06 0 -1.05314e-05 1.49805e-06 0 -1.04394e-05 9.9882e-07 0 -1.03028e-05 5.45592e-07 0 -1.01268e-05 1.45137e-07 0 -9.91832e-06 -1.86344e-07 0 -9.6798e-06 -4.47872e-07 0 -9.43694e-06 -5.77537e-07 0 -9.14393e-06 -6.34337e-07 0 -9.00277e-06 -2.45959e-07 0 -8.45487e-06 9.87434e-08 0 -1.20524e-05 4.83844e-06 0 </DataArray> 
</PointData> 
<Points> 
<DataArray type="Float32" NumberOfComponents="3"> 