<?xml version="1.0"?> 
<VTKFile type="StructuredGrid" version="0.1"> 
<StructuredGrid WholeExtent="0 31 0 31 0 0"> 
<Piece Extent="0 31 0 31 0 0"> 
<PointData>
<DataArray type="Float32" Name="B" format="ascii" NumberOfComponents="3"> 
3.80356e-05 9.11352e-05 0 5.22646e-05 6.43351e-05 0 5.09981e-05 5.64774e-05 0 4.83833e-05 5.09072e-05 0 4.59112e-05 4.67417e-05 0 4.33212e-05 4.32996e-05 0 4.0859e-05 4.03917e-05 0 3.84373e-05 3.78723e-05 0 3.61177e-05 3.56577e-05 0 3.38764e-05 3.36952e-05 0 3.17267e-05 3.19419e-05 0 2.96602e-05 3.037e-05 0 2.76772e-05 2.89552e-05 0 2.57724e-05 2.76799e-05 0 2.39425e-05 2.65285e-05 0 2.21828e-05 2.54888e-05 0 2.04889e-05 2.45503e-05 0 1.88562e-05 2.3704e-05 0 1.72803e-05 2.29423e-05 0 1.57565e-05 2.22587e-05 0 1.42804e-05 2.16474e-05 0 1.28477e-05 2.11035e-05 0 1.1454e-05 2.06228e-05 0 1.00952e-05 2.02016e-05 0 8.76712e-06 1.98368e-05 0 7.46571e-06 1.95257e-05 0 6.18703e-06 1.9266e-05 0 4.92718e-06 1.9056e-05 0 3.68233e-06 1.88942e-05 0 2.44868e-06 1.87794e-05 0 1.22248e-06 1.87108e-05 0 0 1.8688e-05 0 3.84717e-05 6.43591e-05 0 3.97893e-05 6.1448e-05 0 4.03949e-05 5.78195e-05 0 3.98636e-05 5.40355e-05 0 3.86571e-05 5.05376e-05 0 3.71272e-05 4.73839e-05 0 3.54199e-05 4.45575e-05 0 3.36397e-05 4.20194e-05 0 3.18345e-05 3.97333e-05 0 3.0039e-05 3.76681e-05 0 2.82704e-05 3.57979e-05 0 2.65405e-05 3.41014e-05 0 2.48552e-05 3.25608e-05 0 2.32176e-05 3.11608e-05 0 2.16287e-05 2.98888e-05 0 2.00881e-05 2.87336e-05 0 1.85945e-05 2.76856e-05 0 1.71461e-05 2.67366e-05 0 1.57403e-05 2.58792e-05 0 1.43745e-05 2.5107e-05 0 1.30458e-05 2.44146e-05 0 1.17513e-05 2.37969e-05 0 1.04878e-05 2.32497e-05 0 9.25236e-06 2.27693e-05 0 8.04171e-06 2.23525e-05 0 6.85276e-06 2.19966e-05 0 5.68236e-06 2.16991e-05 0 4.52741e-06 2.14583e-05 0 3.38478e-06 2.12726e-05 0 2.2514e-06 2.11407e-05 0 1.12416e-06 2.1062e-05 0 0 2.10358e-05 0 3.48066e-05 6.25812e-05 0 3.45683e-05 6.09679e-05 0 3.41511e-05 5.8378e-05 0 3.35056e-05 5.56387e-05 0 3.26091e-05 5.28539e-05 0 3.15009e-05 5.01464e-05 0 3.02483e-05 4.75752e-05 0 2.89023e-05 4.51685e-05 0 2.75042e-05 4.29337e-05 0 2.60819e-05 4.08681e-05 0 2.46557e-05 3.89647e-05 0 2.32389e-05 3.72142e-05 0 2.18407e-05 3.56069e-05 0 2.04669e-05 3.41333e-05 0 1.91211e-05 3.27842e-05 0 1.78052e-05 3.15514e-05 0 1.652e-05 3.0427e-05 0 1.52653e-05 2.94041e-05 0 1.40405e-05 2.84763e-05 0 1.28442e-05 2.76378e-05 0 1.16749e-05 2.68836e-05 0 1.05309e-05 2.62091e-05 0 9.41008e-06 2.56103e-05 0 8.31045e-06 2.50834e-05 0 7.22977e-06 2.46256e-05 0 6.16576e-06 2.4234e-05 0 5.11611e-06 2.39064e-05 0 4.07845e-06 2.36409e-05 0 3.0504e-06 2.3436e-05 0 2.02958e-06 2.32904e-05 0 1.01359e-06 2.32034e-05 0 0 2.31745e-05 0 3.08951e-05 6.46404e-05 0 2.99639e-05 6.21201e-05 0 2.91287e-05 5.97754e-05 0 2.82855e-05 5.72898e-05 0 2.73928e-05 5.47803e-05 0 2.6438e-05 5.23034e-05 0 2.5422e-05 4.99055e-05 0 2.43565e-05 4.76153e-05 0 2.3255e-05 4.54498e-05 0 2.2131e-05 4.3417e-05 0 2.09955e-05 4.15191e-05 0 1.98578e-05 3.97545e-05 0 1.87247e-05 3.81193e-05 0 1.76015e-05 3.66084e-05 0 1.64919e-05 3.5216e-05 0 1.53982e-05 3.39364e-05 0 1.43222e-05 3.27637e-05 0 1.32646e-05 3.16923e-05 0 1.22257e-05 3.07168e-05 0 1.12053e-05 2.98325e-05 0 1.02027e-05 2.90348e-05 0 9.21713e-06 2.83197e-05 0 8.24752e-06 2.76833e-05 0 7.29262e-06 2.71225e-05 0 6.35104e-06 2.66343e-05 0 5.42129e-06 2.62161e-05 0 4.50181e-06 2.58659e-05 0 3.59098e-06 2.55818e-05 0 2.6871e-06 2.53624e-05 0 1.78847e-06 2.52064e-05 0 8.93356e-07 2.51131e-05 0 0 2.50821e-05 0 2.62155e-05 6.649e-05 0 2.51295e-05 6.41096e-05 0 2.41724e-05 6.15463e-05 0 2.32965e-05 5.90248e-05 0 2.24589e-05 5.65408e-05 0 2.16311e-05 5.41207e-05 0 2.07981e-05 5.17845e-05 0 1.99526e-05 4.9549e-05 0 1.90933e-05 4.74254e-05 0 1.82218e-05 4.54204e-05 0 1.73412e-05 4.35369e-05 0 1.64551e-05 4.17752e-05 0 1.55671e-05 4.01336e-05 0 1.46802e-05 3.86089e-05 0 1.3797e-05 3.71972e-05 0 1.29197e-05 3.58944e-05 0 1.20499e-05 3.46958e-05 0 1.11886e-05 3.3597e-05 0 1.03367e-05 3.25936e-05 0 9.49446e-06 3.16815e-05 0 8.66208e-06 3.08567e-05 0 7.83936e-06 3.01156e-05 0 7.02596e-06 2.94549e-05 0 6.22135e-06 2.88717e-05 0 5.42484e-06 2.83632e-05 0 4.63566e-06 2.79272e-05 0 3.8529e-06 2.75616e-05 0 3.07561e-06 2.72647e-05 0 2.30277e-06 2.70353e-05 0 1.53329e-06 2.68721e-05 0 7.66075e-07 2.67745e-05 0 0 2.67421e-05 0 2.0752e-05 6.89938e-05 0 1.9765e-05 6.60304e-05 0 1.89252e-05 6.32717e-05 0 1.81834e-05 6.06045e-05 0 1.75038e-05 5.80442e-05 0 1.68597e-05 5.5592e-05 0 1.62321e-05 5.32519e-05 0 1.56088e-05 5.10272e-05 0 1.49825e-05 4.89205e-05 0 1.43496e-05 4.6933e-05 0 1.37086e-05 4.50645e-05 0 1.30598e-05 4.33138e-05 0 1.2404e-05 4.16787e-05 0 1.17429e-05 4.01563e-05 0 1.10779e-05 3.8743e-05 0 1.04106e-05 3.74352e-05 0 9.74246e-06 3.6229e-05 0 9.07467e-06 3.51205e-05 0 8.40824e-06 3.41059e-05 0 7.74397e-06 3.31816e-05 0 7.08244e-06 3.23442e-05 0 6.42406e-06 3.15904e-05 0 5.76904e-06 3.09174e-05 0 5.11745e-06 3.03223e-05 0 4.46922e-06 2.98029e-05 0 3.82417e-06 2.9357e-05 0 3.18203e-06 2.89827e-05 0 2.54241e-06 2.86786e-05 0 1.9049e-06 2.84434e-05 0 1.26901e-06 2.82761e-05 0 6.34228e-07 2.8176e-05 0 0 2.81427e-05 0 1.44897e-05 7.07228e-05 0 1.38399e-05 6.75731e-05 0 1.33001e-05 6.45757e-05 0 1.28361e-05 6.17647e-05 0 1.24206e-05 5.91149e-05 0 1.20327e-05 5.66149e-05 0 1.1657e-05 5.42559e-05 0 1.12826e-05 5.20314e-05 0 1.09024e-05 4.99366e-05 0 1.05119e-05 4.79671e-05 0 1.01089e-05 4.61192e-05 0 9.69248e-06 4.43889e-05 0 9.26285e-06 4.27726e-05 0 8.82084e-06 4.12665e-05 0 8.36766e-06 3.98668e-05 0 7.90468e-06 3.85696e-05 0 7.43331e-06 3.73714e-05 0 6.95494e-06 3.62685e-05 0 6.47085e-06 3.52574e-05 0 5.98219e-06 3.43348e-05 0 5.48997e-06 3.34976e-05 0 4.99506e-06 3.27429e-05 0 4.49818e-06 3.20682e-05 0 3.99991e-06 3.14709e-05 0 3.50072e-06 3.0949e-05 0 3.00097e-06 3.05005e-05 0 2.50091e-06 3.01238e-05 0 2.00071e-06 2.98175e-05 0 1.50048e-06 2.95804e-05 0 1.00029e-06 2.94117e-05 0 5.0013e-07 2.93108e-05 0 0 2.92771e-05 0 7.63099e-06 7.16941e-05 0 7.487e-06 6.82926e-05 0 7.38462e-06 6.51781e-05 0 7.30576e-06 6.22858e-05 0 7.23606e-06 5.95928e-05 0 7.16433e-06 5.70775e-05 0 7.08242e-06 5.47236e-05 0 6.98447e-06 5.25184e-05 0 6.8667e-06 5.04518e-05 0 6.72696e-06 4.85156e-05 0 6.56438e-06 4.6703e-05 0 6.37905e-06 4.50081e-05 0 6.17178e-06 4.34257e-05 0 5.94382e-06 4.19512e-05 0 5.69672e-06 4.05802e-05 0 5.4322e-06 3.93087e-05 0 5.15201e-06 3.8133e-05 0 4.85788e-06 3.70495e-05 0 4.55149e-06 3.60551e-05 0 4.23439e-06 3.51466e-05 0 3.90803e-06 3.43212e-05 0 3.57373e-06 3.35762e-05 0 3.23265e-06 3.29094e-05 0 2.88588e-06 3.23186e-05 0 2.53434e-06 3.18018e-05 0 2.17887e-06 3.13574e-05 0 1.82021e-06 3.09838e-05 0 1.45902e-06 3.06798e-05 0 1.0959e-06 3.04444e-05 0 7.31357e-07 3.02768e-05 0 3.65904e-07 3.01765e-05 0 0 3.01431e-05 0 5.23012e-07 7.13733e-05 0 9.74656e-07 6.79963e-05 0 1.38147e-06 6.48869e-05 0 1.74443e-06 6.20216e-05 0 2.06406e-06 5.93674e-05 0 2.34087e-06 5.69002e-05 0 2.57534e-06 5.46008e-05 0 2.76833e-06 5.2454e-05 0 2.92101e-06 5.04474e-05 0 3.03494e-06 4.85712e-05 0 3.11196e-06 4.6817e-05 0 3.15419e-06 4.51779e-05 0 3.16393e-06 4.36481e-05 0 3.14357e-06 4.22223e-05 0 3.09557e-06 4.0896e-05 0 3.02236e-06 3.9665e-05 0 2.92632e-06 3.85258e-05 0 2.80973e-06 3.7475e-05 0 2.67475e-06 3.65094e-05 0 2.52343e-06 3.56263e-05 0 2.35768e-06 3.48231e-05 0 2.17924e-06 3.40975e-05 0 1.98976e-06 3.34472e-05 0 1.79072e-06 3.28706e-05 0 1.58351e-06 3.23657e-05 0 1.36939e-06 3.19311e-05 0 1.14953e-06 3.15656e-05 0 9.25018e-07 3.1268e-05 0 6.9687e-07 3.10375e-05 0 4.66045e-07 3.08733e-05 0 2.33459e-07 3.0775e-05 0 0 3.07423e-05 0 -6.39936e-06 6.97926e-05 0 -5.35977e-06 6.65854e-05 0 -4.4473e-06 6.36423e-05 0 -3.64405e-06 6.09232e-05 0 -2.93616e-06 5.84023e-05 0 -2.31281e-06 5.6058e-05 0 -1.76517e-06 5.38726e-05 0 -1.286e-06 5.18321e-05 0 -8.69095e-07 4.99247e-05 0 -5.09049e-07 4.81407e-05 0 -2.00998e-07 4.64721e-05 0 5.94901e-08 4.49122e-05 0 2.76512e-07 4.34552e-05 0 4.53882e-07 4.20962e-05 0 5.95167e-07 4.08308e-05 0 7.0371e-07 3.96551e-05 0 7.82638e-07 3.85658e-05 0 8.34875e-07 3.75598e-05 0 8.6315e-07 3.66343e-05 0 8.70005e-07 3.57869e-05 0 8.57806e-07 3.50152e-05 0 8.2875e-07 3.43173e-05 0 7.84879e-07 3.36913e-05 0 7.28092e-07 3.31356e-05 0 6.60155e-07 3.26486e-05 0 5.8272e-07 3.22291e-05 0 4.97336e-07 3.1876e-05 0 4.05462e-07 3.15884e-05 0 3.08484e-07 3.13655e-05 0 2.07731e-07 3.12067e-05 0 1.04485e-07 3.11116e-05 0 0 3.10799e-05 0 -1.27322e-05 6.70099e-05 0 -1.11948e-05 6.4159e-05 0 -9.84574e-06 6.15081e-05 0 -8.65572e-06 5.90405e-05 0 -7.60188e-06 5.67377e-05 0 -6.66604e-06 5.45849e-05 0 -5.83358e-06 5.25697e-05 0 -5.09248e-06 5.06812e-05 0 -4.43271e-06 4.89108e-05 0 -3.84575e-06 4.72506e-05 0 -3.32425e-06 4.56942e-05 0 -2.86181e-06 4.42362e-05 0 -2.45271e-06 4.28717e-05 0 -2.09185e-06 4.15966e-05 0 -1.77462e-06 4.04071e-05 0 -1.49682e-06 3.93002e-05 0 -1.25461e-06 3.8273e-05 0 -1.04444e-06 3.73228e-05 0 -8.6307e-07 3.64474e-05 0 -7.07486e-07 3.56446e-05 0 -5.74899e-07 3.49127e-05 0 -4.62724e-07 3.42499e-05 0 -3.68553e-07 3.36547e-05 0 -2.90139e-07 3.31257e-05 0 -2.25379e-07 3.26618e-05 0 -1.72296e-07 3.22618e-05 0 -1.29021e-07 3.19249e-05 0 -9.37792e-08 3.16503e-05 0 -6.48717e-08 3.14373e-05 0 -4.06618e-08 3.12856e-05 0 -1.95581e-08 3.11947e-05 0 0 3.11644e-05 0 -1.81793e-05 6.33319e-05 0 -1.62912e-05 6.0923e-05 0 -1.46187e-05 5.86491e-05 0 -1.31305e-05 5.65025e-05 0 -1.18013e-05 5.44767e-05 0 -1.06101e-05 5.25652e-05 0 -9.53985e-06 5.07619e-05 0 -8.57618e-06 4.9061e-05 0 -7.70701e-06 4.74574e-05 0 -6.92209e-06 4.59466e-05 0 -6.21254e-06 4.45244e-05 0 -5.57069e-06 4.31871e-05 0 -4.98976e-06 4.19315e-05 0 -4.46375e-06 4.07547e-05 0 -3.98729e-06 3.96541e-05 0 -3.55554e-06 3.86273e-05 0 -3.16411e-06 3.76723e-05 0 -2.80899e-06 3.67871e-05 0 -2.48652e-06 3.597e-05 0 -2.19332e-06 3.52195e-05 0 -1.92626e-06 3.4534e-05 0 -1.68245e-06 3.39124e-05 0 -1.4592e-06 3.33534e-05 0 -1.25396e-06 3.2856e-05 0 -1.06439e-06 3.24193e-05 0 -8.88236e-07 3.20425e-05 0 -7.23376e-07 3.17248e-05 0 -5.67785e-07 3.14657e-05 0 -4.19514e-07 3.12647e-05 0 -2.7668e-07 3.11213e-05 0 -1.37444e-07 3.10354e-05 0 0 3.10068e-05 0 -2.26251e-05 5.9091e-05 0 -2.05373e-05 5.71514e-05 0 -1.86639e-05 5.52796e-05 0 -1.69773e-05 5.34814e-05 0 -1.54543e-05 5.17592e-05 0 -1.40753e-05 5.01139e-05 0 -1.28236e-05 4.85452e-05 0 -1.16848e-05 4.70524e-05 0 -1.06468e-05 4.56341e-05 0 -9.69879e-06 4.4289e-05 0 -8.83163e-06 4.30154e-05 0 -8.03716e-06 4.18118e-05 0 -7.3082e-06 4.06767e-05 0 -6.63835e-06 3.96086e-05 0 -6.02188e-06 3.86061e-05 0 -5.45363e-06 3.76678e-05 0 -4.92891e-06 3.67926e-05 0 -4.44345e-06 3.59793e-05 0 -3.99333e-06 3.52268e-05 0 -3.57495e-06 3.45341e-05 0 -3.18496e-06 3.39003e-05 0 -2.82027e-06 3.33245e-05 0 -2.47799e-06 3.28059e-05 0 -2.15539e-06 3.23438e-05 0 -1.84992e-06 3.19376e-05 0 -1.55916e-06 3.15867e-05 0 -1.28079e-06 3.12906e-05 0 -1.01261e-06 3.10489e-05 0 -7.52491e-07 3.08613e-05 0 -4.98358e-07 3.07275e-05 0 -2.48191e-07 3.06473e-05 0 0 3.06206e-05 0 -2.6093e-05 5.46047e-05 0 -2.39349e-05 5.30998e-05 0 -2.19691e-05 5.16123e-05 0 -2.01756e-05 5.01537e-05 0 -1.85364e-05 4.87325e-05 0 -1.70355e-05 4.73547e-05 0 -1.56587e-05 4.60246e-05 0 -1.43934e-05 4.47451e-05 0 -1.32285e-05 4.35182e-05 0 -1.21541e-05 4.2345e-05 0 -1.11615e-05 4.12264e-05 0 -1.02429e-05 4.01627e-05 0 -9.3913e-06 3.9154e-05 0 -8.60036e-06 3.82001e-05 0 -7.86441e-06 3.7301e-05 0 -7.17828e-06 3.64563e-05 0 -6.53727e-06 3.56656e-05 0 -5.93706e-06 3.49285e-05 0 -5.37365e-06 3.42446e-05 0 -4.84338e-06 3.36135e-05 0 -4.34282e-06 3.30347e-05 0 -3.86879e-06 3.25078e-05 0 -3.41829e-06 3.20324e-05 0 -2.98852e-06 3.16082e-05 0 -2.57682e-06 3.12347e-05 0 -2.18065e-06 3.09117e-05 0 -1.79759e-06 3.06389e-05 0 -1.42532e-06 3.04161e-05 0 -1.06159e-06 3.0243e-05 0 -7.04223e-07 3.01194e-05 0 -3.51062e-07 3.00453e-05 0 0 3.00206e-05 0 -2.87067e-05 5.01051e-05 0 -2.65663e-05 4.89729e-05 0 -2.45884e-05 4.78241e-05 0 -2.276e-05 4.66725e-05 0 -2.10685e-05 4.55291e-05 0 -1.95023e-05 4.44027e-05 0 -1.80503e-05 4.33001e-05 0 -1.67026e-05 4.22266e-05 0 -1.54499e-05 4.11863e-05 0 -1.42839e-05 4.01824e-05 0 -1.31969e-05 3.92175e-05 0 -1.2182e-05 3.82933e-05 0 -1.12327e-05 3.74114e-05 0 -1.03433e-05 3.65728e-05 0 -9.50838e-06 3.57783e-05 0 -8.72315e-06 3.50286e-05 0 -7.98305e-06 3.4324e-05 0 -7.28392e-06 3.36648e-05 0 -6.62188e-06 3.30513e-05 0 -5.99334e-06 3.24835e-05 0 -5.39491e-06 3.19614e-05 0 -4.82345e-06 3.14851e-05 0 -4.27596e-06 3.10545e-05 0 -3.74963e-06 3.06695e-05 0 -3.24177e-06 3.03301e-05 0 -2.74984e-06 3.00361e-05 0 -2.27136e-06 2.97876e-05 0 -1.80396e-06 2.95843e-05 0 -1.34536e-06 2.94263e-05 0 -8.93292e-07 2.93135e-05 0 -4.45565e-07 2.92459e-05 0 0 2.92233e-05 0 -3.06171e-05 4.57359e-05 0 -2.85483e-05 4.49073e-05 0 -2.66109e-05 4.40423e-05 0 -2.47978e-05 4.31543e-05 0 -2.31012e-05 4.22548e-05 0 -2.15133e-05 4.13531e-05 0 -2.00264e-05 4.04573e-05 0 -1.8633e-05 3.95736e-05 0 -1.7326e-05 3.87075e-05 0 -1.60989e-05 3.78633e-05 0 -1.49452e-05 3.70446e-05 0 -1.38592e-05 3.62544e-05 0 -1.28354e-05 3.5495e-05 0 -1.18687e-05 3.47685e-05 0 -1.09544e-05 3.40764e-05 0 -1.0088e-05 3.342e-05 0 -9.26548e-06 3.28005e-05 0 -8.48286e-06 3.22186e-05 0 -7.73655e-06 3.1675e-05 0 -7.02317e-06 3.11704e-05 0 -6.33948e-06 3.07051e-05 0 -5.68247e-06 3.02795e-05 0 -5.04923e-06 2.98939e-05 0 -4.43703e-06 2.95485e-05 0 -3.84324e-06 2.92435e-05 0 -3.26534e-06 2.89789e-05 0 -2.7009e-06 2.8755e-05 0 -2.14756e-06 2.85716e-05 0 -1.60303e-06 2.8429e-05 0 -1.06506e-06 2.83271e-05 0 -5.31442e-07 2.8266e-05 0 0 2.82456e-05 0 -3.19732e-05 4.15729e-05 0 -3.00025e-05 4.09839e-05 0 -2.81358e-05 4.03487e-05 0 -2.63695e-05 3.96793e-05 0 -2.46995e-05 3.89861e-05 0 -2.3121e-05 3.82783e-05 0 -2.16289e-05 3.75636e-05 0 -2.02182e-05 3.68488e-05 0 -1.88837e-05 3.61396e-05 0 -1.76204e-05 3.5441e-05 0 -1.64235e-05 3.4757e-05 0 -1.52883e-05 3.40913e-05 0 -1.42103e-05 3.34468e-05 0 -1.31853e-05 3.2826e-05 0 -1.22092e-05 3.22311e-05 0 -1.12782e-05 3.1664e-05 0 -1.03885e-05 3.1126e-05 0 -9.53687e-06 3.06187e-05 0 -8.71989e-06 3.01429e-05 0 -7.93448e-06 2.96997e-05 0 -7.17766e-06 2.92898e-05 0 -6.44659e-06 2.89139e-05 0 -5.73856e-06 2.85725e-05 0 -5.05097e-06 2.82661e-05 0 -4.3813e-06 2.79949e-05 0 -3.72714e-06 2.77594e-05 0 -3.08614e-06 2.75597e-05 0 -2.456e-06 2.73961e-05 0 -1.8345e-06 2.72687e-05 0 -1.21944e-06 2.71777e-05 0 -6.08653e-07 2.7123e-05 0 0 2.71048e-05 0 -3.29012e-05 3.76464e-05 0 -3.1039e-05 3.72428e-05 0 -2.92575e-05 3.67897e-05 0 -2.75556e-05 3.62971e-05 0 -2.59314e-05 3.57741e-05 0 -2.43826e-05 3.5229e-05 0 -2.2906e-05 3.46688e-05 0 -2.14986e-05 3.41001e-05 0 -2.01567e-05 3.35285e-05 0 -1.88768e-05 3.29589e-05 0 -1.76554e-05 3.23957e-05 0 -1.64889e-05 3.18426e-05 0 -1.53738e-05 3.13029e-05 0 -1.43066e-05 3.07794e-05 0 -1.32841e-05 3.02745e-05 0 -1.23029e-05 2.97905e-05 0 -1.136e-05 2.93291e-05 0 -1.04524e-05 2.88919e-05 0 -9.57723e-06 2.84804e-05 0 -8.73165e-06 2.80956e-05 0 -7.91301e-06 2.77386e-05 0 -7.11873e-06 2.74102e-05 0 -6.34631e-06 2.71112e-05 0 -5.59334e-06 2.68422e-05 0 -4.85747e-06 2.66038e-05 0 -4.13643e-06 2.63963e-05 0 -3.42799e-06 2.62202e-05 0 -2.72998e-06 2.60757e-05 0 -2.04027e-06 2.59631e-05 0 -1.35675e-06 2.58826e-05 0 -6.77349e-07 2.58342e-05 0 0 2.58181e-05 0 -3.35045e-05 3.39607e-05 0 -3.1751e-05 3.36983e-05 0 -3.00592e-05 3.3387e-05 0 -2.84294e-05 3.30348e-05 0 -2.68615e-05 3.26495e-05 0 -2.53544e-05 3.22381e-05 0 -2.39067e-05 3.18069e-05 0 -2.25164e-05 3.13619e-05 0 -2.11814e-05 3.09082e-05 0 -1.98994e-05 3.04505e-05 0 -1.86679e-05 2.99931e-05 0 -1.74842e-05 2.95397e-05 0 -1.63456e-05 2.90935e-05 0 -1.52496e-05 2.86575e-05 0 -1.41935e-05 2.82343e-05 0 -1.31747e-05 2.78261e-05 0 -1.21906e-05 2.74349e-05 0 -1.12386e-05 2.70625e-05 0 -1.03163e-05 2.67105e-05 0 -9.42123e-06 2.63801e-05 0 -8.55109e-06 2.60725e-05 0 -7.70357e-06 2.57887e-05 0 -6.8764e-06 2.55297e-05 0 -6.06741e-06 2.52961e-05 0 -5.27443e-06 2.50886e-05 0 -4.49538e-06 2.49078e-05 0 -3.72819e-06 2.4754e-05 0 -2.97083e-06 2.46278e-05 0 -2.2213e-06 2.45292e-05 0 -1.47763e-06 2.44587e-05 0 -7.37842e-07 2.44164e-05 0 0 2.44022e-05 0 -3.38647e-05 3.05055e-05 0 -3.22146e-05 3.03493e-05 0 -3.0611e-05 3.01467e-05 0 -2.90551e-05 2.99043e-05 0 -2.75475e-05 2.96284e-05 0 -2.60883e-05 2.9325e-05 0 -2.46769e-05 2.89996e-05 0 -2.33126e-05 2.86573e-05 0 -2.19942e-05 2.83028e-05 0 -2.07201e-05 2.79404e-05 0 -1.94889e-05 2.75739e-05 0 -1.82986e-05 2.7207e-05 0 -1.71473e-05 2.68428e-05 0 -1.60332e-05 2.6484e-05 0 -1.4954e-05 2.61334e-05 0 -1.39079e-05 2.57931e-05 0 -1.28926e-05 2.54652e-05 0 -1.19061e-05 2.51515e-05 0 -1.09463e-05 2.48536e-05 0 -1.00113e-05 2.4573e-05 0 -9.09884e-06 2.43108e-05 0 -8.20704e-06 2.40682e-05 0 -7.3339e-06 2.38461e-05 0 -6.47745e-06 2.36454e-05 0 -5.63577e-06 2.34667e-05 0 -4.80696e-06 2.33107e-05 0 -3.98912e-06 2.31778e-05 0 -3.1804e-06 2.30686e-05 0 -2.37896e-06 2.29833e-05 0 -1.58295e-06 2.29222e-05 0 -7.90572e-07 2.28854e-05 0 0 2.28732e-05 0 -3.40458e-05 2.72634e-05 0 -3.24912e-05 2.71855e-05 0 -3.09708e-05 2.7065e-05 0 -2.94865e-05 2.6907e-05 0 -2.80392e-05 2.67168e-05 0 -2.66299e-05 2.64993e-05 0 -2.52585e-05 2.62592e-05 0 -2.3925e-05 2.60009e-05 0 -2.26289e-05 2.57284e-05 0 -2.13695e-05 2.54457e-05 0 -2.01458e-05 2.51562e-05 0 -1.89566e-05 2.48631e-05 0 -1.78006e-05 2.45694e-05 0 -1.66765e-05 2.42778e-05 0 -1.55826e-05 2.39906e-05 0 -1.45175e-05 2.37101e-05 0 -1.34794e-05 2.34383e-05 0 -1.24667e-05 2.3177e-05 0 -1.14777e-05 2.29277e-05 0 -1.05108e-05 2.26918e-05 0 -9.56409e-06 2.24707e-05 0 -8.63595e-06 2.22654e-05 0 -7.72465e-06 2.2077e-05 0 -6.82847e-06 2.19062e-05 0 -5.9457e-06 2.17539e-05 0 -5.07464e-06 2.16207e-05 0 -4.2136e-06 2.15071e-05 0 -3.3609e-06 2.14136e-05 0 -2.51486e-06 2.13404e-05 0 -1.6738e-06 2.1288e-05 0 -8.36071e-07 2.12565e-05 0 0 2.1246e-05 0 -3.4098e-05 2.42142e-05 0 -3.26296e-05 2.41926e-05 0 -3.11857e-05 2.41325e-05 0 -2.97684e-05 2.40382e-05 0 -2.8379e-05 2.39138e-05 0 -2.70186e-05 2.37635e-05 0 -2.5688e-05 2.35911e-05 0 -2.43873e-05 2.34003e-05 0 -2.31167e-05 2.31948e-05 0 -2.18758e-05 2.29777e-05 0 -2.06643e-05 2.27523e-05 0 -1.94815e-05 2.25213e-05 0 -1.83266e-05 2.22875e-05 0 -1.71985e-05 2.20532e-05 0 -1.60963e-05 2.18208e-05 0 -1.50187e-05 2.15922e-05 0 -1.39645e-05 2.13694e-05 0 -1.29325e-05 2.1154e-05 0 -1.19212e-05 2.09475e-05 0 -1.09292e-05 2.07514e-05 0 -9.95513e-06 2.05669e-05 0 -8.99753e-06 2.03951e-05 0 -8.05494e-06 2.02369e-05 0 -7.12585e-06 2.00932e-05 0 -6.20879e-06 1.99647e-05 0 -5.30226e-06 1.98521e-05 0 -4.40476e-06 1.9756e-05 0 -3.51478e-06 1.96767e-05 0 -2.63081e-06 1.96147e-05 0 -1.75137e-06 1.95702e-05 0 -8.74932e-07 1.95434e-05 0 0 1.95344e-05 0 -3.40606e-05 2.13364e-05 0 -3.26687e-05 2.13538e-05 0 -3.12938e-05 2.1337e-05 0 -2.99377e-05 2.12894e-05 0 -2.8602e-05 2.12145e-05 0 -2.72881e-05 2.11157e-05 0 -2.59969e-05 2.0996e-05 0 -2.4729e-05 2.08587e-05 0 -2.34848e-05 2.07068e-05 0 -2.22645e-05 2.0543e-05 0 -2.10679e-05 2.03701e-05 0 -1.98948e-05 2.01906e-05 0 -1.87447e-05 2.00069e-05 0 -1.76171e-05 1.9821e-05 0 -1.65112e-05 1.96351e-05 0 -1.54262e-05 1.9451e-05 0 -1.43612e-05 1.92704e-05 0 -1.33152e-05 1.90948e-05 0 -1.22871e-05 1.89258e-05 0 -1.12759e-05 1.87646e-05 0 -1.02803e-05 1.86123e-05 0 -9.29911e-06 1.847e-05 0 -8.33115e-06 1.83386e-05 0 -7.37513e-06 1.8219e-05 0 -6.42977e-06 1.81118e-05 0 -5.49377e-06 1.80177e-05 0 -4.56581e-06 1.79372e-05 0 -3.64457e-06 1.78707e-05 0 -2.72871e-06 1.78187e-05 0 -1.81689e-06 1.77813e-05 0 -9.07772e-07 1.77588e-05 0 0 1.77513e-05 0 -3.39645e-05 1.86092e-05 0 -3.26398e-05 1.86517e-05 0 -3.13258e-05 1.86644e-05 0 -3.00245e-05 1.86499e-05 0 -2.87375e-05 1.86111e-05 0 -2.74663e-05 1.85507e-05 0 -2.6212e-05 1.84712e-05 0 -2.49755e-05 1.83754e-05 0 -2.37573e-05 1.82657e-05 0 -2.25578e-05 1.81445e-05 0 -2.13772e-05 1.80142e-05 0 -2.02156e-05 1.78767e-05 0 -1.90728e-05 1.77343e-05 0 -1.79485e-05 1.75888e-05 0 -1.68423e-05 1.7442e-05 0 -1.57536e-05 1.72955e-05 0 -1.46818e-05 1.71508e-05 0 -1.36261e-05 1.70095e-05 0 -1.25858e-05 1.68727e-05 0 -1.15599e-05 1.67417e-05 0 -1.05476e-05 1.66175e-05 0 -9.54781e-06 1.6501e-05 0 -8.55955e-06 1.63932e-05 0 -7.58174e-06 1.62947e-05 0 -6.61329e-06 1.62064e-05 0 -5.65309e-06 1.61286e-05 0 -4.69999e-06 1.6062e-05 0 -3.75282e-06 1.6007e-05 0 -2.81043e-06 1.59638e-05 0 -1.87163e-06 1.59328e-05 0 -9.35213e-07 1.59141e-05 0 0 1.59079e-05 0 -3.38343e-05 1.60124e-05 0 -3.25675e-05 1.60691e-05 0 -3.13065e-05 1.61002e-05 0 -3.00533e-05 1.61078e-05 0 -2.88095e-05 1.60942e-05 0 -2.75766e-05 1.60615e-05 0 -2.63559e-05 1.60119e-05 0 -2.51482e-05 1.59475e-05 0 -2.39544e-05 1.58704e-05 0 -2.2775e-05 1.57827e-05 0 -2.16105e-05 1.56861e-05 0 -2.0461e-05 1.55826e-05 0 -1.93267e-05 1.54739e-05 0 -1.82075e-05 1.53616e-05 0 -1.71031e-05 1.52472e-05 0 -1.60133e-05 1.51323e-05 0 -1.49376e-05 1.5018e-05 0 -1.38755e-05 1.49057e-05 0 -1.28265e-05 1.47965e-05 0 -1.17898e-05 1.46914e-05 0 -1.07647e-05 1.45914e-05 0 -9.75038e-06 1.44974e-05 0 -8.74608e-06 1.44101e-05 0 -7.75086e-06 1.43302e-05 0 -6.76382e-06 1.42583e-05 0 -5.78398e-06 1.41949e-05 0 -4.81037e-06 1.41405e-05 0 -3.84198e-06 1.40955e-05 0 -2.8778e-06 1.40602e-05 0 -1.91677e-06 1.40348e-05 0 -9.57855e-07 1.40195e-05 0 0 1.40144e-05 0 -3.36891e-05 1.3527e-05 0 -3.24714e-05 1.35892e-05 0 -3.12557e-05 1.36299e-05 0 -3.00439e-05 1.36507e-05 0 -2.88375e-05 1.36534e-05 0 -2.76381e-05 1.36397e-05 0 -2.64469e-05 1.36114e-05 0 -2.52651e-05 1.35702e-05 0 -2.40934e-05 1.35178e-05 0 -2.29326e-05 1.34558e-05 0 -2.17832e-05 1.33858e-05 0 -2.06457e-05 1.33093e-05 0 -1.95202e-05 1.32277e-05 0 -1.84068e-05 1.31425e-05 0 -1.73056e-05 1.30548e-05 0 -1.62163e-05 1.2966e-05 0 -1.51388e-05 1.28772e-05 0 -1.40727e-05 1.27894e-05 0 -1.30176e-05 1.27036e-05 0 -1.1973e-05 1.26207e-05 0 -1.09384e-05 1.25415e-05 0 -9.91297e-06 1.24668e-05 0 -8.89618e-06 1.23972e-05 0 -7.88727e-06 1.23334e-05 0 -6.88545e-06 1.22759e-05 0 -5.88992e-06 1.22251e-05 0 -4.89983e-06 1.21814e-05 0 -3.91432e-06 1.21453e-05 0 -2.9325e-06 1.21169e-05 0 -1.95345e-06 1.20964e-05 0 -9.76259e-07 1.20841e-05 0 0 1.208e-05 0 -3.35441e-05 1.11348e-05 0 -3.23672e-05 1.11958e-05 0 -3.11893e-05 1.12392e-05 0 -3.00121e-05 1.12661e-05 0 -2.88373e-05 1.12781e-05 0 -2.76663e-05 1.12765e-05 0 -2.65005e-05 1.12626e-05 0 -2.53409e-05 1.12378e-05 0 -2.41886e-05 1.12034e-05 0 -2.30442e-05 1.11609e-05 0 -2.19085e-05 1.11113e-05 0 -2.07819e-05 1.1056e-05 0 -1.96648e-05 1.09961e-05 0 -1.85574e-05 1.09327e-05 0 -1.74599e-05 1.08669e-05 0 -1.63722e-05 1.07998e-05 0 -1.52943e-05 1.07321e-05 0 -1.42259e-05 1.06649e-05 0 -1.31668e-05 1.05989e-05 0 -1.21165e-05 1.05349e-05 0 -1.10748e-05 1.04735e-05 0 -1.0041e-05 1.04154e-05 0 -9.01472e-06 1.03612e-05 0 -7.99522e-06 1.03114e-05 0 -6.98189e-06 1.02663e-05 0 -5.97404e-06 1.02265e-05 0 -4.97096e-06 1.01923e-05 0 -3.9719e-06 1.01639e-05 0 -2.97607e-06 1.01415e-05 0 -1.98268e-06 1.01255e-05 0 -9.90929e-07 1.01158e-05 0 0 1.01125e-05 0 -3.3411e-05 8.81871e-06 0 -3.2267e-05 8.87329e-06 0 -3.11195e-05 8.91392e-06 0 -2.99705e-05 8.94159e-06 0 -2.88214e-05 8.95733e-06 0 -2.76737e-05 8.96219e-06 0 -2.65288e-05 8.95723e-06 0 -2.53877e-05 8.94348e-06 0 -2.42515e-05 8.92198e-06 0 -2.3121e-05 8.89374e-06 0 -2.1997e-05 8.85973e-06 0 -2.08799e-05 8.82092e-06 0 -1.97703e-05 8.77822e-06 0 -1.86685e-05 8.73249e-06 0 -1.75747e-05 8.68459e-06 0 -1.6489e-05 8.63529e-06 0 -1.54114e-05 8.58534e-06 0 -1.43418e-05 8.53544e-06 0 -1.32801e-05 8.48623e-06 0 -1.2226e-05 8.43832e-06 0 -1.11792e-05 8.39226e-06 0 -1.01393e-05 8.34855e-06 0 -9.10589e-06 8.30765e-06 0 -8.0784e-06 8.26997e-06 0 -7.05632e-06 8.23588e-06 0 -6.03907e-06 8.2057e-06 0 -5.02601e-06 8.17969e-06 0 -4.01649e-06 8.1581e-06 0 -3.00984e-06 8.14112e-06 0 -2.00535e-06 8.12888e-06 0 -1.00231e-06 8.1215e-06 0 0 8.11903e-06 0 -3.32989e-05 6.56253e-06 0 -3.21801e-05 6.60672e-06 0 -3.10561e-05 6.64055e-06 0 -2.99287e-05 6.66474e-06 0 -2.87995e-05 6.68005e-06 0 -2.767e-05 6.68721e-06 0 -2.65414e-05 6.687e-06 0 -2.54148e-05 6.68016e-06 0 -2.42914e-05 6.66746e-06 0 -2.31719e-05 6.64961e-06 0 -2.20572e-05 6.62735e-06 0 -2.09479e-05 6.60137e-06 0 -1.98445e-05 6.57235e-06 0 -1.87474e-05 6.54093e-06 0 -1.76568e-05 6.50773e-06 0 -1.65731e-05 6.47333e-06 0 -1.54962e-05 6.43828e-06 0 -1.44262e-05 6.40311e-06 0 -1.33629e-05 6.3683e-06 0 -1.23062e-05 6.3343e-06 0 -1.12559e-05 6.30153e-06 0 -1.02117e-05 6.27035e-06 0 -9.17315e-06 6.24112e-06 0 -8.13988e-06 6.21415e-06 0 -7.11142e-06 6.18972e-06 0 -6.08726e-06 6.16805e-06 0 -5.06684e-06 6.14937e-06 0 -4.0496e-06 6.13385e-06 0 -3.03492e-06 6.12163e-06 0 -2.02219e-06 6.11282e-06 0 -1.01077e-06 6.1075e-06 0 0 6.10572e-06 0 -3.32144e-05 4.35067e-06 0 -3.21133e-05 4.38164e-06 0 -3.10059e-05 4.40575e-06 0 -2.9894e-05 4.42349e-06 0 -2.87789e-05 4.43532e-06 0 -2.76623e-05 4.44174e-06 0 -2.65454e-05 4.44324e-06 0 -2.54292e-05 4.44031e-06 0 -2.4315e-05 4.43344e-06 0 -2.32036e-05 4.42312e-06 0 -2.20957e-05 4.4098e-06 0 -2.09921e-05 4.39396e-06 0 -1.98933e-05 4.37603e-06 0 -1.87997e-05 4.35644e-06 0 -1.77117e-05 4.33559e-06 0 -1.66296e-05 4.31388e-06 0 -1.55534e-05 4.29166e-06 0 -1.44833e-05 4.26929e-06 0 -1.34191e-05 4.24708e-06 0 -1.23609e-05 4.22533e-06 0 -1.13083e-05 4.20433e-06 0 -1.02612e-05 4.18431e-06 0 -9.21925e-06 4.16551e-06 0 -8.18207e-06 4.14815e-06 0 -7.14927e-06 4.1324e-06 0 -6.12039e-06 4.11842e-06 0 -5.09494e-06 4.10636e-06 0 -4.07239e-06 4.09633e-06 0 -3.05221e-06 4.08843e-06 0 -2.0338e-06 4.08274e-06 0 -1.0166e-06 4.0793e-06 0 0 4.07815e-06 0 -3.31619e-05 2.16806e-06 0 -3.20714e-05 2.18399e-06 0 -3.09739e-05 2.19651e-06 0 -2.98712e-05 2.20586e-06 0 -2.87646e-05 2.21225e-06 0 -2.76558e-05 2.21595e-06 0 -2.65458e-05 2.21719e-06 0 -2.5436e-05 2.21621e-06 0 -2.43273e-05 2.21325e-06 0 -2.32207e-05 2.20855e-06 0 -2.2117e-05 2.20235e-06 0 -2.10169e-05 2.19487e-06 0 -1.99209e-05 2.18633e-06 0 -1.88295e-05 2.17693e-06 0 -1.77432e-05 2.1669e-06 0 -1.66621e-05 2.1564e-06 0 -1.55865e-05 2.14564e-06 0 -1.45163e-05 2.13477e-06 0 -1.34517e-05 2.12397e-06 0 -1.23926e-05 2.11337e-06 0 -1.13388e-05 2.10312e-06 0 -1.029e-05 2.09334e-06 0 -9.24612e-06 2.08415e-06 0 -8.20669e-06 2.07565e-06 0 -7.17137e-06 2.06794e-06 0 -6.13975e-06 2.06109e-06 0 -5.11137e-06 2.05518e-06 0 -4.08573e-06 2.05026e-06 0 -3.06232e-06 2.04639e-06 0 -2.0406e-06 2.04359e-06 0 -1.02001e-06 2.0419e-06 0 0 2.04134e-06 0 -3.31441e-05 -0 0 -3.20571e-05 -0 0 -3.09629e-05 -0 0 -2.98632e-05 -0 0 -2.87595e-05 -0 0 -2.76532e-05 -0 0 -2.65456e-05 -0 0 -2.54379e-05 -0 0 -2.43311e-05 -0 0 -2.32261e-05 -0 0 -2.21238e-05 -0 0 -2.10248e-05 -0 0 -1.99298e-05 -0 0 -1.88392e-05 -0 0 -1.77534e-05 -0 0 -1.66727e-05 -0 0 -1.55972e-05 -0 0 -1.45271e-05 -0 0 -1.34624e-05 -0 0 -1.2403e-05 -0 0 -1.13488e-05 -0 0 -1.02995e-05 -0 0 -9.25494e-06 -0 0 -8.21478e-06 -0 0 -7.17864e-06 -0 0 -6.14612e-06 -0 0 -5.11677e-06 -0 0 -4.09012e-06 -0 0 -3.06565e-06 -0 0 -2.04284e-06 -0 0 -1.02114e-06 -0 0 0 -0 0 </DataArray> 
</PointData> 
<Points> 
<DataArray type="Float32" NumberOfComponents="3"> 