<?xml version="1.0"?> 
<VTKFile type="StructuredGrid" version="0.1"> 
<StructuredGrid WholeExtent="0 31 0 31 0 0"> 
<Piece Extent="0 31 0 31 0 0"> 
<PointData>
<DataArray type="Float32" Name="B" format="ascii" NumberOfComponents="3"> 
0 -9.70621e-05 0 9.55621e-06 -9.59898e-05 0 1.86877e-05 -9.28822e-05 0 2.71279e-05 -8.80643e-05 0 3.47085e-05 -8.19401e-05 0 4.13462e-05 -7.49038e-05 0 4.70507e-05 -6.72832e-05 0 5.18617e-05 -5.93258e-05 0 5.58399e-05 -5.12063e-05 0 5.90432e-05 -4.3042e-05 0 6.15234e-05 -3.49095e-05 0 6.33197e-05 -2.68586e-05 0 6.44589e-05 -1.89251e-05 0 6.49552e-05 -1.11411e-05 0 6.48117e-05 -3.54548e-06 0 6.40226e-05 3.80625e-06 0 6.2581e-05 1.08323e-05 0 6.04818e-05 1.7415e-05 0 5.77488e-05 2.33995e-05 0 5.44253e-05 2.86005e-05 0 5.06518e-05 3.28374e-05 0 4.65155e-05 3.59798e-05 0 4.23138e-05 3.80098e-05 0 3.82119e-05 3.90254e-05 0 3.43567e-05 3.92267e-05 0 3.07931e-05 3.88441e-05 0 2.76328e-05 3.81115e-05 0 2.47116e-05 3.72502e-05 0 2.22972e-05 3.64404e-05 0 1.98091e-05 3.60994e-05 0 1.79281e-05 3.6417e-05 0 2.09918e-05 4.61287e-05 0 0 -0.000107757 0 1.19122e-05 -0.00010647 0 2.3113e-05 -0.000102612 0 3.31645e-05 -9.67662e-05 0 4.18687e-05 -8.9507e-05 0 4.92261e-05 -8.13507e-05 0 5.53412e-05 -7.2685e-05 0 6.03504e-05 -6.37768e-05 0 6.43859e-05 -5.47975e-05 0 6.75593e-05 -4.58507e-05 0 6.99563e-05 -3.69948e-05 0 7.1637e-05 -2.82608e-05 0 7.26363e-05 -1.96659e-05 0 7.29661e-05 -1.12253e-05 0 7.26164e-05 -2.9622e-06 0 7.15576e-05 5.07911e-06 0 6.97458e-05 1.28219e-05 0 6.71316e-05 2.01387e-05 0 6.36852e-05 2.68445e-05 0 5.9429e-05 3.2687e-05 0 5.45016e-05 3.73999e-05 0 4.91377e-05 4.07483e-05 0 4.37344e-05 4.27339e-05 0 3.86267e-05 4.34566e-05 0 3.40178e-05 4.32396e-05 0 3.00013e-05 4.23902e-05 0 2.65686e-05 4.11984e-05 0 2.37017e-05 3.98937e-05 0 2.1352e-05 3.86782e-05 0 1.96401e-05 3.77488e-05 0 1.88829e-05 3.73134e-05 0 2.04916e-05 3.66075e-05 0 0 -0.000121421 0 1.48834e-05 -0.000119474 0 2.86411e-05 -0.000114354 0 4.04864e-05 -0.000106865 0 5.02953e-05 -9.79496e-05 0 5.82555e-05 -8.82864e-05 0 6.46384e-05 -7.83134e-05 0 6.97103e-05 -6.82877e-05 0 7.36904e-05 -5.8349e-05 0 7.67474e-05 -4.85641e-05 0 7.90015e-05 -3.8956e-05 0 8.05317e-05 -2.95235e-05 0 8.13795e-05 -2.02541e-05 0 8.15532e-05 -1.1135e-05 0 8.10277e-05 -2.16325e-06 0 7.97457e-05 6.64308e-06 0 7.7616e-05 1.52255e-05 0 7.4525e-05 2.34651e-05 0 7.03487e-05 3.1142e-05 0 6.50364e-05 3.79191e-05 0 5.86719e-05 4.33327e-05 0 5.17751e-05 4.69922e-05 0 4.48548e-05 4.87057e-05 0 3.85091e-05 4.88453e-05 0 3.308e-05 4.7871e-05 0 2.85973e-05 4.62726e-05 0 2.4977e-05 4.43888e-05 0 2.21106e-05 4.24553e-05 0 1.99345e-05 4.06156e-05 0 1.84558e-05 3.89315e-05 0 1.78107e-05 3.73066e-05 0 1.79701e-05 3.52465e-05 0 0 -0.000138616 0 1.96513e-05 -0.000135891 0 3.66201e-05 -0.000128434 0 5.03134e-05 -0.000118348 0 6.10173e-05 -0.000107097 0 6.92875e-05 -9.5503e-05 0 7.56701e-05 -8.39758e-05 0 8.05836e-05 -7.26999e-05 0 8.43413e-05 -6.17398e-05 0 8.71623e-05 -5.10968e-05 0 8.91958e-05 -4.074e-05 0 9.0534e-05 -3.06229e-05 0 9.12226e-05 -2.06934e-05 0 9.12648e-05 -1.09013e-05 0 9.06217e-05 -1.2045e-06 0 8.92061e-05 8.41932e-06 0 8.68801e-05 1.7958e-05 0 8.3435e-05 2.73277e-05 0 7.86212e-05 3.6324e-05 0 7.21459e-05 4.4504e-05 0 6.40041e-05 5.111e-05 0 5.4497e-05 5.51438e-05 0 4.5278e-05 5.63481e-05 0 3.74393e-05 5.5314e-05 0 3.11759e-05 5.31133e-05 0 2.63316e-05 5.04154e-05 0 2.2634e-05 4.76179e-05 0 1.98513e-05 4.49104e-05 0 1.7826e-05 4.23738e-05 0 1.64693e-05 3.99978e-05 0 1.57154e-05 3.76589e-05 0 1.54244e-05 3.51664e-05 0 0 -0.000162362 0 2.59901e-05 -0.000156998 0 4.68746e-05 -0.000145032 0 6.20374e-05 -0.000130886 0 7.3001e-05 -0.000116524 0 8.10432e-05 -0.000102617 0 8.70006e-05 -8.9368e-05 0 9.14501e-05 -7.67866e-05 0 9.47679e-05 -6.48084e-05 0 9.7207e-05 -5.33409e-05 0 9.89286e-05 -4.22833e-05 0 0.00010003 -3.15348e-05 0 0.000100556 -2.0997e-05 0 0.000100506 -1.05751e-05 0 9.98286e-05 -1.79172e-07 0 9.84215e-05 1.02711e-05 0 9.60949e-05 2.08372e-05 0 9.2579e-05 3.15305e-05 0 8.73914e-05 4.22554e-05 0 7.99672e-05 5.26152e-05 0 6.93585e-05 6.1511e-05 0 5.66643e-05 6.65204e-05 0 4.43118e-05 6.61803e-05 0 3.47032e-05 6.29029e-05 0 2.78445e-05 5.87904e-05 0 2.29292e-05 5.46322e-05 0 1.9388e-05 5.07369e-05 0 1.68461e-05 4.71812e-05 0 1.50574e-05 4.39569e-05 0 1.38633e-05 4.09959e-05 0 1.31338e-05 3.8196e-05 0 1.27153e-05 3.54387e-05 0 0 -0.000201536 0 4.2688e-05 -0.000184379 0 6.61753e-05 -0.000163299 0 8.10365e-05 -0.000143477 0 9.10504e-05 -0.000125425 0 9.8022e-05 -0.000109047 0 0.000103006 -9.40814e-05 0 0.000106619 -8.0266e-05 0 0.000109253 -6.73653e-05 0 0.000111151 -5.5175e-05 0 0.000112467 -4.3518e-05 0 0.000113287 -3.22367e-05 0 0.000113652 -2.11853e-05 0 0.000113556 -1.02243e-05 0 0.000112951 7.88844e-07 0 0.00011172 1.20005e-05 0 0.000109694 2.35708e-05 0 0.000106491 3.56656e-05 0 0.000101686 4.84316e-05 0 9.39565e-05 6.19486e-05 0 8.18673e-05 7.57272e-05 0 5.87052e-05 8.47712e-05 0 3.96369e-05 7.84826e-05 0 2.92771e-05 7.11833e-05 0 2.26028e-05 6.4414e-05 0 1.81831e-05 5.85641e-05 0 1.5168e-05 5.34996e-05 0 1.3099e-05 4.91133e-05 0 1.17009e-05 4.52681e-05 0 1.07885e-05 4.18352e-05 0 1.02282e-05 3.86925e-05 0 9.89282e-06 3.57419e-05 0 0 -0.000260307 0 3.05029e-05 -0.000212505 0 4.8903e-05 -0.00018001 0 6.02833e-05 -0.000154194 0 6.76215e-05 -0.000132644 0 7.25524e-05 -0.000114064 0 7.59583e-05 -9.76496e-05 0 7.83636e-05 -8.28364e-05 0 8.00759e-05 -6.92161e-05 0 8.12865e-05 -5.64791e-05 0 8.21097e-05 -4.43793e-05 0 8.26111e-05 -3.27087e-05 0 8.28184e-05 -2.12847e-05 0 8.27266e-05 -9.92103e-06 0 8.22952e-05 1.55384e-06 0 8.14362e-05 1.33846e-05 0 7.99955e-05 2.57577e-05 0 7.76905e-05 3.91551e-05 0 7.40598e-05 5.37429e-05 0 6.81529e-05 7.08383e-05 0 5.84546e-05 9.11886e-05 0 4.23963e-05 0.000109773 0 2.84656e-05 9.03326e-05 0 2.02852e-05 7.88971e-05 0 1.52553e-05 6.90226e-05 0 1.20805e-05 6.17408e-05 0 1.00271e-05 5.55639e-05 0 8.70031e-06 5.0515e-05 0 7.86264e-06 4.61641e-05 0 7.36465e-06 4.23869e-05 0 7.09718e-06 3.90073e-05 0 6.96959e-06 3.59268e-05 0 0 -0.000281152 0 1.10497e-05 -0.000229275 0 1.89797e-05 -0.0001905 0 2.40264e-05 -0.000160823 0 2.72059e-05 -0.00013695 0 2.92422e-05 -0.000116956 0 3.05831e-05 -9.96406e-05 0 3.14811e-05 -8.42295e-05 0 3.20903e-05 -7.0194e-05 0 3.25013e-05 -5.71525e-05 0 3.27692e-05 -4.48138e-05 0 3.29243e-05 -3.29381e-05 0 3.29791e-05 -2.1316e-05 0 3.293e-05 -9.73894e-06 0 3.27566e-05 1.99992e-06 0 3.24154e-05 1.41772e-05 0 3.18289e-05 2.70681e-05 0 3.0859e-05 4.1236e-05 0 2.92704e-05 5.71282e-05 0 2.6661e-05 7.63064e-05 0 2.2551e-05 9.98902e-05 0 1.69761e-05 0.000120086 0 1.18225e-05 9.79409e-05 0 8.30536e-06 8.34868e-05 0 6.16043e-06 7.18906e-05 0 4.89999e-06 6.34994e-05 0 4.18781e-06 5.66652e-05 0 3.82446e-06 5.11665e-05 0 3.69191e-06 4.65198e-05 0 3.71227e-06 4.2538e-05 0 3.82803e-06 3.90312e-05 0 3.98939e-06 3.58889e-05 0 0 -0.000285318 0 -4.55186e-06 -0.000232057 0 -7.88333e-06 -0.000192289 0 -1.02625e-05 -0.000161834 0 -1.19817e-05 -0.000137498 0 -1.32504e-05 -0.000117234 0 -1.42226e-05 -9.9766e-05 0 -1.49748e-05 -8.42705e-05 0 -1.55577e-05 -7.01918e-05 0 -1.59986e-05 -5.71321e-05 0 -1.63156e-05 -4.47892e-05 0 -1.65188e-05 -3.2916e-05 0 -1.66135e-05 -2.12975e-05 0 -1.65999e-05 -9.71861e-06 0 -1.64741e-05 2.03272e-06 0 -1.62227e-05 1.4246e-05 0 -1.58262e-05 2.72054e-05 0 -1.52335e-05 4.15121e-05 0 -1.43852e-05 5.76356e-05 0 -1.3122e-05 7.72233e-05 0 -1.1401e-05 0.000101307 0 -8.94695e-06 0.000121896 0 -6.71547e-06 9.91082e-05 0 -5.051e-06 8.4166e-05 0 -3.78816e-06 7.21644e-05 0 -2.80424e-06 6.35413e-05 0 -1.98885e-06 5.65472e-05 0 -1.27503e-06 5.09494e-05 0 -6.29247e-07 4.62354e-05 0 -3.39014e-08 4.22165e-05 0 5.13558e-07 3.86994e-05 0 1.0088e-06 3.55745e-05 0 0 -0.000272461 0 -1.98631e-05 -0.000221324 0 -3.44018e-05 -0.000184958 0 -4.39244e-05 -0.000156923 0 -5.02865e-05 -0.000134095 0 -5.47355e-05 -0.000114789 0 -5.79375e-05 -9.79602e-05 0 -6.02971e-05 -8.29198e-05 0 -6.20433e-05 -6.9186e-05 0 -6.33199e-05 -5.6404e-05 0 -6.42116e-05 -4.42989e-05 0 -6.47682e-05 -3.26421e-05 0 -6.50114e-05 -2.12336e-05 0 -6.49401e-05 -9.87262e-06 0 -6.45247e-05 1.63425e-06 0 -6.37063e-05 1.35517e-05 0 -6.23588e-05 2.61183e-05 0 -6.02949e-05 3.98663e-05 0 -5.7098e-05 5.5124e-05 0 -5.22043e-05 7.3381e-05 0 -4.44183e-05 9.57015e-05 0 -3.43979e-05 0.000115477 0 -2.48006e-05 9.39813e-05 0 -1.79688e-05 8.06767e-05 0 -1.34678e-05 6.97339e-05 0 -1.03499e-05 6.17668e-05 0 -8.06662e-06 5.51675e-05 0 -6.31119e-06 4.9826e-05 0 -4.90089e-06 4.5285e-05 0 -3.73445e-06 4.13951e-05 0 -2.7487e-06 3.79835e-05 0 -1.91002e-06 3.49546e-05 0 0 -0.000231638 0 -4.41673e-05 -0.000196843 0 -6.74876e-05 -0.00016983 0 -8.20946e-05 -0.000146996 0 -9.19828e-05 -0.000127271 0 -9.89476e-05 -0.00010992 0 -0.000104013 -9.43988e-05 0 -0.000107754 -8.0283e-05 0 -0.000110529 -6.72408e-05 0 -0.000112558 -5.5007e-05 0 -0.000113977 -4.33637e-05 0 -0.000114865 -3.21228e-05 0 -0.000115259 -2.11163e-05 0 -0.000115154 -1.01764e-05 0 -0.000114514 8.54937e-07 0 -0.000113228 1.2182e-05 0 -0.000111152 2.39721e-05 0 -0.00010791 3.65734e-05 0 -0.000103123 5.01093e-05 0 -9.53937e-05 6.53646e-05 0 -8.32888e-05 8.25099e-05 0 -5.89444e-05 9.68861e-05 0 -3.91526e-05 8.30433e-05 0 -2.86837e-05 7.35626e-05 0 -2.18226e-05 6.50561e-05 0 -1.70958e-05 5.83985e-05 0 -1.3642e-05 5.26682e-05 0 -1.10102e-05 4.78712e-05 0 -8.93814e-06 4.37125e-05 0 -7.25675e-06 4.00947e-05 0 -5.86765e-06 3.68925e-05 0 -4.70299e-06 3.40328e-05 0 0 -0.00017369 0 -3.37214e-05 -0.00016641 0 -5.74174e-05 -0.000150652 0 -7.38484e-05 -0.000134022 0 -8.5541e-05 -0.000118094 0 -9.40979e-05 -0.000103242 0 -0.000100462 -8.9447e-05 0 -0.000105247 -7.65837e-05 0 -0.000108838 -6.44947e-05 0 -0.000111487 -5.30247e-05 0 -0.000113356 -4.20284e-05 0 -0.000114541 -3.13718e-05 0 -0.000115086 -2.09277e-05 0 -0.000114993 -1.05773e-05 0 -0.000114213 -1.97824e-07 0 -0.000112643 1.03197e-05 0 -0.000110093 2.11013e-05 0 -0.000106259 3.22055e-05 0 -0.000100627 4.36993e-05 0 -9.23626e-05 5.52689e-05 0 -8.0074e-05 6.59715e-05 0 -6.27876e-05 7.16627e-05 0 -4.69156e-05 6.97496e-05 0 -3.5913e-05 6.44473e-05 0 -2.82078e-05 5.90332e-05 0 -2.26192e-05 5.39068e-05 0 -1.84197e-05 4.93351e-05 0 -1.51715e-05 4.52478e-05 0 -1.25904e-05 4.16205e-05 0 -1.04955e-05 3.83768e-05 0 -8.76407e-06 3.54645e-05 0 -7.31533e-06 3.28326e-05 0 0 -0.000145162 0 -2.39887e-05 -0.000140926 0 -4.40769e-05 -0.000131819 0 -5.9762e-05 -0.000120171 0 -7.17923e-05 -0.0001078 0 -8.10066e-05 -9.54887e-05 0 -8.80938e-05 -8.35609e-05 0 -9.35438e-05 -7.21107e-05 0 -9.77062e-05 -6.11315e-05 0 -0.00010082 -5.05704e-05 0 -0.000103045 -4.03554e-05 0 -0.000104481 -3.04077e-05 0 -0.000105178 -2.06486e-05 0 -0.00010514 -1.10018e-05 0 -0.000104326 -1.4003e-06 0 -0.000102643 8.21194e-06 0 -9.99333e-05 1.78548e-05 0 -9.59536e-05 2.7499e-05 0 -9.03691e-05 3.69635e-05 0 -8.27425e-05 4.58299e-05 0 -7.28013e-05 5.31111e-05 0 -6.09433e-05 5.74472e-05 0 -4.94694e-05 5.77256e-05 0 -3.99832e-05 5.56587e-05 0 -3.25563e-05 5.24453e-05 0 -2.67927e-05 4.89398e-05 0 -2.22754e-05 4.54656e-05 0 -1.86788e-05 4.21842e-05 0 -1.57683e-05 3.91368e-05 0 -1.33759e-05 3.63327e-05 0 -1.13828e-05 3.37573e-05 0 -9.70401e-06 3.13922e-05 0 0 -0.000123058 0 -1.83005e-05 -0.000121107 0 -3.49379e-05 -0.000115199 0 -4.89959e-05 -0.000106908 0 -6.04603e-05 -9.73677e-05 0 -6.96627e-05 -8.73208e-05 0 -7.69823e-05 -7.71814e-05 0 -8.27582e-05 -6.71597e-05 0 -8.72567e-05 -5.73473e-05 0 -9.06774e-05 -4.77692e-05 0 -9.31614e-05 -3.84149e-05 0 -9.48005e-05 -2.92561e-05 0 -9.56437e-05 -2.02574e-05 0 -9.57012e-05 -1.13852e-05 0 -9.4944e-05 -2.61456e-06 0 -9.33041e-05 6.05751e-06 0 -9.06693e-05 1.45995e-05 0 -8.68908e-05 2.29076e-05 0 -8.17884e-05 3.07756e-05 0 -7.52414e-05 3.78045e-05 0 -6.72849e-05 4.34199e-05 0 -5.85444e-05 4.6929e-05 0 -4.98123e-05 4.83137e-05 0 -4.19233e-05 4.77816e-05 0 -3.52474e-05 4.61327e-05 0 -2.97393e-05 4.38838e-05 0 -2.52244e-05 4.14012e-05 0 -2.15121e-05 3.8874e-05 0 -1.84357e-05 3.641e-05 0 -1.58628e-05 3.40579e-05 0 -1.3691e-05 3.18401e-05 0 -1.18424e-05 2.97622e-05 0 0 -0.000106605 0 -1.49366e-05 -0.000105034 0 -2.88606e-05 -0.000100933 0 -4.11966e-05 -9.48159e-05 0 -5.17348e-05 -8.73905e-05 0 -6.05239e-05 -7.92125e-05 0 -6.77376e-05 -7.06655e-05 0 -7.35723e-05 -6.19892e-05 0 -7.82096e-05 -5.33231e-05 0 -8.17979e-05 -4.47414e-05 0 -8.445e-05 -3.6278e-05 0 -8.62433e-05 -2.79444e-05 0 -8.72233e-05 -1.97415e-05 0 -8.74044e-05 -1.16695e-05 0 -8.67724e-05 -3.73773e-06 0 -8.52859e-05 4.02514e-06 0 -8.28818e-05 1.15547e-05 0 -7.94831e-05 1.87357e-05 0 -7.5032e-05 2.53724e-05 0 -6.9526e-05 3.11901e-05 0 -6.31327e-05 3.58416e-05 0 -5.61474e-05 3.90684e-05 0 -4.91493e-05 4.07044e-05 0 -4.25985e-05 4.10364e-05 0 -3.67514e-05 4.0361e-05 0 -3.16913e-05 3.90472e-05 0 -2.73766e-05 3.73612e-05 0 -2.3715e-05 3.54947e-05 0 -2.06049e-05 3.35655e-05 0 -1.79528e-05 3.16471e-05 0 -1.56791e-05 2.97817e-05 0 -1.37188e-05 2.7993e-05 0 0 -9.2727e-05 0 -1.2423e-05 -9.17147e-05 0 -2.42701e-05 -8.8674e-05 0 -3.50755e-05 -8.40075e-05 0 -4.46028e-05 -7.81349e-05 0 -5.27949e-05 -7.14496e-05 0 -5.96975e-05 -6.42624e-05 0 -6.54082e-05 -5.6798e-05 0 -7.00351e-05 -4.92081e-05 0 -7.36787e-05 -4.15914e-05 0 -7.64214e-05 -3.40097e-05 0 -7.83244e-05 -2.65021e-05 0 -7.94267e-05 -1.90961e-05 0 -7.9746e-05 -1.18171e-05 0 -7.92807e-05 -4.69703e-06 0 -7.80138e-05 2.21587e-06 0 -7.59183e-05 8.84791e-06 0 -7.29723e-05 1.50876e-05 0 -6.91753e-05 2.07828e-05 0 -6.45889e-05 2.57391e-05 0 -5.93503e-05 2.97595e-05 0 -5.37395e-05 3.26786e-05 0 -4.80322e-05 3.44973e-05 0 -4.25293e-05 3.52729e-05 0 -3.74488e-05 3.52233e-05 0 -3.28909e-05 3.45623e-05 0 -2.88743e-05 3.34928e-05 0 -2.53681e-05 3.21692e-05 0 -2.23187e-05 3.07058e-05 0 -1.96668e-05 2.91802e-05 0 -1.73558e-05 2.76449e-05 0 -1.53358e-05 2.61338e-05 0 0 -8.12146e-05 0 -1.06262e-05 -8.03897e-05 0 -2.08443e-05 -7.80584e-05 0 -3.03407e-05 -7.43972e-05 0 -3.89074e-05 -6.9678e-05 0 -4.64436e-05 -6.41737e-05 0 -5.29331e-05 -5.81247e-05 0 -5.84075e-05 -5.17232e-05 0 -6.29224e-05 -4.51141e-05 0 -6.65382e-05 -3.84028e-05 0 -6.93105e-05 -3.16654e-05 0 -7.12842e-05 -2.49577e-05 0 -7.24913e-05 -1.83248e-05 0 -7.29509e-05 -1.18083e-05 0 -7.26709e-05 -5.45389e-06 0 -7.16515e-05 6.8185e-07 0 -6.98921e-05 6.52469e-06 0 -6.74007e-05 1.19791e-05 0 -6.42104e-05 1.69263e-05 0 -6.03919e-05 2.12362e-05 0 -5.60772e-05 2.47831e-05 0 -5.14301e-05 2.74885e-05 0 -4.66788e-05 2.93184e-05 0 -4.20212e-05 3.03491e-05 0 -3.76092e-05 3.06873e-05 0 -3.35409e-05 3.04808e-05 0 -2.98583e-05 2.98699e-05 0 -2.65637e-05 2.89783e-05 0 -2.36356e-05 2.79036e-05 0 -2.10409e-05 2.67201e-05 0 -1.8743e-05 2.54818e-05 0 -1.67059e-05 2.4227e-05 0 0 -7.12486e-05 0 -9.19906e-06 -7.06264e-05 0 -1.81207e-05 -6.87797e-05 0 -2.65189e-05 -6.58457e-05 0 -3.42171e-05 -6.19997e-05 0 -4.11097e-05 -5.74342e-05 0 -4.71488e-05 -5.23315e-05 0 -5.2329e-05 -4.68495e-05 0 -5.66694e-05 -4.11173e-05 0 -6.02011e-05 -3.52372e-05 0 -6.29578e-05 -2.92894e-05 0 -6.49701e-05 -2.3338e-05 0 -6.62633e-05 -1.74378e-05 0 -6.6856e-05 -1.16393e-05 0 -6.67619e-05 -5.99493e-06 0 -6.59926e-05 -5.63392e-07 0 -6.4563e-05 4.5865e-06 0 -6.24982e-05 9.37405e-06 0 -5.98424e-05 1.37096e-05 0 -5.66694e-05 1.75007e-05 0 -5.30817e-05 2.06679e-05 0 -4.92219e-05 2.31563e-05 0 -4.52311e-05 2.49631e-05 0 -4.12552e-05 2.61171e-05 0 -3.74164e-05 2.66975e-05 0 -3.37985e-05 2.6799e-05 0 -3.04503e-05 2.65239e-05 0 -2.73909e-05 2.59662e-05 0 -2.46185e-05 2.52072e-05 0 -2.21186e-05 2.43123e-05 0 -1.98699e-05 2.3333e-05 0 -1.78487e-05 2.2308e-05 0 0 -6.25976e-05 0 -8.08079e-06 -6.20871e-05 0 -1.59507e-05 -6.0598e-05 0 -2.34259e-05 -5.82083e-05 0 -3.03606e-05 -5.5039e-05 0 -3.66535e-05 -5.12277e-05 0 -4.22453e-05 -4.69127e-05 0 -4.71097e-05 -4.22214e-05 0 -5.12432e-05 -3.72648e-05 0 -5.46561e-05 -3.21366e-05 0 -5.73659e-05 -2.69152e-05 0 -5.93917e-05 -2.16667e-05 0 -6.07523e-05 -1.64494e-05 0 -6.14649e-05 -1.13174e-05 0 -6.1546e-05 -6.32493e-06 0 -6.10134e-05 -1.52894e-06 0 -5.989e-05 3.00864e-06 0 -5.82084e-05 7.22097e-06 0 -5.60165e-05 1.10385e-05 0 -5.33807e-05 1.4395e-05 0 -5.03897e-05 1.72353e-05 0 -4.7144e-05 1.95269e-05 0 -4.37603e-05 2.12609e-05 0 -4.03468e-05 2.24648e-05 0 -3.69964e-05 2.31864e-05 0 -3.37814e-05 2.34929e-05 0 -3.07501e-05 2.34577e-05 0 -2.7929e-05 2.3153e-05 0 -2.5328e-05 2.2644e-05 0 -2.29446e-05 2.1987e-05 0 -2.07693e-05 2.1228e-05 0 -1.8788e-05 2.04039e-05 0 0 -5.49537e-05 0 -7.16682e-06 -5.45419e-05 0 -1.41738e-05 -5.33223e-05 0 -2.08738e-05 -5.13536e-05 0 -2.7145e-05 -4.87202e-05 0 -3.28962e-05 -4.5523e-05 0 -3.80652e-05 -4.18674e-05 0 -4.26156e-05 -3.78556e-05 0 -4.65305e-05 -3.35812e-05 0 -4.98067e-05 -2.91273e-05 0 -5.24498e-05 -2.45668e-05 0 -5.44702e-05 -1.99636e-05 0 -5.58812e-05 -1.53755e-05 0 -5.66977e-05 -1.08565e-05 0 -5.69368e-05 -6.4593e-06 0 -5.66187e-05 -2.23705e-06 0 -5.57697e-05 1.75561e-06 0 -5.44246e-05 5.46297e-06 0 -5.26295e-05 8.83049e-06 0 -5.04441e-05 1.18085e-05 0 -4.79405e-05 1.4358e-05 0 -4.52035e-05 1.64548e-05 0 -4.23185e-05 1.8096e-05 0 -3.93709e-05 1.92967e-05 0 -3.64367e-05 2.00917e-05 0 -3.3577e-05 2.05281e-05 0 -3.08367e-05 2.06599e-05 0 -2.82452e-05 2.05422e-05 0 -2.58184e-05 2.02273e-05 0 -2.3562e-05 1.9762e-05 0 -2.14744e-05 1.91866e-05 0 -1.9549e-05 1.85345e-05 0 0 -4.81496e-05 0 -6.41999e-06 -4.78083e-05 0 -1.27123e-05 -4.68006e-05 0 -1.87589e-05 -4.51661e-05 0 -2.44583e-05 -4.29662e-05 0 -2.97288e-05 -4.02759e-05 0 -3.45106e-05 -3.71768e-05 0 -3.87629e-05 -3.37505e-05 0 -4.24615e-05 -3.00753e-05 0 -4.55948e-05 -2.62233e-05 0 -4.81603e-05 -2.22599e-05 0 -5.0162e-05 -1.82447e-05 0 -5.16085e-05 -1.42323e-05 0 -5.25122e-05 -1.0274e-05 0 -5.28891e-05 -6.41902e-06 0 -5.276e-05 -2.71577e-06 0 -5.21512e-05 7.87986e-07 0 -5.10966e-05 4.04569e-06 0 -4.96389e-05 7.01359e-06 0 -4.78302e-05 9.65357e-06 0 -4.57318e-05 1.19361e-05 0 -4.34103e-05 1.38441e-05 0 -4.09367e-05 1.53737e-05 0 -3.83793e-05 1.65366e-05 0 -3.57998e-05 1.73567e-05 0 -3.32504e-05 1.78682e-05 0 -3.07723e-05 1.81111e-05 0 -2.83949e-05 1.81278e-05 0 -2.61372e-05 1.79599e-05 0 -2.40099e-05 1.7646e-05 0 -2.20167e-05 1.72206e-05 0 -2.01569e-05 1.67131e-05 0 0 -4.20289e-05 0 -5.80042e-06 -4.17465e-05 0 -1.14974e-05 -4.0909e-05 0 -1.69935e-05 -3.95462e-05 0 -2.22023e-05 -3.77035e-05 0 -2.70521e-05 -3.54378e-05 0 -3.14865e-05 -3.28126e-05 0 -3.54644e-05 -2.98935e-05 0 -3.89578e-05 -2.67452e-05 0 -4.19502e-05 -2.34296e-05 0 -4.44338e-05 -2.00041e-05 0 -4.6408e-05 -1.65226e-05 0 -4.78776e-05 -1.30348e-05 0 -4.88524e-05 -9.58797e-06 0 -4.9347e-05 -6.22693e-06 0 -4.93806e-05 -2.99483e-06 0 -4.89783e-05 6.68832e-08 0 -4.81717e-05 2.91908e-06 0 -4.69992e-05 5.52618e-06 0 -4.55061e-05 7.85794e-06 0 -4.37439e-05 9.89156e-06 0 -4.17689e-05 1.16134e-05 0 -3.96382e-05 1.30207e-05 0 -3.74081e-05 1.41209e-05 0 -3.51306e-05 1.49314e-05 0 -3.28507e-05 1.54771e-05 0 -3.06055e-05 1.57882e-05 0 -2.84233e-05 1.58975e-05 0 -2.63245e-05 1.58378e-05 0 -2.43227e-05 1.56408e-05 0 -2.24253e-05 1.53356e-05 0 -2.06353e-05 1.49476e-05 0 0 -3.64777e-05 0 -5.2862e-06 -3.62427e-05 0 -1.04863e-05 -3.55455e-05 0 -1.55185e-05 -3.44082e-05 0 -2.03089e-05 -3.2865e-05 0 -2.4794e-05 -3.09596e-05 0 -2.8922e-05 -2.8742e-05 0 -3.26528e-05 -2.6265e-05 0 -3.59574e-05 -2.35819e-05 0 -3.88162e-05 -2.07449e-05 0 -4.12185e-05 -1.78038e-05 0 -4.316e-05 -1.4806e-05 0 -4.4643e-05 -1.1796e-05 0 -4.56746e-05 -8.81589e-06 0 -4.62673e-05 -5.90562e-06 0 -4.64388e-05 -3.10314e-06 0 -4.62118e-05 -4.44121e-07 0 -4.56147e-05 2.03847e-06 0 -4.46817e-05 4.31533e-06 0 -4.34523e-05 6.36206e-06 0 -4.19703e-05 8.16041e-06 0 -4.02828e-05 9.6995e-06 0 -3.8438e-05 1.09764e-05 0 -3.64832e-05 1.19963e-05 0 -3.44625e-05 1.27717e-05 0 -3.2415e-05 1.33211e-05 0 -3.03742e-05 1.36673e-05 0 -2.8367e-05 1.38357e-05 0 -2.6414e-05 1.38526e-05 0 -2.45303e-05 1.37434e-05 0 -2.27258e-05 1.35325e-05 0 -2.10062e-05 1.32416e-05 0 0 -3.13985e-05 0 -4.85848e-06 -3.12035e-05 0 -9.64402e-06 -3.06243e-05 0 -1.42867e-05 -2.96775e-05 0 -1.87224e-05 -2.83895e-05 0 -2.28948e-05 -2.67942e-05 0 -2.67563e-05 -2.4931e-05 0 -3.02689e-05 -2.28424e-05 0 -3.34036e-05 -2.05721e-05 0 -3.61398e-05 -1.81637e-05 0 -3.84645e-05 -1.56599e-05 0 -4.03713e-05 -1.31013e-05 0 -4.18602e-05 -1.0527e-05 0 -4.29361e-05 -7.9736e-06 0 -4.36097e-05 -5.47619e-06 0 -4.38961e-05 -3.06752e-06 0 -4.38159e-05 -7.78087e-07 0 -4.33943e-05 1.3644e-06 0 -4.26613e-05 3.33569e-06 0 -4.16513e-05 5.11581e-06 0 -4.0402e-05 6.68993e-06 0 -3.89538e-05 8.04901e-06 0 -3.73475e-05 9.1903e-06 0 -3.56235e-05 1.01172e-05 0 -3.382e-05 1.08386e-05 0 -3.19715e-05 1.13685e-05 0 -3.01082e-05 1.17243e-05 0 -2.82554e-05 1.19255e-05 0 -2.64335e-05 1.1993e-05 0 -2.46581e-05 1.19474e-05 0 -2.29407e-05 1.18088e-05 0 -2.12891e-05 1.15954e-05 0 0 -2.67113e-05 0 -4.50438e-06 -2.65504e-05 0 -8.94575e-06 -2.60722e-05 0 -1.32634e-05 -2.52893e-05 0 -1.7401e-05 -2.42222e-05 0 -2.1308e-05 -2.28973e-05 0 -2.49412e-05 -2.13457e-05 0 -2.82645e-05 -1.96014e-05 0 -3.12499e-05 -1.77001e-05 0 -3.38762e-05 -1.56779e-05 0 -3.61294e-05 -1.35704e-05 0 -3.80017e-05 -1.14122e-05 0 -3.94912e-05 -9.23651e-06 0 -4.06011e-05 -7.07504e-06 0 -4.134e-05 -4.95762e-06 0 -4.17211e-05 -2.9122e-06 0 -4.17623e-05 -9.64527e-07 0 -4.1486e-05 8.6225e-07 0 -4.09186e-05 2.54808e-06 0 -4.009e-05 4.07656e-06 0 -3.90331e-05 5.43552e-06 0 -3.77827e-05 6.61742e-06 0 -3.63742e-05 7.61961e-06 0 -3.48428e-05 8.44421e-06 0 -3.32217e-05 9.09776e-06 0 -3.15419e-05 9.59059e-06 0 -2.98308e-05 9.93595e-06 0 -2.81121e-05 1.01491e-05 0 -2.64057e-05 1.02463e-05 0 -2.47274e-05 1.02443e-05 0 -2.30894e-05 1.01594e-05 0 -2.1501e-05 1.00066e-05 0 0 -2.23473e-05 0 -4.21363e-06 -2.22161e-05 0 -8.37187e-06 -2.18259e-05 0 -1.24211e-05 -2.11865e-05 0 -1.63111e-05 -2.03135e-05 0 -1.99964e-05 -1.92276e-05 0 -2.3437e-05 -1.79532e-05 0 -2.65994e-05 -1.65174e-05 0 -2.94562e-05 -1.49489e-05 0 -3.19866e-05 -1.32771e-05 0 -3.41761e-05 -1.15313e-05 0 -3.60159e-05 -9.74017e-06 0 -3.75025e-05 -7.93161e-06 0 -3.86379e-05 -6.1321e-06 0 -3.94289e-05 -4.36668e-06 0 -3.98867e-05 -2.6587e-06 0 -4.0027e-05 -1.02955e-06 0 -3.98694e-05 5.01672e-07 0 -3.94374e-05 1.91852e-06 0 -3.87573e-05 3.20762e-06 0 -3.78578e-05 4.35899e-06 0 -3.67696e-05 5.36636e-06 0 -3.55237e-05 6.22725e-06 0 -3.41511e-05 6.94294e-06 0 -3.26816e-05 7.51811e-06 0 -3.11429e-05 7.96045e-06 0 -2.95603e-05 8.28001e-06 0 -2.79561e-05 8.48854e-06 0 -2.63492e-05 8.59884e-06 0 -2.47556e-05 8.62407e-06 0 -2.31881e-05 8.57734e-06 0 -2.16567e-05 8.47104e-06 0 0 -1.82468e-05 0 -3.97858e-06 -1.81419e-05 0 -7.9076e-06 -1.78298e-05 0 -1.17389e-05 -1.73179e-05 0 -1.54271e-05 -1.66184e-05 0 -1.89305e-05 -1.57469e-05 0 -2.22123e-05 -1.47225e-05 0 -2.52408e-05 -1.35663e-05 0 -2.79899e-05 -1.23011e-05 0 -3.04391e-05 -1.09502e-05 0 -3.25736e-05 -9.53724e-06 0 -3.4384e-05 -8.08545e-06 0 -3.58659e-05 -6.61742e-06 0 -3.702e-05 -5.15478e-06 0 -3.78517e-05 -3.71797e-06 0 -3.83704e-05 -2.32599e-06 0 -3.85901e-05 -9.96196e-07 0 -3.85279e-05 2.55981e-07 0 -3.82048e-05 1.41731e-06 0 -3.76441e-05 2.47703e-06 0 -3.68715e-05 3.42711e-06 0 -3.59141e-05 4.2624e-06 0 -3.47997e-05 4.9807e-06 0 -3.35561e-05 5.58268e-06 0 -3.22102e-05 6.07168e-06 0 -3.07873e-05 6.45336e-06 0 -2.93109e-05 6.73526e-06 0 -2.7802e-05 6.92631e-06 0 -2.62789e-05 7.03637e-06 0 -2.47574e-05 7.0757e-06 0 -2.32504e-05 7.05463e-06 0 -2.17685e-05 6.98303e-06 0 0 -1.43568e-05 0 -3.79333e-06 -1.42756e-05 0 -7.54148e-06 -1.40341e-05 0 -1.12005e-05 -1.36378e-05 0 -1.47285e-05 -1.30956e-05 0 -1.80872e-05 -1.24195e-05 0 -2.12418e-05 -1.16237e-05 0 -2.41626e-05 -1.07244e-05 0 -2.68244e-05 -9.73897e-06 0 -2.92072e-05 -8.68537e-06 0 -3.12961e-05 -7.58194e-06 0 -3.30813e-05 -6.4468e-06 0 -3.45578e-05 -5.29763e-06 0 -3.57253e-05 -4.1514e-06 0 -3.6588e-05 -3.02414e-06 0 -3.7154e-05 -1.93077e-06 0 -3.74354e-05 -8.84855e-07 0 -3.74479e-05 1.01558e-07 0 -3.72101e-05 1.01816e-06 0 -3.67431e-05 1.85658e-06 0 -3.60701e-05 2.61052e-06 0 -3.52156e-05 3.27592e-06 0 -3.42049e-05 3.8509e-06 0 -3.30632e-05 4.33579e-06 0 -3.18154e-05 4.73289e-06 0 -3.04849e-05 5.04628e-06 0 -2.90937e-05 5.28149e-06 0 -2.76617e-05 5.44515e-06 0 -2.62067e-05 5.54463e-06 0 -2.47441e-05 5.5877e-06 0 -2.32872e-05 5.58224e-06 0 -2.18467e-05 5.53587e-06 0 0 -1.06297e-05 0 -3.65345e-06 -1.05704e-05 0 -7.26493e-06 -1.03939e-05 0 -1.07935e-05 -1.0104e-05 0 -1.42001e-05 -9.70723e-06 0 -1.74485e-05 -9.21204e-06 0 -2.05061e-05 -8.6287e-06 0 -2.33443e-05 -7.96882e-06 0 -2.59387e-05 -7.24499e-06 0 -2.82699e-05 -6.47035e-06 0 -3.03231e-05 -5.65826e-06 0 -3.20881e-05 -4.82205e-06 0 -3.35595e-05 -3.97475e-06 0 -3.47362e-05 -3.12885e-06 0 -3.56215e-05 -2.29622e-06 0 -3.62226e-05 -1.48783e-06 0 -3.65503e-05 -7.13716e-07 0 -3.66187e-05 1.72728e-08 0 -3.64449e-05 6.97553e-07 0 -3.60483e-05 1.32096e-06 0 -3.54502e-05 1.88287e-06 0 -3.46733e-05 2.38021e-06 0 -3.37408e-05 2.81155e-06 0 -3.26763e-05 3.17699e-06 0 -3.1503e-05 3.47805e-06 0 -3.02428e-05 3.71757e-06 0 -2.89168e-05 3.8994e-06 0 -2.75439e-05 4.02822e-06 0 -2.61416e-05 4.1093e-06 0 -2.47249e-05 4.1482e-06 0 -2.33071e-05 4.15062e-06 0 -2.18993e-05 4.1221e-06 0 0 -7.0217e-06 0 -3.55572e-06 -6.98288e-06 0 -7.07165e-06 -6.8673e-06 0 -1.05089e-05 -6.67749e-06 0 -1.38303e-05 -6.41755e-06 0 -1.70013e-05 -6.09296e-06 0 -1.99906e-05 -5.71036e-06 0 -2.27704e-05 -5.27727e-06 0 -2.53171e-05 -4.80188e-06 0 -2.76116e-05 -4.29275e-06 0 -2.9639e-05 -3.75866e-06 0 -3.13893e-05 -3.20833e-06 0 -3.28565e-05 -2.65033e-06 0 -3.40392e-05 -2.09291e-06 0 -3.49399e-05 -1.54387e-06 0 -3.55652e-05 -1.01044e-06 0 -3.59248e-05 -4.99231e-07 0 -3.60321e-05 -1.60633e-08 0 -3.59028e-05 4.34075e-07 0 -3.55552e-05 8.47129e-07 0 -3.50093e-05 1.22004e-06 0 -3.42865e-05 1.55078e-06 0 -3.34087e-05 1.83835e-06 0 -3.23982e-05 2.08276e-06 0 -3.12771e-05 2.28495e-06 0 -3.00664e-05 2.44668e-06 0 -2.87863e-05 2.5704e-06 0 -2.74554e-05 2.6591e-06 0 -2.60904e-05 2.71616e-06 0 -2.47066e-05 2.74518e-06 0 -2.33169e-05 2.74984e-06 0 -2.19325e-05 2.73378e-06 0 0 -3.49159e-06 0 -3.49793e-06 -3.47239e-06 0 -6.95734e-06 -3.41522e-06 0 -1.03405e-05 -3.32133e-06 0 -1.36115e-05 -3.19271e-06 0 -1.67366e-05 -3.03205e-06 0 -1.96852e-05 -2.84261e-06 0 -2.24302e-05 -2.62809e-06 0 -2.49484e-05 -2.39252e-06 0 -2.72209e-05 -2.14013e-06 0 -2.92329e-05 -1.87526e-06 0 -3.09742e-05 -1.60222e-06 0 -3.24387e-05 -1.32527e-06 0 -3.36247e-05 -1.0485e-06 0 -3.45344e-05 -7.75785e-07 0 -3.51738e-05 -5.10712e-07 0 -3.55523e-05 -2.56557e-07 0 -3.56824e-05 -1.62126e-08 0 -3.55793e-05 2.07848e-07 0 -3.52606e-05 4.13613e-07 0 -3.47456e-05 5.99562e-07 0 -3.40546e-05 7.64679e-07 0 -3.32092e-05 9.0846e-07 0 -3.22307e-05 1.03089e-06 0 -3.11405e-05 1.13242e-06 0 -2.99592e-05 1.21388e-06 0 -2.87065e-05 1.27648e-06 0 -2.74005e-05 1.32166e-06 0 -2.60579e-05 1.35108e-06 0 -2.46937e-05 1.3665e-06 0 -2.33209e-05 1.36974e-06 0 -2.19508e-05 1.36258e-06 0 0 -0 0 -3.47881e-06 -0 0 -6.91952e-06 -0 0 -1.02848e-05 -0 0 -1.35391e-05 -0 0 -1.6649e-05 -0 0 -1.95841e-05 -0 0 -2.23175e-05 -0 0 -2.48263e-05 -0 0 -2.70914e-05 -0 0 -2.90983e-05 -0 0 -3.08365e-05 -0 0 -3.23002e-05 -0 0 -3.34872e-05 -0 0 -3.43999e-05 -0 0 -3.50439e-05 -0 0 -3.54286e-05 -0 0 -3.55662e-05 -0 0 -3.54718e-05 -0 0 -3.51627e-05 -0 0 -3.46578e-05 -0 0 -3.39774e-05 -0 0 -3.31426e-05 -0 0 -3.21747e-05 -0 0 -3.10948e-05 -0 0 -2.99232e-05 -0 0 -2.86796e-05 -0 0 -2.73819e-05 -0 0 -2.60468e-05 -0 0 -2.46891e-05 -0 0 -2.33219e-05 -0 0 -2.19566e-05 -0 0 </DataArray> 
</PointData> 
<Points> 
<DataArray type="Float32" NumberOfComponents="3"> 