<?xml version="1.0"?> 
<VTKFile type="StructuredGrid" version="0.1"> 
<StructuredGrid WholeExtent="0 31 0 31 0 0"> 
<Piece Extent="0 31 0 31 0 0"> 
<PointData>
<DataArray type="Float32" Name="B" format="ascii" NumberOfComponents="3"> 
0 -0 0 -1.12646e-05 -0 0 -2.23028e-05 -0 0 -3.29033e-05 -0 0 -4.28821e-05 -0 0 -5.20897e-05 -0 0 -6.04135e-05 -0 0 -6.77755e-05 -0 0 -7.41272e-05 -0 0 -7.94446e-05 -0 0 -8.37213e-05 -0 0 -8.69648e-05 -0 0 -8.91927e-05 -0 0 -9.04308e-05 -0 0 -9.07132e-05 -0 0 -9.00833e-05 -0 0 -8.85953e-05 -0 0 -8.63171e-05 -0 0 -8.33319e-05 -0 0 -7.97385e-05 -0 0 -7.56503e-05 -0 0 -7.11908e-05 -0 0 -6.64871e-05 -0 0 -6.1663e-05 -0 0 -5.68308e-05 -0 0 -5.20863e-05 -0 0 -4.75055e-05 -0 0 -4.31442e-05 -0 0 -3.90391e-05 -0 0 -3.52113e-05 -0 0 -3.16686e-05 -0 0 -2.84094e-05 -0 0 0 7.5466e-06 0 -1.13153e-05 7.46982e-06 0 -2.24008e-05 7.24488e-06 0 -3.30424e-05 6.88655e-06 0 -4.30544e-05 6.41634e-06 0 -5.2287e-05 5.85883e-06 0 -6.06281e-05 5.23837e-06 0 -6.80005e-05 4.57672e-06 0 -7.43576e-05 3.89187e-06 0 -7.96761e-05 3.19772e-06 0 -8.39512e-05 2.50464e-06 0 -8.71908e-05 1.82025e-06 0 -8.94128e-05 1.1505e-06 0 -9.06434e-05 5.00682e-07 0 -9.09163e-05 -1.23604e-07 0 -9.02743e-05 -7.157e-07 0 -8.87713e-05 -1.26743e-06 0 -8.64747e-05 -1.76907e-06 0 -8.34674e-05 -2.20998e-06 0 -7.98488e-05 -2.57969e-06 0 -7.5733e-05 -2.86963e-06 0 -7.12449e-05 -3.07482e-06 0 -6.65136e-05 -3.19517e-06 0 -6.16643e-05 -3.23575e-06 0 -5.68108e-05 -3.20619e-06 0 -5.20493e-05 -3.11907e-06 0 -4.74563e-05 -2.98813e-06 0 -4.30868e-05 -2.82671e-06 0 -3.89772e-05 -2.64655e-06 0 -3.51477e-05 -2.45731e-06 0 -3.16054e-05 -2.26641e-06 0 -2.83482e-05 -2.07921e-06 0 0 1.51621e-05 0 -1.1469e-05 1.5006e-05 0 -2.26976e-05 1.45494e-05 0 -3.34632e-05 1.3823e-05 0 -4.35752e-05 1.28715e-05 0 -5.28825e-05 1.17455e-05 0 -6.12746e-05 1.04948e-05 0 -6.86782e-05 9.16355e-06 0 -7.50504e-05 7.78767e-06 0 -8.03722e-05 6.39482e-06 0 -8.46417e-05 5.00532e-06 0 -8.78693e-05 3.63395e-06 0 -9.0074e-05 2.29215e-06 0 -9.12821e-05 9.90078e-07 0 -9.15265e-05 -2.61429e-07 0 -9.08486e-05 -1.44925e-06 0 -8.93008e-05 -2.55705e-06 0 -8.69489e-05 -3.56515e-06 0 -8.38754e-05 -4.4517e-06 0 -8.01805e-05 -5.19503e-06 0 -7.59812e-05 -5.7772e-06 0 -7.14069e-05 -6.18767e-06 0 -6.6592e-05 -6.42603e-06 0 -6.16667e-05 -6.50284e-06 0 -5.67486e-05 -6.43802e-06 0 -5.19365e-05 -6.25757e-06 0 -4.73066e-05 -5.98973e-06 0 -4.29131e-05 -5.66163e-06 0 -3.87902e-05 -5.29702e-06 0 -3.49558e-05 -4.91524e-06 0 -3.14151e-05 -4.53107e-06 0 -2.81639e-05 -4.15505e-06 0 0 2.29172e-05 0 -1.17307e-05 2.26769e-05 0 -2.3202e-05 2.19746e-05 0 -3.41767e-05 2.08598e-05 0 -4.44559e-05 1.94041e-05 0 -5.38868e-05 1.76872e-05 0 -6.23624e-05 1.57867e-05 0 -6.98156e-05 1.37697e-05 0 -7.62111e-05 1.16906e-05 0 -8.15366e-05 9.59015e-06 0 -8.57959e-05 7.49775e-06 0 -8.90029e-05 5.43446e-06 0 -9.11787e-05 3.4162e-06 0 -9.23496e-05 1.45713e-06 0 -9.25472e-05 -4.27372e-07 0 -9.18106e-05 -2.21819e-06 0 -9.01887e-05 -3.89085e-06 0 -8.7745e-05 -5.41526e-06 0 -8.45606e-05 -6.75726e-06 0 -8.07372e-05 -7.88241e-06 0 -7.63966e-05 -8.76166e-06 0 -7.16757e-05 -9.37759e-06 0 -6.67186e-05 -9.72921e-06 0 -6.16647e-05 -9.83321e-06 0 -5.66383e-05 -9.72136e-06 0 -5.17415e-05 -9.43485e-06 0 -4.70508e-05 -9.01792e-06 0 -4.26181e-05 -8.51252e-06 0 -3.84743e-05 -7.95487e-06 0 -3.46331e-05 -7.37402e-06 0 -3.10959e-05 -6.79189e-06 0 -2.78554e-05 -6.22391e-06 0 0 3.08878e-05 0 -1.21085e-05 3.05549e-05 0 -2.39289e-05 2.95841e-05 0 -3.52016e-05 2.80486e-05 0 -4.57158e-05 2.60526e-05 0 -5.53175e-05 2.37101e-05 0 -6.39058e-05 2.11295e-05 0 -7.14239e-05 1.84028e-05 0 -7.78478e-05 1.56024e-05 0 -8.31752e-05 1.27814e-05 0 -8.74177e-05 9.97698e-06 0 -9.05948e-05 7.21485e-06 0 -9.273e-05 4.51401e-06 0 -9.38497e-05 1.89124e-06 0 -9.39834e-05 -6.3465e-07 0 -9.31663e-05 -3.0393e-06 0 -9.14425e-05 -5.2903e-06 0 -8.8871e-05 -7.34642e-06 0 -8.55306e-05 -9.15949e-06 0 -8.15244e-05 -1.06797e-05 0 -7.69809e-05 -1.1864e-05 0 -7.20492e-05 -1.2686e-05 0 -6.68875e-05 -1.31433e-05 0 -6.16492e-05 -1.326e-05 0 -5.6469e-05 -1.30825e-05 0 -5.14535e-05 -1.26699e-05 0 -4.66791e-05 -1.20851e-05 0 -4.2194e-05 -1.13862e-05 0 -3.80232e-05 -1.06226e-05 0 -3.41747e-05 -9.83304e-06 0 -3.06444e-05 -9.04611e-06 0 -2.74206e-05 -8.28161e-06 0 0 3.91568e-05 0 -1.26168e-05 3.87192e-05 0 -2.49028e-05 3.74462e-05 0 -3.65675e-05 3.54427e-05 0 -4.73851e-05 3.28546e-05 0 -5.72018e-05 2.9838e-05 0 -6.59274e-05 2.65361e-05 0 -7.35207e-05 2.30677e-05 0 -7.99734e-05 1.95226e-05 0 -8.52972e-05 1.59647e-05 0 -8.95142e-05 1.2437e-05 0 -9.26507e-05 8.9679e-06 0 -9.47336e-05 5.57724e-06 0 -9.57891e-05 2.28261e-06 0 -9.58436e-05 -8.95356e-07 0 -9.49265e-05 -3.92821e-06 0 -9.30751e-05 -6.77596e-06 0 -9.0341e-05 -9.38546e-06 0 -8.67987e-05 -1.16922e-05 0 -8.25523e-05 -1.36272e-05 0 -7.77394e-05 -1.51289e-05 0 -7.25248e-05 -1.6158e-05 0 -6.70893e-05 -1.67099e-05 0 -6.16065e-05 -1.68184e-05 0 -5.62247e-05 -1.65482e-05 0 -5.10569e-05 -1.59813e-05 0 -4.61777e-05 -1.52025e-05 0 -4.16292e-05 -1.42882e-05 0 -3.74282e-05 -1.33014e-05 0 -3.35745e-05 -1.22904e-05 0 -3.00566e-05 -1.12899e-05 0 -2.68567e-05 -1.03232e-05 0 0 4.7819e-05 0 -1.32722e-05 4.72585e-05 0 -2.61544e-05 4.56349e-05 0 -3.83118e-05 4.30971e-05 0 -4.95006e-05 3.98465e-05 0 -5.95715e-05 3.60911e-05 0 -6.8452e-05 3.20153e-05 0 -7.61234e-05 2.77652e-05 0 -8.25991e-05 2.34473e-05 0 -8.79091e-05 1.91338e-05 0 -9.20888e-05 1.48707e-05 0 -9.51728e-05 1.06859e-05 0 -9.71918e-05 6.59795e-06 0 -9.81714e-05 2.62258e-06 0 -9.81339e-05 -1.21991e-06 0 -9.71008e-05 -4.89864e-06 0 -9.5099e-05 -8.36685e-06 0 -9.21698e-05 -1.15588e-05 0 -8.83794e-05 -1.43906e-05 0 -8.38317e-05 -1.67686e-05 0 -7.86744e-05 -1.86057e-05 0 -7.30979e-05 -1.98441e-05 0 -6.7311e-05 -2.04754e-05 0 -6.15167e-05 -2.0546e-05 0 -5.58833e-05 -2.01458e-05 0 -5.05301e-05 -1.93865e-05 0 -4.5528e-05 -1.83793e-05 0 -4.0909e-05 -1.72215e-05 0 -3.66784e-05 -1.59902e-05 0 -3.28247e-05 -1.47426e-05 0 -2.93272e-05 -1.35182e-05 0 -2.61608e-05 -1.23429e-05 0 0 5.69852e-05 0 -1.41096e-05 5.62757e-05 0 -2.77386e-05 5.42327e-05 0 -4.04966e-05 5.10686e-05 0 -5.21223e-05 4.70612e-05 0 -6.24782e-05 4.24846e-05 0 -7.15208e-05 3.75698e-05 0 -7.92633e-05 3.2491e-05 0 -8.57483e-05 2.73686e-05 0 -9.10285e-05 2.22796e-05 0 -9.51552e-05 1.72689e-05 0 -9.8173e-05 1.23609e-05 0 -0.000100117 7.56886e-06 0 -0.000101011 2.90407e-06 0 -0.000100872 -1.61637e-06 0 -9.97112e-05 -5.96156e-06 0 -9.75416e-05 -1.00795e-05 0 -9.43883e-05 -1.38915e-05 0 -9.03045e-05 -1.72909e-05 0 -8.5389e-05 -2.01519e-05 0 -7.98034e-05 -2.23513e-05 0 -7.37651e-05 -2.38034e-05 0 -6.75335e-05 -2.44925e-05 0 -6.13526e-05 -2.44839e-05 0 -5.54148e-05 -2.39031e-05 0 -4.98453e-05 -2.2901e-05 0 -4.47065e-05 -2.1622e-05 0 -4.00153e-05 -2.01863e-05 0 -3.57606e-05 -1.86854e-05 0 -3.19164e-05 -1.71837e-05 0 -2.84505e-05 -1.57242e-05 0 -2.53294e-05 -1.43333e-05 0 0 6.6788e-05 0 -1.51527e-05 6.58935e-05 0 -2.97044e-05 6.33318e-05 0 -4.318e-05 5.94145e-05 0 -5.53011e-05 5.45265e-05 0 -6.59597e-05 4.90254e-05 0 -7.51566e-05 4.31943e-05 0 -8.29505e-05 3.72338e-05 0 -8.94208e-05 3.12734e-05 0 -9.46479e-05 2.53894e-05 0 -9.87019e-05 1.96209e-05 0 -0.000101638 1.39841e-05 0 -0.000103495 8.48356e-06 0 -0.000104297 3.12215e-06 0 -0.000104052 -2.08956e-06 0 -0.000102759 -7.12398e-06 0 -0.000100411 -1.19266e-05 0 -9.7011e-05 -1.64063e-05 0 -9.25901e-05 -2.04307e-05 0 -8.72365e-05 -2.38313e-05 0 -8.11206e-05 -2.64331e-05 0 -7.45151e-05 -2.81059e-05 0 -6.77315e-05 -2.88234e-05 0 -6.10765e-05 -2.86773e-05 0 -5.47792e-05 -2.78471e-05 0 -4.89666e-05 -2.65371e-05 0 -4.36846e-05 -2.49326e-05 0 -3.89269e-05 -2.31787e-05 0 -3.46601e-05 -2.13797e-05 0 -3.08399e-05 -1.96052e-05 0 -2.74207e-05 -1.78989e-05 0 -2.43592e-05 -1.62861e-05 0 0 7.74078e-05 0 -1.6502e-05 7.6262e-05 0 -3.21896e-05 7.30369e-05 0 -4.65021e-05 6.81901e-05 0 -5.91647e-05 6.226e-05 0 -7.01221e-05 5.57083e-05 0 -7.94457e-05 4.88726e-05 0 -8.72543e-05 4.19736e-05 0 -9.36738e-05 3.51423e-05 0 -9.88164e-05 2.84467e-05 0 -0.000102773 2.19138e-05 0 -0.00010561 1.55467e-05 0 -0.000107371 9.33682e-06 0 -0.000108077 3.27463e-06 0 -0.000107727 -2.64006e-06 0 -0.000106304 -8.38744e-06 0 -0.000103777 -1.39147e-05 0 -0.000100119 -1.91216e-05 0 -9.53243e-05 -2.38469e-05 0 -8.94545e-05 -2.78683e-05 0 -8.26937e-05 -3.09334e-05 0 -7.53495e-05 -3.28424e-05 0 -6.78654e-05 -3.35422e-05 0 -6.06362e-05 -3.31763e-05 0 -5.39236e-05 -3.20029e-05 0 -4.78493e-05 -3.0302e-05 0 -4.24284e-05 -2.83073e-05 0 -3.76198e-05 -2.61894e-05 0 -3.3361e-05 -2.40618e-05 0 -2.95854e-05 -2.19954e-05 0 -2.62321e-05 -2.00314e-05 0 -2.32475e-05 -1.8191e-05 0 0 8.90381e-05 0 -1.81551e-05 8.75744e-05 0 -3.52338e-05 8.34653e-05 0 -5.05054e-05 7.74425e-05 0 -6.37251e-05 7.02628e-05 0 -7.4947e-05 6.25113e-05 0 -8.43417e-05 5.45742e-05 0 -9.21083e-05 4.66801e-05 0 -9.84267e-05 3.89488e-05 0 -0.000103445 3.14303e-05 0 -0.000107274 2.41325e-05 0 -0.000109993 1.70395e-05 0 -0.000111648 1.01249e-05 0 -0.000112258 3.36265e-06 0 -0.000111811 -3.26317e-06 0 -0.000110272 -9.74608e-06 0 -0.000107582 -1.60419e-05 0 -0.000103669 -2.2047e-05 0 -9.84746e-05 -2.75741e-05 0 -9.20153e-05 -3.23325e-05 0 -8.44516e-05 -3.59568e-05 0 -7.62291e-05 -3.812e-05 0 -6.78834e-05 -3.87436e-05 0 -5.9957e-05 -3.80341e-05 0 -5.27787e-05 -3.63906e-05 0 -4.64388e-05 -3.41937e-05 0 -4.08988e-05 -3.17338e-05 0 -3.60685e-05 -2.9202e-05 0 -3.18473e-05 -2.67151e-05 0 -2.81437e-05 -2.43392e-05 0 -2.488e-05 -2.21082e-05 0 -2.19926e-05 -2.00366e-05 0 0 0.000102084 0 -2.04794e-05 0.000100077 0 -3.92666e-05 9.47449e-05 0 -5.55855e-05 8.71987e-05 0 -6.93347e-05 7.85089e-05 0 -8.07372e-05 6.93883e-05 0 -9.01139e-05 6.02512e-05 0 -9.77572e-05 5.13107e-05 0 -0.000103909 4.26584e-05 0 -0.000108752 3.43146e-05 0 -0.00011242 2.62596e-05 0 -0.000115 1.84529e-05 0 -0.000116542 1.08459e-05 0 -0.00011706 3.39116e-06 0 -0.000116533 -3.9477e-06 0 -0.000114905 -1.11848e-05 0 -0.000112084 -1.82935e-05 0 -0.000107943 -2.51795e-05 0 -0.000102353 -3.1637e-05 0 -9.52245e-05 -3.73032e-05 0 -8.66969e-05 -4.1642e-05 0 -7.71974e-05 -4.41225e-05 0 -6.76895e-05 -4.45415e-05 0 -5.89344e-05 -4.33077e-05 0 -5.12543e-05 -4.10174e-05 0 -4.467e-05 -3.81973e-05 0 -3.90538e-05 -3.51881e-05 0 -3.42467e-05 -3.21921e-05 0 -3.01044e-05 -2.93174e-05 0 -2.65073e-05 -2.66175e-05 0 -2.33615e-05 -2.41137e-05 0 -2.05938e-05 -2.18098e-05 0 0 0.000116768 0 -2.32263e-05 0.000114118 0 -4.40765e-05 0.000106995 0 -6.14812e-05 9.74441e-05 0 -7.56366e-05 8.69304e-05 0 -8.70777e-05 7.62624e-05 0 -9.6302e-05 6.58344e-05 0 -0.000103716 5.58096e-05 0 -0.000109619 4.62289e-05 0 -0.00011423 3.70695e-05 0 -0.000117697 2.82759e-05 0 -0.000120116 1.97777e-05 0 -0.000121538 1.14997e-05 0 -0.000121974 3.36947e-06 0 -0.000121392 -4.6755e-06 0 -0.000119717 -1.26768e-05 0 -0.000116819 -2.06387e-05 0 -0.000112518 -2.84925e-05 0 -0.000106566 -3.60433e-05 0 -9.87476e-05 -4.28579e-05 0 -8.89845e-05 -4.81767e-05 0 -7.8075e-05 -5.10186e-05 0 -6.71594e-05 -5.11015e-05 0 -5.74123e-05 -4.90375e-05 0 -4.92361e-05 -4.58723e-05 0 -4.24703e-05 -4.22759e-05 0 -3.68497e-05 -3.86323e-05 0 -3.21313e-05 -3.51252e-05 0 -2.81204e-05 -3.18405e-05 0 -2.46715e-05 -2.88078e-05 0 -2.16756e-05 -2.60299e-05 0 -1.90528e-05 -2.34966e-05 0 0 0.000134506 0 -2.80064e-05 0.000130134 0 -5.12868e-05 0.00012029 0 -6.9613e-05 0.000108081 0 -8.39409e-05 9.53995e-05 0 -9.51859e-05 8.30184e-05 0 -0.000104083 7.12324e-05 0 -0.000111133 6.01078e-05 0 -0.000116694 4.96106e-05 0 -0.000121005 3.96611e-05 0 -0.000124229 3.01608e-05 0 -0.000126465 2.10047e-05 0 -0.000127763 1.20884e-05 0 -0.000128131 3.31074e-06 0 -0.000127527 -5.42033e-06 0 -0.000125859 -1.41833e-05 0 -0.000122972 -2.30238e-05 0 -0.000118609 -3.19305e-05 0 -0.000112428 -4.07526e-05 0 -0.000103922 -4.90654e-05 0 -9.27608e-05 -5.58392e-05 0 -7.91423e-05 -5.93713e-05 0 -6.6e-05 -5.85881e-05 0 -5.51751e-05 -5.52481e-05 0 -4.65867e-05 -5.08954e-05 0 -3.97626e-05 -4.63688e-05 0 -3.42484e-05 -4.20092e-05 0 -2.97033e-05 -3.79575e-05 0 -2.58891e-05 -3.425e-05 0 -2.26355e-05 -3.08842e-05 0 -1.98253e-05 -2.78373e-05 0 -1.73735e-05 -2.50817e-05 0 0 0.00015521 0 -3.32463e-05 0.000148765 0 -5.89531e-05 0.000134511 0 -7.77877e-05 0.000118883 0 -9.18294e-05 0.000103709 0 -0.000102577 8.95e-05 0 -0.000110916 7.63313e-05 0 -0.000117451 6.41249e-05 0 -0.000122561 5.27479e-05 0 -0.000126503 4.20528e-05 0 -0.00012944 3.18925e-05 0 -0.000131471 2.21255e-05 0 -0.000132643 1.26155e-05 0 -0.000132959 3.23276e-06 0 -0.000132373 -6.15075e-06 0 -0.000130786 -1.56499e-05 0 -0.000128007 -2.53775e-05 0 -0.000123763 -3.53837e-05 0 -0.000117528 -4.5671e-05 0 -0.000108638 -5.58863e-05 0 -9.57631e-05 -6.49751e-05 0 -7.94681e-05 -6.94511e-05 0 -6.38083e-05 -6.72718e-05 0 -5.1913e-05 -6.18233e-05 0 -4.31575e-05 -5.59905e-05 0 -3.64816e-05 -5.03678e-05 0 -3.12198e-05 -4.5249e-05 0 -2.69559e-05 -4.06324e-05 0 -2.34101e-05 -3.65077e-05 0 -2.04051e-05 -3.28182e-05 0 -1.78163e-05 -2.95154e-05 0 -1.55624e-05 -2.65505e-05 0 0 0.000187541 0 -4.61224e-05 0.000170219 0 -7.31967e-05 0.000149149 0 -9.14781e-05 0.000129428 0 -0.000104652 0.000111571 0 -0.000114485 9.55118e-05 0 -0.000122019 8.1e-05 0 -0.000127866 6.77728e-05 0 -0.000132418 5.55823e-05 0 -0.000135919 4.42071e-05 0 -0.000138526 3.345e-05 0 -0.00014033 2.31322e-05 0 -0.000141375 1.30868e-05 0 -0.000141658 3.15428e-06 0 -0.000141138 -6.82664e-06 0 -0.000139701 -1.70182e-05 0 -0.000137183 -2.75925e-05 0 -0.000133209 -3.87207e-05 0 -0.000127368 -5.05465e-05 0 -0.000118363 -6.31399e-05 0 -0.000104807 -7.60146e-05 0 -8.01824e-05 -8.4181e-05 0 -5.94775e-05 -7.687e-05 0 -4.73185e-05 -6.86177e-05 0 -3.88204e-05 -6.09106e-05 0 -3.25815e-05 -5.41607e-05 0 -2.77593e-05 -4.8251e-05 0 -2.38911e-05 -4.30929e-05 0 -2.06961e-05 -3.85699e-05 0 -1.79903e-05 -3.45814e-05 0 -1.56608e-05 -3.10436e-05 0 -1.36293e-05 -2.78879e-05 0 0 0.000231957 0 -4.37089e-05 0.000192137 0 -6.85357e-05 0.000163122 0 -8.48524e-05 0.000139102 0 -9.63816e-05 0.000118633 0 -0.000104873 0.000100834 0 -0.000111331 8.50993e-05 0 -0.000116324 7.09614e-05 0 -0.000120209 5.80555e-05 0 -0.000123202 4.60876e-05 0 -0.00012544 3.4813e-05 0 -0.000126998 2.40175e-05 0 -0.000127915 1.35092e-05 0 -0.000128186 3.09478e-06 0 -0.000127774 -7.40494e-06 0 -0.000126574 -1.82247e-05 0 -0.000124437 -2.95453e-05 0 -0.000121005 -4.17705e-05 0 -0.000115883 -5.50171e-05 0 -0.000107775 -7.02523e-05 0 -9.52709e-05 -8.78008e-05 0 -7.17807e-05 -0.000102989 0 -5.22133e-05 -8.62262e-05 0 -4.11097e-05 -7.52248e-05 0 -3.35323e-05 -6.53408e-05 0 -2.80668e-05 -5.76065e-05 0 -2.38818e-05 -5.09043e-05 0 -2.05347e-05 -4.52789e-05 0 -1.77662e-05 -4.03919e-05 0 -1.54114e-05 -3.61466e-05 0 -1.33735e-05 -3.24026e-05 0 -1.15871e-05 -2.90797e-05 0 0 0.000260982 0 -2.58942e-05 0.000210433 0 -4.48065e-05 0.000174929 0 -5.7735e-05 0.000147241 0 -6.68507e-05 0.000124515 0 -7.35921e-05 0.000105247 0 -7.87189e-05 8.84938e-05 0 -8.27092e-05 7.3606e-05 0 -8.5832e-05 6.01145e-05 0 -8.82596e-05 4.76619e-05 0 -9.00927e-05 3.59635e-05 0 -9.13908e-05 2.47767e-05 0 -9.21797e-05 1.38869e-05 0 -9.24585e-05 3.07811e-06 0 -9.21917e-05 -7.85467e-06 0 -9.13101e-05 -1.91863e-05 0 -8.96657e-05 -3.1151e-05 0 -8.70402e-05 -4.42709e-05 0 -8.29584e-05 -5.88129e-05 0 -7.6773e-05 -7.61928e-05 0 -6.70777e-05 -9.73532e-05 0 -5.42554e-05 -0.000116163 0 -4.20568e-05 -9.43394e-05 0 -3.33483e-05 -8.06918e-05 0 -2.73596e-05 -6.91322e-05 0 -2.29988e-05 -6.04645e-05 0 -1.9639e-05 -5.31413e-05 0 -1.69288e-05 -4.71143e-05 0 -1.4654e-05 -4.19414e-05 0 -1.26948e-05 -3.74861e-05 0 -1.09748e-05 -3.35768e-05 0 -9.45148e-06 -3.01172e-05 0 0 0.000275042 0 -1.55086e-05 0.000222646 0 -2.72978e-05 0.000183449 0 -3.57373e-05 0.000153231 0 -4.18927e-05 0.000128885 0 -4.65235e-05 0.000108558 0 -5.01328e-05 9.10682e-05 0 -5.29959e-05 7.5636e-05 0 -5.52862e-05 6.17152e-05 0 -5.71023e-05 4.89035e-05 0 -5.85063e-05 3.68875e-05 0 -5.95317e-05 2.54053e-05 0 -6.01945e-05 1.4226e-05 0 -6.0493e-05 3.11968e-06 0 -6.04081e-05 -8.1399e-06 0 -5.98935e-05 -1.98496e-05 0 -5.88691e-05 -3.22969e-05 0 -5.71776e-05 -4.60599e-05 0 -5.45762e-05 -6.1568e-05 0 -5.06075e-05 -8.03631e-05 0 -4.48513e-05 -0.000103463 0 -3.7136e-05 -0.000123094 0 -2.98863e-05 -0.000100005 0 -2.44484e-05 -8.45982e-05 0 -2.04837e-05 -7.19721e-05 0 -1.74962e-05 -6.26061e-05 0 -1.51192e-05 -5.48641e-05 0 -1.31306e-05 -4.85514e-05 0 -1.14061e-05 -4.31842e-05 0 -9.87208e-06 -3.85813e-05 0 -8.49043e-06 -3.45539e-05 0 -7.24087e-06 -3.09916e-05 0 0 0.000282291 0 -5.00426e-06 0.000228807 0 -9.40719e-06 0.000188096 0 -1.29165e-05 0.000156665 0 -1.57278e-05 0.000131506 0 -1.80568e-05 0.000110627 0 -2.00176e-05 9.27403e-05 0 -2.16855e-05 7.70015e-05 0 -2.30974e-05 6.28275e-05 0 -2.4277e-05 4.97943e-05 0 -2.52363e-05 3.75754e-05 0 -2.59827e-05 2.59001e-05 0 -2.65194e-05 1.45308e-05 0 -2.68469e-05 3.23044e-06 0 -2.69611e-05 -8.23529e-06 0 -2.68539e-05 -2.01767e-05 0 -2.65035e-05 -3.29012e-05 0 -2.58791e-05 -4.70248e-05 0 -2.49025e-05 -6.30316e-05 0 -2.34961e-05 -8.25303e-05 0 -2.15023e-05 -0.000106451 0 -1.92621e-05 -0.000126509 0 -1.69311e-05 -0.000102862 0 -1.48743e-05 -8.67643e-05 0 -1.31836e-05 -7.36275e-05 0 -1.17328e-05 -6.39438e-05 0 -1.04292e-05 -5.60012e-05 0 -9.21946e-06 -4.95579e-05 0 -8.0741e-06 -4.40973e-05 0 -6.9834e-06 -3.94207e-05 0 -5.94747e-06 -3.5327e-05 0 -4.97526e-06 -3.16992e-05 0 0 0.000282724 0 4.12123e-06 0.000229187 0 7.07524e-06 0.00018867 0 8.64333e-06 0.000157364 0 9.24654e-06 0.000132262 0 9.28282e-06 0.000111387 0 8.99532e-06 9.34712e-05 0 8.5421e-06 7.76797e-05 0 8.01665e-06 6.34376e-05 0 7.47978e-06 5.03263e-05 0 6.96782e-06 3.8023e-05 0 6.50213e-06 2.62601e-05 0 6.09137e-06 1.48027e-05 0 5.73381e-06 3.41606e-06 0 5.41553e-06 -8.13093e-06 0 5.10966e-06 -2.01463e-05 0 4.76527e-06 -3.29314e-05 0 4.30551e-06 -4.7099e-05 0 3.58584e-06 -6.31186e-05 0 2.42525e-06 -8.25997e-05 0 5.69275e-07 -0.000106476 0 -1.66556e-06 -0.000126583 0 -3.76114e-06 -0.000103006 0 -5.1419e-06 -8.70606e-05 0 -5.77863e-06 -7.40262e-05 0 -5.90481e-06 -6.44197e-05 0 -5.70021e-06 -5.65259e-05 0 -5.27969e-06 -5.01159e-05 0 -4.71907e-06 -4.46732e-05 0 -4.07034e-06 -4.00008e-05 0 -3.3767e-06 -3.58961e-05 0 -2.67605e-06 -3.22413e-05 0 0 0.000275556 0 1.45969e-05 0.000223801 0 2.48901e-05 0.000185196 0 3.12876e-05 0.000155364 0 3.51484e-05 0.000131176 0 3.74331e-05 0.000110855 0 3.87568e-05 9.32709e-05 0 3.94747e-05 7.76772e-05 0 3.9811e-05 6.35501e-05 0 3.99002e-05 5.05023e-05 0 3.98268e-05 3.82317e-05 0 3.96377e-05 2.64855e-05 0 3.9354e-05 1.50406e-05 0 3.89718e-05 3.67478e-06 0 3.84624e-05 -7.83081e-06 0 3.77626e-05 -1.97626e-05 0 3.67625e-05 -3.23975e-05 0 3.52686e-05 -4.62914e-05 0 3.29622e-05 -6.18517e-05 0 2.93063e-05 -8.05766e-05 0 2.36644e-05 -0.000103514 0 1.60159e-05 -0.000123088 0 8.99935e-06 -0.000100465 0 4.26053e-06 -8.54888e-05 0 1.40311e-06 -7.3191e-05 0 -2.21205e-07 -6.40407e-05 0 -1.06407e-06 -5.64477e-05 0 -1.40179e-06 -5.02309e-05 0 -1.40221e-06 -4.49184e-05 0 -1.17739e-06 -4.03282e-05 0 -8.08671e-07 -3.62683e-05 0 -3.6398e-07 -3.26255e-05 0 0 0.000261966 0 2.6576e-05 0.000212247 0 4.37818e-05 0.000177984 0 5.44148e-05 0.000150904 0 6.10756e-05 0.000128408 0 6.5363e-05 0.000109124 0 6.81351e-05 9.21974e-05 0 6.99327e-05 7.703e-05 0 7.10699e-05 6.31872e-05 0 7.17499e-05 5.03356e-05 0 7.20937e-05 3.82084e-05 0 7.21727e-05 2.65777e-05 0 7.20171e-05 1.52418e-05 0 7.16235e-05 3.99612e-06 0 7.09485e-05 -7.3501e-06 0 6.99053e-05 -1.90601e-05 0 6.83264e-05 -3.13423e-05 0 6.59481e-05 -4.47013e-05 0 6.22677e-05 -5.93373e-05 0 5.64862e-05 -7.662e-05 0 4.70683e-05 -9.73758e-05 0 3.31849e-05 -0.000116085 0 2.06724e-05 -9.50785e-05 0 1.28215e-05 -8.22607e-05 0 8.04868e-06 -7.12058e-05 0 5.12645e-06 -6.28947e-05 0 3.35158e-06 -5.58026e-05 0 2.33019e-06 -4.9935e-05 0 1.81533e-06 -4.48516e-05 0 1.65279e-06 -4.04202e-05 0 1.72574e-06 -3.64583e-05 0 1.94044e-06 -3.28626e-05 0 0 0.000229447 0 4.27185e-05 0.000194983 0 6.50613e-05 0.000167736 0 7.86814e-05 0.000144469 0 8.75264e-05 0.000124232 0 9.34159e-05 0.00010636 0 9.74211e-05 9.03499e-05 0 0.000100154 7.57995e-05 0 0.000102009 6.2387e-05 0 0.000103225 4.98492e-05 0 0.000103956 3.79651e-05 0 0.000104289 2.65405e-05 0 0.000104264 1.53996e-05 0 0.000103875 4.36696e-06 0 0.000103078 -6.72328e-06 0 0.000101751 -1.80799e-05 0 9.97329e-05 -2.98727e-05 0 9.66282e-05 -4.24419e-05 0 9.20342e-05 -5.59009e-05 0 8.45497e-05 -7.09941e-05 0 7.27669e-05 -8.78415e-05 0 4.91258e-05 -0.000101719 0 2.9993e-05 -8.75664e-05 0 2.0085e-05 -7.75158e-05 0 1.38991e-05 -6.83815e-05 0 9.97526e-06 -6.10625e-05 0 7.44409e-06 -5.46858e-05 0 5.83863e-06 -4.92659e-05 0 4.88029e-06 -4.45093e-05 0 4.37801e-06 -4.03008e-05 0 4.19846e-06 -3.64888e-05 0 4.22011e-06 -3.29754e-05 0 0 0.000187942 0 4.00091e-05 0.000175144 0 6.34885e-05 0.000155743 0 7.8626e-05 0.00013671 0 8.88387e-05 0.00011901 0 9.59013e-05 0.000102774 0 0.000100862 8.78576e-05 0 0.000104368 7.40662e-05 0 0.000106832 6.12002e-05 0 0.00010852 4.90738e-05 0 0.000109599 3.75182e-05 0 0.000110169 2.63783e-05 0 0.000110276 1.55074e-05 0 0.000109916 4.76656e-06 0 0.000109038 -5.98771e-06 0 0.000107521 -1.68905e-05 0 0.000105179 -2.80965e-05 0 0.000101642 -3.97187e-05 0 9.64414e-05 -5.18837e-05 0 8.83951e-05 -6.44731e-05 0 7.60589e-05 -7.68137e-05 0 5.45019e-05 -8.40033e-05 0 3.6274e-05 -7.90915e-05 0 2.56977e-05 -7.18819e-05 0 1.88024e-05 -6.49782e-05 0 1.42216e-05 -5.8718e-05 0 1.11313e-05 -5.31875e-05 0 9.06773e-06 -4.82859e-05 0 7.74264e-06 -4.3932e-05 0 6.9622e-06 -4.00037e-05 0 6.58117e-06 -3.639e-05 0 6.45908e-06 -3.29866e-05 0 0 0.00016286 0 2.75637e-05 0.000156711 0 4.90741e-05 0.000143488 0 6.43453e-05 0.000128303 0 7.51701e-05 0.000113133 0 8.29583e-05 9.85977e-05 0 8.85954e-05 8.48657e-05 0 9.26949e-05 7.19227e-05 0 9.56528e-05 5.96854e-05 0 9.77384e-05 4.80455e-05 0 9.91228e-05 3.68873e-05 0 9.99105e-05 2.60959e-05 0 0.00010015 1.55591e-05 0 9.98413e-05 5.16857e-06 0 9.89317e-05 -5.17947e-06 0 9.7314e-05 -1.55791e-05 0 9.47871e-05 -2.61083e-05 0 9.10689e-05 -3.67945e-05 0 8.56392e-05 -4.75704e-05 0 7.78804e-05 -5.80606e-05 0 6.66467e-05 -6.71483e-05 0 5.29197e-05 -7.19815e-05 0 3.96962e-05 -7.06755e-05 0 2.97028e-05 -6.62761e-05 0 2.27224e-05 -6.11628e-05 0 1.78196e-05 -5.60987e-05 0 1.43707e-05 -5.13827e-05 0 1.19745e-05 -4.7074e-05 0 1.03646e-05 -4.31598e-05 0 9.36948e-06 -3.95697e-05 0 8.84803e-06 -3.61989e-05 0 8.64714e-06 -3.29381e-05 0 0 0.000145101 0 2.29283e-05 0.000141316 0 4.18067e-05 0.000131899 0 5.62871e-05 0.000119842 0 6.71546e-05 0.00010695 0 7.52592e-05 9.40567e-05 0 8.13167e-05 8.15197e-05 0 8.58316e-05 6.94642e-05 0 8.91688e-05 5.79051e-05 0 9.15761e-05 4.68031e-05 0 9.32206e-05 3.60935e-05 0 9.42041e-05 2.57007e-05 0 9.45767e-05 1.55458e-05 0 9.43407e-05 5.55249e-06 0 9.34516e-05 -4.34793e-06 0 9.18081e-05 -1.42073e-05 0 8.92472e-05 -2.4046e-05 0 8.55111e-05 -3.38173e-05 0 8.02624e-05 -4.33457e-05 0 7.30352e-05 -5.21737e-05 0 6.35858e-05 -5.93384e-05 0 5.21441e-05 -6.33151e-05 0 4.12217e-05 -6.34383e-05 0 3.24147e-05 -6.09336e-05 0 2.57307e-05 -5.72941e-05 0 2.07808e-05 -5.33169e-05 0 1.71528e-05 -4.93926e-05 0 1.45342e-05 -4.56838e-05 0 1.27168e-05 -4.22419e-05 0 1.15642e-05 -3.9037e-05 0 1.09706e-05 -3.59639e-05 0 1.07764e-05 -3.28666e-05 0 0 0.000131124 0 1.83784e-05 0.000128433 0 3.47309e-05 0.0001214 0 4.80738e-05 0.000111704 0 5.85584e-05 0.000100744 0 6.66812e-05 8.93464e-05 0 7.29277e-05 7.7954e-05 0 7.77024e-05 6.67824e-05 0 8.13081e-05 5.59202e-05 0 8.39652e-05 4.53857e-05 0 8.58245e-05 3.51588e-05 0 8.6982e-05 2.51998e-05 0 8.74864e-05 1.54611e-05 0 8.73436e-05 5.89592e-06 0 8.65167e-05 -3.53287e-06 0 8.49243e-05 -1.28416e-05 0 8.24312e-05 -2.20067e-05 0 7.88524e-05 -3.09345e-05 0 7.39462e-05 -3.94036e-05 0 6.75099e-05 -4.69859e-05 0 5.94926e-05 -5.29658e-05 0 5.06077e-05 -5.65237e-05 0 4.1822e-05 -5.73443e-05 0 3.4149e-05 -5.60578e-05 0 2.79708e-05 -5.35522e-05 0 2.31622e-05 -5.05011e-05 0 1.94899e-05 -4.73009e-05 0 1.67432e-05 -4.41711e-05 0 1.47745e-05 -4.12146e-05 0 1.35082e-05 -3.84425e-05 0 1.2909e-05 -3.57402e-05 0 1.284e-05 -3.28729e-05 0 0 0.000119538 0 1.5613e-05 0.000117556 0 2.97928e-05 0.000112052 0 4.1865e-05 0.000104099 0 5.17467e-05 9.47127e-05 0 5.96597e-05 8.46224e-05 0 6.59198e-05 7.42839e-05 0 7.08185e-05 6.39596e-05 0 7.45966e-05 5.37878e-05 0 7.74364e-05 4.38306e-05 0 7.94687e-05 3.41046e-05 0 8.07788e-05 2.46011e-05 0 8.14123e-05 1.52998e-05 0 8.13784e-05 6.17992e-06 0 8.06509e-05 -2.76931e-06 0 7.9167e-05 -1.15358e-05 0 7.68292e-05 -2.0067e-05 0 7.35068e-05 -2.8243e-05 0 6.90658e-05 -3.58412e-05 0 6.34154e-05 -4.2495e-05 0 5.66717e-05 -4.77059e-05 0 4.9208e-05 -5.0987e-05 0 4.18348e-05 -5.22112e-05 0 3.52027e-05 -5.17016e-05 0 2.95974e-05 -5.00405e-05 0 2.50399e-05 -4.77407e-05 0 2.14201e-05 -4.51728e-05 0 1.86099e-05 -4.25765e-05 0 1.65232e-05 -4.00995e-05 0 1.51523e-05 -3.7807e-05 0 1.45917e-05 -3.55994e-05 0 1.48478e-05 -3.30291e-05 0 0 0.000109862 0 1.32076e-05 0.000108259 0 2.55253e-05 0.000103789 0 3.63566e-05 9.71129e-05 0 4.55168e-05 8.89796e-05 0 5.30787e-05 7.99987e-05 0 5.9219e-05 7.06011e-05 0 6.41356e-05 6.1065e-05 0 6.8005e-05 5.15577e-05 0 7.09701e-05 4.21715e-05 0 7.31376e-05 3.2951e-05 0 7.45802e-05 2.39125e-05 0 7.53389e-05 1.50584e-05 0 7.54257e-05 6.38923e-06 0 7.48248e-05 -2.0847e-06 0 7.34941e-05 -1.03311e-05 0 7.13683e-05 -1.82792e-05 0 6.837e-05 -2.5801e-05 0 6.44308e-05 -3.26885e-05 0 5.95477e-05 -3.86462e-05 0 5.38467e-05 -4.33192e-05 0 4.76871e-05 -4.64157e-05 0 4.15164e-05 -4.7853e-05 0 3.57815e-05 -4.78554e-05 0 3.07522e-05 -4.68023e-05 0 2.65006e-05 -4.50932e-05 0 2.2992e-05 -4.30523e-05 0 2.016e-05 -4.09249e-05 0 1.79588e-05 -3.88962e-05 0 1.64386e-05 -3.71117e-05 0 1.58722e-05 -3.56036e-05 0 1.67433e-05 -3.36899e-05 0 0 0.000101581 0 1.13416e-05 0.000100271 0 2.2057e-05 9.65064e-05 0 3.1715e-05 9.07668e-05 0 4.01164e-05 8.36134e-05 0 4.72425e-05 7.55521e-05 0 5.31743e-05 6.6974e-05 0 5.80293e-05 5.81537e-05 0 6.19265e-05 4.92712e-05 0 6.49696e-05 4.04372e-05 0 6.72402e-05 3.17158e-05 0 6.8797e-05 2.31418e-05 0 6.96757e-05 1.47352e-05 0 6.98903e-05 6.51301e-06 0 6.94351e-05 -1.49927e-06 0 6.82866e-05 -9.2557e-06 0 6.64094e-05 -1.66768e-05 0 6.3766e-05 -2.36353e-05 0 6.03387e-05 -2.99462e-05 0 5.61619e-05 -3.53694e-05 0 5.13679e-05 -3.96486e-05 0 4.61973e-05 -4.25856e-05 0 4.09849e-05 -4.41475e-05 0 3.60375e-05 -4.44757e-05 0 3.15552e-05 -4.38524e-05 0 2.76305e-05 -4.25881e-05 0 2.42633e-05 -4.09674e-05 0 2.1436e-05 -3.9227e-05 0 1.91006e-05 -3.75834e-05 0 1.73309e-05 -3.62594e-05 0 1.64184e-05 -3.57041e-05 0 1.86519e-05 -3.56155e-05 0 0 9.45215e-05 0 9.73602e-06 9.33825e-05 0 1.90469e-05 9.01066e-05 0 2.7617e-05 8.50453e-05 0 3.52628e-05 7.86442e-05 0 4.19134e-05 7.1329e-05 0 4.75823e-05 6.34496e-05 0 5.23218e-05 5.52665e-05 0 5.62004e-05 4.69607e-05 0 5.92848e-05 3.86514e-05 0 6.16325e-05 3.04143e-05 0 6.32877e-05 2.22966e-05 0 6.42802e-05 1.43305e-05 0 6.46254e-05 6.54458e-06 0 6.43265e-05 -1.02567e-06 0 6.33768e-05 -8.32679e-06 0 6.17658e-05 -1.52767e-05 0 5.94876e-05 -2.17545e-05 0 5.65588e-05 -2.75965e-05 0 5.30324e-05 -3.2605e-05 0 4.90309e-05 -3.65819e-05 0 4.47168e-05 -3.93857e-05 0 4.03334e-05 -4.09946e-05 0 3.60743e-05 -4.15214e-05 0 3.21145e-05 -4.11852e-05 0 2.84924e-05 -4.02389e-05 0 2.53266e-05 -3.89321e-05 0 2.24352e-05 -3.74944e-05 0 2.0107e-05 -3.61107e-05 0 1.77283e-05 -3.51702e-05 0 1.60498e-05 -3.4867e-05 0 1.81406e-05 -4.29247e-05 0 </DataArray> 
</PointData> 
<Points> 
<DataArray type="Float32" NumberOfComponents="3"> 