<?xml version="1.0"?> 
<VTKFile type="StructuredGrid" version="0.1"> 
<StructuredGrid WholeExtent="0 31 0 31 0 0"> 
<Piece Extent="0 31 0 31 0 0"> 
<PointData>
<DataArray type="Float32" Name="u" format="ascii" NumberOfComponents="3"> 
0.00106618 -7.12747e-05 0 0 0 0 0 0 0 0 0 0 0 0 0 0 0 0 0 0 0 0 0 0 0 0 0 0 0 0 0 0 0 0 0 0 0 0 0 0 0 0 0 0 0 0 0 0 0 0 0 0 0 0 0 0 0 0 0 0 0 0 0 0 0 0 0 0 0 0 0 0 0 0 0 0 0 0 0 0 0 0 0 0 0 0 0 0 0 0 0 0 0 0 0 0 0 0 0 0 0 0 0 0 0 0 0 0 0 0 0 0 0 0 0 0 0 0 0 0 0 0 0 0 0 0 0 0 0 0 0 0 0 0 0 0 0 0 0 0 0 0 0 0 0 0 0 0 0 0 0 0 0 0 0 0 0 0 0 0 0 0 0 0 0 0 0 0 0 0 0 0 0 0 0 0 0 0 0 0 0 0 0 0 0 0 0 0 0 0 0 0 0 0 0 0 0 0 0 0 0 0 0 0 0 0 0 0 0 0 0 0 0 0 0 0 0 0 0 0 0 0 0 0 0 0 0 0 0 0 0 0 0 0 0 0 0 0 0 0 0 0 0 0 0 0 0 0 0 0 0 0 0 0 0 0 0 0 0 0 0 0 0 0 0 0 0 0 0 0 0 0 0 0 0 0 0 0 0 0 0 0 0 0 0 0 0 0 0 0 0 0 0 0 0 0 0 0 0 0 0 0 0 0 0 0 0 0 0 0 0 0 0 0 0 0 0 0 0 0 0 0 0 0 0 0 0 0 0 0 0 0 0 0 0 0 0 0 0 0 0 0 0 0 0 0 0 0 0 0 0 0 0 0 0 0 0 0 0 0 0 0 0 0 0 0 0 0 0 0 0 0 0 0 0 0 0 0 0 0 0 0 0 0 0 0 0 0 0 0 0 0 0 0 0 0 0 0 0 0 0 0 0 0 0 0 0 0 0 0 0 0 0 0 0 0 0 0 0 0 0 0 0 0 0 0 0 0 0 0 0 0 0 0 0 0 0 0 0 0 0 0 0 0 0 0 0 0 0 0 0 0 0 0 0 0 0 0 0 0 0 0 0 0 0 0 0 0 0 0 0 0 0 0 0 0 0 0 0 0 0 0 0 0 0 0 0 0 0 0 0 0 0 0 0 0 0 0 0 0 0 0 0 0 0 0 0 0 0 0 0 0 0 0 0 0 0 0 0 0 0 0 0 0 0 0 0 0 0 0 0 0 0 0 0 0 0 0 0 0 0 0 0 0 0 0 0 0 0 0 0 0 0 0 0 0 0 0 0 0 0 0 0 0 0 0 0 0 0 0 0 0 0 0 0 0 0 0 0 0 0 0 0 0 0 0 0 0 0 0 0 0 0 0 0 0 0 0 0 0 0 0 0 0 0 0 0 0 0 0 0 0 0 0 0 0 0 0 0 0 0 0 0 0 0 0 0 0 0 0 0 0 0 0 0 0 0 0 0 0 0 0 0 0 0 0 0 0 0 0 0 0 0 0 0 0 0 0 0 0 0 0 0 0 0 0 0 0 0 0 0 0 0 0 0 0 0 0 0 0 0 0 0 0 0 0 0 0 0 0 0 0 0 0 0 0 0 0 0 0 0 0 0 0 0 0 0 0 0 0 0 0 0 0 0 0 0 0 0 0 0 0 0 0 0 0 0 0 0 0 0 0 0 0 0 0 0 0 0 0 0 0 0 0 0 0 0 0 0 0 0 0 0 0 0 0 0 0 0 0 0 0 0 0 0 0 0 0 0 0 0 0 0 0 0 0 0 0 0 0 0 0 0 0 0 0 0 0 0 0 0 0 0 0 0 0 0 0 0 0 0 0 0 0 0 0 0 0 0 0 0 0 0 0 0 0 0 0 0 0 0 0 0 0 0 0 0 0 0 0 0 0 0 0 0 0 0 0 0 0 0 0 0 0 0 0 0 0 0 0 0 0 0 0 0 0 0 0 0 0 0 0 0 0 0 0 0 0 0 0 0 0 0 0 0 0 0 0 0 0 0 0 0 0 0 0 0 0 0 0 0 0 0 0 0 0 0 0 0 0 0 0 0 0 0 0 0 0 0 0 0 0 0 0 0 0 0 0 0 0 0 0 0 0 0 0 0 0 0 0 0 0 0 0 0 0 0 0 0 0 0 0 0 0 0 0 0 0 0 0 0 0 0 0 0 0 0 0 0 0 0 0 0 0 0 0 0 0 0 0 0 0 0 0 0 0 0 0 0 0 0 0 0 0 0 0 0 0 0 0 0 0 0 0 0 0 0 0 0 0 0 0 0 0 0 0 0 0 0 0 0 0 0 0 0 0 0 0 0 0 0 0 0 0 0 0 0 0 0 0 0 0 0 0 0 0 0 0 0 0 0 0 0 0 0 0 0 0 0 0 0 0 0 0 0 0 0 0 0 0 0 0 0 0 0 0 0 0 0 0 0 0 0 0 0 0 0 0 0 0 0 0 0 0 0 0 0 0 0 0 0 0 0 0 0 0 0 0 0 0 0 0 0 0 0 0 0 0 0 0 0 0 0 0 0 0 0 0 0 0 0 0 0 0 0 0 0 0 0 0 0 0 0 0 0 0 0 0 0 0 0 0 0 0 0 0 0 0 0 0 0 0 0 0 0 0 0 0 0 0 0 0 0 0 0 0 0 0 0 0 0 0 0 0 0 0 0 0 0 0 0 0 0 0 0 0 0 0 0 0 0 0 0 0 0 0 0 0 0 0 0 0 0 0 0 0 0 0 0 0 0 0 0 0 0 0 0 0 0 0 0 0 0 0 0 0 0 0 0 0 0 0 0 0 0 0 0 0 0 0 0 0 0 0 0 0 0 0 0 0 0 0 0 0 0 0 0 0 0 0 0 0 0 0 0 0 0 0 0 0 0 0 0 0 0 0 0 0 0 0 0 0 0 0 0 0 0 0 0 0 0 0 0 0 0 0 0 0 0 0 0 0 0 0 0 0 0 0 0 0 0 0 0 0 0 0 0 0 0 0 0 0 0 0 0 0 0 0 0 0 0 0 0 0 0 0 0 0 0 0 0 0 0 0 0 0 0 0 0 0 0 0 0 0 0 0 0 0 0 0 0 0 0 0 0 0 0 0 0 0 0 0 0 0 0 0 0 0 0 0 0 0 0 0 0 0 0 0 0 0 0 0 0 0 0 0 0 0 0 0 0 0 0 0 0 0 0 0 0 0 0 0 0 0 0 0 0 0 0 0 0 0 0 0 0 0 0 0 0 0 0 0 0 0 0 0 0 0 0 0 0 0 0 0 0 0 0 0 0 0 0 0 0 0 0 0 0 0 0 0 0 0 0 0 0 0 0 0 0 0 0 0 0 0 0 0 0 0 0 0 0 0 0 0 0 0 0 0 0 0 0 0 0 0 0 0 0 0 0 0 0 0 0 0 0 0 0 0 0 0 0 0 0 0 0 0 0 0 0 0 0 0 0 0 0 0 0 0 0 0 0 0 0 0 0 0 0 0 0 0 0 0 0 0 0 0 0 0 0 0 0 0 0 0 0 0 0 0 0 0 0 0 0 0 0 0 0 0 0 0 0 0 0 0 0 0 0 0 0 0 0 0 0 0 0 0 0 0 0 0 0 0 0 0 0 0 0 0 0 0 0 0 0 0 0 0 0 0 0 0 0 0 0 0 0 0 0 0 0 0 0 0 0 0 0 0 0 0 0 0 0 0 0 0 0 0 0 0 0 0 0 0 0 0 0 0 0 0 0 0 0 0 0 0 0 0 0 0 0 0 0 0 0 0 0 0 0 0 0 0 0 0 0 0 0 0 0 0 0 0 0 0 0 0 0 0 0 0 0 0 0 0 0 0 0 0 0 0 0 0 0 0 0 0 0 0 0 0 0 0 0 0 0 0 0 0 0 0 0 0 0 0 0 0 0 0 0 0 0 0 0 0 0 0 0 0 0 0 0 0 0 0 0 0 0 0 0 0 0 0 0 0 0 0 0 0 0 0 0 0 0 0 0 0 0 0 0 0 0 0 0 0 0 0 0 0 0 0 0 0 0 0 0 0 0 0 0 0 0 0 0 0 0 0 0 0 0 0 0 0 0 0 0 0 0 0 0 0 0 0 0 0 0 0 0 0 0 0 0 0 0 0 0 0 0 0 0 0 0 0 0 0 0 0 0 0 0 0 0 0 0 0 0 0 0 0 0 0 0 0 0 0 0 0 0 0 0 0 0 0 0 0 0 0 0 0 0 0 0 0 0 0 0 0 0 0 0 0 0 0 0 0 0 0 0 0 0 0 0 0 0 0 0 0 0 0 0 0 0 0 0 0 0 0 0 0 0 0 0 0 0 0 0 0 0 0 0 0 0 0 0 0 0 0 0 0 0 0 0 0 0 0 0 0 0 0 0 0 0 0 0 0 0 0 0 0 0 0 0 0 0 0 0 0 0 0 0 0 0 0 0 0 0 0 0 0 0 0 0 0 0 0 0 0 0 0 0 0 0 0 0 0 0 0 0 0 0 0 0 0 0 0 0 0 0 0 0 0 0 0 0 0 0 0 0 0 0 0 0 0 0 0 0 0 0 0 0 0 0 0 0 0 0 0 0 0 0 0 0 0 0 0 0 0 0 0 0 0 0 0 0 0 0 0 0 0 0 0 0 0 0 0 0 0 0 0 0 0 0 0 0 0 0 0 0 0 0 0 0 0 0 0 0 0 0 0 0 0 0 0 0 0 0 0 0 0 0 0 0 0 0 0 0 0 0 0 0 0 0 0 0 0 0 0 0 0 0 0 0 0 0 0 0 0 0 0 0 0 0 0 0 0 0 0 0 0 0 0 0 0 0 0 0 0 0 0 0 0 0 0 0 0 0 0 0 0 0 0 0 0 0 0 0 0 0 0 0 0 0 0 0 0 0 0 0 0 0 0 0 0 0 0 0 0 0 0 0 0 0 0 0 0 0 0 0 0 0 0 0 0 0 0 0 0 0 0 0 0 0 0 0 0 0 0 0 0 0 0 0 0 0 0 0 0 0 0 0 0 0 0 0 0 0 0 0 0 0 0 0 0 0 0 0 0 0 0 0 0 0 0 0 0 0 0 0 0 0 0 0 0 0 0 0 0 0 0 0 0 0 0 0 0 0 0 0 0 0 0 0 0 0 0 0 0 0 0 0 0 0 0 0 0 0 0 0 0 0 0 0 0 0 0 0 0 0 0 0 0 0 0 0 0 0 0 0 0 0 0 0 0 0 0 0 0 0 0 0 0 0 0 0 0 0 0 0 0 0 0 0 0 0 0 0 0 0 0 0 0 0 0 0 0 0 0 0 0 0 0 0 0 0 0 0 0 0 0 0 0 0 0 0 0 0 0 0 0 0 0 0 0 0 0 0 0 0 0 0 0 0 0 0 0 0 0 0 0 0 0 0 0 0 0 0 0 0 0 0 0 0 0 0 0 0 0 0 0 0 0 0 0 0 0 0 0 0 0 0 0 0 0 0 0 0 0 0 0 0 0 0 0 0 0 0 0 0 0 0 0 0 0 0 0 0 0 0 0 0 0 0 0 0 0 0 0 0 0 0 0 0 0 0 0 0 0 0 0 0 0 0 0 0 0 0 0 0 0 0 0 0 0 0 0 0 0 0 0 0 0 0 0 0 0 0 0 0 0 0 0 0 0 0 0 0 0 0 0 0 0 0 0 0 0 0 0 0 0 0 0 0 0 0 0 0 0 0 0 0 0 0 0 0 0 0 0 0 0 0 0 0 0 0 0 0 0 0 0 0 0 0 0 0 0 0 0 0 0 0 0 0 0 0 0 0 0 0 0 0 0 0 0 0 0 0 0 0 0 0 0 0 0 0 0 0 0 0 0 0 0 0 0 0 0 0 0 0 0 0 0 0 0 0 0 0 0 0 0 0 0 0 0 0 0 0 0 0 0 0 0 0 0 0 0 0 0 0 0 0 0 0 0 0 0 0 0 0 0 0 0 0 0 0 0 0 0 0 0 0 0 0 0 0 0 0 0 0 0 0 0 0 0 0 0 0 0 0 0 0 0 0 0 0 0 0 0 0 0 0 0 0 0 0 0 0 0 0 0 0 0 0 0 0 0 0 0 0 0 0 0 0 0 0 0 0 0 0 0 0 0 0 0 0 0 0 0 0 0 0 0 0 0 0 0 0 0 0 0 0 0 0 0 0 0 0 0 0 0 0 0 0 0 0 0 0 0 0 0 0 0 0 0 0 0 0 0 0 0 0 0 0 0 0 0 0 0 0 0 0 0 0 0 0 0 0 0 0 0 0 0 0 0 0 0 0 0 0 0 0 0 0 0 0 0 0 0 0 0 0 0 0 0 0 0 0 0 0 0 0 0 0 0 0 0 0 0 0 0 0 0 0 0 0 0 0 0 0 0 0 0 0 0 0 0 0 0 0 0 0 0 0 0 0 0 0 0 0 0 0 0 0 0 0 0 0 0 0 0 0 0 0 0 0 0 0 0 0 0 0 0 0 0 0 0 0 0 0 0 0 0 0 0 0 0 0 0 0 0 0 0 0 0 0 0 0 0 0 0 0 0 0 0 0 0 0 0 0 0 0 0 0 0 0 0 0 0 0 0 0 0 0 0 0 0 0 0 0 0 0 0 0 0 0 0 0 0 0 0 0 0 0 0 0 0 0 0 0 0 0 0 0 0 0 0 0 0 0 0 0 0 0 0 0 0 0 0 0 0 0 0 0 0 0 0 0 0 0 0 0 0 0 0 0 0 0 0 0 0 0 0 0 0 0 0 0 0 0 0 0 0 0 0 0 0 0 0 0 0 0 0 0 0 0 0 0 0 0 0 0 0 0 0 0 0 0 0 0 0 0 0 0 0 0 0 0 0 0 0 0 0 0 0 0 0 0 0 0 0 0 0 0 0 0 0 0 0 0 0 0 0 0 0 0 0 0 0 0 0 0 0 0 0 0 0 </DataArray> 
</PointData> 
<Points> 
<DataArray type="Float32" NumberOfComponents="3"> 
3 4 0 3.09677 4 0 3.19355 4 0 3.29032 4 0 3.3871 4 0 3.48387 4 0 3.58065 4 0 3.67742 4 0 3.77419 4 0 3.87097 4 0 3.96774 4 0 4.06452 4 0 4.16129 4 0 4.25806 4 0 4.35484 4 0 4.45161 4 0 4.54839 4 0 4.64516 4 0 4.74194 4 0 4.83871 4 0 4.93548 4 0 5.03226 4 0 5.12903 4 0 5.22581 4 0 5.32258 4 0 5.41935 4 0 5.51613 4 0 5.6129 4 0 5.70968 4 0 5.80645 4 0 5.90323 4 0 6 4 0 3 4.09677 0 3.09677 4.09677 0 3.19355 4.09677 0 3.29032 4.09677 0 3.3871 4.09677 0 3.48387 4.09677 0 3.58065 4.09677 0 3.67742 4.09677 0 3.77419 4.09677 0 3.87097 4.09677 0 3.96774 4.09677 0 4.06452 4.09677 0 4.16129 4.09677 0 4.25806 4.09677 0 4.35484 4.09677 0 4.45161 4.09677 0 4.54839 4.09677 0 4.64516 4.09677 0 4.74194 4.09677 0 4.83871 4.09677 0 4.93548 4.09677 0 5.03226 4.09677 0 5.12903 4.09677 0 5.22581 4.09677 0 5.32258 4.09677 0 5.41935 4.09677 0 5.51613 4.09677 0 5.6129 4.09677 0 5.70968 4.09677 0 5.80645 4.09677 0 5.90323 4.09677 0 6 4.09677 0 3 4.19355 0 3.09677 4.19355 0 3.19355 4.19355 0 3.29032 4.19355 0 3.3871 4.19355 0 3.48387 4.19355 0 3.58065 4.19355 0 3.67742 4.19355 0 3.77419 4.19355 0 3.87097 4.19355 0 3.96774 4.19355 0 4.06452 4.19355 0 4.16129 4.19355 0 4.25806 4.19355 0 4.35484 4.19355 0 4.45161 4.19355 0 4.54839 4.19355 0 4.64516 4.19355 0 4.74194 4.19355 0 4.83871 4.19355 0 4.93548 4.19355 0 5.03226 4.19355 0 5.12903 4.19355 0 5.22581 4.19355 0 5.32258 4.19355 0 5.41935 4.19355 0 5.51613 4.19355 0 5.6129 4.19355 0 5.70968 4.19355 0 5.80645 4.19355 0 5.90323 4.19355 0 6 4.19355 0 3 4.29032 0 3.09677 4.29032 0 3.19355 4.29032 0 3.29032 4.29032 0 3.3871 4.29032 0 3.48387 4.29032 0 3.58065 4.29032 0 3.67742 4.29032 0 3.77419 4.29032 0 3.87097 4.29032 0 3.96774 4.29032 0 4.06452 4.29032 0 4.16129 4.29032 0 4.25806 4.29032 0 4.35484 4.29032 0 4.45161 4.29032 0 4.54839 4.29032 0 4.64516 4.29032 0 4.74194 4.29032 0 4.83871 4.29032 0 4.93548 4.29032 0 5.03226 4.29032 0 5.12903 4.29032 0 5.22581 4.29032 0 5.32258 4.29032 0 5.41935 4.29032 0 5.51613 4.29032 0 5.6129 4.29032 0 5.70968 4.29032 0 5.80645 4.29032 0 5.90323 4.29032 0 6 4.29032 0 3 4.3871 0 3.09677 4.3871 0 3.19355 4.3871 0 3.29032 4.3871 0 3.3871 4.3871 0 3.48387 4.3871 0 3.58065 4.3871 0 3.67742 4.3871 0 3.77419 4.3871 0 3.87097 4.3871 0 3.96774 4.3871 0 4.06452 4.3871 0 4.16129 4.3871 0 4.25806 4.3871 0 4.35484 4.3871 0 4.45161 4.3871 0 4.54839 4.3871 0 4.64516 4.3871 0 4.74194 4.3871 0 4.83871 4.3871 0 4.93548 4.3871 0 5.03226 4.3871 0 5.12903 4.3871 0 5.22581 4.3871 0 5.32258 4.3871 0 5.41935 4.3871 0 5.51613 4.3871 0 5.6129 4.3871 0 5.70968 4.3871 0 5.80645 4.3871 0 5.90323 4.3871 0 6 4.3871 0 3 4.48387 0 3.09677 4.48387 0 3.19355 4.48387 0 3.29032 4.48387 0 3.3871 4.48387 0 3.48387 4.48387 0 3.58065 4.48387 0 3.67742 4.48387 0 3.77419 4.48387 0 3.87097 4.48387 0 3.96774 4.48387 0 4.06452 4.48387 0 4.16129 4.48387 0 4.25806 4.48387 0 4.35484 4.48387 0 4.45161 4.48387 0 4.54839 4.48387 0 4.64516 4.48387 0 4.74194 4.48387 0 4.83871 4.48387 0 4.93548 4.48387 0 5.03226 4.48387 0 5.12903 4.48387 0 5.22581 4.48387 0 5.32258 4.48387 0 5.41935 4.48387 0 5.51613 4.48387 0 5.6129 4.48387 0 5.70968 4.48387 0 5.80645 4.48387 0 5.90323 4.48387 0 6 4.48387 0 3 4.58065 0 3.09677 4.58065 0 3.19355 4.58065 0 3.29032 4.58065 0 3.3871 4.58065 0 3.48387 4.58065 0 3.58065 4.58065 0 3.67742 4.58065 0 3.77419 4.58065 0 3.87097 4.58065 0 3.96774 4.58065 0 4.06452 4.58065 0 4.16129 4.58065 0 4.25806 4.58065 0 4.35484 4.58065 0 4.45161 4.58065 0 4.54839 4.58065 0 4.64516 4.58065 0 4.74194 4.58065 0 4.83871 4.58065 0 4.93548 4.58065 0 5.03226 4.58065 0 5.12903 4.58065 0 5.22581 4.58065 0 5.32258 4.58065 0 5.41935 4.58065 0 5.51613 4.58065 0 5.6129 4.58065 0 5.70968 4.58065 0 5.80645 4.58065 0 5.90323 4.58065 0 6 4.58065 0 3 4.67742 0 3.09677 4.67742 0 3.19355 4.67742 0 3.29032 4.67742 0 3.3871 4.67742 0 3.48387 4.67742 0 3.58065 4.67742 0 3.67742 4.67742 0 3.77419 4.67742 0 3.87097 4.67742 0 3.96774 4.67742 0 4.06452 4.67742 0 4.16129 4.67742 0 4.25806 4.67742 0 4.35484 4.67742 0 4.45161 4.67742 0 4.54839 4.67742 0 4.64516 4.67742 0 4.74194 4.67742 0 4.83871 4.67742 0 4.93548 4.67742 0 5.03226 4.67742 0 5.12903 4.67742 0 5.22581 4.67742 0 5.32258 4.67742 0 5.41935 4.67742 0 5.51613 4.67742 0 5.6129 4.67742 0 5.70968 4.67742 0 5.80645 4.67742 0 5.90323 4.67742 0 6 4.67742 0 3 4.77419 0 3.09677 4.77419 0 3.19355 4.77419 0 3.29032 4.77419 0 3.3871 4.77419 0 3.48387 4.77419 0 3.58065 4.77419 0 3.67742 4.77419 0 3.77419 4.77419 0 3.87097 4.77419 0 3.96774 4.77419 0 4.06452 4.77419 0 4.16129 4.77419 0 4.25806 4.77419 0 4.35484 4.77419 0 4.45161 4.77419 0 4.54839 4.77419 0 4.64516 4.77419 0 4.74194 4.77419 0 4.83871 4.77419 0 4.93548 4.77419 0 5.03226 4.77419 0 5.12903 4.77419 0 5.22581 4.77419 0 5.32258 4.77419 0 5.41935 4.77419 0 5.51613 4.77419 0 5.6129 4.77419 0 5.70968 4.77419 0 5.80645 4.77419 0 5.90323 4.77419 0 6 4.77419 0 3 4.87097 0 3.09677 4.87097 0 3.19355 4.87097 0 3.29032 4.87097 0 3.3871 4.87097 0 3.48387 4.87097 0 3.58065 4.87097 0 3.67742 4.87097 0 3.77419 4.87097 0 3.87097 4.87097 0 3.96774 4.87097 0 4.06452 4.87097 0 4.16129 4.87097 0 4.25806 4.87097 0 4.35484 4.87097 0 4.45161 4.87097 0 4.54839 4.87097 0 4.64516 4.87097 0 4.74194 4.87097 0 4.83871 4.87097 0 4.93548 4.87097 0 5.03226 4.87097 0 5.12903 4.87097 0 5.22581 4.87097 0 5.32258 4.87097 0 5.41935 4.87097 0 5.51613 4.87097 0 5.6129 4.87097 0 5.70968 4.87097 0 5.80645 4.87097 0 5.90323 4.87097 0 6 4.87097 0 3 4.96774 0 3.09677 4.96774 0 3.19355 4.96774 0 3.29032 4.96774 0 3.3871 4.96774 0 3.48387 4.96774 0 3.58065 4.96774 0 3.67742 4.96774 0 3.77419 4.96774 0 3.87097 4.96774 0 3.96774 4.96774 0 4.06452 4.96774 0 4.16129 4.96774 0 4.25806 4.96774 0 4.35484 4.96774 0 4.45161 4.96774 0 4.54839 4.96774 0 4.64516 4.96774 0 4.74194 4.96774 0 4.83871 4.96774 0 4.93548 4.96774 0 5.03226 4.96774 0 5.12903 4.96774 0 5.22581 4.96774 0 5.32258 4.96774 0 5.41935 4.96774 0 5.51613 4.96774 0 5.6129 4.96774 0 5.70968 4.96774 0 5.80645 4.96774 0 5.90323 4.96774 0 6 4.96774 0 3 5.06452 0 3.09677 5.06452 0 3.19355 5.06452 0 3.29032 5.06452 0 3.3871 5.06452 0 3.48387 5.06452 0 3.58065 5.06452 0 3.67742 5.06452 0 3.77419 5.06452 0 3.87097 5.06452 0 3.96774 5.06452 0 4.06452 5.06452 0 4.16129 5.06452 0 4.25806 5.06452 0 4.35484 5.06452 0 4.45161 5.06452 0 4.54839 5.06452 0 4.64516 5.06452 0 4.74194 5.06452 0 4.83871 5.06452 0 4.93548 5.06452 0 5.03226 5.06452 0 5.12903 5.06452 0 5.22581 5.06452 0 5.32258 5.06452 0 5.41935 5.06452 0 5.51613 5.06452 0 5.6129 5.06452 0 5.70968 5.06452 0 5.80645 5.06452 0 5.90323 5.06452 0 6 5.06452 0 3 5.16129 0 3.09677 5.16129 0 3.19355 5.16129 0 3.29032 5.16129 0 3.3871 5.16129 0 3.48387 5.16129 0 3.58065 5.16129 0 3.67742 5.16129 0 3.77419 5.16129 0 3.87097 5.16129 0 3.96774 5.16129 0 4.06452 5.16129 0 4.16129 5.16129 0 4.25806 5.16129 0 4.35484 5.16129 0 4.45161 5.16129 0 4.54839 5.16129 0 4.64516 5.16129 0 4.74194 5.16129 0 4.83871 5.16129 0 4.93548 5.16129 0 5.03226 5.16129 0 5.12903 5.16129 0 5.22581 5.16129 0 5.32258 5.16129 0 5.41935 5.16129 0 5.51613 5.16129 0 5.6129 5.16129 0 5.70968 5.16129 0 5.80645 5.16129 0 5.90323 5.16129 0 6 5.16129 0 3 5.25806 0 3.09677 5.25806 0 3.19355 5.25806 0 3.29032 5.25806 0 3.3871 5.25806 0 3.48387 5.25806 0 3.58065 5.25806 0 3.67742 5.25806 0 3.77419 5.25806 0 3.87097 5.25806 0 3.96774 5.25806 0 4.06452 5.25806 0 4.16129 5.25806 0 4.25806 5.25806 0 4.35484 5.25806 0 4.45161 5.25806 0 4.54839 5.25806 0 4.64516 5.25806 0 4.74194 5.25806 0 4.83871 5.25806 0 4.93548 5.25806 0 5.03226 5.25806 0 5.12903 5.25806 0 5.22581 5.25806 0 5.32258 5.25806 0 5.41935 5.25806 0 5.51613 5.25806 0 5.6129 5.25806 0 5.70968 5.25806 0 5.80645 5.25806 0 5.90323 5.25806 0 6 5.25806 0 3 5.35484 0 3.09677 5.35484 0 3.19355 5.35484 0 3.29032 5.35484 0 3.3871 5.35484 0 3.48387 5.35484 0 3.58065 5.35484 0 3.67742 5.35484 0 3.77419 5.35484 0 3.87097 5.35484 0 3.96774 5.35484 0 4.06452 5.35484 0 4.16129 5.35484 0 4.25806 5.35484 0 4.35484 5.35484 0 4.45161 5.35484 0 4.54839 5.35484 0 4.64516 5.35484 0 4.74194 5.35484 0 4.83871 5.35484 0 4.93548 5.35484 0 5.03226 5.35484 0 5.12903 5.35484 0 5.22581 5.35484 0 5.32258 5.35484 0 5.41935 5.35484 0 5.51613 5.35484 0 5.6129 5.35484 0 5.70968 5.35484 0 5.80645 5.35484 0 5.90323 5.35484 0 6 5.35484 0 3 5.45161 0 3.09677 5.45161 0 3.19355 5.45161 0 3.29032 5.45161 0 3.3871 5.45161 0 3.48387 5.45161 0 3.58065 5.45161 0 3.67742 5.45161 0 3.77419 5.45161 0 3.87097 5.45161 0 3.96774 5.45161 0 4.06452 5.45161 0 4.16129 5.45161 0 4.25806 5.45161 0 4.35484 5.45161 0 4.45161 5.45161 0 4.54839 5.45161 0 4.64516 5.45161 0 4.74194 5.45161 0 4.83871 5.45161 0 4.93548 5.45161 0 5.03226 5.45161 0 5.12903 5.45161 0 5.22581 5.45161 0 5.32258 5.45161 0 5.41935 5.45161 0 5.51613 5.45161 0 5.6129 5.45161 0 5.70968 5.45161 0 5.80645 5.45161 0 5.90323 5.45161 0 6 5.45161 0 3 5.54839 0 3.09677 5.54839 0 3.19355 5.54839 0 3.29032 5.54839 0 3.3871 5.54839 0 3.48387 5.54839 0 3.58065 5.54839 0 3.67742 5.54839 0 3.77419 5.54839 0 3.87097 5.54839 0 3.96774 5.54839 0 4.06452 5.54839 0 4.16129 5.54839 0 4.25806 5.54839 0 4.35484 5.54839 0 4.45161 5.54839 0 4.54839 5.54839 0 4.64516 5.54839 0 4.74194 5.54839 0 4.83871 5.54839 0 4.93548 5.54839 0 5.03226 5.54839 0 5.12903 5.54839 0 5.22581 5.54839 0 5.32258 5.54839 0 5.41935 5.54839 0 5.51613 5.54839 0 5.6129 5.54839 0 5.70968 5.54839 0 5.80645 5.54839 0 5.90323 5.54839 0 6 5.54839 0 3 5.64516 0 3.09677 5.64516 0 3.19355 5.64516 0 3.29032 5.64516 0 3.3871 5.64516 0 3.48387 5.64516 0 3.58065 5.64516 0 3.67742 5.64516 0 3.77419 5.64516 0 3.87097 5.64516 0 3.96774 5.64516 0 4.06452 5.64516 0 4.16129 5.64516 0 4.25806 5.64516 0 4.35484 5.64516 0 4.45161 5.64516 0 4.54839 5.64516 0 4.64516 5.64516 0 4.74194 5.64516 0 4.83871 5.64516 0 4.93548 5.64516 0 5.03226 5.64516 0 5.12903 5.64516 0 5.22581 5.64516 0 5.32258 5.64516 0 5.41935 5.64516 0 5.51613 5.64516 0 5.6129 5.64516 0 5.70968 5.64516 0 5.80645 5.64516 0 5.90323 5.64516 0 6 5.64516 0 3 5.74194 0 3.09677 5.74194 0 3.19355 5.74194 0 3.29032 5.74194 0 3.3871 5.74194 0 3.48387 5.74194 0 3.58065 5.74194 0 3.67742 5.74194 0 3.77419 5.74194 0 3.87097 5.74194 0 3.96774 5.74194 0 4.06452 5.74194 0 4.16129 5.74194 0 4.25806 5.74194 0 4.35484 5.74194 0 4.45161 5.74194 0 4.54839 5.74194 0 4.64516 5.74194 0 4.74194 5.74194 0 4.83871 5.74194 0 4.93548 5.74194 0 5.03226 5.74194 0 5.12903 5.74194 0 5.22581 5.74194 0 5.32258 5.74194 0 5.41935 5.74194 0 5.51613 5.74194 0 5.6129 5.74194 0 5.70968 5.74194 0 5.80645 5.74194 0 5.90323 5.74194 0 6 5.74194 0 3 5.83871 0 3.09677 5.83871 0 3.19355 5.83871 0 3.29032 5.83871 0 3.3871 5.83871 0 3.48387 5.83871 0 3.58065 5.83871 0 3.67742 5.83871 0 3.77419 5.83871 0 3.87097 5.83871 0 3.96774 5.83871 0 4.06452 5.83871 0 4.16129 5.83871 0 4.25806 5.83871 0 4.35484 5.83871 0 4.45161 5.83871 0 4.54839 5.83871 0 4.64516 5.83871 0 4.74194 5.83871 0 4.83871 5.83871 0 4.93548 5.83871 0 5.03226 5.83871 0 5.12903 5.83871 0 5.22581 5.83871 0 5.32258 5.83871 0 5.41935 5.83871 0 5.51613 5.83871 0 5.6129 5.83871 0 5.70968 5.83871 0 5.80645 5.83871 0 5.90323 5.83871 0 6 5.83871 0 3 5.93548 0 3.09677 5.93548 0 3.19355 5.93548 0 3.29032 5.93548 0 3.3871 5.93548 0 3.48387 5.93548 0 3.58065 5.93548 0 3.67742 5.93548 0 3.77419 5.93548 0 3.87097 5.93548 0 3.96774 5.93548 0 4.06452 5.93548 0 4.16129 5.93548 0 4.25806 5.93548 0 4.35484 5.93548 0 4.45161 5.93548 0 4.54839 5.93548 0 4.64516 5.93548 0 4.74194 5.93548 0 4.83871 5.93548 0 4.93548 5.93548 0 5.03226 5.93548 0 5.12903 5.93548 0 5.22581 5.93548 0 5.32258 5.93548 0 5.41935 5.93548 0 5.51613 5.93548 0 5.6129 5.93548 0 5.70968 5.93548 0 5.80645 5.93548 0 5.90323 5.93548 0 6 5.93548 0 3 6.03226 0 3.09677 6.03226 0 3.19355 6.03226 0 3.29032 6.03226 0 3.3871 6.03226 0 3.48387 6.03226 0 3.58065 6.03226 0 3.67742 6.03226 0 3.77419 6.03226 0 3.87097 6.03226 0 3.96774 6.03226 0 4.06452 6.03226 0 4.16129 6.03226 0 4.25806 6.03226 0 4.35484 6.03226 0 4.45161 6.03226 0 4.54839 6.03226 0 4.64516 6.03226 0 4.74194 6.03226 0 4.83871 6.03226 0 4.93548 6.03226 0 5.03226 6.03226 0 5.12903 6.03226 0 5.22581 6.03226 0 5.32258 6.03226 0 5.41935 6.03226 0 5.51613 6.03226 0 5.6129 6.03226 0 5.70968 6.03226 0 5.80645 6.03226 0 5.90323 6.03226 0 6 6.03226 0 3 6.12903 0 3.09677 6.12903 0 3.19355 6.12903 0 3.29032 6.12903 0 3.3871 6.12903 0 3.48387 6.12903 0 3.58065 6.12903 0 3.67742 6.12903 0 3.77419 6.12903 0 3.87097 6.12903 0 3.96774 6.12903 0 4.06452 6.12903 0 4.16129 6.12903 0 4.25806 6.12903 0 4.35484 6.12903 0 4.45161 6.12903 0 4.54839 6.12903 0 4.64516 6.12903 0 4.74194 6.12903 0 4.83871 6.12903 0 4.93548 6.12903 0 5.03226 6.12903 0 5.12903 6.12903 0 5.22581 6.12903 0 5.32258 6.12903 0 5.41935 6.12903 0 5.51613 6.12903 0 5.6129 6.12903 0 5.70968 6.12903 0 5.80645 6.12903 0 5.90323 6.12903 0 6 6.12903 0 3 6.22581 0 3.09677 6.22581 0 3.19355 6.22581 0 3.29032 6.22581 0 3.3871 6.22581 0 3.48387 6.22581 0 3.58065 6.22581 0 3.67742 6.22581 0 3.77419 6.22581 0 3.87097 6.22581 0 3.96774 6.22581 0 4.06452 6.22581 0 4.16129 6.22581 0 4.25806 6.22581 0 4.35484 6.22581 0 4.45161 6.22581 0 4.54839 6.22581 0 4.64516 6.22581 0 4.74194 6.22581 0 4.83871 6.22581 0 4.93548 6.22581 0 5.03226 6.22581 0 5.12903 6.22581 0 5.22581 6.22581 0 5.32258 6.22581 0 5.41935 6.22581 0 5.51613 6.22581 0 5.6129 6.22581 0 5.70968 6.22581 0 5.80645 6.22581 0 5.90323 6.22581 0 6 6.22581 0 3 6.32258 0 3.09677 6.32258 0 3.19355 6.32258 0 3.29032 6.32258 0 3.3871 6.32258 0 3.48387 6.32258 0 3.58065 6.32258 0 3.67742 6.32258 0 3.77419 6.32258 0 3.87097 6.32258 0 3.96774 6.32258 0 4.06452 6.32258 0 4.16129 6.32258 0 4.25806 6.32258 0 4.35484 6.32258 0 4.45161 6.32258 0 4.54839 6.32258 0 4.64516 6.32258 0 4.74194 6.32258 0 4.83871 6.32258 0 4.93548 6.32258 0 5.03226 6.32258 0 5.12903 6.32258 0 5.22581 6.32258 0 5.32258 6.32258 0 5.41935 6.32258 0 5.51613 6.32258 0 5.6129 6.32258 0 5.70968 6.32258 0 5.80645 6.32258 0 5.90323 6.32258 0 6 6.32258 0 3 6.41935 0 3.09677 6.41935 0 3.19355 6.41935 0 3.29032 6.41935 0 3.3871 6.41935 0 3.48387 6.41935 0 3.58065 6.41935 0 3.67742 6.41935 0 3.77419 6.41935 0 3.87097 6.41935 0 3.96774 6.41935 0 4.06452 6.41935 0 4.16129 6.41935 0 4.25806 6.41935 0 4.35484 6.41935 0 4.45161 6.41935 0 4.54839 6.41935 0 4.64516 6.41935 0 4.74194 6.41935 0 4.83871 6.41935 0 4.93548 6.41935 0 5.03226 6.41935 0 5.12903 6.41935 0 5.22581 6.41935 0 5.32258 6.41935 0 5.41935 6.41935 0 5.51613 6.41935 0 5.6129 6.41935 0 5.70968 6.41935 0 5.80645 6.41935 0 5.90323 6.41935 0 6 6.41935 0 3 6.51613 0 3.09677 6.51613 0 3.19355 6.51613 0 3.29032 6.51613 0 3.3871 6.51613 0 3.48387 6.51613 0 3.58065 6.51613 0 3.67742 6.51613 0 3.77419 6.51613 0 3.87097 6.51613 0 3.96774 6.51613 0 4.06452 6.51613 0 4.16129 6.51613 0 4.25806 6.51613 0 4.35484 6.51613 0 4.45161 6.51613 0 4.54839 6.51613 0 4.64516 6.51613 0 4.74194 6.51613 0 4.83871 6.51613 0 4.93548 6.51613 0 5.03226 6.51613 0 5.12903 6.51613 0 5.22581 6.51613 0 5.32258 6.51613 0 5.41935 6.51613 0 5.51613 6.51613 0 5.6129 6.51613 0 5.70968 6.51613 0 5.80645 6.51613 0 5.90323 6.51613 0 6 6.51613 0 3 6.6129 0 3.09677 6.6129 0 3.19355 6.6129 0 3.29032 6.6129 0 3.3871 6.6129 0 3.48387 6.6129 0 3.58065 6.6129 0 3.67742 6.6129 0 3.77419 6.6129 0 3.87097 6.6129 0 3.96774 6.6129 0 4.06452 6.6129 0 4.16129 6.6129 0 4.25806 6.6129 0 4.35484 6.6129 0 4.45161 6.6129 0 4.54839 6.6129 0 4.64516 6.6129 0 4.74194 6.6129 0 4.83871 6.6129 0 4.93548 6.6129 0 5.03226 6.6129 0 5.12903 6.6129 0 5.22581 6.6129 0 5.32258 6.6129 0 5.41935 6.6129 0 5.51613 6.6129 0 5.6129 6.6129 0 5.70968 6.6129 0 5.80645 6.6129 0 5.90323 6.6129 0 6 6.6129 0 3 6.70968 0 3.09677 6.70968 0 3.19355 6.70968 0 3.29032 6.70968 0 3.3871 6.70968 0 3.48387 6.70968 0 3.58065 6.70968 0 3.67742 6.70968 0 3.77419 6.70968 0 3.87097 6.70968 0 3.96774 6.70968 0 4.06452 6.70968 0 4.16129 6.70968 0 4.25806 6.70968 0 4.35484 6.70968 0 4.45161 6.70968 0 4.54839 6.70968 0 4.64516 6.70968 0 4.74194 6.70968 0 4.83871 6.70968 0 4.93548 6.70968 0 5.03226 6.70968 0 5.12903 6.70968 0 5.22581 6.70968 0 5.32258 6.70968 0 5.41935 6.70968 0 5.51613 6.70968 0 5.6129 6.70968 0 5.70968 6.70968 0 5.80645 6.70968 0 5.90323 6.70968 0 6 6.70968 0 3 6.80645 0 3.09677 6.80645 0 3.19355 6.80645 0 3.29032 6.80645 0 3.3871 6.80645 0 3.48387 6.80645 0 3.58065 6.80645 0 3.67742 6.80645 0 3.77419 6.80645 0 3.87097 6.80645 0 3.96774 6.80645 0 4.06452 6.80645 0 4.16129 6.80645 0 4.25806 6.80645 0 4.35484 6.80645 0 4.45161 6.80645 0 4.54839 6.80645 0 4.64516 6.80645 0 4.74194 6.80645 0 4.83871 6.80645 0 4.93548 6.80645 0 5.03226 6.80645 0 5.12903 6.80645 0 5.22581 6.80645 0 5.32258 6.80645 0 5.41935 6.80645 0 5.51613 6.80645 0 5.6129 6.80645 0 5.70968 6.80645 0 5.80645 6.80645 0 5.90323 6.80645 0 6 6.80645 0 3 6.90323 0 3.09677 6.90323 0 3.19355 6.90323 0 3.29032 6.90323 0 3.3871 6.90323 0 3.48387 6.90323 0 3.58065 6.90323 0 3.67742 6.90323 0 3.77419 6.90323 0 3.87097 6.90323 0 3.96774 6.90323 0 4.06452 6.90323 0 4.16129 6.90323 0 4.25806 6.90323 0 4.35484 6.90323 0 4.45161 6.90323 0 4.54839 6.90323 0 4.64516 6.90323 0 4.74194 6.90323 0 4.83871 6.90323 0 4.93548 6.90323 0 5.03226 6.90323 0 5.12903 6.90323 0 5.22581 6.90323 0 5.32258 6.90323 0 5.41935 6.90323 0 5.51613 6.90323 0 5.6129 6.90323 0 5.70968 6.90323 0 5.80645 6.90323 0 5.90323 6.90323 0 6 6.90323 0 3 7 0 3.09677 7 0 3.19355 7 0 3.29032 7 0 3.3871 7 0 3.48387 7 0 3.58065 7 0 3.67742 7 0 3.77419 7 0 3.87097 7 0 3.96774 7 0 4.06452 7 0 4.16129 7 0 4.25806 7 0 4.35484 7 0 4.45161 7 0 4.54839 7 0 4.64516 7 0 4.74194 7 0 4.83871 7 0 4.93548 7 0 5.03226 7 0 5.12903 7 0 5.22581 7 0 5.32258 7 0 5.41935 7 0 5.51613 7 0 5.6129 7 0 5.70968 7 0 5.80645 7 0 5.90323 7 0 6 7 0 
</DataArray>
</Points> 
</Piece> 
</StructuredGrid> 
</VTKFile> 
