<?xml version="1.0"?> 
<VTKFile type="StructuredGrid" version="0.1"> 
<StructuredGrid WholeExtent="0 31 0 31 0 0"> 
<Piece Extent="0 31 0 31 0 0"> 
<PointData>
<DataArray type="Float32" Name="u" format="ascii" NumberOfComponents="3"> 
0.00106618 7.12747e-05 0 0 0 0 0 0 0 0 0 0 0 0 0 0 0 0 0 0 0 0 0 0 0 0 0 0 0 0 0 0 0 0 0 0 0 0 0 0 0 0 0 0 0 0 0 0 0 0 0 0 0 0 0 0 0 0 0 0 0 0 0 0 0 0 0 0 0 0 0 0 0 0 0 0 0 0 0 0 0 0 0 0 0 0 0 0 0 0 0 0 0 0 0 0 0.00106299 6.64599e-05 0 0 0 0 0 0 0 0 0 0 0 0 0 0 0 0 0 0 0 0 0 0 0 0 0 0 0 0 0 0 0 0 0 0 0 0 0 0 0 0 0 0 0 0 0 0 0 0 0 0 0 0 0 0 0 0 0 0 0 0 0 0 0 0 0 0 0 0 0 0 0 0 0 0 0 0 0 0 0 0 0 0 0 0 0 0 0 0 0 0 0 0 0 0 0.0010607 6.17961e-05 0 0 0 0 0 0 0 0 0 0 0 0 0 0 0 0 0 0 0 0 0 0 0 0 0 0 0 0 0 0 0 0 0 0 0 0 0 0 0 0 0 0 0 0 0 0 0 0 0 0 0 0 0 0 0 0 0 0 0 0 0 0 0 0 0 0 0 0 0 0 0 0 0 0 0 0 0 0 0 0 0 0 0 0 0 0 0 0 0 0 0 0 0 0 0.00105884 5.71709e-05 0 0 0 0 0 0 0 0 0 0 0 0 0 0 0 0 0 0 0 0 0 0 0 0 0 0 0 0 0 0 0 0 0 0 0 0 0 0 0 0 0 0 0 0 0 0 0 0 0 0 0 0 0 0 0 0 0 0 0 0 0 0 0 0 0 0 0 0 0 0 0 0 0 0 0 0 0 0 0 0 0 0 0 0 0 0 0 0 0 0 0 0 0 0 0.00105726 5.25561e-05 0 0 0 0 0 0 0 0 0 0 0 0 0 0 0 0 0 0 0 0 0 0 0 0 0 0 0 0 0 0 0 0 0 0 0 0 0 0 0 0 0 0 0 0 0 0 0 0 0 0 0 0 0 0 0 0 0 0 0 0 0 0 0 0 0 0 0 0 0 0 0 0 0 0 0 0 0 0 0 0 0 0 0 0 0 0 0 0 0 0 0 0 0 0 0.0010559 4.79504e-05 0 0 0 0 0 0 0 0 0 0 0 0 0 0 0 0 0 0 0 0 0 0 0 0 0 0 0 0 0 0 0 0 0 0 0 0 0 0 0 0 0 0 0 0 0 0 0 0 0 0 0 0 0 0 0 0 0 0 0 0 0 0 0 0 0 0 0 0 0 0 0 0 0 0 0 0 0 0 0 0 0 0 0 0 0 0 0 0 0 0 0 0 0 0 0.00105474 4.33523e-05 0 0 0 0 0 0 0 0 0 0 0 0 0 0 0 0 0 0 0 0 0 0 0 0 0 0 0 0 0 0 0 0 0 0 0 0 0 0 0 0 0 0 0 0 0 0 0 0 0 0 0 0 0 0 0 0 0 0 0 0 0 0 0 0 0 0 0 0 0 0 0 0 0 0 0 0 0 0 0 0 0 0 0 0 0 0 0 0 0 0 0 0 0 0 0.00105374 3.87629e-05 0 0 0 0 0 0 0 0 0 0 0 0 0 0 0 0 0 0 0 0 0 0 0 0 0 0 0 0 0 0 0 0 0 0 0 0 0 0 0 0 0 0 0 0 0 0 0 0 0 0 0 0 0 0 0 0 0 0 0 0 0 0 0 0 0 0 0 0 0 0 0 0 0 0 0 0 0 0 0 0 0 0 0 0 0 0 0 0 0 0 0 0 0 0 0.00105288 3.41817e-05 0 0 0 0 0 0 0 0 0 0 0 0 0 0 0 0 0 0 0 0 0 0 0 0 0 0 0 0 0 0 0 0 0 0 0 0 0 0 0 0 0 0 0 0 0 0 0 0 0 0 0 0 0 0 0 0 0 0 0 0 0 0 0 0 0 0 0 0 0 0 0 0 0 0 0 0 0 0 0 0 0 0 0 0 0 0 0 0 0 0 0 0 0 0 0.00105215 2.96082e-05 0 0 0 0 0 0 0 0 0 0 0 0 0 0 0 0 0 0 0 0 0 0 0 0 0 0 0 0 0 0 0 0 0 0 0 0 0 0 0 0 0 0 0 0 0 0 0 0 0 0 0 0 0 0 0 0 0 0 0 0 0 0 0 0 0 0 0 0 0 0 0 0 0 0 0 0 0 0 0 0 0 0 0 0 0 0 0 0 0 0 0 0 0 0 0.00105154 2.50415e-05 0 0 0 0 0 0 0 0 0 0 0 0 0 0 0 0 0 0 0 0 0 0 0 0 0 0 0 0 0 0 0 0 0 0 0 0 0 0 0 0 0 0 0 0 0 0 0 0 0 0 0 0 0 0 0 0 0 0 0 0 0 0 0 0 0 0 0 0 0 0 0 0 0 0 0 0 0 0 0 0 0 0 0 0 0 0 0 0 0 0 0 0 0 0 0.00105105 2.04805e-05 0 0 0 0 0 0 0 0 0 0 0 0 0 0 0 0 0 0 0 0 0 0 0 0 0 0 0 0 0 0 0 0 0 0 0 0 0 0 0 0 0 0 0 0 0 0 0 0 0 0 0 0 0 0 0 0 0 0 0 0 0 0 0 0 0 0 0 0 0 0 0 0 0 0 0 0 0 0 0 0 0 0 0 0 0 0 0 0 0 0 0 0 0 0 0.00105066 1.59243e-05 0 0 0 0 0 0 0 0 0 0 0 0 0 0 0 0 0 0 0 0 0 0 0 0 0 0 0 0 0 0 0 0 0 0 0 0 0 0 0 0 0 0 0 0 0 0 0 0 0 0 0 0 0 0 0 0 0 0 0 0 0 0 0 0 0 0 0 0 0 0 0 0 0 0 0 0 0 0 0 0 0 0 0 0 0 0 0 0 0 0 0 0 0 0 0.00105037 1.13719e-05 0 0 0 0 0 0 0 0 0 0 0 0 0 0 0 0 0 0 0 0 0 0 0 0 0 0 0 0 0 0 0 0 0 0 0 0 0 0 0 0 0 0 0 0 0 0 0 0 0 0 0 0 0 0 0 0 0 0 0 0 0 0 0 0 0 0 0 0 0 0 0 0 0 0 0 0 0 0 0 0 0 0 0 0 0 0 0 0 0 0 0 0 0 0 0.00105018 6.82206e-06 0 0 0 0 0 0 0 0 0 0 0 0 0 0 0 0 0 0 0 0 0 0 0 0 0 0 0 0 0 0 0 0 0 0 0 0 0 0 0 0 0 0 0 0 0 0 0 0 0 0 0 0 0 0 0 0 0 0 0 0 0 0 0 0 0 0 0 0 0 0 0 0 0 0 0 0 0 0 0 0 0 0 0 0 0 0 0 0 0 0 0 0 0 0 0.00105008 2.27384e-06 0 0 0 0 0 0 0 0 0 0 0 0 0 0 0 0 0 0 0 0 0 0 0 0 0 0 0 0 0 0 0 0 0 0 0 0 0 0 0 0 0 0 0 0 0 0 0 0 0 0 0 0 0 0 0 0 0 0 0 0 0 0 0 0 0 0 0 0 0 0 0 0 0 0 0 0 0 0 0 0 0 0 0 0 0 0 0 0 0 0 0 0 0 0 0.00105008 -2.27384e-06 0 0 0 0 0 0 0 0 0 0 0 0 0 0 0 0 0 0 0 0 0 0 0 0 0 0 0 0 0 0 0 0 0 0 0 0 0 0 0 0 0 0 0 0 0 0 0 0 0 0 0 0 0 0 0 0 0 0 0 0 0 0 0 0 0 0 0 0 0 0 0 0 0 0 0 0 0 0 0 0 0 0 0 0 0 0 0 0 0 0 0 0 0 0 0.00105018 -6.82206e-06 0 0 0 0 0 0 0 0 0 0 0 0 0 0 0 0 0 0 0 0 0 0 0 0 0 0 0 0 0 0 0 0 0 0 0 0 0 0 0 0 0 0 0 0 0 0 0 0 0 0 0 0 0 0 0 0 0 0 0 0 0 0 0 0 0 0 0 0 0 0 0 0 0 0 0 0 0 0 0 0 0 0 0 0 0 0 0 0 0 0 0 0 0 0 0.00105037 -1.13719e-05 0 0 0 0 0 0 0 0 0 0 0 0 0 0 0 0 0 0 0 0 0 0 0 0 0 0 0 0 0 0 0 0 0 0 0 0 0 0 0 0 0 0 0 0 0 0 0 0 0 0 0 0 0 0 0 0 0 0 0 0 0 0 0 0 0 0 0 0 0 0 0 0 0 0 0 0 0 0 0 0 0 0 0 0 0 0 0 0 0 0 0 0 0 0 0.00105066 -1.59243e-05 0 0 0 0 0 0 0 0 0 0 0 0 0 0 0 0 0 0 0 0 0 0 0 0 0 0 0 0 0 0 0 0 0 0 0 0 0 0 0 0 0 0 0 0 0 0 0 0 0 0 0 0 0 0 0 0 0 0 0 0 0 0 0 0 0 0 0 0 0 0 0 0 0 0 0 0 0 0 0 0 0 0 0 0 0 0 0 0 0 0 0 0 0 0 0.00105105 -2.04805e-05 0 0 0 0 0 0 0 0 0 0 0 0 0 0 0 0 0 0 0 0 0 0 0 0 0 0 0 0 0 0 0 0 0 0 0 0 0 0 0 0 0 0 0 0 0 0 0 0 0 0 0 0 0 0 0 0 0 0 0 0 0 0 0 0 0 0 0 0 0 0 0 0 0 0 0 0 0 0 0 0 0 0 0 0 0 0 0 0 0 0 0 0 0 0 0.00105154 -2.50415e-05 0 0 0 0 0 0 0 0 0 0 0 0 0 0 0 0 0 0 0 0 0 0 0 0 0 0 0 0 0 0 0 0 0 0 0 0 0 0 0 0 0 0 0 0 0 0 0 0 0 0 0 0 0 0 0 0 0 0 0 0 0 0 0 0 0 0 0 0 0 0 0 0 0 0 0 0 0 0 0 0 0 0 0 0 0 0 0 0 0 0 0 0 0 0 0.00105215 -2.96082e-05 0 0 0 0 0 0 0 0 0 0 0 0 0 0 0 0 0 0 0 0 0 0 0 0 0 0 0 0 0 0 0 0 0 0 0 0 0 0 0 0 0 0 0 0 0 0 0 0 0 0 0 0 0 0 0 0 0 0 0 0 0 0 0 0 0 0 0 0 0 0 0 0 0 0 0 0 0 0 0 0 0 0 0 0 0 0 0 0 0 0 0 0 0 0 0.00105288 -3.41817e-05 0 0 0 0 0 0 0 0 0 0 0 0 0 0 0 0 0 0 0 0 0 0 0 0 0 0 0 0 0 0 0 0 0 0 0 0 0 0 0 0 0 0 0 0 0 0 0 0 0 0 0 0 0 0 0 0 0 0 0 0 0 0 0 0 0 0 0 0 0 0 0 0 0 0 0 0 0 0 0 0 0 0 0 0 0 0 0 0 0 0 0 0 0 0 0.00105374 -3.87629e-05 0 0 0 0 0 0 0 0 0 0 0 0 0 0 0 0 0 0 0 0 0 0 0 0 0 0 0 0 0 0 0 0 0 0 0 0 0 0 0 0 0 0 0 0 0 0 0 0 0 0 0 0 0 0 0 0 0 0 0 0 0 0 0 0 0 0 0 0 0 0 0 0 0 0 0 0 0 0 0 0 0 0 0 0 0 0 0 0 0 0 0 0 0 0 0.00105474 -4.33523e-05 0 0 0 0 0 0 0 0 0 0 0 0 0 0 0 0 0 0 0 0 0 0 0 0 0 0 0 0 0 0 0 0 0 0 0 0 0 0 0 0 0 0 0 0 0 0 0 0 0 0 0 0 0 0 0 0 0 0 0 0 0 0 0 0 0 0 0 0 0 0 0 0 0 0 0 0 0 0 0 0 0 0 0 0 0 0 0 0 0 0 0 0 0 0 0.0010559 -4.79504e-05 0 0 0 0 0 0 0 0 0 0 0 0 0 0 0 0 0 0 0 0 0 0 0 0 0 0 0 0 0 0 0 0 0 0 0 0 0 0 0 0 0 0 0 0 0 0 0 0 0 0 0 0 0 0 0 0 0 0 0 0 0 0 0 0 0 0 0 0 0 0 0 0 0 0 0 0 0 0 0 0 0 0 0 0 0 0 0 0 0 0 0 0 0 0 0.00105726 -5.25561e-05 0 0 0 0 0 0 0 0 0 0 0 0 0 0 0 0 0 0 0 0 0 0 0 0 0 0 0 0 0 0 0 0 0 0 0 0 0 0 0 0 0 0 0 0 0 0 0 0 0 0 0 0 0 0 0 0 0 0 0 0 0 0 0 0 0 0 0 0 0 0 0 0 0 0 0 0 0 0 0 0 0 0 0 0 0 0 0 0 0 0 0 0 0 0 0.00105884 -5.71709e-05 0 0 0 0 0 0 0 0 0 0 0 0 0 0 0 0 0 0 0 0 0 0 0 0 0 0 0 0 0 0 0 0 0 0 0 0 0 0 0 0 0 0 0 0 0 0 0 0 0 0 0 0 0 0 0 0 0 0 0 0 0 0 0 0 0 0 0 0 0 0 0 0 0 0 0 0 0 0 0 0 0 0 0 0 0 0 0 0 0 0 0 0 0 0 0.0010607 -6.17961e-05 0 0 0 0 0 0 0 0 0 0 0 0 0 0 0 0 0 0 0 0 0 0 0 0 0 0 0 0 0 0 0 0 0 0 0 0 0 0 0 0 0 0 0 0 0 0 0 0 0 0 0 0 0 0 0 0 0 0 0 0 0 0 0 0 0 0 0 0 0 0 0 0 0 0 0 0 0 0 0 0 0 0 0 0 0 0 0 0 0 0 0 0 0 0 0.00106299 -6.64599e-05 0 0 0 0 0 0 0 0 0 0 0 0 0 0 0 0 0 0 0 0 0 0 0 0 0 0 0 0 0 0 0 0 0 0 0 0 0 0 0 0 0 0 0 0 0 0 0 0 0 0 0 0 0 0 0 0 0 0 0 0 0 0 0 0 0 0 0 0 0 0 0 0 0 0 0 0 0 0 0 0 0 0 0 0 0 0 0 0 0 0 0 0 0 0 0.00106618 -7.12747e-05 0 0 0 0 0 0 0 0 0 0 0 0 0 0 0 0 0 0 0 0 0 0 0 0 0 0 0 0 0 0 0 0 0 0 0 0 0 0 0 0 0 0 0 0 0 0 0 0 0 0 0 0 0 0 0 0 0 0 0 0 0 0 0 0 0 0 0 0 0 0 0 0 0 0 0 0 0 0 0 0 0 0 0 0 0 0 0 0 0 0 0 0 0 0 </DataArray> 
</PointData> 
<Points> 
<DataArray type="Float32" NumberOfComponents="3"> 
3 3 0 3.09677 3 0 3.19355 3 0 3.29032 3 0 3.3871 3 0 3.48387 3 0 3.58065 3 0 3.67742 3 0 3.77419 3 0 3.87097 3 0 3.96774 3 0 4.06452 3 0 4.16129 3 0 4.25806 3 0 4.35484 3 0 4.45161 3 0 4.54839 3 0 4.64516 3 0 4.74194 3 0 4.83871 3 0 4.93548 3 0 5.03226 3 0 5.12903 3 0 5.22581 3 0 5.32258 3 0 5.41935 3 0 5.51613 3 0 5.6129 3 0 5.70968 3 0 5.80645 3 0 5.90323 3 0 6 3 0 3 3.03226 0 3.09677 3.03226 0 3.19355 3.03226 0 3.29032 3.03226 0 3.3871 3.03226 0 3.48387 3.03226 0 3.58065 3.03226 0 3.67742 3.03226 0 3.77419 3.03226 0 3.87097 3.03226 0 3.96774 3.03226 0 4.06452 3.03226 0 4.16129 3.03226 0 4.25806 3.03226 0 4.35484 3.03226 0 4.45161 3.03226 0 4.54839 3.03226 0 4.64516 3.03226 0 4.74194 3.03226 0 4.83871 3.03226 0 4.93548 3.03226 0 5.03226 3.03226 0 5.12903 3.03226 0 5.22581 3.03226 0 5.32258 3.03226 0 5.41935 3.03226 0 5.51613 3.03226 0 5.6129 3.03226 0 5.70968 3.03226 0 5.80645 3.03226 0 5.90323 3.03226 0 6 3.03226 0 3 3.06452 0 3.09677 3.06452 0 3.19355 3.06452 0 3.29032 3.06452 0 3.3871 3.06452 0 3.48387 3.06452 0 3.58065 3.06452 0 3.67742 3.06452 0 3.77419 3.06452 0 3.87097 3.06452 0 3.96774 3.06452 0 4.06452 3.06452 0 4.16129 3.06452 0 4.25806 3.06452 0 4.35484 3.06452 0 4.45161 3.06452 0 4.54839 3.06452 0 4.64516 3.06452 0 4.74194 3.06452 0 4.83871 3.06452 0 4.93548 3.06452 0 5.03226 3.06452 0 5.12903 3.06452 0 5.22581 3.06452 0 5.32258 3.06452 0 5.41935 3.06452 0 5.51613 3.06452 0 5.6129 3.06452 0 5.70968 3.06452 0 5.80645 3.06452 0 5.90323 3.06452 0 6 3.06452 0 3 3.09677 0 3.09677 3.09677 0 3.19355 3.09677 0 3.29032 3.09677 0 3.3871 3.09677 0 3.48387 3.09677 0 3.58065 3.09677 0 3.67742 3.09677 0 3.77419 3.09677 0 3.87097 3.09677 0 3.96774 3.09677 0 4.06452 3.09677 0 4.16129 3.09677 0 4.25806 3.09677 0 4.35484 3.09677 0 4.45161 3.09677 0 4.54839 3.09677 0 4.64516 3.09677 0 4.74194 3.09677 0 4.83871 3.09677 0 4.93548 3.09677 0 5.03226 3.09677 0 5.12903 3.09677 0 5.22581 3.09677 0 5.32258 3.09677 0 5.41935 3.09677 0 5.51613 3.09677 0 5.6129 3.09677 0 5.70968 3.09677 0 5.80645 3.09677 0 5.90323 3.09677 0 6 3.09677 0 3 3.12903 0 3.09677 3.12903 0 3.19355 3.12903 0 3.29032 3.12903 0 3.3871 3.12903 0 3.48387 3.12903 0 3.58065 3.12903 0 3.67742 3.12903 0 3.77419 3.12903 0 3.87097 3.12903 0 3.96774 3.12903 0 4.06452 3.12903 0 4.16129 3.12903 0 4.25806 3.12903 0 4.35484 3.12903 0 4.45161 3.12903 0 4.54839 3.12903 0 4.64516 3.12903 0 4.74194 3.12903 0 4.83871 3.12903 0 4.93548 3.12903 0 5.03226 3.12903 0 5.12903 3.12903 0 5.22581 3.12903 0 5.32258 3.12903 0 5.41935 3.12903 0 5.51613 3.12903 0 5.6129 3.12903 0 5.70968 3.12903 0 5.80645 3.12903 0 5.90323 3.12903 0 6 3.12903 0 3 3.16129 0 3.09677 3.16129 0 3.19355 3.16129 0 3.29032 3.16129 0 3.3871 3.16129 0 3.48387 3.16129 0 3.58065 3.16129 0 3.67742 3.16129 0 3.77419 3.16129 0 3.87097 3.16129 0 3.96774 3.16129 0 4.06452 3.16129 0 4.16129 3.16129 0 4.25806 3.16129 0 4.35484 3.16129 0 4.45161 3.16129 0 4.54839 3.16129 0 4.64516 3.16129 0 4.74194 3.16129 0 4.83871 3.16129 0 4.93548 3.16129 0 5.03226 3.16129 0 5.12903 3.16129 0 5.22581 3.16129 0 5.32258 3.16129 0 5.41935 3.16129 0 5.51613 3.16129 0 5.6129 3.16129 0 5.70968 3.16129 0 5.80645 3.16129 0 5.90323 3.16129 0 6 3.16129 0 3 3.19355 0 3.09677 3.19355 0 3.19355 3.19355 0 3.29032 3.19355 0 3.3871 3.19355 0 3.48387 3.19355 0 3.58065 3.19355 0 3.67742 3.19355 0 3.77419 3.19355 0 3.87097 3.19355 0 3.96774 3.19355 0 4.06452 3.19355 0 4.16129 3.19355 0 4.25806 3.19355 0 4.35484 3.19355 0 4.45161 3.19355 0 4.54839 3.19355 0 4.64516 3.19355 0 4.74194 3.19355 0 4.83871 3.19355 0 4.93548 3.19355 0 5.03226 3.19355 0 5.12903 3.19355 0 5.22581 3.19355 0 5.32258 3.19355 0 5.41935 3.19355 0 5.51613 3.19355 0 5.6129 3.19355 0 5.70968 3.19355 0 5.80645 3.19355 0 5.90323 3.19355 0 6 3.19355 0 3 3.22581 0 3.09677 3.22581 0 3.19355 3.22581 0 3.29032 3.22581 0 3.3871 3.22581 0 3.48387 3.22581 0 3.58065 3.22581 0 3.67742 3.22581 0 3.77419 3.22581 0 3.87097 3.22581 0 3.96774 3.22581 0 4.06452 3.22581 0 4.16129 3.22581 0 4.25806 3.22581 0 4.35484 3.22581 0 4.45161 3.22581 0 4.54839 3.22581 0 4.64516 3.22581 0 4.74194 3.22581 0 4.83871 3.22581 0 4.93548 3.22581 0 5.03226 3.22581 0 5.12903 3.22581 0 5.22581 3.22581 0 5.32258 3.22581 0 5.41935 3.22581 0 5.51613 3.22581 0 5.6129 3.22581 0 5.70968 3.22581 0 5.80645 3.22581 0 5.90323 3.22581 0 6 3.22581 0 3 3.25806 0 3.09677 3.25806 0 3.19355 3.25806 0 3.29032 3.25806 0 3.3871 3.25806 0 3.48387 3.25806 0 3.58065 3.25806 0 3.67742 3.25806 0 3.77419 3.25806 0 3.87097 3.25806 0 3.96774 3.25806 0 4.06452 3.25806 0 4.16129 3.25806 0 4.25806 3.25806 0 4.35484 3.25806 0 4.45161 3.25806 0 4.54839 3.25806 0 4.64516 3.25806 0 4.74194 3.25806 0 4.83871 3.25806 0 4.93548 3.25806 0 5.03226 3.25806 0 5.12903 3.25806 0 5.22581 3.25806 0 5.32258 3.25806 0 5.41935 3.25806 0 5.51613 3.25806 0 5.6129 3.25806 0 5.70968 3.25806 0 5.80645 3.25806 0 5.90323 3.25806 0 6 3.25806 0 3 3.29032 0 3.09677 3.29032 0 3.19355 3.29032 0 3.29032 3.29032 0 3.3871 3.29032 0 3.48387 3.29032 0 3.58065 3.29032 0 3.67742 3.29032 0 3.77419 3.29032 0 3.87097 3.29032 0 3.96774 3.29032 0 4.06452 3.29032 0 4.16129 3.29032 0 4.25806 3.29032 0 4.35484 3.29032 0 4.45161 3.29032 0 4.54839 3.29032 0 4.64516 3.29032 0 4.74194 3.29032 0 4.83871 3.29032 0 4.93548 3.29032 0 5.03226 3.29032 0 5.12903 3.29032 0 5.22581 3.29032 0 5.32258 3.29032 0 5.41935 3.29032 0 5.51613 3.29032 0 5.6129 3.29032 0 5.70968 3.29032 0 5.80645 3.29032 0 5.90323 3.29032 0 6 3.29032 0 3 3.32258 0 3.09677 3.32258 0 3.19355 3.32258 0 3.29032 3.32258 0 3.3871 3.32258 0 3.48387 3.32258 0 3.58065 3.32258 0 3.67742 3.32258 0 3.77419 3.32258 0 3.87097 3.32258 0 3.96774 3.32258 0 4.06452 3.32258 0 4.16129 3.32258 0 4.25806 3.32258 0 4.35484 3.32258 0 4.45161 3.32258 0 4.54839 3.32258 0 4.64516 3.32258 0 4.74194 3.32258 0 4.83871 3.32258 0 4.93548 3.32258 0 5.03226 3.32258 0 5.12903 3.32258 0 5.22581 3.32258 0 5.32258 3.32258 0 5.41935 3.32258 0 5.51613 3.32258 0 5.6129 3.32258 0 5.70968 3.32258 0 5.80645 3.32258 0 5.90323 3.32258 0 6 3.32258 0 3 3.35484 0 3.09677 3.35484 0 3.19355 3.35484 0 3.29032 3.35484 0 3.3871 3.35484 0 3.48387 3.35484 0 3.58065 3.35484 0 3.67742 3.35484 0 3.77419 3.35484 0 3.87097 3.35484 0 3.96774 3.35484 0 4.06452 3.35484 0 4.16129 3.35484 0 4.25806 3.35484 0 4.35484 3.35484 0 4.45161 3.35484 0 4.54839 3.35484 0 4.64516 3.35484 0 4.74194 3.35484 0 4.83871 3.35484 0 4.93548 3.35484 0 5.03226 3.35484 0 5.12903 3.35484 0 5.22581 3.35484 0 5.32258 3.35484 0 5.41935 3.35484 0 5.51613 3.35484 0 5.6129 3.35484 0 5.70968 3.35484 0 5.80645 3.35484 0 5.90323 3.35484 0 6 3.35484 0 3 3.3871 0 3.09677 3.3871 0 3.19355 3.3871 0 3.29032 3.3871 0 3.3871 3.3871 0 3.48387 3.3871 0 3.58065 3.3871 0 3.67742 3.3871 0 3.77419 3.3871 0 3.87097 3.3871 0 3.96774 3.3871 0 4.06452 3.3871 0 4.16129 3.3871 0 4.25806 3.3871 0 4.35484 3.3871 0 4.45161 3.3871 0 4.54839 3.3871 0 4.64516 3.3871 0 4.74194 3.3871 0 4.83871 3.3871 0 4.93548 3.3871 0 5.03226 3.3871 0 5.12903 3.3871 0 5.22581 3.3871 0 5.32258 3.3871 0 5.41935 3.3871 0 5.51613 3.3871 0 5.6129 3.3871 0 5.70968 3.3871 0 5.80645 3.3871 0 5.90323 3.3871 0 6 3.3871 0 3 3.41935 0 3.09677 3.41935 0 3.19355 3.41935 0 3.29032 3.41935 0 3.3871 3.41935 0 3.48387 3.41935 0 3.58065 3.41935 0 3.67742 3.41935 0 3.77419 3.41935 0 3.87097 3.41935 0 3.96774 3.41935 0 4.06452 3.41935 0 4.16129 3.41935 0 4.25806 3.41935 0 4.35484 3.41935 0 4.45161 3.41935 0 4.54839 3.41935 0 4.64516 3.41935 0 4.74194 3.41935 0 4.83871 3.41935 0 4.93548 3.41935 0 5.03226 3.41935 0 5.12903 3.41935 0 5.22581 3.41935 0 5.32258 3.41935 0 5.41935 3.41935 0 5.51613 3.41935 0 5.6129 3.41935 0 5.70968 3.41935 0 5.80645 3.41935 0 5.90323 3.41935 0 6 3.41935 0 3 3.45161 0 3.09677 3.45161 0 3.19355 3.45161 0 3.29032 3.45161 0 3.3871 3.45161 0 3.48387 3.45161 0 3.58065 3.45161 0 3.67742 3.45161 0 3.77419 3.45161 0 3.87097 3.45161 0 3.96774 3.45161 0 4.06452 3.45161 0 4.16129 3.45161 0 4.25806 3.45161 0 4.35484 3.45161 0 4.45161 3.45161 0 4.54839 3.45161 0 4.64516 3.45161 0 4.74194 3.45161 0 4.83871 3.45161 0 4.93548 3.45161 0 5.03226 3.45161 0 5.12903 3.45161 0 5.22581 3.45161 0 5.32258 3.45161 0 5.41935 3.45161 0 5.51613 3.45161 0 5.6129 3.45161 0 5.70968 3.45161 0 5.80645 3.45161 0 5.90323 3.45161 0 6 3.45161 0 3 3.48387 0 3.09677 3.48387 0 3.19355 3.48387 0 3.29032 3.48387 0 3.3871 3.48387 0 3.48387 3.48387 0 3.58065 3.48387 0 3.67742 3.48387 0 3.77419 3.48387 0 3.87097 3.48387 0 3.96774 3.48387 0 4.06452 3.48387 0 4.16129 3.48387 0 4.25806 3.48387 0 4.35484 3.48387 0 4.45161 3.48387 0 4.54839 3.48387 0 4.64516 3.48387 0 4.74194 3.48387 0 4.83871 3.48387 0 4.93548 3.48387 0 5.03226 3.48387 0 5.12903 3.48387 0 5.22581 3.48387 0 5.32258 3.48387 0 5.41935 3.48387 0 5.51613 3.48387 0 5.6129 3.48387 0 5.70968 3.48387 0 5.80645 3.48387 0 5.90323 3.48387 0 6 3.48387 0 3 3.51613 0 3.09677 3.51613 0 3.19355 3.51613 0 3.29032 3.51613 0 3.3871 3.51613 0 3.48387 3.51613 0 3.58065 3.51613 0 3.67742 3.51613 0 3.77419 3.51613 0 3.87097 3.51613 0 3.96774 3.51613 0 4.06452 3.51613 0 4.16129 3.51613 0 4.25806 3.51613 0 4.35484 3.51613 0 4.45161 3.51613 0 4.54839 3.51613 0 4.64516 3.51613 0 4.74194 3.51613 0 4.83871 3.51613 0 4.93548 3.51613 0 5.03226 3.51613 0 5.12903 3.51613 0 5.22581 3.51613 0 5.32258 3.51613 0 5.41935 3.51613 0 5.51613 3.51613 0 5.6129 3.51613 0 5.70968 3.51613 0 5.80645 3.51613 0 5.90323 3.51613 0 6 3.51613 0 3 3.54839 0 3.09677 3.54839 0 3.19355 3.54839 0 3.29032 3.54839 0 3.3871 3.54839 0 3.48387 3.54839 0 3.58065 3.54839 0 3.67742 3.54839 0 3.77419 3.54839 0 3.87097 3.54839 0 3.96774 3.54839 0 4.06452 3.54839 0 4.16129 3.54839 0 4.25806 3.54839 0 4.35484 3.54839 0 4.45161 3.54839 0 4.54839 3.54839 0 4.64516 3.54839 0 4.74194 3.54839 0 4.83871 3.54839 0 4.93548 3.54839 0 5.03226 3.54839 0 5.12903 3.54839 0 5.22581 3.54839 0 5.32258 3.54839 0 5.41935 3.54839 0 5.51613 3.54839 0 5.6129 3.54839 0 5.70968 3.54839 0 5.80645 3.54839 0 5.90323 3.54839 0 6 3.54839 0 3 3.58065 0 3.09677 3.58065 0 3.19355 3.58065 0 3.29032 3.58065 0 3.3871 3.58065 0 3.48387 3.58065 0 3.58065 3.58065 0 3.67742 3.58065 0 3.77419 3.58065 0 3.87097 3.58065 0 3.96774 3.58065 0 4.06452 3.58065 0 4.16129 3.58065 0 4.25806 3.58065 0 4.35484 3.58065 0 4.45161 3.58065 0 4.54839 3.58065 0 4.64516 3.58065 0 4.74194 3.58065 0 4.83871 3.58065 0 4.93548 3.58065 0 5.03226 3.58065 0 5.12903 3.58065 0 5.22581 3.58065 0 5.32258 3.58065 0 5.41935 3.58065 0 5.51613 3.58065 0 5.6129 3.58065 0 5.70968 3.58065 0 5.80645 3.58065 0 5.90323 3.58065 0 6 3.58065 0 3 3.6129 0 3.09677 3.6129 0 3.19355 3.6129 0 3.29032 3.6129 0 3.3871 3.6129 0 3.48387 3.6129 0 3.58065 3.6129 0 3.67742 3.6129 0 3.77419 3.6129 0 3.87097 3.6129 0 3.96774 3.6129 0 4.06452 3.6129 0 4.16129 3.6129 0 4.25806 3.6129 0 4.35484 3.6129 0 4.45161 3.6129 0 4.54839 3.6129 0 4.64516 3.6129 0 4.74194 3.6129 0 4.83871 3.6129 0 4.93548 3.6129 0 5.03226 3.6129 0 5.12903 3.6129 0 5.22581 3.6129 0 5.32258 3.6129 0 5.41935 3.6129 0 5.51613 3.6129 0 5.6129 3.6129 0 5.70968 3.6129 0 5.80645 3.6129 0 5.90323 3.6129 0 6 3.6129 0 3 3.64516 0 3.09677 3.64516 0 3.19355 3.64516 0 3.29032 3.64516 0 3.3871 3.64516 0 3.48387 3.64516 0 3.58065 3.64516 0 3.67742 3.64516 0 3.77419 3.64516 0 3.87097 3.64516 0 3.96774 3.64516 0 4.06452 3.64516 0 4.16129 3.64516 0 4.25806 3.64516 0 4.35484 3.64516 0 4.45161 3.64516 0 4.54839 3.64516 0 4.64516 3.64516 0 4.74194 3.64516 0 4.83871 3.64516 0 4.93548 3.64516 0 5.03226 3.64516 0 5.12903 3.64516 0 5.22581 3.64516 0 5.32258 3.64516 0 5.41935 3.64516 0 5.51613 3.64516 0 5.6129 3.64516 0 5.70968 3.64516 0 5.80645 3.64516 0 5.90323 3.64516 0 6 3.64516 0 3 3.67742 0 3.09677 3.67742 0 3.19355 3.67742 0 3.29032 3.67742 0 3.3871 3.67742 0 3.48387 3.67742 0 3.58065 3.67742 0 3.67742 3.67742 0 3.77419 3.67742 0 3.87097 3.67742 0 3.96774 3.67742 0 4.06452 3.67742 0 4.16129 3.67742 0 4.25806 3.67742 0 4.35484 3.67742 0 4.45161 3.67742 0 4.54839 3.67742 0 4.64516 3.67742 0 4.74194 3.67742 0 4.83871 3.67742 0 4.93548 3.67742 0 5.03226 3.67742 0 5.12903 3.67742 0 5.22581 3.67742 0 5.32258 3.67742 0 5.41935 3.67742 0 5.51613 3.67742 0 5.6129 3.67742 0 5.70968 3.67742 0 5.80645 3.67742 0 5.90323 3.67742 0 6 3.67742 0 3 3.70968 0 3.09677 3.70968 0 3.19355 3.70968 0 3.29032 3.70968 0 3.3871 3.70968 0 3.48387 3.70968 0 3.58065 3.70968 0 3.67742 3.70968 0 3.77419 3.70968 0 3.87097 3.70968 0 3.96774 3.70968 0 4.06452 3.70968 0 4.16129 3.70968 0 4.25806 3.70968 0 4.35484 3.70968 0 4.45161 3.70968 0 4.54839 3.70968 0 4.64516 3.70968 0 4.74194 3.70968 0 4.83871 3.70968 0 4.93548 3.70968 0 5.03226 3.70968 0 5.12903 3.70968 0 5.22581 3.70968 0 5.32258 3.70968 0 5.41935 3.70968 0 5.51613 3.70968 0 5.6129 3.70968 0 5.70968 3.70968 0 5.80645 3.70968 0 5.90323 3.70968 0 6 3.70968 0 3 3.74194 0 3.09677 3.74194 0 3.19355 3.74194 0 3.29032 3.74194 0 3.3871 3.74194 0 3.48387 3.74194 0 3.58065 3.74194 0 3.67742 3.74194 0 3.77419 3.74194 0 3.87097 3.74194 0 3.96774 3.74194 0 4.06452 3.74194 0 4.16129 3.74194 0 4.25806 3.74194 0 4.35484 3.74194 0 4.45161 3.74194 0 4.54839 3.74194 0 4.64516 3.74194 0 4.74194 3.74194 0 4.83871 3.74194 0 4.93548 3.74194 0 5.03226 3.74194 0 5.12903 3.74194 0 5.22581 3.74194 0 5.32258 3.74194 0 5.41935 3.74194 0 5.51613 3.74194 0 5.6129 3.74194 0 5.70968 3.74194 0 5.80645 3.74194 0 5.90323 3.74194 0 6 3.74194 0 3 3.77419 0 3.09677 3.77419 0 3.19355 3.77419 0 3.29032 3.77419 0 3.3871 3.77419 0 3.48387 3.77419 0 3.58065 3.77419 0 3.67742 3.77419 0 3.77419 3.77419 0 3.87097 3.77419 0 3.96774 3.77419 0 4.06452 3.77419 0 4.16129 3.77419 0 4.25806 3.77419 0 4.35484 3.77419 0 4.45161 3.77419 0 4.54839 3.77419 0 4.64516 3.77419 0 4.74194 3.77419 0 4.83871 3.77419 0 4.93548 3.77419 0 5.03226 3.77419 0 5.12903 3.77419 0 5.22581 3.77419 0 5.32258 3.77419 0 5.41935 3.77419 0 5.51613 3.77419 0 5.6129 3.77419 0 5.70968 3.77419 0 5.80645 3.77419 0 5.90323 3.77419 0 6 3.77419 0 3 3.80645 0 3.09677 3.80645 0 3.19355 3.80645 0 3.29032 3.80645 0 3.3871 3.80645 0 3.48387 3.80645 0 3.58065 3.80645 0 3.67742 3.80645 0 3.77419 3.80645 0 3.87097 3.80645 0 3.96774 3.80645 0 4.06452 3.80645 0 4.16129 3.80645 0 4.25806 3.80645 0 4.35484 3.80645 0 4.45161 3.80645 0 4.54839 3.80645 0 4.64516 3.80645 0 4.74194 3.80645 0 4.83871 3.80645 0 4.93548 3.80645 0 5.03226 3.80645 0 5.12903 3.80645 0 5.22581 3.80645 0 5.32258 3.80645 0 5.41935 3.80645 0 5.51613 3.80645 0 5.6129 3.80645 0 5.70968 3.80645 0 5.80645 3.80645 0 5.90323 3.80645 0 6 3.80645 0 3 3.83871 0 3.09677 3.83871 0 3.19355 3.83871 0 3.29032 3.83871 0 3.3871 3.83871 0 3.48387 3.83871 0 3.58065 3.83871 0 3.67742 3.83871 0 3.77419 3.83871 0 3.87097 3.83871 0 3.96774 3.83871 0 4.06452 3.83871 0 4.16129 3.83871 0 4.25806 3.83871 0 4.35484 3.83871 0 4.45161 3.83871 0 4.54839 3.83871 0 4.64516 3.83871 0 4.74194 3.83871 0 4.83871 3.83871 0 4.93548 3.83871 0 5.03226 3.83871 0 5.12903 3.83871 0 5.22581 3.83871 0 5.32258 3.83871 0 5.41935 3.83871 0 5.51613 3.83871 0 5.6129 3.83871 0 5.70968 3.83871 0 5.80645 3.83871 0 5.90323 3.83871 0 6 3.83871 0 3 3.87097 0 3.09677 3.87097 0 3.19355 3.87097 0 3.29032 3.87097 0 3.3871 3.87097 0 3.48387 3.87097 0 3.58065 3.87097 0 3.67742 3.87097 0 3.77419 3.87097 0 3.87097 3.87097 0 3.96774 3.87097 0 4.06452 3.87097 0 4.16129 3.87097 0 4.25806 3.87097 0 4.35484 3.87097 0 4.45161 3.87097 0 4.54839 3.87097 0 4.64516 3.87097 0 4.74194 3.87097 0 4.83871 3.87097 0 4.93548 3.87097 0 5.03226 3.87097 0 5.12903 3.87097 0 5.22581 3.87097 0 5.32258 3.87097 0 5.41935 3.87097 0 5.51613 3.87097 0 5.6129 3.87097 0 5.70968 3.87097 0 5.80645 3.87097 0 5.90323 3.87097 0 6 3.87097 0 3 3.90323 0 3.09677 3.90323 0 3.19355 3.90323 0 3.29032 3.90323 0 3.3871 3.90323 0 3.48387 3.90323 0 3.58065 3.90323 0 3.67742 3.90323 0 3.77419 3.90323 0 3.87097 3.90323 0 3.96774 3.90323 0 4.06452 3.90323 0 4.16129 3.90323 0 4.25806 3.90323 0 4.35484 3.90323 0 4.45161 3.90323 0 4.54839 3.90323 0 4.64516 3.90323 0 4.74194 3.90323 0 4.83871 3.90323 0 4.93548 3.90323 0 5.03226 3.90323 0 5.12903 3.90323 0 5.22581 3.90323 0 5.32258 3.90323 0 5.41935 3.90323 0 5.51613 3.90323 0 5.6129 3.90323 0 5.70968 3.90323 0 5.80645 3.90323 0 5.90323 3.90323 0 6 3.90323 0 3 3.93548 0 3.09677 3.93548 0 3.19355 3.93548 0 3.29032 3.93548 0 3.3871 3.93548 0 3.48387 3.93548 0 3.58065 3.93548 0 3.67742 3.93548 0 3.77419 3.93548 0 3.87097 3.93548 0 3.96774 3.93548 0 4.06452 3.93548 0 4.16129 3.93548 0 4.25806 3.93548 0 4.35484 3.93548 0 4.45161 3.93548 0 4.54839 3.93548 0 4.64516 3.93548 0 4.74194 3.93548 0 4.83871 3.93548 0 4.93548 3.93548 0 5.03226 3.93548 0 5.12903 3.93548 0 5.22581 3.93548 0 5.32258 3.93548 0 5.41935 3.93548 0 5.51613 3.93548 0 5.6129 3.93548 0 5.70968 3.93548 0 5.80645 3.93548 0 5.90323 3.93548 0 6 3.93548 0 3 3.96774 0 3.09677 3.96774 0 3.19355 3.96774 0 3.29032 3.96774 0 3.3871 3.96774 0 3.48387 3.96774 0 3.58065 3.96774 0 3.67742 3.96774 0 3.77419 3.96774 0 3.87097 3.96774 0 3.96774 3.96774 0 4.06452 3.96774 0 4.16129 3.96774 0 4.25806 3.96774 0 4.35484 3.96774 0 4.45161 3.96774 0 4.54839 3.96774 0 4.64516 3.96774 0 4.74194 3.96774 0 4.83871 3.96774 0 4.93548 3.96774 0 5.03226 3.96774 0 5.12903 3.96774 0 5.22581 3.96774 0 5.32258 3.96774 0 5.41935 3.96774 0 5.51613 3.96774 0 5.6129 3.96774 0 5.70968 3.96774 0 5.80645 3.96774 0 5.90323 3.96774 0 6 3.96774 0 3 4 0 3.09677 4 0 3.19355 4 0 3.29032 4 0 3.3871 4 0 3.48387 4 0 3.58065 4 0 3.67742 4 0 3.77419 4 0 3.87097 4 0 3.96774 4 0 4.06452 4 0 4.16129 4 0 4.25806 4 0 4.35484 4 0 4.45161 4 0 4.54839 4 0 4.64516 4 0 4.74194 4 0 4.83871 4 0 4.93548 4 0 5.03226 4 0 5.12903 4 0 5.22581 4 0 5.32258 4 0 5.41935 4 0 5.51613 4 0 5.6129 4 0 5.70968 4 0 5.80645 4 0 5.90323 4 0 6 4 0 
</DataArray>
</Points> 
</Piece> 
</StructuredGrid> 
</VTKFile> 
