<?xml version="1.0"?> 
<VTKFile type="StructuredGrid" version="0.1"> 
<StructuredGrid WholeExtent="0 31 0 31 0 0"> 
<Piece Extent="0 31 0 31 0 0"> 
<PointData>
<DataArray type="Float32" Name="u" format="ascii" NumberOfComponents="3"> 
0 0 0 3.95209e-05 -4.62832e-05 0 6.93388e-05 -6.30379e-05 0 9.98488e-05 -7.08769e-05 0 0.000131251 -7.45911e-05 0 0.000163762 -7.62857e-05 0 0.000196934 -7.70418e-05 0 0.000230679 -7.7344e-05 0 0.000264766 -7.74542e-05 0 0.000299116 -7.74762e-05 0 0.000333631 -7.74688e-05 0 0.000368265 -7.74501e-05 0 0.000402978 -7.74301e-05 0 0.000437747 -7.74095e-05 0 0.000472553 -7.73878e-05 0 0.000507387 -7.73632e-05 0 0.00054224 -7.73339e-05 0 0.000577108 -7.72983e-05 0 0.00061199 -7.72551e-05 0 0.000646884 -7.72037e-05 0 0.000681791 -7.71439e-05 0 0.000716712 -7.70762e-05 0 0.000751648 -7.70008e-05 0 0.0007866 -7.69195e-05 0 0.000821565 -7.68309e-05 0 0.000856544 -7.67354e-05 0 0.000891523 -7.66171e-05 0 0.0009265 -7.64614e-05 0 0.000961435 -7.61801e-05 0 0.00099635 -7.56667e-05 0 0.00103118 -7.4499e-05 0 0.00106618 -7.12747e-05 0 0 0 0 0 0 0 0 0 0 0 0 0 0 0 0 0 0 0 0 0 0 0 0 0 0 0 0 0 0 0 0 0 0 0 0 0 0 0 0 0 0 0 0 0 0 0 0 0 0 0 0 0 0 0 0 0 0 0 0 0 0 0 0 0 0 0 0 0 0 0 0 0 0 0 0 0 0 0 0 0 0 0 0 0 0 0 0 0 0 0 0 0 0 0 0 0 0 0 0 0 0 0 0 0 0 0 0 0 0 0 0 0 0 0 0 0 0 0 0 0 0 0 0 0 0 0 0 0 0 0 0 0 0 0 0 0 0 0 0 0 0 0 0 0 0 0 0 0 0 0 0 0 0 0 0 0 0 0 0 0 0 0 0 0 0 0 0 0 0 0 0 0 0 0 0 0 0 0 0 0 0 0 0 0 0 0 0 0 0 0 0 0 0 0 0 0 0 0 0 0 0 0 0 0 0 0 0 0 0 0 0 0 0 0 0 0 0 0 0 0 0 0 0 0 0 0 0 0 0 0 0 0 0 0 0 0 0 0 0 0 0 0 0 0 0 0 0 0 0 0 0 0 0 0 0 0 0 0 0 0 0 0 0 0 0 0 0 0 0 0 0 0 0 0 0 0 0 0 0 0 0 0 0 0 0 0 0 0 0 0 0 0 0 0 0 0 0 0 0 0 0 0 0 0 0 0 0 0 0 0 0 0 0 0 0 0 0 0 0 0 0 0 0 0 0 0 0 0 0 0 0 0 0 0 0 0 0 0 0 0 0 0 0 0 0 0 0 0 0 0 0 0 0 0 0 0 0 0 0 0 0 0 0 0 0 0 0 0 0 0 0 0 0 0 0 0 0 0 0 0 0 0 0 0 0 0 0 0 0 0 0 0 0 0 0 0 0 0 0 0 0 0 0 0 0 0 0 0 0 0 0 0 0 0 0 0 0 0 0 0 0 0 0 0 0 0 0 0 0 0 0 0 0 0 0 0 0 0 0 0 0 0 0 0 0 0 0 0 0 0 0 0 0 0 0 0 0 0 0 0 0 0 0 0 0 0 0 0 0 0 0 0 0 0 0 0 0 0 0 0 0 0 0 0 0 0 0 0 0 0 0 0 0 0 0 0 0 0 0 0 0 0 0 0 0 0 0 0 0 0 0 0 0 0 0 0 0 0 0 0 0 0 0 0 0 0 0 0 0 0 0 0 0 0 0 0 0 0 0 0 0 0 0 0 0 0 0 0 0 0 0 0 0 0 0 0 0 0 0 0 0 0 0 0 0 0 0 0 0 0 0 0 0 0 0 0 0 0 0 0 0 0 0 0 0 0 0 0 0 0 0 0 0 0 0 0 0 0 0 0 0 0 0 0 0 0 0 0 0 0 0 0 0 0 0 0 0 0 0 0 0 0 0 0 0 0 0 0 0 0 0 0 0 0 0 0 0 0 0 0 0 0 0 0 0 0 0 0 0 0 0 0 0 0 0 0 0 0 0 0 0 0 0 0 0 0 0 0 0 0 0 0 0 0 0 0 0 0 0 0 0 0 0 0 0 0 0 0 0 0 0 0 0 0 0 0 0 0 0 0 0 0 0 0 0 0 0 0 0 0 0 0 0 0 0 0 0 0 0 0 0 0 0 0 0 0 0 0 0 0 0 0 0 0 0 0 0 0 0 0 0 0 0 0 0 0 0 0 0 0 0 0 0 0 0 0 0 0 0 0 0 0 0 0 0 0 0 0 0 0 0 0 0 0 0 0 0 0 0 0 0 0 0 0 0 0 0 0 0 0 0 0 0 0 0 0 0 0 0 0 0 0 0 0 0 0 0 0 0 0 0 0 0 0 0 0 0 0 0 0 0 0 0 0 0 0 0 0 0 0 0 0 0 0 0 0 0 0 0 0 0 0 0 0 0 0 0 0 0 0 0 0 0 0 0 0 0 0 0 0 0 0 0 0 0 0 0 0 0 0 0 0 0 0 0 0 0 0 0 0 0 0 0 0 0 0 0 0 0 0 0 0 0 0 0 0 0 0 0 0 0 0 0 0 0 0 0 0 0 0 0 0 0 0 0 0 0 0 0 0 0 0 0 0 0 0 0 0 0 0 0 0 0 0 0 0 0 0 0 0 0 0 0 0 0 0 0 0 0 0 0 0 0 0 0 0 0 0 0 0 0 0 0 0 0 0 0 0 0 0 0 0 0 0 0 0 0 0 0 0 0 0 0 0 0 0 0 0 0 0 0 0 0 0 0 0 0 0 0 0 0 0 0 0 0 0 0 0 0 0 0 0 0 0 0 0 0 0 0 0 0 0 0 0 0 0 0 0 0 0 0 0 0 0 0 0 0 0 0 0 0 0 0 0 0 0 0 0 0 0 0 0 0 0 0 0 0 0 0 0 0 0 0 0 0 0 0 0 0 0 0 0 0 0 0 0 0 0 0 0 0 0 0 0 0 0 0 0 0 0 0 0 0 0 0 0 0 0 0 0 0 0 0 0 0 0 0 0 0 0 0 0 0 0 0 0 0 0 0 0 0 0 0 0 0 0 0 0 0 0 0 0 0 0 0 0 0 0 0 0 0 0 0 0 0 0 0 0 0 0 0 0 0 0 0 0 0 0 0 0 0 0 0 0 0 0 0 0 0 0 0 0 0 0 0 0 0 0 0 0 0 0 0 0 0 0 0 0 0 0 0 0 0 0 0 0 0 0 0 0 0 0 0 0 0 0 0 0 0 0 0 0 0 0 0 0 0 0 0 0 0 0 0 0 0 0 0 0 0 0 0 0 0 0 0 0 0 0 0 0 0 0 0 0 0 0 0 0 0 0 0 0 0 0 0 0 0 0 0 0 0 0 0 0 0 0 0 0 0 0 0 0 0 0 0 0 0 0 0 0 0 0 0 0 0 0 0 0 0 0 0 0 0 0 0 0 0 0 0 0 0 0 0 0 0 0 0 0 0 0 0 0 0 0 0 0 0 0 0 0 0 0 0 0 0 0 0 0 0 0 0 0 0 0 0 0 0 0 0 0 0 0 0 0 0 0 0 0 0 0 0 0 0 0 0 0 0 0 0 0 0 0 0 0 0 0 0 0 0 0 0 0 0 0 0 0 0 0 0 0 0 0 0 0 0 0 0 0 0 0 0 0 0 0 0 0 0 0 0 0 0 0 0 0 0 0 0 0 0 0 0 0 0 0 0 0 0 0 0 0 0 0 0 0 0 0 0 0 0 0 0 0 0 0 0 0 0 0 0 0 0 0 0 0 0 0 0 0 0 0 0 0 0 0 0 0 0 0 0 0 0 0 0 0 0 0 0 0 0 0 0 0 0 0 0 0 0 0 0 0 0 0 0 0 0 0 0 0 0 0 0 0 0 0 0 0 0 0 0 0 0 0 0 0 0 0 0 0 0 0 0 0 0 0 0 0 0 0 0 0 0 0 0 0 0 0 0 0 0 0 0 0 0 0 0 0 0 0 0 0 0 0 0 0 0 0 0 0 0 0 0 0 0 0 0 0 0 0 0 0 0 0 0 0 0 0 0 0 0 0 0 0 0 0 0 0 0 0 0 0 0 0 0 0 0 0 0 0 0 0 0 0 0 0 0 0 0 0 0 0 0 0 0 0 0 0 0 0 0 0 0 0 0 0 0 0 0 0 0 0 0 0 0 0 0 0 0 0 0 0 0 0 0 0 0 0 0 0 0 0 0 0 0 0 0 0 0 0 0 0 0 0 0 0 0 0 0 0 0 0 0 0 0 0 0 0 0 0 0 0 0 0 0 0 0 0 0 0 0 0 0 0 0 0 0 0 0 0 0 0 0 0 0 0 0 0 0 0 0 0 0 0 0 0 0 0 0 0 0 0 0 0 0 0 0 0 0 0 0 0 0 0 0 0 0 0 0 0 0 0 0 0 0 0 0 0 0 0 0 0 0 0 0 0 0 0 0 0 0 0 0 0 0 0 0 0 0 0 0 0 0 0 0 0 0 0 0 0 0 0 0 0 0 0 0 0 0 0 0 0 0 0 0 0 0 0 0 0 0 0 0 0 0 0 0 0 0 0 0 0 0 0 0 0 0 0 0 0 0 0 0 0 0 0 0 0 0 0 0 0 0 0 0 0 0 0 0 0 0 0 0 0 0 0 0 0 0 0 0 0 0 0 0 0 0 0 0 0 0 0 0 0 0 0 0 0 0 0 0 0 0 0 0 0 0 0 0 0 0 0 0 0 0 0 0 0 0 0 0 0 0 0 0 0 0 0 0 0 0 0 0 0 0 0 0 0 0 0 0 0 0 0 0 0 0 0 0 0 0 0 0 0 0 0 0 0 0 0 0 0 0 0 0 0 0 0 0 0 0 0 0 0 0 0 0 0 0 0 0 0 0 0 0 0 0 0 0 0 0 0 0 0 0 0 0 0 0 0 0 0 0 0 0 0 0 0 0 0 0 0 0 0 0 0 0 0 0 0 0 0 0 0 0 0 0 0 0 0 0 0 0 0 0 0 0 0 0 0 0 0 0 0 0 0 0 0 0 0 0 0 0 0 0 0 0 0 0 0 0 0 0 0 0 0 0 0 0 0 0 0 0 0 0 0 0 0 0 0 0 0 0 0 0 0 0 0 0 0 0 0 0 0 0 0 0 0 0 0 0 0 0 0 0 0 0 0 0 0 0 0 0 0 0 0 0 0 0 0 0 0 0 0 0 0 0 0 0 0 0 0 0 0 0 0 0 0 0 0 0 0 0 0 0 0 0 0 0 0 0 0 0 0 0 0 0 0 0 0 0 0 0 0 0 0 0 0 0 0 0 0 0 0 0 0 0 0 0 0 0 0 0 0 0 0 0 0 0 0 0 0 0 0 0 0 0 0 0 0 0 0 0 0 0 0 0 0 0 0 0 0 0 0 0 0 0 0 0 0 0 0 0 0 0 0 0 0 0 0 0 0 0 0 0 0 0 0 0 0 0 0 0 0 0 0 0 0 0 0 0 0 0 0 0 0 0 0 0 0 0 0 0 0 0 0 0 0 0 0 0 0 0 0 0 0 0 0 0 0 0 0 0 0 0 0 0 0 0 0 0 0 0 0 0 0 0 0 0 0 0 0 0 0 0 0 0 0 0 0 0 0 0 0 0 0 0 0 0 0 0 0 0 0 0 0 0 0 0 0 0 0 0 0 0 0 0 0 0 0 0 0 0 0 0 0 0 0 0 0 0 0 0 0 0 0 0 0 0 0 0 0 0 0 0 0 0 0 0 0 0 0 0 0 0 0 0 0 0 0 0 0 0 0 0 0 0 0 0 0 0 0 0 0 0 0 0 0 0 0 0 0 0 0 0 0 0 0 0 0 0 0 0 0 0 0 0 0 0 0 0 0 0 0 0 0 0 0 0 0 0 0 0 0 0 0 0 0 0 0 0 0 0 0 0 0 0 0 0 0 0 0 0 0 0 0 0 0 0 0 0 0 0 0 0 0 0 0 0 0 0 0 0 0 0 0 0 0 0 0 0 0 0 0 0 0 0 0 0 0 0 0 0 0 0 0 0 0 0 0 0 0 0 0 0 0 0 0 0 0 0 0 0 0 0 0 0 0 0 0 0 0 0 0 0 0 0 0 0 0 0 0 0 0 0 0 0 0 0 0 0 0 0 0 0 0 0 0 0 0 0 0 0 0 0 0 0 0 0 0 0 0 0 0 0 0 0 0 0 0 0 0 0 0 0 0 0 0 0 0 0 0 0 0 0 0 0 0 0 0 0 0 0 0 0 0 0 0 0 0 0 0 0 0 0 0 0 0 0 0 0 0 0 0 0 0 0 0 0 0 0 0 0 0 0 0 0 0 0 0 0 0 0 0 0 0 0 0 0 0 0 0 0 0 0 0 0 0 0 0 0 0 0 0 0 0 0 0 0 0 0 0 0 0 0 0 0 0 0 0 0 0 0 0 0 0 0 0 0 0 0 0 0 0 0 0 0 0 0 0 0 0 0 0 0 0 0 0 0 0 0 0 0 0 0 0 0 0 0 0 0 0 0 0 0 0 0 0 0 0 0 0 0 0 0 0 0 0 0 0 0 0 0 0 0 0 0 0 0 0 0 0 0 0 0 0 0 0 0 0 0 0 0 0 0 0 0 0 0 0 0 0 0 0 0 0 0 0 0 0 0 0 0 0 0 0 0 0 0 0 0 0 0 0 0 0 0 0 0 0 0 0 0 0 0 0 0 0 0 0 0 0 0 0 0 0 0 0 0 0 0 0 0 0 0 0 0 0 0 0 0 0 0 0 0 0 0 0 0 0 0 0 0 0 0 0 0 0 0 0 0 0 0 0 0 0 0 0 0 0 0 0 0 0 0 0 0 0 0 0 0 0 0 0 0 0 0 0 0 0 0 0 0 0 0 0 0 0 0 0 0 0 0 0 0 0 0 0 0 0 0 0 0 0 0 0 0 0 0 0 0 0 0 0 0 0 0 0 0 0 0 0 0 0 0 0 0 0 0 0 0 0 0 0 0 0 0 0 0 0 0 0 0 0 0 0 0 0 0 0 0 0 0 0 0 0 0 0 0 0 0 0 0 0 0 0 0 0 0 0 0 0 0 0 0 0 0 0 0 0 0 0 0 0 0 0 0 0 0 0 0 0 0 0 0 0 0 0 0 0 0 0 0 0 0 0 0 0 0 0 0 0 0 0 0 0 0 0 0 0 0 0 0 0 0 0 0 0 </DataArray> 
</PointData> 
<Points> 
<DataArray type="Float32" NumberOfComponents="3"> 
0 4 0 0.0967742 4 0 0.193548 4 0 0.290323 4 0 0.387097 4 0 0.483871 4 0 0.580645 4 0 0.677419 4 0 0.774194 4 0 0.870968 4 0 0.967742 4 0 1.06452 4 0 1.16129 4 0 1.25806 4 0 1.35484 4 0 1.45161 4 0 1.54839 4 0 1.64516 4 0 1.74194 4 0 1.83871 4 0 1.93548 4 0 2.03226 4 0 2.12903 4 0 2.22581 4 0 2.32258 4 0 2.41935 4 0 2.51613 4 0 2.6129 4 0 2.70968 4 0 2.80645 4 0 2.90323 4 0 3 4 0 0 4.09677 0 0.0967742 4.09677 0 0.193548 4.09677 0 0.290323 4.09677 0 0.387097 4.09677 0 0.483871 4.09677 0 0.580645 4.09677 0 0.677419 4.09677 0 0.774194 4.09677 0 0.870968 4.09677 0 0.967742 4.09677 0 1.06452 4.09677 0 1.16129 4.09677 0 1.25806 4.09677 0 1.35484 4.09677 0 1.45161 4.09677 0 1.54839 4.09677 0 1.64516 4.09677 0 1.74194 4.09677 0 1.83871 4.09677 0 1.93548 4.09677 0 2.03226 4.09677 0 2.12903 4.09677 0 2.22581 4.09677 0 2.32258 4.09677 0 2.41935 4.09677 0 2.51613 4.09677 0 2.6129 4.09677 0 2.70968 4.09677 0 2.80645 4.09677 0 2.90323 4.09677 0 3 4.09677 0 0 4.19355 0 0.0967742 4.19355 0 0.193548 4.19355 0 0.290323 4.19355 0 0.387097 4.19355 0 0.483871 4.19355 0 0.580645 4.19355 0 0.677419 4.19355 0 0.774194 4.19355 0 0.870968 4.19355 0 0.967742 4.19355 0 1.06452 4.19355 0 1.16129 4.19355 0 1.25806 4.19355 0 1.35484 4.19355 0 1.45161 4.19355 0 1.54839 4.19355 0 1.64516 4.19355 0 1.74194 4.19355 0 1.83871 4.19355 0 1.93548 4.19355 0 2.03226 4.19355 0 2.12903 4.19355 0 2.22581 4.19355 0 2.32258 4.19355 0 2.41935 4.19355 0 2.51613 4.19355 0 2.6129 4.19355 0 2.70968 4.19355 0 2.80645 4.19355 0 2.90323 4.19355 0 3 4.19355 0 0 4.29032 0 0.0967742 4.29032 0 0.193548 4.29032 0 0.290323 4.29032 0 0.387097 4.29032 0 0.483871 4.29032 0 0.580645 4.29032 0 0.677419 4.29032 0 0.774194 4.29032 0 0.870968 4.29032 0 0.967742 4.29032 0 1.06452 4.29032 0 1.16129 4.29032 0 1.25806 4.29032 0 1.35484 4.29032 0 1.45161 4.29032 0 1.54839 4.29032 0 1.64516 4.29032 0 1.74194 4.29032 0 1.83871 4.29032 0 1.93548 4.29032 0 2.03226 4.29032 0 2.12903 4.29032 0 2.22581 4.29032 0 2.32258 4.29032 0 2.41935 4.29032 0 2.51613 4.29032 0 2.6129 4.29032 0 2.70968 4.29032 0 2.80645 4.29032 0 2.90323 4.29032 0 3 4.29032 0 0 4.3871 0 0.0967742 4.3871 0 0.193548 4.3871 0 0.290323 4.3871 0 0.387097 4.3871 0 0.483871 4.3871 0 0.580645 4.3871 0 0.677419 4.3871 0 0.774194 4.3871 0 0.870968 4.3871 0 0.967742 4.3871 0 1.06452 4.3871 0 1.16129 4.3871 0 1.25806 4.3871 0 1.35484 4.3871 0 1.45161 4.3871 0 1.54839 4.3871 0 1.64516 4.3871 0 1.74194 4.3871 0 1.83871 4.3871 0 1.93548 4.3871 0 2.03226 4.3871 0 2.12903 4.3871 0 2.22581 4.3871 0 2.32258 4.3871 0 2.41935 4.3871 0 2.51613 4.3871 0 2.6129 4.3871 0 2.70968 4.3871 0 2.80645 4.3871 0 2.90323 4.3871 0 3 4.3871 0 0 4.48387 0 0.0967742 4.48387 0 0.193548 4.48387 0 0.290323 4.48387 0 0.387097 4.48387 0 0.483871 4.48387 0 0.580645 4.48387 0 0.677419 4.48387 0 0.774194 4.48387 0 0.870968 4.48387 0 0.967742 4.48387 0 1.06452 4.48387 0 1.16129 4.48387 0 1.25806 4.48387 0 1.35484 4.48387 0 1.45161 4.48387 0 1.54839 4.48387 0 1.64516 4.48387 0 1.74194 4.48387 0 1.83871 4.48387 0 1.93548 4.48387 0 2.03226 4.48387 0 2.12903 4.48387 0 2.22581 4.48387 0 2.32258 4.48387 0 2.41935 4.48387 0 2.51613 4.48387 0 2.6129 4.48387 0 2.70968 4.48387 0 2.80645 4.48387 0 2.90323 4.48387 0 3 4.48387 0 0 4.58065 0 0.0967742 4.58065 0 0.193548 4.58065 0 0.290323 4.58065 0 0.387097 4.58065 0 0.483871 4.58065 0 0.580645 4.58065 0 0.677419 4.58065 0 0.774194 4.58065 0 0.870968 4.58065 0 0.967742 4.58065 0 1.06452 4.58065 0 1.16129 4.58065 0 1.25806 4.58065 0 1.35484 4.58065 0 1.45161 4.58065 0 1.54839 4.58065 0 1.64516 4.58065 0 1.74194 4.58065 0 1.83871 4.58065 0 1.93548 4.58065 0 2.03226 4.58065 0 2.12903 4.58065 0 2.22581 4.58065 0 2.32258 4.58065 0 2.41935 4.58065 0 2.51613 4.58065 0 2.6129 4.58065 0 2.70968 4.58065 0 2.80645 4.58065 0 2.90323 4.58065 0 3 4.58065 0 0 4.67742 0 0.0967742 4.67742 0 0.193548 4.67742 0 0.290323 4.67742 0 0.387097 4.67742 0 0.483871 4.67742 0 0.580645 4.67742 0 0.677419 4.67742 0 0.774194 4.67742 0 0.870968 4.67742 0 0.967742 4.67742 0 1.06452 4.67742 0 1.16129 4.67742 0 1.25806 4.67742 0 1.35484 4.67742 0 1.45161 4.67742 0 1.54839 4.67742 0 1.64516 4.67742 0 1.74194 4.67742 0 1.83871 4.67742 0 1.93548 4.67742 0 2.03226 4.67742 0 2.12903 4.67742 0 2.22581 4.67742 0 2.32258 4.67742 0 2.41935 4.67742 0 2.51613 4.67742 0 2.6129 4.67742 0 2.70968 4.67742 0 2.80645 4.67742 0 2.90323 4.67742 0 3 4.67742 0 0 4.77419 0 0.0967742 4.77419 0 0.193548 4.77419 0 0.290323 4.77419 0 0.387097 4.77419 0 0.483871 4.77419 0 0.580645 4.77419 0 0.677419 4.77419 0 0.774194 4.77419 0 0.870968 4.77419 0 0.967742 4.77419 0 1.06452 4.77419 0 1.16129 4.77419 0 1.25806 4.77419 0 1.35484 4.77419 0 1.45161 4.77419 0 1.54839 4.77419 0 1.64516 4.77419 0 1.74194 4.77419 0 1.83871 4.77419 0 1.93548 4.77419 0 2.03226 4.77419 0 2.12903 4.77419 0 2.22581 4.77419 0 2.32258 4.77419 0 2.41935 4.77419 0 2.51613 4.77419 0 2.6129 4.77419 0 2.70968 4.77419 0 2.80645 4.77419 0 2.90323 4.77419 0 3 4.77419 0 0 4.87097 0 0.0967742 4.87097 0 0.193548 4.87097 0 0.290323 4.87097 0 0.387097 4.87097 0 0.483871 4.87097 0 0.580645 4.87097 0 0.677419 4.87097 0 0.774194 4.87097 0 0.870968 4.87097 0 0.967742 4.87097 0 1.06452 4.87097 0 1.16129 4.87097 0 1.25806 4.87097 0 1.35484 4.87097 0 1.45161 4.87097 0 1.54839 4.87097 0 1.64516 4.87097 0 1.74194 4.87097 0 1.83871 4.87097 0 1.93548 4.87097 0 2.03226 4.87097 0 2.12903 4.87097 0 2.22581 4.87097 0 2.32258 4.87097 0 2.41935 4.87097 0 2.51613 4.87097 0 2.6129 4.87097 0 2.70968 4.87097 0 2.80645 4.87097 0 2.90323 4.87097 0 3 4.87097 0 0 4.96774 0 0.0967742 4.96774 0 0.193548 4.96774 0 0.290323 4.96774 0 0.387097 4.96774 0 0.483871 4.96774 0 0.580645 4.96774 0 0.677419 4.96774 0 0.774194 4.96774 0 0.870968 4.96774 0 0.967742 4.96774 0 1.06452 4.96774 0 1.16129 4.96774 0 1.25806 4.96774 0 1.35484 4.96774 0 1.45161 4.96774 0 1.54839 4.96774 0 1.64516 4.96774 0 1.74194 4.96774 0 1.83871 4.96774 0 1.93548 4.96774 0 2.03226 4.96774 0 2.12903 4.96774 0 2.22581 4.96774 0 2.32258 4.96774 0 2.41935 4.96774 0 2.51613 4.96774 0 2.6129 4.96774 0 2.70968 4.96774 0 2.80645 4.96774 0 2.90323 4.96774 0 3 4.96774 0 0 5.06452 0 0.0967742 5.06452 0 0.193548 5.06452 0 0.290323 5.06452 0 0.387097 5.06452 0 0.483871 5.06452 0 0.580645 5.06452 0 0.677419 5.06452 0 0.774194 5.06452 0 0.870968 5.06452 0 0.967742 5.06452 0 1.06452 5.06452 0 1.16129 5.06452 0 1.25806 5.06452 0 1.35484 5.06452 0 1.45161 5.06452 0 1.54839 5.06452 0 1.64516 5.06452 0 1.74194 5.06452 0 1.83871 5.06452 0 1.93548 5.06452 0 2.03226 5.06452 0 2.12903 5.06452 0 2.22581 5.06452 0 2.32258 5.06452 0 2.41935 5.06452 0 2.51613 5.06452 0 2.6129 5.06452 0 2.70968 5.06452 0 2.80645 5.06452 0 2.90323 5.06452 0 3 5.06452 0 0 5.16129 0 0.0967742 5.16129 0 0.193548 5.16129 0 0.290323 5.16129 0 0.387097 5.16129 0 0.483871 5.16129 0 0.580645 5.16129 0 0.677419 5.16129 0 0.774194 5.16129 0 0.870968 5.16129 0 0.967742 5.16129 0 1.06452 5.16129 0 1.16129 5.16129 0 1.25806 5.16129 0 1.35484 5.16129 0 1.45161 5.16129 0 1.54839 5.16129 0 1.64516 5.16129 0 1.74194 5.16129 0 1.83871 5.16129 0 1.93548 5.16129 0 2.03226 5.16129 0 2.12903 5.16129 0 2.22581 5.16129 0 2.32258 5.16129 0 2.41935 5.16129 0 2.51613 5.16129 0 2.6129 5.16129 0 2.70968 5.16129 0 2.80645 5.16129 0 2.90323 5.16129 0 3 5.16129 0 0 5.25806 0 0.0967742 5.25806 0 0.193548 5.25806 0 0.290323 5.25806 0 0.387097 5.25806 0 0.483871 5.25806 0 0.580645 5.25806 0 0.677419 5.25806 0 0.774194 5.25806 0 0.870968 5.25806 0 0.967742 5.25806 0 1.06452 5.25806 0 1.16129 5.25806 0 1.25806 5.25806 0 1.35484 5.25806 0 1.45161 5.25806 0 1.54839 5.25806 0 1.64516 5.25806 0 1.74194 5.25806 0 1.83871 5.25806 0 1.93548 5.25806 0 2.03226 5.25806 0 2.12903 5.25806 0 2.22581 5.25806 0 2.32258 5.25806 0 2.41935 5.25806 0 2.51613 5.25806 0 2.6129 5.25806 0 2.70968 5.25806 0 2.80645 5.25806 0 2.90323 5.25806 0 3 5.25806 0 0 5.35484 0 0.0967742 5.35484 0 0.193548 5.35484 0 0.290323 5.35484 0 0.387097 5.35484 0 0.483871 5.35484 0 0.580645 5.35484 0 0.677419 5.35484 0 0.774194 5.35484 0 0.870968 5.35484 0 0.967742 5.35484 0 1.06452 5.35484 0 1.16129 5.35484 0 1.25806 5.35484 0 1.35484 5.35484 0 1.45161 5.35484 0 1.54839 5.35484 0 1.64516 5.35484 0 1.74194 5.35484 0 1.83871 5.35484 0 1.93548 5.35484 0 2.03226 5.35484 0 2.12903 5.35484 0 2.22581 5.35484 0 2.32258 5.35484 0 2.41935 5.35484 0 2.51613 5.35484 0 2.6129 5.35484 0 2.70968 5.35484 0 2.80645 5.35484 0 2.90323 5.35484 0 3 5.35484 0 0 5.45161 0 0.0967742 5.45161 0 0.193548 5.45161 0 0.290323 5.45161 0 0.387097 5.45161 0 0.483871 5.45161 0 0.580645 5.45161 0 0.677419 5.45161 0 0.774194 5.45161 0 0.870968 5.45161 0 0.967742 5.45161 0 1.06452 5.45161 0 1.16129 5.45161 0 1.25806 5.45161 0 1.35484 5.45161 0 1.45161 5.45161 0 1.54839 5.45161 0 1.64516 5.45161 0 1.74194 5.45161 0 1.83871 5.45161 0 1.93548 5.45161 0 2.03226 5.45161 0 2.12903 5.45161 0 2.22581 5.45161 0 2.32258 5.45161 0 2.41935 5.45161 0 2.51613 5.45161 0 2.6129 5.45161 0 2.70968 5.45161 0 2.80645 5.45161 0 2.90323 5.45161 0 3 5.45161 0 0 5.54839 0 0.0967742 5.54839 0 0.193548 5.54839 0 0.290323 5.54839 0 0.387097 5.54839 0 0.483871 5.54839 0 0.580645 5.54839 0 0.677419 5.54839 0 0.774194 5.54839 0 0.870968 5.54839 0 0.967742 5.54839 0 1.06452 5.54839 0 1.16129 5.54839 0 1.25806 5.54839 0 1.35484 5.54839 0 1.45161 5.54839 0 1.54839 5.54839 0 1.64516 5.54839 0 1.74194 5.54839 0 1.83871 5.54839 0 1.93548 5.54839 0 2.03226 5.54839 0 2.12903 5.54839 0 2.22581 5.54839 0 2.32258 5.54839 0 2.41935 5.54839 0 2.51613 5.54839 0 2.6129 5.54839 0 2.70968 5.54839 0 2.80645 5.54839 0 2.90323 5.54839 0 3 5.54839 0 0 5.64516 0 0.0967742 5.64516 0 0.193548 5.64516 0 0.290323 5.64516 0 0.387097 5.64516 0 0.483871 5.64516 0 0.580645 5.64516 0 0.677419 5.64516 0 0.774194 5.64516 0 0.870968 5.64516 0 0.967742 5.64516 0 1.06452 5.64516 0 1.16129 5.64516 0 1.25806 5.64516 0 1.35484 5.64516 0 1.45161 5.64516 0 1.54839 5.64516 0 1.64516 5.64516 0 1.74194 5.64516 0 1.83871 5.64516 0 1.93548 5.64516 0 2.03226 5.64516 0 2.12903 5.64516 0 2.22581 5.64516 0 2.32258 5.64516 0 2.41935 5.64516 0 2.51613 5.64516 0 2.6129 5.64516 0 2.70968 5.64516 0 2.80645 5.64516 0 2.90323 5.64516 0 3 5.64516 0 0 5.74194 0 0.0967742 5.74194 0 0.193548 5.74194 0 0.290323 5.74194 0 0.387097 5.74194 0 0.483871 5.74194 0 0.580645 5.74194 0 0.677419 5.74194 0 0.774194 5.74194 0 0.870968 5.74194 0 0.967742 5.74194 0 1.06452 5.74194 0 1.16129 5.74194 0 1.25806 5.74194 0 1.35484 5.74194 0 1.45161 5.74194 0 1.54839 5.74194 0 1.64516 5.74194 0 1.74194 5.74194 0 1.83871 5.74194 0 1.93548 5.74194 0 2.03226 5.74194 0 2.12903 5.74194 0 2.22581 5.74194 0 2.32258 5.74194 0 2.41935 5.74194 0 2.51613 5.74194 0 2.6129 5.74194 0 2.70968 5.74194 0 2.80645 5.74194 0 2.90323 5.74194 0 3 5.74194 0 0 5.83871 0 0.0967742 5.83871 0 0.193548 5.83871 0 0.290323 5.83871 0 0.387097 5.83871 0 0.483871 5.83871 0 0.580645 5.83871 0 0.677419 5.83871 0 0.774194 5.83871 0 0.870968 5.83871 0 0.967742 5.83871 0 1.06452 5.83871 0 1.16129 5.83871 0 1.25806 5.83871 0 1.35484 5.83871 0 1.45161 5.83871 0 1.54839 5.83871 0 1.64516 5.83871 0 1.74194 5.83871 0 1.83871 5.83871 0 1.93548 5.83871 0 2.03226 5.83871 0 2.12903 5.83871 0 2.22581 5.83871 0 2.32258 5.83871 0 2.41935 5.83871 0 2.51613 5.83871 0 2.6129 5.83871 0 2.70968 5.83871 0 2.80645 5.83871 0 2.90323 5.83871 0 3 5.83871 0 0 5.93548 0 0.0967742 5.93548 0 0.193548 5.93548 0 0.290323 5.93548 0 0.387097 5.93548 0 0.483871 5.93548 0 0.580645 5.93548 0 0.677419 5.93548 0 0.774194 5.93548 0 0.870968 5.93548 0 0.967742 5.93548 0 1.06452 5.93548 0 1.16129 5.93548 0 1.25806 5.93548 0 1.35484 5.93548 0 1.45161 5.93548 0 1.54839 5.93548 0 1.64516 5.93548 0 1.74194 5.93548 0 1.83871 5.93548 0 1.93548 5.93548 0 2.03226 5.93548 0 2.12903 5.93548 0 2.22581 5.93548 0 2.32258 5.93548 0 2.41935 5.93548 0 2.51613 5.93548 0 2.6129 5.93548 0 2.70968 5.93548 0 2.80645 5.93548 0 2.90323 5.93548 0 3 5.93548 0 0 6.03226 0 0.0967742 6.03226 0 0.193548 6.03226 0 0.290323 6.03226 0 0.387097 6.03226 0 0.483871 6.03226 0 0.580645 6.03226 0 0.677419 6.03226 0 0.774194 6.03226 0 0.870968 6.03226 0 0.967742 6.03226 0 1.06452 6.03226 0 1.16129 6.03226 0 1.25806 6.03226 0 1.35484 6.03226 0 1.45161 6.03226 0 1.54839 6.03226 0 1.64516 6.03226 0 1.74194 6.03226 0 1.83871 6.03226 0 1.93548 6.03226 0 2.03226 6.03226 0 2.12903 6.03226 0 2.22581 6.03226 0 2.32258 6.03226 0 2.41935 6.03226 0 2.51613 6.03226 0 2.6129 6.03226 0 2.70968 6.03226 0 2.80645 6.03226 0 2.90323 6.03226 0 3 6.03226 0 0 6.12903 0 0.0967742 6.12903 0 0.193548 6.12903 0 0.290323 6.12903 0 0.387097 6.12903 0 0.483871 6.12903 0 0.580645 6.12903 0 0.677419 6.12903 0 0.774194 6.12903 0 0.870968 6.12903 0 0.967742 6.12903 0 1.06452 6.12903 0 1.16129 6.12903 0 1.25806 6.12903 0 1.35484 6.12903 0 1.45161 6.12903 0 1.54839 6.12903 0 1.64516 6.12903 0 1.74194 6.12903 0 1.83871 6.12903 0 1.93548 6.12903 0 2.03226 6.12903 0 2.12903 6.12903 0 2.22581 6.12903 0 2.32258 6.12903 0 2.41935 6.12903 0 2.51613 6.12903 0 2.6129 6.12903 0 2.70968 6.12903 0 2.80645 6.12903 0 2.90323 6.12903 0 3 6.12903 0 0 6.22581 0 0.0967742 6.22581 0 0.193548 6.22581 0 0.290323 6.22581 0 0.387097 6.22581 0 0.483871 6.22581 0 0.580645 6.22581 0 0.677419 6.22581 0 0.774194 6.22581 0 0.870968 6.22581 0 0.967742 6.22581 0 1.06452 6.22581 0 1.16129 6.22581 0 1.25806 6.22581 0 1.35484 6.22581 0 1.45161 6.22581 0 1.54839 6.22581 0 1.64516 6.22581 0 1.74194 6.22581 0 1.83871 6.22581 0 1.93548 6.22581 0 2.03226 6.22581 0 2.12903 6.22581 0 2.22581 6.22581 0 2.32258 6.22581 0 2.41935 6.22581 0 2.51613 6.22581 0 2.6129 6.22581 0 2.70968 6.22581 0 2.80645 6.22581 0 2.90323 6.22581 0 3 6.22581 0 0 6.32258 0 0.0967742 6.32258 0 0.193548 6.32258 0 0.290323 6.32258 0 0.387097 6.32258 0 0.483871 6.32258 0 0.580645 6.32258 0 0.677419 6.32258 0 0.774194 6.32258 0 0.870968 6.32258 0 0.967742 6.32258 0 1.06452 6.32258 0 1.16129 6.32258 0 1.25806 6.32258 0 1.35484 6.32258 0 1.45161 6.32258 0 1.54839 6.32258 0 1.64516 6.32258 0 1.74194 6.32258 0 1.83871 6.32258 0 1.93548 6.32258 0 2.03226 6.32258 0 2.12903 6.32258 0 2.22581 6.32258 0 2.32258 6.32258 0 2.41935 6.32258 0 2.51613 6.32258 0 2.6129 6.32258 0 2.70968 6.32258 0 2.80645 6.32258 0 2.90323 6.32258 0 3 6.32258 0 0 6.41935 0 0.0967742 6.41935 0 0.193548 6.41935 0 0.290323 6.41935 0 0.387097 6.41935 0 0.483871 6.41935 0 0.580645 6.41935 0 0.677419 6.41935 0 0.774194 6.41935 0 0.870968 6.41935 0 0.967742 6.41935 0 1.06452 6.41935 0 1.16129 6.41935 0 1.25806 6.41935 0 1.35484 6.41935 0 1.45161 6.41935 0 1.54839 6.41935 0 1.64516 6.41935 0 1.74194 6.41935 0 1.83871 6.41935 0 1.93548 6.41935 0 2.03226 6.41935 0 2.12903 6.41935 0 2.22581 6.41935 0 2.32258 6.41935 0 2.41935 6.41935 0 2.51613 6.41935 0 2.6129 6.41935 0 2.70968 6.41935 0 2.80645 6.41935 0 2.90323 6.41935 0 3 6.41935 0 0 6.51613 0 0.0967742 6.51613 0 0.193548 6.51613 0 0.290323 6.51613 0 0.387097 6.51613 0 0.483871 6.51613 0 0.580645 6.51613 0 0.677419 6.51613 0 0.774194 6.51613 0 0.870968 6.51613 0 0.967742 6.51613 0 1.06452 6.51613 0 1.16129 6.51613 0 1.25806 6.51613 0 1.35484 6.51613 0 1.45161 6.51613 0 1.54839 6.51613 0 1.64516 6.51613 0 1.74194 6.51613 0 1.83871 6.51613 0 1.93548 6.51613 0 2.03226 6.51613 0 2.12903 6.51613 0 2.22581 6.51613 0 2.32258 6.51613 0 2.41935 6.51613 0 2.51613 6.51613 0 2.6129 6.51613 0 2.70968 6.51613 0 2.80645 6.51613 0 2.90323 6.51613 0 3 6.51613 0 0 6.6129 0 0.0967742 6.6129 0 0.193548 6.6129 0 0.290323 6.6129 0 0.387097 6.6129 0 0.483871 6.6129 0 0.580645 6.6129 0 0.677419 6.6129 0 0.774194 6.6129 0 0.870968 6.6129 0 0.967742 6.6129 0 1.06452 6.6129 0 1.16129 6.6129 0 1.25806 6.6129 0 1.35484 6.6129 0 1.45161 6.6129 0 1.54839 6.6129 0 1.64516 6.6129 0 1.74194 6.6129 0 1.83871 6.6129 0 1.93548 6.6129 0 2.03226 6.6129 0 2.12903 6.6129 0 2.22581 6.6129 0 2.32258 6.6129 0 2.41935 6.6129 0 2.51613 6.6129 0 2.6129 6.6129 0 2.70968 6.6129 0 2.80645 6.6129 0 2.90323 6.6129 0 3 6.6129 0 0 6.70968 0 0.0967742 6.70968 0 0.193548 6.70968 0 0.290323 6.70968 0 0.387097 6.70968 0 0.483871 6.70968 0 0.580645 6.70968 0 0.677419 6.70968 0 0.774194 6.70968 0 0.870968 6.70968 0 0.967742 6.70968 0 1.06452 6.70968 0 1.16129 6.70968 0 1.25806 6.70968 0 1.35484 6.70968 0 1.45161 6.70968 0 1.54839 6.70968 0 1.64516 6.70968 0 1.74194 6.70968 0 1.83871 6.70968 0 1.93548 6.70968 0 2.03226 6.70968 0 2.12903 6.70968 0 2.22581 6.70968 0 2.32258 6.70968 0 2.41935 6.70968 0 2.51613 6.70968 0 2.6129 6.70968 0 2.70968 6.70968 0 2.80645 6.70968 0 2.90323 6.70968 0 3 6.70968 0 0 6.80645 0 0.0967742 6.80645 0 0.193548 6.80645 0 0.290323 6.80645 0 0.387097 6.80645 0 0.483871 6.80645 0 0.580645 6.80645 0 0.677419 6.80645 0 0.774194 6.80645 0 0.870968 6.80645 0 0.967742 6.80645 0 1.06452 6.80645 0 1.16129 6.80645 0 1.25806 6.80645 0 1.35484 6.80645 0 1.45161 6.80645 0 1.54839 6.80645 0 1.64516 6.80645 0 1.74194 6.80645 0 1.83871 6.80645 0 1.93548 6.80645 0 2.03226 6.80645 0 2.12903 6.80645 0 2.22581 6.80645 0 2.32258 6.80645 0 2.41935 6.80645 0 2.51613 6.80645 0 2.6129 6.80645 0 2.70968 6.80645 0 2.80645 6.80645 0 2.90323 6.80645 0 3 6.80645 0 0 6.90323 0 0.0967742 6.90323 0 0.193548 6.90323 0 0.290323 6.90323 0 0.387097 6.90323 0 0.483871 6.90323 0 0.580645 6.90323 0 0.677419 6.90323 0 0.774194 6.90323 0 0.870968 6.90323 0 0.967742 6.90323 0 1.06452 6.90323 0 1.16129 6.90323 0 1.25806 6.90323 0 1.35484 6.90323 0 1.45161 6.90323 0 1.54839 6.90323 0 1.64516 6.90323 0 1.74194 6.90323 0 1.83871 6.90323 0 1.93548 6.90323 0 2.03226 6.90323 0 2.12903 6.90323 0 2.22581 6.90323 0 2.32258 6.90323 0 2.41935 6.90323 0 2.51613 6.90323 0 2.6129 6.90323 0 2.70968 6.90323 0 2.80645 6.90323 0 2.90323 6.90323 0 3 6.90323 0 0 7 0 0.0967742 7 0 0.193548 7 0 0.290323 7 0 0.387097 7 0 0.483871 7 0 0.580645 7 0 0.677419 7 0 0.774194 7 0 0.870968 7 0 0.967742 7 0 1.06452 7 0 1.16129 7 0 1.25806 7 0 1.35484 7 0 1.45161 7 0 1.54839 7 0 1.64516 7 0 1.74194 7 0 1.83871 7 0 1.93548 7 0 2.03226 7 0 2.12903 7 0 2.22581 7 0 2.32258 7 0 2.41935 7 0 2.51613 7 0 2.6129 7 0 2.70968 7 0 2.80645 7 0 2.90323 7 0 3 7 0 
</DataArray>
</Points> 
</Piece> 
</StructuredGrid> 
</VTKFile> 
