<?xml version="1.0"?> 
<VTKFile type="StructuredGrid" version="0.1"> 
<StructuredGrid WholeExtent="0 31 0 31 0 0"> 
<Piece Extent="0 31 0 31 0 0"> 
<PointData>
<DataArray type="Float32" Name="B" format="ascii" NumberOfComponents="3"> 
0 -8.59689e-07 0 -1.55747e-07 -8.62815e-07 0 -3.12662e-07 -8.7221e-07 0 -4.71924e-07 -8.87914e-07 0 -6.34725e-07 -9.09995e-07 0 -8.02285e-07 -9.38541e-07 0 -9.75858e-07 -9.73657e-07 0 -1.15674e-06 -1.01545e-06 0 -1.34628e-06 -1.06404e-06 0 -1.54589e-06 -1.1195e-06 0 -1.75707e-06 -1.18188e-06 0 -1.98136e-06 -1.25112e-06 0 -2.22048e-06 -1.32709e-06 0 -2.47616e-06 -1.4094e-06 0 -2.75047e-06 -1.49747e-06 0 -3.04519e-06 -1.5902e-06 0 -3.36339e-06 -1.68612e-06 0 -3.70609e-06 -1.78257e-06 0 -4.07958e-06 -1.87643e-06 0 -4.48057e-06 -1.96173e-06 0 -4.92712e-06 -2.03228e-06 0 -5.39695e-06 -2.07507e-06 0 -5.95206e-06 -2.07807e-06 0 -6.49438e-06 -2.01333e-06 0 -7.2479e-06 -1.85562e-06 0 -7.82932e-06 -1.54707e-06 0 -9.04513e-06 -1.01875e-06 0 -9.49518e-06 -1.61101e-07 0 -1.20119e-05 1.31047e-06 0 -1.19995e-05 3.56611e-06 0 -1.79189e-05 8.90239e-06 0 -7.18272e-05 1.1113e-05 0 0 -8.07498e-07 0 -1.57767e-07 -8.10429e-07 0 -3.16712e-07 -8.19237e-07 0 -4.7802e-07 -8.33957e-07 0 -6.42892e-07 -8.54652e-07 0 -8.12555e-07 -8.81399e-07 0 -9.88264e-07 -9.14292e-07 0 -1.17132e-06 -9.53425e-07 0 -1.36306e-06 -9.98889e-07 0 -1.56489e-06 -1.05075e-06 0 -1.77828e-06 -1.10902e-06 0 -2.00476e-06 -1.17363e-06 0 -2.24596e-06 -1.24438e-06 0 -2.5036e-06 -1.32089e-06 0 -2.77948e-06 -1.40248e-06 0 -3.0756e-06 -1.48808e-06 0 -3.39395e-06 -1.57598e-06 0 -3.73704e-06 -1.66377e-06 0 -4.1069e-06 -1.7476e-06 0 -4.50742e-06 -1.82241e-06 0 -4.93981e-06 -1.87988e-06 0 -5.41236e-06 -1.9098e-06 0 -5.92183e-06 -1.89438e-06 0 -6.4916e-06 -1.81271e-06 0 -7.09942e-06 -1.62692e-06 0 -7.8212e-06 -1.28927e-06 0 -8.56211e-06 -7.19792e-07 0 -9.57944e-06 2.25299e-07 0 -1.05303e-05 1.72353e-06 0 -1.22925e-05 4.48679e-06 0 -1.42359e-05 9.35988e-06 0 -1.37766e-05 3.46294e-05 0 0 -7.54656e-07 0 -1.59657e-07 -7.5739e-07 0 -3.20499e-07 -7.65606e-07 0 -4.8372e-07 -7.79337e-07 0 -6.50528e-07 -7.98637e-07 0 -8.22153e-07 -8.23575e-07 0 -9.99855e-07 -8.54233e-07 0 -1.18493e-06 -8.90692e-07 0 -1.37872e-06 -9.33027e-07 0 -1.5826e-06 -9.81281e-07 0 -1.79804e-06 -1.03545e-06 0 -2.02652e-06 -1.09544e-06 0 -2.26962e-06 -1.16103e-06 0 -2.52898e-06 -1.2318e-06 0 -2.80631e-06 -1.30705e-06 0 -3.10339e-06 -1.38565e-06 0 -3.42208e-06 -1.46592e-06 0 -3.76435e-06 -1.54526e-06 0 -4.13221e-06 -1.62e-06 0 -4.52793e-06 -1.68454e-06 0 -4.95366e-06 -1.73124e-06 0 -5.4126e-06 -1.74826e-06 0 -5.90668e-06 -1.71983e-06 0 -6.44247e-06 -1.62087e-06 0 -7.01945e-06 -1.4177e-06 0 -7.65686e-06 -1.05566e-06 0 -8.33922e-06 -4.5432e-07 0 -9.1318e-06 5.18379e-07 0 -9.94091e-06 2.11804e-06 0 -1.09571e-05 4.8147e-06 0 -1.14603e-05 1.03997e-05 0 -2.37968e-06 2.32258e-05 0 0 -7.01206e-07 0 -1.61415e-07 -7.03743e-07 0 -3.24022e-07 -7.11364e-07 0 -4.89022e-07 -7.24098e-07 0 -6.57629e-07 -7.41995e-07 0 -8.31076e-07 -7.65115e-07 0 -1.01063e-06 -7.93529e-07 0 -1.19757e-06 -8.27307e-07 0 -1.39325e-06 -8.66506e-07 0 -1.59904e-06 -9.11156e-07 0 -1.81635e-06 -9.61233e-07 0 -2.04666e-06 -1.01663e-06 0 -2.29148e-06 -1.0771e-06 0 -2.55238e-06 -1.14221e-06 0 -2.83094e-06 -1.21124e-06 0 -3.12879e-06 -1.28305e-06 0 -3.44757e-06 -1.35592e-06 0 -3.78887e-06 -1.42729e-06 0 -4.15432e-06 -1.49341e-06 0 -4.5453e-06 -1.54878e-06 0 -4.96348e-06 -1.58555e-06 0 -5.40958e-06 -1.59218e-06 0 -5.88576e-06 -1.55226e-06 0 -6.39079e-06 -1.44148e-06 0 -6.92935e-06 -1.2247e-06 0 -7.49324e-06 -8.48724e-07 0 -8.09504e-06 -2.31493e-07 0 -8.69572e-06 7.5597e-07 0 -9.30846e-06 2.35718e-06 0 -9.68058e-06 5.00608e-06 0 -9.04687e-06 9.93569e-06 0 -1.98262e-06 1.72589e-05 0 0 -6.47193e-07 0 -1.6304e-07 -6.49531e-07 0 -3.27279e-07 -6.56553e-07 0 -4.93924e-07 -6.68286e-07 0 -6.64192e-07 -6.84773e-07 0 -8.39322e-07 -7.06067e-07 0 -1.02058e-06 -7.32229e-07 0 -1.20925e-06 -7.63318e-07 0 -1.40667e-06 -7.99379e-07 0 -1.61419e-06 -8.40428e-07 0 -1.83321e-06 -8.86426e-07 0 -2.06518e-06 -9.37251e-07 0 -2.31155e-06 -9.9265e-07 0 -2.57381e-06 -1.05218e-06 0 -2.85343e-06 -1.11511e-06 0 -3.15188e-06 -1.18032e-06 0 -3.47055e-06 -1.24608e-06 0 -3.81073e-06 -1.30988e-06 0 -4.17354e-06 -1.368e-06 0 -4.55978e-06 -1.41504e-06 0 -4.96993e-06 -1.44319e-06 0 -5.40375e-06 -1.44113e-06 0 -5.86054e-06 -1.39255e-06 0 -6.33758e-06 -1.27355e-06 0 -6.83205e-06 -1.0493e-06 0 -7.33395e-06 -6.67795e-07 0 -7.83405e-06 -4.94808e-08 0 -8.28942e-06 9.28704e-07 0 -8.63888e-06 2.4825e-06 0 -8.58058e-06 4.96584e-06 0 -7.17213e-06 9.02523e-06 0 -1.18817e-06 1.30199e-05 0 0 -5.92661e-07 0 -1.64532e-07 -5.94798e-07 0 -3.3027e-07 -6.01219e-07 0 -4.98423e-07 -6.11946e-07 0 -6.70215e-07 -6.27016e-07 0 -8.46888e-07 -6.46478e-07 0 -1.0297e-06 -6.70382e-07 0 -1.21995e-06 -6.98777e-07 0 -1.41896e-06 -7.31697e-07 0 -1.62806e-06 -7.69148e-07 0 -1.84864e-06 -8.1108e-07 0 -2.08211e-06 -8.57364e-07 0 -2.32986e-06 -9.0774e-07 0 -2.59331e-06 -9.61766e-07 0 -2.87383e-06 -1.01872e-06 0 -3.17271e-06 -1.07751e-06 0 -3.49114e-06 -1.13645e-06 0 -3.83007e-06 -1.19309e-06 0 -4.19016e-06 -1.2438e-06 0 -4.57157e-06 -1.28336e-06 0 -4.97378e-06 -1.30413e-06 0 -5.3953e-06 -1.29519e-06 0 -5.83316e-06 -1.24053e-06 0 -6.28222e-06 -1.11717e-06 0 -6.73416e-06 -8.91105e-07 0 -7.17427e-06 -5.12678e-07 0 -7.5782e-06 9.30754e-08 0 -7.89284e-06 1.03989e-06 0 -8.00925e-06 2.505e-06 0 -7.60571e-06 4.75378e-06 0 -5.80497e-06 7.95276e-06 0 -9.14722e-07 1.06703e-05 0 0 -5.37653e-07 0 -1.65891e-07 -5.3959e-07 0 -3.32991e-07 -5.45406e-07 0 -5.02518e-07 -5.55123e-07 0 -6.75696e-07 -5.68772e-07 0 -8.53771e-07 -5.86395e-07 0 -1.038e-06 -6.08035e-07 0 -1.22968e-06 -6.33732e-07 0 -1.43012e-06 -6.63512e-07 0 -1.64066e-06 -6.9737e-07 0 -1.86264e-06 -7.35251e-07 0 -2.09744e-06 -7.7702e-07 0 -2.34642e-06 -8.22422e-07 0 -2.61091e-06 -8.71023e-07 0 -2.89218e-06 -9.2213e-07 0 -3.19137e-06 -9.74678e-07 0 -3.50945e-06 -1.02707e-06 0 -3.84706e-06 -1.07693e-06 0 -4.2044e-06 -1.12082e-06 0 -4.58103e-06 -1.15372e-06 0 -4.97549e-06 -1.16835e-06 0 -5.38497e-06 -1.15421e-06 0 -5.80457e-06 -1.0961e-06 0 -6.22637e-06 -9.71957e-07 0 -6.63768e-06 -7.49678e-07 0 -7.01801e-06 -3.82399e-07 0 -7.33232e-06 1.98537e-07 0 -7.51565e-06 1.09356e-06 0 -7.43357e-06 2.44393e-06 0 -6.77015e-06 4.41373e-06 0 -4.81319e-06 6.93162e-06 0 -7.23742e-07 8.65248e-06 0 0 -4.82216e-07 0 -1.67115e-07 -4.83951e-07 0 -3.35444e-07 -4.8916e-07 0 -5.06207e-07 -4.97863e-07 0 -6.80634e-07 -5.10087e-07 0 -8.5997e-07 -5.25866e-07 0 -1.04548e-06 -5.45237e-07 0 -1.23844e-06 -5.68234e-07 0 -1.44017e-06 -5.94873e-07 0 -1.65198e-06 -6.25144e-07 0 -1.87522e-06 -6.58987e-07 0 -2.1112e-06 -6.96271e-07 0 -2.36126e-06 -7.36746e-07 0 -2.62665e-06 -7.79998e-07 0 -2.90854e-06 -8.2537e-07 0 -3.20793e-06 -8.71857e-07 0 -3.52558e-06 -9.1795e-07 0 -3.86184e-06 -9.61427e-07 0 -4.2165e-06 -9.99041e-07 0 -4.58849e-06 -1.02608e-06 0 -4.97551e-06 -1.03571e-06 0 -5.37349e-06 -1.01807e-06 0 -5.77569e-06 -9.58883e-07 0 -6.1716e-06 -8.37529e-07 0 -6.54454e-06 -6.24112e-07 0 -6.8687e-06 -2.75583e-07 0 -7.10057e-06 2.69569e-07 0 -7.16592e-06 1.09704e-06 0 -6.91903e-06 2.31272e-06 0 -6.07138e-06 4.00216e-06 0 -4.08656e-06 5.96518e-06 0 -5.84418e-07 7.22898e-06 0 0 -4.26393e-07 0 -1.68204e-07 -4.27925e-07 0 -3.37626e-07 -4.32526e-07 0 -5.09489e-07 -4.40212e-07 0 -6.85026e-07 -4.51006e-07 0 -8.65483e-07 -4.64937e-07 0 -1.05212e-06 -4.82037e-07 0 -1.24623e-06 -5.0233e-07 0 -1.4491e-06 -5.2583e-07 0 -1.66204e-06 -5.5252e-07 0 -1.88637e-06 -5.82341e-07 0 -2.1234e-06 -6.15165e-07 0 -2.3744e-06 -6.50758e-07 0 -2.64055e-06 -6.88734e-07 0 -2.92295e-06 -7.28482e-07 0 -3.22246e-06 -7.69071e-07 0 -3.53963e-06 -8.09112e-07 0 -3.87457e-06 -8.46556e-07 0 -4.22666e-06 -8.78413e-07 0 -4.59427e-06 -9.00339e-07 0 -4.9743e-06 -9.06054e-07 0 -5.36149e-06 -8.86474e-07 0 -5.74747e-06 -8.2849e-07 0 -6.11923e-06 -7.13183e-07 0 -6.45676e-06 -5.13383e-07 0 -6.72916e-06 -1.90372e-07 0 -6.88705e-06 3.09567e-07 0 -6.84872e-06 1.05704e-06 0 -6.46976e-06 2.12785e-06 0 -5.49561e-06 3.54799e-06 0 -3.54887e-06 5.08362e-06 0 -5.11145e-07 5.96394e-06 0 0 -3.7023e-07 0 -1.69158e-07 -3.71559e-07 0 -3.39537e-07 -3.7555e-07 0 -5.12364e-07 -3.82216e-07 0 -6.88872e-07 -3.91577e-07 0 -8.7031e-07 -4.03657e-07 0 -1.05794e-06 -4.18482e-07 0 -1.25304e-06 -4.36071e-07 0 -1.4569e-06 -4.56431e-07 0 -1.67083e-06 -4.79547e-07 0 -1.89612e-06 -5.0536e-07 0 -2.13405e-06 -5.3375e-07 0 -2.38584e-06 -5.64504e-07 0 -2.65265e-06 -5.97269e-07 0 -2.93546e-06 -6.31494e-07 0 -3.23501e-06 -6.6634e-07 0 -3.55171e-06 -7.00554e-07 0 -3.88539e-06 -7.32293e-07 0 -4.23508e-06 -7.58867e-07 0 -4.59864e-06 -7.76375e-07 0 -4.97225e-06 -7.79167e-07 0 -5.34959e-06 -7.59089e-07 0 -5.72075e-06 -7.04375e-07 0 -6.07058e-06 -5.98118e-07 0 -6.376e-06 -4.16175e-07 0 -6.6021e-06 -1.24655e-07 0 -6.69458e-06 3.22184e-07 0 -6.56845e-06 9.80778e-07 0 -6.08459e-06 1.90193e-06 0 -5.02962e-06 3.07507e-06 0 -3.14588e-06 4.26873e-06 0 -4.38064e-07 4.93209e-06 0 0 -3.13772e-07 0 -1.69976e-07 -3.14897e-07 0 -3.41176e-07 -3.18276e-07 0 -5.14829e-07 -3.23921e-07 0 -6.9217e-07 -3.31846e-07 0 -8.74448e-07 -3.42072e-07 0 -1.06293e-06 -3.54619e-07 0 -1.25888e-06 -3.69503e-07 0 -1.46359e-06 -3.86727e-07 0 -1.67836e-06 -4.06274e-07 0 -1.90446e-06 -4.28091e-07 0 -2.14315e-06 -4.52071e-07 0 -2.39562e-06 -4.78024e-07 0 -2.66297e-06 -5.05639e-07 0 -2.9461e-06 -5.34434e-07 0 -3.24566e-06 -5.63673e-07 0 -3.56189e-06 -5.92262e-07 0 -3.89441e-06 -6.1859e-07 0 -4.24193e-06 -6.40312e-07 0 -4.60188e-06 -6.54019e-07 0 -4.96975e-06 -6.54786e-07 0 -5.33831e-06 -6.35498e-07 0 -5.69633e-06 -5.85916e-07 0 -6.02672e-06 -4.91359e-07 0 -6.3039e-06 -3.31022e-07 0 -6.4895e-06 -7.60739e-08 0 -6.52603e-06 3.11293e-07 0 -6.32682e-06 8.74768e-07 0 -5.76262e-06 1.64626e-06 0 -4.65688e-06 2.59481e-06 0 -2.84344e-06 3.51684e-06 0 -3.9968e-07 3.99874e-06 0 0 -2.57064e-07 0 -1.70659e-07 -2.57985e-07 0 -3.42543e-07 -2.60751e-07 0 -5.16884e-07 -2.65372e-07 0 -6.9492e-07 -2.71859e-07 0 -8.77898e-07 -2.80228e-07 0 -1.06708e-06 -2.90496e-07 0 -1.26374e-06 -3.02674e-07 0 -1.46917e-06 -3.16764e-07 0 -1.68463e-06 -3.32748e-07 0 -1.9114e-06 -3.50582e-07 0 -2.15072e-06 -3.70171e-07 0 -2.40375e-06 -3.91357e-07 0 -2.67153e-06 -4.13876e-07 0 -2.95491e-06 -4.3732e-07 0 -3.25445e-06 -4.61073e-07 0 -3.57026e-06 -4.84213e-07 0 -3.90175e-06 -5.05389e-07 0 -4.24739e-06 -5.2263e-07 0 -4.6042e-06 -5.33079e-07 0 -4.96714e-06 -5.326e-07 0 -5.32816e-06 -5.15229e-07 0 -5.67488e-06 -4.7239e-07 0 -5.98867e-06 -3.91829e-07 0 -6.24175e-06 -2.5628e-07 0 -6.39322e-06 -4.21349e-08 0 -6.38313e-06 2.80766e-07 0 -6.12534e-06 7.45103e-07 0 -5.50039e-06 1.36921e-06 0 -4.36539e-06 2.11491e-06 0 -2.61696e-06 2.81348e-06 0 -3.61566e-07 3.17196e-06 0 0 -2.00151e-07 0 -1.71205e-07 -2.00868e-07 0 -3.43637e-07 -2.0302e-07 0 -5.18529e-07 -2.06615e-07 0 -6.9712e-07 -2.11663e-07 0 -8.80659e-07 -2.18174e-07 0 -1.07041e-06 -2.26162e-07 0 -1.26764e-06 -2.35633e-07 0 -1.47362e-06 -2.4659e-07 0 -1.68964e-06 -2.59017e-07 0 -1.91695e-06 -2.72876e-07 0 -2.15677e-06 -2.88094e-07 0 -2.41023e-06 -3.0454e-07 0 -2.67835e-06 -3.22007e-07 0 -2.96192e-06 -3.4017e-07 0 -3.26143e-06 -3.58536e-07 0 -3.57687e-06 -3.76376e-07 0 -3.90751e-06 -3.92615e-07 0 -4.25159e-06 -4.05691e-07 0 -4.60582e-06 -4.13334e-07 0 -4.96469e-06 -4.12264e-07 0 -5.31952e-06 -3.97752e-07 0 -5.65701e-06 -3.63004e-07 0 -5.95722e-06 -2.98342e-07 0 -6.19072e-06 -1.90201e-07 0 -6.31459e-06 -2.02394e-08 0 -6.26746e-06 2.34423e-07 0 -5.96423e-06 5.97148e-07 0 -5.29527e-06 1.0774e-06 0 -4.14386e-06 1.6383e-06 0 -2.45093e-06 2.14984e-06 0 -3.40108e-07 2.40416e-06 0 0 -1.43079e-07 0 -1.71615e-07 -1.43591e-07 0 -3.44458e-07 -1.45129e-07 0 -5.19764e-07 -1.47698e-07 0 -6.98771e-07 -1.51304e-07 0 -8.8273e-07 -1.55956e-07 0 -1.0729e-06 -1.61662e-07 0 -1.27055e-06 -1.68427e-07 0 -1.47696e-06 -1.76252e-07 0 -1.6934e-06 -1.85125e-07 0 -1.92111e-06 -1.95019e-07 0 -2.1613e-06 -2.05879e-07 0 -2.41508e-06 -2.17609e-07 0 -2.68345e-06 -2.3006e-07 0 -2.96716e-06 -2.42994e-07 0 -3.26663e-06 -2.56054e-07 0 -3.58178e-06 -2.68711e-07 0 -3.91176e-06 -2.80186e-07 0 -4.25464e-06 -2.89345e-07 0 -4.60688e-06 -2.94542e-07 0 -4.96265e-06 -2.93401e-07 0 -5.31274e-06 -2.82493e-07 0 -5.64318e-06 -2.56902e-07 0 -5.93305e-06 -2.09636e-07 0 -6.15166e-06 -1.30939e-07 0 -6.25474e-06 -7.73854e-09 0 -6.17994e-06 1.75963e-07 0 -5.84368e-06 4.35699e-07 0 -5.14414e-06 7.75665e-07 0 -3.98458e-06 1.16614e-06 0 -2.33423e-06 1.51527e-06 0 -3.216e-07 1.68725e-06 0 0 -8.58927e-08 0 -1.71888e-07 -8.62001e-08 0 -3.45006e-07 -8.71232e-08 0 -5.20587e-07 -8.86647e-08 0 -6.99872e-07 -9.08287e-08 0 -8.84111e-07 -9.36203e-08 0 -1.07456e-06 -9.70441e-08 0 -1.2725e-06 -1.01103e-07 0 -1.47919e-06 -1.05798e-07 0 -1.6959e-06 -1.11121e-07 0 -1.92388e-06 -1.17054e-07 0 -2.16431e-06 -1.23566e-07 0 -2.41831e-06 -1.30598e-07 0 -2.68685e-06 -1.38058e-07 0 -2.97064e-06 -1.45802e-07 0 -3.27008e-06 -1.53615e-07 0 -3.58503e-06 -1.61174e-07 0 -3.91456e-06 -1.68009e-07 0 -4.25662e-06 -1.73431e-07 0 -4.60752e-06 -1.76444e-07 0 -4.96118e-06 -1.75607e-07 0 -5.30808e-06 -1.68845e-07 0 -5.63375e-06 -1.5318e-07 0 -5.91665e-06 -1.24387e-07 0 -6.12526e-06 -7.65877e-08 0 -6.2144e-06 -1.95518e-09 0 -6.12127e-06 1.0896e-07 0 -5.76345e-06 2.65002e-07 0 -5.0448e-06 4.6768e-07 0 -3.88144e-06 6.97899e-07 0 -2.26001e-06 9.01222e-07 0 -3.11785e-07 9.99867e-07 0 0 -2.86385e-08 0 -1.72025e-07 -2.8741e-08 0 -3.45279e-07 -2.90487e-08 0 -5.20998e-07 -2.95626e-08 0 -7.00422e-07 -3.0284e-08 0 -8.84801e-07 -3.12146e-08 0 -1.0754e-06 -3.23559e-08 0 -1.27347e-06 -3.3709e-08 0 -1.4803e-06 -3.52737e-08 0 -1.69715e-06 -3.70478e-08 0 -1.92526e-06 -3.90253e-08 0 -2.16582e-06 -4.11951e-08 0 -2.41993e-06 -4.35379e-08 0 -2.68854e-06 -4.60227e-08 0 -2.97238e-06 -4.86016e-08 0 -3.2718e-06 -5.12019e-08 0 -3.58665e-06 -5.3716e-08 0 -3.91595e-06 -5.59858e-08 0 -4.2576e-06 -5.7781e-08 0 -4.60782e-06 -5.87677e-08 0 -4.96042e-06 -5.84633e-08 0 -5.30571e-06 -5.61725e-08 0 -5.62898e-06 -5.0899e-08 0 -5.90837e-06 -4.1229e-08 0 -6.11195e-06 -2.51992e-08 0 -6.19412e-06 -2.03774e-10 0 -6.09184e-06 3.68813e-08 0 -5.72341e-06 8.89234e-08 0 -4.99553e-06 1.56256e-07 0 -3.83082e-06 2.32327e-07 0 -2.22388e-06 2.99072e-07 0 -3.06225e-07 3.31542e-07 0 0 2.86385e-08 0 -1.72025e-07 2.8741e-08 0 -3.45279e-07 2.90487e-08 0 -5.20998e-07 2.95626e-08 0 -7.00422e-07 3.0284e-08 0 -8.84801e-07 3.12146e-08 0 -1.0754e-06 3.23559e-08 0 -1.27347e-06 3.3709e-08 0 -1.4803e-06 3.52737e-08 0 -1.69715e-06 3.70478e-08 0 -1.92526e-06 3.90253e-08 0 -2.16582e-06 4.11951e-08 0 -2.41993e-06 4.35379e-08 0 -2.68854e-06 4.60227e-08 0 -2.97238e-06 4.86016e-08 0 -3.2718e-06 5.12019e-08 0 -3.58665e-06 5.3716e-08 0 -3.91595e-06 5.59858e-08 0 -4.2576e-06 5.7781e-08 0 -4.60782e-06 5.87677e-08 0 -4.96042e-06 5.84633e-08 0 -5.30571e-06 5.61725e-08 0 -5.62898e-06 5.0899e-08 0 -5.90837e-06 4.1229e-08 0 -6.11195e-06 2.51992e-08 0 -6.19412e-06 2.03774e-10 0 -6.09184e-06 -3.68813e-08 0 -5.72341e-06 -8.89234e-08 0 -4.99553e-06 -1.56256e-07 0 -3.83082e-06 -2.32327e-07 0 -2.22388e-06 -2.99072e-07 0 -3.06225e-07 -3.31542e-07 0 0 8.58927e-08 0 -1.71888e-07 8.62001e-08 0 -3.45006e-07 8.71232e-08 0 -5.20587e-07 8.86647e-08 0 -6.99872e-07 9.08287e-08 0 -8.84111e-07 9.36203e-08 0 -1.07456e-06 9.70441e-08 0 -1.2725e-06 1.01103e-07 0 -1.47919e-06 1.05798e-07 0 -1.6959e-06 1.11121e-07 0 -1.92388e-06 1.17054e-07 0 -2.16431e-06 1.23566e-07 0 -2.41831e-06 1.30598e-07 0 -2.68685e-06 1.38058e-07 0 -2.97064e-06 1.45802e-07 0 -3.27008e-06 1.53615e-07 0 -3.58503e-06 1.61174e-07 0 -3.91456e-06 1.68009e-07 0 -4.25662e-06 1.73431e-07 0 -4.60752e-06 1.76444e-07 0 -4.96118e-06 1.75607e-07 0 -5.30808e-06 1.68845e-07 0 -5.63375e-06 1.5318e-07 0 -5.91665e-06 1.24387e-07 0 -6.12526e-06 7.65877e-08 0 -6.2144e-06 1.95518e-09 0 -6.12127e-06 -1.0896e-07 0 -5.76345e-06 -2.65002e-07 0 -5.0448e-06 -4.6768e-07 0 -3.88144e-06 -6.97899e-07 0 -2.26001e-06 -9.01222e-07 0 -3.11785e-07 -9.99867e-07 0 0 1.43079e-07 0 -1.71615e-07 1.43591e-07 0 -3.44458e-07 1.45129e-07 0 -5.19764e-07 1.47698e-07 0 -6.98771e-07 1.51304e-07 0 -8.8273e-07 1.55956e-07 0 -1.0729e-06 1.61662e-07 0 -1.27055e-06 1.68427e-07 0 -1.47696e-06 1.76252e-07 0 -1.6934e-06 1.85125e-07 0 -1.92111e-06 1.95019e-07 0 -2.1613e-06 2.05879e-07 0 -2.41508e-06 2.17609e-07 0 -2.68345e-06 2.3006e-07 0 -2.96716e-06 2.42994e-07 0 -3.26663e-06 2.56054e-07 0 -3.58178e-06 2.68711e-07 0 -3.91176e-06 2.80186e-07 0 -4.25464e-06 2.89345e-07 0 -4.60688e-06 2.94542e-07 0 -4.96265e-06 2.93401e-07 0 -5.31274e-06 2.82493e-07 0 -5.64318e-06 2.56902e-07 0 -5.93305e-06 2.09636e-07 0 -6.15166e-06 1.30939e-07 0 -6.25474e-06 7.73854e-09 0 -6.17994e-06 -1.75963e-07 0 -5.84368e-06 -4.35699e-07 0 -5.14414e-06 -7.75665e-07 0 -3.98458e-06 -1.16614e-06 0 -2.33423e-06 -1.51527e-06 0 -3.216e-07 -1.68725e-06 0 0 2.00151e-07 0 -1.71205e-07 2.00868e-07 0 -3.43637e-07 2.0302e-07 0 -5.18529e-07 2.06615e-07 0 -6.9712e-07 2.11663e-07 0 -8.80659e-07 2.18174e-07 0 -1.07041e-06 2.26162e-07 0 -1.26764e-06 2.35633e-07 0 -1.47362e-06 2.4659e-07 0 -1.68964e-06 2.59017e-07 0 -1.91695e-06 2.72876e-07 0 -2.15677e-06 2.88094e-07 0 -2.41023e-06 3.0454e-07 0 -2.67835e-06 3.22007e-07 0 -2.96192e-06 3.4017e-07 0 -3.26143e-06 3.58536e-07 0 -3.57687e-06 3.76376e-07 0 -3.90751e-06 3.92615e-07 0 -4.25159e-06 4.05691e-07 0 -4.60582e-06 4.13334e-07 0 -4.96469e-06 4.12264e-07 0 -5.31952e-06 3.97752e-07 0 -5.65701e-06 3.63004e-07 0 -5.95722e-06 2.98342e-07 0 -6.19072e-06 1.90201e-07 0 -6.31459e-06 2.02394e-08 0 -6.26746e-06 -2.34423e-07 0 -5.96423e-06 -5.97148e-07 0 -5.29527e-06 -1.0774e-06 0 -4.14386e-06 -1.6383e-06 0 -2.45093e-06 -2.14984e-06 0 -3.40108e-07 -2.40416e-06 0 0 2.57064e-07 0 -1.70659e-07 2.57985e-07 0 -3.42543e-07 2.60751e-07 0 -5.16884e-07 2.65372e-07 0 -6.9492e-07 2.71859e-07 0 -8.77898e-07 2.80228e-07 0 -1.06708e-06 2.90496e-07 0 -1.26374e-06 3.02674e-07 0 -1.46917e-06 3.16764e-07 0 -1.68463e-06 3.32748e-07 0 -1.9114e-06 3.50582e-07 0 -2.15072e-06 3.70171e-07 0 -2.40375e-06 3.91357e-07 0 -2.67153e-06 4.13876e-07 0 -2.95491e-06 4.3732e-07 0 -3.25445e-06 4.61073e-07 0 -3.57026e-06 4.84213e-07 0 -3.90175e-06 5.05389e-07 0 -4.24739e-06 5.2263e-07 0 -4.6042e-06 5.33079e-07 0 -4.96714e-06 5.326e-07 0 -5.32816e-06 5.15229e-07 0 -5.67488e-06 4.7239e-07 0 -5.98867e-06 3.91829e-07 0 -6.24175e-06 2.5628e-07 0 -6.39322e-06 4.21349e-08 0 -6.38313e-06 -2.80766e-07 0 -6.12534e-06 -7.45103e-07 0 -5.50039e-06 -1.36921e-06 0 -4.36539e-06 -2.11491e-06 0 -2.61696e-06 -2.81348e-06 0 -3.61566e-07 -3.17196e-06 0 0 3.13772e-07 0 -1.69976e-07 3.14897e-07 0 -3.41176e-07 3.18276e-07 0 -5.14829e-07 3.23921e-07 0 -6.9217e-07 3.31846e-07 0 -8.74448e-07 3.42072e-07 0 -1.06293e-06 3.54619e-07 0 -1.25888e-06 3.69503e-07 0 -1.46359e-06 3.86727e-07 0 -1.67836e-06 4.06274e-07 0 -1.90446e-06 4.28091e-07 0 -2.14315e-06 4.52071e-07 0 -2.39562e-06 4.78024e-07 0 -2.66297e-06 5.05639e-07 0 -2.9461e-06 5.34434e-07 0 -3.24566e-06 5.63673e-07 0 -3.56189e-06 5.92262e-07 0 -3.89441e-06 6.1859e-07 0 -4.24193e-06 6.40312e-07 0 -4.60188e-06 6.54019e-07 0 -4.96975e-06 6.54786e-07 0 -5.33831e-06 6.35498e-07 0 -5.69633e-06 5.85916e-07 0 -6.02672e-06 4.91359e-07 0 -6.3039e-06 3.31022e-07 0 -6.4895e-06 7.60739e-08 0 -6.52603e-06 -3.11293e-07 0 -6.32682e-06 -8.74768e-07 0 -5.76262e-06 -1.64626e-06 0 -4.65688e-06 -2.59481e-06 0 -2.84344e-06 -3.51684e-06 0 -3.9968e-07 -3.99874e-06 0 0 3.7023e-07 0 -1.69158e-07 3.71559e-07 0 -3.39537e-07 3.7555e-07 0 -5.12364e-07 3.82216e-07 0 -6.88872e-07 3.91577e-07 0 -8.7031e-07 4.03657e-07 0 -1.05794e-06 4.18482e-07 0 -1.25304e-06 4.36071e-07 0 -1.4569e-06 4.56431e-07 0 -1.67083e-06 4.79547e-07 0 -1.89612e-06 5.0536e-07 0 -2.13405e-06 5.3375e-07 0 -2.38584e-06 5.64504e-07 0 -2.65265e-06 5.97269e-07 0 -2.93546e-06 6.31494e-07 0 -3.23501e-06 6.6634e-07 0 -3.55171e-06 7.00554e-07 0 -3.88539e-06 7.32293e-07 0 -4.23508e-06 7.58867e-07 0 -4.59864e-06 7.76375e-07 0 -4.97225e-06 7.79167e-07 0 -5.34959e-06 7.59089e-07 0 -5.72075e-06 7.04375e-07 0 -6.07058e-06 5.98118e-07 0 -6.376e-06 4.16175e-07 0 -6.6021e-06 1.24655e-07 0 -6.69458e-06 -3.22184e-07 0 -6.56845e-06 -9.80778e-07 0 -6.08459e-06 -1.90193e-06 0 -5.02962e-06 -3.07507e-06 0 -3.14588e-06 -4.26873e-06 0 -4.38064e-07 -4.93209e-06 0 0 4.26393e-07 0 -1.68204e-07 4.27925e-07 0 -3.37626e-07 4.32526e-07 0 -5.09489e-07 4.40212e-07 0 -6.85026e-07 4.51006e-07 0 -8.65483e-07 4.64937e-07 0 -1.05212e-06 4.82037e-07 0 -1.24623e-06 5.0233e-07 0 -1.4491e-06 5.2583e-07 0 -1.66204e-06 5.5252e-07 0 -1.88637e-06 5.82341e-07 0 -2.1234e-06 6.15165e-07 0 -2.3744e-06 6.50758e-07 0 -2.64055e-06 6.88734e-07 0 -2.92295e-06 7.28482e-07 0 -3.22246e-06 7.69071e-07 0 -3.53963e-06 8.09112e-07 0 -3.87457e-06 8.46556e-07 0 -4.22666e-06 8.78413e-07 0 -4.59427e-06 9.00339e-07 0 -4.9743e-06 9.06054e-07 0 -5.36149e-06 8.86474e-07 0 -5.74747e-06 8.2849e-07 0 -6.11923e-06 7.13183e-07 0 -6.45676e-06 5.13383e-07 0 -6.72916e-06 1.90372e-07 0 -6.88705e-06 -3.09567e-07 0 -6.84872e-06 -1.05704e-06 0 -6.46976e-06 -2.12785e-06 0 -5.49561e-06 -3.54799e-06 0 -3.54887e-06 -5.08362e-06 0 -5.11145e-07 -5.96394e-06 0 0 4.82216e-07 0 -1.67115e-07 4.83951e-07 0 -3.35444e-07 4.8916e-07 0 -5.06207e-07 4.97863e-07 0 -6.80634e-07 5.10087e-07 0 -8.5997e-07 5.25866e-07 0 -1.04548e-06 5.45237e-07 0 -1.23844e-06 5.68234e-07 0 -1.44017e-06 5.94873e-07 0 -1.65198e-06 6.25144e-07 0 -1.87522e-06 6.58987e-07 0 -2.1112e-06 6.96271e-07 0 -2.36126e-06 7.36746e-07 0 -2.62665e-06 7.79998e-07 0 -2.90854e-06 8.2537e-07 0 -3.20793e-06 8.71857e-07 0 -3.52558e-06 9.1795e-07 0 -3.86184e-06 9.61427e-07 0 -4.2165e-06 9.99041e-07 0 -4.58849e-06 1.02608e-06 0 -4.97551e-06 1.03571e-06 0 -5.37349e-06 1.01807e-06 0 -5.77569e-06 9.58883e-07 0 -6.1716e-06 8.37529e-07 0 -6.54454e-06 6.24112e-07 0 -6.8687e-06 2.75583e-07 0 -7.10057e-06 -2.69569e-07 0 -7.16592e-06 -1.09704e-06 0 -6.91903e-06 -2.31272e-06 0 -6.07138e-06 -4.00216e-06 0 -4.08656e-06 -5.96518e-06 0 -5.84418e-07 -7.22898e-06 0 0 5.37653e-07 0 -1.65891e-07 5.3959e-07 0 -3.32991e-07 5.45406e-07 0 -5.02518e-07 5.55123e-07 0 -6.75696e-07 5.68772e-07 0 -8.53771e-07 5.86395e-07 0 -1.038e-06 6.08035e-07 0 -1.22968e-06 6.33732e-07 0 -1.43012e-06 6.63512e-07 0 -1.64066e-06 6.9737e-07 0 -1.86264e-06 7.35251e-07 0 -2.09744e-06 7.7702e-07 0 -2.34642e-06 8.22422e-07 0 -2.61091e-06 8.71023e-07 0 -2.89218e-06 9.2213e-07 0 -3.19137e-06 9.74678e-07 0 -3.50945e-06 1.02707e-06 0 -3.84706e-06 1.07693e-06 0 -4.2044e-06 1.12082e-06 0 -4.58103e-06 1.15372e-06 0 -4.97549e-06 1.16835e-06 0 -5.38497e-06 1.15421e-06 0 -5.80457e-06 1.0961e-06 0 -6.22637e-06 9.71957e-07 0 -6.63768e-06 7.49678e-07 0 -7.01801e-06 3.82399e-07 0 -7.33232e-06 -1.98537e-07 0 -7.51565e-06 -1.09356e-06 0 -7.43357e-06 -2.44393e-06 0 -6.77015e-06 -4.41373e-06 0 -4.81319e-06 -6.93162e-06 0 -7.23742e-07 -8.65248e-06 0 0 5.92661e-07 0 -1.64532e-07 5.94798e-07 0 -3.3027e-07 6.01219e-07 0 -4.98423e-07 6.11946e-07 0 -6.70215e-07 6.27016e-07 0 -8.46888e-07 6.46478e-07 0 -1.0297e-06 6.70382e-07 0 -1.21995e-06 6.98777e-07 0 -1.41896e-06 7.31697e-07 0 -1.62806e-06 7.69148e-07 0 -1.84864e-06 8.1108e-07 0 -2.08211e-06 8.57364e-07 0 -2.32986e-06 9.0774e-07 0 -2.59331e-06 9.61766e-07 0 -2.87383e-06 1.01872e-06 0 -3.17271e-06 1.07751e-06 0 -3.49114e-06 1.13645e-06 0 -3.83007e-06 1.19309e-06 0 -4.19016e-06 1.2438e-06 0 -4.57157e-06 1.28336e-06 0 -4.97378e-06 1.30413e-06 0 -5.3953e-06 1.29519e-06 0 -5.83316e-06 1.24053e-06 0 -6.28222e-06 1.11717e-06 0 -6.73416e-06 8.91105e-07 0 -7.17427e-06 5.12678e-07 0 -7.5782e-06 -9.30754e-08 0 -7.89284e-06 -1.03989e-06 0 -8.00925e-06 -2.505e-06 0 -7.60571e-06 -4.75378e-06 0 -5.80497e-06 -7.95276e-06 0 -9.14722e-07 -1.06703e-05 0 0 6.47193e-07 0 -1.6304e-07 6.49531e-07 0 -3.27279e-07 6.56553e-07 0 -4.93924e-07 6.68286e-07 0 -6.64192e-07 6.84773e-07 0 -8.39322e-07 7.06067e-07 0 -1.02058e-06 7.32229e-07 0 -1.20925e-06 7.63318e-07 0 -1.40667e-06 7.99379e-07 0 -1.61419e-06 8.40428e-07 0 -1.83321e-06 8.86426e-07 0 -2.06518e-06 9.37251e-07 0 -2.31155e-06 9.9265e-07 0 -2.57381e-06 1.05218e-06 0 -2.85343e-06 1.11511e-06 0 -3.15188e-06 1.18032e-06 0 -3.47055e-06 1.24608e-06 0 -3.81073e-06 1.30988e-06 0 -4.17354e-06 1.368e-06 0 -4.55978e-06 1.41504e-06 0 -4.96993e-06 1.44319e-06 0 -5.40375e-06 1.44113e-06 0 -5.86054e-06 1.39255e-06 0 -6.33758e-06 1.27355e-06 0 -6.83205e-06 1.0493e-06 0 -7.33395e-06 6.67795e-07 0 -7.83405e-06 4.94808e-08 0 -8.28942e-06 -9.28704e-07 0 -8.63888e-06 -2.4825e-06 0 -8.58058e-06 -4.96584e-06 0 -7.17213e-06 -9.02523e-06 0 -1.18817e-06 -1.30199e-05 0 0 7.01206e-07 0 -1.61415e-07 7.03743e-07 0 -3.24022e-07 7.11364e-07 0 -4.89022e-07 7.24098e-07 0 -6.57629e-07 7.41995e-07 0 -8.31076e-07 7.65115e-07 0 -1.01063e-06 7.93529e-07 0 -1.19757e-06 8.27307e-07 0 -1.39325e-06 8.66506e-07 0 -1.59904e-06 9.11156e-07 0 -1.81635e-06 9.61233e-07 0 -2.04666e-06 1.01663e-06 0 -2.29148e-06 1.0771e-06 0 -2.55238e-06 1.14221e-06 0 -2.83094e-06 1.21124e-06 0 -3.12879e-06 1.28305e-06 0 -3.44757e-06 1.35592e-06 0 -3.78887e-06 1.42729e-06 0 -4.15432e-06 1.49341e-06 0 -4.5453e-06 1.54878e-06 0 -4.96348e-06 1.58555e-06 0 -5.40958e-06 1.59218e-06 0 -5.88576e-06 1.55226e-06 0 -6.39079e-06 1.44148e-06 0 -6.92935e-06 1.2247e-06 0 -7.49324e-06 8.48724e-07 0 -8.09504e-06 2.31493e-07 0 -8.69572e-06 -7.5597e-07 0 -9.30846e-06 -2.35718e-06 0 -9.68058e-06 -5.00608e-06 0 -9.04687e-06 -9.93569e-06 0 -1.98262e-06 -1.72589e-05 0 0 7.54656e-07 0 -1.59657e-07 7.5739e-07 0 -3.20499e-07 7.65606e-07 0 -4.8372e-07 7.79337e-07 0 -6.50528e-07 7.98637e-07 0 -8.22153e-07 8.23575e-07 0 -9.99855e-07 8.54233e-07 0 -1.18493e-06 8.90692e-07 0 -1.37872e-06 9.33027e-07 0 -1.5826e-06 9.81281e-07 0 -1.79804e-06 1.03545e-06 0 -2.02652e-06 1.09544e-06 0 -2.26962e-06 1.16103e-06 0 -2.52898e-06 1.2318e-06 0 -2.80631e-06 1.30705e-06 0 -3.10339e-06 1.38565e-06 0 -3.42208e-06 1.46592e-06 0 -3.76435e-06 1.54526e-06 0 -4.13221e-06 1.62e-06 0 -4.52793e-06 1.68454e-06 0 -4.95366e-06 1.73124e-06 0 -5.4126e-06 1.74826e-06 0 -5.90668e-06 1.71983e-06 0 -6.44247e-06 1.62087e-06 0 -7.01945e-06 1.4177e-06 0 -7.65686e-06 1.05566e-06 0 -8.33922e-06 4.5432e-07 0 -9.1318e-06 -5.18379e-07 0 -9.94091e-06 -2.11804e-06 0 -1.09571e-05 -4.8147e-06 0 -1.14603e-05 -1.03997e-05 0 -2.37968e-06 -2.32258e-05 0 0 8.07498e-07 0 -1.57767e-07 8.10429e-07 0 -3.16712e-07 8.19237e-07 0 -4.7802e-07 8.33957e-07 0 -6.42892e-07 8.54652e-07 0 -8.12555e-07 8.81399e-07 0 -9.88264e-07 9.14292e-07 0 -1.17132e-06 9.53425e-07 0 -1.36306e-06 9.98889e-07 0 -1.56489e-06 1.05075e-06 0 -1.77828e-06 1.10902e-06 0 -2.00476e-06 1.17363e-06 0 -2.24596e-06 1.24438e-06 0 -2.5036e-06 1.32089e-06 0 -2.77948e-06 1.40248e-06 0 -3.0756e-06 1.48808e-06 0 -3.39395e-06 1.57598e-06 0 -3.73704e-06 1.66377e-06 0 -4.1069e-06 1.7476e-06 0 -4.50742e-06 1.82241e-06 0 -4.93981e-06 1.87988e-06 0 -5.41236e-06 1.9098e-06 0 -5.92183e-06 1.89438e-06 0 -6.4916e-06 1.81271e-06 0 -7.09942e-06 1.62692e-06 0 -7.8212e-06 1.28927e-06 0 -8.56211e-06 7.19792e-07 0 -9.57944e-06 -2.25299e-07 0 -1.05303e-05 -1.72353e-06 0 -1.22925e-05 -4.48679e-06 0 -1.42359e-05 -9.35988e-06 0 -1.37766e-05 -3.46294e-05 0 0 8.59689e-07 0 -1.55747e-07 8.62815e-07 0 -3.12662e-07 8.7221e-07 0 -4.71924e-07 8.87914e-07 0 -6.34725e-07 9.09995e-07 0 -8.02285e-07 9.38541e-07 0 -9.75858e-07 9.73657e-07 0 -1.15674e-06 1.01545e-06 0 -1.34628e-06 1.06404e-06 0 -1.54589e-06 1.1195e-06 0 -1.75707e-06 1.18188e-06 0 -1.98136e-06 1.25112e-06 0 -2.22048e-06 1.32709e-06 0 -2.47616e-06 1.4094e-06 0 -2.75047e-06 1.49747e-06 0 -3.04519e-06 1.5902e-06 0 -3.36339e-06 1.68612e-06 0 -3.70609e-06 1.78257e-06 0 -4.07958e-06 1.87643e-06 0 -4.48057e-06 1.96173e-06 0 -4.92712e-06 2.03228e-06 0 -5.39695e-06 2.07507e-06 0 -5.95206e-06 2.07807e-06 0 -6.49438e-06 2.01333e-06 0 -7.2479e-06 1.85562e-06 0 -7.82932e-06 1.54707e-06 0 -9.04513e-06 1.01875e-06 0 -9.49518e-06 1.61101e-07 0 -1.20119e-05 -1.31047e-06 0 -1.19995e-05 -3.56611e-06 0 -1.79189e-05 -8.90239e-06 0 -7.18272e-05 -1.1113e-05 0 </DataArray> 
</PointData> 
<Points> 
<DataArray type="Float32" NumberOfComponents="3"> 