<?xml version="1.0"?> 
<VTKFile type="StructuredGrid" version="0.1"> 
<StructuredGrid WholeExtent="0 31 0 31 0 0"> 
<Piece Extent="0 31 0 31 0 0"> 
<PointData>
<DataArray type="Float32" Name="B" format="ascii" NumberOfComponents="3"> 
6.6437e-05 -5.15549e-05 0 2.26777e-05 -1.55557e-05 0 1.78007e-05 -7.3795e-06 0 1.59847e-05 -3.08488e-06 0 1.38916e-05 -6.8384e-07 0 1.26146e-05 8.18798e-07 0 1.13214e-05 1.7409e-06 0 1.03109e-05 2.30173e-06 0 9.36295e-06 2.62116e-06 0 8.54106e-06 2.77822e-06 0 7.78417e-06 2.82704e-06 0 7.10078e-06 2.80332e-06 0 6.47165e-06 2.73281e-06 0 5.8944e-06 2.63295e-06 0 5.36115e-06 2.51626e-06 0 4.8682e-06 2.39136e-06 0 4.41105e-06 2.26431e-06 0 3.98634e-06 2.13928e-06 0 3.59079e-06 2.01911e-06 0 3.22153e-06 1.90571e-06 0 2.87584e-06 1.80031e-06 0 2.55124e-06 1.70366e-06 0 2.24536e-06 1.6162e-06 0 1.95599e-06 1.53814e-06 0 1.68102e-06 1.46955e-06 0 1.41845e-06 1.4104e-06 0 1.16636e-06 1.3606e-06 0 9.22888e-07 1.32006e-06 0 6.86249e-07 1.28866e-06 0 4.54693e-07 1.26631e-06 0 2.26507e-07 1.25293e-06 0 0 1.24848e-06 0 4.15507e-05 -5.5821e-06 0 3.00394e-05 -6.0349e-06 0 2.27195e-05 -2.91108e-06 0 1.84081e-05 -3.51478e-07 0 1.5657e-05 1.32546e-06 0 1.35672e-05 2.38783e-06 0 1.19675e-05 3.03382e-06 0 1.06438e-05 3.39853e-06 0 9.54047e-06 3.57318e-06 0 8.58711e-06 3.61848e-06 0 7.75563e-06 3.57776e-06 0 7.01751e-06 3.48044e-06 0 6.35702e-06 3.34788e-06 0 5.76036e-06 3.19479e-06 0 5.21818e-06 3.03176e-06 0 4.72265e-06 2.86612e-06 0 4.26776e-06 2.703e-06 0 3.84842e-06 2.54589e-06 0 3.4604e-06 2.39715e-06 0 3.10004e-06 2.25829e-06 0 2.76411e-06 2.13024e-06 0 2.44973e-06 2.01353e-06 0 2.15432e-06 1.90839e-06 0 1.87547e-06 1.81489e-06 0 1.61098e-06 1.73294e-06 0 1.35878e-06 1.66242e-06 0 1.11692e-06 1.60315e-06 0 8.8354e-07 1.55495e-06 0 6.56864e-07 1.51766e-06 0 4.35166e-07 1.49113e-06 0 2.16763e-07 1.47526e-06 0 0 1.46997e-06 0 3.86089e-05 4.72532e-06 0 3.07321e-05 2.42236e-06 0 2.43662e-05 2.59996e-06 0 1.9842e-05 3.28959e-06 0 1.6578e-05 3.93222e-06 0 1.41636e-05 4.3642e-06 0 1.2287e-05 4.59986e-06 0 1.07894e-05 4.68156e-06 0 9.55587e-06 4.65101e-06 0 8.51954e-06 4.54306e-06 0 7.63119e-06 4.38343e-06 0 6.85873e-06 4.19194e-06 0 6.17815e-06 3.98267e-06 0 5.57243e-06 3.76609e-06 0 5.02855e-06 3.54949e-06 0 4.53666e-06 3.3381e-06 0 4.08897e-06 3.13548e-06 0 3.67926e-06 2.94401e-06 0 3.30241e-06 2.76521e-06 0 2.95416e-06 2.59998e-06 0 2.63085e-06 2.44879e-06 0 2.32931e-06 2.31179e-06 0 2.04673e-06 2.18894e-06 0 1.78061e-06 2.08006e-06 0 1.52866e-06 1.9849e-06 0 1.28878e-06 1.90319e-06 0 1.05901e-06 1.83463e-06 0 8.37501e-07 1.77894e-06 0 6.2251e-07 1.7359e-06 0 4.12349e-07 1.7053e-06 0 2.0538e-07 1.687e-06 0 0 1.68091e-06 0 3.55921e-05 1.10068e-05 0 2.94753e-05 8.97886e-06 0 2.41807e-05 7.6614e-06 0 1.99666e-05 7.07357e-06 0 1.67247e-05 6.76384e-06 0 1.4217e-05 6.54134e-06 0 1.22493e-05 6.31961e-06 0 1.06711e-05 6.07475e-06 0 9.38068e-06 5.80544e-06 0 8.30487e-06 5.51781e-06 0 7.39312e-06 5.22035e-06 0 6.60874e-06 4.92042e-06 0 5.92529e-06 4.62439e-06 0 5.32307e-06 4.33699e-06 0 4.78732e-06 4.06176e-06 0 4.3067e-06 3.80112e-06 0 3.87239e-06 3.55667e-06 0 3.47737e-06 3.32936e-06 0 3.11594e-06 3.11963e-06 0 2.78342e-06 2.92759e-06 0 2.47589e-06 2.75311e-06 0 2.18996e-06 2.59588e-06 0 1.92273e-06 2.4555e-06 0 1.67162e-06 2.3315e-06 0 1.4343e-06 2.22343e-06 0 1.20869e-06 2.13081e-06 0 9.92841e-07 2.05323e-06 0 7.84958e-07 1.9903e-06 0 5.83335e-07 1.94171e-06 0 3.86344e-07 1.90718e-06 0 1.92412e-07 1.88655e-06 0 0 1.87968e-06 0 3.25111e-05 1.73838e-05 0 2.7305e-05 1.4226e-05 0 2.28294e-05 1.20951e-05 0 1.91245e-05 1.05949e-05 0 1.61345e-05 9.53274e-06 0 1.37448e-05 8.72517e-06 0 1.18265e-05 8.0657e-06 0 1.02714e-05 7.49384e-06 0 8.99356e-06 6.97802e-06 0 7.92877e-06 6.5025e-06 0 7.0291e-06 6.05932e-06 0 6.25902e-06 5.64484e-06 0 5.59194e-06 5.25721e-06 0 5.00781e-06 4.89556e-06 0 4.49134e-06 4.55928e-06 0 4.03074e-06 4.24784e-06 0 3.61675e-06 3.96065e-06 0 3.24204e-06 3.69705e-06 0 2.90067e-06 3.45631e-06 0 2.5878e-06 3.23762e-06 0 2.29938e-06 3.04017e-06 0 2.03198e-06 2.86312e-06 0 1.78266e-06 2.70566e-06 0 1.54885e-06 2.56703e-06 0 1.32827e-06 2.44649e-06 0 1.11885e-06 2.34341e-06 0 9.18731e-07 2.25719e-06 0 7.26169e-07 2.18734e-06 0 5.39537e-07 2.13345e-06 0 3.57286e-07 2.09519e-06 0 1.77925e-07 2.07233e-06 0 0 2.06473e-06 0 2.87274e-05 2.22519e-05 0 2.44072e-05 1.86834e-05 0 2.06915e-05 1.58459e-05 0 1.75524e-05 1.36999e-05 0 1.4946e-05 1.2056e-05 0 1.28033e-05 1.07694e-05 0 1.10454e-05 9.72876e-06 0 9.5977e-06 8.85911e-06 0 8.39625e-06 8.11175e-06 0 7.38949e-06 7.45535e-06 0 6.53698e-06 6.86998e-06 0 5.80735e-06 6.34249e-06 0 5.17641e-06 5.86413e-06 0 4.62545e-06 5.42877e-06 0 4.13993e-06 5.03196e-06 0 3.70847e-06 4.67028e-06 0 3.32207e-06 4.34102e-06 0 2.97353e-06 4.04189e-06 0 2.65705e-06 3.77093e-06 0 2.36783e-06 3.52642e-06 0 2.10193e-06 3.30683e-06 0 1.85598e-06 3.11077e-06 0 1.62713e-06 2.93702e-06 0 1.4129e-06 2.78446e-06 0 1.21109e-06 2.65212e-06 0 1.01974e-06 2.53915e-06 0 8.37079e-07 2.4448e-06 0 6.61463e-07 2.36844e-06 0 4.91367e-07 2.30958e-06 0 3.25344e-07 2.26782e-06 0 1.62006e-07 2.24287e-06 0 0 2.23458e-06 0 2.42988e-05 2.65213e-05 0 2.09098e-05 2.22561e-05 0 1.79724e-05 1.89268e-05 0 1.54437e-05 1.63017e-05 0 1.3292e-05 1.423e-05 0 1.1478e-05 1.25734e-05 0 9.95612e-06 1.12251e-05 0 8.67983e-06 1.0105e-05 0 7.60606e-06 9.15619e-06 0 6.69749e-06 8.33838e-06 0 5.92315e-06 7.62341e-06 0 5.2579e-06 6.99145e-06 0 4.68158e-06 6.4283e-06 0 4.17816e-06 5.92359e-06 0 3.73484e-06 5.4696e-06 0 3.34143e-06 5.06039e-06 0 2.98974e-06 4.69131e-06 0 2.67316e-06 4.35859e-06 0 2.38628e-06 4.05913e-06 0 2.12466e-06 3.79033e-06 0 1.88459e-06 3.54997e-06 0 1.66294e-06 3.33614e-06 0 1.45704e-06 3.14719e-06 0 1.26457e-06 2.9817e-06 0 1.08348e-06 2.83841e-06 0 9.11973e-07 2.71629e-06 0 7.48398e-07 2.61442e-06 0 5.91251e-07 2.53207e-06 0 4.39134e-07 2.46863e-06 0 2.90724e-07 2.42365e-06 0 1.44756e-07 2.39678e-06 0 0 2.38785e-06 0 1.93403e-05 2.95415e-05 0 1.69692e-05 2.49665e-05 0 1.48448e-05 2.12934e-05 0 1.29569e-05 1.83571e-05 0 1.12991e-05 1.59932e-05 0 9.8604e-06 1.4074e-05 0 8.62188e-06 1.24968e-05 0 7.5605e-06 1.11825e-05 0 6.65173e-06 1.00716e-05 0 5.87224e-06 9.11988e-06 0 5.20107e-06 8.29476e-06 0 4.62019e-06 7.57224e-06 0 4.11442e-06 6.93445e-06 0 3.67119e-06 6.368e-06 0 3.28018e-06 5.86267e-06 0 2.93293e-06 5.41053e-06 0 2.62251e-06 5.00535e-06 0 2.34323e-06 4.64211e-06 0 2.09037e-06 4.31674e-06 0 1.86003e-06 4.02585e-06 0 1.64891e-06 3.76663e-06 0 1.45422e-06 3.53667e-06 0 1.27357e-06 3.33395e-06 0 1.10488e-06 3.15674e-06 0 9.46328e-07 3.00357e-06 0 7.96292e-07 2.87319e-06 0 6.53304e-07 2.76455e-06 0 5.16024e-07 2.6768e-06 0 3.83203e-07 2.60925e-06 0 2.53669e-07 2.56137e-06 0 1.26298e-07 2.53279e-06 0 0 2.52329e-06 0 1.41056e-05 3.14779e-05 0 1.27861e-05 2.67443e-05 0 1.14819e-05 2.2936e-05 0 1.02383e-05 1.9843e-05 0 9.08613e-06 1.73164e-05 0 8.04176e-06 1.52365e-05 0 7.11041e-06 1.35089e-05 0 6.28875e-06 1.20592e-05 0 5.56857e-06 1.08298e-05 0 4.93916e-06 9.77617e-06 0 4.3892e-06 8.86454e-06 0 3.90781e-06 8.06901e-06 0 3.48508e-06 7.3698e-06 0 3.11231e-06 6.75168e-06 0 2.78201e-06 6.20282e-06 0 2.4878e-06 5.71392e-06 0 2.22431e-06 5.27759e-06 0 1.987e-06 4.88789e-06 0 1.77206e-06 4.53995e-06 0 1.57627e-06 4.22979e-06 0 1.39687e-06 3.95407e-06 0 1.23151e-06 3.71001e-06 0 1.07817e-06 3.49525e-06 0 9.35085e-07 3.30779e-06 0 8.00685e-07 3.14598e-06 0 6.73583e-07 3.00838e-06 0 5.52521e-07 2.89383e-06 0 4.36347e-07 2.80137e-06 0 3.23994e-07 2.73022e-06 0 2.14455e-07 2.67982e-06 0 1.06768e-07 2.64974e-06 0 0 2.63974e-06 0 8.91518e-06 3.22003e-05 0 8.58501e-06 2.76249e-05 0 8.05537e-06 2.38673e-05 0 7.42622e-06 2.07684e-05 0 6.7632e-06 1.81967e-05 0 6.10885e-06 1.605e-05 0 5.48836e-06 1.42457e-05 0 4.91516e-06 1.27178e-05 0 4.39454e-06 1.14138e-05 0 3.92672e-06 1.02918e-05 0 3.50894e-06 9.31922e-06 0 3.13697e-06 8.47021e-06 0 2.80599e-06 7.72462e-06 0 2.51116e-06 7.06652e-06 0 2.24791e-06 6.48332e-06 0 2.0121e-06 5.96497e-06 0 1.80004e-06 5.5034e-06 0 1.60851e-06 5.09204e-06 0 1.4347e-06 4.72551e-06 0 1.27617e-06 4.39937e-06 0 1.13083e-06 4.10994e-06 0 9.96827e-07 3.85411e-06 0 8.72565e-07 3.62928e-06 0 7.5663e-07 3.43326e-06 0 6.47768e-07 3.2642e-06 0 5.44852e-07 3.12056e-06 0 4.46862e-07 3.00106e-06 0 3.52861e-07 2.90464e-06 0 2.61979e-07 2.83049e-06 0 1.73395e-07 2.77797e-06 0 8.63222e-08 2.74663e-06 0 0 2.73621e-06 0 4.06166e-06 3.19031e-05 0 4.57516e-06 2.76856e-05 0 4.72329e-06 2.41481e-05 0 4.64388e-06 2.11702e-05 0 4.42899e-06 1.86554e-05 0 4.14002e-06 1.65236e-05 0 3.81773e-06 1.47083e-05 0 3.48817e-06 1.31545e-05 0 3.16726e-06 1.18171e-05 0 2.86399e-06 1.06593e-05 0 2.58279e-06 9.65121e-06 0 2.32515e-06 8.76873e-06 0 2.09081e-06 7.99248e-06 0 1.8785e-06 7.30687e-06 0 1.68646e-06 6.69929e-06 0 1.51272e-06 6.15951e-06 0 1.35532e-06 5.6792e-06 0 1.21236e-06 5.25151e-06 0 1.08209e-06 4.87079e-06 0 9.62945e-07 4.53236e-06 0 8.53485e-07 4.23228e-06 0 7.52436e-07 3.96727e-06 0 6.58657e-07 3.73456e-06 0 5.71126e-07 3.5318e-06 0 4.88921e-07 3.35705e-06 0 4.11208e-07 3.20864e-06 0 3.37225e-07 3.08522e-06 0 2.66266e-07 2.98569e-06 0 1.97673e-07 2.90916e-06 0 1.30826e-07 2.85496e-06 0 6.51278e-08 2.82263e-06 0 0 2.81188e-06 0 -2.33447e-07 3.07749e-05 0 9.18942e-07 2.70738e-05 0 1.61111e-06 2.38722e-05 0 1.99227e-06 2.11119e-05 0 2.16532e-06 1.87334e-05 0 2.20216e-06 1.66826e-05 0 2.15269e-06 1.49109e-05 0 2.05139e-06 1.33762e-05 0 1.92158e-06 1.20421e-05 0 1.77873e-06 1.08781e-05 0 1.63279e-06 9.85836e-06 0 1.48987e-06 8.96162e-06 0 1.35351e-06 8.17022e-06 0 1.22554e-06 7.46961e-06 0 1.1067e-06 6.84778e-06 0 9.97036e-07 6.29483e-06 0 8.96175e-07 5.80257e-06 0 8.03531e-07 5.36416e-06 0 7.18404e-07 4.97392e-06 0 6.40055e-07 4.62709e-06 0 5.67753e-07 4.31965e-06 0 5.00795e-07 4.04822e-06 0 4.38519e-07 3.80995e-06 0 3.8031e-07 3.60241e-06 0 3.25595e-07 3.42359e-06 0 2.73846e-07 3.27177e-06 0 2.24571e-07 3.14555e-06 0 1.77309e-07 3.04377e-06 0 1.31627e-07 2.96553e-06 0 8.71109e-08 2.91013e-06 0 4.33644e-08 2.87708e-06 0 0 2.86609e-06 0 -3.86668e-06 2.90928e-05 0 -2.28844e-06 2.59589e-05 0 -1.19738e-06 2.31557e-05 0 -4.5647e-07 2.06723e-05 0 3.4343e-08 1.84848e-05 0 3.48006e-07 1.65634e-05 0 5.37676e-07 1.48776e-05 0 6.41805e-07 1.33981e-05 0 6.88022e-07 1.20979e-05 0 6.95945e-07 1.09532e-05 0 6.79344e-07 9.94314e-06 0 6.47746e-07 9.04969e-06 0 6.07638e-07 8.2576e-06 0 5.63352e-07 7.5539e-06 0 5.17714e-07 6.92767e-06 0 4.72506e-07 6.36971e-06 0 4.288e-07 5.87227e-06 0 3.87186e-07 5.4288e-06 0 3.47938e-07 5.03378e-06 0 3.11125e-07 4.68253e-06 0 2.76686e-07 4.37109e-06 0 2.4448e-07 4.09609e-06 0 2.14323e-07 3.85465e-06 0 1.86005e-07 3.64437e-06 0 1.59309e-07 3.46317e-06 0 1.34016e-07 3.30935e-06 0 1.09908e-07 3.18147e-06 0 8.67765e-08 3.07836e-06 0 6.44161e-08 2.99909e-06 0 4.26284e-08 2.94297e-06 0 2.12199e-08 2.90949e-06 0 0 2.89836e-06 0 -6.83599e-06 2.70897e-05 0 -5.01698e-06 2.45098e-05 0 -3.66192e-06 2.21171e-05 0 -2.65953e-06 1.99362e-05 0 -1.92281e-06 1.79698e-05 0 -1.38456e-06 1.62089e-05 0 -9.93611e-07 1.46385e-05 0 -7.11187e-07 1.32411e-05 0 -5.08212e-07 1.19988e-05 0 -3.63021e-07 1.08943e-05 0 -2.59606e-07 9.91171e-06 0 -1.8622e-07 9.03681e-06 0 -1.34304e-07 8.25691e-06 0 -9.76593e-08 7.56101e-06 0 -7.18239e-08 6.93954e-06 0 -5.36028e-08 6.38428e-06 0 -4.07197e-08 5.88816e-06 0 -3.156e-08 5.44513e-06 0 -2.49842e-08 5.04998e-06 0 -2.01917e-08 4.69827e-06 0 -1.66224e-08 4.38619e-06 0 -1.38866e-08 4.11045e-06 0 -1.17145e-08 3.86828e-06 0 -9.92046e-09 3.65728e-06 0 -8.37756e-09 3.47543e-06 0 -6.99966e-09 3.32103e-06 0 -5.72879e-09 3.19265e-06 0 -4.52627e-09 3.08913e-06 0 -3.36648e-09 3.00955e-06 0 -2.2325e-09 2.9532e-06 0 -1.11301e-09 2.91958e-06 0 0 2.90841e-06 0 -9.20779e-06 2.49535e-05 0 -7.28625e-06 2.28673e-05 0 -5.7778e-06 2.08634e-05 0 -4.60034e-06 1.89837e-05 0 -3.68411e-06 1.72484e-05 0 -2.97194e-06 1.56635e-05 0 -2.41798e-06 1.42263e-05 0 -1.98597e-06 1.29292e-05 0 -1.6476e-06 1.1762e-05 0 -1.38092e-06 1.07136e-05 0 -1.16906e-06 9.77293e-06 0 -9.9911e-07 8.92918e-06 0 -8.61263e-07 8.17249e-06 0 -7.48071e-07 7.4939e-06 0 -6.53899e-07 6.88539e-06 0 -5.74484e-07 6.33987e-06 0 -5.06594e-07 5.85112e-06 0 -4.47777e-07 5.4137e-06 0 -3.96163e-07 5.02286e-06 0 -3.50313e-07 4.67448e-06 0 -3.09117e-07 4.365e-06 0 -2.71703e-07 4.09133e-06 0 -2.37383e-07 3.85079e-06 0 -2.05602e-07 3.6411e-06 0 -1.75904e-07 3.4603e-06 0 -1.47911e-07 3.30673e-06 0 -1.213e-07 3.17901e-06 0 -9.57877e-08 3.07601e-06 0 -7.11241e-08 2.99681e-06 0 -4.70795e-08 2.94072e-06 0 -2.34397e-08 2.90726e-06 0 0 2.89614e-06 0 -1.10757e-05 2.28051e-05 0 -9.14404e-06 2.11381e-05 0 -7.56491e-06 1.94819e-05 0 -6.28206e-06 1.78845e-05 0 -5.24327e-06 1.63753e-05 0 -4.40273e-06 1.49697e-05 0 -3.72171e-06 1.36737e-05 0 -3.1682e-06 1.24872e-05 0 -2.71615e-06 1.14064e-05 0 -2.34467e-06 1.04254e-05 0 -2.03711e-06 9.53731e-06 0 -1.7803e-06 8.73464e-06 0 -1.56387e-06 8.01014e-06 0 -1.37969e-06 7.35688e-06 0 -1.22139e-06 6.7684e-06 0 -1.08397e-06 6.23883e-06 0 -9.63492e-07 5.76287e-06 0 -8.56865e-07 5.33578e-06 0 -7.61629e-07 4.95336e-06 0 -6.75821e-07 4.61188e-06 0 -5.97858e-07 4.30809e-06 0 -5.26449e-07 4.03913e-06 0 -4.6053e-07 3.80251e-06 0 -3.99211e-07 3.59608e-06 0 -3.41735e-07 3.41798e-06 0 -2.87448e-07 3.26663e-06 0 -2.35776e-07 3.1407e-06 0 -1.86204e-07 3.03912e-06 0 -1.38265e-07 2.96099e-06 0 -9.15232e-08 2.90565e-06 0 -4.5567e-08 2.87264e-06 0 0 2.86166e-06 0 -1.25349e-05 2.07173e-05 0 -1.06492e-05 1.93946e-05 0 -9.05648e-06 1.80381e-05 0 -7.72088e-06 1.66948e-05 0 -6.6054e-06 1.53972e-05 0 -5.67516e-06 1.41654e-05 0 -4.89896e-06 1.30109e-05 0 -4.24981e-06 1.19391e-05 0 -3.70485e-06 1.09508e-05 0 -3.24509e-06 1.00444e-05 0 -2.85488e-06 9.21626e-06 0 -2.52147e-06 8.462e-06 0 -2.23452e-06 7.77664e-06 0 -1.98567e-06 7.15516e-06 0 -1.76819e-06 6.5926e-06 0 -1.57664e-06 6.08428e-06 0 -1.40665e-06 5.62584e-06 0 -1.25464e-06 5.21329e-06 0 -1.11773e-06 4.84298e-06 0 -9.93534e-07 4.51166e-06 0 -8.80082e-07 4.21641e-06 0 -7.75734e-07 3.95465e-06 0 -6.791e-07 3.7241e-06 0 -5.88995e-07 3.52277e-06 0 -5.0439e-07 3.34894e-06 0 -4.2438e-07 3.20113e-06 0 -3.48159e-07 3.0781e-06 0 -2.74995e-07 2.9788e-06 0 -2.04213e-07 2.90241e-06 0 -1.35184e-07 2.84829e-06 0 -6.73062e-08 2.816e-06 0 0 2.80527e-06 0 -1.36695e-05 1.87272e-05 0 -1.18603e-05 1.76825e-05 0 -1.02908e-05 1.65785e-05 0 -8.93998e-06 1.54577e-05 0 -7.78292e-06 1.43517e-05 0 -6.79426e-06 1.32827e-05 0 -5.94988e-06 1.22649e-05 0 -5.22787e-06 1.13069e-05 0 -4.60894e-06 1.04131e-05 0 -4.07644e-06 9.58482e-06 0 -3.61626e-06 8.82129e-06 0 -3.21652e-06 8.12043e-06 0 -2.86733e-06 7.4793e-06 0 -2.56049e-06 6.89455e-06 0 -2.28922e-06 6.36261e-06 0 -2.04791e-06 5.87991e-06 0 -1.83192e-06 5.443e-06 0 -1.63742e-06 5.04861e-06 0 -1.46119e-06 4.69368e-06 0 -1.30055e-06 4.37542e-06 0 -1.15325e-06 4.09129e-06 0 -1.01734e-06 3.839e-06 0 -8.91168e-07 3.61651e-06 0 -7.733e-07 3.42201e-06 0 -6.62466e-07 3.25393e-06 0 -5.57537e-07 3.11091e-06 0 -4.57495e-07 2.99178e-06 0 -3.61409e-07 2.8956e-06 0 -2.68414e-07 2.82158e-06 0 -1.77695e-07 2.76914e-06 0 -8.84759e-08 2.73783e-06 0 0 2.72743e-06 0 -1.4549e-05 1.68508e-05 0 -1.28302e-05 1.60282e-05 0 -1.1306e-05 1.51338e-05 0 -9.96524e-06 1.42041e-05 0 -8.79228e-06 1.32682e-05 0 -7.76948e-06 1.23478e-05 0 -6.87888e-06 1.14583e-05 0 -6.10331e-06 1.06101e-05 0 -5.42701e-06 9.80957e-06 0 -4.83587e-06 9.06029e-06 0 -4.31753e-06 8.36352e-06 0 -3.8613e-06 7.71904e-06 0 -3.45804e-06 7.12556e-06 0 -3.09995e-06 6.58113e-06 0 -2.78045e-06 6.08339e-06 0 -2.49398e-06 5.62978e-06 0 -2.23583e-06 5.21768e-06 0 -2.002e-06 4.8445e-06 0 -1.78913e-06 4.50775e-06 0 -1.5943e-06 4.2051e-06 0 -1.41506e-06 3.93438e-06 0 -1.24924e-06 3.6936e-06 0 -1.09497e-06 3.48096e-06 0 -9.50595e-07 3.29486e-06 0 -8.14655e-07 3.13389e-06 0 -6.85821e-07 2.99681e-06 0 -5.62887e-07 2.88256e-06 0 -4.4474e-07 2.79027e-06 0 -3.30344e-07 2.71922e-06 0 -2.18712e-07 2.66886e-06 0 -1.08904e-07 2.6388e-06 0 0 2.62881e-06 0 -1.52287e-05 1.50907e-05 0 -1.36043e-05 1.4445e-05 0 -1.2137e-05 1.3723e-05 0 -1.08224e-05 1.29554e-05 0 -9.65146e-06 1.21681e-05 0 -8.61264e-06 1.13811e-05 0 -7.69309e-06 1.06097e-05 0 -6.87978e-06 9.865e-06 0 -6.16022e-06 9.15447e-06 0 -5.52278e-06 8.48299e-06 0 -4.95695e-06 7.8533e-06 0 -4.45336e-06 7.26654e-06 0 -4.00376e-06 6.7227e-06 0 -3.60099e-06 6.22099e-06 0 -3.23881e-06 5.76004e-06 0 -2.91186e-06 5.33816e-06 0 -2.6155e-06 4.95346e-06 0 -2.34573e-06 4.60398e-06 0 -2.09907e-06 4.28776e-06 0 -1.87254e-06 4.00289e-06 0 -1.66349e-06 3.74756e-06 0 -1.46962e-06 3.52008e-06 0 -1.28889e-06 3.3189e-06 0 -1.11949e-06 3.14263e-06 0 -9.59758e-07 2.98999e-06 0 -8.0822e-07 2.85991e-06 0 -6.63503e-07 2.75142e-06 0 -5.24332e-07 2.66373e-06 0 -3.89514e-07 2.5962e-06 0 -2.57911e-07 2.54831e-06 0 -1.28429e-07 2.51973e-06 0 0 2.51022e-06 0 -1.57524e-05 1.3443e-05 0 -1.42203e-05 1.29376e-05 0 -1.28146e-05 1.23566e-05 0 -1.15353e-05 1.17257e-05 0 -1.03783e-05 1.10668e-05 0 -9.33652e-06 1.03982e-05 0 -8.40113e-06 9.73401e-06 0 -7.56266e-06 9.08528e-06 0 -6.81148e-06 8.45997e-06 0 -6.13828e-06 7.86365e-06 0 -5.53432e-06 7.29995e-06 0 -4.99159e-06 6.77097e-06 0 -4.50283e-06 6.27764e-06 0 -4.06157e-06 5.82003e-06 0 -3.66207e-06 5.39759e-06 0 -3.29926e-06 5.00934e-06 0 -2.96868e-06 4.65402e-06 0 -2.6664e-06 4.33022e-06 0 -2.38897e-06 4.03643e-06 0 -2.13333e-06 3.77115e-06 0 -1.89678e-06 3.5329e-06 0 -1.6769e-06 3.32028e-06 0 -1.47153e-06 3.13197e-06 0 -1.27872e-06 2.96677e-06 0 -1.09669e-06 2.82358e-06 0 -9.23816e-07 2.70143e-06 0 -7.58584e-07 2.5995e-06 0 -5.99582e-07 2.51706e-06 0 -4.45477e-07 2.45354e-06 0 -2.94994e-07 2.40849e-06 0 -1.46903e-07 2.38159e-06 0 0 2.37265e-06 0 -1.61543e-05 1.18996e-05 0 -1.47088e-05 1.15055e-05 0 -1.33649e-05 1.10397e-05 0 -1.21256e-05 1.05232e-05 0 -1.09898e-05 9.97478e-06 0 -9.95386e-06 9.41015e-06 0 -9.01225e-06 8.84237e-06 0 -8.15831e-06 8.28173e-06 0 -7.38487e-06 7.73615e-06 0 -6.68467e-06 7.21144e-06 0 -6.05061e-06 6.7117e-06 0 -5.47598e-06 6.23961e-06 0 -4.95452e-06 5.79675e-06 0 -4.48051e-06 5.38382e-06 0 -4.04874e-06 5.00089e-06 0 -3.65452e-06 4.64755e-06 0 -3.29363e-06 4.32305e-06 0 -2.9623e-06 4.02644e-06 0 -2.65714e-06 3.7566e-06 0 -2.37509e-06 3.5124e-06 0 -2.11344e-06 3.29264e-06 0 -1.86971e-06 3.0962e-06 0 -1.64164e-06 2.92196e-06 0 -1.4272e-06 2.76892e-06 0 -1.22449e-06 2.63613e-06 0 -1.03179e-06 2.52277e-06 0 -8.47447e-07 2.4281e-06 0 -6.69945e-07 2.35149e-06 0 -4.97825e-07 2.29244e-06 0 -3.29691e-07 2.25055e-06 0 -1.6419e-07 2.22553e-06 0 0 2.2172e-06 0 -1.64612e-05 1.04509e-05 0 -1.50947e-05 1.01449e-05 0 -1.38101e-05 9.77305e-06 0 -1.26118e-05 9.35234e-06 0 -1.15011e-05 8.89841e-06 0 -1.04767e-05 8.42485e-06 0 -9.53561e-06 7.94318e-06 0 -8.67344e-06 7.46279e-06 0 -7.88506e-06 6.99117e-06 0 -7.16497e-06 6.53402e-06 0 -6.50755e-06 6.0956e-06 0 -5.90727e-06 5.67888e-06 0 -5.35885e-06 5.28581e-06 0 -4.85729e-06 4.91754e-06 0 -4.39794e-06 4.57456e-06 0 -3.97652e-06 4.25689e-06 0 -3.5891e-06 3.96419e-06 0 -3.23209e-06 3.69586e-06 0 -2.90223e-06 3.45115e-06 0 -2.59651e-06 3.22919e-06 0 -2.31223e-06 3.02908e-06 0 -2.04687e-06 2.84991e-06 0 -1.79816e-06 2.69077e-06 0 -1.56396e-06 2.55083e-06 0 -1.34232e-06 2.42929e-06 0 -1.1314e-06 2.32543e-06 0 -9.29486e-07 2.23865e-06 0 -7.34936e-07 2.16838e-06 0 -5.46194e-07 2.1142e-06 0 -3.61758e-07 2.07575e-06 0 -1.8017e-07 2.05278e-06 0 0 2.04514e-06 0 -1.66939e-05 9.08636e-06 0 -1.53983e-05 8.8502e-06 0 -1.41684e-05 8.55495e-06 0 -1.301e-05 8.21435e-06 0 -1.19256e-05 7.8413e-06 0 -1.09161e-05 7.44732e-06 0 -9.97992e-06 7.04238e-06 0 -9.11471e-06 6.63481e-06 0 -8.31695e-06 6.23145e-06 0 -7.58262e-06 5.83768e-06 0 -6.90738e-06 5.45763e-06 0 -6.28678e-06 5.09436e-06 0 -5.71638e-06 4.74998e-06 0 -5.19191e-06 4.42589e-06 0 -4.70926e-06 4.12286e-06 0 -4.26457e-06 3.84122e-06 0 -3.8542e-06 3.58092e-06 0 -3.47479e-06 3.34165e-06 0 -3.12321e-06 3.12292e-06 0 -2.79654e-06 2.92414e-06 0 -2.49211e-06 2.7446e-06 0 -2.20743e-06 2.58359e-06 0 -1.94017e-06 2.44041e-06 0 -1.68819e-06 2.31435e-06 0 -1.44944e-06 2.20476e-06 0 -1.22204e-06 2.11105e-06 0 -1.00417e-06 2.03269e-06 0 -7.94129e-07 1.96921e-06 0 -5.90263e-07 1.92025e-06 0 -3.90982e-07 1.88548e-06 0 -1.94736e-07 1.86471e-06 0 0 1.85781e-06 0 -1.68691e-05 7.79553e-06 0 -1.56355e-05 7.61469e-06 0 -1.44549e-05 7.38203e-06 0 -1.33336e-05 7.10857e-06 0 -1.22752e-05 6.80487e-06 0 -1.12817e-05 6.4805e-06 0 -1.03532e-05 6.14393e-06 0 -9.48843e-06 5.80239e-06 0 -8.68536e-06 5.46193e-06 0 -7.94117e-06 5.12743e-06 0 -7.25258e-06 4.80274e-06 0 -6.61609e-06 4.49081e-06 0 -6.02803e-06 4.19376e-06 0 -5.48476e-06 3.91309e-06 0 -4.98268e-06 3.64972e-06 0 -4.51834e-06 3.40416e-06 0 -4.08839e-06 3.17658e-06 0 -3.68971e-06 2.96687e-06 0 -3.3193e-06 2.77476e-06 0 -2.97437e-06 2.59982e-06 0 -2.65229e-06 2.44157e-06 0 -2.35059e-06 2.29946e-06 0 -2.06695e-06 2.17292e-06 0 -1.79919e-06 2.0614e-06 0 -1.54524e-06 1.96437e-06 0 -1.30314e-06 1.88134e-06 0 -1.07104e-06 1.81186e-06 0 -8.47154e-07 1.75555e-06 0 -6.29754e-07 1.7121e-06 0 -4.17176e-07 1.68124e-06 0 -2.07793e-07 1.6628e-06 0 0 1.65667e-06 0 -1.69996e-05 6.56807e-06 0 -1.58192e-05 6.43109e-06 0 -1.46818e-05 6.24977e-06 0 -1.35938e-05 6.03288e-06 0 -1.25597e-05 5.78891e-06 0 -1.15822e-05 5.52569e-06 0 -1.06625e-05 5.25025e-06 0 -9.80035e-06 4.96871e-06 0 -8.99483e-06 4.68627e-06 0 -8.24406e-06 4.40721e-06 0 -7.54568e-06 4.13497e-06 0 -6.89695e-06 3.87226e-06 0 -6.2949e-06 3.62108e-06 0 -5.73642e-06 3.38291e-06 0 -5.2184e-06 3.15872e-06 0 -4.73773e-06 2.94909e-06 0 -4.29136e-06 2.75433e-06 0 -3.87637e-06 2.57448e-06 0 -3.48994e-06 2.4094e-06 0 -3.12937e-06 2.25882e-06 0 -2.79211e-06 2.12241e-06 0 -2.47571e-06 1.99975e-06 0 -2.17787e-06 1.89042e-06 0 -1.8964e-06 1.79397e-06 0 -1.62919e-06 1.70999e-06 0 -1.37427e-06 1.63807e-06 0 -1.12972e-06 1.57786e-06 0 -8.93698e-07 1.52905e-06 0 -6.64429e-07 1.49136e-06 0 -4.40181e-07 1.4646e-06 0 -2.19261e-07 1.4486e-06 0 0 1.44328e-06 0 -1.70954e-05 5.394e-06 0 -1.59596e-05 5.29191e-06 0 -1.48589e-05 5.15302e-06 0 -1.37999e-05 4.98417e-06 0 -1.27874e-05 4.79206e-06 0 -1.18248e-05 4.58295e-06 0 -1.09139e-05 4.36252e-06 0 -1.00556e-05 4.13579e-06 0 -9.24944e-06 3.90709e-06 0 -8.4945e-06 3.68003e-06 0 -7.7891e-06 3.45757e-06 0 -7.13112e-06 3.24207e-06 0 -6.51818e-06 3.03533e-06 0 -5.94764e-06 2.83869e-06 0 -5.41678e-06 2.65308e-06 0 -4.92282e-06 2.47912e-06 0 -4.46298e-06 2.31715e-06 0 -4.03451e-06 2.16729e-06 0 -3.63474e-06 2.02951e-06 0 -3.2611e-06 1.90366e-06 0 -2.91108e-06 1.78949e-06 0 -2.58229e-06 1.68673e-06 0 -2.27245e-06 1.59503e-06 0 -1.97935e-06 1.51408e-06 0 -1.70089e-06 1.44355e-06 0 -1.43504e-06 1.38311e-06 0 -1.17988e-06 1.33249e-06 0 -9.33498e-07 1.29143e-06 0 -6.94087e-07 1.25972e-06 0 -4.59861e-07 1.23719e-06 0 -2.29074e-07 1.22373e-06 0 0 1.21925e-06 0 -1.71643e-05 4.26372e-06 0 -1.60647e-05 4.1896e-06 0 -1.49941e-05 4.08619e-06 0 -1.39591e-05 3.95866e-06 0 -1.29649e-05 3.81212e-06 0 -1.20153e-05 3.65141e-06 0 -1.11127e-05 3.48097e-06 0 -1.02584e-05 3.30473e-06 0 -9.45278e-06 3.12615e-06 0 -8.69534e-06 2.94814e-06 0 -7.98502e-06 2.77313e-06 0 -7.32024e-06 2.60304e-06 0 -6.69903e-06 2.43941e-06 0 -6.11918e-06 2.28337e-06 0 -5.57827e-06 2.13576e-06 0 -5.07381e-06 1.99713e-06 0 -4.60322e-06 1.86783e-06 0 -4.16395e-06 1.748e-06 0 -3.75344e-06 1.63768e-06 0 -3.36921e-06 1.53679e-06 0 -3.00883e-06 1.44517e-06 0 -2.66995e-06 1.36262e-06 0 -2.35029e-06 1.28891e-06 0 -2.04767e-06 1.22379e-06 0 -1.75997e-06 1.16701e-06 0 -1.48515e-06 1.11834e-06 0 -1.22125e-06 1.07755e-06 0 -9.66339e-07 1.04446e-06 0 -7.18566e-07 1.0189e-06 0 -4.76108e-07 1.00074e-06 0 -2.37175e-07 9.89881e-07 0 0 9.86268e-07 0 -1.72123e-05 3.16799e-06 0 -1.61406e-05 3.11666e-06 0 -1.50933e-05 3.04346e-06 0 -1.40772e-05 2.9521e-06 0 -1.30977e-05 2.84629e-06 0 -1.21587e-05 2.72954e-06 0 -1.12631e-05 2.60511e-06 0 -1.04125e-05 2.47593e-06 0 -9.6078e-06 2.34456e-06 0 -8.84897e-06 2.2132e-06 0 -8.13535e-06 2.08368e-06 0 -7.46573e-06 1.9575e-06 0 -6.8385e-06 1.83583e-06 0 -6.25174e-06 1.71958e-06 0 -5.70331e-06 1.60942e-06 0 -5.19092e-06 1.50579e-06 0 -4.71216e-06 1.409e-06 0 -4.26463e-06 1.31919e-06 0 -3.84587e-06 1.23642e-06 0 -3.45349e-06 1.16064e-06 0 -3.0851e-06 1.09177e-06 0 -2.73839e-06 1.02968e-06 0 -2.41111e-06 9.74193e-07 0 -2.10108e-06 9.25149e-07 0 -1.80618e-06 8.82368e-07 0 -1.52436e-06 8.4568e-07 0 -1.25363e-06 8.14929e-07 0 -9.92051e-07 7.89972e-07 0 -7.37735e-07 7.7069e-07 0 -4.88831e-07 7.56988e-07 0 -2.4352e-07 7.48794e-07 0 0 7.46068e-07 0 -1.72437e-05 2.09789e-06 0 -1.61917e-05 2.06564e-06 0 -1.51611e-05 2.01887e-06 0 -1.41587e-05 1.95997e-06 0 -1.31897e-05 1.89135e-06 0 -1.22586e-05 1.8153e-06 0 -1.13682e-05 1.73395e-06 0 -1.05206e-05 1.64925e-06 0 -9.71685e-06 1.56289e-06 0 -8.95732e-06 1.47635e-06 0 -8.2416e-06 1.39084e-06 0 -7.56877e-06 1.30739e-06 0 -6.93746e-06 1.2268e-06 0 -6.34596e-06 1.14968e-06 0 -5.79231e-06 1.07651e-06 0 -5.27437e-06 1.0076e-06 0 -4.78989e-06 9.43167e-07 0 -4.33653e-06 8.83332e-07 0 -3.91194e-06 8.2814e-07 0 -3.51377e-06 7.77579e-07 0 -3.13969e-06 7.31599e-07 0 -2.78741e-06 6.90118e-07 0 -2.4547e-06 6.53038e-07 0 -2.13938e-06 6.20247e-07 0 -1.83933e-06 5.91635e-07 0 -1.55249e-06 5.67091e-07 0 -1.27687e-06 5.46514e-07 0 -1.01051e-06 5.29811e-07 0 -7.51496e-07 5.16904e-07 0 -4.97966e-07 5.07731e-07 0 -2.48076e-07 5.02245e-07 0 0 5.0042e-07 0 -1.72614e-05 1.04473e-06 0 -1.62212e-05 1.02919e-06 0 -1.52006e-05 1.0064e-06 0 -1.42063e-05 9.77546e-07 0 -1.32438e-05 9.43803e-07 0 -1.23174e-05 9.06308e-07 0 -1.14303e-05 8.66118e-07 0 -1.05846e-05 8.24192e-07 0 -9.7816e-06 7.8138e-07 0 -9.02177e-06 7.38415e-07 0 -8.3049e-06 6.95917e-07 0 -7.63024e-06 6.54394e-07 0 -6.99656e-06 6.14254e-07 0 -6.40229e-06 5.75814e-07 0 -5.84557e-06 5.3931e-07 0 -5.32436e-06 5.04911e-07 0 -4.83648e-06 4.72726e-07 0 -4.37966e-06 4.42822e-07 0 -3.9516e-06 4.15224e-07 0 -3.54998e-06 3.89932e-07 0 -3.1725e-06 3.66923e-07 0 -2.81688e-06 3.46158e-07 0 -2.48091e-06 3.27591e-07 0 -2.16241e-06 3.11168e-07 0 -1.85927e-06 2.96835e-07 0 -1.56942e-06 2.84538e-07 0 -1.29086e-06 2.74227e-07 0 -1.02161e-06 2.65856e-07 0 -7.59779e-07 2.59387e-07 0 -5.03466e-07 2.54789e-07 0 -2.50819e-07 2.52039e-07 0 0 2.51124e-07 0 -1.72671e-05 -0 0 -1.62308e-05 -0 0 -1.52135e-05 -0 0 -1.4222e-05 -0 0 -1.32617e-05 -0 0 -1.23369e-05 -0 0 -1.14509e-05 -0 0 -1.06058e-05 -0 0 -9.80307e-06 -0 0 -9.04316e-06 -0 0 -8.32593e-06 -0 0 -7.65067e-06 -0 0 -7.01622e-06 -0 0 -6.42103e-06 -0 0 -5.8633e-06 -0 0 -5.34101e-06 -0 0 -4.852e-06 -0 0 -4.39404e-06 -0 0 -3.96482e-06 -0 0 -3.56205e-06 -0 0 -3.18344e-06 -0 0 -2.82671e-06 -0 0 -2.48966e-06 -0 0 -2.1701e-06 -0 0 -1.86593e-06 -0 0 -1.57507e-06 -0 0 -1.29553e-06 -0 0 -1.02532e-06 -0 0 -7.62545e-07 -0 0 -5.05302e-07 -0 0 -2.51734e-07 -0 0 0 -0 0 </DataArray> 
</PointData> 
<Points> 
<DataArray type="Float32" NumberOfComponents="3"> 