<?xml version="1.0"?> 
<VTKFile type="StructuredGrid" version="0.1"> 
<StructuredGrid WholeExtent="0 31 0 31 0 0"> 
<Piece Extent="0 31 0 31 0 0"> 
<PointData>
<DataArray type="Float32" Name="B" format="ascii" NumberOfComponents="3"> 
1.77348e-05 -3.82387e-06 0 -7.77342e-05 1.0052e-06 0 -8.50661e-05 -8.56726e-07 0 -8.86742e-05 -9.10305e-07 0 -0.000100461 -1.12207e-06 0 -0.000109698 -1.17338e-06 0 -0.000121075 -1.17071e-06 0 -0.000131203 -1.11417e-06 0 -0.000141077 -1.00516e-06 0 -0.000149635 -8.78177e-07 0 -0.000157082 -7.3385e-07 0 -0.000163165 -5.92038e-07 0 -0.000167983 -4.51304e-07 0 -0.000171527 -3.1762e-07 0 -0.000173864 -1.87982e-07 0 -0.000175021 -6.24265e-08 0 -0.000175021 6.24265e-08 0 -0.000173864 1.87982e-07 0 -0.000171527 3.1762e-07 0 -0.000167983 4.51304e-07 0 -0.000163165 5.92038e-07 0 -0.000157082 7.3385e-07 0 -0.000149635 8.78177e-07 0 -0.000141077 1.00516e-06 0 -0.000131203 1.11417e-06 0 -0.000121075 1.17071e-06 0 -0.000109698 1.17338e-06 0 -0.000100461 1.12207e-06 0 -8.86742e-05 9.10305e-07 0 -8.50661e-05 8.56726e-07 0 -7.77342e-05 -1.0052e-06 0 1.77348e-05 3.82387e-06 0 -1.61692e-05 2.31564e-05 0 1.49353e-07 -1.73441e-06 0 4.68201e-07 3.60656e-07 0 1.13963e-07 -7.44707e-08 0 2.77684e-07 5.57768e-08 0 1.58882e-07 2.33542e-08 0 1.78801e-07 2.72938e-08 0 1.3371e-07 3.01533e-08 0 1.27169e-07 2.19767e-08 0 1.12141e-07 2.30575e-08 0 1.09918e-07 1.64975e-08 0 1.0867e-07 1.48912e-08 0 1.11032e-07 1.033e-08 0 1.13596e-07 7.79877e-09 0 1.16044e-07 4.29865e-09 0 1.17384e-07 1.59335e-09 0 1.17384e-07 -1.59335e-09 0 1.16044e-07 -4.29865e-09 0 1.13596e-07 -7.79877e-09 0 1.11032e-07 -1.033e-08 0 1.0867e-07 -1.48912e-08 0 1.09918e-07 -1.64975e-08 0 1.12141e-07 -2.30575e-08 0 1.27169e-07 -2.19767e-08 0 1.3371e-07 -3.01533e-08 0 1.78801e-07 -2.72938e-08 0 1.58882e-07 -2.33542e-08 0 2.77684e-07 -5.57768e-08 0 1.13963e-07 7.44707e-08 0 4.68201e-07 -3.60656e-07 0 1.49353e-07 1.73441e-06 0 -1.61692e-05 -2.31564e-05 0 -1.8889e-06 1.35582e-05 0 1.26785e-07 -9.40604e-07 0 3.26215e-07 1.83058e-07 0 1.7166e-07 -6.25266e-08 0 3.1484e-07 5.96531e-09 0 2.95551e-07 -1.36859e-08 0 3.68399e-07 -1.12022e-08 0 3.90733e-07 -8.27546e-09 0 4.35217e-07 -1.00906e-08 0 4.6108e-07 -6.49498e-09 0 4.88662e-07 -6.7601e-09 0 5.07432e-07 -4.46645e-09 0 5.23307e-07 -3.88008e-09 0 5.33971e-07 -2.40282e-09 0 5.412e-07 -1.57662e-09 0 5.44614e-07 -4.31775e-10 0 5.44614e-07 4.31775e-10 0 5.412e-07 1.57662e-09 0 5.33971e-07 2.40282e-09 0 5.23307e-07 3.88008e-09 0 5.07432e-07 4.46645e-09 0 4.88662e-07 6.7601e-09 0 4.6108e-07 6.49498e-09 0 4.35217e-07 1.00906e-08 0 3.90733e-07 8.27546e-09 0 3.68399e-07 1.12022e-08 0 2.95551e-07 1.36859e-08 0 3.1484e-07 -5.96531e-09 0 1.7166e-07 6.25266e-08 0 3.26215e-07 -1.83058e-07 0 1.26785e-07 9.40604e-07 0 -1.8889e-06 -1.35582e-05 0 -1.99757e-06 1.00304e-05 0 -6.23735e-08 -7.54503e-07 0 7.54655e-09 1.54157e-07 0 -6.79597e-08 -3.68986e-08 0 -3.53646e-08 1.91653e-08 0 -6.45976e-08 4.7834e-09 0 -6.18038e-08 6.45203e-09 0 -7.53954e-08 7.99692e-09 0 -7.9576e-08 4.84932e-09 0 -8.70421e-08 5.92175e-09 0 -9.12034e-08 3.68681e-09 0 -9.53908e-08 3.66111e-09 0 -9.81018e-08 2.32272e-09 0 -1.00238e-07 1.86525e-09 0 -1.01515e-07 9.59277e-10 0 -1.02171e-07 3.92773e-10 0 -1.02171e-07 -3.92773e-10 0 -1.01515e-07 -9.59277e-10 0 -1.00238e-07 -1.86525e-09 0 -9.81018e-08 -2.32272e-09 0 -9.53908e-08 -3.66111e-09 0 -9.12034e-08 -3.68681e-09 0 -8.70421e-08 -5.92175e-09 0 -7.9576e-08 -4.84932e-09 0 -7.53954e-08 -7.99692e-09 0 -6.18038e-08 -6.45203e-09 0 -6.45976e-08 -4.7834e-09 0 -3.53646e-08 -1.91653e-08 0 -6.79597e-08 3.68986e-08 0 7.54655e-09 -1.54157e-07 0 -6.23735e-08 7.54503e-07 0 -1.99757e-06 -1.00304e-05 0 -1.04069e-06 7.87923e-06 0 -3.25739e-08 -5.51288e-07 0 2.05491e-08 1.07708e-07 0 -3.22251e-08 -3.53839e-08 0 -2.69038e-09 4.79675e-09 0 -1.97658e-08 -6.59401e-09 0 -1.18135e-08 -5.14781e-09 0 -1.71082e-08 -3.54257e-09 0 -1.55046e-08 -4.75341e-09 0 -1.7456e-08 -2.83908e-09 0 -1.75406e-08 -3.17363e-09 0 -1.84725e-08 -2.0069e-09 0 -1.88424e-08 -1.81781e-09 0 -1.93214e-08 -1.09566e-09 0 -1.95612e-08 -7.40511e-10 0 -1.97135e-08 -1.93195e-10 0 -1.97135e-08 1.93195e-10 0 -1.95612e-08 7.40511e-10 0 -1.93214e-08 1.09566e-09 0 -1.88424e-08 1.81781e-09 0 -1.84725e-08 2.0069e-09 0 -1.75406e-08 3.17363e-09 0 -1.7456e-08 2.83908e-09 0 -1.55046e-08 4.75341e-09 0 -1.71082e-08 3.54257e-09 0 -1.18135e-08 5.14781e-09 0 -1.97658e-08 6.59401e-09 0 -2.69038e-09 -4.79675e-09 0 -3.22251e-08 3.53839e-08 0 2.05491e-08 -1.07708e-07 0 -3.25739e-08 5.51288e-07 0 -1.04069e-06 -7.87923e-06 0 -8.49315e-07 6.46667e-06 0 7.04035e-09 -4.74029e-07 0 4.6771e-08 9.60614e-08 0 1.06198e-08 -2.44724e-08 0 3.52196e-08 1.06592e-08 0 2.62639e-08 1.44542e-09 0 3.54493e-08 2.56826e-09 0 3.50819e-08 3.5881e-09 0 3.94199e-08 1.81073e-09 0 4.09493e-08 2.64721e-09 0 4.34158e-08 1.45777e-09 0 4.48839e-08 1.61404e-09 0 4.63135e-08 9.53077e-10 0 4.72409e-08 8.16983e-10 0 4.79081e-08 3.97335e-10 0 4.8218e-08 1.77378e-10 0 4.8218e-08 -1.77378e-10 0 4.79081e-08 -3.97335e-10 0 4.72409e-08 -8.16983e-10 0 4.63135e-08 -9.53077e-10 0 4.48839e-08 -1.61404e-09 0 4.34158e-08 -1.45777e-09 0 4.09493e-08 -2.64721e-09 0 3.94199e-08 -1.81073e-09 0 3.50819e-08 -3.5881e-09 0 3.54493e-08 -2.56826e-09 0 2.62639e-08 -1.44542e-09 0 3.52196e-08 -1.06592e-08 0 1.06198e-08 2.44724e-08 0 4.6771e-08 -9.60614e-08 0 7.04035e-09 4.74029e-07 0 -8.49315e-07 -6.46667e-06 0 -6.50546e-07 5.28449e-06 0 -3.27774e-08 -3.74587e-07 0 -5.30075e-09 7.38221e-08 0 -3.52196e-08 -2.28424e-08 0 -2.20785e-08 4.55717e-09 0 -3.37416e-08 -3.06174e-09 0 -3.23838e-08 -2.10294e-09 0 -3.78148e-08 -1.09031e-09 0 -3.94402e-08 -2.06207e-09 0 -4.25681e-08 -9.28363e-10 0 -4.43903e-08 -1.33614e-09 0 -4.62927e-08 -7.13076e-10 0 -4.75837e-08 -7.46489e-10 0 -4.86257e-08 -4.04135e-10 0 -4.92673e-08 -3.03332e-10 0 -4.96e-08 -6.50605e-11 0 -4.96e-08 6.50605e-11 0 -4.92673e-08 3.03332e-10 0 -4.86257e-08 4.04135e-10 0 -4.75837e-08 7.46489e-10 0 -4.62927e-08 7.13076e-10 0 -4.43903e-08 1.33614e-09 0 -4.25681e-08 9.28363e-10 0 -3.94402e-08 2.06207e-09 0 -3.78148e-08 1.09031e-09 0 -3.23838e-08 2.10294e-09 0 -3.37416e-08 3.06174e-09 0 -2.20785e-08 -4.55717e-09 0 -3.52196e-08 2.28424e-08 0 -5.30075e-09 -7.38221e-08 0 -3.27774e-08 3.74587e-07 0 -6.50546e-07 -5.28449e-06 0 -5.24166e-07 4.43859e-06 0 8.62269e-09 -3.20847e-07 0 3.44007e-08 6.45274e-08 0 1.15705e-08 -1.73602e-08 0 2.81839e-08 6.34215e-09 0 2.31373e-08 1.73996e-11 0 2.98799e-08 8.04863e-10 0 3.03866e-08 1.53474e-09 0 3.3883e-08 4.39286e-10 0 3.5456e-08 1.10939e-09 0 3.75398e-08 4.29783e-10 0 3.88747e-08 6.46595e-10 0 4.00957e-08 3.11108e-10 0 4.09079e-08 3.18791e-10 0 4.14772e-08 1.3194e-10 0 4.1745e-08 7.42208e-11 0 4.1745e-08 -7.42208e-11 0 4.14772e-08 -1.3194e-10 0 4.09079e-08 -3.18791e-10 0 4.00957e-08 -3.11108e-10 0 3.88747e-08 -6.46595e-10 0 3.75398e-08 -4.29783e-10 0 3.5456e-08 -1.10939e-09 0 3.3883e-08 -4.39286e-10 0 3.03866e-08 -1.53474e-09 0 2.98799e-08 -8.04863e-10 0 2.31373e-08 -1.73996e-11 0 2.81839e-08 -6.34215e-09 0 1.15705e-08 1.73602e-08 0 3.44007e-08 -6.45274e-08 0 8.62269e-09 3.20847e-07 0 -5.24166e-07 -4.43859e-06 0 -4.57434e-07 3.66104e-06 0 -2.12449e-08 -2.61015e-07 0 -2.33107e-09 5.17423e-08 0 -2.28435e-08 -1.53714e-08 0 -1.36862e-08 3.77373e-09 0 -2.15766e-08 -1.48575e-09 0 -2.05217e-08 -8.24568e-10 0 -2.41237e-08 -1.55289e-10 0 -2.51255e-08 -8.96525e-10 0 -2.71629e-08 -1.824e-10 0 -2.83203e-08 -5.47299e-10 0 -2.95447e-08 -1.9149e-10 0 -3.03666e-08 -2.89417e-10 0 -3.10327e-08 -1.20581e-10 0 -3.14408e-08 -1.1647e-10 0 -3.16529e-08 -1.39394e-11 0 -3.16529e-08 1.39394e-11 0 -3.14408e-08 1.1647e-10 0 -3.10327e-08 1.20581e-10 0 -3.03666e-08 2.89417e-10 0 -2.95447e-08 1.9149e-10 0 -2.83203e-08 5.47299e-10 0 -2.71629e-08 1.824e-10 0 -2.51255e-08 8.96525e-10 0 -2.41237e-08 1.55289e-10 0 -2.05217e-08 8.24568e-10 0 -2.15766e-08 1.48575e-09 0 -1.36862e-08 -3.77373e-09 0 -2.28435e-08 1.53714e-08 0 -2.33107e-09 -5.17423e-08 0 -2.12449e-08 2.61015e-07 0 -4.57434e-07 -3.66104e-06 0 -3.8904e-07 3.041e-06 0 2.80115e-09 -2.18439e-07 0 2.13772e-08 4.37326e-08 0 4.4369e-09 -1.21368e-08 0 1.60528e-08 3.96633e-09 0 1.1899e-08 -3.72075e-10 0 1.62849e-08 1.72669e-10 0 1.6164e-08 6.86363e-10 0 1.82472e-08 -1.85537e-11 0 1.89898e-08 4.79461e-10 0 2.01614e-08 6.60092e-11 0 2.08523e-08 2.58563e-10 0 2.15205e-08 7.50827e-11 0 2.19501e-08 1.21117e-10 0 2.22584e-08 3.35273e-11 0 2.24009e-08 3.17412e-11 0 2.24009e-08 -3.17412e-11 0 2.22584e-08 -3.35273e-11 0 2.19501e-08 -1.21117e-10 0 2.15205e-08 -7.50827e-11 0 2.08523e-08 -2.58563e-10 0 2.01614e-08 -6.60092e-11 0 1.89898e-08 -4.79461e-10 0 1.82472e-08 1.85537e-11 0 1.6164e-08 -6.86363e-10 0 1.62849e-08 -1.72669e-10 0 1.1899e-08 3.72075e-10 0 1.60528e-08 -3.96633e-09 0 4.4369e-09 1.21368e-08 0 2.13772e-08 -4.37326e-08 0 2.80115e-09 2.18439e-07 0 -3.8904e-07 -3.041e-06 0 -3.5505e-07 2.46276e-06 0 -1.24318e-08 -1.75933e-07 0 2.64258e-09 3.4981e-08 0 -1.31152e-08 -1.01727e-08 0 -5.30958e-09 2.75136e-09 0 -1.09182e-08 -7.7792e-10 0 -9.43979e-09 -3.33585e-10 0 -1.16613e-08 1.04513e-10 0 -1.18772e-08 -4.16304e-10 0 -1.29796e-08 3.86975e-11 0 -1.34638e-08 -2.3473e-10 0 -1.40799e-08 -2.22107e-11 0 -1.44549e-08 -1.14059e-10 0 -1.478e-08 -2.47198e-11 0 -1.49707e-08 -4.5098e-11 0 -1.50732e-08 1.63666e-12 0 -1.50732e-08 -1.63666e-12 0 -1.49707e-08 4.5098e-11 0 -1.478e-08 2.47198e-11 0 -1.44549e-08 1.14059e-10 0 -1.40799e-08 2.22107e-11 0 -1.34638e-08 2.3473e-10 0 -1.29796e-08 -3.86975e-11 0 -1.18772e-08 4.16304e-10 0 -1.16613e-08 -1.04513e-10 0 -9.43979e-09 3.33585e-10 0 -1.09182e-08 7.7792e-10 0 -5.30958e-09 -2.75136e-09 0 -1.31152e-08 1.01727e-08 0 2.64258e-09 -3.4981e-08 0 -1.24318e-08 1.75933e-07 0 -3.5505e-07 -2.46276e-06 0 -3.19823e-07 1.95898e-06 0 -1.30934e-09 -1.40333e-07 0 1.34125e-08 2.80322e-08 0 -5.12107e-10 -7.89626e-09 0 8.30683e-09 2.43777e-09 0 4.47184e-09 -3.59162e-10 0 7.44414e-09 -6.71156e-12 0 6.83504e-09 3.28539e-10 0 8.02447e-09 -1.11756e-10 0 8.20119e-09 2.21196e-10 0 8.78283e-09 -2.91035e-11 0 9.04643e-09 1.08702e-10 0 9.35452e-09 4.94298e-12 0 9.53254e-09 4.74121e-11 0 9.67048e-09 3.67712e-12 0 9.73085e-09 1.44319e-11 0 9.73085e-09 -1.44319e-11 0 9.67048e-09 -3.67712e-12 0 9.53254e-09 -4.74121e-11 0 9.35452e-09 -4.94298e-12 0 9.04643e-09 -1.08702e-10 0 8.78283e-09 2.91035e-11 0 8.20119e-09 -2.21196e-10 0 8.02447e-09 1.11756e-10 0 6.83504e-09 -3.28539e-10 0 7.44414e-09 6.71156e-12 0 4.47184e-09 3.59162e-10 0 8.30683e-09 -2.43777e-09 0 -5.12107e-10 7.89626e-09 0 1.34125e-08 -2.80322e-08 0 -1.30934e-09 1.40333e-07 0 -3.19823e-07 -1.95898e-06 0 -3.00673e-07 1.48358e-06 0 -7.66326e-09 -1.06036e-07 0 5.40128e-09 2.11113e-08 0 -7.84263e-09 -6.08055e-09 0 -7.28541e-10 1.71439e-09 0 -5.118e-09 -4.08786e-10 0 -3.39554e-09 -1.41059e-10 0 -4.87144e-09 1.19308e-10 0 -4.65525e-09 -2.00071e-10 0 -5.24983e-09 6.69912e-11 0 -5.36613e-09 -1.05094e-10 0 -5.65124e-09 1.55776e-11 0 -5.78244e-09 -4.67265e-11 0 -5.9218e-09 4.64076e-13 0 -5.99396e-09 -1.80883e-11 0 -6.03665e-09 3.98248e-12 0 -6.03665e-09 -3.98248e-12 0 -5.99396e-09 1.80883e-11 0 -5.9218e-09 -4.64076e-13 0 -5.78244e-09 4.67265e-11 0 -5.65124e-09 -1.55776e-11 0 -5.36613e-09 1.05094e-10 0 -5.24983e-09 -6.69912e-11 0 -4.65525e-09 2.00071e-10 0 -4.87144e-09 -1.19308e-10 0 -3.39554e-09 1.41059e-10 0 -5.118e-09 4.08786e-10 0 -7.28541e-10 -1.71439e-09 0 -7.84263e-09 6.08055e-09 0 5.40128e-09 -2.11113e-08 0 -7.66326e-09 1.06036e-07 0 -3.00673e-07 -1.48358e-06 0 -2.83802e-07 1.04288e-06 0 -3.29516e-09 -7.46238e-08 0 9.46634e-09 1.48924e-08 0 -2.90654e-09 -4.22028e-09 0 4.50251e-09 1.27244e-09 0 8.47723e-10 -2.16979e-10 0 3.11818e-09 -2.89857e-11 0 2.27768e-09 1.50362e-10 0 3.02798e-09 -8.10349e-11 0 2.93031e-09 9.8787e-11 0 3.22319e-09 -3.09903e-11 0 3.27851e-09 4.53261e-11 0 3.41053e-09 -6.78189e-12 0 3.46569e-09 1.85962e-11 0 3.52036e-09 -1.9311e-12 0 3.54059e-09 6.37575e-12 0 3.54059e-09 -6.37575e-12 0 3.52036e-09 1.9311e-12 0 3.46569e-09 -1.85962e-11 0 3.41053e-09 6.78189e-12 0 3.27851e-09 -4.53261e-11 0 3.22319e-09 3.09903e-11 0 2.93031e-09 -9.8787e-11 0 3.02798e-09 8.10349e-11 0 2.27768e-09 -1.50362e-10 0 3.11818e-09 2.89857e-11 0 8.47723e-10 2.16979e-10 0 4.50251e-09 -1.27244e-09 0 -2.90654e-09 4.22028e-09 0 9.46634e-09 -1.48924e-08 0 -3.29516e-09 7.46238e-08 0 -2.83802e-07 -1.04288e-06 0 -2.74988e-07 6.17526e-07 0 -5.43084e-09 -4.41363e-08 0 6.67349e-09 8.79019e-09 0 -5.37607e-09 -2.52542e-09 0 1.40051e-09 7.1972e-10 0 -2.41469e-09 -1.63644e-10 0 -5.84072e-10 -5.21581e-11 0 -1.7118e-09 5.57646e-11 0 -1.29656e-09 -7.77292e-11 0 -1.65482e-09 3.2621e-11 0 -1.60062e-09 -3.97792e-11 0 -1.73176e-09 9.6274e-12 0 -1.74971e-09 -1.70521e-11 0 -1.80264e-09 1.86068e-12 0 -1.81966e-09 -6.53909e-12 0 -1.83455e-09 1.98198e-12 0 -1.83455e-09 -1.98198e-12 0 -1.81966e-09 6.53909e-12 0 -1.80264e-09 -1.86068e-12 0 -1.74971e-09 1.70521e-11 0 -1.73176e-09 -9.6274e-12 0 -1.60062e-09 3.97792e-11 0 -1.65482e-09 -3.2621e-11 0 -1.29656e-09 7.77292e-11 0 -1.7118e-09 -5.57646e-11 0 -5.84072e-10 5.21581e-11 0 -2.41469e-09 1.63644e-10 0 1.40051e-09 -7.1972e-10 0 -5.37607e-09 2.52542e-09 0 6.67349e-09 -8.79019e-09 0 -5.43084e-09 4.41363e-08 0 -2.74988e-07 -6.17526e-07 0 -2.69954e-07 2.0514e-07 0 -4.31984e-09 -1.46812e-08 0 7.66863e-09 2.93261e-09 0 -4.12367e-09 -8.25657e-10 0 2.70387e-09 2.5553e-10 0 -9.15335e-10 -3.71499e-11 0 1.04576e-09 -1.6878e-13 0 8.03114e-11 3.47918e-11 0 6.27371e-10 -1.12292e-11 0 3.9432e-10 2.35019e-11 0 5.5047e-10 -2.6993e-12 0 5.04782e-10 1.16328e-11 0 5.5264e-10 7.34266e-13 0 5.48482e-10 5.10547e-12 0 5.63204e-10 4.7714e-13 0 5.64088e-10 1.53721e-12 0 5.64088e-10 -1.53721e-12 0 5.63204e-10 -4.7714e-13 0 5.48482e-10 -5.10547e-12 0 5.5264e-10 -7.34266e-13 0 5.04782e-10 -1.16328e-11 0 5.5047e-10 2.6993e-12 0 3.9432e-10 -2.35019e-11 0 6.27371e-10 1.12292e-11 0 8.03114e-11 -3.47918e-11 0 1.04576e-09 1.6878e-13 0 -9.15335e-10 3.71499e-11 0 2.70387e-09 -2.5553e-10 0 -4.12367e-09 8.25657e-10 0 7.66863e-09 -2.93261e-09 0 -4.31984e-09 1.46812e-08 0 -2.69954e-07 -2.0514e-07 0 -2.69954e-07 -2.0514e-07 0 -4.31984e-09 1.46812e-08 0 7.66863e-09 -2.93261e-09 0 -4.12367e-09 8.25657e-10 0 2.70387e-09 -2.5553e-10 0 -9.15335e-10 3.71499e-11 0 1.04576e-09 1.6878e-13 0 8.03114e-11 -3.47918e-11 0 6.27371e-10 1.12292e-11 0 3.9432e-10 -2.35019e-11 0 5.5047e-10 2.6993e-12 0 5.04782e-10 -1.16328e-11 0 5.5264e-10 -7.34266e-13 0 5.48482e-10 -5.10547e-12 0 5.63204e-10 -4.7714e-13 0 5.64088e-10 -1.53721e-12 0 5.64088e-10 1.53721e-12 0 5.63204e-10 4.7714e-13 0 5.48482e-10 5.10547e-12 0 5.5264e-10 7.34266e-13 0 5.04782e-10 1.16328e-11 0 5.5047e-10 -2.6993e-12 0 3.9432e-10 2.35019e-11 0 6.27371e-10 -1.12292e-11 0 8.03114e-11 3.47918e-11 0 1.04576e-09 -1.6878e-13 0 -9.15335e-10 -3.71499e-11 0 2.70387e-09 2.5553e-10 0 -4.12367e-09 -8.25657e-10 0 7.66863e-09 2.93261e-09 0 -4.31984e-09 -1.46812e-08 0 -2.69954e-07 2.0514e-07 0 -2.74988e-07 -6.17526e-07 0 -5.43084e-09 4.41363e-08 0 6.67349e-09 -8.79019e-09 0 -5.37607e-09 2.52542e-09 0 1.40051e-09 -7.1972e-10 0 -2.41469e-09 1.63644e-10 0 -5.84072e-10 5.21581e-11 0 -1.7118e-09 -5.57646e-11 0 -1.29656e-09 7.77292e-11 0 -1.65482e-09 -3.2621e-11 0 -1.60062e-09 3.97792e-11 0 -1.73176e-09 -9.6274e-12 0 -1.74971e-09 1.70521e-11 0 -1.80264e-09 -1.86068e-12 0 -1.81966e-09 6.53909e-12 0 -1.83455e-09 -1.98198e-12 0 -1.83455e-09 1.98198e-12 0 -1.81966e-09 -6.53909e-12 0 -1.80264e-09 1.86068e-12 0 -1.74971e-09 -1.70521e-11 0 -1.73176e-09 9.6274e-12 0 -1.60062e-09 -3.97792e-11 0 -1.65482e-09 3.2621e-11 0 -1.29656e-09 -7.77292e-11 0 -1.7118e-09 5.57646e-11 0 -5.84072e-10 -5.21581e-11 0 -2.41469e-09 -1.63644e-10 0 1.40051e-09 7.1972e-10 0 -5.37607e-09 -2.52542e-09 0 6.67349e-09 8.79019e-09 0 -5.43084e-09 -4.41363e-08 0 -2.74988e-07 6.17526e-07 0 -2.83802e-07 -1.04288e-06 0 -3.29516e-09 7.46238e-08 0 9.46634e-09 -1.48924e-08 0 -2.90654e-09 4.22028e-09 0 4.50251e-09 -1.27244e-09 0 8.47723e-10 2.16979e-10 0 3.11818e-09 2.89857e-11 0 2.27768e-09 -1.50362e-10 0 3.02798e-09 8.10349e-11 0 2.93031e-09 -9.8787e-11 0 3.22319e-09 3.09903e-11 0 3.27851e-09 -4.53261e-11 0 3.41053e-09 6.78189e-12 0 3.46569e-09 -1.85962e-11 0 3.52036e-09 1.9311e-12 0 3.54059e-09 -6.37575e-12 0 3.54059e-09 6.37575e-12 0 3.52036e-09 -1.9311e-12 0 3.46569e-09 1.85962e-11 0 3.41053e-09 -6.78189e-12 0 3.27851e-09 4.53261e-11 0 3.22319e-09 -3.09903e-11 0 2.93031e-09 9.8787e-11 0 3.02798e-09 -8.10349e-11 0 2.27768e-09 1.50362e-10 0 3.11818e-09 -2.89857e-11 0 8.47723e-10 -2.16979e-10 0 4.50251e-09 1.27244e-09 0 -2.90654e-09 -4.22028e-09 0 9.46634e-09 1.48924e-08 0 -3.29516e-09 -7.46238e-08 0 -2.83802e-07 1.04288e-06 0 -3.00673e-07 -1.48358e-06 0 -7.66326e-09 1.06036e-07 0 5.40128e-09 -2.11113e-08 0 -7.84263e-09 6.08055e-09 0 -7.28541e-10 -1.71439e-09 0 -5.118e-09 4.08786e-10 0 -3.39554e-09 1.41059e-10 0 -4.87144e-09 -1.19308e-10 0 -4.65525e-09 2.00071e-10 0 -5.24983e-09 -6.69912e-11 0 -5.36613e-09 1.05094e-10 0 -5.65124e-09 -1.55776e-11 0 -5.78244e-09 4.67265e-11 0 -5.9218e-09 -4.64076e-13 0 -5.99396e-09 1.80883e-11 0 -6.03665e-09 -3.98248e-12 0 -6.03665e-09 3.98248e-12 0 -5.99396e-09 -1.80883e-11 0 -5.9218e-09 4.64076e-13 0 -5.78244e-09 -4.67265e-11 0 -5.65124e-09 1.55776e-11 0 -5.36613e-09 -1.05094e-10 0 -5.24983e-09 6.69912e-11 0 -4.65525e-09 -2.00071e-10 0 -4.87144e-09 1.19308e-10 0 -3.39554e-09 -1.41059e-10 0 -5.118e-09 -4.08786e-10 0 -7.28541e-10 1.71439e-09 0 -7.84263e-09 -6.08055e-09 0 5.40128e-09 2.11113e-08 0 -7.66326e-09 -1.06036e-07 0 -3.00673e-07 1.48358e-06 0 -3.19823e-07 -1.95898e-06 0 -1.30934e-09 1.40333e-07 0 1.34125e-08 -2.80322e-08 0 -5.12107e-10 7.89626e-09 0 8.30683e-09 -2.43777e-09 0 4.47184e-09 3.59162e-10 0 7.44414e-09 6.71156e-12 0 6.83504e-09 -3.28539e-10 0 8.02447e-09 1.11756e-10 0 8.20119e-09 -2.21196e-10 0 8.78283e-09 2.91035e-11 0 9.04643e-09 -1.08702e-10 0 9.35452e-09 -4.94298e-12 0 9.53254e-09 -4.74121e-11 0 9.67048e-09 -3.67712e-12 0 9.73085e-09 -1.44319e-11 0 9.73085e-09 1.44319e-11 0 9.67048e-09 3.67712e-12 0 9.53254e-09 4.74121e-11 0 9.35452e-09 4.94298e-12 0 9.04643e-09 1.08702e-10 0 8.78283e-09 -2.91035e-11 0 8.20119e-09 2.21196e-10 0 8.02447e-09 -1.11756e-10 0 6.83504e-09 3.28539e-10 0 7.44414e-09 -6.71156e-12 0 4.47184e-09 -3.59162e-10 0 8.30683e-09 2.43777e-09 0 -5.12107e-10 -7.89626e-09 0 1.34125e-08 2.80322e-08 0 -1.30934e-09 -1.40333e-07 0 -3.19823e-07 1.95898e-06 0 -3.5505e-07 -2.46276e-06 0 -1.24318e-08 1.75933e-07 0 2.64258e-09 -3.4981e-08 0 -1.31152e-08 1.01727e-08 0 -5.30958e-09 -2.75136e-09 0 -1.09182e-08 7.7792e-10 0 -9.43979e-09 3.33585e-10 0 -1.16613e-08 -1.04513e-10 0 -1.18772e-08 4.16304e-10 0 -1.29796e-08 -3.86975e-11 0 -1.34638e-08 2.3473e-10 0 -1.40799e-08 2.22107e-11 0 -1.44549e-08 1.14059e-10 0 -1.478e-08 2.47198e-11 0 -1.49707e-08 4.5098e-11 0 -1.50732e-08 -1.63666e-12 0 -1.50732e-08 1.63666e-12 0 -1.49707e-08 -4.5098e-11 0 -1.478e-08 -2.47198e-11 0 -1.44549e-08 -1.14059e-10 0 -1.40799e-08 -2.22107e-11 0 -1.34638e-08 -2.3473e-10 0 -1.29796e-08 3.86975e-11 0 -1.18772e-08 -4.16304e-10 0 -1.16613e-08 1.04513e-10 0 -9.43979e-09 -3.33585e-10 0 -1.09182e-08 -7.7792e-10 0 -5.30958e-09 2.75136e-09 0 -1.31152e-08 -1.01727e-08 0 2.64258e-09 3.4981e-08 0 -1.24318e-08 -1.75933e-07 0 -3.5505e-07 2.46276e-06 0 -3.8904e-07 -3.041e-06 0 2.80115e-09 2.18439e-07 0 2.13772e-08 -4.37326e-08 0 4.4369e-09 1.21368e-08 0 1.60528e-08 -3.96633e-09 0 1.1899e-08 3.72075e-10 0 1.62849e-08 -1.72669e-10 0 1.6164e-08 -6.86363e-10 0 1.82472e-08 1.85537e-11 0 1.89898e-08 -4.79461e-10 0 2.01614e-08 -6.60092e-11 0 2.08523e-08 -2.58563e-10 0 2.15205e-08 -7.50827e-11 0 2.19501e-08 -1.21117e-10 0 2.22584e-08 -3.35273e-11 0 2.24009e-08 -3.17412e-11 0 2.24009e-08 3.17412e-11 0 2.22584e-08 3.35273e-11 0 2.19501e-08 1.21117e-10 0 2.15205e-08 7.50827e-11 0 2.08523e-08 2.58563e-10 0 2.01614e-08 6.60092e-11 0 1.89898e-08 4.79461e-10 0 1.82472e-08 -1.85537e-11 0 1.6164e-08 6.86363e-10 0 1.62849e-08 1.72669e-10 0 1.1899e-08 -3.72075e-10 0 1.60528e-08 3.96633e-09 0 4.4369e-09 -1.21368e-08 0 2.13772e-08 4.37326e-08 0 2.80115e-09 -2.18439e-07 0 -3.8904e-07 3.041e-06 0 -4.57434e-07 -3.66104e-06 0 -2.12449e-08 2.61015e-07 0 -2.33107e-09 -5.17423e-08 0 -2.28435e-08 1.53714e-08 0 -1.36862e-08 -3.77373e-09 0 -2.15766e-08 1.48575e-09 0 -2.05217e-08 8.24568e-10 0 -2.41237e-08 1.55289e-10 0 -2.51255e-08 8.96525e-10 0 -2.71629e-08 1.824e-10 0 -2.83203e-08 5.47299e-10 0 -2.95447e-08 1.9149e-10 0 -3.03666e-08 2.89417e-10 0 -3.10327e-08 1.20581e-10 0 -3.14408e-08 1.1647e-10 0 -3.16529e-08 1.39394e-11 0 -3.16529e-08 -1.39394e-11 0 -3.14408e-08 -1.1647e-10 0 -3.10327e-08 -1.20581e-10 0 -3.03666e-08 -2.89417e-10 0 -2.95447e-08 -1.9149e-10 0 -2.83203e-08 -5.47299e-10 0 -2.71629e-08 -1.824e-10 0 -2.51255e-08 -8.96525e-10 0 -2.41237e-08 -1.55289e-10 0 -2.05217e-08 -8.24568e-10 0 -2.15766e-08 -1.48575e-09 0 -1.36862e-08 3.77373e-09 0 -2.28435e-08 -1.53714e-08 0 -2.33107e-09 5.17423e-08 0 -2.12449e-08 -2.61015e-07 0 -4.57434e-07 3.66104e-06 0 -5.24166e-07 -4.43859e-06 0 8.62269e-09 3.20847e-07 0 3.44007e-08 -6.45274e-08 0 1.15705e-08 1.73602e-08 0 2.81839e-08 -6.34215e-09 0 2.31373e-08 -1.73996e-11 0 2.98799e-08 -8.04863e-10 0 3.03866e-08 -1.53474e-09 0 3.3883e-08 -4.39286e-10 0 3.5456e-08 -1.10939e-09 0 3.75398e-08 -4.29783e-10 0 3.88747e-08 -6.46595e-10 0 4.00957e-08 -3.11108e-10 0 4.09079e-08 -3.18791e-10 0 4.14772e-08 -1.3194e-10 0 4.1745e-08 -7.42208e-11 0 4.1745e-08 7.42208e-11 0 4.14772e-08 1.3194e-10 0 4.09079e-08 3.18791e-10 0 4.00957e-08 3.11108e-10 0 3.88747e-08 6.46595e-10 0 3.75398e-08 4.29783e-10 0 3.5456e-08 1.10939e-09 0 3.3883e-08 4.39286e-10 0 3.03866e-08 1.53474e-09 0 2.98799e-08 8.04863e-10 0 2.31373e-08 1.73996e-11 0 2.81839e-08 6.34215e-09 0 1.15705e-08 -1.73602e-08 0 3.44007e-08 6.45274e-08 0 8.62269e-09 -3.20847e-07 0 -5.24166e-07 4.43859e-06 0 -6.50546e-07 -5.28449e-06 0 -3.27774e-08 3.74587e-07 0 -5.30075e-09 -7.38221e-08 0 -3.52196e-08 2.28424e-08 0 -2.20785e-08 -4.55717e-09 0 -3.37416e-08 3.06174e-09 0 -3.23838e-08 2.10294e-09 0 -3.78148e-08 1.09031e-09 0 -3.94402e-08 2.06207e-09 0 -4.25681e-08 9.28363e-10 0 -4.43903e-08 1.33614e-09 0 -4.62927e-08 7.13076e-10 0 -4.75837e-08 7.46489e-10 0 -4.86257e-08 4.04135e-10 0 -4.92673e-08 3.03332e-10 0 -4.96e-08 6.50605e-11 0 -4.96e-08 -6.50605e-11 0 -4.92673e-08 -3.03332e-10 0 -4.86257e-08 -4.04135e-10 0 -4.75837e-08 -7.46489e-10 0 -4.62927e-08 -7.13076e-10 0 -4.43903e-08 -1.33614e-09 0 -4.25681e-08 -9.28363e-10 0 -3.94402e-08 -2.06207e-09 0 -3.78148e-08 -1.09031e-09 0 -3.23838e-08 -2.10294e-09 0 -3.37416e-08 -3.06174e-09 0 -2.20785e-08 4.55717e-09 0 -3.52196e-08 -2.28424e-08 0 -5.30075e-09 7.38221e-08 0 -3.27774e-08 -3.74587e-07 0 -6.50546e-07 5.28449e-06 0 -8.49315e-07 -6.46667e-06 0 7.04035e-09 4.74029e-07 0 4.6771e-08 -9.60614e-08 0 1.06198e-08 2.44724e-08 0 3.52196e-08 -1.06592e-08 0 2.62639e-08 -1.44542e-09 0 3.54493e-08 -2.56826e-09 0 3.50819e-08 -3.5881e-09 0 3.94199e-08 -1.81073e-09 0 4.09493e-08 -2.64721e-09 0 4.34158e-08 -1.45777e-09 0 4.48839e-08 -1.61404e-09 0 4.63135e-08 -9.53077e-10 0 4.72409e-08 -8.16983e-10 0 4.79081e-08 -3.97335e-10 0 4.8218e-08 -1.77378e-10 0 4.8218e-08 1.77378e-10 0 4.79081e-08 3.97335e-10 0 4.72409e-08 8.16983e-10 0 4.63135e-08 9.53077e-10 0 4.48839e-08 1.61404e-09 0 4.34158e-08 1.45777e-09 0 4.09493e-08 2.64721e-09 0 3.94199e-08 1.81073e-09 0 3.50819e-08 3.5881e-09 0 3.54493e-08 2.56826e-09 0 2.62639e-08 1.44542e-09 0 3.52196e-08 1.06592e-08 0 1.06198e-08 -2.44724e-08 0 4.6771e-08 9.60614e-08 0 7.04035e-09 -4.74029e-07 0 -8.49315e-07 6.46667e-06 0 -1.04069e-06 -7.87923e-06 0 -3.25739e-08 5.51288e-07 0 2.05491e-08 -1.07708e-07 0 -3.22251e-08 3.53839e-08 0 -2.69038e-09 -4.79675e-09 0 -1.97658e-08 6.59401e-09 0 -1.18135e-08 5.14781e-09 0 -1.71082e-08 3.54257e-09 0 -1.55046e-08 4.75341e-09 0 -1.7456e-08 2.83908e-09 0 -1.75406e-08 3.17363e-09 0 -1.84725e-08 2.0069e-09 0 -1.88424e-08 1.81781e-09 0 -1.93214e-08 1.09566e-09 0 -1.95612e-08 7.40511e-10 0 -1.97135e-08 1.93195e-10 0 -1.97135e-08 -1.93195e-10 0 -1.95612e-08 -7.40511e-10 0 -1.93214e-08 -1.09566e-09 0 -1.88424e-08 -1.81781e-09 0 -1.84725e-08 -2.0069e-09 0 -1.75406e-08 -3.17363e-09 0 -1.7456e-08 -2.83908e-09 0 -1.55046e-08 -4.75341e-09 0 -1.71082e-08 -3.54257e-09 0 -1.18135e-08 -5.14781e-09 0 -1.97658e-08 -6.59401e-09 0 -2.69038e-09 4.79675e-09 0 -3.22251e-08 -3.53839e-08 0 2.05491e-08 1.07708e-07 0 -3.25739e-08 -5.51288e-07 0 -1.04069e-06 7.87923e-06 0 -1.99757e-06 -1.00304e-05 0 -6.23735e-08 7.54503e-07 0 7.54655e-09 -1.54157e-07 0 -6.79597e-08 3.68986e-08 0 -3.53646e-08 -1.91653e-08 0 -6.45976e-08 -4.7834e-09 0 -6.18038e-08 -6.45203e-09 0 -7.53954e-08 -7.99692e-09 0 -7.9576e-08 -4.84932e-09 0 -8.70421e-08 -5.92175e-09 0 -9.12034e-08 -3.68681e-09 0 -9.53908e-08 -3.66111e-09 0 -9.81018e-08 -2.32272e-09 0 -1.00238e-07 -1.86525e-09 0 -1.01515e-07 -9.59277e-10 0 -1.02171e-07 -3.92773e-10 0 -1.02171e-07 3.92773e-10 0 -1.01515e-07 9.59277e-10 0 -1.00238e-07 1.86525e-09 0 -9.81018e-08 2.32272e-09 0 -9.53908e-08 3.66111e-09 0 -9.12034e-08 3.68681e-09 0 -8.70421e-08 5.92175e-09 0 -7.9576e-08 4.84932e-09 0 -7.53954e-08 7.99692e-09 0 -6.18038e-08 6.45203e-09 0 -6.45976e-08 4.7834e-09 0 -3.53646e-08 1.91653e-08 0 -6.79597e-08 -3.68986e-08 0 7.54655e-09 1.54157e-07 0 -6.23735e-08 -7.54503e-07 0 -1.99757e-06 1.00304e-05 0 -1.8889e-06 -1.35582e-05 0 1.26785e-07 9.40604e-07 0 3.26215e-07 -1.83058e-07 0 1.7166e-07 6.25266e-08 0 3.1484e-07 -5.96531e-09 0 2.95551e-07 1.36859e-08 0 3.68399e-07 1.12022e-08 0 3.90733e-07 8.27546e-09 0 4.35217e-07 1.00906e-08 0 4.6108e-07 6.49498e-09 0 4.88662e-07 6.7601e-09 0 5.07432e-07 4.46645e-09 0 5.23307e-07 3.88008e-09 0 5.33971e-07 2.40282e-09 0 5.412e-07 1.57662e-09 0 5.44614e-07 4.31775e-10 0 5.44614e-07 -4.31775e-10 0 5.412e-07 -1.57662e-09 0 5.33971e-07 -2.40282e-09 0 5.23307e-07 -3.88008e-09 0 5.07432e-07 -4.46645e-09 0 4.88662e-07 -6.7601e-09 0 4.6108e-07 -6.49498e-09 0 4.35217e-07 -1.00906e-08 0 3.90733e-07 -8.27546e-09 0 3.68399e-07 -1.12022e-08 0 2.95551e-07 -1.36859e-08 0 3.1484e-07 5.96531e-09 0 1.7166e-07 -6.25266e-08 0 3.26215e-07 1.83058e-07 0 1.26785e-07 -9.40604e-07 0 -1.8889e-06 1.35582e-05 0 -1.61692e-05 -2.31564e-05 0 1.49353e-07 1.73441e-06 0 4.68201e-07 -3.60656e-07 0 1.13963e-07 7.44707e-08 0 2.77684e-07 -5.57768e-08 0 1.58882e-07 -2.33542e-08 0 1.78801e-07 -2.72938e-08 0 1.3371e-07 -3.01533e-08 0 1.27169e-07 -2.19767e-08 0 1.12141e-07 -2.30575e-08 0 1.09918e-07 -1.64975e-08 0 1.0867e-07 -1.48912e-08 0 1.11032e-07 -1.033e-08 0 1.13596e-07 -7.79877e-09 0 1.16044e-07 -4.29865e-09 0 1.17384e-07 -1.59335e-09 0 1.17384e-07 1.59335e-09 0 1.16044e-07 4.29865e-09 0 1.13596e-07 7.79877e-09 0 1.11032e-07 1.033e-08 0 1.0867e-07 1.48912e-08 0 1.09918e-07 1.64975e-08 0 1.12141e-07 2.30575e-08 0 1.27169e-07 2.19767e-08 0 1.3371e-07 3.01533e-08 0 1.78801e-07 2.72938e-08 0 1.58882e-07 2.33542e-08 0 2.77684e-07 5.57768e-08 0 1.13963e-07 -7.44707e-08 0 4.68201e-07 3.60656e-07 0 1.49353e-07 -1.73441e-06 0 -1.61692e-05 2.31564e-05 0 1.77348e-05 3.82387e-06 0 -7.77342e-05 -1.0052e-06 0 -8.50661e-05 8.56726e-07 0 -8.86742e-05 9.10305e-07 0 -0.000100461 1.12207e-06 0 -0.000109698 1.17338e-06 0 -0.000121075 1.17071e-06 0 -0.000131203 1.11417e-06 0 -0.000141077 1.00516e-06 0 -0.000149635 8.78177e-07 0 -0.000157082 7.3385e-07 0 -0.000163165 5.92038e-07 0 -0.000167983 4.51304e-07 0 -0.000171527 3.1762e-07 0 -0.000173864 1.87982e-07 0 -0.000175021 6.24265e-08 0 -0.000175021 -6.24265e-08 0 -0.000173864 -1.87982e-07 0 -0.000171527 -3.1762e-07 0 -0.000167983 -4.51304e-07 0 -0.000163165 -5.92038e-07 0 -0.000157082 -7.3385e-07 0 -0.000149635 -8.78177e-07 0 -0.000141077 -1.00516e-06 0 -0.000131203 -1.11417e-06 0 -0.000121075 -1.17071e-06 0 -0.000109698 -1.17338e-06 0 -0.000100461 -1.12207e-06 0 -8.86742e-05 -9.10305e-07 0 -8.50661e-05 -8.56726e-07 0 -7.77342e-05 1.0052e-06 0 1.77348e-05 -3.82387e-06 0 </DataArray> 
</PointData> 
<Points> 
<DataArray type="Float32" NumberOfComponents="3"> 