<?xml version="1.0"?> 
<VTKFile type="StructuredGrid" version="0.1"> 
<StructuredGrid WholeExtent="0 127 0 127 0 0"> 
<Piece Extent="0 127 0 127 0 0"> 
<PointData>
<DataArray type="Float32" Name="B" format="ascii" NumberOfComponents="3"> 
0 1.81987e-06 0 8.0452e-08 1.82027e-06 0 1.6094e-07 1.82144e-06 0 2.41499e-07 1.82339e-06 0 3.22165e-07 1.82613e-06 0 4.02974e-07 1.82964e-06 0 4.83963e-07 1.83394e-06 0 5.65166e-07 1.83902e-06 0 6.4662e-07 1.84489e-06 0 7.28361e-07 1.85154e-06 0 8.10425e-07 1.85898e-06 0 8.92848e-07 1.86721e-06 0 9.75668e-07 1.87623e-06 0 1.05892e-06 1.88605e-06 0 1.14264e-06 1.89665e-06 0 1.22687e-06 1.90806e-06 0 1.31165e-06 1.92027e-06 0 1.397e-06 1.93327e-06 0 1.48297e-06 1.94709e-06 0 1.56961e-06 1.96171e-06 0 1.65693e-06 1.97714e-06 0 1.74499e-06 1.99338e-06 0 1.83383e-06 2.01044e-06 0 1.92347e-06 2.02832e-06 0 2.01397e-06 2.04702e-06 0 2.10536e-06 2.06655e-06 0 2.19768e-06 2.0869e-06 0 2.29098e-06 2.10808e-06 0 2.38529e-06 2.13009e-06 0 2.48065e-06 2.15294e-06 0 2.57711e-06 2.17662e-06 0 2.6747e-06 2.20114e-06 0 2.77348e-06 2.2265e-06 0 2.87349e-06 2.2527e-06 0 2.97476e-06 2.27974e-06 0 3.07735e-06 2.30763e-06 0 3.1813e-06 2.33636e-06 0 3.28665e-06 2.36593e-06 0 3.39345e-06 2.39634e-06 0 3.50174e-06 2.42759e-06 0 3.61158e-06 2.45967e-06 0 3.72302e-06 2.49259e-06 0 3.83609e-06 2.52633e-06 0 3.95085e-06 2.5609e-06 0 4.06736e-06 2.59629e-06 0 4.18565e-06 2.63248e-06 0 4.30579e-06 2.66947e-06 0 4.42782e-06 2.70725e-06 0 4.5518e-06 2.74581e-06 0 4.67778e-06 2.78513e-06 0 4.80583e-06 2.82519e-06 0 4.93598e-06 2.86598e-06 0 5.06831e-06 2.90747e-06 0 5.20287e-06 2.94965e-06 0 5.33972e-06 2.99248e-06 0 5.47892e-06 3.03593e-06 0 5.62054e-06 3.07998e-06 0 5.76462e-06 3.12458e-06 0 5.91125e-06 3.16969e-06 0 6.06049e-06 3.21527e-06 0 6.2124e-06 3.26128e-06 0 6.36706e-06 3.30764e-06 0 6.52453e-06 3.3543e-06 0 6.68488e-06 3.4012e-06 0 6.8482e-06 3.44826e-06 0 7.01457e-06 3.4954e-06 0 7.18405e-06 3.54252e-06 0 7.35673e-06 3.58954e-06 0 7.5327e-06 3.63633e-06 0 7.71204e-06 3.68279e-06 0 7.89485e-06 3.72879e-06 0 8.08121e-06 3.77418e-06 0 8.27123e-06 3.81881e-06 0 8.46501e-06 3.86251e-06 0 8.66266e-06 3.90509e-06 0 8.86427e-06 3.94635e-06 0 9.06998e-06 3.98608e-06 0 9.27991e-06 4.02403e-06 0 9.49417e-06 4.05994e-06 0 9.71291e-06 4.09353e-06 0 9.93627e-06 4.12447e-06 0 1.01644e-05 4.15243e-06 0 1.03974e-05 4.17704e-06 0 1.06356e-05 4.19789e-06 0 1.0879e-05 4.21453e-06 0 1.1128e-05 4.22648e-06 0 1.13826e-05 4.23322e-06 0 1.16431e-05 4.23415e-06 0 1.19097e-05 4.22865e-06 0 1.21828e-05 4.21603e-06 0 1.24626e-05 4.19553e-06 0 1.27494e-05 4.16632e-06 0 1.30435e-05 4.12749e-06 0 1.33453e-05 4.07805e-06 0 1.36552e-05 4.01689e-06 0 1.39736e-05 3.94283e-06 0 1.4301e-05 3.85453e-06 0 1.46379e-05 3.75053e-06 0 1.4985e-05 3.62923e-06 0 1.53428e-05 3.48884e-06 0 1.57121e-05 3.32738e-06 0 1.60936e-05 3.14266e-06 0 1.64882e-05 2.93222e-06 0 1.6897e-05 2.69333e-06 0 1.7321e-05 2.42291e-06 0 1.77616e-05 2.11749e-06 0 1.82201e-05 1.77317e-06 0 1.86981e-05 1.38546e-06 0 1.91977e-05 9.49273e-07 0 1.9721e-05 4.58712e-07 0 2.02705e-05 -9.30573e-08 0 2.08494e-05 -7.1403e-07 0 2.14613e-05 -1.41369e-06 0 2.21107e-05 -2.20331e-06 0 2.2803e-05 -3.0967e-06 0 2.35458e-05 -4.11046e-06 0 2.43468e-05 -5.26632e-06 0 2.52212e-05 -6.58953e-06 0 2.61774e-05 -8.11921e-06 0 2.72597e-05 -9.89265e-06 0 2.84501e-05 -1.19997e-05 0 2.99385e-05 -1.44756e-05 0 3.14737e-05 -1.76124e-05 0 3.41092e-05 -2.12879e-05 0 3.59607e-05 -2.68077e-05 0 4.38321e-05 -3.29022e-05 0 4.53139e-05 -4.71092e-05 0 0.000150663 -5.53405e-05 0 0 1.79301e-06 0 8.071e-08 1.7934e-06 0 1.61456e-07 1.79456e-06 0 2.42273e-07 1.79648e-06 0 3.23198e-07 1.79917e-06 0 4.04266e-07 1.80264e-06 0 4.85513e-07 1.80687e-06 0 5.66976e-07 1.81187e-06 0 6.48689e-07 1.81765e-06 0 7.3069e-07 1.8242e-06 0 8.13015e-07 1.83153e-06 0 8.957e-07 1.83963e-06 0 9.78782e-07 1.84851e-06 0 1.0623e-06 1.85817e-06 0 1.14628e-06 1.86862e-06 0 1.23078e-06 1.87985e-06 0 1.31581e-06 1.89187e-06 0 1.40144e-06 1.90468e-06 0 1.48768e-06 1.91828e-06 0 1.57458e-06 1.93267e-06 0 1.66217e-06 1.94787e-06 0 1.7505e-06 1.96386e-06 0 1.83961e-06 1.98065e-06 0 1.92952e-06 1.99825e-06 0 2.02029e-06 2.01666e-06 0 2.11196e-06 2.03588e-06 0 2.20455e-06 2.05592e-06 0 2.29812e-06 2.07677e-06 0 2.3927e-06 2.09843e-06 0 2.48834e-06 2.12092e-06 0 2.58508e-06 2.14423e-06 0 2.68295e-06 2.16836e-06 0 2.78201e-06 2.19332e-06 0 2.88229e-06 2.21911e-06 0 2.98384e-06 2.24572e-06 0 3.08671e-06 2.27316e-06 0 3.19094e-06 2.30143e-06 0 3.29656e-06 2.33052e-06 0 3.40364e-06 2.36044e-06 0 3.51221e-06 2.39119e-06 0 3.62233e-06 2.42275e-06 0 3.73404e-06 2.45513e-06 0 3.84738e-06 2.48832e-06 0 3.96241e-06 2.52232e-06 0 4.07918e-06 2.55711e-06 0 4.19774e-06 2.5927e-06 0 4.31814e-06 2.62907e-06 0 4.44043e-06 2.66621e-06 0 4.56467e-06 2.70411e-06 0 4.6909e-06 2.74275e-06 0 4.81918e-06 2.78212e-06 0 4.94958e-06 2.82219e-06 0 5.08213e-06 2.86296e-06 0 5.21691e-06 2.90438e-06 0 5.35397e-06 2.94644e-06 0 5.49337e-06 2.9891e-06 0 5.63517e-06 3.03233e-06 0 5.77944e-06 3.0761e-06 0 5.92623e-06 3.12036e-06 0 6.07561e-06 3.16506e-06 0 6.22765e-06 3.21016e-06 0 6.38241e-06 3.25561e-06 0 6.53996e-06 3.30132e-06 0 6.70038e-06 3.34725e-06 0 6.86374e-06 3.39331e-06 0 7.03011e-06 3.43943e-06 0 7.19956e-06 3.48551e-06 0 7.37219e-06 3.53145e-06 0 7.54806e-06 3.57714e-06 0 7.72726e-06 3.62247e-06 0 7.90989e-06 3.6673e-06 0 8.09602e-06 3.7115e-06 0 8.28576e-06 3.7549e-06 0 8.47919e-06 3.79734e-06 0 8.67642e-06 3.83862e-06 0 8.87756e-06 3.87856e-06 0 9.08271e-06 3.91692e-06 0 9.29199e-06 3.95346e-06 0 9.50552e-06 3.98791e-06 0 9.72343e-06 4.02e-06 0 9.94584e-06 4.0494e-06 0 1.01729e-05 4.07576e-06 0 1.04048e-05 4.09872e-06 0 1.06416e-05 4.11787e-06 0 1.08835e-05 4.13274e-06 0 1.11308e-05 4.14287e-06 0 1.13836e-05 4.1477e-06 0 1.1642e-05 4.14666e-06 0 1.19064e-05 4.13911e-06 0 1.2177e-05 4.12434e-06 0 1.2454e-05 4.10161e-06 0 1.27377e-05 4.07006e-06 0 1.30284e-05 4.02878e-06 0 1.33264e-05 3.97677e-06 0 1.36322e-05 3.91292e-06 0 1.39461e-05 3.83601e-06 0 1.42685e-05 3.74471e-06 0 1.45999e-05 3.63753e-06 0 1.49409e-05 3.51286e-06 0 1.5292e-05 3.36888e-06 0 1.56538e-05 3.2036e-06 0 1.60271e-05 3.01479e-06 0 1.64127e-05 2.79996e-06 0 1.68114e-05 2.55636e-06 0 1.72243e-05 2.28085e-06 0 1.76525e-05 1.96992e-06 0 1.80972e-05 1.6196e-06 0 1.85599e-05 1.22536e-06 0 1.90422e-05 7.8199e-07 0 1.95461e-05 2.83512e-07 0 2.00738e-05 -2.77038e-07 0 2.06279e-05 -9.07829e-07 0 2.12115e-05 -1.61852e-06 0 2.18284e-05 -2.42074e-06 0 2.24832e-05 -3.32849e-06 0 2.31816e-05 -4.35931e-06 0 2.39313e-05 -5.53454e-06 0 2.47411e-05 -6.88323e-06 0 2.56259e-05 -8.43922e-06 0 2.65999e-05 -1.02595e-05 0 2.76991e-05 -1.2395e-05 0 2.89434e-05 -1.49964e-05 0 3.04497e-05 -1.80981e-05 0 3.22334e-05 -2.22962e-05 0 3.47811e-05 -2.72337e-05 0 3.82554e-05 -3.63362e-05 0 4.61011e-05 -4.67001e-05 0 6.88357e-05 -9.87139e-05 0 0 1.76607e-06 0 8.09641e-08 1.76645e-06 0 1.61964e-07 1.76759e-06 0 2.43036e-07 1.76948e-06 0 3.24215e-07 1.77214e-06 0 4.05537e-07 1.77554e-06 0 4.8704e-07 1.77971e-06 0 5.68757e-07 1.78464e-06 0 6.50727e-07 1.79032e-06 0 7.32984e-07 1.79677e-06 0 8.15566e-07 1.80398e-06 0 8.98508e-07 1.81196e-06 0 9.81848e-07 1.82071e-06 0 1.06562e-06 1.83022e-06 0 1.14987e-06 1.8405e-06 0 1.23462e-06 1.85155e-06 0 1.31992e-06 1.86339e-06 0 1.4058e-06 1.87599e-06 0 1.4923e-06 1.88938e-06 0 1.57947e-06 1.90355e-06 0 1.66733e-06 1.9185e-06 0 1.75592e-06 1.93424e-06 0 1.84529e-06 1.95077e-06 0 1.93548e-06 1.9681e-06 0 2.02651e-06 1.98622e-06 0 2.11844e-06 2.00513e-06 0 2.21131e-06 2.02485e-06 0 2.30515e-06 2.04537e-06 0 2.4e-06 2.06669e-06 0 2.49591e-06 2.08882e-06 0 2.59292e-06 2.11175e-06 0 2.69107e-06 2.1355e-06 0 2.7904e-06 2.16006e-06 0 2.89095e-06 2.18543e-06 0 2.99278e-06 2.21161e-06 0 3.09592e-06 2.2386e-06 0 3.20042e-06 2.26641e-06 0 3.30632e-06 2.29503e-06 0 3.41367e-06 2.32446e-06 0 3.52251e-06 2.35469e-06 0 3.6329e-06 2.38574e-06 0 3.74487e-06 2.41758e-06 0 3.85848e-06 2.45021e-06 0 3.97378e-06 2.48364e-06 0 4.09082e-06 2.51785e-06 0 4.20963e-06 2.55284e-06 0 4.33029e-06 2.58858e-06 0 4.45283e-06 2.62509e-06 0 4.57731e-06 2.66233e-06 0 4.70379e-06 2.70029e-06 0 4.83231e-06 2.73897e-06 0 4.96293e-06 2.77833e-06 0 5.09571e-06 2.81837e-06 0 5.2307e-06 2.85904e-06 0 5.36796e-06 2.90033e-06 0 5.50756e-06 2.9422e-06 0 5.64954e-06 2.98463e-06 0 5.79397e-06 3.02757e-06 0 5.94091e-06 3.07097e-06 0 6.09043e-06 3.11481e-06 0 6.24259e-06 3.15902e-06 0 6.39745e-06 3.20354e-06 0 6.55508e-06 3.24832e-06 0 6.71556e-06 3.29329e-06 0 6.87894e-06 3.33836e-06 0 7.04531e-06 3.38346e-06 0 7.21473e-06 3.4285e-06 0 7.38729e-06 3.47338e-06 0 7.56305e-06 3.51798e-06 0 7.74211e-06 3.56219e-06 0 7.92454e-06 3.60588e-06 0 8.11043e-06 3.6489e-06 0 8.29987e-06 3.69109e-06 0 8.49294e-06 3.73229e-06 0 8.68976e-06 3.77231e-06 0 8.8904e-06 3.81094e-06 0 9.09498e-06 3.84795e-06 0 9.30361e-06 3.88311e-06 0 9.51639e-06 3.91615e-06 0 9.73344e-06 3.94677e-06 0 9.9549e-06 3.97466e-06 0 1.01809e-05 3.99947e-06 0 1.04115e-05 4.02083e-06 0 1.0647e-05 4.03832e-06 0 1.08874e-05 4.05148e-06 0 1.1133e-05 4.05983e-06 0 1.13839e-05 4.06283e-06 0 1.16403e-05 4.05989e-06 0 1.19024e-05 4.05036e-06 0 1.21704e-05 4.03354e-06 0 1.24446e-05 4.00867e-06 0 1.27252e-05 3.97488e-06 0 1.30125e-05 3.93127e-06 0 1.33068e-05 3.87681e-06 0 1.36084e-05 3.8104e-06 0 1.39177e-05 3.73079e-06 0 1.4235e-05 3.63665e-06 0 1.45608e-05 3.52647e-06 0 1.48956e-05 3.39863e-06 0 1.52399e-05 3.25129e-06 0 1.55943e-05 3.08243e-06 0 1.59593e-05 2.8898e-06 0 1.63357e-05 2.67091e-06 0 1.67243e-05 2.42293e-06 0 1.71259e-05 2.14272e-06 0 1.75415e-05 1.82673e-06 0 1.79723e-05 1.47092e-06 0 1.84194e-05 1.07071e-06 0 1.88843e-05 6.20824e-07 0 1.93686e-05 1.15202e-07 0 1.98741e-05 -4.53227e-07 0 2.04031e-05 -1.09276e-06 0 2.0958e-05 -1.81323e-06 0 2.15419e-05 -2.62643e-06 0 2.21584e-05 -3.54675e-06 0 2.2812e-05 -4.59189e-06 0 2.35084e-05 -5.78421e-06 0 2.42544e-05 -7.15236e-06 0 2.50603e-05 -8.73413e-06 0 2.59363e-05 -1.05813e-05 0 2.69074e-05 -1.27646e-05 0 2.79798e-05 -1.5398e-05 0 2.92498e-05 -1.86267e-05 0 3.06279e-05 -2.28155e-05 0 3.26609e-05 -2.82592e-05 0 3.43591e-05 -3.70099e-05 0 3.92265e-05 -5.03284e-05 0 1.9655e-05 -9.58672e-05 0 0 1.73905e-06 0 8.12142e-08 1.73942e-06 0 1.62464e-07 1.74054e-06 0 2.43786e-07 1.7424e-06 0 3.25216e-07 1.74501e-06 0 4.06789e-07 1.74837e-06 0 4.88542e-07 1.75247e-06 0 5.70511e-07 1.75732e-06 0 6.52732e-07 1.76291e-06 0 7.35242e-07 1.76926e-06 0 8.18076e-07 1.77636e-06 0 9.01272e-07 1.78421e-06 0 9.84865e-07 1.79281e-06 0 1.06889e-06 1.80217e-06 0 1.15339e-06 1.81229e-06 0 1.2384e-06 1.82317e-06 0 1.32396e-06 1.83481e-06 0 1.4101e-06 1.84722e-06 0 1.49686e-06 1.86039e-06 0 1.58428e-06 1.87434e-06 0 1.6724e-06 1.88905e-06 0 1.76126e-06 1.90454e-06 0 1.85089e-06 1.92081e-06 0 1.94133e-06 1.93785e-06 0 2.03264e-06 1.95568e-06 0 2.12483e-06 1.97429e-06 0 2.21796e-06 1.99369e-06 0 2.31206e-06 2.01387e-06 0 2.40718e-06 2.03485e-06 0 2.50336e-06 2.05662e-06 0 2.60063e-06 2.07918e-06 0 2.69905e-06 2.10254e-06 0 2.79865e-06 2.1267e-06 0 2.89947e-06 2.15165e-06 0 3.00157e-06 2.17741e-06 0 3.10498e-06 2.20396e-06 0 3.20974e-06 2.2313e-06 0 3.31591e-06 2.25945e-06 0 3.42353e-06 2.28838e-06 0 3.53264e-06 2.31811e-06 0 3.64329e-06 2.34863e-06 0 3.75553e-06 2.37994e-06 0 3.8694e-06 2.41202e-06 0 3.98496e-06 2.44488e-06 0 4.10225e-06 2.4785e-06 0 4.22132e-06 2.51288e-06 0 4.34223e-06 2.54801e-06 0 4.46501e-06 2.58388e-06 0 4.58974e-06 2.62046e-06 0 4.71645e-06 2.65776e-06 0 4.8452e-06 2.69574e-06 0 4.97604e-06 2.7344e-06 0 5.10904e-06 2.7737e-06 0 5.24424e-06 2.81363e-06 0 5.3817e-06 2.85416e-06 0 5.52148e-06 2.89525e-06 0 5.66363e-06 2.93687e-06 0 5.80823e-06 2.97898e-06 0 5.95531e-06 3.02154e-06 0 6.10496e-06 3.06451e-06 0 6.25723e-06 3.10783e-06 0 6.41218e-06 3.15145e-06 0 6.56989e-06 3.1953e-06 0 6.73041e-06 3.23931e-06 0 6.89381e-06 3.28341e-06 0 7.06017e-06 3.32751e-06 0 7.22955e-06 3.37152e-06 0 7.40203e-06 3.41535e-06 0 7.57768e-06 3.45887e-06 0 7.75658e-06 3.50198e-06 0 7.93881e-06 3.54454e-06 0 8.12445e-06 3.5864e-06 0 8.31358e-06 3.6274e-06 0 8.50629e-06 3.66738e-06 0 8.70266e-06 3.70615e-06 0 8.9028e-06 3.74349e-06 0 9.1068e-06 3.77919e-06 0 9.31476e-06 3.813e-06 0 9.52678e-06 3.84465e-06 0 9.74297e-06 3.87384e-06 0 9.96345e-06 3.90027e-06 0 1.01883e-05 3.92357e-06 0 1.04178e-05 3.94337e-06 0 1.06519e-05 3.95925e-06 0 1.08908e-05 3.97076e-06 0 1.11346e-05 3.9774e-06 0 1.13836e-05 3.97863e-06 0 1.16379e-05 3.97385e-06 0 1.18977e-05 3.96243e-06 0 1.21632e-05 3.94364e-06 0 1.24345e-05 3.91671e-06 0 1.2712e-05 3.8808e-06 0 1.29958e-05 3.83496e-06 0 1.32863e-05 3.77819e-06 0 1.35837e-05 3.70934e-06 0 1.38883e-05 3.62719e-06 0 1.42006e-05 3.53037e-06 0 1.45208e-05 3.41738e-06 0 1.48493e-05 3.28656e-06 0 1.51868e-05 3.13608e-06 0 1.55335e-05 2.9639e-06 0 1.58902e-05 2.76774e-06 0 1.62573e-05 2.54508e-06 0 1.66357e-05 2.29308e-06 0 1.70259e-05 2.00857e-06 0 1.74289e-05 1.68795e-06 0 1.78456e-05 1.32716e-06 0 1.8277e-05 9.21567e-07 0 1.87243e-05 4.65846e-07 0 1.91887e-05 -4.61369e-08 0 1.96719e-05 -6.21524e-07 0 2.01754e-05 -1.2687e-06 0 2.07013e-05 -1.99763e-06 0 2.12518e-05 -2.82026e-06 0 2.18295e-05 -3.75114e-06 0 2.24377e-05 -4.80823e-06 0 2.30801e-05 -6.01428e-06 0 2.37612e-05 -7.39818e-06 0 2.44867e-05 -8.99901e-06 0 2.52636e-05 -1.08675e-05 0 2.61006e-05 -1.30816e-05 0 2.70072e-05 -1.57404e-05 0 2.80005e-05 -1.90408e-05 0 2.90627e-05 -2.32116e-05 0 3.02561e-05 -2.89475e-05 0 3.10254e-05 -3.71244e-05 0 3.05997e-05 -5.1709e-05 0 7.04358e-06 -7.99017e-05 0 0 1.71194e-06 0 8.14603e-08 1.71231e-06 0 1.62956e-07 1.71341e-06 0 2.44525e-07 1.71524e-06 0 3.26201e-07 1.71781e-06 0 4.08021e-07 1.72111e-06 0 4.90021e-07 1.72514e-06 0 5.72237e-07 1.72991e-06 0 6.54706e-07 1.73542e-06 0 7.37463e-07 1.74166e-06 0 8.20546e-07 1.74865e-06 0 9.03991e-07 1.75637e-06 0 9.87834e-07 1.76484e-06 0 1.07211e-06 1.77405e-06 0 1.15686e-06 1.784e-06 0 1.24212e-06 1.79471e-06 0 1.32793e-06 1.80616e-06 0 1.41433e-06 1.81836e-06 0 1.50134e-06 1.83132e-06 0 1.58902e-06 1.84504e-06 0 1.67739e-06 1.85952e-06 0 1.7665e-06 1.87475e-06 0 1.85639e-06 1.89075e-06 0 1.9471e-06 1.90752e-06 0 2.03866e-06 1.92506e-06 0 2.13111e-06 1.94336e-06 0 2.2245e-06 1.96244e-06 0 2.31887e-06 1.9823e-06 0 2.41425e-06 2.00293e-06 0 2.51069e-06 2.02434e-06 0 2.60822e-06 2.04653e-06 0 2.7069e-06 2.0695e-06 0 2.80676e-06 2.09325e-06 0 2.90785e-06 2.11779e-06 0 3.01021e-06 2.14311e-06 0 3.11388e-06 2.16922e-06 0 3.21891e-06 2.19611e-06 0 3.32534e-06 2.22377e-06 0 3.43322e-06 2.25222e-06 0 3.54259e-06 2.28145e-06 0 3.6535e-06 2.31144e-06 0 3.766e-06 2.34221e-06 0 3.88013e-06 2.37374e-06 0 3.99594e-06 2.40603e-06 0 4.11348e-06 2.43907e-06 0 4.2328e-06 2.47285e-06 0 4.35395e-06 2.50736e-06 0 4.47698e-06 2.54259e-06 0 4.60194e-06 2.57852e-06 0 4.72888e-06 2.61515e-06 0 4.85786e-06 2.65244e-06 0 4.98892e-06 2.69039e-06 0 5.12212e-06 2.72897e-06 0 5.25752e-06 2.76816e-06 0 5.39517e-06 2.80792e-06 0 5.53513e-06 2.84823e-06 0 5.67745e-06 2.88905e-06 0 5.8222e-06 2.93034e-06 0 5.96943e-06 2.97207e-06 0 6.1192e-06 3.01418e-06 0 6.27157e-06 3.05662e-06 0 6.42661e-06 3.09933e-06 0 6.58438e-06 3.14225e-06 0 6.74494e-06 3.18532e-06 0 6.90835e-06 3.22845e-06 0 7.07469e-06 3.27156e-06 0 7.24402e-06 3.31456e-06 0 7.41642e-06 3.35734e-06 0 7.59195e-06 3.39981e-06 0 7.77068e-06 3.44183e-06 0 7.9527e-06 3.48327e-06 0 8.13807e-06 3.52399e-06 0 8.32689e-06 3.56382e-06 0 8.51922e-06 3.60261e-06 0 8.71515e-06 3.64015e-06 0 8.91478e-06 3.67623e-06 0 9.11818e-06 3.71064e-06 0 9.32546e-06 3.74313e-06 0 9.53671e-06 3.77342e-06 0 9.75202e-06 3.80122e-06 0 9.97152e-06 3.82622e-06 0 1.01953e-05 3.84805e-06 0 1.04235e-05 3.86634e-06 0 1.06562e-05 3.88067e-06 0 1.08936e-05 3.89057e-06 0 1.11357e-05 3.89556e-06 0 1.13828e-05 3.89509e-06 0 1.1635e-05 3.88855e-06 0 1.18924e-05 3.87531e-06 0 1.21553e-05 3.85464e-06 0 1.24238e-05 3.82576e-06 0 1.26981e-05 3.78782e-06 0 1.29784e-05 3.73987e-06 0 1.3265e-05 3.6809e-06 0 1.35582e-05 3.60976e-06 0 1.38581e-05 3.52521e-06 0 1.41652e-05 3.42588e-06 0 1.44797e-05 3.31027e-06 0 1.48021e-05 3.17668e-06 0 1.51326e-05 3.02329e-06 0 1.54717e-05 2.84803e-06 0 1.58199e-05 2.64862e-06 0 1.61778e-05 2.42251e-06 0 1.65458e-05 2.16684e-06 0 1.69245e-05 1.87843e-06 0 1.73148e-05 1.55364e-06 0 1.77173e-05 1.18838e-06 0 1.81328e-05 7.77993e-07 0 1.85623e-05 3.17113e-07 0 1.90068e-05 -2.00438e-07 0 1.94674e-05 -7.81854e-07 0 1.99453e-05 -1.43558e-06 0 2.04419e-05 -2.17165e-06 0 2.09587e-05 -3.00208e-06 0 2.14973e-05 -3.94153e-06 0 2.20596e-05 -5.0081e-06 0 2.26475e-05 -6.22458e-06 0 2.3263e-05 -7.6202e-06 0 2.39077e-05 -9.23379e-06 0 2.45834e-05 -1.11171e-05 0 2.52881e-05 -1.33459e-05 0 2.60202e-05 -1.60226e-05 0 2.67542e-05 -1.93339e-05 0 2.7459e-05 -2.35073e-05 0 2.79326e-05 -2.9205e-05 0 2.7676e-05 -3.70301e-05 0 2.38863e-05 -5.03662e-05 0 4.46314e-06 -6.68352e-05 0 0 1.68475e-06 0 8.17024e-08 1.68511e-06 0 1.63441e-07 1.68619e-06 0 2.45251e-07 1.688e-06 0 3.2717e-07 1.69052e-06 0 4.09232e-07 1.69377e-06 0 4.91475e-07 1.69774e-06 0 5.73935e-07 1.70243e-06 0 6.56647e-07 1.70784e-06 0 7.39649e-07 1.71399e-06 0 8.22976e-07 1.72085e-06 0 9.06666e-07 1.72845e-06 0 9.90755e-07 1.73678e-06 0 1.07528e-06 1.74584e-06 0 1.16028e-06 1.75563e-06 0 1.24579e-06 1.76616e-06 0 1.33184e-06 1.77742e-06 0 1.41848e-06 1.78942e-06 0 1.50575e-06 1.80217e-06 0 1.59368e-06 1.81566e-06 0 1.6823e-06 1.8299e-06 0 1.77167e-06 1.84488e-06 0 1.86181e-06 1.86061e-06 0 1.95277e-06 1.8771e-06 0 2.04458e-06 1.89435e-06 0 2.13729e-06 1.91235e-06 0 2.23094e-06 1.93111e-06 0 2.32556e-06 1.95063e-06 0 2.42119e-06 1.97092e-06 0 2.51789e-06 1.99197e-06 0 2.61569e-06 2.01378e-06 0 2.71462e-06 2.03637e-06 0 2.81474e-06 2.05972e-06 0 2.91609e-06 2.08384e-06 0 3.01871e-06 2.10873e-06 0 3.12264e-06 2.13439e-06 0 3.22793e-06 2.16082e-06 0 3.33461e-06 2.18801e-06 0 3.44275e-06 2.21597e-06 0 3.55238e-06 2.24469e-06 0 3.66354e-06 2.27417e-06 0 3.77629e-06 2.3044e-06 0 3.89067e-06 2.33538e-06 0 4.00673e-06 2.3671e-06 0 4.12452e-06 2.39955e-06 0 4.24408e-06 2.43273e-06 0 4.36547e-06 2.46662e-06 0 4.48874e-06 2.50122e-06 0 4.61392e-06 2.5365e-06 0 4.74109e-06 2.57246e-06 0 4.87028e-06 2.60907e-06 0 5.00155e-06 2.64632e-06 0 5.13496e-06 2.68418e-06 0 5.27055e-06 2.72262e-06 0 5.40839e-06 2.76163e-06 0 5.54852e-06 2.80116e-06 0 5.69101e-06 2.84118e-06 0 5.8359e-06 2.88166e-06 0 5.98326e-06 2.92255e-06 0 6.13315e-06 2.9638e-06 0 6.28562e-06 3.00537e-06 0 6.44074e-06 3.04719e-06 0 6.59856e-06 3.08919e-06 0 6.75915e-06 3.13132e-06 0 6.92257e-06 3.17349e-06 0 7.08888e-06 3.21562e-06 0 7.25816e-06 3.25762e-06 0 7.43046e-06 3.29938e-06 0 7.60586e-06 3.34079e-06 0 7.78442e-06 3.38174e-06 0 7.96621e-06 3.42208e-06 0 8.15132e-06 3.46167e-06 0 8.33981e-06 3.50036e-06 0 8.53175e-06 3.53797e-06 0 8.72723e-06 3.5743e-06 0 8.92633e-06 3.60916e-06 0 9.12913e-06 3.64231e-06 0 9.33572e-06 3.6735e-06 0 9.54618e-06 3.70247e-06 0 9.76061e-06 3.72892e-06 0 9.97911e-06 3.75252e-06 0 1.02018e-05 3.77293e-06 0 1.04287e-05 3.78975e-06 0 1.066e-05 3.80257e-06 0 1.08958e-05 3.81093e-06 0 1.11362e-05 3.81433e-06 0 1.13814e-05 3.81222e-06 0 1.16314e-05 3.804e-06 0 1.18865e-05 3.78901e-06 0 1.21467e-05 3.76655e-06 0 1.24123e-05 3.73581e-06 0 1.26835e-05 3.69594e-06 0 1.29603e-05 3.646e-06 0 1.3243e-05 3.58496e-06 0 1.35319e-05 3.51167e-06 0 1.38272e-05 3.42488e-06 0 1.41291e-05 3.32321e-06 0 1.44379e-05 3.20515e-06 0 1.47539e-05 3.06901e-06 0 1.50774e-05 2.91293e-06 0 1.54089e-05 2.73484e-06 0 1.57486e-05 2.53246e-06 0 1.6097e-05 2.30322e-06 0 1.64546e-05 2.04424e-06 0 1.68219e-05 1.75232e-06 0 1.71993e-05 1.42382e-06 0 1.75875e-05 1.05461e-06 0 1.79871e-05 6.40024e-07 0 1.83987e-05 1.74671e-07 0 1.88231e-05 -3.47652e-07 0 1.92609e-05 -9.3416e-07 0 1.9713e-05 -1.59333e-06 0 2.01802e-05 -2.33519e-06 0 2.06631e-05 -3.17182e-06 0 2.11624e-05 -4.11784e-06 0 2.16787e-05 -5.19134e-06 0 2.22119e-05 -6.41505e-06 0 2.27615e-05 -7.8181e-06 0 2.33255e-05 -9.43874e-06 0 2.38995e-05 -1.13287e-05 0 2.44736e-05 -1.35603e-05 0 2.50298e-05 -1.62374e-05 0 2.55185e-05 -1.95254e-05 0 2.58565e-05 -2.36627e-05 0 2.57328e-05 -2.91598e-05 0 2.44962e-05 -3.65703e-05 0 1.91242e-05 -4.77312e-05 0 3.89108e-06 -5.79047e-05 0 0 1.65747e-06 0 8.19405e-08 1.65783e-06 0 1.63917e-07 1.6589e-06 0 2.45966e-07 1.66067e-06 0 3.28123e-07 1.66315e-06 0 4.10424e-07 1.66635e-06 0 4.92906e-07 1.67025e-06 0 5.75605e-07 1.67486e-06 0 6.58557e-07 1.68019e-06 0 7.41798e-07 1.68623e-06 0 8.25366e-07 1.69298e-06 0 9.09297e-07 1.70045e-06 0 9.93627e-07 1.70864e-06 0 1.07839e-06 1.71754e-06 0 1.16363e-06 1.72717e-06 0 1.24939e-06 1.73752e-06 0 1.33569e-06 1.7486e-06 0 1.42257e-06 1.7604e-06 0 1.51008e-06 1.77293e-06 0 1.59826e-06 1.7862e-06 0 1.68713e-06 1.80019e-06 0 1.77674e-06 1.81492e-06 0 1.86713e-06 1.83039e-06 0 1.95834e-06 1.8466e-06 0 2.0504e-06 1.86355e-06 0 2.14336e-06 1.88125e-06 0 2.23726e-06 1.89969e-06 0 2.33213e-06 1.91888e-06 0 2.42802e-06 1.93882e-06 0 2.52497e-06 1.95951e-06 0 2.62302e-06 1.98096e-06 0 2.72221e-06 2.00315e-06 0 2.82259e-06 2.0261e-06 0 2.92419e-06 2.04981e-06 0 3.02706e-06 2.07427e-06 0 3.13124e-06 2.09948e-06 0 3.23678e-06 2.12545e-06 0 3.34372e-06 2.15217e-06 0 3.45211e-06 2.17964e-06 0 3.56199e-06 2.20785e-06 0 3.6734e-06 2.23681e-06 0 3.7864e-06 2.26651e-06 0 3.90103e-06 2.29693e-06 0 4.01733e-06 2.32809e-06 0 4.13536e-06 2.35996e-06 0 4.25516e-06 2.39254e-06 0 4.37678e-06 2.42581e-06 0 4.50027e-06 2.45978e-06 0 4.62569e-06 2.49441e-06 0 4.75307e-06 2.5297e-06 0 4.88248e-06 2.56563e-06 0 5.01395e-06 2.60217e-06 0 5.14756e-06 2.63931e-06 0 5.28334e-06 2.67702e-06 0 5.42135e-06 2.71527e-06 0 5.56165e-06 2.75403e-06 0 5.70429e-06 2.79326e-06 0 5.84933e-06 2.83293e-06 0 5.99682e-06 2.87299e-06 0 6.14681e-06 2.9134e-06 0 6.29937e-06 2.95409e-06 0 6.45456e-06 2.99502e-06 0 6.61243e-06 3.03612e-06 0 6.77304e-06 3.07732e-06 0 6.93646e-06 3.11854e-06 0 7.10274e-06 3.1597e-06 0 7.27195e-06 3.20071e-06 0 7.44416e-06 3.24145e-06 0 7.61941e-06 3.28183e-06 0 7.79779e-06 3.32171e-06 0 7.97936e-06 3.36097e-06 0 8.16419e-06 3.39946e-06 0 8.35234e-06 3.43702e-06 0 8.54389e-06 3.47347e-06 0 8.73891e-06 3.50863e-06 0 8.93748e-06 3.54228e-06 0 9.13966e-06 3.57419e-06 0 9.34555e-06 3.60412e-06 0 9.55522e-06 3.6318e-06 0 9.76875e-06 3.65693e-06 0 9.98623e-06 3.67918e-06 0 1.02078e-05 3.6982e-06 0 1.04334e-05 3.71361e-06 0 1.06633e-05 3.72498e-06 0 1.08975e-05 3.73185e-06 0 1.11362e-05 3.73372e-06 0 1.13794e-05 3.73003e-06 0 1.16273e-05 3.7202e-06 0 1.188e-05 3.70355e-06 0 1.21376e-05 3.67937e-06 0 1.24003e-05 3.64687e-06 0 1.26682e-05 3.60519e-06 0 1.29415e-05 3.55337e-06 0 1.32204e-05 3.49038e-06 0 1.3505e-05 3.41507e-06 0 1.37955e-05 3.32619e-06 0 1.40922e-05 3.22236e-06 0 1.43952e-05 3.10204e-06 0 1.47049e-05 2.96354e-06 0 1.50214e-05 2.805e-06 0 1.53451e-05 2.62436e-06 0 1.56763e-05 2.41929e-06 0 1.60153e-05 2.18723e-06 0 1.63624e-05 1.9253e-06 0 1.67181e-05 1.63028e-06 0 1.70826e-05 1.29851e-06 0 1.74565e-05 9.25884e-07 0 1.784e-05 5.07691e-07 0 1.82337e-05 3.85522e-08 0 1.86378e-05 -4.8774e-07 0 1.90529e-05 -1.0784e-06 0 1.94792e-05 -1.74189e-06 0 1.99168e-05 -2.48823e-06 0 2.03657e-05 -3.32942e-06 0 2.08257e-05 -4.28001e-06 0 2.12959e-05 -5.35795e-06 0 2.17745e-05 -6.58567e-06 0 2.22584e-05 -7.9919e-06 0 2.2742e-05 -9.61401e-06 0 2.32156e-05 -1.15024e-05 0 2.36611e-05 -1.3726e-05 0 2.40456e-05 -1.63846e-05 0 2.43009e-05 -1.96247e-05 0 2.42928e-05 -2.36712e-05 0 2.3668e-05 -2.8895e-05 0 2.16449e-05 -3.57383e-05 0 1.57448e-05 -4.47741e-05 0 3.24305e-06 -5.16199e-05 0 0 1.63012e-06 0 8.21745e-08 1.63048e-06 0 1.64385e-07 1.63152e-06 0 2.46668e-07 1.63327e-06 0 3.29059e-07 1.63571e-06 0 4.11595e-07 1.63885e-06 0 4.94312e-07 1.64268e-06 0 5.77246e-07 1.64722e-06 0 6.60434e-07 1.65245e-06 0 7.43911e-07 1.65839e-06 0 8.27716e-07 1.66503e-06 0 9.11883e-07 1.67237e-06 0 9.96451e-07 1.68042e-06 0 1.08146e-06 1.68917e-06 0 1.16694e-06 1.69864e-06 0 1.25293e-06 1.70881e-06 0 1.33947e-06 1.7197e-06 0 1.42659e-06 1.7313e-06 0 1.51435e-06 1.74361e-06 0 1.60276e-06 1.75665e-06 0 1.69188e-06 1.77041e-06 0 1.78173e-06 1.78488e-06 0 1.87237e-06 1.80009e-06 0 1.96382e-06 1.81602e-06 0 2.05613e-06 1.83268e-06 0 2.14933e-06 1.85007e-06 0 2.24348e-06 1.86819e-06 0 2.3386e-06 1.88705e-06 0 2.43474e-06 1.90664e-06 0 2.53193e-06 1.92697e-06 0 2.63023e-06 1.94804e-06 0 2.72967e-06 1.96985e-06 0 2.83029e-06 1.9924e-06 0 2.93215e-06 2.01569e-06 0 3.03526e-06 2.03972e-06 0 3.1397e-06 2.06449e-06 0 3.24549e-06 2.09e-06 0 3.35267e-06 2.11624e-06 0 3.46131e-06 2.14322e-06 0 3.57143e-06 2.17093e-06 0 3.68309e-06 2.19937e-06 0 3.79633e-06 2.22853e-06 0 3.9112e-06 2.25841e-06 0 4.02774e-06 2.28899e-06 0 4.146e-06 2.32028e-06 0 4.26604e-06 2.35226e-06 0 4.38789e-06 2.38493e-06 0 4.5116e-06 2.41826e-06 0 4.63723e-06 2.45224e-06 0 4.76483e-06 2.48687e-06 0 4.89444e-06 2.52212e-06 0 5.02612e-06 2.55796e-06 0 5.15991e-06 2.59439e-06 0 5.29588e-06 2.63136e-06 0 5.43406e-06 2.66886e-06 0 5.57452e-06 2.70685e-06 0 5.71731e-06 2.7453e-06 0 5.86248e-06 2.78416e-06 0 6.01009e-06 2.8234e-06 0 6.16019e-06 2.86296e-06 0 6.31284e-06 2.90279e-06 0 6.46809e-06 2.94284e-06 0 6.626e-06 2.98304e-06 0 6.78663e-06 3.02332e-06 0 6.95004e-06 3.0636e-06 0 7.11628e-06 3.1038e-06 0 7.28542e-06 3.14382e-06 0 7.45751e-06 3.18357e-06 0 7.63263e-06 3.22292e-06 0 7.81082e-06 3.26176e-06 0 7.99215e-06 3.29996e-06 0 8.17669e-06 3.33736e-06 0 8.3645e-06 3.3738e-06 0 8.55565e-06 3.40912e-06 0 8.75019e-06 3.44312e-06 0 8.94822e-06 3.47558e-06 0 9.14978e-06 3.50629e-06 0 9.35496e-06 3.53499e-06 0 9.56382e-06 3.56141e-06 0 9.77645e-06 3.58525e-06 0 9.99291e-06 3.60619e-06 0 1.02133e-05 3.62387e-06 0 1.04377e-05 3.63791e-06 0 1.06661e-05 3.64788e-06 0 1.08988e-05 3.65331e-06 0 1.11357e-05 3.65372e-06 0 1.1377e-05 3.64853e-06 0 1.16227e-05 3.63715e-06 0 1.1873e-05 3.61893e-06 0 1.2128e-05 3.59312e-06 0 1.23877e-05 3.55896e-06 0 1.26524e-05 3.51556e-06 0 1.29221e-05 3.46198e-06 0 1.31971e-05 3.39717e-06 0 1.34773e-05 3.31999e-06 0 1.37631e-05 3.22917e-06 0 1.40545e-05 3.12334e-06 0 1.43518e-05 3.00094e-06 0 1.46551e-05 2.8603e-06 0 1.49646e-05 2.69954e-06 0 1.52806e-05 2.51658e-06 0 1.56032e-05 2.30911e-06 0 1.59327e-05 2.07456e-06 0 1.62693e-05 1.81003e-06 0 1.66133e-05 1.51231e-06 0 1.69649e-05 1.17775e-06 0 1.73243e-05 8.02213e-07 0 1.76918e-05 3.81014e-07 0 1.80675e-05 -9.12217e-08 0 1.84514e-05 -6.20685e-07 0 1.88436e-05 -1.21456e-06 0 1.9244e-05 -1.88127e-06 0 1.96521e-05 -2.63074e-06 0 2.00671e-05 -3.47488e-06 0 2.04878e-05 -4.42807e-06 0 2.09121e-05 -5.50795e-06 0 2.13364e-05 -6.73654e-06 0 2.17552e-05 -8.14179e-06 0 2.21596e-05 -9.75989e-06 0 2.25347e-05 -1.1639e-05 0 2.2855e-05 -1.38441e-05 0 2.30753e-05 -1.64671e-05 0 2.31108e-05 -1.96373e-05 0 2.27928e-05 -2.35466e-05 0 2.17495e-05 -2.84567e-05 0 1.91798e-05 -3.46339e-05 0 1.32436e-05 -4.1912e-05 0 2.66173e-06 -4.67939e-05 0 0 1.6027e-06 0 8.24046e-08 1.60304e-06 0 1.64845e-07 1.60407e-06 0 2.47359e-07 1.60579e-06 0 3.2998e-07 1.60818e-06 0 4.12747e-07 1.61127e-06 0 4.95694e-07 1.61504e-06 0 5.7886e-07 1.61949e-06 0 6.62279e-07 1.62464e-06 0 7.45988e-07 1.63047e-06 0 8.30025e-07 1.637e-06 0 9.14425e-07 1.64421e-06 0 9.99226e-07 1.65212e-06 0 1.08446e-06 1.66072e-06 0 1.17018e-06 1.67002e-06 0 1.2564e-06 1.68002e-06 0 1.34318e-06 1.69071e-06 0 1.43054e-06 1.70211e-06 0 1.51853e-06 1.71422e-06 0 1.60718e-06 1.72702e-06 0 1.69654e-06 1.74054e-06 0 1.78663e-06 1.75476e-06 0 1.87751e-06 1.7697e-06 0 1.9692e-06 1.78535e-06 0 2.06175e-06 1.80172e-06 0 2.1552e-06 1.8188e-06 0 2.24959e-06 1.83661e-06 0 2.34495e-06 1.85513e-06 0 2.44133e-06 1.87438e-06 0 2.53877e-06 1.89435e-06 0 2.63731e-06 1.91505e-06 0 2.737e-06 1.93647e-06 0 2.83787e-06 1.95862e-06 0 2.93996e-06 1.98149e-06 0 3.04332e-06 2.00509e-06 0 3.148e-06 2.02942e-06 0 3.25403e-06 2.05446e-06 0 3.36146e-06 2.08023e-06 0 3.47034e-06 2.10673e-06 0 3.5807e-06 2.13393e-06 0 3.6926e-06 2.16185e-06 0 3.80608e-06 2.19048e-06 0 3.92118e-06 2.2198e-06 0 4.03796e-06 2.24982e-06 0 4.15645e-06 2.28053e-06 0 4.27671e-06 2.31191e-06 0 4.39878e-06 2.34396e-06 0 4.52271e-06 2.37667e-06 0 4.64856e-06 2.41001e-06 0 4.77636e-06 2.44397e-06 0 4.90617e-06 2.47854e-06 0 5.03805e-06 2.51369e-06 0 5.17203e-06 2.5494e-06 0 5.30817e-06 2.58564e-06 0 5.44652e-06 2.62239e-06 0 5.58714e-06 2.65962e-06 0 5.73007e-06 2.69728e-06 0 5.87537e-06 2.73534e-06 0 6.02309e-06 2.77376e-06 0 6.17328e-06 2.81249e-06 0 6.32601e-06 2.85147e-06 0 6.48132e-06 2.89064e-06 0 6.63927e-06 2.92995e-06 0 6.79991e-06 2.96932e-06 0 6.9633e-06 3.00867e-06 0 7.1295e-06 3.04791e-06 0 7.29856e-06 3.08697e-06 0 7.47054e-06 3.12572e-06 0 7.6455e-06 3.16407e-06 0 7.82349e-06 3.20188e-06 0 8.00458e-06 3.23902e-06 0 8.18883e-06 3.27535e-06 0 8.37629e-06 3.31071e-06 0 8.56702e-06 3.34491e-06 0 8.76109e-06 3.37778e-06 0 8.95856e-06 3.40909e-06 0 9.1595e-06 3.43862e-06 0 9.36396e-06 3.46612e-06 0 9.57201e-06 3.49131e-06 0 9.78372e-06 3.5139e-06 0 9.99915e-06 3.53357e-06 0 1.02184e-05 3.54995e-06 0 1.04415e-05 3.56267e-06 0 1.06685e-05 3.57128e-06 0 1.08995e-05 3.57534e-06 0 1.11347e-05 3.57434e-06 0 1.1374e-05 3.56771e-06 0 1.16175e-05 3.55487e-06 0 1.18654e-05 3.53514e-06 0 1.21177e-05 3.50781e-06 0 1.23746e-05 3.47207e-06 0 1.2636e-05 3.42706e-06 0 1.29022e-05 3.37183e-06 0 1.31732e-05 3.30533e-06 0 1.34491e-05 3.22642e-06 0 1.37301e-05 3.13382e-06 0 1.40162e-05 3.02615e-06 0 1.43077e-05 2.90188e-06 0 1.46046e-05 2.7593e-06 0 1.49071e-05 2.59654e-06 0 1.52152e-05 2.41153e-06 0 1.55292e-05 2.20194e-06 0 1.58492e-05 1.96521e-06 0 1.61754e-05 1.69845e-06 0 1.65077e-05 1.39844e-06 0 1.68463e-05 1.06153e-06 0 1.71913e-05 6.83612e-07 0 1.75427e-05 2.60003e-07 0 1.79003e-05 -2.14643e-07 0 1.82641e-05 -7.4648e-07 0 1.86335e-05 -1.34264e-06 0 1.9008e-05 -2.01146e-06 0 1.93866e-05 -2.76276e-06 0 1.97679e-05 -3.60826e-06 0 2.01496e-05 -4.56208e-06 0 2.05283e-05 -5.64147e-06 0 2.08989e-05 -6.86783e-06 0 2.12537e-05 -8.26812e-06 0 2.15804e-05 -9.87692e-06 0 2.18597e-05 -1.17395e-05 0 2.20596e-05 -1.39161e-05 0 2.21251e-05 -1.6489e-05 0 2.19577e-05 -1.95693e-05 0 2.13701e-05 -2.3309e-05 0 1.99897e-05 -2.78797e-05 0 1.70782e-05 -3.33728e-05 0 1.13328e-05 -3.92664e-05 0 2.214