<?xml version="1.0"?> 
<VTKFile type="StructuredGrid" version="0.1"> 
<StructuredGrid WholeExtent="0 31 0 31 0 0"> 
<Piece Extent="0 31 0 31 0 0"> 
<PointData>
<DataArray type="Float32" Name="B" format="ascii" NumberOfComponents="3"> 
0.0179326 -0.0188734 0 0.00484206 -0.00796264 0 0.00340138 -0.00622683 0 0.00340744 -0.00493382 0 0.00277005 -0.00412289 0 0.00264874 -0.00348653 0 0.00233068 -0.00298996 0 0.00216909 -0.00258611 0 0.0019625 -0.00224932 0 0.00180788 -0.0019678 0 0.00164981 -0.00172735 0 0.00151321 -0.00152243 0 0.00138289 -0.00134547 0 0.00126454 -0.00119276 0 0.00115375 -0.00106003 0 0.00105133 -0.000944622 0 0.000955708 -0.000843922 0 0.00086658 -0.000756035 0 0.000783129 -0.000679249 0 0.000704859 -0.000612218 0 0.000631189 -0.000553778 0 0.000561631 -0.000502977 0 0.000495707 -0.000459006 0 0.000432977 -0.000421195 0 0.000373024 -0.000388984 0 0.000315452 -0.00036191 0 0.000259886 -0.000339593 0 0.000205967 -0.000321726 0 0.00015335 -0.000308068 0 0.0001017 -0.000298439 0 5.06908e-05 -0.000292711 0 0 -0.00029081 0 0.0101523 -0.00807842 0 0.00586292 -0.00736379 0 0.00444341 -0.00575402 0 0.00367219 -0.00471379 0 0.00322986 -0.00393867 0 0.00285978 -0.00334557 0 0.00258145 -0.00286974 0 0.00233287 -0.00248026 0 0.00212222 -0.00215607 0 0.00193125 -0.00188276 0 0.00176111 -0.00165056 0 0.00160567 -0.00145175 0 0.00146422 -0.00128072 0 0.00133421 -0.0011329 0 0.00121466 -0.00100474 0 0.00110419 -0.000893305 0 0.0010019 -0.000796231 0 0.000906864 -0.000711557 0 0.000818316 -0.000637667 0 0.00073554 -0.000573213 0 0.000657897 -0.000517071 0 0.000584794 -0.000468301 0 0.000515691 -0.000426119 0 0.000450084 -0.000389868 0 0.000387505 -0.000359002 0 0.000327514 -0.00033307 0 0.000269698 -0.000311703 0 0.000213664 -0.000294602 0 0.000159036 -0.000281533 0 0.00010545 -0.000272321 0 5.25532e-05 -0.000266841 0 -1.05814e-17 -0.000265023 0 0.00912766 -0.00598214 0 0.00649549 -0.00617939 0 0.00496206 -0.00524693 0 0.00410289 -0.00439942 0 0.00353917 -0.00371945 0 0.00312061 -0.00317375 0 0.00278663 -0.00272807 0 0.00250744 -0.00235892 0 0.00226657 -0.00204956 0 0.00205485 -0.00178796 0 0.00186599 -0.00156517 0 0.00169605 -0.00137433 0 0.00154198 -0.0012101 0 0.00140161 -0.00106822 0 0.00127313 -0.000945257 0 0.00115508 -0.000838428 0 0.00104624 -0.000745438 0 0.000945543 -0.000664395 0 0.000852052 -0.00059373 0 0.000764942 -0.000532136 0 0.000683468 -0.000478524 0 0.000606958 -0.000431983 0 0.000534801 -0.000391752 0 0.000466434 -0.000357196 0 0.000401338 -0.000327788 0 0.000339033 -0.000303091 0 0.000279066 -0.000282748 0 0.00022101 -0.000266471 0 0.000164461 -0.000254035 0 0.000109027 -0.00024527 0 5.43299e-05 -0.000240058 0 0 -0.000238328 0 0.00854482 -0.00500217 0 0.00674045 -0.00521308 0 0.00535188 -0.00469308 0 0.00444856 -0.00404389 0 0.00382398 -0.00346633 0 0.00335531 -0.0029773 0 0.00298166 -0.00256744 0 0.00267082 -0.00222272 0 0.00240469 -0.00193123 0 0.00217227 -0.0016835 0 0.00196644 -0.00147184 0 0.00178233 -0.00129028 0 0.00161642 -0.00113391 0 0.00146601 -0.00099881 0 0.00132901 -0.000881753 0 0.00120367 -0.000780101 0 0.00108855 -0.000691668 0 0.000982421 -0.000614646 0 0.000884197 -0.00054753 0 0.000792936 -0.000489068 0 0.0007078 -0.000438213 0 0.000628036 -0.00039409 0 0.000552964 -0.000355969 0 0.000481966 -0.000323241 0 0.000414476 -0.000295399 0 0.000349968 -0.000272025 0 0.000287956 -0.000252778 0 0.00022798 -0.000237382 0 0.000169607 -0.000225621 0 0.000112419 -0.000217333 0 5.6015e-05 -0.000212405 0 0 -0.00021077 0 0.00823102 -0.00424119 0 0.00683633 -0.00445553 0 0.00561899 -0.00415082 0 0.00472754 -0.00366942 0 0.00407114 -0.00318993 0 0.00356711 -0.00276119 0 0.00316118 -0.00239058 0 0.00282328 -0.00207324 0 0.00253443 -0.00180206 0 0.00228312 -0.00157002 0 0.00206147 -0.00137104 0 0.0018641 -0.00119994 0 0.00168698 -0.00105243 0 0.00152708 -0.000924904 0 0.00138198 -0.000814412 0 0.00124971 -0.000718478 0 0.00112863 -0.000635053 0 0.00101733 -0.000562426 0 0.000914603 -0.000499173 0 0.000819402 -0.000444103 0 0.000730791 -0.000396222 0 0.000647942 -0.0003547 0 0.00057011 -0.00031884 0 0.000496623 -0.000288066 0 0.000426868 -0.000261894 0 0.00036028 -0.00023993 0 0.000296337 -0.000221847 0 0.00023455 -0.000207386 0 0.000174457 -0.00019634 0 0.000115616 -0.000188557 0 5.76028e-05 -0.00018393 0 0 -0.000182394 0 0.00800823 -0.00366581 0 0.00686873 -0.00382921 0 0.00580225 -0.0036474 0 0.00494715 -0.00329129 0 0.00428184 -0.00289998 0 0.00375457 -0.00253033 0 0.0033242 -0.00220033 0 0.00296354 -0.00191225 0 0.00265492 -0.00166309 0 0.00238659 -0.00144832 0 0.00215049 -0.00126328 0 0.00194082 -0.00110374 0 0.00175325 -0.000965957 0 0.00158445 -0.000846758 0 0.00143175 -0.000743441 0 0.00129296 -0.000653738 0 0.00116625 -0.000575745 0 0.00105009 -0.000507869 0 0.000943132 -0.000448774 0 0.000844222 -0.000397345 0 0.000752344 -0.000352646 0 0.000666595 -0.000313897 0 0.000586172 -0.000280443 0 0.000510349 -0.000251742 0 0.000438469 -0.00022734 0 0.000369932 -0.000206865 0 0.00030418 -0.000190012 0 0.000240697 -0.000176536 0 0.000178994 -0.000166245 0 0.000118607 -0.000158994 0 5.9088e-05 -0.000154683 0 0 -0.000153252 0 0.007854 -0.00316218 0 0.006876 -0.00329868 0 0.00592822 -0.0031845 0 0.00511919 -0.00292008 0 0.00445825 -0.00260364 0 0.00391827 -0.00228922 0 0.00346997 -0.00199949 0 0.00309098 -0.0017415 0 0.00276541 -0.00151554 0 0.00248207 -0.00131919 0 0.00223293 -0.00114917 0 0.00201203 -0.0010021 0 0.00181485 -0.000874858 0 0.00163782 -0.000764651 0 0.00147805 -0.000669076 0 0.00133319 -0.000586078 0 0.00120125 -0.000513916 0 0.00108056 -0.000451122 0 0.000969652 -0.000396465 0 0.000867288 -0.000348908 0 0.000772367 -0.000307586 0 0.000683919 -0.000271773 0 0.000601085 -0.000240861 0 0.00052309 -0.000214346 0 0.000449236 -0.000191806 0 0.000378887 -0.000172897 0 0.000311457 -0.000157335 0 0.000246399 -0.000144892 0 0.000183203 -0.00013539 0 0.000121381 -0.000128696 0 6.04656e-05 -0.000124716 0 0 -0.000123396 0 0.00773833 -0.0027262 0 0.00687278 -0.0028326 0 0.00601678 -0.00275902 0 0.00525338 -0.00256049 0 0.00460449 -0.00230604 0 0.00405924 -0.00204157 0 0.00359859 -0.00179055 0 0.00320519 -0.00156268 0 0.00286543 -0.00136056 0 0.00256906 -0.00118348 0 0.00230834 -0.00102933 0 0.00207735 -0.000895525 0 0.00187143 -0.000779508 0 0.00168688 -0.000678896 0 0.00152064 -0.000591576 0 0.0013702 -0.000515717 0 0.00123345 -0.000449751 0 0.00110858 -0.000392347 0 0.000994041 -0.000342384 0 0.000888496 -0.000298917 0 0.000790774 -0.000261152 0 0.000699843 -0.000228426 0 0.00061479 -0.000200182 0 0.000534797 -0.000175957 0 0.000459129 -0.000155367 0 0.000387115 -0.000138093 0 0.000318141 -0.000123878 0 0.000251637 -0.000112513 0 0.000187069 -0.000103835 0 0.000123929 -9.7721e-05 0 6.17308e-05 -9.40861e-05 0 0 -9.28801e-05 0 0.00765145 -0.00232934 0 0.00686588 -0.00241437 0 0.00608039 -0.00236475 0 0.00535814 -0.00221422 0 0.00472466 -0.00201035 0 0.00417914 -0.00179021 0 0.00371051 -0.00157566 0 0.00330607 -0.00137734 0 0.00295466 -0.00119929 0 0.00264717 -0.00104203 0 0.00237635 -0.000904392 0 0.00213642 -0.000784506 0 0.00192269 -0.000680315 0 0.00173137 -0.000589825 0 0.00155929 -0.000511218 0 0.0014038 -0.000442888 0 0.00126268 -0.00038345 0 0.00113402 -0.000331717 0 0.00101619 -0.000286684 0 0.000907753 -0.000247503 0 0.000807486 -0.000213462 0 0.000714299 -0.000183961 0 0.000627231 -0.0001585 0 0.000545425 -0.000136661 0 0.000468109 -0.000118099 0 0.000394584 -0.000102527 0 0.000324209 -8.97108e-05 0 0.000256392 -7.94641e-05 0 0.000190578 -7.16395e-05 0 0.000126242 -6.6127e-05 0 6.28793e-05 -6.28495e-05 0 0 -6.17622e-05 0 0.00758506 -0.00196489 0 0.0068584 -0.00203077 0 0.00612704 -0.00199609 0 0.00544005 -0.00188092 0 0.00482259 -0.00171832 0 0.0042798 -0.00153717 0 0.00380642 -0.00135654 0 0.00339376 -0.00118685 0 0.00303296 -0.00103278 0 0.00271616 -0.000895659 0 0.00243668 -0.000775017 0 0.00218896 -0.000669565 0 0.00196837 -0.000577701 0 0.00177107 -0.000497789 0 0.00159379 -0.000428295 0 0.00143382 -0.000367843 0 0.00128881 -0.000315228 0 0.00115677 -0.000269416 0 0.00103599 -0.000229524 0 0.000924971 -0.000194808 0 0.000822431 -0.000164639 0 0.000727229 -0.000138488 0 0.00063836 -0.000115914 0 0.000554932 -9.65486e-05 0 0.000476143 -8.00854e-05 0 0.000401266 -6.62718e-05 0 0.000329638 -5.4902e-05 0 0.000260647 -4.58103e-05 0 0.000193718 -3.8867e-05 0 0.000128312 -3.39749e-05 0 6.39071e-05 -3.10663e-05 0 0 -3.01012e-05 0 0.00753474 -0.001623 0 0.00685177 -0.00167329 0 0.00616192 -0.00164783 0 0.00550403 -0.00155932 0 0.00490162 -0.00143065 0 0.00436303 -0.00128378 0 0.00388715 -0.00113453 0 0.0034685 -0.000992367 0 0.0031003 -0.000861997 0 0.00277585 -0.000745146 0 0.00248908 -0.000641837 0 0.00223473 -0.000551226 0 0.00200825 -0.000472101 0 0.00180577 -0.000403153 0 0.00162399 -0.000343118 0 0.0014601 -0.000290842 0 0.0013117 -0.000245309 0 0.00117671 -0.000205638 0 0.00105335 -0.000171074 0 0.000940075 -0.000140979 0 0.000835545 -0.000114813 0 0.000738578 -9.21226e-05 0 0.000648131 -7.25279e-05 0 0.000563282 -5.57116e-05 0 0.0004832 -4.14105e-05 0 0.000407137 -2.94072e-05 0 0.000334409 -1.95246e-05 0 0.000264386 -1.16202e-05 0 0.000196479 -5.58248e-06 0 0.000130131 -1.32778e-06 0 6.48108e-05 1.2022e-06 0 0 2.04164e-06 0 0.00749718 -0.00129864 0 0.00684674 -0.00133523 0 0.00618834 -0.00131561 0 0.00555374 -0.00124772 0 0.00496443 -0.00114736 0 0.00443047 -0.00103081 0 0.00395354 -0.000910641 0 0.00353065 -0.000794862 0 0.00315672 -0.000687789 0 0.00282613 -0.000591226 0 0.00253341 -0.000505472 0 0.00227355 -0.000430014 0 0.00204213 -0.000363959 0 0.0018353 -0.000306292 0 0.00164972 -0.000256004 0 0.00148252 -0.00021216 0 0.00133124 -0.000173928 0 0.00119374 -0.000140586 0 0.00106819 -0.000111509 0 0.000952998 -8.61696e-05 0 0.000846773 -6.41205e-05 0 0.000748299 -4.49852e-05 0 0.000656506 -2.84486e-05 0 0.000570441 -1.42471e-05 0 0.000489254 -2.16219e-06 0 0.000412176 7.98662e-06 0 0.000338506 1.63465e-05 0 0.000267598 2.30358e-05 0 0.00019885 2.81472e-05 0 0.000131695 3.175e-05 0 6.55872e-05 3.38927e-05 0 0 3.46037e-05 0 0.00747032 -0.00098703 0 0.00684363 -0.0010116 0 0.00620851 -0.000995655 0 0.0055918 -0.000944226 0 0.0050132 -0.000868007 0 0.00448354 -0.000778632 0 0.00400638 -0.000685554 0 0.00358053 -0.000595115 0 0.00320231 -0.000510915 0 0.00286696 -0.000434584 0 0.00256953 -0.000366525 0 0.00230528 -0.000306448 0 0.00206989 -0.000253721 0 0.00185954 -0.000207589 0 0.00167087 -0.000167281 0 0.00150098 -0.000132077 0 0.00134734 -0.000101329 0 0.0012078 -7.44696e-05 0 0.00108045 -5.10119e-05 0 0.000963684 -3.05398e-05 0 0.000856066 -1.27011e-05 0 0.000756353 2.8004e-06 0 0.00066345 1.62134e-05 0 0.000576384 2.77455e-05 0 0.000494283 3.75693e-05 0 0.000416364 4.58269e-05 0 0.000341912 5.26347e-05 0 0.00027027 5.80858e-05 0 0.000200824 6.22534e-05 0 0.000132996 6.51922e-05 0 6.62338e-05 6.69406e-05 0 0 6.75208e-05 0 0.00745268 -0.000684709 0 0.00684259 -0.000698333 0 0.00622388 -0.000684724 0 0.00562009 -0.000646947 0 0.00504953 -0.00059188 0 0.00452337 -0.000527292 0 0.00404632 -0.000459735 0 0.00361849 -0.000393759 0 0.00323718 -0.000332041 0 0.00289832 -0.000275857 0 0.00259737 -0.000225575 0 0.0023298 -0.000181041 0 0.0020914 -0.000141835 0 0.00187836 -0.00010743 0 0.00168733 -7.72846e-05 0 0.00151537 -5.08822e-05 0 0.00135993 -2.77584e-05 0 0.0012188 -7.50514e-06 0 0.00109008 1.02298e-05 0 0.000972086 2.5747e-05 0 0.000863386 3.93012e-05 0 0.000762709 5.11071e-05 0 0.000668939 6.13447e-05 0 0.000581087 7.01645e-05 0 0.000498268 7.76915e-05 0 0.000419687 8.40291e-05 0 0.000344618 8.92614e-05 0 0.000272394 9.34561e-05 0 0.000202394 9.66663e-05 0 0.000134032 9.89318e-05 0 6.67485e-05 0.00010028 0 0 0.000100728 0 0.00744331 -0.000388603 0 0.00684369 -0.000392027 0 0.00623537 -0.000379936 0 0.00563988 -0.00035401 0 0.00507459 -0.000318097 0 0.0045508 -0.000276641 0 0.00407389 -0.000233471 0 0.00364478 -0.000191302 0 0.00326142 -0.000151762 0 0.00292021 -0.000115641 0 0.00261687 -8.31807e-05 0 0.00234704 -5.42988e-05 0 0.00210658 -2.8747e-05 0 0.0018917 -6.20851e-06 0 0.00169904 1.36463e-05 0 0.00152565 3.11306e-05 0 0.00136895 4.65279e-05 0 0.00122672 6.00875e-05 0 0.00109702 7.20247e-05 0 0.000978171 8.25235e-05 0 0.000868705 9.17398e-05 0 0.000767341 9.9805e-05 0 0.000672951 0.00010683 0 0.000584533 0.000112906 0 0.000501196 0.000118111 0 0.000422133 0.000122507 0 0.000346613 0.000126147 0 0.000273963 0.000129072 0 0.000203555 0.000131315 0 0.000134799 0.0001329 0 6.71297e-05 0.000133845 0 0 0.000134158 0 0.00744164 -9.60559e-05 0 0.00684695 -8.96784e-05 0 0.00624353 -7.86636e-05 0 0.00565194 -6.35826e-05 0 0.00508912 -4.56811e-05 0 0.00456638 -2.63871e-05 0 0.00408944 -6.92762e-06 0 0.00365959 1.18331e-05 0 0.00327511 2.93868e-05 0 0.00293262 4.54983e-05 0 0.002628 6.01121e-05 0 0.00235696 7.32771e-05 0 0.00211538 8.50941e-05 0 0.00189949 9.56839e-05 0 0.00170594 0.000105169 0 0.00153176 0.000113664 0 0.00137436 0.000121273 0 0.00123151 0.000128085 0 0.00110126 0.000134178 0 0.000981914 0.00013962 0 0.000872002 0.000144466 0 0.000770233 0.000148763 0 0.000675472 0.000152551 0 0.000586713 0.000155865 0 0.000503057 0.000158732 0 0.000423696 0.000161174 0 0.000347893 0.000163211 0 0.000274972 0.000164859 0 0.000204304 0.000166128 0 0.000135294 0.000167029 0 6.73762e-05 0.000167567 0 -5.58123e-19 0.000167745 0 0.0074474 0.000195421 0 0.0068524 0.000211484 0 0.00624862 0.000221574 0 0.00565667 0.000226136 0 0.00509348 0.000226393 0 0.0045704 0.000223835 0 0.00409315 0.0002198 0 0.00366301 0.000215277 0 0.00327828 0.000210901 0 0.00293557 0.000207015 0 0.00263074 0.000203768 0 0.00235951 0.000201191 0 0.00211776 0.000199242 0 0.00190171 0.000197852 0 0.00170801 0.000196939 0 0.00153368 0.000196419 0 0.00137614 0.000196216 0 0.00123316 0.000196262 0 0.00110278 0.000196495 0 0.000983303 0.000196865 0 0.000873267 0.000197328 0 0.000771376 0.000197847 0 0.000676495 0.000198392 0 0.000587618 0.000198936 0 0.000503846 0.000199458 0 0.00042437 0.000199942 0 0.000348453 0.000200373 0 0.000275419 0.00020074 0 0.000204638 0.000201033 0 0.000135517 0.000201248 0 6.74875e-05 0.000201378 0 -4.29208e-18 0.000201422 0 0.0074606 0.000488246 0 0.00686005 0.000514169 0 0.00625066 0.000523214 0 0.00565405 0.000516936 0 0.00508766 0.000499165 0 0.00456283 0.000474417 0 0.004085 0.000446639 0 0.00365504 0.000418678 0 0.00327093 0.000392287 0 0.00292904 0.000368368 0 0.00262509 0.000347256 0 0.0023547 0.000328946 0 0.00211372 0.00031325 0 0.00189836 0.000299902 0 0.00170524 0.00028861 0 0.00153141 0.000279095 0 0.0013743 0.000271098 0 0.00123166 0.000264391 0 0.00110157 0.000258778 0 0.000982339 0.000254087 0 0.0008725 0.000250177 0 0.00077077 0.000246926 0 0.000676021 0.000244232 0 0.00058725 0.000242012 0 0.000503563 0.000240195 0 0.000424155 0.000238724 0 0.000348294 0.000237551 0 0.000275304 0.000236639 0 0.000204559 0.000235959 0 0.000135467 0.000235488 0 6.74636e-05 0.000235212 0 -6.81464e-19 0.00023512 0 0.00748155 0.000784908 0 0.00686989 0.000821155 0 0.00624938 0.000828747 0 0.0056437 0.000810625 0 0.00507129 0.000773665 0 0.00454341 0.000725727 0 0.0040648 0.000673495 0 0.00363556 0.000621664 0 0.003253 0.00057304 0 0.00291303 0.000529011 0 0.00261106 0.000490039 0 0.00234256 0.000456045 0 0.0021033 0.000426671 0 0.00188945 0.000401437 0 0.00169766 0.000379838 0 0.00152497 0.000361392 0 0.00136884 0.000345658 0 0.00122704 0.000332249 0 0.00109766 0.00032083 0 0.000979031 0.000311115 0 0.000869709 0.000302861 0 0.000768423 0.000295865 0 0.000674055 0.000289955 0 0.000585613 0.000284988 0 0.000502213 0.000280846 0 0.000423056 0.000277431 0 0.000347417 0.000274664 0 0.000274628 0.00027248 0 0.000204067 0.000270832 0 0.000135146 0.00026968 0 6.73049e-05 0.000268999 0 0 0.000268773 0 0.00751087 0.00108808 0 0.00688194 0.00113546 0 0.00624425 0.00114081 0 0.00562484 0.00110904 0 0.00504362 0.00105087 0 0.00451154 0.000978056 0 0.00403219 0.000900202 0 0.00360439 0.000823812 0 0.00322442 0.00075262 0 0.00288751 0.000688376 0 0.00258866 0.00063157 0 0.00232311 0.000581987 0 0.00208652 0.000539056 0 0.00187505 0.000502064 0 0.00168532 0.00047028 0 0.00151441 0.000443012 0 0.0013598 0.000419638 0 0.00121931 0.00039961 0 0.00109106 0.000382458 0 0.000973401 0.000367778 0 0.000864914 0.000355232 0 0.00076435 0.000344534 0 0.000670609 0.000335442 0 0.000582718 0.000327758 0 0.000499803 0.000321315 0 0.000421079 0.000315976 0 0.00034583 0.000311631 0 0.000273397 0.000308189 0 0.000203165 0.000305581 0 0.000134555 0.000303754 0 6.70125e-05 0.000302672 0 0 0.000302314 0 0.00754954 0.00140084 0 0.00689615 0.0014605 0 0.00623433 0.00146231 0 0.00559618 0.00141408 0 0.00500347 0.00133168 0 0.00446637 0.00123156 0 0.00398662 0.00112647 0 0.00356122 0.00102461 0 0.00318507 0.000930433 0 0.00285249 0.000845863 0 0.00255796 0.000771287 0 0.00229644 0.000706263 0 0.00206349 0.000649955 0 0.00185522 0.00060139 0 0.00166827 0.000559594 0 0.00149978 0.000523662 0 0.00134724 0.000492784 0 0.00120854 0.000466255 0 0.00108182 0.000443468 0 0.000965483 0.00042391 0 0.000858142 0.000407143 0 0.000758574 0.000392802 0 0.000665705 0.000380579 0 0.00057858 0.000370218 0 0.000496347 0.000361508 0 0.000418235 0.000354274 0 0.00034354 0.000348372 0 0.000271616 0.000343689 0 0.000201858 0.000340135 0 0.000133697 0.000337642 0 6.65879e-05 0.000336165 0 0 0.000335676 0 0.0075991 0.00172668 0 0.00691239 0.0018004 0 0.0062182 0.00179653 0 0.00555585 0.00172766 0 0.00494919 0.00161681 0 0.00440674 0.00148618 0 0.00392742 0.00135183 0 0.00350574 0.00122342 0 0.00313484 0.00110581 0 0.00280796 0.00100083 0 0.00251901 0.000908607 0 0.00226264 0.000828357 0 0.0020343 0.000758919 0 0.00183007 0.000699026 0 0.00164663 0.000647445 0 0.00148116 0.00060305 0 0.00133124 0.000564844 0 0.00119477 0.000531966 0 0.00106999 0.000503675 0 0.000955322 0.000479345 0 0.00084943 0.000458449 0 0.000751126 0.000440541 0 0.000659366 0.000425251 0 0.000573223 0.000412267 0 0.000491863 0.000401334 0 0.000414537 0.000392239 0 0.000340559 0.00038481 0 0.000269294 0.000378908 0 0.000200153 0.000374424 0 0.000132578 0.000371277 0 6.6033e-05 0.000369412 0 0 0.000368794 0 0.00766167 0.00207041 0 0.00693037 0.00216018 0 0.00619364 0.00214728 0 0.00550119 0.00205169 0 0.00487861 0.00190671 0 0.00433122 0.00174156 0 0.00385378 0.00157559 0 0.00343756 0.00141945 0 0.00307361 0.00127797 0 0.00275398 0.00115259 0 0.00247194 0.00104292 0 0.00222186 0.000947745 0 0.00199909 0.000865499 0 0.00179973 0.000794587 0 0.00162051 0.000733503 0 0.00145867 0.000680894 0 0.00131187 0.000635577 0 0.0011781 0.000596533 0 0.00105563 0.000562893 0 0.000942971 0.000533925 0 0.000838824 0.000509009 0 0.000742045 0.000487628 0 0.000651626 0.000469347 0 0.000566671 0.000453805 0 0.000486373 0.000440701 0 0.000410005 0.000429789 0 0.0003369 0.000420867 0 0.000266442 0.000413772 0 0.000198057 0.000408379 0 0.000131201 0.000404593 0 6.53504e-05 0.000402347 0 -2.87434e-18 0.000401603 0 0.00774065 0.00243709 0 0.00694939 0.00254663 0 0.00615732 0.00251899 0 0.0054285 0.00238791 0 0.00478898 0.00220138 0 0.00423813 0.00199693 0 0.00376485 0.00179675 0 0.00335634 0.00161173 0 0.00300134 0.00144608 0 0.00269063 0.0013004 0 0.00241689 0.00117361 0 0.00217427 0.0010639 0 0.00195805 0.000969248 0 0.00176437 0.000887695 0 0.00159005 0.000817447 0 0.00143243 0.00075692 0 0.00128925 0.000704746 0 0.0011586 0.000659752 0 0.00103882 0.000620947 0 0.000928498 0.000587494 0 0.00082638 0.000558688 0 0.000731377 0.000533942 0 0.000642523 0.000512761 0 0.000558956 0.000494734 0 0.000479902 0.000479522 0 0.000404657 0.000466843 0 0.00033258 0.000456467 0 0.000263073 0.000448212 0 0.00019558 0.000441934 0 0.000129572 0.000437524 0 6.45431e-05 0.000434907 0 -8.53005e-18 0.00043404 0 0.00784057 0.00283664 0 0.00696807 0.00296836 0 0.00610402 0.00291695 0 0.0053328 0.00273763 0 0.00467693 0.00250012 0 0.00412563 0.00225093 0 0.00365976 0.00201394 0 0.00326181 0.00179909 0 0.00291804 0.00160914 0 0.00261808 0.00144347 0 0.0023541 0.00130002 0 0.0021201 0.00117629 0 0.00191139 0.00106973 0 0.00172418 0.000977982 0 0.00155543 0.000898966 0 0.00140259 0.000830864 0 0.00126351 0.000772124 0 0.00113639 0.000721428 0 0.00101966 0.000677666 0 0.000911977 0.000639903 0 0.000812161 0.000607356 0 0.000719175 0.000579366 0 0.0006321 0.000555388 0 0.000550115 0.000534962 0 0.00047248 0.000517711 0 0.00039852 0.000503321 0 0.000327618 0.000491539 0 0.000259201 0.000482159 0 0.000192732 0.000475022 0 0.000127699 0.000470007 0 6.36145e-05 0.000467031 0 -3.37692e-19 0.000466045 0 0.00796993 0.00327586 0 0.00698332 0.00343877 0 0.0060257 0.00334686 0 0.00520747 0.00310123 0 0.00453857 0.00280118 0 0.00399185 0.00250154 0 0.00353779 0.00222543 0 0.00315382 0.00198014 0 0.00282386 0.0017661 0 0.00253658 0.00158097 0 0.00228385 0.00142151 0 0.00205964 0.00128439 0 0.00185936 0.00116651 0 0.0016794 0.00106509 0 0.00151685 0.000977764 0 0.00136931 0.000902473 0 0.00123479 0.000837496 0 0.00111158 0.000781376 0 0.000998239 0.00073289 0 0.000893492 0.000691013 0 0.000796237 0.000654886 0 0.000705497 0.000623791 0 0.000620407 0.000597128 0 0.000540189 0.000574398 0 0.00046414 0.000555185 0 0.000391619 0.000539149 0 0.000322036 0.000526011 0 0.000254843 0.000515547 0 0.000189525 0.000507581 0 0.00012559 0.000501982 0 6.25684e-05 0.000498659 0 0 0.000497557 0 0.00813873 0.00378344 0 0.00698838 0.0039747 0 0.00590977 0.0038151 0 0.00504395 0.00347703 0 0.00436975 0.00310138 0 0.00383509 0.0027459 0 0.00339849 0.00242905 0 0.00303245 0.00215332 0 0.00271909 0.00191581 0 0.00244649 0.00171205 0 0.0022065 0.00153742 0 0.00199322 0.0013877 0 0.00180228 0.00125918 0 0.00163028 0.0011487 0 0.00147452 0.00105356 0 0.00133278 0.000971512 0 0.00120324 0.00090066 0 0.00108432 0.00083942 0 0.000974674 0.000786466 0 0.000873138 0.000740688 0 0.000778686 0.000701161 0 0.00069041 0.00066711 0 0.000607498 0.000637888 0 0.000529222 0.000612956 0 0.000454919 0.000591867 0 0.000383984 0.000574254 0 0.000315858 0.000559816 0 0.000250018 0.00054831 0 0.000185972 0.000539549 0 0.000123253 0.000533389 0 6.14092e-05 0.000529731 0 0 0.000528519 0 0.00837757 0.0043636 0 0.00696856 0.00460798 0 0.00573612 0.00432486 0 0.00483241 0.00386034 0 0.00416625 0.00339553 0 0.0036543 0.00298025 0 0.00324173 0.00262228 0 0.0028981 0.00231691 0 0.00260419 0.00205709 0 0.00234833 0.00183585 0 0.00212251 0.00164712 0 0.00192124 0.00148572 0 0.00174047 0.00134736 0 0.00157711 0.00122847 0 0.00142869 0.00112609 0 0.00129322 0.00103776 0 0.00116904 0.000961428 0 0.00105474 0.000895399 0 0.000949085 0.000838252 0 0.000851017 0.000788806 0 0.000759595 0.000746072 0 0.000673983 0.000709225 0 0.000593432 0.000677577 0 0.000517263 0.000650555 0 0.000444858 0.000627683 0 0.000375649 0.000608567 0 0.000309108 0.000592889 0 0.000244744 0.000580389 0 0.000182088 0.000570867 0 0.000120698 0.000564171 0 6.01414e-05 0.000560194 0 0 0.000558876 0 0.00870961 0.00513088 0 0.00688518 0.00537473 0 0.00547787 0.00487458 0 0.00456086 0.0042405 0 0.00392584 0.00367643 0 0.00344884 0.00320006 0 0.00306823 0.00280228 0 0.00275139 0.00246914 0 0.00247994 0.00218873 0 0.00224269 0.00195157 0 0.00203242 0.00174999 0 0.00184416 0.001578 0 0.00167434 0.00143068 0 0.00152021 0.00130414 0 0.00137963 0.00119512 0 0.00125084 0.00110102 0 0.00113238 0.00101963 0 0.001023 0.000949163 0 0.000921603 0.000888119 0 0.000827236 0.000835249 0 0.000739053 0.000789513 0 0.000656293 0.000750043 0 0.000578272 0.000716113 0 0.000504364 0.000687119 0 0.000433999 0.00066256 0 0.000366647 0.000642023 0 0.000301816 0.000625169 0 0.000239043 0.000611725 0 0.000177889 0.000601481 0 0.000117934 0.000594274 0 5.87701e-05 0.000589993 0 0 0.000588574 0 0.00931619 0.0061183 0 0.00665146 0.0063542 0 0.00509573 0.00543673 0 0.00422175 0.00460212 0 0.00364728 0.00393424 0 0.00322013 0.00340034 0 0.002879 0.00296617 0 0.00259359 0.00260821 0 0.00234717 0.00230964 0 0.00213039 0.00205841 0 0.00193684 0.00184552 0 0.00176251 0.00166412 0 0.00160428 0.00150884 0 0.00145994 0.00137543 0 0.00132763 0.00126044 0 0.00120589 0.0011611 0 0.00109346 0.00107511 0 0.000989269 0.00100058 0 0.000892365 0.000935947 0 0.000801912 0.000879913 0 0.000717156 0.000831393 0 0.00063742 0.000789479 0 0.000562084 0.000753417 0 0.000490581 0.000722577 0 0.000422387 0.000696435 0 0.000357015 0.000674559 0 0.000294009 0.000656597 0 0.000232938 0.000642263 0 0.00017339 0.000631336 0 0.000114972 0.000623646 0 5.73004e-05 0.000619079 0 0 0.000617564 0 0.010377 0.00822908 0 0.00602377 0.00755806 0 0.00458454 0.00595185 0 0.00379576 0.00492295 0 0.00334422 0.00415816 0 0.00296466 0.00357608 0 0.00267955 0.00311121 0 0.00242435 0.00273251 0 0.0022081 0.00241884 0 0.00201179 0.00215568 0 0.00183678 0.00193324 0 0.0016767 0.00174373 0 0.00153085 0.00158156 0 0.00139662 0.00144212 0 0.00127301 0.00132187 0 0.0011586 0.00121786 0 0.00105249 0.00112773 0 0.000953716 0.00104953 0 0.000861518 0.000981632 0 0.000775165 0.000922704 0 0.000694007 0.000871624 0 0.000617448 0.000827456 0 0.000544939 0.000789419 0 0.000475971 0.000756862 0 0.000410071 0.000729245 0 0.000346793 0.000706119 0 0.00028572 0.00068712 0 0.000226452 0.000671951 0 0.00016861 0.000660383 0 0.000111824 0.00065224 0 5.5738e-05 0.000647402 0 0 0.000645797 0 0.0183636 0.0191787 0 0.00499232 0.00817506 0 0.00354797 0.00643118 0 0.00353487 0.0051497 0 0.00289028 0.00434696 0 0.00275843 0.0037209 0 0.00243449 0.00323489 0 0.00226559 0.00284134 0 0.00205364 0.00251493 0 0.00189327 0.00224327 0 0.00173026 0.00201249 0 0.00158872 0.00181671 0 0.00145382 0.00164853 0 0.001331 0.0015041 0 0.00121592 0.00137921 0 0.00110932 0.00127117 0 0.00100964 0.00117737 0 0.000916538 0.00109591 0 0.000829203 0.00102508 0 0.000747122 0.00096354 0 0.000669707 0.000910131 0 0.000596465 0.000863903 0 0.000526909 0.000824053 0 0.000460595 0.000789916 0 0.000397099 0.000760934 0 0.00033602 0.00073665 0 0.000276979 0.000716686 0 0.00021961 0.00070074 0 0.000163565 0.000688574 0 0.000108501 0.000680008 0 5.40887e-05 0.000674918 0 0 0.00067323 0 </DataArray> 
</PointData> 
<Points> 
<DataArray type="Float32" NumberOfComponents="3"> 