<?xml version="1.0"?> 
<VTKFile type="StructuredGrid" version="0.1"> 
<StructuredGrid WholeExtent="0 127 0 127 0 0"> 
<Piece Extent="0 127 0 127 0 0"> 
<PointData>
<DataArray type="Float32" Name="B" format="ascii" NumberOfComponents="3"> 
0 -1.81987e-06 0 8.04546e-08 -1.82027e-06 0 1.60945e-07 -1.82144e-06 0 2.41507e-07 -1.82339e-06 0 3.22176e-07 -1.82613e-06 0 4.02988e-07 -1.82964e-06 0 4.83978e-07 -1.83394e-06 0 5.65184e-07 -1.83902e-06 0 6.46641e-07 -1.84489e-06 0 7.28384e-07 -1.85154e-06 0 8.10451e-07 -1.85898e-06 0 8.92877e-07 -1.86721e-06 0 9.757e-07 -1.87623e-06 0 1.05896e-06 -1.88605e-06 0 1.14268e-06 -1.89665e-06 0 1.22691e-06 -1.90806e-06 0 1.31169e-06 -1.92027e-06 0 1.39705e-06 -1.93327e-06 0 1.48302e-06 -1.94709e-06 0 1.56966e-06 -1.96171e-06 0 1.65699e-06 -1.97714e-06 0 1.74505e-06 -1.99338e-06 0 1.83389e-06 -2.01044e-06 0 1.92354e-06 -2.02832e-06 0 2.01404e-06 -2.04702e-06 0 2.10543e-06 -2.06655e-06 0 2.19775e-06 -2.0869e-06 0 2.29105e-06 -2.10808e-06 0 2.38536e-06 -2.13009e-06 0 2.48073e-06 -2.15294e-06 0 2.57719e-06 -2.17662e-06 0 2.67479e-06 -2.20114e-06 0 2.77357e-06 -2.2265e-06 0 2.87358e-06 -2.2527e-06 0 2.97486e-06 -2.27974e-06 0 3.07745e-06 -2.30763e-06 0 3.1814e-06 -2.33636e-06 0 3.28675e-06 -2.36593e-06 0 3.39356e-06 -2.39634e-06 0 3.50186e-06 -2.42759e-06 0 3.6117e-06 -2.45967e-06 0 3.72314e-06 -2.49259e-06 0 3.83621e-06 -2.52633e-06 0 3.95098e-06 -2.5609e-06 0 4.06749e-06 -2.59629e-06 0 4.18578e-06 -2.63248e-06 0 4.30592e-06 -2.66947e-06 0 4.42796e-06 -2.70725e-06 0 4.55195e-06 -2.74581e-06 0 4.67793e-06 -2.78513e-06 0 4.80598e-06 -2.82519e-06 0 4.93614e-06 -2.86598e-06 0 5.06848e-06 -2.90747e-06 0 5.20304e-06 -2.94965e-06 0 5.33989e-06 -2.99248e-06 0 5.4791e-06 -3.03593e-06 0 5.62072e-06 -3.07998e-06 0 5.76481e-06 -3.12458e-06 0 5.91145e-06 -3.16969e-06 0 6.06069e-06 -3.21527e-06 0 6.2126e-06 -3.26128e-06 0 6.36726e-06 -3.30764e-06 0 6.52474e-06 -3.3543e-06 0 6.6851e-06 -3.4012e-06 0 6.84843e-06 -3.44826e-06 0 7.01479e-06 -3.4954e-06 0 7.18428e-06 -3.54252e-06 0 7.35697e-06 -3.58954e-06 0 7.53295e-06 -3.63633e-06 0 7.71229e-06 -3.68279e-06 0 7.89511e-06 -3.72879e-06 0 8.08148e-06 -3.77418e-06 0 8.27151e-06 -3.81881e-06 0 8.4653e-06 -3.86251e-06 0 8.66295e-06 -3.90509e-06 0 8.86458e-06 -3.94635e-06 0 9.0703e-06 -3.98608e-06 0 9.28023e-06 -4.02403e-06 0 9.4945e-06 -4.05994e-06 0 9.71325e-06 -4.09353e-06 0 9.93662e-06 -4.12447e-06 0 1.01648e-05 -4.15243e-06 0 1.03978e-05 -4.17704e-06 0 1.0636e-05 -4.19789e-06 0 1.08795e-05 -4.21453e-06 0 1.11284e-05 -4.22648e-06 0 1.1383e-05 -4.23322e-06 0 1.16435e-05 -4.23415e-06 0 1.19102e-05 -4.22865e-06 0 1.21833e-05 -4.21603e-06 0 1.24631e-05 -4.19553e-06 0 1.27499e-05 -4.16632e-06 0 1.3044e-05 -4.12749e-06 0 1.33459e-05 -4.07805e-06 0 1.36558e-05 -4.01689e-06 0 1.39743e-05 -3.94283e-06 0 1.43017e-05 -3.85453e-06 0 1.46387e-05 -3.75053e-06 0 1.49858e-05 -3.62923e-06 0 1.53437e-05 -3.48884e-06 0 1.5713e-05 -3.32738e-06 0 1.60946e-05 -3.14266e-06 0 1.64893e-05 -2.93222e-06 0 1.68982e-05 -2.69333e-06 0 1.73223e-05 -2.42291e-06 0 1.7763e-05 -2.11749e-06 0 1.82216e-05 -1.77317e-06 0 1.86998e-05 -1.38546e-06 0 1.91996e-05 -9.49273e-07 0 1.9723e-05 -4.58712e-07 0 2.02728e-05 9.30573e-08 0 2.0852e-05 7.1403e-07 0 2.14643e-05 1.41369e-06 0 2.21141e-05 2.20331e-06 0 2.28071e-05 3.0967e-06 0 2.35503e-05 4.11046e-06 0 2.43531e-05 5.26632e-06 0 2.52269e-05 6.58953e-06 0 2.61902e-05 8.11921e-06 0 2.72626e-05 9.89265e-06 0 2.84903e-05 1.19997e-05 0 2.99041e-05 1.44756e-05 0 3.16625e-05 1.76124e-05 0 3.38019e-05 2.12879e-05 0 3.70596e-05 2.68077e-05 0 4.17804e-05 3.29022e-05 0 5.43173e-05 4.71092e-05 0 8.9999e-05 5.53405e-05 0 0 -1.89992e-06 0 7.96565e-08 -1.90033e-06 0 1.59348e-07 -1.90156e-06 0 2.39112e-07 -1.9036e-06 0 3.18981e-07 -1.90646e-06 0 3.98993e-07 -1.91014e-06 0 4.79183e-07 -1.91463e-06 0 5.59586e-07 -1.91994e-06 0 6.40239e-07 -1.92608e-06 0 7.21178e-07 -1.93304e-06 0 8.02438e-07 -1.94082e-06 0 8.84056e-07 -1.94942e-06 0 9.66068e-07 -1.95886e-06 0 1.04851e-06 -1.96912e-06 0 1.13142e-06 -1.98022e-06 0 1.21484e-06 -1.99215e-06 0 1.29879e-06 -2.00491e-06 0 1.38333e-06 -2.01852e-06 0 1.46848e-06 -2.03297e-06 0 1.55428e-06 -2.04827e-06 0 1.64078e-06 -2.06441e-06 0 1.72801e-06 -2.08141e-06 0 1.81601e-06 -2.09926e-06 0 1.90482e-06 -2.11797e-06 0 1.99448e-06 -2.13754e-06 0 2.08503e-06 -2.15797e-06 0 2.1765e-06 -2.17928e-06 0 2.26895e-06 -2.20145e-06 0 2.3624e-06 -2.22449e-06 0 2.45691e-06 -2.24841e-06 0 2.55252e-06 -2.27321e-06 0 2.64926e-06 -2.29889e-06 0 2.74718e-06 -2.32546e-06 0 2.84632e-06 -2.3529e-06 0 2.94674e-06 -2.38124e-06 0 3.04846e-06 -2.41046e-06 0 3.15155e-06 -2.44057e-06 0 3.25603e-06 -2.47157e-06 0 3.36197e-06 -2.50345e-06 0 3.46941e-06 -2.53622e-06 0 3.5784e-06 -2.56988e-06 0 3.68898e-06 -2.60441e-06 0 3.8012e-06 -2.63983e-06 0 3.91512e-06 -2.67611e-06 0 4.03079e-06 -2.71327e-06 0 4.14826e-06 -2.75128e-06 0 4.26758e-06 -2.79015e-06 0 4.38881e-06 -2.82986e-06 0 4.512e-06 -2.8704e-06 0 4.6372e-06 -2.91175e-06 0 4.76448e-06 -2.95391e-06 0 4.8939e-06 -2.99685e-06 0 5.02551e-06 -3.04056e-06 0 5.15938e-06 -3.085e-06 0 5.29556e-06 -3.13017e-06 0 5.43412e-06 -3.17602e-06 0 5.57513e-06 -3.22253e-06 0 5.71866e-06 -3.26966e-06 0 5.86477e-06 -3.31737e-06 0 6.01353e-06 -3.36562e-06 0 6.16502e-06 -3.41436e-06 0 6.31931e-06 -3.46353e-06 0 6.47648e-06 -3.51308e-06 0 6.6366e-06 -3.56294e-06 0 6.79977e-06 -3.61304e-06 0 6.96606e-06 -3.6633e-06 0 7.13557e-06 -3.71363e-06 0 7.30837e-06 -3.76394e-06 0 7.48458e-06 -3.81413e-06 0 7.66428e-06 -3.86407e-06 0 7.84758e-06 -3.91365e-06 0 8.03458e-06 -3.96272e-06 0 8.2254e-06 -4.01114e-06 0 8.42015e-06 -4.05874e-06 0 8.61896e-06 -4.10534e-06 0 8.82195e-06 -4.15075e-06 0 9.02926e-06 -4.19475e-06 0 9.24103e-06 -4.2371e-06 0 9.45741e-06 -4.27756e-06 0 9.67856e-06 -4.31585e-06 0 9.90466e-06 -4.35165e-06 0 1.01359e-05 -4.38465e-06 0 1.03724e-05 -4.41447e-06 0 1.06145e-05 -4.44073e-06 0 1.08623e-05 -4.46299e-06 0 1.1116e-05 -4.48078e-06 0 1.1376e-05 -4.4936e-06 0 1.16425e-05 -4.50087e-06 0 1.19159e-05 -4.50199e-06 0 1.21963e-05 -4.4963e-06 0 1.24842e-05 -4.48305e-06 0 1.278e-05 -4.46145e-06 0 1.3084e-05 -4.43062e-06 0 1.33968e-05 -4.3896e-06 0 1.37188e-05 -4.33734e-06 0 1.40505e-05 -4.27269e-06 0 1.43927e-05 -4.19437e-06 0 1.47458e-05 -4.10097e-06 0 1.51108e-05 -3.99096e-06 0 1.54883e-05 -3.86264e-06 0 1.58793e-05 -3.7141e-06 0 1.62849e-05 -3.54326e-06 0 1.67061e-05 -3.34778e-06 0 1.71444e-05 -3.12506e-06 0 1.7601e-05 -2.87219e-06 0 1.80778e-05 -2.58589e-06 0 1.85766e-05 -2.26247e-06 0 1.90996e-05 -1.89775e-06 0 1.96495e-05 -1.48696e-06 0 2.02293e-05 -1.02462e-06 0 2.08424e-05 -5.04443e-07 0 2.14934e-05 8.09162e-08 0 2.21873e-05 7.40038e-07 0 2.29306e-05 1.48309e-06 0 2.37315e-05 2.32218e-06 0 2.46003e-05 3.27202e-06 0 2.55505e-05 4.35046e-06 0 2.66006e-05 5.58004e-06 0 2.77754e-05 6.98825e-06 0 2.91119e-05 8.61248e-06 0 3.06627e-05 1.04963e-05 0 3.25162e-05 1.27086e-05 0 3.48085e-05 1.53147e-05 0 3.78034e-05 1.84474e-05 0 4.1998e-05 2.215e-05 0 4.83931e-05 2.64272e-05 0 5.91361e-05 3.01544e-05 0 7.03794e-05 2.55165e-05 0 0 -1.97915e-06 0 7.88228e-08 -1.97958e-06 0 1.57681e-07 -1.98086e-06 0 2.3661e-07 -1.98299e-06 0 3.15645e-07 -1.98597e-06 0 3.94821e-07 -1.98981e-06 0 4.74174e-07 -1.9945e-06 0 5.53739e-07 -2.00005e-06 0 6.33553e-07 -2.00645e-06 0 7.1365e-07 -2.01371e-06 0 7.94067e-07 -2.02183e-06 0 8.7484e-07 -2.03081e-06 0 9.56005e-07 -2.04065e-06 0 1.0376e-06 -2.05137e-06 0 1.11966e-06 -2.06295e-06 0 1.20222e-06 -2.0754e-06 0 1.28532e-06 -2.08872e-06 0 1.36899e-06 -2.10293e-06 0 1.45328e-06 -2.11801e-06 0 1.53822e-06 -2.13398e-06 0 1.62385e-06 -2.15083e-06 0 1.7102e-06 -2.16858e-06 0 1.79733e-06 -2.18722e-06 0 1.88526e-06 -2.20676e-06 0 1.97403e-06 -2.22719e-06 0 2.06369e-06 -2.24853e-06 0 2.15428e-06 -2.27078e-06 0 2.24583e-06 -2.29394e-06 0 2.33839e-06 -2.31802e-06 0 2.432e-06 -2.34301e-06 0 2.52671e-06 -2.36893e-06 0 2.62254e-06 -2.39576e-06 0 2.71956e-06 -2.42353e-06 0 2.81779e-06 -2.45222e-06 0 2.9173e-06 -2.48185e-06 0 3.01811e-06 -2.5124e-06 0 3.12029e-06 -2.54389e-06 0 3.22386e-06 -2.57632e-06 0 3.32889e-06 -2.60968e-06 0 3.43542e-06 -2.64397e-06 0 3.5435e-06 -2.6792e-06 0 3.65317e-06 -2.71536e-06 0 3.7645e-06 -2.75244e-06 0 3.87752e-06 -2.79045e-06 0 3.9923e-06 -2.82938e-06 0 4.10888e-06 -2.86923e-06 0 4.22733e-06 -2.90998e-06 0 4.34769e-06 -2.95163e-06 0 4.47003e-06 -2.99416e-06 0 4.5944e-06 -3.03757e-06 0 4.72086e-06 -3.08184e-06 0 4.84947e-06 -3.12696e-06 0 4.98029e-06 -3.1729e-06 0 5.1134e-06 -3.21965e-06 0 5.24884e-06 -3.26717e-06 0 5.3867e-06 -3.31546e-06 0 5.52704e-06 -3.36446e-06 0 5.66993e-06 -3.41416e-06 0 5.81544e-06 -3.46451e-06 0 5.96365e-06 -3.51547e-06 0 6.11464e-06 -3.567e-06 0 6.26848e-06 -3.61904e-06 0 6.42526e-06 -3.67154e-06 0 6.58507e-06 -3.72443e-06 0 6.74799e-06 -3.77766e-06 0 6.91412e-06 -3.83113e-06 0 7.08355e-06 -3.88476e-06 0 7.25638e-06 -3.93848e-06 0 7.43272e-06 -3.99216e-06 0 7.61267e-06 -4.04572e-06 0 7.79634e-06 -4.09901e-06 0 7.98387e-06 -4.15192e-06 0 8.17536e-06 -4.20429e-06 0 8.37095e-06 -4.25597e-06 0 8.57079e-06 -4.30679e-06 0 8.77501e-06 -4.35655e-06 0 8.98376e-06 -4.40505e-06 0 9.19722e-06 -4.45207e-06 0 9.41555e-06 -4.49736e-06 0 9.63894e-06 -4.54064e-06 0 9.86758e-06 -4.58164e-06 0 1.01017e-05 -4.62003e-06 0 1.03415e-05 -4.65546e-06 0 1.05872e-05 -4.68756e-06 0 1.08391e-05 -4.71591e-06 0 1.10974e-05 -4.74006e-06 0 1.13626e-05 -4.75951e-06 0 1.16347e-05 -4.77374e-06 0 1.19144e-05 -4.78215e-06 0 1.22018e-05 -4.7841e-06 0 1.24975e-05 -4.77891e-06 0 1.28018e-05 -4.76579e-06 0 1.31153e-05 -4.74392e-06 0 1.34385e-05 -4.71239e-06 0 1.3772e-05 -4.67018e-06 0 1.41165e-05 -4.6162e-06 0 1.44726e-05 -4.54926e-06 0 1.48412e-05 -4.46801e-06 0 1.52232e-05 -4.371e-06 0 1.56195e-05 -4.25662e-06 0 1.60312e-05 -4.12309e-06 0 1.64596e-05 -3.96846e-06 0 1.69061e-05 -3.79054e-06 0 1.73722e-05 -3.5869e-06 0 1.78597e-05 -3.35484e-06 0 1.83707e-05 -3.09134e-06 0 1.89075e-05 -2.79301e-06 0 1.94729e-05 -2.45603e-06 0 2.00699e-05 -2.07607e-06 0 2.07023e-05 -1.64825e-06 0 2.13747e-05 -1.16695e-06 0 2.20922e-05 -6.25749e-07 0 2.28614e-05 -1.72482e-08 0 2.36903e-05 6.67145e-07 0 2.45889e-05 1.43745e-06 0 2.557e-05 2.3054e-06 0 2.66502e-05 3.28482e-06 0 2.78516e-05 4.39189e-06 0 2.92044e-05 5.64582e-06 0 3.07506e-05 7.06816e-06 0 3.25513e-05 8.68376e-06 0 3.46965e-05 1.05145e-05 0 3.73259e-05 1.25765e-05 0 4.06557e-05 1.48436e-05 0 4.50087e-05 1.71844e-05 0 5.08064e-05 1.91733e-05 0 5.79358e-05 1.95503e-05 0 6.57229e-05 1.71466e-05 0 0 -2.05753e-06 0 7.79539e-08 -2.05798e-06 0 1.55943e-07 -2.05931e-06 0 2.34002e-07 -2.06153e-06 0 3.12167e-07 -2.06464e-06 0 3.90472e-07 -2.06863e-06 0 4.68952e-07 -2.07352e-06 0 5.47644e-07 -2.07929e-06 0 6.26583e-07 -2.08596e-06 0 7.05803e-07 -2.09352e-06 0 7.85341e-07 -2.10197e-06 0 8.65233e-07 -2.11133e-06 0 9.45514e-07 -2.12158e-06 0 1.02622e-06 -2.13274e-06 0 1.10739e-06 -2.1448e-06 0 1.18906e-06 -2.15777e-06 0 1.27126e-06 -2.17166e-06 0 1.35404e-06 -2.18645e-06 0 1.43743e-06 -2.20217e-06 0 1.52146e-06 -2.2188e-06 0 1.60618e-06 -2.23637e-06 0 1.69163e-06 -2.25486e-06 0 1.77784e-06 -2.27428e-06 0 1.86485e-06 -2.29464e-06 0 1.9527e-06 -2.31594e-06 0 2.04143e-06 -2.33819e-06 0 2.13109e-06 -2.36138e-06 0 2.22171e-06 -2.38553e-06 0 2.31333e-06 -2.41063e-06 0 2.406e-06 -2.43669e-06 0 2.49976e-06 -2.46372e-06 0 2.59465e-06 -2.49171e-06 0 2.69072e-06 -2.52067e-06 0 2.788e-06 -2.55061e-06 0 2.88655e-06 -2.58152e-06 0 2.98641e-06 -2.61341e-06 0 3.08762e-06 -2.64628e-06 0 3.19024e-06 -2.68013e-06 0 3.29431e-06 -2.71497e-06 0 3.39988e-06 -2.75079e-06 0 3.507e-06 -2.78759e-06 0 3.61572e-06 -2.82537e-06 0 3.72609e-06 -2.86413e-06 0 3.83817e-06 -2.90387e-06 0 3.952e-06 -2.94459e-06 0 4.06765e-06 -2.98627e-06 0 4.18516e-06 -3.02891e-06 0 4.3046e-06 -3.07251e-06 0 4.42603e-06 -3.11706e-06 0 4.5495e-06 -3.16253e-06 0 4.67507e-06 -3.20893e-06 0 4.80282e-06 -3.25624e-06 0 4.93279e-06 -3.30444e-06 0 5.06507e-06 -3.35351e-06 0 5.19972e-06 -3.40342e-06 0 5.3368e-06 -3.45417e-06 0 5.47639e-06 -3.5057e-06 0 5.61857e-06 -3.558e-06 0 5.76341e-06 -3.61104e-06 0 5.91099e-06 -3.66476e-06 0 6.0614e-06 -3.71913e-06 0 6.21471e-06 -3.77409e-06 0 6.37102e-06 -3.82961e-06 0 6.53042e-06 -3.8856e-06 0 6.69301e-06 -3.94202e-06 0 6.85888e-06 -3.99879e-06 0 7.02813e-06 -4.05582e-06 0 7.20088e-06 -4.11303e-06 0 7.37724e-06 -4.17033e-06 0 7.55733e-06 -4.22761e-06 0 7.74127e-06 -4.28476e-06 0 7.92918e-06 -4.34164e-06 0 8.12122e-06 -4.39813e-06 0 8.31752e-06 -4.45406e-06 0 8.51823e-06 -4.50928e-06 0 8.72352e-06 -4.56361e-06 0 8.93357e-06 -4.61684e-06 0 9.14854e-06 -4.66876e-06 0 9.36863e-06 -4.71914e-06 0 9.59406e-06 -4.76773e-06 0 9.82504e-06 -4.81424e-06 0 1.00618e-05 -4.85837e-06 0 1.03046e-05 -4.89979e-06 0 1.05537e-05 -4.93814e-06 0 1.08095e-05 -4.97302e-06 0 1.10721e-05 -5.00401e-06 0 1.1342e-05 -5.03065e-06 0 1.16195e-05 -5.05241e-06 0 1.19051e-05 -5.06875e-06 0 1.21991e-05 -5.07906e-06 0 1.2502e-05 -5.08267e-06 0 1.28144e-05 -5.07888e-06 0 1.31369e-05 -5.06688e-06 0 1.34699e-05 -5.04583e-06 0 1.38143e-05 -5.01477e-06 0 1.41707e-05 -4.97268e-06 0 1.45401e-05 -4.91843e-06 0 1.49232e-05 -4.85078e-06 0 1.53212e-05 -4.76838e-06 0 1.57352e-05 -4.66972e-06 0 1.61664e-05 -4.55318e-06 0 1.66163e-05 -4.41693e-06 0 1.70864e-05 -4.25898e-06 0 1.75786e-05 -4.07711e-06 0 1.8095e-05 -3.86889e-06 0 1.86378e-05 -3.63157e-06 0 1.92099e-05 -3.36213e-06 0 1.98144e-05 -3.0572e-06 0 2.04548e-05 -2.71298e-06 0 2.11356e-05 -2.32525e-06 0 2.18618e-05 -1.88923e-06 0 2.26395e-05 -1.39958e-06 0 2.34761e-05 -8.50257e-07 0 2.43806e-05 -2.34492e-07 0 2.53642e-05 4.55321e-07 0 2.64412e-05 1.22765e-06 0 2.76296e-05 2.09175e-06 0 2.89529e-05 3.05749e-06 0 3.04422e-05 4.13461e-06 0 3.21393e-05 5.33158e-06 0 3.41011e-05 6.65193e-06 0 3.64057e-05 8.0889e-06 0 3.91591e-05 9.60961e-06 0 4.24973e-05 1.11311e-05 0 4.65683e-05 1.24623e-05 0 5.14312e-05 1.32347e-05 0 5.69173e-05 1.2893e-05 0 6.20996e-05 1.08836e-05 0 0 -2.13502e-06 0 7.70499e-08 -2.13549e-06 0 1.54135e-07 -2.13687e-06 0 2.31289e-07 -2.13918e-06 0 3.08548e-07 -2.14241e-06 0 3.85947e-07 -2.14656e-06 0 4.6352e-07 -2.15164e-06 0 5.41303e-07 -2.15764e-06 0 6.1933e-07 -2.16457e-06 0 6.97638e-07 -2.17243e-06 0 7.76261e-07 -2.18122e-06 0 8.55236e-07 -2.19095e-06 0 9.34598e-07 -2.20161e-06 0 1.01438e-06 -2.21321e-06 0 1.09463e-06 -2.22575e-06 0 1.17537e-06 -2.23924e-06 0 1.25664e-06 -2.25367e-06 0 1.33848e-06 -2.26906e-06 0 1.42093e-06 -2.2854e-06 0 1.50402e-06 -2.3027e-06 0 1.5878e-06 -2.32097e-06 0 1.67229e-06 -2.3402e-06 0 1.75754e-06 -2.36041e-06 0 1.8436e-06 -2.38159e-06 0 1.93049e-06 -2.40375e-06 0 2.01825e-06 -2.42689e-06 0 2.10694e-06 -2.45103e-06 0 2.19658e-06 -2.47615e-06 0 2.28723e-06 -2.50228e-06 0 2.37891e-06 -2.52941e-06 0 2.47168e-06 -2.55754e-06 0 2.56558e-06 -2.58669e-06 0 2.66065e-06 -2.61684e-06 0 2.75694e-06 -2.64802e-06 0 2.85449e-06 -2.68022e-06 0 2.95335e-06 -2.71344e-06 0 3.05356e-06 -2.74769e-06 0 3.15517e-06 -2.78297e-06 0 3.25823e-06 -2.81928e-06 0 3.36279e-06 -2.85662e-06 0 3.4689e-06 -2.895e-06 0 3.57662e-06 -2.93441e-06 0 3.68598e-06 -2.97485e-06 0 3.79706e-06 -3.01632e-06 0 3.90989e-06 -3.05882e-06 0 4.02454e-06 -3.10235e-06 0 4.14107e-06 -3.14689e-06 0 4.25953e-06 -3.19245e-06 0 4.37999e-06 -3.23901e-06 0 4.5025e-06 -3.28657e-06 0 4.62712e-06 -3.33512e-06 0 4.75394e-06 -3.38463e-06 0 4.883e-06 -3.4351e-06 0 5.01438e-06 -3.48652e-06 0 5.14815e-06 -3.53885e-06 0 5.28439e-06 -3.59208e-06 0 5.42316e-06 -3.64618e-06 0 5.56455e-06 -3.70112e-06 0 5.70864e-06 -3.75687e-06 0 5.85551e-06 -3.8134e-06 0 6.00525e-06 -3.87066e-06 0 6.15794e-06 -3.9286e-06 0 6.31369e-06 -3.98718e-06 0 6.47259e-06 -4.04635e-06 0 6.63474e-06 -4.10604e-06 0 6.80025e-06 -4.16617e-06 0 6.96922e-06 -4.22669e-06 0 7.14178e-06 -4.2875e-06 0 7.31804e-06 -4.34852e-06 0 7.49814e-06 -4.40965e-06 0 7.68221e-06 -4.47077e-06 0 7.87038e-06 -4.53177e-06 0 8.06281e-06 -4.59252e-06 0 8.25967e-06 -4.65287e-06 0 8.4611e-06 -4.71267e-06 0 8.66729e-06 -4.77175e-06 0 8.87844e-06 -4.82993e-06 0 9.09473e-06 -4.88699e-06 0 9.31639e-06 -4.94272e-06 0 9.54364e-06 -4.99688e-06 0 9.77672e-06 -5.04921e-06 0 1.00159e-05 -5.09941e-06 0 1.02614e-05 -5.14718e-06 0 1.05137e-05 -5.19217e-06 0 1.07729e-05 -5.23402e-06 0 1.10395e-05 -5.27233e-06 0 1.13138e-05 -5.30665e-06 0 1.15963e-05 -5.3365e-06 0 1.18873e-05 -5.36137e-06 0 1.21874e-05 -5.38069e-06 0 1.24972e-05 -5.39385e-06 0 1.28171e-05 -5.40016e-06 0 1.31478e-05 -5.3989e-06 0 1.349e-05 -5.38926e-06 0 1.38445e-05 -5.37038e-06 0 1.42121e-05 -5.3413e-06 0 1.45938e-05 -5.30099e-06 0 1.49905e-05 -5.2483e-06 0 1.54033e-05 -5.18199e-06 0 1.58337e-05 -5.1007e-06 0 1.62829e-05 -5.00294e-06 0 1.67527e-05 -4.88707e-06 0 1.72447e-05 -4.75131e-06 0 1.77609e-05 -4.59367e-06 0 1.83038e-05 -4.41199e-06 0 1.88758e-05 -4.20388e-06 0 1.94801e-05 -3.96672e-06 0 2.012e-05 -3.6976e-06 0 2.07996e-05 -3.39335e-06 0 2.15236e-05 -3.05046e-06 0 2.22976e-05 -2.66507e-06 0 2.31281e-05 -2.23298e-06 0 2.40231e-05 -1.74962e-06 0 2.49921e-05 -1.21009e-06 0 2.60469e-05 -6.09234e-07 0 2.72019e-05 5.81541e-08 0 2.84753e-05 7.97018e-07 0 2.989e-05 1.61135e-06 0 3.14748e-05 2.50302e-06 0 3.32669e-05 3.46958e-06 0 3.53133e-05 4.50057e-06 0 3.76722e-05 5.5705e-06 0 4.04121e-05 6.6282e-06 0 4.36024e-05 7.57834e-06 0 4.72844e-05 8.26083e-06 0 5.14207e-05 8.44375e-06 0 5.57851e-05 7.85354e-06 0 6.00951e-05 6.44245e-06 0 0 -2.2116e-06 0 7.61111e-08 -2.21208e-06 0 1.52257e-07 -2.21352e-06 0 2.28472e-07 -2.21591e-06 0 3.0479e-07 -2.21926e-06 0 3.81247e-07 -2.22357e-06 0 4.57878e-07 -2.22884e-06 0 5.34716e-07 -2.23507e-06 0 6.11798e-07 -2.24226e-06 0 6.89157e-07 -2.25042e-06 0 7.6683e-07 -2.25954e-06 0 8.44852e-07 -2.26963e-06 0 9.23258e-07 -2.2807e-06 0 1.00208e-06 -2.29274e-06 0 1.08137e-06 -2.30575e-06 0 1.16114e-06 -2.31975e-06 0 1.24144e-06 -2.33474e-06 0 1.32231e-06 -2.35071e-06 0 1.40379e-06 -2.36768e-06 0 1.4859e-06 -2.38564e-06 0 1.56869e-06 -2.4046e-06 0 1.65219e-06 -2.42457e-06 0 1.73645e-06 -2.44555e-06 0 1.82151e-06 -2.46755e-06 0 1.9074e-06 -2.49057e-06 0 1.99416e-06 -2.51461e-06 0 2.08183e-06 -2.53968e-06 0 2.17046e-06 -2.56578e-06 0 2.26008e-06 -2.59293e-06 0 2.35074e-06 -2.62112e-06 0 2.44248e-06 -2.65035e-06 0 2.53535e-06 -2.68065e-06 0 2.62938e-06 -2.712e-06 0 2.72462e-06 -2.74441e-06 0 2.82112e-06 -2.77789e-06 0 2.91893e-06 -2.81244e-06 0 3.01809e-06 -2.84807e-06 0 3.11865e-06 -2.88477e-06 0 3.22065e-06 -2.92256e-06 0 3.32415e-06 -2.96142e-06 0 3.42921e-06 -3.00137e-06 0 3.53586e-06 -3.04241e-06 0 3.64417e-06 -3.08453e-06 0 3.75418e-06 -3.12774e-06 0 3.86596e-06 -3.17203e-06 0 3.97956e-06 -3.21741e-06 0 4.09505e-06 -3.26386e-06 0 4.21247e-06 -3.31138e-06 0 4.33189e-06 -3.35997e-06 0 4.45337e-06 -3.40962e-06 0 4.57699e-06 -3.46033e-06 0 4.7028e-06 -3.51207e-06 0 4.83088e-06 -3.56483e-06 0 4.9613e-06 -3.61861e-06 0 5.09412e-06 -3.67338e-06 0 5.22944e-06 -3.72912e-06 0 5.36731e-06 -3.78581e-06 0 5.50784e-06 -3.84343e-06 0 5.65109e-06 -3.90193e-06 0 5.79716e-06 -3.9613e-06 0 5.94614e-06 -4.0215e-06 0 6.09813e-06 -4.08247e-06 0 6.25322e-06 -4.14418e-06 0 6.41151e-06 -4.20658e-06 0 6.57312e-06 -4.2696e-06 0 6.73815e-06 -4.33318e-06 0 6.90672e-06 -4.39727e-06 0 7.07897e-06 -4.46177e-06 0 7.25501e-06 -4.5266e-06 0 7.43498e-06 -4.59168e-06 0 7.61904e-06 -4.6569e-06 0 7.80732e-06 -4.72214e-06 0 7.99999e-06 -4.7873e-06 0 8.19723e-06 -4.85222e-06 0 8.39921e-06 -4.91678e-06 0 8.60612e-06 -4.9808e-06 0 8.81816e-06 -5.04412e-06 0 9.03557e-06 -5.10655e-06 0 9.25855e-06 -5.16787e-06 0 9.48737e-06 -5.22787e-06 0 9.7223e-06 -5.2863e-06 0 9.9636e-06 -5.34288e-06 0 1.02116e-05 -5.39734e-06 0 1.04666e-05 -5.44935e-06 0 1.0729e-05 -5.49857e-06 0 1.09992e-05 -5.54462e-06 0 1.12775e-05 -5.5871e-06 0 1.15644e-05 -5.62557e-06 0 1.18605e-05 -5.65954e-06 0 1.21662e-05 -5.68849e-06 0 1.24821e-05 -5.71185e-06 0 1.28089e-05 -5.729e-06 0 1.31472e-05 -5.73928e-06 0 1.34979e-05 -5.74193e-06 0 1.38617e-05 -5.73618e-06 0 1.42395e-05 -5.72116e-06 0 1.46324e-05 -5.69591e-06 0 1.50415e-05 -5.65942e-06 0 1.5468e-05 -5.61056e-06 0 1.59133e-05 -5.54813e-06 0 1.6379e-05 -5.47079e-06 0 1.68668e-05 -5.3771e-06 0 1.73787e-05 -5.26548e-06 0 1.79167e-05 -5.13424e-06 0 1.84834e-05 -4.98149e-06 0 1.90816e-05 -4.80521e-06 0 1.97146e-05 -4.60321e-06 0 2.0386e-05 -4.37311e-06 0 2.11001e-05 -4.11233e-06 0 2.18618e-05 -3.81813e-06 0 2.2677e-05 -3.48758e-06 0 2.35525e-05 -3.11763e-06 0 2.44964e-05 -2.70514e-06 0 2.55183e-05 -2.24702e-06 0 2.66298e-05 -1.7404e-06 0 2.7845e-05 -1.18299e-06 0 2.91809e-05 -5.73547e-07 0 3.06581e-05 8.72055e-08 0 3.23019e-05 7.95232e-07 0 3.41423e-05 1.54101e-06 0 3.62149e-05 2.30607e-06 0 3.85587e-05 3.05806e-06 0 4.12122e-05 3.74359e-06 0 4.42024e-05 4.28087e-06 0 4.75257e-05 4.55546e-06 0 5.11161e-05 4.43048e-06 0 5.48378e-05 3.79208e-06 0 5.84503e-05 2.59555e-06 0 0 -2.28721e-06 0 7.51377e-08 -2.28771e-06 0 1.5031e-07 -2.2892e-06 0 2.2555e-07 -2.29168e-06 0 3.00894e-07 -2.29515e-06 0 3.76375e-07 -2.29962e-06 0 4.52028e-07 -2.30508e-06 0 5.27887e-07 -2.31153e-06 0 6.03987e-07 -2.31898e-06 0 6.80364e-07 -2.32743e-06 0 7.57051e-07 -2.33689e-06 0 8.34084e-07 -2.34735e-06 0 9.11499e-07 -2.35881e-06 0 9.8933e-07 -2.37129e-06 0 1.06761e-06 -2.38478e-06 0 1.14639e-06 -2.39928e-06 0 1.22568e-06 -2.41481e-06 0 1.30554e-06 -2.43137e-06 0 1.386e-06 -2.44895e-06 0 1.4671e-06 -2.46757e-06 0 1.54886e-06 -2.48723e-06 0 1.63134e-06 -2.50794e-06 0 1.71457e-06 -2.52969e-06 0 1.79859e-06 -2.5525e-06 0 1.88343e-06 -2.57636e-06 0 1.96914e-06 -2.60129e-06 0 2.05576e-06 -2.62729e-06 0 2.14333e-06 -2.65437e-06 0 2.23189e-06 -2.68253e-06 0 2.32149e-06 -2.71178e-06 0 2.41215e-06 -2.74211e-06 0 2.50394e-06 -2.77355e-06 0 2.59689e-06 -2.80609e-06 0 2.69105e-06 -2.83973e-06 0 2.78646e-06 -2.87449e-06 0 2.88317e-06 -2.91037e-06 0 2.98122e-06 -2.94737e-06 0 3.08068e-06 -2.98549e-06 0 3.18157e-06 -3.02475e-06 0 3.28397e-06 -3.06514e-06 0 3.38791e-06 -3.10666e-06 0 3.49345e-06 -3.14933e-06 0 3.60064e-06 -3.19313e-06 0 3.70955e-06 -3.23808e-06 0 3.82021e-06 -3.28416e-06 0 3.93271e-06 -3.33139e-06 0 4.04708e-06 -3.37975e-06 0 4.1634e-06 -3.42925e-06 0 4.28173e-06 -3.47988e-06 0 4.40212e-06 -3.53163e-06 0 4.52466e-06 -3.5845e-06 0 4.64941e-06 -3.63847e-06 0 4.77643e-06 -3.69355e-06 0 4.90581e-06 -3.7497e-06 0 5.03761e-06 -3.80693e-06 0 5.17192e-06 -3.86521e-06 0 5.30882e-06 -3.92452e-06 0 5.44839e-06 -3.98484e-06 0 5.59072e-06 -4.04613e-06 0 5.7359e-06 -4.10838e-06 0 5.88403e-06 -4.17155e-06 0 6.03521e-06 -4.2356e-06 0 6.18953e-06 -4.30049e-06 0 6.34711e-06 -4.36617e-06 0 6.50807e-06 -4.43259e-06 0 6.67251e-06 -4.4997e-06 0 6.84056e-06 -4.56742e-06 0 7.01236e-06 -4.63569e-06 0 7.18804e-06 -4.70444e-06 0 7.36775e-06 -4.77357e-06 0 7.55164e-06 -4.84299e-06 0 7.73987e-06 -4.91261e-06 0 7.93262e-06 -4.9823e-06 0 8.13005e-06 -5.05195e-06 0 8.33238e-06 -5.12142e-06 0 8.5398e-06 -5.19056e-06 0 8.75254e-06 -5.25921e-06 0 8.97081e-06 -5.32721e-06 0 9.19489e-06 -5.39435e-06 0 9.42502e-06 -5.46043e-06 0 9.66149e-06 -5.52522e-06 0 9.90462e-06 -5.58848e-06 0 1.01547e-05 -5.64994e-06 0 1.04122e-05 -5.70931e-06 0 1.06774e-05 -5.76627e-06 0 1.09507e-05 -5.82048e-06 0 1.12325e-05 -5.87157e-06 0 1.15235e-05 -5.91913e-06 0 1.1824e-05 -5.96272e-06 0 1.21347e-05 -6.00187e-06 0 1.24562e-05 -6.03606e-06 0 1.27892e-05 -6.06472e-06 0 1.31344e-05 -6.08726e-06 0 1.34926e-05 -6.10301e-06 0 1.38647e-05 -6.11125e-06 0 1.42518e-05 -6.11122e-06 0 1.46548e-05 -6.10207e-06 0 1.50751e-05 -6.08289e-06 0 1.55139e-05 -6.05271e-06 0 1.59727e-05 -6.01045e-06 0 1.64531e-05 -5.95497e-06 0 1.6957e-05 -5.88503e-06 0 1.74865e-05 -5.79928e-06 0 1.80438e-05 -5.69629e-06 0 1.86316e-05 -5.5745e-06 0 1.92528e-05 -5.43226e-06 0 1.99108e-05 -5.2678e-06 0 2.06094e-05 -5.07927e-06 0 2.1353e-05 -4.86472e-06 0 2.21467e-05 -4.62214e-06 0 2.29964e-05 -4.3495e-06 0 2.39088e-05 -4.04484e-06 0 2.4892e-05 -3.70635e-06 0 2.59553e-05 -3.33255e-06 0 2.71096e-05 -2.92256e-06 0 2.83681e-05 -2.47647e-06 0 2.97458e-05 -1.99594e-06 0 3.12606e-05 -1.48507e-06 0 3.29332e-05 -9.51649e-07 0 3.47866e-05 -4.09004e-07 0 3.68457e-05 1.21549e-07 0 3.91344e-05 6.07563e-07 0 4.16712e-05 1.00225e-06 0 4.44612e-05 1.24258e-06 0 4.74835e-05 1.25177e-06 0 5.06812e-05 9.52579e-07 0 5.39518e-05 2.86526e-07 0 5.71825e-05 -7.36737e-07 0 0 -2.36184e-06 0 7.413e-08 -2.36236e-06 0 1.48294e-07 -2.3639e-06 0 2.22526e-07 -2.36646e-06 0 2.9686e-07 -2.37005e-06 0 3.7133e-07 -2.37467e-06 0 4.45971e-07 -2.38032e-06 0 5.20816e-07 -2.387e-06 0 5.95901e-07 -2.39471e-06 0 6.71259e-07 -2.40345e-06 0 7.46925e-07 -2.41323e-06 0 8.22934e-07 -2.42405e-06 0 8.99322e-07 -2.43591e-06 0 9.76123e-07 -2.44882e-06 0 1.05337e-06 -2.46278e-06 0 1.13111e-06 -2.47779e-06 0 1.20936e-06 -2.49386e-06 0 1.28818e-06 -2.511e-06 0 1.36758e-06 -2.5292e-06 0 1.44762e-06 -2.54847e-06 0 1.52833e-06 -2.56882e-06 0 1.60974e-06 -2.59025e-06 0 1.6919e-06 -2.61277e-06 0 1.77484e-06 -2.63638e-06 0 1.8586e-06 -2.66109e-06 0 1.94322e-06 -2.68691e-06 0 2.02875e-06 -2.71383e-06 0 2.11522e-06 -2.74188e-06 0 2.20268e-06 -2.77105e-06 0 2.29116e-06 -2.80134e-06 0 2.38071e-06 -2.83277e-06 0 2.47137e-06 -2.86535e-06 0 2.56319e-06 -2.89907e-06 0 2.65621e-06 -2.93394e-06 0 2.75049e-06 -2.96997e-06 0 2.84605e-06 -3.00717e-06 0 2.94296e-06 -3.04554e-06 0 3.04126e-06 -3.08509e-06 0 3.141e-06 -3.12581e-06 0 3.24223e-06 -3.16772e-06 0 3.34501e-06 -3.21082e-06 0 3.44938e-06 -3.25511e-06 0 3.55541e-06 -3.30059e-06 0 3.66314e-06 -3.34727e-06 0 3.77264e-06 -3.39515e-06 0 3.88396e-06 -3.44423e-06 0 3.99717e-06 -3.49451e-06 0 4.11233e-06 -3.54598e-06 0 4.22949e-06 -3.59865e-06 0 4.34874e-06 -3.65251e-06 0 4.47013e-06 -3.70756e-06 0 4.59373e-06 -3.76378e-06 0 4.71963e-06 -3.82118e-06 0 4.84789e-06 -3.87973e-06 0 4.97859e-06 -3.93943e-06 0 5.11182e-06 -4.00027e-06 0 5.24765e-06 -4.06222e-06 0 5.38618e-06 -4.12526e-06 0 5.5275e-06 -4.18938e-06 0 5.6717e-06 -4.25455e-06 0 5.81888e-06 -4.32073e-06 0 5.96914e-06 -4.3879e-06 0 6.12259e-06 -4.45601e-06 0 6.27935e-06 -4.52503e-06 0 6.43953e-06 -4.59491e-06 0 6.60325e-06 -4.66559e-06 0 6.77066e-06 -4.73703e-06 0 6.94187e-06 -4.80915e-06 0 7.11705e-06 -4.88189e-06 0 7.29634e-06 -4.95516e-06 0 7.4799e-06 -5.0289e-06 0 7.66791e-06 -5.10299e-06 0 7.86054e-06 -5.17735e-06 0 8.05799e-06 -5.25185e-06 0 8.26047e-06 -5.32638e-06 0 8.46818e-06 -5.4008e-06 0 8.68137e-06 -5.47496e-06 0 8.90027e-06 -5.54871e-06 0 9.12516e-06 -5.62188e-06 0 9.35632e-06 -5.69427e-06 0 9.59404e-06 -5.76567e-06 0 9.83867e-06 -5.83588e-06 0 1.00905e-05 -5.90463e-06 0 1.035e-05 -5.97168e-06 0 1.06176e-05 -6.03672e-06 0 1.08936e-05 -6.09947e-06 0 1.11785e-05 -6.15956e-06 0 1.1473e-05 -6.21666e-06 0 1.17774e-05 -6.27035e-06 0 1.20925e-05 -6.32021e-06 0 1.24189e-05 -6.36578e-06 0 1.27573e-05 -6.40657e-06 0 1.31085e-05 -6.44202e-06 0 1.34734e-05 -6.47157e-06 0 1.38529e-05 -6.49459e-06 0 1.42481e-05 -6.51038e-06 0 1.46601e-05 -6.51824e-06 0 1.50902e-05 -6.51736e-06 0 1.55397e-05 -6.50692e-06 0 1.60103e-05 -6.48599e-06 0 1.65037e-05 -6.45362e-06 0 1.70217e-05 -6.40876e-06 0 1.75665e-05 -6.35032e-06 0 1.81405e-05 -6.27713e-06 0 1.87464e-05 -6.18795e-06 0 1.93873e-05 -6.08151e-06 0 2.00665e-05 -5.95646e-06 0 2.07879e-05 -5.81146e-06 0 2.1556e-05 -5.64515e-06 0 2.23758e-05 -5.45622e-06 0 2.32531e-05 -5.24349e-06 0 2.41946e-05 -5.00595e-06 0 2.52077e-05 -4.74297e-06 0 2.63014e-05 -4.45444e-06 0 2.74858e-05 -4.14107e-06 0 2.87723e-05 -3.80478e-06 0 3.01741e-05 -3.44926e-06 0 3.1706e-05 -3.08073e-06 0 3.33841e-05 -2.70897e-06 0 3.52254e-05 -2.34859e-06 0 3.72462e-05 -2.02062e-06 0 3.946e-05 -1.75404e-06 0 4.18736e-05 -1.58673e-06 0 4.44815e-05 -1.56482e-06 0 4.72603e-05 -1.73843e-06 0 5.01634e-05 -2.15283e-06 0 5.31247e-05 -2.83431e-06 0 5.60617e-05 -3.77831e-06 0 0 -2.43544e-06 0 7.30883e-08 -2.43597e-06 0 1.4621e-07 -2.43757e-06 0 2.194e-07 -2.44022e-06 0 2.9269e-07 -2.44393e-06 0 3.66116e-07 -2.4487e-06 0 4.3971e-07 -2.45453e-06 0 5.13507e-07 -2.46143e-06 0 5.87541e-07 -2.4694e-06 0 6.61846e-07 -2.47843e-06 0 7.36456e-07 -2.48853e-06 0 8.11407e-07 -2.49971e-06 0 8.86732e-07 -2.51197e-06 0 9.62467e-07 -2.52531e-06 0 1.03865e-06 -2.53973e-06 0 1.11531e-06 -2.55524e-06 0 1.19249e-06 -2.57185e-06 0 1.27022e-06 -2.58956e-06 0 1.34853e-06 -2.60837e-06 0 1.42748e-06 -2.62829e-06 0 1.50709e-06 -2.64932e-06 0 1.58739e-06 -2.67147e-06 0 1.66844e-06 -2.69475e-06 0 1.75027e-06 -2.71917e-06 0 1.83291e-06 -2.74472e-06 0 1.9164e-06 -2.77141e-06 0 2.00079e-06 -2.79926e-06 0 2.08612e-06 -2.82826e-06 0 2.17243e-06 -2.85843e-06 0 2.25976e-06 -2.88977e-06 0 2.34815e-06 -2.92229e-06 0 2.43765e-06 -2.956e-06 0 2.52829e-06 -2.9909e-06 0 2.62014e-06 -3.02699e-06 0 2.71322e-06 -3.06429e-06 0 2.8076e-06 -3.10281e-06 0 2.90331e-06 -3.14254e-06 0 3.0004e-06 -3.1835e-06 0 3.09894e-06 -3.22569e-06 0 3.19896e-06 -3.26911e-06 0 3.30052e-06 -3.31378e-06 0 3.40367e-06 -3.35969e-06 0 3.50847e-06 -3.40685e-06 0 3.61498e-06 -3.45527e-06 0 3.72325e-06 -3.50494e-06 0 3.83334e-06 -3.55587e-06 0 3.94532e-06 -3.60807e-06 0 4.05924e-06 -3.66152e-06 0 4.17518e-06 -3.71624e-06 0 4.2932e-06 -3.77221e-06 0 4.41337e-06 -3.82944e-06 0 4.53577e-06 -3.88792e-06 0 4.66046e-06 -3.94765e-06 0 4.78753e-06 -4.00861e-06 0 4.91705e-06 -4.0708e-06 0 5.04911e-06 -4.13421e-06 0 5.18379e-06 -4.19882e-06 0 5.32119e-06 -4.26462e-06 0 5.4614e-06 -4.33158e-06 0 5.60452e-06 -4.39969e-06 0 5.75064e-06 -4.46892e-06 0 5.89988e-06 -4.53924e-06 0 6.05235e-06 -4.61062e-06 0 6.20816e-06 -4.68302e-06 0 6.36744e-06 -4.75641e-06 0 6.53032e-06 -4.83073e-06 0 6.69694e-06 -4.90594e-06 0 6.86743e-06 -4.98198e-06 0 7.04195e-06 -5.05879e-06 0 7.22065e-06 -5.1363e-06 0 7.40372e-06 -5.21444e-06 0 7.59132e-06 -5.29312e-06 0 7.78365e-06 -5.37225e-06 0 7.98091e-06 -5.45172e-06 0 8.18331e-06 -5.53145e-06 0 8.39109e-06 -5.61129e-06 0 8.60448e-06 -5.69112e-06 0 8.82375e-06 -5.77081e-06 0 9.04917e-06 -5.85018e-06 0 9.28105e-06 -5.92909e-06 0 9.5197e-06 -6.00733e-06 0 9.76546e-06 -6.08472e-06 0 1.00187e-05 -6.16103e-06 0 1.02799e-05 -6.23604e-06 0 1.05493e-05 -6.30948e-06 0 1.08276e-05 -6.38109e-06 0 1.11151e-05 -6.45056e-06 0 1.14124e-05 -6.51758e-06 0 1.17202e-05 -6.58179e-06 0 1.2039e-05 -6.64283e-06 0 1.23695e-05 -6.70029e-06 0 1.27126e-05 -6.75373e-06 0 1.30689e-05 -6.80269e-06 0 1.34396e-05 -6.84667e-06 0 1.3825