<?xml version="1.0"?> 
<VTKFile type="StructuredGrid" version="0.1"> 
<StructuredGrid WholeExtent="0 127 0 127 0 0"> 
<Piece Extent="0 127 0 127 0 0"> 
<PointData>
<DataArray type="Float32" Name="B" format="ascii" NumberOfComponents="3"> 
8.9999e-05 3.67569e-05 0 9.16908e-05 1.34097e-05 0 8.45613e-05 1.26136e-06 0 7.93521e-05 1.44687e-06 0 7.81668e-05 1.38588e-07 0 7.78561e-05 -7.30933e-08 0 7.8424e-05 -4.31292e-07 0 7.94089e-05 -5.86535e-07 0 8.07582e-05 -7.36055e-07 0 8.23549e-05 -8.3885e-07 0 8.4157e-05 -9.26915e-07 0 8.61224e-05 -9.9804e-07 0 8.82255e-05 -1.0589e-06 0 9.04446e-05 -1.1106e-06 0 9.27628e-05 -1.15501e-06 0 9.51656e-05 -1.19289e-06 0 9.764e-05 -1.22487e-06 0 0.000100174 -1.2513e-06 0 0.000102757 -1.27241e-06 0 0.000105378 -1.28837e-06 0 0.000108026 -1.2993e-06 0 0.000110692 -1.30532e-06 0 0.000113366 -1.30656e-06 0 0.000116038 -1.30319e-06 0 0.000118699 -1.2954e-06 0 0.00012134 -1.28342e-06 0 0.000123954 -1.26752e-06 0 0.000126533 -1.248e-06 0 0.000129069 -1.22518e-06 0 0.000131556 -1.19938e-06 0 0.000133989 -1.17096e-06 0 0.000136363 -1.14025e-06 0 0.000138673 -1.10759e-06 0 0.000140915 -1.07329e-06 0 0.000143086 -1.03766e-06 0 0.000145185 -1.00096e-06 0 0.000147208 -9.63461e-07 0 0.000149154 -9.25381e-07 0 0.000151023 -8.86923e-07 0 0.000152813 -8.48264e-07 0 0.000154524 -8.09555e-07 0 0.000156156 -7.70924e-07 0 0.00015771 -7.32478e-07 0 0.000159185 -6.94306e-07 0 0.000160582 -6.56475e-07 0 0.000161902 -6.1904e-07 0 0.000163145 -5.82041e-07 0 0.000164313 -5.45503e-07 0 0.000165406 -5.09442e-07 0 0.000166425 -4.73865e-07 0 0.000167371 -4.38768e-07 0 0.000168245 -4.04142e-07 0 0.000169048 -3.69972e-07 0 0.000169781 -3.36235e-07 0 0.000170444 -3.02907e-07 0 0.000171039 -2.69957e-07 0 0.000171566 -2.37354e-07 0 0.000172025 -2.05061e-07 0 0.000172418 -1.73041e-07 0 0.000172745 -1.41256e-07 0 0.000173005 -1.09663e-07 0 0.000173201 -7.82221e-08 0 0.000173331 -4.68896e-08 0 0.000173395 -1.56226e-08 0 0.000173395 1.56226e-08 0 0.000173331 4.68896e-08 0 0.000173201 7.82221e-08 0 0.000173005 1.09663e-07 0 0.000172745 1.41256e-07 0 0.000172418 1.73041e-07 0 0.000172025 2.05061e-07 0 0.000171566 2.37354e-07 0 0.000171039 2.69957e-07 0 0.000170444 3.02907e-07 0 0.000169781 3.36235e-07 0 0.000169048 3.69972e-07 0 0.000168245 4.04142e-07 0 0.000167371 4.38768e-07 0 0.000166425 4.73865e-07 0 0.000165406 5.09442e-07 0 0.000164313 5.45503e-07 0 0.000163145 5.82041e-07 0 0.000161902 6.1904e-07 0 0.000160582 6.56475e-07 0 0.000159185 6.94306e-07 0 0.00015771 7.32478e-07 0 0.000156156 7.70924e-07 0 0.000154524 8.09555e-07 0 0.000152813 8.48264e-07 0 0.000151023 8.86923e-07 0 0.000149154 9.25381e-07 0 0.000147208 9.63461e-07 0 0.000145185 1.00096e-06 0 0.000143086 1.03766e-06 0 0.000140915 1.07329e-06 0 0.000138673 1.10759e-06 0 0.000136363 1.14025e-06 0 0.000133989 1.17096e-06 0 0.000131556 1.19938e-06 0 0.000129069 1.22518e-06 0 0.000126533 1.248e-06 0 0.000123954 1.26752e-06 0 0.00012134 1.28342e-06 0 0.000118699 1.2954e-06 0 0.000116038 1.30319e-06 0 0.000113366 1.30656e-06 0 0.000110692 1.30532e-06 0 0.000108026 1.2993e-06 0 0.000105378 1.28837e-06 0 0.000102757 1.27241e-06 0 0.000100174 1.2513e-06 0 9.764e-05 1.22487e-06 0 9.51656e-05 1.19289e-06 0 9.27628e-05 1.15501e-06 0 9.04446e-05 1.1106e-06 0 8.82255e-05 1.0589e-06 0 8.61224e-05 9.9804e-07 0 8.4157e-05 9.26915e-07 0 8.23549e-05 8.3885e-07 0 8.07582e-05 7.36055e-07 0 7.94089e-05 5.86535e-07 0 7.8424e-05 4.31292e-07 0 7.78561e-05 7.30933e-08 0 7.81668e-05 -1.38588e-07 0 7.93521e-05 -1.44687e-06 0 8.45613e-05 -1.26136e-06 0 9.16908e-05 -1.34097e-05 0 8.9999e-05 -3.67569e-05 0 7.03794e-05 2.61331e-05 0 7.79781e-05 1.46158e-05 0 7.85279e-05 6.46411e-06 0 7.74619e-05 2.58544e-06 0 7.6964e-05 6.74947e-07 0 7.72142e-05 -5.25721e-07 0 7.7957e-05 -1.28788e-06 0 7.90903e-05 -1.84023e-06 0 8.05096e-05 -2.24821e-06 0 8.21602e-05 -2.57064e-06 0 8.39965e-05 -2.83134e-06 0 8.59883e-05 -3.04876e-06 0 8.81114e-05 -3.23269e-06 0 9.0347e-05 -3.38999e-06 0 9.26793e-05 -3.52481e-06 0 9.50947e-05 -3.63991e-06 0 9.75808e-05 -3.73704e-06 0 0.000100126 -3.81731e-06 0 0.00010272 -3.88144e-06 0 0.000105351 -3.92995e-06 0 0.000108009 -3.96323e-06 0 0.000110685 -3.98165e-06 0 0.000113368 -3.98563e-06 0 0.000116049 -3.97567e-06 0 0.000118719 -3.95235e-06 0 0.000121368 -3.91638e-06 0 0.00012399 -3.86855e-06 0 0.000126575 -3.80975e-06 0 0.000129118 -3.74094e-06 0 0.000131611 -3.66312e-06 0 0.000134049 -3.5773e-06 0 0.000136427 -3.48451e-06 0 0.00013874 -3.38574e-06 0 0.000140985 -3.28195e-06 0 0.000143159 -3.17402e-06 0 0.00014526 -3.0628e-06 0 0.000147284 -2.94904e-06 0 0.000149232 -2.83343e-06 0 0.000151101 -2.71659e-06 0 0.000152891 -2.59903e-06 0 0.000154603 -2.48123e-06 0 0.000156235 -2.36358e-06 0 0.000157788 -2.2464e-06 0 0.000159262 -2.12996e-06 0 0.000160658 -2.01448e-06 0 0.000161977 -1.90013e-06 0 0.00016322 -1.78702e-06 0 0.000164387 -1.67526e-06 0 0.000165479 -1.56488e-06 0 0.000166497 -1.45592e-06 0 0.000167442 -1.34836e-06 0 0.000168315 -1.2422e-06 0 0.000169118 -1.13737e-06 0 0.00016985 -1.03382e-06 0 0.000170512 -9.31487e-07 0 0.000171106 -8.30273e-07 0 0.000171632 -7.30085e-07 0 0.000172091 -6.30819e-07 0 0.000172483 -5.32366e-07 0 0.000172809 -4.34609e-07 0 0.00017307 -3.37427e-07 0 0.000173265 -2.40695e-07 0 0.000173395 -1.44287e-07 0 0.000173459 -4.8074e-08 0 0.000173459 4.8074e-08 0 0.000173395 1.44287e-07 0 0.000173265 2.40695e-07 0 0.00017307 3.37427e-07 0 0.000172809 4.34609e-07 0 0.000172483 5.32366e-07 0 0.000172091 6.30819e-07 0 0.000171632 7.30085e-07 0 0.000171106 8.30273e-07 0 0.000170512 9.31487e-07 0 0.00016985 1.03382e-06 0 0.000169118 1.13737e-06 0 0.000168315 1.2422e-06 0 0.000167442 1.34836e-06 0 0.000166497 1.45592e-06 0 0.000165479 1.56488e-06 0 0.000164387 1.67526e-06 0 0.00016322 1.78702e-06 0 0.000161977 1.90013e-06 0 0.000160658 2.01448e-06 0 0.000159262 2.12996e-06 0 0.000157788 2.2464e-06 0 0.000156235 2.36358e-06 0 0.000154603 2.48123e-06 0 0.000152891 2.59903e-06 0 0.000151101 2.71659e-06 0 0.000149232 2.83343e-06 0 0.000147284 2.94904e-06 0 0.00014526 3.0628e-06 0 0.000143159 3.17402e-06 0 0.000140985 3.28195e-06 0 0.00013874 3.38574e-06 0 0.000136427 3.48451e-06 0 0.000134049 3.5773e-06 0 0.000131611 3.66312e-06 0 0.000129118 3.74094e-06 0 0.000126575 3.80975e-06 0 0.00012399 3.86855e-06 0 0.000121368 3.91638e-06 0 0.000118719 3.95235e-06 0 0.000116049 3.97567e-06 0 0.000113368 3.98563e-06 0 0.000110685 3.98165e-06 0 0.000108009 3.96323e-06 0 0.000105351 3.92995e-06 0 0.00010272 3.88144e-06 0 0.000100126 3.81731e-06 0 9.75808e-05 3.73704e-06 0 9.50947e-05 3.63991e-06 0 9.26793e-05 3.52481e-06 0 9.0347e-05 3.38999e-06 0 8.81114e-05 3.23269e-06 0 8.59883e-05 3.04876e-06 0 8.39965e-05 2.83134e-06 0 8.21602e-05 2.57064e-06 0 8.05096e-05 2.24821e-06 0 7.90903e-05 1.84023e-06 0 7.7957e-05 1.28788e-06 0 7.72142e-05 5.25721e-07 0 7.6964e-05 -6.74947e-07 0 7.74619e-05 -2.58544e-06 0 7.85279e-05 -6.46411e-06 0 7.79781e-05 -1.46158e-05 0 7.03794e-05 -2.61331e-05 0 6.57229e-05 1.66608e-05 0 7.06862e-05 1.15327e-05 0 7.33134e-05 6.30282e-06 0 7.44011e-05 2.68917e-06 0 7.51599e-05 3.06101e-07 0 7.60246e-05 -1.27188e-06 0 7.7134e-05 -2.38996e-06 0 7.84784e-05 -3.21319e-06 0 8.00371e-05 -3.85036e-06 0 8.17798e-05 -4.35961e-06 0 8.36824e-05 -4.77923e-06 0 8.57235e-05 -5.13198e-06 0 8.78854e-05 -5.43292e-06 0 9.0153e-05 -5.69157e-06 0 9.25131e-05 -5.9142e-06 0 9.49533e-05 -6.10481e-06 0 9.74625e-05 -6.266e-06 0 0.00010003 -6.39941e-06 0 0.000102644 -6.50609e-06 0 0.000105296 -6.58677e-06 0 0.000107975 -6.64203e-06 0 0.00011067 -6.67244e-06 0 0.000113372 -6.67867e-06 0 0.000116072 -6.66152e-06 0 0.000118759 -6.62198e-06 0 0.000121425 -6.5612e-06 0 0.000124062 -6.48055e-06 0 0.000126661 -6.38152e-06 0 0.000129216 -6.26572e-06 0 0.000131721 -6.13485e-06 0 0.000134169 -5.99062e-06 0 0.000136555 -5.83475e-06 0 0.000138876 -5.66892e-06 0 0.000141127 -5.49472e-06 0 0.000143306 -5.31367e-06 0 0.000145411 -5.12716e-06 0 0.000147438 -4.93646e-06 0 0.000149387 -4.74272e-06 0 0.000151258 -4.54695e-06 0 0.000153049 -4.35004e-06 0 0.00015476 -4.15275e-06 0 0.000156392 -3.95575e-06 0 0.000157944 -3.75956e-06 0 0.000159417 -3.56464e-06 0 0.000160812 -3.37135e-06 0 0.00016213 -3.17995e-06 0 0.000163371 -2.99066e-06 0 0.000164536 -2.80362e-06 0 0.000165626 -2.6189e-06 0 0.000166642 -2.43656e-06 0 0.000167585 -2.25657e-06 0 0.000168457 -2.0789e-06 0 0.000169257 -1.90348e-06 0 0.000169987 -1.7302e-06 0 0.000170648 -1.55894e-06 0 0.000171241 -1.38956e-06 0 0.000171766 -1.22189e-06 0 0.000172224 -1.05576e-06 0 0.000172615 -8.90995e-07 0 0.00017294 -7.27387e-07 0 0.0001732 -5.64739e-07 0 0.000173394 -4.02844e-07 0 0.000173524 -2.41489e-07 0 0.000173588 -8.04602e-08 0 0.000173588 8.04602e-08 0 0.000173524 2.41489e-07 0 0.000173394 4.02844e-07 0 0.0001732 5.64739e-07 0 0.00017294 7.27387e-07 0 0.000172615 8.90995e-07 0 0.000172224 1.05576e-06 0 0.000171766 1.22189e-06 0 0.000171241 1.38956e-06 0 0.000170648 1.55894e-06 0 0.000169987 1.7302e-06 0 0.000169257 1.90348e-06 0 0.000168457 2.0789e-06 0 0.000167585 2.25657e-06 0 0.000166642 2.43656e-06 0 0.000165626 2.6189e-06 0 0.000164536 2.80362e-06 0 0.000163371 2.99066e-06 0 0.00016213 3.17995e-06 0 0.000160812 3.37135e-06 0 0.000159417 3.56464e-06 0 0.000157944 3.75956e-06 0 0.000156392 3.95575e-06 0 0.00015476 4.15275e-06 0 0.000153049 4.35004e-06 0 0.000151258 4.54695e-06 0 0.000149387 4.74272e-06 0 0.000147438 4.93646e-06 0 0.000145411 5.12716e-06 0 0.000143306 5.31367e-06 0 0.000141127 5.49472e-06 0 0.000138876 5.66892e-06 0 0.000136555 5.83475e-06 0 0.000134169 5.99062e-06 0 0.000131721 6.13485e-06 0 0.000129216 6.26572e-06 0 0.000126661 6.38152e-06 0 0.000124062 6.48055e-06 0 0.000121425 6.5612e-06 0 0.000118759 6.62198e-06 0 0.000116072 6.66152e-06 0 0.000113372 6.67867e-06 0 0.00011067 6.67244e-06 0 0.000107975 6.64203e-06 0 0.000105296 6.58677e-06 0 0.000102644 6.50609e-06 0 0.00010003 6.39941e-06 0 9.74625e-05 6.266e-06 0 9.49533e-05 6.10481e-06 0 9.25131e-05 5.9142e-06 0 9.0153e-05 5.69157e-06 0 8.78854e-05 5.43292e-06 0 8.57235e-05 5.13198e-06 0 8.36824e-05 4.77923e-06 0 8.17798e-05 4.35961e-06 0 8.00371e-05 3.85036e-06 0 7.84784e-05 3.21319e-06 0 7.7134e-05 2.38996e-06 0 7.60246e-05 1.27188e-06 0 7.51599e-05 -3.06101e-07 0 7.44011e-05 -2.68917e-06 0 7.33134e-05 -6.30282e-06 0 7.06862e-05 -1.15327e-05 0 6.57229e-05 -1.66608e-05 0 6.20996e-05 1.09899e-05 0 6.65524e-05 7.78082e-06 0 6.95729e-05 4.38081e-06 0 7.16139e-05 1.45647e-06 0 7.31646e-05 -7.86094e-07 0 7.45942e-05 -2.47988e-06 0 7.60669e-05 -3.76594e-06 0 7.76561e-05 -4.7705e-06 0 7.93804e-05 -5.57518e-06 0 8.12411e-05 -6.23697e-06 0 8.32304e-05 -6.79246e-06 0 8.53383e-05 -7.26637e-06 0 8.7554e-05 -7.6749e-06 0 8.9867e-05 -8.02887e-06 0 9.22667e-05 -8.33537e-06 0 9.47431e-05 -8.599e-06 0 9.72862e-05 -8.82267e-06 0 9.98858e-05 -9.00819e-06 0 0.000102532 -9.15672e-06 0 0.000105215 -9.269e-06 0 0.000107924 -9.34569e-06 0 0.000110648 -9.38745e-06 0 0.000113379 -9.39513e-06 0 0.000116106 -9.36981e-06 0 0.00011882 -9.31287e-06 0 0.000121511 -9.22594e-06 0 0.000124171 -9.11097e-06 0 0.000126791 -8.97008e-06 0 0.000129366 -8.8056e-06 0 0.000131887 -8.61994e-06 0 0.00013435 -8.41558e-06 0 0.00013675 -8.19495e-06 0 0.000139082 -7.96045e-06 0 0.000141342 -7.71434e-06 0 0.000143528 -7.45877e-06 0 0.000145638 -7.19569e-06 0 0.00014767 -6.9269e-06 0 0.000149622 -6.65401e-06 0 0.000151495 -6.37843e-06 0 0.000153286 -6.1014e-06 0 0.000154998 -5.82398e-06 0 0.000156629 -5.54708e-06 0 0.00015818 -5.27145e-06 0 0.000159651 -4.99769e-06 0 0.000161044 -4.72631e-06 0 0.000162359 -4.45767e-06 0 0.000163597 -4.19205e-06 0 0.000164759 -3.92964e-06 0 0.000165846 -3.67055e-06 0 0.00016686 -3.41483e-06 0 0.0001678 -3.16245e-06 0 0.000168669 -2.91336e-06 0 0.000169467 -2.66745e-06 0 0.000170195 -2.42456e-06 0 0.000170853 -2.18452e-06 0 0.000171444 -1.94713e-06 0 0.000171966 -1.71215e-06 0 0.000172422 -1.47935e-06 0 0.000172812 -1.24846e-06 0 0.000173136 -1.0192e-06 0 0.000173395 -7.91298e-07 0 0.000173588 -5.64452e-07 0 0.000173717 -3.38366e-07 0 0.000173782 -1.12738e-07 0 0.000173782 1.12738e-07 0 0.000173717 3.38366e-07 0 0.000173588 5.64452e-07 0 0.000173395 7.91298e-07 0 0.000173136 1.0192e-06 0 0.000172812 1.24846e-06 0 0.000172422 1.47935e-06 0 0.000171966 1.71215e-06 0 0.000171444 1.94713e-06 0 0.000170853 2.18452e-06 0 0.000170195 2.42456e-06 0 0.000169467 2.66745e-06 0 0.000168669 2.91336e-06 0 0.0001678 3.16245e-06 0 0.00016686 3.41483e-06 0 0.000165846 3.67055e-06 0 0.000164759 3.92964e-06 0 0.000163597 4.19205e-06 0 0.000162359 4.45767e-06 0 0.000161044 4.72631e-06 0 0.000159651 4.99769e-06 0 0.00015818 5.27145e-06 0 0.000156629 5.54708e-06 0 0.000154998 5.82398e-06 0 0.000153286 6.1014e-06 0 0.000151495 6.37843e-06 0 0.000149622 6.65401e-06 0 0.00014767 6.9269e-06 0 0.000145638 7.19569e-06 0 0.000143528 7.45877e-06 0 0.000141342 7.71434e-06 0 0.000139082 7.96045e-06 0 0.00013675 8.19495e-06 0 0.00013435 8.41558e-06 0 0.000131887 8.61994e-06 0 0.000129366 8.8056e-06 0 0.000126791 8.97008e-06 0 0.000124171 9.11097e-06 0 0.000121511 9.22594e-06 0 0.00011882 9.31287e-06 0 0.000116106 9.36981e-06 0 0.000113379 9.39513e-06 0 0.000110648 9.38745e-06 0 0.000107924 9.34569e-06 0 0.000105215 9.269e-06 0 0.000102532 9.15672e-06 0 9.98858e-05 9.00819e-06 0 9.72862e-05 8.82267e-06 0 9.47431e-05 8.599e-06 0 9.22667e-05 8.33537e-06 0 8.9867e-05 8.02887e-06 0 8.7554e-05 7.6749e-06 0 8.53383e-05 7.26637e-06 0 8.32304e-05 6.79246e-06 0 8.12411e-05 6.23697e-06 0 7.93804e-05 5.57518e-06 0 7.76561e-05 4.7705e-06 0 7.60669e-05 3.76594e-06 0 7.45942e-05 2.47988e-06 0 7.31646e-05 7.86094e-07 0 7.16139e-05 -1.45647e-06 0 6.95729e-05 -4.38081e-06 0 6.65524e-05 -7.78082e-06 0 6.20996e-05 -1.09899e-05 0 6.00951e-05 6.37662e-06 0 6.37917e-05 4.25692e-06 0 6.68383e-05 1.82813e-06 0 6.92551e-05 -4.64537e-07 0 7.12734e-05 -2.44714e-06 0 7.3099e-05 -4.08243e-06 0 7.48794e-05 -5.421e-06 0 7.66948e-05 -6.52206e-06 0 7.8587e-05 -7.44073e-06 0 8.05735e-05 -8.21852e-06 0 8.266e-05 -8.88617e-06 0 8.48455e-05 -9.46528e-06 0 8.71256e-05 -9.97091e-06 0 8.94941e-05 -1.04133e-05 0 9.19437e-05 -1.07992e-05 0 9.44663e-05 -1.1133e-05 0 9.70533e-05 -1.14174e-05 0 9.96955e-05 -1.16539e-05 0 0.000102383 -1.18436e-05 0 0.000105107 -1.19869e-05 0 0.000107856 -1.20843e-05 0 0.000110621 -1.21366e-05 0 0.00011339 -1.21446e-05 0 0.000116155 -1.21098e-05 0 0.000118904 -1.20338e-05 0 0.000121628 -1.19188e-05 0 0.000124319 -1.17673e-05 0 0.000126968 -1.15823e-05 0 0.000129568 -1.13667e-05 0 0.000132113 -1.11238e-05 0 0.000134596 -1.08568e-05 0 0.000137012 -1.0569e-05 0 0.000139358 -1.02636e-05 0 0.000141631 -9.94341e-06 0 0.000143827 -9.61134e-06 0 0.000145944 -9.26991e-06 0 0.000147981 -8.92143e-06 0 0.000149937 -8.56796e-06 0 0.000151812 -8.21133e-06 0 0.000153605 -7.85312e-06 0 0.000155316 -7.49467e-06 0 0.000156945 -7.13712e-06 0 0.000158494 -6.78143e-06 0 0.000159963 -6.42836e-06 0 0.000161353 -6.07851e-06 0 0.000162665 -5.73235e-06 0 0.000163899 -5.39021e-06 0 0.000165058 -5.05233e-06 0 0.000166141 -4.71882e-06 0 0.000167151 -4.38974e-06 0 0.000168087 -4.06504e-06 0 0.000168952 -3.74464e-06 0 0.000169746 -3.42838e-06 0 0.000170471 -3.11606e-06 0 0.000171126 -2.80745e-06 0 0.000171714 -2.50228e-06 0 0.000172234 -2.20024e-06 0 0.000172688 -1.90103e-06 0 0.000173075 -1.60429e-06 0 0.000173397 -1.30967e-06 0 0.000173655 -1.0168e-06 0 0.000173847 -7.25298e-07 0 0.000173976 -4.34784e-07 0 0.00017404 -1.44862e-07 0 0.00017404 1.44862e-07 0 0.000173976 4.34784e-07 0 0.000173847 7.25298e-07 0 0.000173655 1.0168e-06 0 0.000173397 1.30967e-06 0 0.000173075 1.60429e-06 0 0.000172688 1.90103e-06 0 0.000172234 2.20024e-06 0 0.000171714 2.50228e-06 0 0.000171126 2.80745e-06 0 0.000170471 3.11606e-06 0 0.000169746 3.42838e-06 0 0.000168952 3.74464e-06 0 0.000168087 4.06504e-06 0 0.000167151 4.38974e-06 0 0.000166141 4.71882e-06 0 0.000165058 5.05233e-06 0 0.000163899 5.39021e-06 0 0.000162665 5.73235e-06 0 0.000161353 6.07851e-06 0 0.000159963 6.42836e-06 0 0.000158494 6.78143e-06 0 0.000156945 7.13712e-06 0 0.000155316 7.49467e-06 0 0.000153605 7.85312e-06 0 0.000151812 8.21133e-06 0 0.000149937 8.56796e-06 0 0.000147981 8.92143e-06 0 0.000145944 9.26991e-06 0 0.000143827 9.61134e-06 0 0.000141631 9.94341e-06 0 0.000139358 1.02636e-05 0 0.000137012 1.0569e-05 0 0.000134596 1.08568e-05 0 0.000132113 1.11238e-05 0 0.000129568 1.13667e-05 0 0.000126968 1.15823e-05 0 0.000124319 1.17673e-05 0 0.000121628 1.19188e-05 0 0.000118904 1.20338e-05 0 0.000116155 1.21098e-05 0 0.00011339 1.21446e-05 0 0.000110621 1.21366e-05 0 0.000107856 1.20843e-05 0 0.000105107 1.19869e-05 0 0.000102383 1.18436e-05 0 9.96955e-05 1.16539e-05 0 9.70533e-05 1.14174e-05 0 9.44663e-05 1.1133e-05 0 9.19437e-05 1.07992e-05 0 8.94941e-05 1.04133e-05 0 8.71256e-05 9.97091e-06 0 8.48455e-05 9.46528e-06 0 8.266e-05 8.88617e-06 0 8.05735e-05 8.21852e-06 0 7.8587e-05 7.44073e-06 0 7.66948e-05 6.52206e-06 0 7.48794e-05 5.421e-06 0 7.3099e-05 4.08243e-06 0 7.12734e-05 2.44714e-06 0 6.92551e-05 4.64537e-07 0 6.68383e-05 -1.82813e-06 0 6.37917e-05 -4.25692e-06 0 6.00951e-05 -6.37662e-06 0 5.84503e-05 2.60756e-06 0 6.18076e-05 9.73995e-07 0 6.47461e-05 -8.76608e-07 0 6.72987e-05 -2.73738e-06 0 6.95569e-05 -4.46003e-06 0 7.16411e-05 -5.98672e-06 0 7.36498e-05 -7.31107e-06 0 7.5654e-05 -8.45473e-06 0 7.76973e-05 -9.44526e-06 0 7.98051e-05 -1.0309e-05 0 8.19901e-05 -1.10674e-05 0 8.42578e-05 -1.1737e-05 0 8.66087e-05 -1.23297e-05 0 8.90402e-05 -1.28538e-05 0 9.15477e-05 -1.33148e-05 0 9.41251e-05 -1.37162e-05 0 9.67651e-05 -1.40598e-05 0 9.94594e-05 -1.43465e-05 0 0.000102199 -1.45768e-05 0 0.000104974 -1.47506e-05 0 0.000107774 -1.48682e-05 0 0.000110588 -1.493e-05 0 0.000113407 -1.49371e-05 0 0.000116218 -1.4891e-05 0 0.000119012 -1.47938e-05 0 0.000121779 -1.46482e-05 0 0.000124509 -1.44574e-05 0 0.000127194 -1.4225e-05 0 0.000129826 -1.39551e-05 0 0.000132399 -1.36516e-05 0 0.000134907 -1.33188e-05 0 0.000137345 -1.29608e-05 0 0.000139709 -1.25814e-05 0 0.000141996 -1.21844e-05 0 0.000144204 -1.17732e-05 0 0.00014633 -1.13511e-05 0 0.000148373 -1.09209e-05 0 0.000150334 -1.0485e-05 0 0.000152211 -1.00458e-05 0 0.000154004 -9.60504e-06 0 0.000155715 -9.16442e-06 0 0.000157343 -8.72529e-06 0 0.000158889 -8.28877e-06 0 0.000160355 -7.85577e-06 0 0.000161741 -7.42699e-06 0 0.000163048 -7.00298e-06 0 0.000164278 -6.58411e-06 0 0.000165431 -6.17062e-06 0 0.00016651 -5.76266e-06 0 0.000167514 -5.36025e-06 0 0.000168446 -4.96333e-06 0 0.000169306 -4.57177e-06 0 0.000170096 -4.18536e-06 0 0.000170816 -3.80384e-06 0 0.000171467 -3.42693e-06 0 0.000172051 -3.05428e-06 0 0.000172568 -2.68551e-06 0 0.000173019 -2.32022e-06 0 0.000173404 -1.95799e-06 0 0.000173724 -1.59838e-06 0 0.000173979 -1.24092e-06 0 0.000174171 -8.8516e-07 0 0.000174298 -5.30609e-07 0 0.000174362 -1.76788e-07 0 0.000174362 1.76788e-07 0 0.000174298 5.30609e-07 0 0.000174171 8.8516e-07 0 0.000173979 1.24092e-06 0 0.000173724 1.59838e-06 0 0.000173404 1.95799e-06 0 0.000173019 2.32022e-06 0 0.000172568 2.68551e-06 0 0.000172051 3.05428e-06 0 0.000171467 3.42693e-06 0 0.000170816 3.80384e-06 0 0.000170096 4.18536e-06 0 0.000169306 4.57177e-06 0 0.000168446 4.96333e-06 0 0.000167514 5.36025e-06 0 0.00016651 5.76266e-06 0 0.000165431 6.17062e-06 0 0.000164278 6.58411e-06 0 0.000163048 7.00298e-06 0 0.000161741 7.42699e-06 0 0.000160355 7.85577e-06 0 0.000158889 8.28877e-06 0 0.000157343 8.72529e-06 0 0.000155715 9.16442e-06 0 0.000154004 9.60504e-06 0 0.000152211 1.00458e-05 0 0.000150334 1.0485e-05 0 0.000148373 1.09209e-05 0 0.00014633 1.13511e-05 0 0.000144204 1.17732e-05 0 0.000141996 1.21844e-05 0 0.000139709 1.25814e-05 0 0.000137345 1.29608e-05 0 0.000134907 1.33188e-05 0 0.000132399 1.36516e-05 0 0.000129826 1.39551e-05 0 0.000127194 1.4225e-05 0 0.000124509 1.44574e-05 0 0.000121779 1.46482e-05 0 0.000119012 1.47938e-05 0 0.000116218 1.4891e-05 0 0.000113407 1.49371e-05 0 0.000110588 1.493e-05 0 0.000107774 1.48682e-05 0 0.000104974 1.47506e-05 0 0.000102199 1.45768e-05 0 9.94594e-05 1.43465e-05 0 9.67651e-05 1.40598e-05 0 9.41251e-05 1.37162e-05 0 9.15477e-05 1.33148e-05 0 8.90402e-05 1.28538e-05 0 8.66087e-05 1.23297e-05 0 8.42578e-05 1.1737e-05 0 8.19901e-05 1.10674e-05 0 7.98051e-05 1.0309e-05 0 7.76973e-05 9.44526e-06 0 7.5654e-05 8.45473e-06 0 7.36498e-05 7.31107e-06 0 7.16411e-05 5.98672e-06 0 6.95569e-05 4.46003e-06 0 6.72987e-05 2.73738e-06 0 6.47461e-05 8.76608e-07 0 6.18076e-05 -9.73995e-07 0 5.84503e-05 -2.60756e-06 0 5.71825e-05 -7.47589e-07 0 6.02339e-05 -2.07447e-06 0 6.30573e-05 -3.59068e-06 0 6.56354e-05 -5.15828e-06 0 6.80124e-05 -6.68029e-06 0 7.02524e-05 -8.09631e-06 0 7.24209e-05 -9.38344e-06 0 7.4571e-05 -1.05401e-05 0 7.67415e-05 -1.1576e-05 0 7.89582e-05 -1.2504e-05 0 8.12369e-05 -1.33369e-05 0 8.35865e-05 -1.4085e-05 0 8.60108e-05 -1.47566e-05 0 8.851e-05 -1.5357e-05 0 9.10816e-05 -1.58899e-05 0 9.37211e-05 -1.6357e-05 0 9.64224e-05 -1.6759e-05 0 9.91779e-05 -1.70957e-05 0 0.000101979 -1.73664e-05 0 0.000104815 -1.75706e-05 0 0.000107677 -1.77078e-05 0 0.000110552 -1.77783e-05 0 0.00011343 -1.7783e-05 0 0.000116299 -1.77234e-05 0 0.000119148 -1.76023e-05 0 0.000121966 -1.74228e-05 0 0.000124744 -1.7189e-05 0 0.000127473 -1.69054e-05 0 0.000130144 -1.6577e-05 0 0.000132751 -1.62089e-05 0 0.000135289 -1.58061e-05 0 0.000137752 -1.53738e-05 0 0.000140137 -1.49167e-05 0 0.000142441 -1.44394e-05 0 0.000144662 -1.39461e-05 0 0.000146798 -1.34405e-05 0 0.000148849 -1.29259e-05 0 0.000150814 -1.24055e-05 0 0.000152693 -1.18817e-05 0 0.000154487 -1.13568e-05 0 0.000156197 -1.08326e-05 0 0.000157822 -1.03108e-05 0 0.000159365 -9.79257e-06 0 0.000160826 -9.27893e-06 0 0.000162207 -8.7707e-06 0 0.000163508 -8.26845e-06 0 0.000164732 -7.77259e-06 0 0.00016588 -7.28338e-06 0 0.000166952 -6.80094e-06 0 0.00016795 -6.32526e-06 0 0.000168876 -5.85625e-06 0 0.000169731 -5.39373e-06 0 0.000170515 -4.93743e-06 0 0.000171229 -4.48703e-06 0 0.000171876 -4.04215e-06 0 0.000172455 -3.60239e-06 0 0.000172968 -3.16729e-06 0 0.000173415 -2.73635e-06 0 0.000173797 -2.30908e-06 0 0.000174115 -1.88493e-06 0 0.000174368 -1.46336e-06 0 0.000174558 -1.04381e-06 0 0.000174684 -6.25703e-07 0 0.000174747 -2.08471e-07 0 0.000174747 2.08471e-07 0 0.000174684 6.25703e-07 0 0.000174558 1.04381e-06 0 0.000174368 1.46336e-06 0 0.000174115 1.88493e-06 0 0.000173797 2.30908e-06 0 0.000173415 2.73635e-06 0 0.000172968 3.16729e-06 0 0.000172455 3.60239e-06 0 0.000171876 4.04215e-06 0 0.000171229 4.48703e-06 0 0.000170515 4.93743e-06 0 0.000169731 5.39373e-06 0 0.000168876 5.85625e-06 0 0.00016795 6.32526e-06 0 0.000166952 6.80094e-06 0 0.00016588 7.28338e-06 0 0.000164732 7.77259e-06 0 0.000163508 8.26845e-06 0 0.000162207 8.7707e-06 0 0.000160826 9.27893e-06 0 0.000159365 9.79257e-06 0 0.000157822 1.03108e-05 0 0.000156197 1.08326e-05 0 0.000154487 1.13568e-05 0 0.000152693 1.18817e-05 0 0.000150814 1.24055e-05 0 0.000148849 1.29259e-05 0 0.000146798 1.34405e-05 0 0.000144662 1.39461e-05 0 0.000142441 1.44394e-05 0 0.000140137 1.49167e-05 0 0.000137752 1.53738e-05 0 0.000135289 1.58061e-05 0 0.000132751 1.62089e-05 0 0.000130144 1.6577e-05 0 0.000127473 1.69054e-05 0 0.000124744 1.7189e-05 0 0.000121966 1.74228e-05 0 0.000119148 1.76023e-05 0 0.000116299 1.77234e-05 0 0.00011343 1.7783e-05 0 0.000110552 1.77783e-05 0 0.000107677 1.77078e-05 0 0.000104815 1.75706e-05 0 0.000101979 1.73664e-05 0 9.91779e-05 1.70957e-05 0 9.64224e-05 1.6759e-05 0 9.37211e-05 1.6357e-05 0 9.10816e-05 1.58899e-05 0 8.851e-05 1.5357e-05 0 8.60108e-05 1.47566e-05 0 8.35865e-05 1.4085e-05 0 8.12369e-05 1.33369e-05 0 7.89582e-05 1.2504e-05 0 7.67415e-05 1.1576e-05 0 7.4571e-05 1.05401e-05 0 7.24209e-05 9.38344e-06 0 7.02524e-05 8.09631e-06 0 6.80124e-05 6.68029e-06 0 6.56354e-05 5.15828e-06 0 6.30573e-05 3.59068e-06 0 6.02339e-05 2.07447e-06 0 5.71825e-05 7.47589e-07 0 5.60617e-05 -3.77807e-06 0 5.89109e-05 -4.94234e-06 0 6.16192e-05 -6.25407e-06 0 6.41777e-05 -7.63366e-06 0 6.66036e-05 -9.01144e-06 0 6.89332e-05 -1.03388e-05 0 7.12077e-05 -1.15878e-05 0 7.34656e-05 -1.27469e-05 0 7.5738e-05 -1.38145e-05 0 7.80482e-05 -1.4794e-05 0 8.04121e-05 -1.56906e-05 0 8.28401e-05 -1.65094e-05 0 8.53377e-05 -1.72542e-05 0 8.7907e-05 -1.79276e-05 0 9.05473e-05 -1.85305e-05 0 9.32551e-05 -1.90629e-05 0 9.60254e-05 -1.95235e-05 0 9.88509e-05 -1.99107e-05 0 0.000101723 -2.02226e-05 0 0.000104632 -2.04576e-05 0 0.000107566 -2.06144e-05 0 0.000110514 -2.06927e-05 0 0.000113463 -2.06931e-05 0 0.0001164 -2.06177e-05 0 0.000119315 -2.04692e-05 0 0.000122194 -2.02518e-05 0 0.000125029 -1.99705e-05 0 0.000127809 -1.96307e-05 0 0.000130526 -1.92387e-05 0 0.000133174 -1.88007e-05 0 0.000135746 -1.83229e-05 0 0.000138238 -1.78115e-05 0 0.000140647 -1.72723e-05 0 0.00014297 -1.67105e-05 0 0.000145205 -1.61312e-05 0 0.000147352 -1.55386e-05 0 0.000149411 -1.49369e-05 0 0.00015138 -1.43292e-05 0 0.000153261 -1.37187e-05 0 0.000155055 -1.31078e-05 0 0.000156762 -1.24985e-05 0 0.000158384 -1.18927e-05 0 0.000159922 -1.12917e-05 0 0.000161378 -1.06967e-05 0 0.000162752 -1.01084e-05 0 0.000164047 -9.5275e-06 0 0.000165263 -8.95441e-06 0 0.000166403 -8.38936e-06 0 0.000167468 -7.83243e-06 0 0.000168459 -7.28359e-06 0 0.000169378 -6.74268e-06 0 0.000170225 -6.20946e-06 0 0.000171003 -5.68358e-06 0 0.000171711 -5.16467e-06 0 0.000172352 -4.65226e-06 0 0.000172926 -4.14585e-06 0 0.000173434 -3.6449e-06 0 0.000173877 -3.14883e-06 0 0.000174255 -2.65703e-06 0 0.00017457 -2.1689e-06 0 0.000174821 -1.68377e-06 0 0.000175008 -1.201e-06 0 0.000175133 -7.19924e-07 0 0.000175196 -2.39862e-07 0 0.000175196 2.39862e-07 0 0.000175133 7.19924e-07 0 0.000175008 1.201e-06 0 0.000174821 1.68377e-06 0 0.00017457 2.1689e-06 0 0.000174255 2.65703e-06 0 0.000173877 3.14883e-06 0 0.000173434 3.6449e-06 0 0.000172926 4.14585e-06 0 0.000172352 4.65226e-06 0 0.000171711 5.16467e-06 0 0.000171003 5.68358e-06 0 0.000170225 6.20946e-06 0 0.000169378 6.74268e-06 0 0.000168459 7.28359e-06 0 0.000167468 7.83243e-06 0 0.000166403 8.38936e-06 0 0.000165263 8.95441e-06 0 0.000164047 9.5275e-06 0 0.000162752 1.01084e-05 0 0.000161378 1.06967e-05 0 0.000159922 1.12917e-05 0 0.000158384 1.18927e-05 0 0.000156762 1.24985e-05 0 0.000155055 1.31078e-05 0 0.000153261 1.37187e-05 0 0.00015138 1.43292e-05 0 0.000149411 1.49369e-05 0 0.000147352 1.55386e-05 0 0.000145205 1.61312e-05 0 0.00014297 1.67105e-05 0 0.000140647 1.72723e-05 0 0.000138238 1.78115e-05 0 0.000135746 1.83229e-05 0 0.000133174 1.88007e-05 0 0.000130526 1.92387e-05 0 0.000127809 1.96307e-05 0 0.000125029 1.99705e-05 0 0.000122194 2.02518e-05 0 0.000119315 2.04692e-05 0 0.0001164 2.06177e-05 0 0.000113463 2.06931e-05 0 0.000110514 2.06927e-05 0 0.000107566 2.06144e-05 0 0.000104632 2.04576e-05 0 0.000101723 2.02226e-05 0 9.88509e-05 1.99107e-05 0 9.60254e-05 1.95235e-05 0 9.32551e-05 1.90629e-05 0 9.05473e-05 1.85305e-05 0 8.7907e-05 1.79276e-05 0 8.53377e-05 1.72542e-05 0 8.28401e-05 1.65094e-05 0 8.04121e-05 1.56906e-05 0 7.80482e-05 1.4794e-05 0 7.5738e-05 1.38145e-05 0 7.34656e-05 1.27469e-05 0 7.12077e-05 1.15878e-05 0 6.89332e-05 1.03388e-05 0 6.66036e-05 9.01144e-06 0 6.41777e-05 7.63366e-06 0 6.16192e-05 6.25407e-06 0 5.89109e-05 4.94234e-06 0 5.60617e-05 3.77807e-06 0 5.50473e-05 -6.59061e-06 0 5.77298e-05 -7.65919e-06 0 6.03366e-05 -8.85177e-06 0 6.28548e-05 -1.01136e-05 0 6.52919e-05 -1.13967e-05 0 6.7668e-05 -1.26622e-05 0 7.00098e-05 -1.38838e-05 0 7.23443e-05 -1.50461e-05 0 7.46956e-05 -1.61413e-05 0 7.70834e-05 -1.71668e-05 0 7.95225e-05 -1.8122e-05 0 8.20233e-05 -1.90074e-05 0 8.45924e-05 -1.98231e-05 0 8.72328e-05 -2.05684e-05 0 8.9945e-05 -2.12416e-05 0 9.27265e-05 -2.18403e-05 0 9.55728e-05 -2.23613e-05 0 9.84771e-05 -2.2801e-05 0 0.00010143 -2.31559e-05 0 0.000104423 -2.34228e-05 0 0.000107441 -2.35996e-05 0 0.000110474 -2.3685e-05 0 0.000113506 -2.36795e-05 0 0.000116525 -2.35851e-05 0 0.000119516 -2.34053e-05 0 0.000122468 -2.3145e-05 0 0.000125369 -2.28104e-05 0 0.000128208 -2.24084e-05 0 0.000130978 -2.19465e-05 0 0.000133671 -2.14323e-05 0 0.000136282 -2.08734e-05 0 0.000138807 -2.02771e-05 0 0.000141242 -1.96502e-05 0 0.000143586 -1.89991e-05 0 0.000145837 -1.83293e-05 0 0.000147995 -1.7646e-05 0 0.000150061 -1.69535e-05 0 0.000152035 -1.62558e-05 0 0.000153917 -1.5556e-05 0 0.000155709 -1.4857e-05 0 0.000157413 -1.41609e-05 0 0.00015903 -1.34697e-05 0 0.000160562 -1.27849e-05 0 0.00016201 -1.21076e-05 0 0.000163377 -1.14387e-05 0 0.000164663 -1.07787e-05 0 0.000165871 -1.01282e-05 0 0.000167002 -9.48718e-06 0 0.000168058 -8.85582e-06 0 0.00016904 -8.23397e-06 0 0.000169951 -7.62141e-06 0 0.00017079 -7.01782e-06 0 0.00017156 -6.42277e-06 0 0.000172261 -5.8358e-06 0 0.000172895 -5.25635e-06 0 0.000173463 -4.68384e-06 0 0.000173965 -4.11761e-06 0 0.000174403 -3.55701e-06 0 0.000174777 -3.00133e-06 0 0.000175088 -2.44985e-06 0 0.000175336 -1.90183e-06 0 0.000175522 -1.35651e-06 0 0.000175645 -8.13128e-07 0 0.000175707 -2.70913e-07 0 0.000175707 2.70913e-07 0 0.000175645 8.13128e-07 0 0.000175522 1.35651e-06 0 0.000175336 1.90183e-06 0 0.000175088 2.44985e-06 0 0.000174777 3.00133e-06 0 0.000174403 3.55701e-06 0 0.000173965 4.11761e-06 0 0.000173463 4.68384e-06 0 0.000172895 5.25635e-06 0 0.000172261 5.8358e-06 0 0.00017156 6.42277e-06 0 0.00017079 7.01782e-06 0 0.000169951 7.62141e-06 0 0.00016904 8.23397e-06 0 0.000168058 8.85582e-06 0 0.000167002 9.48718e-06 0 0.000165871 1.01282e-05 0 0.000164663 1.07787e-05 0 0.000163377 1.14387e-05 0 0.00016201 1.21076e-05 0 0.000160562 1.27849e-05 0 0.00015903 1.34697e-05 0 0.000157413 1.41609e-05 0 0.000155709 1.4857e-05 0 0.000153917 1.5556e-05 0 0.000152035 1.62558e-05 0 0.000150061 1.69535e-05 0 0.000147995 1.7646e-05 0 0.000145837 1.83293e-05 0 0.000143586 1.89991e-05 0 0.000141242 1.96502e-05 0 0.000138807 2.02771e-05 0 0.000136282 2.08734e-05 0 0.000133671 2.14323e-05 0 0.000130978 2.19465e-05 0 0.000128208 2.24084e-05 0 0.000125369 2.28104e-05 0 0.000122468 2.3145e-05 0 0.000119516 2.34053e-05 0 0.000116525 2.35851e-05 0 0.000113506 2.36795e-05 0 0.000110474 2.3685e-05 0 0.000107441 2.35996e-05 0 0.000104423 2.3422