<?xml version="1.0"?> 
<VTKFile type="StructuredGrid" version="0.1"> 
<StructuredGrid WholeExtent="0 127 0 127 0 0"> 
<Piece Extent="0 127 0 127 0 0"> 
<PointData>
<DataArray type="Float32" Name="B" format="ascii" NumberOfComponents="3"> 
0.000150663 -3.67569e-05 0 0.000281982 -1.34097e-05 0 0.000239927 -1.26136e-06 0 0.000229834 -1.44687e-06 0 0.000224669 -1.38588e-07 0 0.00022455 7.30933e-08 0 0.000225961 4.31292e-07 0 0.000228933 5.86535e-07 0 0.000232813 7.36055e-07 0 0.000237456 8.3885e-07 0 0.00024267 9.26915e-07 0 0.000248362 9.9804e-07 0 0.000254447 1.0589e-06 0 0.000260869 1.1106e-06 0 0.000267576 1.15501e-06 0 0.000274528 1.19289e-06 0 0.000281687 1.22487e-06 0 0.000289018 1.2513e-06 0 0.000296491 1.27241e-06 0 0.000304073 1.28837e-06 0 0.000311734 1.2993e-06 0 0.000319447 1.30532e-06 0 0.000327181 1.30656e-06 0 0.000334911 1.30319e-06 0 0.000342608 1.2954e-06 0 0.000350249 1.28342e-06 0 0.000357809 1.26752e-06 0 0.000365267 1.248e-06 0 0.000372601 1.22518e-06 0 0.000379794 1.19938e-06 0 0.000386829 1.17096e-06 0 0.000393692 1.14025e-06 0 0.00040037 1.10759e-06 0 0.000406851 1.07329e-06 0 0.000413128 1.03766e-06 0 0.000419193 1.00096e-06 0 0.00042504 9.63461e-07 0 0.000430665 9.25381e-07 0 0.000436064 8.86923e-07 0 0.000441236 8.48264e-07 0 0.00044618 8.09555e-07 0 0.000450895 7.70924e-07 0 0.000455382 7.32478e-07 0 0.000459642 6.94306e-07 0 0.000463677 6.56475e-07 0 0.000467489 6.1904e-07 0 0.00047108 5.82041e-07 0 0.000474452 5.45503e-07 0 0.000477607 5.09442e-07 0 0.00048055 4.73865e-07 0 0.000483281 4.38768e-07 0 0.000485805 4.04142e-07 0 0.000488123 3.69972e-07 0 0.000490239 3.36235e-07 0 0.000492154 3.02907e-07 0 0.00049387 2.69957e-07 0 0.000495391 2.37354e-07 0 0.000496717 2.05061e-07 0 0.000497851 1.73041e-07 0 0.000498793 1.41256e-07 0 0.000499545 1.09663e-07 0 0.000500109 7.82221e-08 0 0.000500484 4.68896e-08 0 0.000500671 1.56226e-08 0 0.000500671 -1.56226e-08 0 0.000500484 -4.68896e-08 0 0.000500109 -7.82221e-08 0 0.000499545 -1.09663e-07 0 0.000498793 -1.41256e-07 0 0.000497851 -1.73041e-07 0 0.000496717 -2.05061e-07 0 0.000495391 -2.37354e-07 0 0.00049387 -2.69957e-07 0 0.000492154 -3.02907e-07 0 0.000490239 -3.36235e-07 0 0.000488123 -3.69972e-07 0 0.000485805 -4.04142e-07 0 0.000483281 -4.38768e-07 0 0.00048055 -4.73865e-07 0 0.000477607 -5.09442e-07 0 0.000474452 -5.45503e-07 0 0.00047108 -5.82041e-07 0 0.000467489 -6.1904e-07 0 0.000463677 -6.56475e-07 0 0.000459642 -6.94306e-07 0 0.000455382 -7.32478e-07 0 0.000450895 -7.70924e-07 0 0.00044618 -8.09555e-07 0 0.000441236 -8.48264e-07 0 0.000436064 -8.86923e-07 0 0.000430665 -9.25381e-07 0 0.00042504 -9.63461e-07 0 0.000419193 -1.00096e-06 0 0.000413128 -1.03766e-06 0 0.000406851 -1.07329e-06 0 0.00040037 -1.10759e-06 0 0.000393692 -1.14025e-06 0 0.000386829 -1.17096e-06 0 0.000379794 -1.19938e-06 0 0.000372601 -1.22518e-06 0 0.000365267 -1.248e-06 0 0.000357809 -1.26752e-06 0 0.000350249 -1.28342e-06 0 0.000342608 -1.2954e-06 0 0.000334911 -1.30319e-06 0 0.000327181 -1.30656e-06 0 0.000319447 -1.30532e-06 0 0.000311734 -1.2993e-06 0 0.000304073 -1.28837e-06 0 0.000296491 -1.27241e-06 0 0.000289018 -1.2513e-06 0 0.000281687 -1.22487e-06 0 0.000274528 -1.19289e-06 0 0.000267576 -1.15501e-06 0 0.000260869 -1.1106e-06 0 0.000254447 -1.0589e-06 0 0.000248362 -9.9804e-07 0 0.00024267 -9.26915e-07 0 0.000237456 -8.3885e-07 0 0.000232813 -7.36055e-07 0 0.000228933 -5.86535e-07 0 0.000225961 -4.31292e-07 0 0.00022455 -7.30933e-08 0 0.000224669 1.38588e-07 0 0.000229834 1.44687e-06 0 0.000239927 1.26136e-06 0 0.000281982 1.34097e-05 0 0.000150663 3.67569e-05 0 6.88357e-05 -8.8321e-05 0 4.61173e-05 1.70133e-06 0 3.36749e-05 1.90037e-06 0 2.94929e-05 1.51414e-07 0 2.93538e-05 5.52643e-08 0 2.91579e-05 -1.84298e-08 0 2.94392e-05 -3.08822e-08 0 2.98284e-05 -6.54527e-08 0 3.03844e-05 -8.16018e-08 0 3.10272e-05 -9.64774e-08 0 3.17528e-05 -1.07631e-07 0 3.25406e-05 -1.16837e-07 0 3.33825e-05 -1.24484e-07 0 3.42698e-05 -1.30884e-07 0 3.51963e-05 -1.36298e-07 0 3.61564e-05 -1.40852e-07 0 3.7145e-05 -1.44658e-07 0 3.81577e-05 -1.4778e-07 0 3.91898e-05 -1.50271e-07 0 4.02372e-05 -1.52164e-07 0 4.12956e-05 -1.53488e-07 0 4.23608e-05 -1.54266e-07 0 4.34289e-05 -1.54522e-07 0 4.44958e-05 -1.54275e-07 0 4.55578e-05 -1.5355e-07 0 4.66113e-05 -1.5237e-07 0 4.76529e-05 -1.50762e-07 0 4.86794e-05 -1.48754e-07 0 4.9688e-05 -1.46375e-07 0 5.0676e-05 -1.43658e-07 0 5.16412e-05 -1.40634e-07 0 5.25815e-05 -1.37335e-07 0 5.34951e-05 -1.33792e-07 0 5.43808e-05 -1.30039e-07 0 5.52372e-05 -1.26103e-07 0 5.60635e-05 -1.22015e-07 0 5.68589e-05 -1.178e-07 0 5.7623e-05 -1.13483e-07 0 5.83554e-05 -1.09087e-07 0 5.90561e-05 -1.04631e-07 0 5.97248e-05 -1.00135e-07 0 6.03618e-05 -9.56143e-08 0 6.09672e-05 -9.1082e-08 0 6.15412e-05 -8.65502e-08 0 6.20842e-05 -8.20287e-08 0 6.25966e-05 -7.75259e-08 0 6.30787e-05 -7.30481e-08 0 6.3531e-05 -6.86007e-08 0 6.39539e-05 -6.41872e-08 0 6.43478e-05 -5.98105e-08 0 6.47132e-05 -5.5472e-08 0 6.50504e-05 -5.11724e-08 0 6.536e-05 -4.69116e-08 0 6.56424e-05 -4.26886e-08 0 6.58977e-05 -3.85019e-08 0 6.61266e-05 -3.43496e-08 0 6.63291e-05 -3.0229e-08 0 6.65057e-05 -2.61373e-08 0 6.66566e-05 -2.20713e-08 0 6.6782e-05 -1.80274e-08 0 6.68821e-05 -1.40019e-08 0 6.69571e-05 -9.99087e-09 0 6.7007e-05 -5.99032e-09 0 6.70319e-05 -1.99607e-09 0 6.70319e-05 1.99607e-09 0 6.7007e-05 5.99032e-09 0 6.69571e-05 9.99087e-09 0 6.68821e-05 1.40019e-08 0 6.6782e-05 1.80274e-08 0 6.66566e-05 2.20713e-08 0 6.65057e-05 2.61373e-08 0 6.63291e-05 3.0229e-08 0 6.61266e-05 3.43496e-08 0 6.58977e-05 3.85019e-08 0 6.56424e-05 4.26886e-08 0 6.536e-05 4.69116e-08 0 6.50504e-05 5.11724e-08 0 6.47132e-05 5.5472e-08 0 6.43478e-05 5.98105e-08 0 6.39539e-05 6.41872e-08 0 6.3531e-05 6.86007e-08 0 6.30787e-05 7.30481e-08 0 6.25966e-05 7.75259e-08 0 6.20842e-05 8.20287e-08 0 6.15412e-05 8.65502e-08 0 6.09672e-05 9.1082e-08 0 6.03618e-05 9.56143e-08 0 5.97248e-05 1.00135e-07 0 5.90561e-05 1.04631e-07 0 5.83554e-05 1.09087e-07 0 5.7623e-05 1.13483e-07 0 5.68589e-05 1.178e-07 0 5.60635e-05 1.22015e-07 0 5.52372e-05 1.26103e-07 0 5.43808e-05 1.30039e-07 0 5.34951e-05 1.33792e-07 0 5.25815e-05 1.37335e-07 0 5.16412e-05 1.40634e-07 0 5.0676e-05 1.43658e-07 0 4.9688e-05 1.46375e-07 0 4.86794e-05 1.48754e-07 0 4.76529e-05 1.50762e-07 0 4.66113e-05 1.5237e-07 0 4.55578e-05 1.5355e-07 0 4.44958e-05 1.54275e-07 0 4.34289e-05 1.54522e-07 0 4.23608e-05 1.54266e-07 0 4.12956e-05 1.53488e-07 0 4.02372e-05 1.52164e-07 0 3.91898e-05 1.50271e-07 0 3.81577e-05 1.4778e-07 0 3.7145e-05 1.44658e-07 0 3.61564e-05 1.40852e-07 0 3.51963e-05 1.36298e-07 0 3.42698e-05 1.30884e-07 0 3.33825e-05 1.24484e-07 0 3.25406e-05 1.16837e-07 0 3.17528e-05 1.07631e-07 0 3.10272e-05 9.64774e-08 0 3.03844e-05 8.16018e-08 0 2.98284e-05 6.54527e-08 0 2.94392e-05 3.08822e-08 0 2.91579e-05 1.84298e-08 0 2.93538e-05 -5.52643e-08 0 2.94929e-05 -1.51414e-07 0 3.36749e-05 -1.90037e-06 0 4.61173e-05 -1.70133e-06 0 6.88357e-05 8.8321e-05 0 1.9655e-05 -7.24426e-05 0 -1.73772e-05 5.97204e-06 0 -2.14652e-05 3.14828e-06 0 -2.02797e-05 -8.24573e-08 0 -1.96809e-05 1.18116e-07 0 -1.95428e-05 -5.90633e-08 0 -1.96627e-05 -4.41175e-08 0 -1.98875e-05 -1.02036e-07 0 -2.02081e-05 -1.18467e-07 0 -2.05909e-05 -1.39737e-07 0 -2.10266e-05 -1.53878e-07 0 -2.15031e-05 -1.66478e-07 0 -2.20142e-05 -1.76759e-07 0 -2.2554e-05 -1.85584e-07 0 -2.31183e-05 -1.93083e-07 0 -2.37035e-05 -1.99468e-07 0 -2.43062e-05 -2.04836e-07 0 -2.49235e-05 -2.09265e-07 0 -2.55527e-05 -2.12801e-07 0 -2.61912e-05 -2.15477e-07 0 -2.68365e-05 -2.1732e-07 0 -2.7486e-05 -2.18354e-07 0 -2.81376e-05 -2.18602e-07 0 -2.87888e-05 -2.18095e-07 0 -2.94376e-05 -2.16863e-07 0 -3.00819e-05 -2.14945e-07 0 -3.07196e-05 -2.12384e-07 0 -3.13491e-05 -2.09226e-07 0 -3.19685e-05 -2.05523e-07 0 -3.25764e-05 -2.01327e-07 0 -3.31713e-05 -1.96692e-07 0 -3.37521e-05 -1.91673e-07 0 -3.43176e-05 -1.86323e-07 0 -3.4867e-05 -1.80691e-07 0 -3.53994e-05 -1.74828e-07 0 -3.59143e-05 -1.68777e-07 0 -3.6411e-05 -1.6258e-07 0 -3.68893e-05 -1.56274e-07 0 -3.73487e-05 -1.49892e-07 0 -3.77892e-05 -1.43464e-07 0 -3.82105e-05 -1.37015e-07 0 -3.86126e-05 -1.30567e-07 0 -3.89956e-05 -1.24138e-07 0 -3.93594e-05 -1.17744e-07 0 -3.97042e-05 -1.11396e-07 0 -4.00301e-05 -1.05105e-07 0 -4.03373e-05 -9.88771e-08 0 -4.06259e-05 -9.27181e-08 0 -4.08962e-05 -8.66311e-08 0 -4.11483e-05 -8.06179e-08 0 -4.13825e-05 -7.46786e-08 0 -4.15989e-05 -6.88123e-08 0 -4.17978e-05 -6.3017e-08 0 -4.19793e-05 -5.72896e-08 0 -4.21437e-05 -5.16264e-08 0 -4.22911e-05 -4.60229e-08 0 -4.24217e-05 -4.04743e-08 0 -4.25357e-05 -3.49749e-08 0 -4.26331e-05 -2.95189e-08 0 -4.2714e-05 -2.41002e-08 0 -4.27787e-05 -1.87123e-08 0 -4.28271e-05 -1.33485e-08 0 -4.28594e-05 -8.00215e-09 0 -4.28755e-05 -2.66622e-09 0 -4.28755e-05 2.66622e-09 0 -4.28594e-05 8.00215e-09 0 -4.28271e-05 1.33485e-08 0 -4.27787e-05 1.87123e-08 0 -4.2714e-05 2.41002e-08 0 -4.26331e-05 2.95189e-08 0 -4.25357e-05 3.49749e-08 0 -4.24217e-05 4.04743e-08 0 -4.22911e-05 4.60229e-08 0 -4.21437e-05 5.16264e-08 0 -4.19793e-05 5.72896e-08 0 -4.17978e-05 6.3017e-08 0 -4.15989e-05 6.88123e-08 0 -4.13825e-05 7.46786e-08 0 -4.11483e-05 8.06179e-08 0 -4.08962e-05 8.66311e-08 0 -4.06259e-05 9.27181e-08 0 -4.03373e-05 9.88771e-08 0 -4.00301e-05 1.05105e-07 0 -3.97042e-05 1.11396e-07 0 -3.93594e-05 1.17744e-07 0 -3.89956e-05 1.24138e-07 0 -3.86126e-05 1.30567e-07 0 -3.82105e-05 1.37015e-07 0 -3.77892e-05 1.43464e-07 0 -3.73487e-05 1.49892e-07 0 -3.68893e-05 1.56274e-07 0 -3.6411e-05 1.6258e-07 0 -3.59143e-05 1.68777e-07 0 -3.53994e-05 1.74828e-07 0 -3.4867e-05 1.80691e-07 0 -3.43176e-05 1.86323e-07 0 -3.37521e-05 1.91673e-07 0 -3.31713e-05 1.96692e-07 0 -3.25764e-05 2.01327e-07 0 -3.19685e-05 2.05523e-07 0 -3.13491e-05 2.09226e-07 0 -3.07196e-05 2.12384e-07 0 -3.00819e-05 2.14945e-07 0 -2.94376e-05 2.16863e-07 0 -2.87888e-05 2.18095e-07 0 -2.81376e-05 2.18602e-07 0 -2.7486e-05 2.18354e-07 0 -2.68365e-05 2.1732e-07 0 -2.61912e-05 2.15477e-07 0 -2.55527e-05 2.12801e-07 0 -2.49235e-05 2.09265e-07 0 -2.43062e-05 2.04836e-07 0 -2.37035e-05 1.99468e-07 0 -2.31183e-05 1.93083e-07 0 -2.2554e-05 1.85584e-07 0 -2.20142e-05 1.76759e-07 0 -2.15031e-05 1.66478e-07 0 -2.10266e-05 1.53878e-07 0 -2.05909e-05 1.39737e-07 0 -2.02081e-05 1.18467e-07 0 -1.98875e-05 1.02036e-07 0 -1.96627e-05 4.41175e-08 0 -1.95428e-05 5.90633e-08 0 -1.96809e-05 -1.18116e-07 0 -2.02797e-05 8.24573e-08 0 -2.14652e-05 -3.14828e-06 0 -1.73772e-05 -5.97204e-06 0 1.9655e-05 7.24426e-05 0 7.04358e-06 -5.50315e-05 0 -1.27083e-05 7.54613e-06 0 -1.14145e-05 2.51375e-06 0 -1.00196e-05 -3.19693e-07 0 -9.66843e-06 3.63829e-08 0 -9.63051e-06 -3.878e-08 0 -9.69493e-06 -2.54143e-09 0 -9.81565e-06 -2.92677e-08 0 -9.98008e-06 -2.96632e-08 0 -1.01771e-05 -3.56404e-08 0 -1.03996e-05 -3.884e-08 0 -1.06426e-05 -4.19439e-08 0 -1.09028e-05 -4.4468e-08 0 -1.11775e-05 -4.66392e-08 0 -1.14646e-05 -4.85024e-08 0 -1.17621e-05 -5.00905e-08 0 -1.20686e-05 -5.14325e-08 0 -1.23825e-05 -5.2541e-08 0 -1.27024e-05 -5.34269e-08 0 -1.3027e-05 -5.40963e-08 0 -1.33551e-05 -5.45547e-08 0 -1.36853e-05 -5.4807e-08 0 -1.40165e-05 -5.48589e-08 0 -1.43475e-05 -5.4717e-08 0 -1.46771e-05 -5.43896e-08 0 -1.50044e-05 -5.38864e-08 0 -1.53281e-05 -5.32186e-08 0 -1.56475e-05 -5.23987e-08 0 -1.59617e-05 -5.144e-08 0 -1.62698e-05 -5.03566e-08 0 -1.65711e-05 -4.91629e-08 0 -1.68651e-05 -4.78731e-08 0 -1.71512e-05 -4.65012e-08 0 -1.74289e-05 -4.50606e-08 0 -1.76978e-05 -4.35639e-08 0 -1.79576e-05 -4.20227e-08 0 -1.82081e-05 -4.04477e-08 0 -1.84491e-05 -3.88485e-08 0 -1.86805e-05 -3.72334e-08 0 -1.89021e-05 -3.56098e-08 0 -1.9114e-05 -3.39843e-08 0 -1.9316e-05 -3.2362e-08 0 -1.95083e-05 -3.07476e-08 0 -1.96909e-05 -2.91448e-08 0 -1.98638e-05 -2.75563e-08 0 -2.00271e-05 -2.59846e-08 0 -2.0181e-05 -2.44311e-08 0 -2.03255e-05 -2.28971e-08 0 -2.04608e-05 -2.13832e-08 0 -2.05869e-05 -1.98896e-08 0 -2.07039e-05 -1.84163e-08 0 -2.08121e-05 -1.69628e-08 0 -2.09114e-05 -1.55284e-08 0 -2.10021e-05 -1.41123e-08 0 -2.10842e-05 -1.27133e-08 0 -2.11577e-05 -1.13303e-08 0 -2.12229e-05 -9.96184e-09 0 -2.12797e-05 -8.60644e-09 0 -2.13283e-05 -7.26254e-09 0 -2.13687e-05 -5.92847e-09 0 -2.1401e-05 -4.60252e-09 0 -2.14251e-05 -3.28294e-09 0 -2.14412e-05 -1.96793e-09 0 -2.14492e-05 -6.55671e-10 0 -2.14492e-05 6.55671e-10 0 -2.14412e-05 1.96793e-09 0 -2.14251e-05 3.28294e-09 0 -2.1401e-05 4.60252e-09 0 -2.13687e-05 5.92847e-09 0 -2.13283e-05 7.26254e-09 0 -2.12797e-05 8.60644e-09 0 -2.12229e-05 9.96184e-09 0 -2.11577e-05 1.13303e-08 0 -2.10842e-05 1.27133e-08 0 -2.10021e-05 1.41123e-08 0 -2.09114e-05 1.55284e-08 0 -2.08121e-05 1.69628e-08 0 -2.07039e-05 1.84163e-08 0 -2.05869e-05 1.98896e-08 0 -2.04608e-05 2.13832e-08 0 -2.03255e-05 2.28971e-08 0 -2.0181e-05 2.44311e-08 0 -2.00271e-05 2.59846e-08 0 -1.98638e-05 2.75563e-08 0 -1.96909e-05 2.91448e-08 0 -1.95083e-05 3.07476e-08 0 -1.9316e-05 3.2362e-08 0 -1.9114e-05 3.39843e-08 0 -1.89021e-05 3.56098e-08 0 -1.86805e-05 3.72334e-08 0 -1.84491e-05 3.88485e-08 0 -1.82081e-05 4.04477e-08 0 -1.79576e-05 4.20227e-08 0 -1.76978e-05 4.35639e-08 0 -1.74289e-05 4.50606e-08 0 -1.71512e-05 4.65012e-08 0 -1.68651e-05 4.78731e-08 0 -1.65711e-05 4.91629e-08 0 -1.62698e-05 5.03566e-08 0 -1.59617e-05 5.144e-08 0 -1.56475e-05 5.23987e-08 0 -1.53281e-05 5.32186e-08 0 -1.50044e-05 5.38864e-08 0 -1.46771e-05 5.43896e-08 0 -1.43475e-05 5.4717e-08 0 -1.40165e-05 5.48589e-08 0 -1.36853e-05 5.4807e-08 0 -1.33551e-05 5.45547e-08 0 -1.3027e-05 5.40963e-08 0 -1.27024e-05 5.34269e-08 0 -1.23825e-05 5.2541e-08 0 -1.20686e-05 5.14325e-08 0 -1.17621e-05 5.00905e-08 0 -1.14646e-05 4.85024e-08 0 -1.11775e-05 4.66392e-08 0 -1.09028e-05 4.4468e-08 0 -1.06426e-05 4.19439e-08 0 -1.03996e-05 3.884e-08 0 -1.01771e-05 3.56404e-08 0 -9.98008e-06 2.96632e-08 0 -9.81565e-06 2.92677e-08 0 -9.69493e-06 2.54143e-09 0 -9.63051e-06 3.878e-08 0 -9.66843e-06 -3.63829e-08 0 -1.00196e-05 3.19693e-07 0 -1.14145e-05 -2.51375e-06 0 -1.27083e-05 -7.54613e-06 0 7.04358e-06 5.50315e-05 0 4.46314e-06 -4.48547e-05 0 -4.49539e-06 6.95107e-06 0 -2.05751e-06 1.85731e-06 0 -1.21699e-06 -4.19311e-07 0 -1.20373e-06 1.54962e-08 0 -1.21467e-06 -2.75432e-08 0 -1.23478e-06 1.43997e-08 0 -1.25129e-06 -1.50512e-09 0 -1.27572e-06 4.41222e-09 0 -1.30315e-06 3.74128e-09 0 -1.33403e-06 4.69331e-09 0 -1.36737e-06 5.01926e-09 0 -1.40294e-06 5.3984e-09 0 -1.44038e-06 5.6874e-09 0 -1.47943e-06 5.93345e-09 0 -1.51988e-06 6.13886e-09 0 -1.56152e-06 6.30934e-09 0 -1.60416e-06 6.44889e-09 0 -1.64761e-06 6.5599e-09 0 -1.6917e-06 6.64431e-09 0 -1.73625e-06 6.70356e-09 0 -1.78108e-06 6.73882e-09 0 -1.82603e-06 6.75115e-09 0 -1.87093e-06 6.74156e-09 0 -1.91562e-06 6.71108e-09 0 -1.95995e-06 6.66078e-09 0 -2.00377e-06 6.59181e-09 0 -2.04696e-06 6.50537e-09 0 -2.08939e-06 6.40274e-09 0 -2.13095e-06 6.28526e-09 0 -2.17154e-06 6.15429e-09 0 -2.21109e-06 6.01121e-09 0 -2.24951e-06 5.85739e-09 0 -2.28676e-06 5.69418e-09 0 -2.32277e-06 5.52289e-09 0 -2.35751e-06 5.34476e-09 0 -2.39095e-06 5.16096e-09 0 -2.42308e-06 4.97257e-09 0 -2.45387e-06 4.78057e-09 0 -2.48332e-06 4.58588e-09 0 -2.51143e-06 4.38928e-09 0 -2.5382e-06 4.1915e-09 0 -2.56365e-06 3.99313e-09 0 -2.58777e-06 3.79471e-09 0 -2.61059e-06 3.59669e-09 0 -2.63213e-06 3.39942e-09 0 -2.65239e-06 3.20321e-09 0 -2.67139e-06 3.00829e-09 0 -2.68916e-06 2.81483e-09 0 -2.70572e-06 2.62295e-09 0 -2.72107e-06 2.43273e-09 0 -2.73524e-06 2.24421e-09 0 -2.74825e-06 2.05736e-09 0 -2.76012e-06 1.87217e-09 0 -2.77085e-06 1.68857e-09 0 -2.78046e-06 1.50646e-09 0 -2.78897e-06 1.32575e-09 0 -2.7964e-06 1.1463e-09 0 -2.80274e-06 9.67979e-10 0 -2.808e-06 7.90626e-10 0 -2.81221e-06 6.1408e-10 0 -2.81536e-06 4.38169e-10 0 -2.81746e-06 2.62717e-10 0 -2.8185e-06 8.75415e-11 0 -2.8185e-06 -8.75415e-11 0 -2.81746e-06 -2.62717e-10 0 -2.81536e-06 -4.38169e-10 0 -2.81221e-06 -6.1408e-10 0 -2.808e-06 -7.90626e-10 0 -2.80274e-06 -9.67979e-10 0 -2.7964e-06 -1.1463e-09 0 -2.78897e-06 -1.32575e-09 0 -2.78046e-06 -1.50646e-09 0 -2.77085e-06 -1.68857e-09 0 -2.76012e-06 -1.87217e-09 0 -2.74825e-06 -2.05736e-09 0 -2.73524e-06 -2.24421e-09 0 -2.72107e-06 -2.43273e-09 0 -2.70572e-06 -2.62295e-09 0 -2.68916e-06 -2.81483e-09 0 -2.67139e-06 -3.00829e-09 0 -2.65239e-06 -3.20321e-09 0 -2.63213e-06 -3.39942e-09 0 -2.61059e-06 -3.59669e-09 0 -2.58777e-06 -3.79471e-09 0 -2.56365e-06 -3.99313e-09 0 -2.5382e-06 -4.1915e-09 0 -2.51143e-06 -4.38928e-09 0 -2.48332e-06 -4.58588e-09 0 -2.45387e-06 -4.78057e-09 0 -2.42308e-06 -4.97257e-09 0 -2.39095e-06 -5.16096e-09 0 -2.35751e-06 -5.34476e-09 0 -2.32277e-06 -5.52289e-09 0 -2.28676e-06 -5.69418e-09 0 -2.24951e-06 -5.85739e-09 0 -2.21109e-06 -6.01121e-09 0 -2.17154e-06 -6.15429e-09 0 -2.13095e-06 -6.28526e-09 0 -2.08939e-06 -6.40274e-09 0 -2.04696e-06 -6.50537e-09 0 -2.00377e-06 -6.59181e-09 0 -1.95995e-06 -6.66078e-09 0 -1.91562e-06 -6.71108e-09 0 -1.87093e-06 -6.74156e-09 0 -1.82603e-06 -6.75115e-09 0 -1.78108e-06 -6.73882e-09 0 -1.73625e-06 -6.70356e-09 0 -1.6917e-06 -6.64431e-09 0 -1.64761e-06 -6.5599e-09 0 -1.60416e-06 -6.44889e-09 0 -1.56152e-06 -6.30934e-09 0 -1.51988e-06 -6.13886e-09 0 -1.47943e-06 -5.93345e-09 0 -1.44038e-06 -5.6874e-09 0 -1.40294e-06 -5.3984e-09 0 -1.36737e-06 -5.01926e-09 0 -1.33403e-06 -4.69331e-09 0 -1.30315e-06 -3.74128e-09 0 -1.27572e-06 -4.41222e-09 0 -1.25129e-06 1.50512e-09 0 -1.23478e-06 -1.43997e-08 0 -1.21467e-06 2.75432e-08 0 -1.20373e-06 -1.54962e-08 0 -1.21699e-06 4.19311e-07 0 -2.05751e-06 -1.85731e-06 0 -4.49539e-06 -6.95107e-06 0 4.46314e-06 4.48547e-05 0 3.89108e-06 -3.90884e-05 0 -1.29113e-06 5.92177e-06 0 6.08816e-07 1.43627e-06 0 9.34607e-07 -3.94094e-07 0 8.43122e-07 1.86263e-08 0 8.21294e-07 -1.99444e-08 0 8.20786e-07 1.39468e-08 0 8.308e-07 5.49193e-10 0 8.43229e-07 5.86302e-09 0 8.58873e-07 5.54093e-09 0 8.767e-07 6.51097e-09 0 8.96339e-07 6.95568e-09 0 9.1745e-07 7.4146e-09 0 9.39787e-07 7.78633e-09 0 9.63162e-07 8.10421e-09 0 9.87412e-07 8.3746e-09 0 1.0124e-06 8.60122e-09 0 1.038e-06 8.78823e-09 0 1.0641e-06 8.93736e-09 0 1.09059e-06 9.05028e-09 0 1.11736e-06 9.12813e-09 0 1.14431e-06 9.17196e-09 0 1.17135e-06 9.18285e-09 0 1.19838e-06 9.162e-09 0 1.2253e-06 9.11079e-09 0 1.25205e-06 9.03081e-09 0 1.27852e-06 8.92385e-09 0 1.30466e-06 8.79186e-09 0 1.33038e-06 8.63696e-09 0 1.35563e-06 8.46136e-09 0 1.38034e-06 8.2673e-09 0 1.40447e-06 8.05706e-09 0 1.42797e-06 7.83282e-09 0 1.45081e-06 7.59675e-09 0 1.47294e-06 7.35084e-09 0 1.49435e-06 7.09698e-09 0 1.51501e-06 6.83691e-09 0 1.5349e-06 6.5722e-09 0 1.55401e-06 6.30423e-09 0 1.57234e-06 6.03425e-09 0 1.58987e-06 5.76334e-09 0 1.6066e-06 5.49241e-09 0 1.62254e-06 5.22224e-09 0 1.63768e-06 4.95346e-09 0 1.65204e-06 4.68661e-09 0 1.66561e-06 4.42209e-09 0 1.6784e-06 4.16021e-09 0 1.69041e-06 3.90119e-09 0 1.70167e-06 3.64518e-09 0 1.71217e-06 3.39225e-09 0 1.72192e-06 3.1424e-09 0 1.73094e-06 2.89561e-09 0 1.73922e-06 2.65179e-09 0 1.74678e-06 2.41082e-09 0 1.75363e-06 2.17253e-09 0 1.75977e-06 1.93675e-09 0 1.76521e-06 1.70327e-09 0 1.76996e-06 1.47185e-09 0 1.77401e-06 1.24226e-09 0 1.77739e-06 1.01423e-09 0 1.78008e-06 7.87486e-10 0 1.7821e-06 5.61761e-10 0 1.78344e-06 3.36764e-10 0 1.78412e-06 1.12206e-10 0 1.78412e-06 -1.12206e-10 0 1.78344e-06 -3.36764e-10 0 1.7821e-06 -5.61761e-10 0 1.78008e-06 -7.87486e-10 0 1.77739e-06 -1.01423e-09 0 1.77401e-06 -1.24226e-09 0 1.76996e-06 -1.47185e-09 0 1.76521e-06 -1.70327e-09 0 1.75977e-06 -1.93675e-09 0 1.75363e-06 -2.17253e-09 0 1.74678e-06 -2.41082e-09 0 1.73922e-06 -2.65179e-09 0 1.73094e-06 -2.89561e-09 0 1.72192e-06 -3.1424e-09 0 1.71217e-06 -3.39225e-09 0 1.70167e-06 -3.64518e-09 0 1.69041e-06 -3.90119e-09 0 1.6784e-06 -4.16021e-09 0 1.66561e-06 -4.42209e-09 0 1.65204e-06 -4.68661e-09 0 1.63768e-06 -4.95346e-09 0 1.62254e-06 -5.22224e-09 0 1.6066e-06 -5.49241e-09 0 1.58987e-06 -5.76334e-09 0 1.57234e-06 -6.03425e-09 0 1.55401e-06 -6.30423e-09 0 1.5349e-06 -6.5722e-09 0 1.51501e-06 -6.83691e-09 0 1.49435e-06 -7.09698e-09 0 1.47294e-06 -7.35084e-09 0 1.45081e-06 -7.59675e-09 0 1.42797e-06 -7.83282e-09 0 1.40447e-06 -8.05706e-09 0 1.38034e-06 -8.2673e-09 0 1.35563e-06 -8.46136e-09 0 1.33038e-06 -8.63696e-09 0 1.30466e-06 -8.79186e-09 0 1.27852e-06 -8.92385e-09 0 1.25205e-06 -9.03081e-09 0 1.2253e-06 -9.11079e-09 0 1.19838e-06 -9.162e-09 0 1.17135e-06 -9.18285e-09 0 1.14431e-06 -9.17196e-09 0 1.11736e-06 -9.12813e-09 0 1.09059e-06 -9.05028e-09 0 1.0641e-06 -8.93736e-09 0 1.038e-06 -8.78823e-09 0 1.0124e-06 -8.60122e-09 0 9.87412e-07 -8.3746e-09 0 9.63162e-07 -8.10421e-09 0 9.39787e-07 -7.78633e-09 0 9.1745e-07 -7.4146e-09 0 8.96339e-07 -6.95568e-09 0 8.767e-07 -6.51097e-09 0 8.58873e-07 -5.54093e-09 0 8.43229e-07 -5.86302e-09 0 8.308e-07 -5.49193e-10 0 8.20786e-07 -1.39468e-08 0 8.21294e-07 1.99444e-08 0 8.43122e-07 -1.86263e-08 0 9.34607e-07 3.94094e-07 0 6.08816e-07 -1.43627e-06 0 -1.29113e-06 -5.92177e-06 0 3.89108e-06 3.90884e-05 0 3.24305e-06 -3.51349e-05 0 -8.32285e-07 5.08872e-06 0 3.87198e-07 1.2285e-06 0 5.08499e-07 -3.40266e-07 0 4.2291e-07 2.55786e-08 0 4.14293e-07 -1.69127e-08 0 4.15588e-07 1.09269e-08 0 4.2203e-07 -2.02647e-09 0 4.28699e-07 2.10751e-09 0 4.37168e-07 1.25335e-09 0 4.46645e-07 1.70358e-09 0 4.57056e-07 1.7489e-09 0 4.682e-07 1.87299e-09 0 4.79973e-07 1.96096e-09 0 4.92278e-07 2.0392e-09 0 5.05037e-07 2.10605e-09 0 5.18179e-07 2.16223e-09 0 5.31641e-07 2.20882e-09 0 5.45363e-07 2.24598e-09 0 5.59288e-07 2.27409e-09 0 5.7336e-07 2.29333e-09 0 5.87525e-07 2.30391e-09 0 6.01733e-07 2.30607e-09 0 6.15931e-07 2.3001e-09 0 6.30073e-07 2.28633e-09 0 6.44111e-07 2.26517e-09 0 6.58002e-07 2.23709e-09 0 6.71706e-07 2.20262e-09 0 6.85185e-07 2.16231e-09 0 6.98405e-07 2.11676e-09 0 7.11337e-07 2.06658e-09 0 7.23953e-07 2.01235e-09 0 7.3623e-07 1.95467e-09 0 7.48148e-07 1.8941e-09 0 7.59691e-07 1.83118e-09 0 7.70844e-07 1.76638e-09 0 7.81598e-07 1.70016e-09 0 7.91944e-07 1.63292e-09 0 8.01876e-07 1.56501e-09 0 8.11391e-07 1.49676e-09 0 8.20486e-07 1.42841e-09 0 8.29162e-07 1.36021e-09 0 8.37418e-07 1.29235e-09 0 8.45257e-07 1.22496e-09 0 8.52682e-07 1.15819e-09 0 8.59696e-07 1.09211e-09 0 8.66303e-07 1.02681e-09 0 8.72509e-07 9.62331e-10 0 8.78316e-07 8.98696e-10 0 8.83731e-07 8.35916e-10 0 8.88759e-07 7.73989e-10 0 8.93404e-07 7.12895e-10 0 8.9767e-07 6.52608e-10 0 9.01564e-07 5.93089e-10 0 9.05088e-07 5.34293e-10 0 9.08247e-07 4.76167e-10 0 9.11046e-07 4.18654e-10 0 9.13487e-07 3.61691e-10 0 9.15573e-07 3.05212e-10 0 9.17308e-07 2.49146e-10 0 9.18692e-07 1.93422e-10 0 9.19729e-07 1.37966e-10 0 9.2042e-07 8.27025e-11 0 9.20765e-07 2.75546e-11 0 9.20765e-07 -2.75546e-11 0 9.2042e-07 -8.27025e-11 0 9.19729e-07 -1.37966e-10 0 9.18692e-07 -1.93422e-10 0 9.17308e-07 -2.49146e-10 0 9.15573e-07 -3.05212e-10 0 9.13487e-07 -3.61691e-10 0 9.11046e-07 -4.18654e-10 0 9.08247e-07 -4.76167e-10 0 9.05088e-07 -5.34293e-10 0 9.01564e-07 -5.93089e-10 0 8.9767e-07 -6.52608e-10 0 8.93404e-07 -7.12895e-10 0 8.88759e-07 -7.73989e-10 0 8.83731e-07 -8.35916e-10 0 8.78316e-07 -8.98696e-10 0 8.72509e-07 -9.62331e-10 0 8.66303e-07 -1.02681e-09 0 8.59696e-07 -1.09211e-09 0 8.52682e-07 -1.15819e-09 0 8.45257e-07 -1.22496e-09 0 8.37418e-07 -1.29235e-09 0 8.29162e-07 -1.36021e-09 0 8.20486e-07 -1.42841e-09 0 8.11391e-07 -1.49676e-09 0 8.01876e-07 -1.56501e-09 0 7.91944e-07 -1.63292e-09 0 7.81598e-07 -1.70016e-09 0 7.70844e-07 -1.76638e-09 0 7.59691e-07 -1.83118e-09 0 7.48148e-07 -1.8941e-09 0 7.3623e-07 -1.95467e-09 0 7.23953e-07 -2.01235e-09 0 7.11337e-07 -2.06658e-09 0 6.98405e-07 -2.11676e-09 0 6.85185e-07 -2.16231e-09 0 6.71706e-07 -2.20262e-09 0 6.58002e-07 -2.23709e-09 0 6.44111e-07 -2.26517e-09 0 6.30073e-07 -2.28633e-09 0 6.15931e-07 -2.3001e-09 0 6.01733e-07 -2.30607e-09 0 5.87525e-07 -2.30391e-09 0 5.7336e-07 -2.29333e-09 0 5.59288e-07 -2.27409e-09 0 5.45363e-07 -2.24598e-09 0 5.31641e-07 -2.20882e-09 0 5.18179e-07 -2.16223e-09 0 5.05037e-07 -2.10605e-09 0 4.92278e-07 -2.0392e-09 0 4.79973e-07 -1.96096e-09 0 4.682e-07 -1.87299e-09 0 4.57056e-07 -1.7489e-09 0 4.46645e-07 -1.70358e-09 0 4.37168e-07 -1.25335e-09 0 4.28699e-07 -2.10751e-09 0 4.2203e-07 2.02647e-09 0 4.15588e-07 -1.09269e-08 0 4.14293e-07 1.69127e-08 0 4.2291e-07 -2.55786e-08 0 5.08499e-07 3.40266e-07 0 3.87198e-07 -1.2285e-06 0 -8.32285e-07 -5.08872e-06 0 3.24305e-06 3.51349e-05 0 2.66173e-06 -3.20155e-05 0 -8.07049e-07 4.51503e-06 0 3.42301e-08 1.11423e-06 0 1.04174e-07 -2.93715e-07 0 5.00875e-08 2.68241e-08 0 4.99754e-08 -1.5498e-08 0 5.08267e-08 9.00078e-09 0 5.26523e-08 -2.89514e-09 0 5.34511e-08 5.96662e-10 0 5.46852e-08 -3.80482e-10 0 5.59806e-08 -1.38734e-10 0 5.7399e-08 -2.30861e-10 0 5.8901e-08 -2.31565e-10 0 6.04806e-08 -2.47532e-10 0 6.21271e-08 -2.58597e-10 0 6.38312e-08 -2.67648e-10 0 6.55848e-08 -2.75419e-10 0 6.738e-08 -2.81594e-10 0 6.92092e-08 -2.86566e-10 0 7.10648e-08 -2.90322e-10 0 7.29396e-08 -2.92974e-10 0 7.48263e-08 -2.94567e-10 0 7.67177e-08 -2.95156e-10 0 7.86069e-08 -2.94786e-10 0 8.04871e-08 -2.93504e-10 0 8.2352e-08 -2.91357e-10 0 8.41955e-08 -2.88395e-10 0 8.60121e-08 -2.8467e-10 0 8.77967e-08 -2.80237e-10 0 8.95446e-08 -2.75152e-10 0 9.12518e-08 -2.69475e-10 0 9.29147e-08 -2.63264e-10 0 9.45302e-08 -2.56579e-10 0 9.6096e-08 -2.49478e-10 0 9.76098e-08 -2.42017e-10 0 9.90701e-08 -2.34252e-10 0 1.00476e-07 -2.26232e-10 0 1.01826e-07 -2.18006e-10 0 1.0312e-07 -2.09616e-10 0 1.04357e-07 -2.01104e-10 0 1.05538e-07 -1.92503e-10 0 1.06663e-07 -1.83846e-10 0 1.07732e-07 -1.7516e-10 0 1.08745e-07 -1.66469e-10 0 1.09704e-07 -1.57792e-10 0 1.10609e-07 -1.49146e-10 0 1.1146e-07 -1.40544e-10 0 1.12258e-07 -1.31997e-10 0 1.13004e-07 -1.23512e-10 0 1.13699e-07 -1.15096e-10 0 1.14344e-07 -1.06752e-10 0 1.14939e-07 -9.84806e-11 0 1.15486e-07 -9.02829e-11 0 1.15984e-07 -8.21572e-11 0 1.16434e-07 -7.41007e-11 0 1.16838e-07 -6.61098e-11 0 1.17196e-07 -5.81797e-11 0 1.17507e-07 -5.03049e-11 0 1.17773e-07 -4.24794e-11 0 1.17995e-07 -3.46964e-11 0 1.18171e-07 -2.69487e-11 0 1.18303e-07 -1.9229e-11 0 1.18391e-07 -1.15293e-11 0 1.18435e-07 -3.84174e-12 0 1.18435e-07 3.84174e-12 0 1.18391e-07 1.15293e-11 0 1.18303e-07 1.9229e-11 0 1.18171e-07 2.69487e-11 0 1.17995e-07 3.46964e-11 0 1.17773e-07 4.24794e-11 0 1.17507e-07 5.03049e-11 0 1.17196e-07 5.81797e-11 0 1.16838e-07 6.61098e-11 0 1.16434e-07 7.41007e-11 0 1.15984e-07 8.21572e-11 0 1.15486e-07 9.02829e-11 0 1.14939e-07 9.84806e-11 0 1.14344e-07 1.06752e-10 0 1.13699e-07 1.15096e-10 0 1.13004e-07 1.23512e-10 0 1.12258e-07 1.31997e-10 0 1.1146e-07 1.40544e-10 0 1.10609e-07 1.49146e-10 0 1.09704e-07 1.57792e-10 0 1.08745e-07 1.66469e-10 0 1.07732e-07 1.7516e-10 0 1.06663e-07 1.83846e-10 0 1.05538e-07 1.92503e-10 0 1.04357e-07 2.01104e-10 0 1.0312e-07 2.09616e-10 0 1.01826e-07 2.18006e-10 0 1.00476e-07 2.26232e-10 0 9.90701e-08 2.34252e-10 0 9.76098e-08 2.42017e-10 0 9.6096e-08 2.49478e-10 0 9.45302e-08 2.56579e-10 0 9.29147e-08 2.63264e-10 0 9.12518e-08 2.69475e-10 0 8.95446e-08 2.75152e-10 0 8.77967e-08 2.80237e-10 0 8.60121e-08 2.8467e-10 0 8.41955e-08 2.88395e-10 0 8.2352e-08 2.91357e-10 0 8.04871e-08 2.93504e-10 0 7.86069e-08 2.94786e-10 0 7.67177e-08 2.95156e-10 0 7.48263e-08 2.94567e-10 0 7.29396e-08 2.92974e-10 0 7.10648e-08 2.90322e-10 0 6.92092e-08 2.86566e-10 0 6.738e-08 2.81594e-10 0 6.55848e-08 2.75419e-10 0 6.38312e-08 2.67648e-10 0 6.21271e-08 2.58597e-10 0 6.04806e-08 2.47532e-10 0 5.8901e-08 2.31565e-10 0 5.7399e-08 2.30861e-10 0 5.59806e-08 1.38734e-10 0 5.46852e-08 3.80482e-10 0 5.34511e-08 -5.96662e-10 0 5.26523e-08 2.89514e-09 0 5.08267e-08 -9.00078e-09 0 4.99754e-08 1.5498e-08 0 5.00875e-08 -2.68241e-08 0 1.04174e-07 2.93715e-07 0 3.42301e-08 -1.11423e-06 0 -8.07049e-07 -4.51503e-06 0 2.66173e-06 3.20155e-05 0 2.21476e-06 -2.94296e-05 0 -7.34452e-07 4.09302e-06 0 -7.16643e-08 1.03292e-06 0 -3.89436e-09 -2.61755e-07 0 -3.7503e-08 2.50144e-08 0 -3.5002e-08 -1.47223e-08 0 -3.49354e-08 8.06313e-09 0 -3.45767e-08 -2.7343e-09 0 -3.53077e-08 4.72685e-10 0 -3.58952e-08 -4.35137e-10 0 -3.66416e-08 -2.15679e-10 0 -3.74474e-08 -3.04764e-10 0 -3.83225e-08 -3.08786e-10 0 -3.92487e-08 -3.27168e-10 0 -4.02192e-08 -3.40536e-10 0 -4.12267e-08 -3.51812e-10 0 -4.22654e-08 -3.61508e-10 0 -4.33298e-08 -3.69357e-10 0 -4.44151e-08 -3.75673e-10 0 -4.55167e-08 -3.80434e-10 0 -4.66302e-08 -3.83727e-10 0 -4.77514e-08 -3.85587e-10 0 -4.88762e-08 -3.86063e-10 0 -5.00007e-08 -3.85206e-10 0 -5.11212e-08 -3.83075e-10 0 -5.22342e-08 -3.79737e-10 0 -5.33362e-08 -3.75265e-10 0 -5.44241e-08 -3.69743e-10 0 -5.5495e-08 -3.63258e-10 0 -5.65464e-08 -3.55901e-10 0 -5.75757e-08 -3.47768e-10 0 -5.85809e-08 -3.38953e-10 0 -5.956e-08 -3.29547e-10 0 -6.05115e-08 -3.19641e-10 0 -6.1434e-08 -3.09319e-10 0 -6.23264e-08 -2.98659e-10 0 -6.31876e-08 -2.87736e-10 0 -6.4017e-08 -2.76614e-10 0 -6.4814e-08 -2.65352e-10 0 -6.55783e-08 -2.54004e-10 0 -6.63096e-08 -2.42613e-10 0 -6.70077e-08 -2.3122e-10 0 -6.76727e-08 -2.19856e-10 0 -6.83046e-08 -2.08549e-10 0 -6.89036e-08 -1.97322e-10 0 -6.94699e-08 -1.86191e-10 0 -7.00037e-08 -1.7517e-10 0 -7.05054e-08 -1.64269e-10 0 -7.09752e-08 -1.53493e-10 0 -7.14135e-08 -1.42845e-10 0 -7.18207e-08 -1.32327e-10 0 -7.2197e-08 -1.21937e-10 0 -7.25429e-08 -1.11671e-10 0 -7.28586e-08 -1.01525e-10 0 -7.31446e-08 -9.14912e-11 0 -7.3401e-08 -8.15627e-11 0 -7.36282e-08 -7.17307e-11 0 -7.38264e-08 -6.19854e-11 0 -7.39958e-08 -5.23166e-11 0 -7.41367e-08 -4.27135e-11 0 -7.42492e-08 -3.31646e-11 0 -7.43335e-08 -2.36584e-11 0 -7.43896e-08 -1.41827e-11 0 -7.44177e-08 -4.72552e-12 0 -7.44177e-08 4.72552e-12 0 -7.43896e-08 1.41827e-11 0 -7.43335e-08 2.36584e-11 0 -7.42492e-08 3.31646e-11 0 -7.41367e-08 4.27135e-11 0 -7.39958e-08 5.23166e-11 0 -7.38264e-08 6.19854e-11 0 -7.36282e-08 7.17307e-11 0 -7.3401e-08 8.15627e-11 0 -7.31446e-08 9.14912e-11 0 -7.28586e-08 1.01525e-10 0 -7.25429e-08 1.11671e-10 0 -7.2197e-08 1.21937e-10 0 -7.18207e-08 1.32327e-10 0 -7.14135e-08 1.42845e-10 0 -7.09752e-08 1.53493e-10 0 -7.05054e-08 1.64269e-10 0 -7.00037e-08 1.7517e-10 0 -6.94699e-08 1.86191e-10 0 -6.89036e-08 1.97322e-10 0 -6.83046e-08 2.08549e-10 0 -6.76727e-08 2.19856e-10 0 -6.70077e-08 2.3122e-10 0 -6.63096e-08 2.42613e-10 0 -6.55783e-08 2.54004e-10 0 -6.4814e-08 2.65352e-10 0 -6.4017e-