<?xml version="1.0"?> 
<VTKFile type="StructuredGrid" version="0.1"> 
<StructuredGrid WholeExtent="0 127 0 127 0 0"> 
<Piece Extent="0 127 0 127 0 0"> 
<PointData>
<DataArray type="Float32" Name="B" format="ascii" NumberOfComponents="3"> 
0.000234946 0.000187733 0 0.000146691 0.000112242 0 0.000136705 0.000103879 0 0.000130046 9.38693e-05 0 0.000128741 8.96221e-05 0 0.000128408 8.57258e-05 0 0.000129372 8.31324e-05 0 0.000130891 8.09763e-05 0 0.000132909 7.92884e-05 0 0.00013524 7.78753e-05 0 0.000137821 7.66866e-05 0 0.000140585 7.56538e-05 0 0.000143491 7.47374e-05 0 0.000146505 7.39019e-05 0 0.000149603 7.31207e-05 0 0.000152763 7.23713e-05 0 0.00015597 7.16353e-05 0 0.000159208 7.08973e-05 0 0.000162467 7.01445e-05 0 0.000165735 6.93661e-05 0 0.000169002 6.85533e-05 0 0.00017226 6.7699e-05 0 0.0001755 6.67976e-05 0 0.000178715 6.5845e-05 0 0.000181898 6.48382e-05 0 0.000185043 6.37755e-05 0 0.000188143 6.26562e-05 0 0.000191192 6.14804e-05 0 0.000194186 6.02491e-05 0 0.00019712 5.89639e-05 0 0.00019999 5.7627e-05 0 0.000202792 5.62408e-05 0 0.000205523 5.48083e-05 0 0.000208179 5.33325e-05 0 0.000210759 5.18165e-05 0 0.000213259 5.02636e-05 0 0.000215679 4.8677e-05 0 0.000218016 4.70599e-05 0 0.00022027 4.54153e-05 0 0.000222439 4.37462e-05 0 0.000224522 4.20551e-05 0 0.000226519 4.03449e-05 0 0.000228429 3.86177e-05 0 0.000230252 3.68759e-05 0 0.000231988 3.51215e-05 0 0.000233635 3.33562e-05 0 0.000235196 3.15817e-05 0 0.000236668 2.97996e-05 0 0.000238053 2.8011e-05 0 0.00023935 2.62171e-05 0 0.000240559 2.4419e-05 0 0.000241682 2.26174e-05 0 0.000242717 2.08132e-05 0 0.000243665 1.90069e-05 0 0.000244526 1.71991e-05 0 0.000245301 1.53901e-05 0 0.000245989 1.35804e-05 0 0.00024659 1.17702e-05 0 0.000247106 9.9596e-06 0 0.000247535 8.14885e-06 0 0.000247878 6.33801e-06 0 0.000248136 4.52714e-06 0 0.000248307 2.71628e-06 0 0.000248393 9.05426e-07 0 0.000248393 -9.05426e-07 0 0.000248307 -2.71628e-06 0 0.000248136 -4.52714e-06 0 0.000247878 -6.33801e-06 0 0.000247535 -8.14885e-06 0 0.000247106 -9.9596e-06 0 0.00024659 -1.17702e-05 0 0.000245989 -1.35804e-05 0 0.000245301 -1.53901e-05 0 0.000244526 -1.71991e-05 0 0.000243665 -1.90069e-05 0 0.000242717 -2.08132e-05 0 0.000241682 -2.26174e-05 0 0.000240559 -2.4419e-05 0 0.00023935 -2.62171e-05 0 0.000238053 -2.8011e-05 0 0.000236668 -2.97996e-05 0 0.000235196 -3.15817e-05 0 0.000233635 -3.33562e-05 0 0.000231988 -3.51215e-05 0 0.000230252 -3.68759e-05 0 0.000228429 -3.86177e-05 0 0.000226519 -4.03449e-05 0 0.000224522 -4.20551e-05 0 0.000222439 -4.37462e-05 0 0.00022027 -4.54153e-05 0 0.000218016 -4.70599e-05 0 0.000215679 -4.8677e-05 0 0.000213259 -5.02636e-05 0 0.000210759 -5.18165e-05 0 0.000208179 -5.33325e-05 0 0.000205523 -5.48083e-05 0 0.000202792 -5.62408e-05 0 0.00019999 -5.7627e-05 0 0.00019712 -5.89639e-05 0 0.000194186 -6.02491e-05 0 0.000191192 -6.14804e-05 0 0.000188143 -6.26562e-05 0 0.000185043 -6.37755e-05 0 0.000181898 -6.48382e-05 0 0.000178715 -6.5845e-05 0 0.0001755 -6.67976e-05 0 0.00017226 -6.7699e-05 0 0.000169002 -6.85533e-05 0 0.000165735 -6.93661e-05 0 0.000162467 -7.01445e-05 0 0.000159208 -7.08973e-05 0 0.00015597 -7.16353e-05 0 0.000152763 -7.23713e-05 0 0.000149603 -7.31207e-05 0 0.000146505 -7.39019e-05 0 0.000143491 -7.47374e-05 0 0.000140585 -7.56538e-05 0 0.000137821 -7.66866e-05 0 0.00013524 -7.78753e-05 0 0.000132909 -7.92884e-05 0 0.000130891 -8.09763e-05 0 0.000129372 -8.31324e-05 0 0.000128408 -8.57258e-05 0 0.000128741 -8.96221e-05 0 0.000130046 -9.38693e-05 0 0.000136705 -0.000103879 0 0.000146691 -0.000112242 0 0.000234946 -0.000187733 0 0.000162038 0.000215801 0 0.000148517 0.0001181 0 0.000133434 0.000106425 0 0.000129897 9.47391e-05 0 0.000127911 8.98588e-05 0 0.000128105 8.55407e-05 0 0.000129021 8.26948e-05 0 0.000130662 8.0363e-05 0 0.000132704 7.85508e-05 0 0.000135077 7.70463e-05 0 0.000137679 7.57888e-05 0 0.000140462 7.47036e-05 0 0.00014338 7.3747e-05 0 0.000146404 7.28806e-05 0 0.000149507 7.20758e-05 0 0.00015267 7.13088e-05 0 0.000155878 7.05602e-05 0 0.000159116 6.9814e-05 0 0.000162372 6.90566e-05 0 0.000165636 6.8277e-05 0 0.000168899 6.74661e-05 0 0.000172151 6.66165e-05 0 0.000175386 6.57223e-05 0 0.000178594 6.47793e-05 0 0.000181771 6.37844e-05 0 0.000184908 6.27356e-05 0 0.000188001 6.16322e-05 0 0.000191044 6.0474e-05 0 0.000194031 5.92619e-05 0 0.000196959 5.79975e-05 0 0.000199822 5.66825e-05 0 0.000202618 5.53195e-05 0 0.000205343 5.39112e-05 0 0.000207995 5.24605e-05 0 0.00021057 5.09704e-05 0 0.000213066 4.94441e-05 0 0.000215482 4.78847e-05 0 0.000217815 4.62953e-05 0 0.000220066 4.46787e-05 0 0.000222232 4.30379e-05 0 0.000224313 4.13755e-05 0 0.000226307 3.9694e-05 0 0.000228216 3.79958e-05 0 0.000230037 3.62831e-05 0 0.000231771 3.45578e-05 0 0.000233417 3.28217e-05 0 0.000234976 3.10765e-05 0 0.000236448 2.93235e-05 0 0.000237832 2.75641e-05 0 0.000239129 2.57994e-05 0 0.000240338 2.40304e-05 0 0.00024146 2.22579e-05 0 0.000242494 2.04827e-05 0 0.000243442 1.87054e-05 0 0.000244303 1.69265e-05 0 0.000245078 1.51464e-05 0 0.000245766 1.33655e-05 0 0.000246367 1.1584e-05 0 0.000246883 9.80214e-06 0 0.000247312 8.02007e-06 0 0.000247655 6.23789e-06 0 0.000247913 4.45565e-06 0 0.000248084 2.67339e-06 0 0.00024817 8.91129e-07 0 0.00024817 -8.91129e-07 0 0.000248084 -2.67339e-06 0 0.000247913 -4.45565e-06 0 0.000247655 -6.23789e-06 0 0.000247312 -8.02007e-06 0 0.000246883 -9.80214e-06 0 0.000246367 -1.1584e-05 0 0.000245766 -1.33655e-05 0 0.000245078 -1.51464e-05 0 0.000244303 -1.69265e-05 0 0.000243442 -1.87054e-05 0 0.000242494 -2.04827e-05 0 0.00024146 -2.22579e-05 0 0.000240338 -2.40304e-05 0 0.000239129 -2.57994e-05 0 0.000237832 -2.75641e-05 0 0.000236448 -2.93235e-05 0 0.000234976 -3.10765e-05 0 0.000233417 -3.28217e-05 0 0.000231771 -3.45578e-05 0 0.000230037 -3.62831e-05 0 0.000228216 -3.79958e-05 0 0.000226307 -3.9694e-05 0 0.000224313 -4.13755e-05 0 0.000222232 -4.30379e-05 0 0.000220066 -4.46787e-05 0 0.000217815 -4.62953e-05 0 0.000215482 -4.78847e-05 0 0.000213066 -4.94441e-05 0 0.00021057 -5.09704e-05 0 0.000207995 -5.24605e-05 0 0.000205343 -5.39112e-05 0 0.000202618 -5.53195e-05 0 0.000199822 -5.66825e-05 0 0.000196959 -5.79975e-05 0 0.000194031 -5.92619e-05 0 0.000191044 -6.0474e-05 0 0.000188001 -6.16322e-05 0 0.000184908 -6.27356e-05 0 0.000181771 -6.37844e-05 0 0.000178594 -6.47793e-05 0 0.000175386 -6.57223e-05 0 0.000172151 -6.66165e-05 0 0.000168899 -6.74661e-05 0 0.000165636 -6.8277e-05 0 0.000162372 -6.90566e-05 0 0.000159116 -6.9814e-05 0 0.000155878 -7.05602e-05 0 0.00015267 -7.13088e-05 0 0.000149507 -7.20758e-05 0 0.000146404 -7.28806e-05 0 0.00014338 -7.3747e-05 0 0.000140462 -7.47036e-05 0 0.000137679 -7.57888e-05 0 0.000135077 -7.70463e-05 0 0.000132704 -7.85508e-05 0 0.000130662 -8.0363e-05 0 0.000129021 -8.26948e-05 0 0.000128105 -8.55407e-05 0 0.000127911 -8.98588e-05 0 0.000129897 -9.47391e-05 0 0.000133434 -0.000106425 0 0.000148517 -0.0001181 0 0.000162038 -0.000215801 0 0.000138442 0.000210502 0 0.000143242 0.000126085 0 0.000131898 0.000107366 0 0.000128842 9.59591e-05 0 0.000127332 8.98395e-05 0 0.000127637 8.53854e-05 0 0.000128695 8.22021e-05 0 0.000130395 7.97415e-05 0 0.000132494 7.77955e-05 0 0.000134901 7.6209e-05 0 0.000137531 7.48832e-05 0 0.000140333 7.37485e-05 0 0.000143266 7.27527e-05 0 0.000146299 7.18567e-05 0 0.000149408 7.10293e-05 0 0.000152576 7.02456e-05 0 0.000155785 6.94851e-05 0 0.000159022 6.87311e-05 0 0.000162277 6.79697e-05 0 0.000165538 6.71893e-05 0 0.000168796 6.63805e-05 0 0.000172044 6.55358e-05 0 0.000175272 6.4649e-05 0 0.000178475 6.37158e-05 0 0.000181645 6.27328e-05 0 0.000184776 6.1698e-05 0 0.000187862 6.06104e-05 0 0.000190898 5.94698e-05 0 0.000193879 5.82769e-05 0 0.0001968 5.70331e-05 0 0.000199658 5.574e-05 0 0.000202448 5.44001e-05 0 0.000205167 5.30159e-05 0 0.000207814 5.15902e-05 0 0.000210384 5.01259e-05 0 0.000212876 4.86261e-05 0 0.000215288 4.70937e-05 0 0.000217618 4.55317e-05 0 0.000219865 4.39431e-05 0 0.000222029 4.23305e-05 0 0.000224107 4.06966e-05 0 0.000226099 3.90439e-05 0 0.000228006 3.73746e-05 0 0.000229825 3.56908e-05 0 0.000231558 3.39946e-05 0 0.000233203 3.22876e-05 0 0.000234761 3.05715e-05 0 0.000236232 2.88477e-05 0 0.000237615 2.71175e-05 0 0.000238911 2.53819e-05 0 0.00024012 2.3642e-05 0 0.000241241 2.18985e-05 0 0.000242276 2.01523e-05 0 0.000243223 1.84039e-05 0 0.000244084 1.66539e-05 0 0.000244858 1.49027e-05 0 0.000245546 1.31506e-05 0 0.000246148 1.13978e-05 0 0.000246663 9.6447e-06 0 0.000247093 7.8913e-06 0 0.000247436 6.13776e-06 0 0.000247693 4.38415e-06 0 0.000247865 2.6305e-06 0 0.000247951 8.76833e-07 0 0.000247951 -8.76833e-07 0 0.000247865 -2.6305e-06 0 0.000247693 -4.38415e-06 0 0.000247436 -6.13776e-06 0 0.000247093 -7.8913e-06 0 0.000246663 -9.6447e-06 0 0.000246148 -1.13978e-05 0 0.000245546 -1.31506e-05 0 0.000244858 -1.49027e-05 0 0.000244084 -1.66539e-05 0 0.000243223 -1.84039e-05 0 0.000242276 -2.01523e-05 0 0.000241241 -2.18985e-05 0 0.00024012 -2.3642e-05 0 0.000238911 -2.53819e-05 0 0.000237615 -2.71175e-05 0 0.000236232 -2.88477e-05 0 0.000234761 -3.05715e-05 0 0.000233203 -3.22876e-05 0 0.000231558 -3.39946e-05 0 0.000229825 -3.56908e-05 0 0.000228006 -3.73746e-05 0 0.000226099 -3.90439e-05 0 0.000224107 -4.06966e-05 0 0.000222029 -4.23305e-05 0 0.000219865 -4.39431e-05 0 0.000217618 -4.55317e-05 0 0.000215288 -4.70937e-05 0 0.000212876 -4.86261e-05 0 0.000210384 -5.01259e-05 0 0.000207814 -5.15902e-05 0 0.000205167 -5.30159e-05 0 0.000202448 -5.44001e-05 0 0.000199658 -5.574e-05 0 0.0001968 -5.70331e-05 0 0.000193879 -5.82769e-05 0 0.000190898 -5.94698e-05 0 0.000187862 -6.06104e-05 0 0.000184776 -6.1698e-05 0 0.000181645 -6.27328e-05 0 0.000178475 -6.37158e-05 0 0.000175272 -6.4649e-05 0 0.000172044 -6.55358e-05 0 0.000168796 -6.63805e-05 0 0.000165538 -6.71893e-05 0 0.000162277 -6.79697e-05 0 0.000159022 -6.87311e-05 0 0.000155785 -6.94851e-05 0 0.000152576 -7.02456e-05 0 0.000149408 -7.10293e-05 0 0.000146299 -7.18567e-05 0 0.000143266 -7.27527e-05 0 0.000140333 -7.37485e-05 0 0.000137531 -7.48832e-05 0 0.000134901 -7.6209e-05 0 0.000132494 -7.77955e-05 0 0.000130395 -7.97415e-05 0 0.000128695 -8.22021e-05 0 0.000127637 -8.53854e-05 0 0.000127332 -8.98395e-05 0 0.000128842 -9.59591e-05 0 0.000131898 -0.000107366 0 0.000143242 -0.000126085 0 0.000138442 -0.000210502 0 0.000126104 0.000199685 0 0.000137409 0.000131338 0 0.000130218 0.000108354 0 0.000127675 9.6821e-05 0 0.000126691 8.9829e-05 0 0.000127138 8.51437e-05 0 0.000128342 8.16957e-05 0 0.000130113 7.9092e-05 0 0.000132271 7.70284e-05 0 0.000134716 7.53598e-05 0 0.000137376 7.39702e-05 0 0.000140199 7.27874e-05 0 0.000143147 7.17544e-05 0 0.00014619 7.083e-05 0 0.000149307 6.9981e-05 0 0.000152479 6.91814e-05 0 0.00015569 6.84097e-05 0 0.000158928 6.76485e-05 0 0.000162181 6.68835e-05 0 0.000165439 6.61027e-05 0 0.000168694 6.52964e-05 0 0.000171937 6.44568e-05 0 0.00017516 6.35777e-05 0 0.000178357 6.26543e-05 0 0.00018152 6.16834e-05 0 0.000184645 6.06626e-05 0 0.000187724 5.95908e-05 0 0.000190754 5.84678e-05 0 0.000193729 5.72941e-05 0 0.000196644 5.60707e-05 0 0.000199495 5.47995e-05 0 0.00020228 5.34825e-05 0 0.000204994 5.21223e-05 0 0.000207636 5.07214e-05 0 0.000210201 4.92828e-05 0 0.000212689 4.78093e-05 0 0.000215097 4.63038e-05 0 0.000217424 4.47693e-05 0 0.000219668 4.32084e-05 0 0.000221829 4.1624e-05 0 0.000223905 4.00185e-05 0 0.000225895 3.83944e-05 0 0.000227799 3.67539e-05 0 0.000229617 3.50991e-05 0 0.000231348 3.34318e-05 0 0.000232992 3.17539e-05 0 0.000234549 3.00669e-05 0 0.000236019 2.83722e-05 0 0.000237402 2.66711e-05 0 0.000238697 2.49645e-05 0 0.000239905 2.32537e-05 0 0.000241026 2.15392e-05 0 0.00024206 1.9822e-05 0 0.000243008 1.81026e-05 0 0.000243869 1.63814e-05 0 0.000244643 1.4659e-05 0 0.000245331 1.29357e-05 0 0.000245932 1.12117e-05 0 0.000246447 9.48726e-06 0 0.000246877 7.76254e-06 0 0.00024722 6.03765e-06 0 0.000247477 4.31265e-06 0 0.000247649 2.58761e-06 0 0.000247735 8.62537e-07 0 0.000247735 -8.62537e-07 0 0.000247649 -2.58761e-06 0 0.000247477 -4.31265e-06 0 0.00024722 -6.03765e-06 0 0.000246877 -7.76254e-06 0 0.000246447 -9.48726e-06 0 0.000245932 -1.12117e-05 0 0.000245331 -1.29357e-05 0 0.000244643 -1.4659e-05 0 0.000243869 -1.63814e-05 0 0.000243008 -1.81026e-05 0 0.00024206 -1.9822e-05 0 0.000241026 -2.15392e-05 0 0.000239905 -2.32537e-05 0 0.000238697 -2.49645e-05 0 0.000237402 -2.66711e-05 0 0.000236019 -2.83722e-05 0 0.000234549 -3.00669e-05 0 0.000232992 -3.17539e-05 0 0.000231348 -3.34318e-05 0 0.000229617 -3.50991e-05 0 0.000227799 -3.67539e-05 0 0.000225895 -3.83944e-05 0 0.000223905 -4.00185e-05 0 0.000221829 -4.1624e-05 0 0.000219668 -4.32084e-05 0 0.000217424 -4.47693e-05 0 0.000215097 -4.63038e-05 0 0.000212689 -4.78093e-05 0 0.000210201 -4.92828e-05 0 0.000207636 -5.07214e-05 0 0.000204994 -5.21223e-05 0 0.00020228 -5.34825e-05 0 0.000199495 -5.47995e-05 0 0.000196644 -5.60707e-05 0 0.000193729 -5.72941e-05 0 0.000190754 -5.84678e-05 0 0.000187724 -5.95908e-05 0 0.000184645 -6.06626e-05 0 0.00018152 -6.16834e-05 0 0.000178357 -6.26543e-05 0 0.00017516 -6.35777e-05 0 0.000171937 -6.44568e-05 0 0.000168694 -6.52964e-05 0 0.000165439 -6.61027e-05 0 0.000162181 -6.68835e-05 0 0.000158928 -6.76485e-05 0 0.00015569 -6.84097e-05 0 0.000152479 -6.91814e-05 0 0.000149307 -6.9981e-05 0 0.00014619 -7.083e-05 0 0.000143147 -7.17544e-05 0 0.000140199 -7.27874e-05 0 0.000137376 -7.39702e-05 0 0.000134716 -7.53598e-05 0 0.000132271 -7.70284e-05 0 0.000130113 -7.9092e-05 0 0.000128342 -8.16957e-05 0 0.000127138 -8.51437e-05 0 0.000126691 -8.9829e-05 0 0.000127675 -9.6821e-05 0 0.000130218 -0.000108354 0 0.000137409 -0.000131338 0 0.000126104 -0.000199685 0 0.000118819 0.000188759 0 0.000131896 0.000134004 0 0.000128329 0.000109287 0 0.000126459 9.73558e-05 0 0.000125984 8.97895e-05 0 0.000126614 8.48266e-05 0 0.000127963 8.11651e-05 0 0.000129816 7.84165e-05 0 0.000132035 7.62466e-05 0 0.000134523 7.44986e-05 0 0.000137214 7.3049e-05 0 0.000140059 7.182e-05 0 0.000143024 7.07517e-05 0 0.000146079 6.98002e-05 0 0.000149204 6.89307e-05 0 0.000152381 6.8116e-05 0 0.000155595 6.73338e-05 0 0.000158833 6.65661e-05 0 0.000162085 6.5798e-05 0 0.000165341 6.50172e-05 0 0.000168592 6.42137e-05 0 0.00017183 6.33795e-05 0 0.000175049 6.25082e-05 0 0.00017824 6.15948e-05 0 0.000181398 6.0636e-05 0 0.000184516 5.96293e-05 0 0.000187589 5.85734e-05 0 0.000190613 5.74679e-05 0 0.000193581 5.63132e-05 0 0.00019649 5.51103e-05 0 0.000199336 5.38608e-05 0 0.000202115 5.25668e-05 0 0.000204825 5.12304e-05 0 0.000207461 4.98543e-05 0 0.000210022 4.84412e-05 0 0.000212506 4.69939e-05 0 0.00021491 4.55152e-05 0 0.000217234 4.40079e-05 0 0.000219475 4.24748e-05 0 0.000221632 4.09183e-05 0 0.000223706 3.93412e-05 0 0.000225694 3.77456e-05 0 0.000227596 3.61338e-05 0 0.000229413 3.45078e-05 0 0.000231142 3.28695e-05 0 0.000232785 3.12206e-05 0 0.000234341 2.95626e-05 0 0.00023581 2.7897e-05 0 0.000237192 2.62249e-05 0 0.000238487 2.45474e-05 0 0.000239694 2.28655e-05 0 0.000240815 2.11801e-05 0 0.000241849 1.94918e-05 0 0.000242796 1.78012e-05 0 0.000243657 1.6109e-05 0 0.000244431 1.44154e-05 0 0.000245118 1.27208e-05 0 0.00024572 1.10256e-05 0 0.000246235 9.32984e-06 0 0.000246664 7.63379e-06 0 0.000247008 5.93753e-06 0 0.000247265 4.24116e-06 0 0.000247436 2.54472e-06 0 0.000247522 8.48242e-07 0 0.000247522 -8.48242e-07 0 0.000247436 -2.54472e-06 0 0.000247265 -4.24116e-06 0 0.000247008 -5.93753e-06 0 0.000246664 -7.63379e-06 0 0.000246235 -9.32984e-06 0 0.00024572 -1.10256e-05 0 0.000245118 -1.27208e-05 0 0.000244431 -1.44154e-05 0 0.000243657 -1.6109e-05 0 0.000242796 -1.78012e-05 0 0.000241849 -1.94918e-05 0 0.000240815 -2.11801e-05 0 0.000239694 -2.28655e-05 0 0.000238487 -2.45474e-05 0 0.000237192 -2.62249e-05 0 0.00023581 -2.7897e-05 0 0.000234341 -2.95626e-05 0 0.000232785 -3.12206e-05 0 0.000231142 -3.28695e-05 0 0.000229413 -3.45078e-05 0 0.000227596 -3.61338e-05 0 0.000225694 -3.77456e-05 0 0.000223706 -3.93412e-05 0 0.000221632 -4.09183e-05 0 0.000219475 -4.24748e-05 0 0.000217234 -4.40079e-05 0 0.00021491 -4.55152e-05 0 0.000212506 -4.69939e-05 0 0.000210022 -4.84412e-05 0 0.000207461 -4.98543e-05 0 0.000204825 -5.12304e-05 0 0.000202115 -5.25668e-05 0 0.000199336 -5.38608e-05 0 0.00019649 -5.51103e-05 0 0.000193581 -5.63132e-05 0 0.000190613 -5.74679e-05 0 0.000187589 -5.85734e-05 0 0.000184516 -5.96293e-05 0 0.000181398 -6.0636e-05 0 0.00017824 -6.15948e-05 0 0.000175049 -6.25082e-05 0 0.00017183 -6.33795e-05 0 0.000168592 -6.42137e-05 0 0.000165341 -6.50172e-05 0 0.000162085 -6.5798e-05 0 0.000158833 -6.65661e-05 0 0.000155595 -6.73338e-05 0 0.000152381 -6.8116e-05 0 0.000149204 -6.89307e-05 0 0.000146079 -6.98002e-05 0 0.000143024 -7.07517e-05 0 0.000140059 -7.182e-05 0 0.000137214 -7.3049e-05 0 0.000134523 -7.44986e-05 0 0.000132035 -7.62466e-05 0 0.000129816 -7.84165e-05 0 0.000127963 -8.11651e-05 0 0.000126614 -8.48266e-05 0 0.000125984 -8.97895e-05 0 0.000126459 -9.73558e-05 0 0.000128329 -0.000109287 0 0.000131896 -0.000134004 0 0.000118819 -0.000188759 0 0.000113484 0.000179062 0 0.000127042 0.000134733 0 0.000126266 0.000109991 0 0.000125219 9.76259e-05 0 0.000125215 8.96819e-05 0 0.000126067 8.44441e-05 0 0.000127561 8.0602e-05 0 0.000129506 7.77157e-05 0 0.000131788 7.54482e-05 0 0.000134321 7.36248e-05 0 0.000137045 7.21188e-05 0 0.000139915 7.0846e-05 0 0.000142897 6.97442e-05 0 0.000145965 6.8767e-05 0 0.000149099 6.78782e-05 0 0.000152281 6.70493e-05 0 0.000155498 6.62574e-05 0 0.000158738 6.54837e-05 0 0.000161989 6.4713e-05 0 0.000165243 6.39326e-05 0 0.000168491 6.31323e-05 0 0.000171725 6.23037e-05 0 0.000174938 6.14404e-05 0 0.000178124 6.05372e-05 0 0.000181276 5.95906e-05 0 0.000184389 5.8598e-05 0 0.000187456 5.7558e-05 0 0.000190473 5.64701e-05 0 0.000193436 5.53344e-05 0 0.000196339 5.41519e-05 0 0.000199179 5.29241e-05 0 0.000201953 5.16527e-05 0 0.000204658 5.03401e-05 0 0.000207289 4.89886e-05 0 0.000209846 4.7601e-05 0 0.000212326 4.61798e-05 0 0.000214726 4.47277e-05 0 0.000217047 4.32476e-05 0 0.000219285 4.17421e-05 0 0.00022144 4.02136e-05 0 0.00022351 3.86646e-05 0 0.000225496 3.70975e-05 0 0.000227397 3.55143e-05 0 0.000229212 3.3917e-05 0 0.00023094 3.23076e-05 0 0.000232582 3.06876e-05 0 0.000234137 2.90586e-05 0 0.000235605 2.7422e-05 0 0.000236986 2.57789e-05 0 0.00023828 2.41304e-05 0 0.000239487 2.24775e-05 0 0.000240607 2.0821e-05 0 0.000241641 1.91617e-05 0 0.000242588 1.75e-05 0 0.000243448 1.58366e-05 0 0.000244222 1.41718e-05 0 0.00024491 1.2506e-05 0 0.000245511 1.08395e-05 0 0.000246026 9.17243e-06 0 0.000246455 7.50504e-06 0 0.000246799 5.83742e-06 0 0.000247056 4.16966e-06 0 0.000247228 2.50183e-06 0 0.000247313 8.33946e-07 0 0.000247313 -8.33946e-07 0 0.000247228 -2.50183e-06 0 0.000247056 -4.16966e-06 0 0.000246799 -5.83742e-06 0 0.000246455 -7.50504e-06 0 0.000246026 -9.17243e-06 0 0.000245511 -1.08395e-05 0 0.00024491 -1.2506e-05 0 0.000244222 -1.41718e-05 0 0.000243448 -1.58366e-05 0 0.000242588 -1.75e-05 0 0.000241641 -1.91617e-05 0 0.000240607 -2.0821e-05 0 0.000239487 -2.24775e-05 0 0.00023828 -2.41304e-05 0 0.000236986 -2.57789e-05 0 0.000235605 -2.7422e-05 0 0.000234137 -2.90586e-05 0 0.000232582 -3.06876e-05 0 0.00023094 -3.23076e-05 0 0.000229212 -3.3917e-05 0 0.000227397 -3.55143e-05 0 0.000225496 -3.70975e-05 0 0.00022351 -3.86646e-05 0 0.00022144 -4.02136e-05 0 0.000219285 -4.17421e-05 0 0.000217047 -4.32476e-05 0 0.000214726 -4.47277e-05 0 0.000212326 -4.61798e-05 0 0.000209846 -4.7601e-05 0 0.000207289 -4.89886e-05 0 0.000204658 -5.03401e-05 0 0.000201953 -5.16527e-05 0 0.000199179 -5.29241e-05 0 0.000196339 -5.41519e-05 0 0.000193436 -5.53344e-05 0 0.000190473 -5.64701e-05 0 0.000187456 -5.7558e-05 0 0.000184389 -5.8598e-05 0 0.000181276 -5.95906e-05 0 0.000178124 -6.05372e-05 0 0.000174938 -6.14404e-05 0 0.000171725 -6.23037e-05 0 0.000168491 -6.31323e-05 0 0.000165243 -6.39326e-05 0 0.000161989 -6.4713e-05 0 0.000158738 -6.54837e-05 0 0.000155498 -6.62574e-05 0 0.000152281 -6.70493e-05 0 0.000149099 -6.78782e-05 0 0.000145965 -6.8767e-05 0 0.000142897 -6.97442e-05 0 0.000139915 -7.0846e-05 0 0.000137045 -7.21188e-05 0 0.000134321 -7.36248e-05 0 0.000131788 -7.54482e-05 0 0.000129506 -7.77157e-05 0 0.000127561 -8.0602e-05 0 0.000126067 -8.44441e-05 0 0.000125215 -8.96819e-05 0 0.000125219 -9.76259e-05 0 0.000126266 -0.000109991 0 0.000127042 -0.000134733 0 0.000113484 -0.000179062 0 0.00010937 0.000170582 0 0.000122796 0.00013416 0 0.000124135 0.000110348 0 0.000123954 9.76786e-05 0 0.000124404 8.94803e-05 0 0.000125497 8.4001e-05 0 0.000127139 8.00012e-05 0 0.000129181 7.69894e-05 0 0.000131531 7.46315e-05 0 0.000134112 7.27381e-05 0 0.000136871 7.11789e-05 0 0.000139766 6.9865e-05 0 0.000142767 6.87316e-05 0 0.000145849 6.77301e-05 0 0.000148992 6.68231e-05 0 0.00015218 6.59811e-05 0 0.000155401 6.51802e-05 0 0.000158642 6.44013e-05 0 0.000161893 6.36284e-05 0 0.000165145 6.28489e-05 0 0.00016839 6.2052e-05 0 0.000171621 6.12294e-05 0 0.000174829 6.03742e-05 0 0.00017801 5.94814e-05 0 0.000181157 5.85472e-05 0 0.000184264 5.75687e-05 0 0.000187325 5.65446e-05 0 0.000190336 5.54742e-05 0 0.000193293 5.43575e-05 0 0.000196191 5.31953e-05 0 0.000199026 5.19891e-05 0 0.000201794 5.07404e-05 0 0.000204494 4.94514e-05 0 0.000207121 4.81245e-05 0 0.000209673 4.67621e-05 0 0.000212149 4.53669e-05 0 0.000214546 4.39415e-05 0 0.000216863 4.24884e-05 0 0.000219098 4.10103e-05 0 0.00022125 3.95096e-05 0 0.000223319 3.79888e-05 0 0.000225303 3.645e-05 0 0.000227201 3.48953e-05 0 0.000229014 3.33268e-05 0 0.000230741 3.17462e-05 0 0.000232382 3.01551e-05 0 0.000233936 2.8555e-05 0 0.000235403 2.69473e-05 0 0.000236783 2.53331e-05 0 0.000238077 2.37136e-05 0 0.000239283 2.20897e-05 0 0.000240403 2.04621e-05 0 0.000241436 1.88316e-05 0 0.000242383 1.71988e-05 0 0.000243243 1.55642e-05 0 0.000244017 1.39282e-05 0 0.000244704 1.22912e-05 0 0.000245306 1.06534e-05 0 0.000245821 9.01503e-06 0 0.00024625 7.3763e-06 0 0.000246593 5.73732e-06 0 0.000246851 4.09818e-06 0 0.000247022 2.45894e-06 0 0.000247108 8.19651e-07 0 0.000247108 -8.19651e-07 0 0.000247022 -2.45894e-06 0 0.000246851 -4.09818e-06 0 0.000246593 -5.73732e-06 0 0.00024625 -7.3763e-06 0 0.000245821 -9.01503e-06 0 0.000245306 -1.06534e-05 0 0.000244704 -1.22912e-05 0 0.000244017 -1.39282e-05 0 0.000243243 -1.55642e-05 0 0.000242383 -1.71988e-05 0 0.000241436 -1.88316e-05 0 0.000240403 -2.04621e-05 0 0.000239283 -2.20897e-05 0 0.000238077 -2.37136e-05 0 0.000236783 -2.53331e-05 0 0.000235403 -2.69473e-05 0 0.000233936 -2.8555e-05 0 0.000232382 -3.01551e-05 0 0.000230741 -3.17462e-05 0 0.000229014 -3.33268e-05 0 0.000227201 -3.48953e-05 0 0.000225303 -3.645e-05 0 0.000223319 -3.79888e-05 0 0.00022125 -3.95096e-05 0 0.000219098 -4.10103e-05 0 0.000216863 -4.24884e-05 0 0.000214546 -4.39415e-05 0 0.000212149 -4.53669e-05 0 0.000209673 -4.67621e-05 0 0.000207121 -4.81245e-05 0 0.000204494 -4.94514e-05 0 0.000201794 -5.07404e-05 0 0.000199026 -5.19891e-05 0 0.000196191 -5.31953e-05 0 0.000193293 -5.43575e-05 0 0.000190336 -5.54742e-05 0 0.000187325 -5.65446e-05 0 0.000184264 -5.75687e-05 0 0.000181157 -5.85472e-05 0 0.00017801 -5.94814e-05 0 0.000174829 -6.03742e-05 0 0.000171621 -6.12294e-05 0 0.00016839 -6.2052e-05 0 0.000165145 -6.28489e-05 0 0.000161893 -6.36284e-05 0 0.000158642 -6.44013e-05 0 0.000155401 -6.51802e-05 0 0.00015218 -6.59811e-05 0 0.000148992 -6.68231e-05 0 0.000145849 -6.77301e-05 0 0.000142767 -6.87316e-05 0 0.000139766 -6.9865e-05 0 0.000136871 -7.11789e-05 0 0.000134112 -7.27381e-05 0 0.000131531 -7.46315e-05 0 0.000129181 -7.69894e-05 0 0.000127139 -8.00012e-05 0 0.000125497 -8.4001e-05 0 0.000124404 -8.94803e-05 0 0.000123954 -9.76786e-05 0 0.000124135 -0.000110348 0 0.000122796 -0.00013416 0 0.00010937 -0.000170582 0 0.000106012 0.000163137 0 0.000119091 0.000132732 0 0.000122007 0.000110328 0 0.000122671 9.75367e-05 0 0.000123561 8.9174e-05 0 0.000124905 8.34975e-05 0 0.0001267 7.936e-05 0 0.000128845 7.62366e-05 0 0.000131264 7.37957e-05 0 0.000133895 7.18377e-05 0 0.00013669 7.02289e-05 0 0.000139612 6.88766e-05 0 0.000142633 6.77135e-05 0 0.000145729 6.66894e-05 0 0.000148883 6.57654e-05 0 0.000152078 6.49112e-05 0 0.000155303 6.41021e-05 0 0.000158546 6.33185e-05 0 0.000161797 6.25442e-05 0 0.000165047 6.17658e-05 0 0.00016829 6.09728e-05 0 0.000171517 6.01564e-05 0 0.000174722 5.93097e-05 0 0.000177898 5.84274e-05 0 0.000181039 5.75055e-05 0 0.00018414 5.65413e-05 0 0.000187196 5.55332e-05 0 0.000190202 5.44802e-05 0 0.000193153 5.33825e-05 0 0.000196045 5.22406e-05 0 0.000198875 5.10558e-05 0 0.000201638 4.98297e-05 0 0.000204333 4.85643e-05 0 0.000206955 4.72618e-05 0 0.000209504 4.59247e-05 0 0.000211975 4.45553e-05 0 0.000214369 4.31563e-05 0 0.000216682 4.17302e-05 0 0.000218915 4.02795e-05 0 0.000221064 3.88065e-05 0 0.00022313 3.73137e-05 0 0.000225112 3.58032e-05 0 0.000227009 3.4277e-05 0 0.000228821 3.27371e-05 0 0.000230546 3.11851e-05 0 0.000232185 2.96228e-05 0 0.000233738 2.80516e-05 0 0.000235204 2.64728e-05 0 0.000236584 2.48876e-05 0 0.000237877 2.3297e-05 0 0.000239083 2.1702e-05 0 0.000240203 2.01033e-05 0 0.000241236 1.85017e-05 0 0.000242182 1.68977e-05 0 0.000243042 1.52919e-05 0 0.000243816 1.36847e-05 0 0.000244503 1.20764e-05 0 0.000245104 1.04673e-05 0 0.000245619 8.85765e-06 0 0.000246048 7.24757e-06 0 0.000246392 5.63722e-06 0 0.000246649 4.02669e-06 0 0.000246821 2.41605e-06 0 0.000246906 8.05357e-07 0 0.000246906 -8.05357e-07 0 0.000246821 -2.41605e-06 0 0.000246649 -4.02669e-06 0 0.000246392 -5.63722e-06 0 0.000246048 -7.24757e-06 0 0.000245619 -8.85765e-06 0 0.000245104 -1.04673e-05 0 0.000244503 -1.20764e-05 0 0.000243816 -1.36847e-05 0 0.000243042 -1.52919e-05 0 0.000242182 -1.68977e-05 0 0.000241236 -1.85017e-05 0 0.000240203 -2.01033e-05 0 0.000239083 -2.1702e-05 0 0.000237877 -2.3297e-05 0 0.000236584 -2.48876e-05 0 0.000235204 -2.64728e-05 0 0.000233738 -2.80516e-05 0 0.000232185 -2.96228e-05 0 0.000230546 -3.11851e-05 0 0.000228821 -3.27371e-05 0 0.000227009 -3.4277e-05 0 0.000225112 -3.58032e-05 0 0.00022313 -3.73137e-05 0 0.000221064 -3.88065e-05 0 0.000218915 -4.02795e-05 0 0.000216682 -4.17302e-05 0 0.000214369 -4.31563e-05 0 0.000211975 -4.45553e-05 0 0.000209504 -4.59247e-05 0 0.000206955 -4.72618e-05 0 0.000204333 -4.85643e-05 0 0.000201638 -4.98297e-05 0 0.000198875 -5.10558e-05 0 0.000196045 -5.22406e-05 0 0.000193153 -5.33825e-05 0 0.000190202 -5.44802e-05 0 0.000187196 -5.55332e-05 0 0.00018414 -5.65413e-05 0 0.000181039 -5.75055e-05 0 0.000177898 -5.84274e-05 0 0.000174722 -5.93097e-05 0 0.000171517 -6.01564e-05 0 0.00016829 -6.09728e-05 0 0.000165047 -6.17658e-05 0 0.000161797 -6.25442e-05 0 0.000158546 -6.33185e-05 0 0.000155303 -6.41021e-05 0 0.000152078 -6.49112e-05 0 0.000148883 -6.57654e-05 0 0.000145729 -6.66894e-05 0 0.000142633 -6.77135e-05 0 0.000139612 -6.88766e-05 0 0.00013669 -7.02289e-05 0 0.000133895 -7.18377e-05 0 0.000131264 -7.37957e-05 0 0.000128845 -7.62366e-05 0 0.0001267 -7.936e-05 0 0.000124905 -8.34975e-05 0 0.000123561 -8.9174e-05 0 0.000122671 -9.75367e-05 0 0.000122007 -0.000110328 0 0.000119091 -0.000132732 0 0.000106012 -0.000163137 0 0.000103202 0.000156519 0 0.000115844 0.000130752 0 0.000119932 0.000109943 0 0.00012138 9.72126e-05 0 0.000122697 8.87598e-05 0 0.000124295 8.29322e-05 0 0.000126247 7.8677e-05 0 0.000128497 7.5456e-05 0 0.000130989 7.294e-05 0 0.000133672 7.0923e-05 0 0.000136505 6.92684e-05 0 0.000139455 6.78803e-05 0 0.000142496 6.66897e-05 0 0.000145608 6.56445e-05 0 0.000148772 6.47049e-05 0 0.000151975 6.38394e-05 0 0.000155204 6.3023e-05 0 0.000158449 6.22354e-05 0 0.0001617 6.146e-05 0 0.00016495 6.06834e-05 0 0.00016819 5.98946e-05 0 0.000171414 5.90847e-05 0 0.000174615 5.82466e-05 0 0.000177786 5.73749e-05 0 0.000180923 5.64656e-05 0 0.000184019 5.55158e-05 0 0.000187069 5.45236e-05 0 0.000190069 5.34881e-05 0 0.000193015 5.24093e-05 0 0.000195902 5.12877e-05 0 0.000198726 5.01243e-05 0 0.000201485 4.89207e-05 0 0.000204175 4.76788e-05 0 0.000206793 4.64006e-05 0 0.000209337 4.50885e-05 0 0.000211805 4.37449e-05 0 0.000214195 4.23723e-05 0 0.000216505 4.0973e-05 0 0.000218735 3.95496e-05 0 0.000220882 3.81043e-05 0 0.000222946 3.66394e-05 0 0.000224925 3.5157e-05 0 0.000226821 3.36592e-05 0 0.00022863 3.21478e-05 0 0.000230354 3.06245e-05 0 0.000231993 2.9091e-05 0 0.000233544 2.75486e-05 0 0.00023501 2.59986e-05 0 0.000236389 2.44423e-05 0 0.000237681 2.28806e-05 0 0.000238887 2.13144e-05 0 0.000240006 1.97446e-05 0 0.000241038 1.81719e-05 0 0.000241985 1.65967e-05 0 0.000242844 1.50197e-05 0 0.000243618 1.34413e-05 0 0.000244305 1.18617e-05 0 0.000244906 1.02813e-05 0 0.000245421 8.70028e-06 0 0.00024585 7.11886e-06 0 0.000246193 5.53713e-06 0 0.000246451 3.95521e-06 0 0.000246622 2.37317e-06 0 0.000246708 7.91063e-07 0 0.000246708 -7.91063e-07 0 0.000246622 -2.37317e-06 0 0.000246451 -3.95521e-06 0 0.000246193 -5.53713e-06 0 0.00024585 -7.11886e-06 0 0.000245421 -8.70028e-06 0 0.000244906 -1.02813e-05 0 0.000244305 -1.18617e-05 0 0.000243618 -1.34413e-05 0 0.000242844 -1.50197e-05 0 0.000241985 -1.65967e-05 0 0.000241038 -1.81719e-05 0 0.000240006 -1.97446e-05 0 0.000238887 -2.13144e-05 0 0.000237681 -2.28806e-05 0 0.000236389 -2.44423e-05 0 0.00023501 -2.59986e-05 0 0.000233544 -2.75486e-05 0 0.000231993 -2.9091e-05 0 0.000230354 -3.06245e-05 0 0.00022863 -3.21478e-05 0 0.000226821 -3.36592e-05 0 0.000224925 -3.5157e-05 0 0.000222946 -3.66394e-05 0 0.000220882 -3.81043e-05 0 0.000218735 -3.95496e-05 0 0.000216505 -4.0973e-05 0 0.000214195 -4.23723e-05 0 0.000211805 -4.37449e-05 0 0.000209337 -4.50885e-05 0 0.000206793 -4.64006e-05 0 0.000204175 -4.76788e-05 0 0.000201485 -4.89207e-05 0 0.000198726 -5.01243e-05 0 0.000195902 -5.12877e-05 0 0.000193015 -5.24093e-05 0 0.000190069 -5.34881e-05 0 0.000187069 -5.45236e-05 0 0.000184019 -5.55158e-05 0 0.000180923 -5.64656e-05 0 0.000177786 -5.73749e-05 0 0.000174615 -5.82466e-05 0 0.000171414 -5.90847e-05 0 0.00016819 -5.98946e-05 0 0.00016495 -6.06834e-05 0 0.0001617