<?xml version="1.0"?> 
<VTKFile type="StructuredGrid" version="0.1"> 
<StructuredGrid WholeExtent="0 127 0 127 0 0"> 
<Piece Extent="0 127 0 127 0 0"> 
<PointData>
<DataArray type="Float32" Name="B" format="ascii" NumberOfComponents="3"> 
0 -0 0 -1.6957e-07 -0 0 -3.39203e-07 -0 0 -5.08963e-07 -0 0 -6.78913e-07 -0 0 -8.49116e-07 -0 0 -1.01964e-06 -0 0 -1.19054e-06 -0 0 -1.36188e-06 -0 0 -1.53373e-06 -0 0 -1.70615e-06 -0 0 -1.8792e-06 -0 0 -2.05296e-06 -0 0 -2.22747e-06 -0 0 -2.40281e-06 -0 0 -2.57904e-06 -0 0 -2.75622e-06 -0 0 -2.93441e-06 -0 0 -3.11369e-06 -0 0 -3.29412e-06 -0 0 -3.47575e-06 -0 0 -3.65866e-06 -0 0 -3.8429e-06 -0 0 -4.02855e-06 -0 0 -4.21567e-06 -0 0 -4.40432e-06 -0 0 -4.59456e-06 -0 0 -4.78647e-06 -0 0 -4.9801e-06 -0 0 -5.17553e-06 -0 0 -5.37282e-06 -0 0 -5.57202e-06 -0 0 -5.77322e-06 -0 0 -5.97647e-06 -0 0 -6.18183e-06 -0 0 -6.38938e-06 -0 0 -6.59918e-06 -0 0 -6.8113e-06 -0 0 -7.02579e-06 -0 0 -7.24274e-06 -0 0 -7.46219e-06 -0 0 -7.68421e-06 -0 0 -7.90888e-06 -0 0 -8.13626e-06 -0 0 -8.3664e-06 -0 0 -8.59939e-06 -0 0 -8.83527e-06 -0 0 -9.07412e-06 -0 0 -9.31599e-06 -0 0 -9.56096e-06 -0 0 -9.80909e-06 -0 0 -1.00604e-05 -0 0 -1.03151e-05 -0 0 -1.0573e-05 -0 0 -1.08344e-05 -0 0 -1.10993e-05 -0 0 -1.13676e-05 -0 0 -1.16396e-05 -0 0 -1.19152e-05 -0 0 -1.21945e-05 -0 0 -1.24776e-05 -0 0 -1.27645e-05 -0 0 -1.30553e-05 -0 0 -1.335e-05 -0 0 -1.36487e-05 -0 0 -1.39514e-05 -0 0 -1.42583e-05 -0 0 -1.45693e-05 -0 0 -1.48844e-05 -0 0 -1.52038e-05 -0 0 -1.55275e-05 -0 0 -1.58555e-05 -0 0 -1.61879e-05 -0 0 -1.65247e-05 -0 0 -1.68659e-05 -0 0 -1.72117e-05 -0 0 -1.75619e-05 -0 0 -1.79167e-05 -0 0 -1.82761e-05 -0 0 -1.86401e-05 -0 0 -1.90088e-05 -0 0 -1.93821e-05 -0 0 -1.976e-05 -0 0 -2.01427e-05 -0 0 -2.05301e-05 -0 0 -2.09222e-05 -0 0 -2.1319e-05 -0 0 -2.17205e-05 -0 0 -2.21268e-05 -0 0 -2.25378e-05 -0 0 -2.29535e-05 -0 0 -2.33739e-05 -0 0 -2.37989e-05 -0 0 -2.42287e-05 -0 0 -2.4663e-05 -0 0 -2.5102e-05 -0 0 -2.55455e-05 -0 0 -2.59936e-05 -0 0 -2.64461e-05 -0 0 -2.69031e-05 -0 0 -2.73644e-05 -0 0 -2.78301e-05 -0 0 -2.83e-05 -0 0 -2.87741e-05 -0 0 -2.92522e-05 -0 0 -2.97344e-05 -0 0 -3.02205e-05 -0 0 -3.07104e-05 -0 0 -3.1204e-05 -0 0 -3.17012e-05 -0 0 -3.22019e-05 -0 0 -3.27059e-05 -0 0 -3.32132e-05 -0 0 -3.37236e-05 -0 0 -3.42369e-05 -0 0 -3.4753e-05 -0 0 -3.52717e-05 -0 0 -3.57929e-05 -0 0 -3.63164e-05 -0 0 -3.6842e-05 -0 0 -3.73695e-05 -0 0 -3.78988e-05 -0 0 -3.84296e-05 -0 0 -3.89617e-05 -0 0 -3.94949e-05 -0 0 -4.0029e-05 -0 0 -4.05638e-05 -0 0 -4.1099e-05 -0 0 0 1.69539e-07 0 -1.69538e-07 1.69571e-07 0 -3.3914e-07 1.69666e-07 0 -5.08868e-07 1.69824e-07 0 -6.78786e-07 1.70046e-07 0 -8.48957e-07 1.70331e-07 0 -1.01944e-06 1.7068e-07 0 -1.19031e-06 1.71092e-07 0 -1.36162e-06 1.71567e-07 0 -1.53344e-06 1.72106e-07 0 -1.70583e-06 1.72708e-07 0 -1.87885e-06 1.73374e-07 0 -2.05257e-06 1.74104e-07 0 -2.22705e-06 1.74897e-07 0 -2.40236e-06 1.75754e-07 0 -2.57856e-06 1.76676e-07 0 -2.7557e-06 1.77661e-07 0 -2.93387e-06 1.7871e-07 0 -3.11311e-06 1.79823e-07 0 -3.29351e-06 1.81001e-07 0 -3.47511e-06 1.82243e-07 0 -3.65798e-06 1.83549e-07 0 -3.8422e-06 1.8492e-07 0 -4.02781e-06 1.86355e-07 0 -4.21489e-06 1.87855e-07 0 -4.40351e-06 1.8942e-07 0 -4.59372e-06 1.9105e-07 0 -4.7856e-06 1.92745e-07 0 -4.9792e-06 1.94504e-07 0 -5.1746e-06 1.96329e-07 0 -5.37185e-06 1.98219e-07 0 -5.57102e-06 2.00175e-07 0 -5.77218e-06 2.02195e-07 0 -5.9754e-06 2.04281e-07 0 -6.18073e-06 2.06433e-07 0 -6.38825e-06 2.08649e-07 0 -6.59802e-06 2.10932e-07 0 -6.8101e-06 2.13279e-07 0 -7.02456e-06 2.15692e-07 0 -7.24147e-06 2.1817e-07 0 -7.46089e-06 2.20714e-07 0 -7.68288e-06 2.23323e-07 0 -7.90752e-06 2.25997e-07 0 -8.13486e-06 2.28735e-07 0 -8.36497e-06 2.31539e-07 0 -8.59792e-06 2.34408e-07 0 -8.83377e-06 2.37341e-07 0 -9.07259e-06 2.40338e-07 0 -9.31443e-06 2.43399e-07 0 -9.55937e-06 2.46524e-07 0 -9.80747e-06 2.49712e-07 0 -1.00588e-05 2.52963e-07 0 -1.03134e-05 2.56276e-07 0 -1.05713e-05 2.59652e-07 0 -1.08327e-05 2.63089e-07 0 -1.10975e-05 2.66588e-07 0 -1.13658e-05 2.70146e-07 0 -1.16378e-05 2.73765e-07 0 -1.19133e-05 2.77443e-07 0 -1.21926e-05 2.81178e-07 0 -1.24757e-05 2.84972e-07 0 -1.27626e-05 2.88822e-07 0 -1.30533e-05 2.92727e-07 0 -1.3348e-05 2.96687e-07 0 -1.36467e-05 3.00701e-07 0 -1.39494e-05 3.04767e-07 0 -1.42562e-05 3.08884e-07 0 -1.45671e-05 3.1305e-07 0 -1.48823e-05 3.17265e-07 0 -1.52017e-05 3.21527e-07 0 -1.55253e-05 3.25833e-07 0 -1.58533e-05 3.30184e-07 0 -1.61857e-05 3.34575e-07 0 -1.65225e-05 3.39007e-07 0 -1.68637e-05 3.43477e-07 0 -1.72094e-05 3.47982e-07 0 -1.75596e-05 3.5252e-07 0 -1.79144e-05 3.5709e-07 0 -1.82738e-05 3.61688e-07 0 -1.86378e-05 3.66313e-07 0 -1.90064e-05 3.70961e-07 0 -1.93797e-05 3.7563e-07 0 -1.97577e-05 3.80316e-07 0 -2.01403e-05 3.85017e-07 0 -2.05277e-05 3.89729e-07 0 -2.09198e-05 3.9445e-07 0 -2.13166e-05 3.99175e-07 0 -2.17182e-05 4.03901e-07 0 -2.21244e-05 4.08625e-07 0 -2.25354e-05 4.13341e-07 0 -2.29511e-05 4.18047e-07 0 -2.33715e-05 4.22739e-07 0 -2.37966e-05 4.27411e-07 0 -2.42263e-05 4.32059e-07 0 -2.46607e-05 4.36679e-07 0 -2.50997e-05 4.41266e-07 0 -2.55432e-05 4.45815e-07 0 -2.59913e-05 4.50321e-07 0 -2.64439e-05 4.54779e-07 0 -2.69009e-05 4.59183e-07 0 -2.73623e-05 4.63528e-07 0 -2.7828e-05 4.67809e-07 0 -2.82979e-05 4.72018e-07 0 -2.8772e-05 4.76152e-07 0 -2.92502e-05 4.80203e-07 0 -2.97324e-05 4.84165e-07 0 -3.02186e-05 4.88032e-07 0 -3.07085e-05 4.91798e-07 0 -3.12022e-05 4.95457e-07 0 -3.16994e-05 4.99001e-07 0 -3.22002e-05 5.02424e-07 0 -3.27043e-05 5.05719e-07 0 -3.32117e-05 5.0888e-07 0 -3.37221e-05 5.11899e-07 0 -3.42355e-05 5.1477e-07 0 -3.47516e-05 5.17486e-07 0 -3.52705e-05 5.20039e-07 0 -3.57917e-05 5.22423e-07 0 -3.63153e-05 5.2463e-07 0 -3.6841e-05 5.26654e-07 0 -3.73686e-05 5.28487e-07 0 -3.7898e-05 5.30123e-07 0 -3.84289e-05 5.31555e-07 0 -3.89611e-05 5.32775e-07 0 -3.94945e-05 5.33777e-07 0 -4.00287e-05 5.34555e-07 0 -4.05636e-05 5.35101e-07 0 -4.10989e-05 5.3541e-07 0 0 3.39014e-07 0 -1.69443e-07 3.39078e-07 0 -3.38949e-07 3.39268e-07 0 -5.08582e-07 3.39585e-07 0 -6.78405e-07 3.40029e-07 0 -8.48481e-07 3.40599e-07 0 -1.01887e-06 3.41296e-07 0 -1.18965e-06 3.4212e-07 0 -1.36086e-06 3.4307e-07 0 -1.53258e-06 3.44148e-07 0 -1.70488e-06 3.45353e-07 0 -1.8778e-06 3.46685e-07 0 -2.05143e-06 3.48144e-07 0 -2.22581e-06 3.49731e-07 0 -2.40102e-06 3.51445e-07 0 -2.57712e-06 3.53287e-07 0 -2.75417e-06 3.55257e-07 0 -2.93224e-06 3.57355e-07 0 -3.11139e-06 3.59582e-07 0 -3.29169e-06 3.61937e-07 0 -3.47319e-06 3.64421e-07 0 -3.65597e-06 3.67033e-07 0 -3.84009e-06 3.69775e-07 0 -4.0256e-06 3.72645e-07 0 -4.21259e-06 3.75646e-07 0 -4.40111e-06 3.78775e-07 0 -4.59122e-06 3.82035e-07 0 -4.783e-06 3.85424e-07 0 -4.97651e-06 3.88944e-07 0 -5.1718e-06 3.92593e-07 0 -5.36896e-06 3.96373e-07 0 -5.56803e-06 4.00284e-07 0 -5.7691e-06 4.04325e-07 0 -5.97221e-06 4.08497e-07 0 -6.17745e-06 4.128e-07 0 -6.38487e-06 4.17233e-07 0 -6.59454e-06 4.21798e-07 0 -6.80652e-06 4.26493e-07 0 -7.02088e-06 4.31319e-07 0 -7.23769e-06 4.36275e-07 0 -7.45701e-06 4.41363e-07 0 -7.67891e-06 4.4658e-07 0 -7.90345e-06 4.51928e-07 0 -8.13069e-06 4.57406e-07 0 -8.36071e-06 4.63014e-07 0 -8.59356e-06 4.68751e-07 0 -8.82932e-06 4.74617e-07 0 -9.06803e-06 4.80611e-07 0 -9.30978e-06 4.86734e-07 0 -9.55463e-06 4.92984e-07 0 -9.80262e-06 4.9936e-07 0 -1.00538e-05 5.05863e-07 0 -1.03083e-05 5.12491e-07 0 -1.05662e-05 5.19243e-07 0 -1.08274e-05 5.26118e-07 0 -1.10922e-05 5.33115e-07 0 -1.13604e-05 5.40233e-07 0 -1.16323e-05 5.47471e-07 0 -1.19078e-05 5.54827e-07 0 -1.2187e-05 5.62299e-07 0 -1.24699e-05 5.69887e-07 0 -1.27567e-05 5.77588e-07 0 -1.30474e-05 5.854e-07 0 -1.3342e-05 5.93321e-07 0 -1.36406e-05 6.01349e-07 0 -1.39432e-05 6.09482e-07 0 -1.425e-05 6.17717e-07 0 -1.45608e-05 6.26052e-07 0 -1.48759e-05 6.34483e-07 0 -1.51952e-05 6.43008e-07 0 -1.55188e-05 6.51623e-07 0 -1.58467e-05 6.60325e-07 0 -1.6179e-05 6.69111e-07 0 -1.65158e-05 6.77976e-07 0 -1.68569e-05 6.86917e-07 0 -1.72026e-05 6.9593e-07 0 -1.75528e-05 7.05009e-07 0 -1.79075e-05 7.14151e-07 0 -1.82669e-05 7.23351e-07 0 -1.86308e-05 7.32602e-07 0 -1.89994e-05 7.41901e-07 0 -1.93727e-05 7.51241e-07 0 -1.97506e-05 7.60617e-07 0 -2.01333e-05 7.70022e-07 0 -2.05206e-05 7.7945e-07 0 -2.09127e-05 7.88895e-07 0 -2.13095e-05 7.98349e-07 0 -2.1711e-05 8.07805e-07 0 -2.21173e-05 8.17256e-07 0 -2.25283e-05 8.26693e-07 0 -2.2944e-05 8.3611e-07 0 -2.33645e-05 8.45497e-07 0 -2.37896e-05 8.54845e-07 0 -2.42194e-05 8.64147e-07 0 -2.46538e-05 8.73392e-07 0 -2.50928e-05 8.82571e-07 0 -2.55364e-05 8.91674e-07 0 -2.59846e-05 9.00691e-07 0 -2.64372e-05 9.09612e-07 0 -2.68943e-05 9.18426e-07 0 -2.73558e-05 9.27121e-07 0 -2.78216e-05 9.35688e-07 0 -2.82916e-05 9.44113e-07 0 -2.87659e-05 9.52386e-07 0 -2.92442e-05 9.60494e-07 0 -2.97265e-05 9.68424e-07 0 -3.02128e-05 9.76166e-07 0 -3.07029e-05 9.83704e-07 0 -3.11968e-05 9.91028e-07 0 -3.16942e-05 9.98123e-07 0 -3.21951e-05 1.00498e-06 0 -3.26995e-05 1.01157e-06 0 -3.3207e-05 1.0179e-06 0 -3.37177e-05 1.02395e-06 0 -3.42313e-05 1.0297e-06 0 -3.47477e-05 1.03513e-06 0 -3.52667e-05 1.04025e-06 0 -3.57883e-05 1.04502e-06 0 -3.63121e-05 1.04944e-06 0 -3.68381e-05 1.0535e-06 0 -3.7366e-05 1.05717e-06 0 -3.78957e-05 1.06045e-06 0 -3.84269e-05 1.06332e-06 0 -3.89594e-05 1.06577e-06 0 -3.94931e-05 1.06778e-06 0 -4.00277e-05 1.06934e-06 0 -4.05629e-05 1.07044e-06 0 -4.10986e-05 1.07106e-06 0 0 5.08363e-07 0 -1.69285e-07 5.08459e-07 0 -3.38632e-07 5.08744e-07 0 -5.08107e-07 5.09219e-07 0 -6.77771e-07 5.09885e-07 0 -8.47688e-07 5.1074e-07 0 -1.01792e-06 5.11785e-07 0 -1.18854e-06 5.13021e-07 0 -1.35959e-06 5.14447e-07 0 -1.53116e-06 5.16063e-07 0 -1.70329e-06 5.1787e-07 0 -1.87606e-06 5.19868e-07 0 -2.04952e-06 5.22056e-07 0 -2.22375e-06 5.24436e-07 0 -2.3988e-06 5.27008e-07 0 -2.57474e-06 5.29771e-07 0 -2.75163e-06 5.32726e-07 0 -2.92954e-06 5.35873e-07 0 -3.10853e-06 5.39212e-07 0 -3.28866e-06 5.42745e-07 0 -3.47e-06 5.4647e-07 0 -3.65262e-06 5.50388e-07 0 -3.83657e-06 5.545e-07 0 -4.02193e-06 5.58806e-07 0 -4.20875e-06 5.63306e-07 0 -4.39711e-06 5.68001e-07 0 -4.58706e-06 5.7289e-07 0 -4.77868e-06 5.77974e-07 0 -4.97202e-06 5.83253e-07 0 -5.16715e-06 5.88727e-07 0 -5.36414e-06 5.94397e-07 0 -5.56306e-06 6.00263e-07 0 -5.76396e-06 6.06324e-07 0 -5.96691e-06 6.12582e-07 0 -6.17198e-06 6.19036e-07 0 -6.37924e-06 6.25686e-07 0 -6.58874e-06 6.32533e-07 0 -6.80056e-06 6.39576e-07 0 -7.01476e-06 6.46815e-07 0 -7.23141e-06 6.5425e-07 0 -7.45056e-06 6.61881e-07 0 -7.6723e-06 6.69708e-07 0 -7.89667e-06 6.7773e-07 0 -8.12375e-06 6.85947e-07 0 -8.35361e-06 6.94359e-07 0 -8.5863e-06 7.02965e-07 0 -8.82189e-06 7.11765e-07 0 -9.06045e-06 7.20757e-07 0 -9.30204e-06 7.29941e-07 0 -9.54672e-06 7.39317e-07 0 -9.79456e-06 7.48883e-07 0 -1.00456e-05 7.58638e-07 0 -1.03e-05 7.68581e-07 0 -1.05577e-05 7.7871e-07 0 -1.08188e-05 7.89024e-07 0 -1.10833e-05 7.99521e-07 0 -1.13514e-05 8.102e-07 0 -1.16231e-05 8.21059e-07 0 -1.18985e-05 8.32094e-07 0 -1.21775e-05 8.43305e-07 0 -1.24604e-05 8.54689e-07 0 -1.2747e-05 8.66243e-07 0 -1.30375e-05 8.77963e-07 0 -1.3332e-05 8.89848e-07 0 -1.36305e-05 9.01893e-07 0 -1.3933e-05 9.14096e-07 0 -1.42396e-05 9.26452e-07 0 -1.45503e-05 9.38957e-07 0 -1.48653e-05 9.51608e-07 0 -1.51845e-05 9.64399e-07 0 -1.5508e-05 9.77326e-07 0 -1.58358e-05 9.90384e-07 0 -1.6168e-05 1.00357e-06 0 -1.65046e-05 1.01687e-06 0 -1.68457e-05 1.03029e-06 0 -1.71913e-05 1.04381e-06 0 -1.75414e-05 1.05744e-06 0 -1.78961e-05 1.07116e-06 0 -1.82553e-05 1.08496e-06 0 -1.86192e-05 1.09884e-06 0 -1.89878e-05 1.1128e-06 0 -1.9361e-05 1.12682e-06 0 -1.97389e-05 1.14089e-06 0 -2.01215e-05 1.155e-06 0 -2.05088e-05 1.16916e-06 0 -2.09009e-05 1.18333e-06 0 -2.12977e-05 1.19752e-06 0 -2.16992e-05 1.21171e-06 0 -2.21055e-05 1.2259e-06 0 -2.25165e-05 1.24007e-06 0 -2.29323e-05 1.2542e-06 0 -2.33527e-05 1.26829e-06 0 -2.37779e-05 1.28233e-06 0 -2.42077e-05 1.29629e-06 0 -2.46422e-05 1.31017e-06 0 -2.50814e-05 1.32395e-06 0 -2.55251e-05 1.33762e-06 0 -2.59734e-05 1.35116e-06 0 -2.64261e-05 1.36455e-06 0 -2.68834e-05 1.37779e-06 0 -2.7345e-05 1.39084e-06 0 -2.78109e-05 1.40371e-06 0 -2.82812e-05 1.41636e-06 0 -2.87556e-05 1.42878e-06 0 -2.92341e-05 1.44096e-06 0 -2.97167e-05 1.45287e-06 0 -3.02033e-05 1.4645e-06 0 -3.06936e-05 1.47583e-06 0 -3.11877e-05 1.48683e-06 0 -3.16855e-05 1.49749e-06 0 -3.21867e-05 1.50778e-06 0 -3.26914e-05 1.5177e-06 0 -3.31992e-05 1.52721e-06 0 -3.37103e-05 1.53629e-06 0 -3.42243e-05 1.54493e-06 0 -3.47411e-05 1.55311e-06 0 -3.52605e-05 1.5608e-06 0 -3.57825e-05 1.56797e-06 0 -3.63068e-05 1.57462e-06 0 -3.68333e-05 1.58072e-06 0 -3.73617e-05 1.58625e-06 0 -3.78918e-05 1.59119e-06 0 -3.84236e-05 1.59551e-06 0 -3.89566e-05 1.5992e-06 0 -3.94909e-05 1.60223e-06 0 -4.0026e-05 1.60459e-06 0 -4.05618e-05 1.60625e-06 0 -4.10981e-05 1.60721e-06 0 0 6.77522e-07 0 -1.69063e-07 6.77649e-07 0 -3.38189e-07 6.7803e-07 0 -5.07442e-07 6.78664e-07 0 -6.76884e-07 6.79551e-07 0 -8.46579e-07 6.80691e-07 0 -1.01659e-06 6.82085e-07 0 -1.18698e-06 6.83732e-07 0 -1.35782e-06 6.85633e-07 0 -1.52916e-06 6.87787e-07 0 -1.70107e-06 6.90196e-07 0 -1.87361e-06 6.9286e-07 0 -2.04685e-06 6.95778e-07 0 -2.22086e-06 6.98951e-07 0 -2.39568e-06 7.02379e-07 0 -2.5714e-06 7.06062e-07 0 -2.74807e-06 7.10002e-07 0 -2.92575e-06 7.14198e-07 0 -3.10451e-06 7.1865e-07 0 -3.28442e-06 7.23359e-07 0 -3.46554e-06 7.28326e-07 0 -3.64793e-06 7.3355e-07 0 -3.83166e-06 7.39032e-07 0 -4.01679e-06 7.44773e-07 0 -4.20339e-06 7.50773e-07 0 -4.39151e-06 7.57031e-07 0 -4.58124e-06 7.6355e-07 0 -4.77263e-06 7.70328e-07 0 -4.96574e-06 7.77366e-07 0 -5.16065e-06 7.84665e-07 0 -5.35741e-06 7.92225e-07 0 -5.55609e-06 8.00046e-07 0 -5.75676e-06 8.08128e-07 0 -5.95949e-06 8.16471e-07 0 -6.16433e-06 8.25076e-07 0 -6.37136e-06 8.33943e-07 0 -6.58063e-06 8.43072e-07 0 -6.79222e-06 8.52462e-07 0 -7.00619e-06 8.62114e-07 0 -7.22261e-06 8.72028e-07 0 -7.44154e-06 8.82203e-07 0 -7.66304e-06 8.92639e-07 0 -7.88719e-06 9.03336e-07 0 -8.11404e-06 9.14293e-07 0 -8.34367e-06 9.2551e-07 0 -8.57614e-06 9.36986e-07 0 -8.8115e-06 9.48719e-07 0 -9.04984e-06 9.60711e-07 0 -9.2912e-06 9.72958e-07 0 -9.53566e-06 9.8546e-07 0 -9.78328e-06 9.98217e-07 0 -1.00341e-05 1.01123e-06 0 -1.02882e-05 1.02448e-06 0 -1.05457e-05 1.03799e-06 0 -1.08066e-05 1.05175e-06 0 -1.1071e-05 1.06575e-06 0 -1.13389e-05 1.07999e-06 0 -1.16103e-05 1.09447e-06 0 -1.18855e-05 1.10919e-06 0 -1.21643e-05 1.12414e-06 0 -1.2447e-05 1.13932e-06 0 -1.27334e-05 1.15473e-06 0 -1.30238e-05 1.17036e-06 0 -1.3318e-05 1.18621e-06 0 -1.36163e-05 1.20228e-06 0 -1.39186e-05 1.21856e-06 0 -1.42251e-05 1.23504e-06 0 -1.45356e-05 1.25172e-06 0 -1.48504e-05 1.26859e-06 0 -1.51695e-05 1.28565e-06 0 -1.54928e-05 1.3029e-06 0 -1.58205e-05 1.32032e-06 0 -1.61525e-05 1.3379e-06 0 -1.6489e-05 1.35565e-06 0 -1.683e-05 1.37355e-06 0 -1.71754e-05 1.39159e-06 0 -1.75254e-05 1.40977e-06 0 -1.788e-05 1.42807e-06 0 -1.82391e-05 1.44649e-06 0 -1.86029e-05 1.46502e-06 0 -1.89714e-05 1.48364e-06 0 -1.93446e-05 1.50234e-06 0 -1.97224e-05 1.52112e-06 0 -2.0105e-05 1.53995e-06 0 -2.04923e-05 1.55884e-06 0 -2.08843e-05 1.57775e-06 0 -2.12811e-05 1.59669e-06 0 -2.16826e-05 1.61563e-06 0 -2.20889e-05 1.63456e-06 0 -2.25e-05 1.65347e-06 0 -2.29158e-05 1.67234e-06 0 -2.33363e-05 1.69115e-06 0 -2.37615e-05 1.70988e-06 0 -2.41915e-05 1.72852e-06 0 -2.46261e-05 1.74705e-06 0 -2.50653e-05 1.76544e-06 0 -2.55092e-05 1.78369e-06 0 -2.59576e-05 1.80177e-06 0 -2.64106e-05 1.81965e-06 0 -2.6868e-05 1.83732e-06 0 -2.73298e-05 1.85476e-06 0 -2.7796e-05 1.87194e-06 0 -2.82665e-05 1.88884e-06 0 -2.87412e-05 1.90543e-06 0 -2.92201e-05 1.9217e-06 0 -2.9703e-05 1.93761e-06 0 -3.01898e-05 1.95314e-06 0 -3.06806e-05 1.96827e-06 0 -3.11751e-05 1.98297e-06 0 -3.16732e-05 1.99721e-06 0 -3.21749e-05 2.01097e-06 0 -3.268e-05 2.02422e-06 0 -3.31884e-05 2.03694e-06 0 -3.36999e-05 2.04908e-06 0 -3.42144e-05 2.06064e-06 0 -3.47318e-05 2.07157e-06 0 -3.52518e-05 2.08185e-06 0 -3.57744e-05 2.09146e-06 0 -3.62994e-05 2.10036e-06 0 -3.68265e-05 2.10852e-06 0 -3.73555e-05 2.11593e-06 0 -3.78864e-05 2.12254e-06 0 -3.84189e-05 2.12833e-06 0 -3.89527e-05 2.13328e-06 0 -3.94877e-05 2.13736e-06 0 -4.00237e-05 2.14053e-06 0 -4.05603e-05 2.14278e-06 0 -4.10974e-05 2.14408e-06 0 0 8.46428e-07 0 -1.68778e-07 8.46587e-07 0 -3.37619e-07 8.47063e-07 0 -5.06587e-07 8.47855e-07 0 -6.75744e-07 8.48963e-07 0 -8.45154e-07 8.50388e-07 0 -1.01488e-06 8.5213e-07 0 -1.18499e-06 8.54189e-07 0 -1.35553e-06 8.56565e-07 0 -1.52659e-06 8.59258e-07 0 -1.69821e-06 8.62268e-07 0 -1.87047e-06 8.65597e-07 0 -2.04343e-06 8.69244e-07 0 -2.21714e-06 8.7321e-07 0 -2.39168e-06 8.77494e-07 0 -2.56711e-06 8.82098e-07 0 -2.74349e-06 8.87022e-07 0 -2.92088e-06 8.92266e-07 0 -3.09936e-06 8.97831e-07 0 -3.27898e-06 9.03717e-07 0 -3.4598e-06 9.09924e-07 0 -3.6419e-06 9.16454e-07 0 -3.82534e-06 9.23306e-07 0 -4.01018e-06 9.30481e-07 0 -4.19649e-06 9.3798e-07 0 -4.38432e-06 9.45803e-07 0 -4.57376e-06 9.5395e-07 0 -4.76485e-06 9.62422e-07 0 -4.95767e-06 9.71219e-07 0 -5.15228e-06 9.80342e-07 0 -5.34875e-06 9.89791e-07 0 -5.54714e-06 9.99567e-07 0 -5.74752e-06 1.00967e-06 0 -5.94995e-06 1.0201e-06 0 -6.15449e-06 1.03085e-06 0 -6.36123e-06 1.04194e-06 0 -6.57021e-06 1.05335e-06 0 -6.7815e-06 1.06509e-06 0 -6.99518e-06 1.07715e-06 0 -7.2113e-06 1.08955e-06 0 -7.42994e-06 1.10226e-06 0 -7.65115e-06 1.11531e-06 0 -7.875e-06 1.12868e-06 0 -8.10156e-06 1.14238e-06 0 -8.3309e-06 1.1564e-06 0 -8.56307e-06 1.17075e-06 0 -8.79815e-06 1.18542e-06 0 -9.03619e-06 1.20041e-06 0 -9.27727e-06 1.21572e-06 0 -9.52144e-06 1.23135e-06 0 -9.76877e-06 1.2473e-06 0 -1.00193e-05 1.26356e-06 0 -1.02732e-05 1.28014e-06 0 -1.05304e-05 1.29703e-06 0 -1.0791e-05 1.31422e-06 0 -1.10551e-05 1.33173e-06 0 -1.13227e-05 1.34954e-06 0 -1.15939e-05 1.36764e-06 0 -1.18688e-05 1.38605e-06 0 -1.21474e-05 1.40474e-06 0 -1.24297e-05 1.42373e-06 0 -1.27159e-05 1.44299e-06 0 -1.3006e-05 1.46254e-06 0 -1.33001e-05 1.48237e-06 0 -1.35981e-05 1.50246e-06 0 -1.39002e-05 1.52281e-06 0 -1.42064e-05 1.54342e-06 0 -1.45168e-05 1.56428e-06 0 -1.48313e-05 1.58539e-06 0 -1.51501e-05 1.60673e-06 0 -1.54733e-05 1.6283e-06 0 -1.58007e-05 1.65008e-06 0 -1.61326e-05 1.67208e-06 0 -1.64689e-05 1.69428e-06 0 -1.68097e-05 1.71667e-06 0 -1.7155e-05 1.73924e-06 0 -1.75049e-05 1.76198e-06 0 -1.78593e-05 1.78487e-06 0 -1.82183e-05 1.80792e-06 0 -1.8582e-05 1.83109e-06 0 -1.89504e-05 1.85439e-06 0 -1.93234e-05 1.87779e-06 0 -1.97012e-05 1.90128e-06 0 -2.00837e-05 1.92485e-06 0 -2.0471e-05 1.94848e-06 0 -2.0863e-05 1.97215e-06 0 -2.12597e-05 1.99585e-06 0 -2.16613e-05 2.01956e-06 0 -2.20676e-05 2.04325e-06 0 -2.24787e-05 2.06692e-06 0 -2.28945e-05 2.09053e-06 0 -2.33151e-05 2.11407e-06 0 -2.37405e-05 2.13752e-06 0 -2.41705e-05 2.16086e-06 0 -2.46053e-05 2.18405e-06 0 -2.50447e-05 2.20709e-06 0 -2.54887e-05 2.22994e-06 0 -2.59373e-05 2.25257e-06 0 -2.63905e-05 2.27497e-06 0 -2.68482e-05 2.2971e-06 0 -2.73103e-05 2.31893e-06 0 -2.77768e-05 2.34045e-06 0 -2.82476e-05 2.36162e-06 0 -2.87227e-05 2.38241e-06 0 -2.92019e-05 2.40278e-06 0 -2.96852e-05 2.42272e-06 0 -3.01725e-05 2.44218e-06 0 -3.06638e-05 2.46114e-06 0 -3.11587e-05 2.47957e-06 0 -3.16574e-05 2.49742e-06 0 -3.21597e-05 2.51467e-06 0 -3.26654e-05 2.53129e-06 0 -3.31744e-05 2.54723e-06 0 -3.36865e-05 2.56247e-06 0 -3.42017e-05 2.57696e-06 0 -3.47198e-05 2.59068e-06 0 -3.52406e-05 2.60359e-06 0 -3.5764e-05 2.61565e-06 0 -3.62897e-05 2.62682e-06 0 -3.68177e-05 2.63708e-06 0 -3.73476e-05 2.64639e-06 0 -3.78794e-05 2.65471e-06 0 -3.84128e-05 2.662e-06 0 -3.89476e-05 2.66824e-06 0 -3.94836e-05 2.67338e-06 0 -4.00206e-05 2.6774e-06 0 -4.05583e-05 2.68026e-06 0 -4.10965e-05 2.68193e-06 0 0 1.01502e-06 0 -1.6843e-07 1.01521e-06 0 -3.36923e-07 1.01578e-06 0 -5.05542e-07 1.01673e-06 0 -6.74351e-07 1.01806e-06 0 -8.43413e-07 1.01977e-06 0 -1.01279e-06 1.02186e-06 0 -1.18255e-06 1.02433e-06 0 -1.35275e-06 1.02718e-06 0 -1.52345e-06 1.03041e-06 0 -1.69473e-06 1.03402e-06 0 -1.86663e-06 1.03802e-06 0 -2.03924e-06 1.04239e-06 0 -2.2126e-06 1.04715e-06 0 -2.38679e-06 1.05229e-06 0 -2.56187e-06 1.05781e-06 0 -2.73789e-06 1.06372e-06 0 -2.91494e-06 1.07001e-06 0 -3.09306e-06 1.07669e-06 0 -3.27232e-06 1.08375e-06 0 -3.4528e-06 1.0912e-06 0 -3.63454e-06 1.09903e-06 0 -3.81762e-06 1.10726e-06 0 -4.00211e-06 1.11587e-06 0 -4.18806e-06 1.12486e-06 0 -4.37554e-06 1.13425e-06 0 -4.56461e-06 1.14402e-06 0 -4.75535e-06 1.15419e-06 0 -4.94781e-06 1.16475e-06 0 -5.14206e-06 1.17569e-06 0 -5.33817e-06 1.18703e-06 0 -5.5362e-06 1.19876e-06 0 -5.73622e-06 1.21088e-06 0 -5.93829e-06 1.2234e-06 0 -6.14248e-06 1.23631e-06 0 -6.34885e-06 1.24961e-06 0 -6.55747e-06 1.2633e-06 0 -6.7684e-06 1.27738e-06 0 -6.98172e-06 1.29186e-06 0 -7.19748e-06 1.30674e-06 0 -7.41576e-06 1.322e-06 0 -7.63661e-06 1.33766e-06 0 -7.8601e-06 1.3537e-06 0 -8.08631e-06 1.37014e-06 0 -8.31528e-06 1.38697e-06 0 -8.5471e-06 1.40419e-06 0 -8.78182e-06 1.42179e-06 0 -9.01951e-06 1.43978e-06 0 -9.26024e-06 1.45816e-06 0 -9.50406e-06 1.47692e-06 0 -9.75104e-06 1.49606e-06 0 -1.00013e-05 1.51558e-06 0 -1.02548e-05 1.53548e-06 0 -1.05116e-05 1.55575e-06 0 -1.07719e-05 1.5764e-06 0 -1.10356e-05 1.59741e-06 0 -1.13029e-05 1.61878e-06 0 -1.15738e-05 1.64052e-06 0 -1.18484e-05 1.66261e-06 0 -1.21266e-05 1.68506e-06 0 -1.24087e-05 1.70785e-06 0 -1.26946e-05 1.73098e-06 0 -1.29844e-05 1.75445e-06 0 -1.32781e-05 1.77825e-06 0 -1.35758e-05 1.80237e-06 0 -1.38776e-05 1.82681e-06 0 -1.41836e-05 1.85156e-06 0 -1.44936e-05 1.87661e-06 0 -1.48079e-05 1.90195e-06 0 -1.51265e-05 1.92757e-06 0 -1.54494e-05 1.95347e-06 0 -1.57766e-05 1.97964e-06 0 -1.61083e-05 2.00605e-06 0 -1.64444e-05 2.03271e-06 0 -1.6785e-05 2.0596e-06 0 -1.71301e-05 2.08671e-06 0 -1.74797e-05 2.11402e-06 0 -1.7834e-05 2.14153e-06 0 -1.81929e-05 2.16921e-06 0 -1.85564e-05 2.19705e-06 0 -1.89247e-05 2.22504e-06 0 -1.92976e-05 2.25315e-06 0 -1.96753e-05 2.28138e-06 0 -2.00577e-05 2.30969e-06 0 -2.04449e-05 2.33808e-06 0 -2.08369e-05 2.36653e-06 0 -2.12336e-05 2.39501e-06 0 -2.16352e-05 2.42349e-06 0 -2.20415e-05 2.45197e-06 0 -2.24526e-05 2.48041e-06 0 -2.28686e-05 2.5088e-06 0 -2.32893e-05 2.5371e-06 0 -2.37147e-05 2.56528e-06 0 -2.41449e-05 2.59334e-06 0 -2.45798e-05 2.62122e-06 0 -2.50194e-05 2.64892e-06 0 -2.54637e-05 2.67639e-06 0 -2.59125e-05 2.70361e-06 0 -2.6366e-05 2.73054e-06 0 -2.6824e-05 2.75716e-06 0 -2.72864e-05 2.78343e-06 0 -2.77533e-05 2.80931e-06 0 -2.82245e-05 2.83478e-06 0 -2.87e-05 2.85979e-06 0 -2.91797e-05 2.88431e-06 0 -2.96635e-05 2.9083e-06 0 -3.01514e-05 2.93173e-06 0 -3.06431e-05 2.95456e-06 0 -3.11387e-05 2.97674e-06 0 -3.16381e-05 2.99824e-06 0 -3.2141e-05 3.01901e-06 0 -3.26474e-05 3.03902e-06 0 -3.31572e-05 3.05823e-06 0 -3.36701e-05 3.07659e-06 0 -3.41862e-05 3.09406e-06 0 -3.47051e-05 3.1106e-06 0 -3.52269e-05 3.12617e-06 0 -3.57512e-05 3.14072e-06 0 -3.62779e-05 3.15421e-06 0 -3.68069e-05 3.1666e-06 0 -3.73379e-05 3.17784e-06 0 -3.78708e-05 3.1879e-06 0 -3.84053e-05 3.19673e-06 0 -3.89413e-05 3.20429e-06 0 -3.94785e-05 3.21054e-06 0 -4.00168e-05 3.21543e-06 0 -4.05558e-05 3.21894e-06 0 -4.10953e-05 3.22101e-06 0 0 1.18323e-06 0 -1.68018e-07 1.18345e-06 0 -3.361e-07 1.18412e-06 0 -5.04308e-07 1.18522e-06 0 -6.72705e-07 1.18678e-06 0 -8.41355e-07 1.18877e-06 0 -1.01032e-06 1.19121e-06 0 -1.17967e-06 1.19409e-06 0 -1.34945e-06 1.19741e-06 0 -1.51974e-06 1.20118e-06 0 -1.69061e-06 1.2054e-06 0 -1.8621e-06 1.21005e-06 0 -2.03429e-06 1.21516e-06 0 -2.20724e-06 1.22071e-06 0 -2.38101e-06 1.2267e-06 0 -2.55567e-06 1.23315e-06 0 -2.73128e-06 1.24004e-06 0 -2.90791e-06 1.24738e-06 0 -3.08561e-06 1.25516e-06 0 -3.26446e-06 1.2634e-06 0 -3.44451e-06 1.27209e-06 0 -3.62584e-06 1.28123e-06 0 -3.8085e-06 1.29082e-06 0 -3.99257e-06 1.30086e-06 0 -4.17809e-06 1.31136e-06 0 -4.36515e-06 1.32231e-06 0 -4.55381e-06 1.33371e-06 0 -4.74412e-06 1.34557e-06 0 -4.93616e-06 1.35788e-06 0 -5.12999e-06 1.37065e-06 0 -5.32567e-06 1.38388e-06 0 -5.52328e-06 1.39756e-06 0 -5.72287e-06 1.41171e-06 0 -5.92451e-06 1.42631e-06 0 -6.12827e-06 1.44136e-06 0 -6.33422e-06 1.45688e-06 0 -6.54241e-06 1.47286e-06 0 -6.75292e-06 1.48929e-06 0 -6.96581e-06 1.50618e-06 0 -7.18115e-06 1.52353e-06 0 -7.399e-06 1.54134e-06 0 -7.61942e-06 1.55961e-06 0 -7.8425e-06 1.57833e-06 0 -8.06828e-06 1.59751e-06 0 -8.29683e-06 1.61715e-06 0 -8.52823e-06 1.63724e-06 0 -8.76253e-06 1.65778e-06 0 -8.9998e-06 1.67878e-06 0 -9.24011e-06 1.70022e-06 0 -9.48351e-06 1.72211e-06 0 -9.73009e-06 1.74445e-06 0 -9.97989e-06 1.76723e-06 0 -1.0233e-05 1.79045e-06 0 -1.04894e-05 1.81411e-06 0 -1.07493e-05 1.8382e-06 0 -1.10127e-05 1.86272e-06 0 -1.12796e-05 1.88767e-06 0 -1.15501e-05 1.91304e-06 0 -1.18242e-05 1.93883e-06 0 -1.21021e-05 1.96502e-06 0 -1.23838e-05 1.99163e-06 0 -1.26693e-05 2.01863e-06 0 -1.29587e-05 2.04602e-06 0 -1.32521e-05 2.07381e-06 0 -1.35495e-05 2.10197e-06 0 -1.3851e-05 2.1305e-06 0 -1.41566e-05 2.15939e-06 0 -1.44663e-05 2.18864e-06 0 -1.47803e-05 2.21822e-06 0 -1.50986e-05 2.24814e-06 0 -1.54212e-05 2.27839e-06 0 -1.57481e-05 2.30894e-06 0 -1.60795e-05 2.33979e-06 0 -1.64153e-05 2.37092e-06 0 -1.67557e-05 2.40232e-06 0 -1.71005e-05 2.43398e-06 0 -1.745e-05 2.46588e-06 0 -1.78041e-05 2.49801e-06 0 -1.81628e-05 2.53034e-06 0 -1.85262e-05 2.56286e-06 0 -1.88942e-05 2.59555e-06 0 -1.92671e-05 2.6284e-06 0 -1.96446e-05 2.66137e-06 0 -2.0027e-05 2.69446e-06 0 -2.04141e-05 2.72763e-06 0 -2.0806e-05 2.76087e-06 0 -2.12027e-05 2.79415e-06 0 -2.16043e-05 2.82744e-06 0 -2.20106e-05 2.86072e-06 0 -2.24218e-05 2.89397e-06 0 -2.28378e-05 2.92714e-06 0 -2.32586e-05 2.96023e-06 0 -2.36842e-05 2.99318e-06 0 -2.41145e-05 3.02598e-06 0 -2.45496e-05 3.05859e-06 0 -2.49895e-05 3.09097e-06 0 -2.5434e-05 3.1231e-06 0 -2.58831e-05 3.15494e-06 0 -2.63369e-05 3.18644e-06 0 -2.67953e-05 3.21758e-06 0 -2.72581e-05 3.24831e-06 0 -2.77254e-05 3.27859e-06 0 -2.81971e-05 3.30839e-06 0 -2.86731e-05 3.33766e-06 0 -2.91534e-05 3.36637e-06 0 -2.96378e-05 3.39445e-06 0 -3.01263e-05 3.42188e-06 0 -3.06187e-05 3.44861e-06 0 -3.1115e-05 3.47459e-06 0 -3.16151e-05 3.49977e-06 0 -3.21188e-05 3.52411e-06 0 -3.26261e-05 3.54757e-06 0 -3.31368e-05 3.57008e-06 0 -3.36507e-05 3.5916e-06 0 -3.41677e-05 3.61209e-06 0 -3.46877e-05 3.6315e-06 0 -3.52105e-05 3.64976e-06 0 -3.57359e-05 3.66685e-06 0 -3.62638e-05 3.68269e-06 0 -3.6794e-05 3.69725e-06 0 -3.73263e-05 3.71048e-06 0 -3.78605e-05 3.72232e-06 0 -3.83964e-05 3.73273e-06 0 -3.89338e-05 3.74165e-06 0 -3.94725e-05 3.74904e-06 0 -4.00122e-05 3.75485e-06 0 -4.05527e-05 3.75904e-06 0 -4.10938e-05 3.76155e-06 0 0 1.35099e-06 0 -1.67544e-07 1.35125e-06 0 -3.35151e-07 1.35201e-06 0 -5.02885e-07 1.35328e-06 0 -6.70807e-07 1.35505e-06 0 -8.38982e-07 1.35733e-06 0 -1.00747e-06 1.36011e-06 0 -1.17634e-06 1.3634e-06 0 -1.34565e-06 1.3672e-06 0 -1.51547e-06 1.37151e-06 0 -1.68585e-06 1.37632e-06 0 -1.85687e-06 1.38165e-06 0 -2.02858e-06 1.38748e-06 0 -2.20105e-06 1.39382e-06 0 -2.37435e-06 1.40067e-06 0 -2.54853e-06 1.40803e-06 0 -2.72366e-06 1.4159e-06 0 -2.8998e-06 1.42429e-06 0 -3.07703e-06 1.43319e-06 0 -3.25539e-06 1.4426e-06 0 -3.43496e-06 1.45253e-06 0 -3.61581e-06 1.46297e-06 0 -3.79798e-06 1.47393e-06 0 -3.98156e-06 1.4854e-06 0 -4.1666e-06 1.4974e-06 0 -4.35317e-06 1.50991e-06 0 -4.54134e-06 1.52294e-06 0 -4.73116e-06 1.53649e-06 0 -4.92271e-06 1.55056e-06 0 -5.11605e-06 1.56516e-06 0 -5.31125e-06 1.58027e-06 0 -5.50836e-06 1.59591e-06 0 -5.70746e-06 1.61207e-06 0 -5.90862e-06 1.62875e-06 0 -6.11189e-06 1.64596e-06 0 -6.31734e-06 1.6637e-06 0 -6.52504e-06 1.68195e-06 0 -6.73506e-06 1.70074e-06 0 -6.94746e-06 1.72004e-06 0 -7.1623e-06 1.73987e-06 0 -7.37966e-06 1.76023e-06 0 -7.5996e-06 1.78111e-06 0 -7.82218e-06 1.80251e-06 0 -8.04747e-06 1.82443e-06 0 -8.27554e-06 1.84687e-06 0 -8.50645e-06 1.86984e-06 0 -8.74026e-06 1.89332e-06 0 -8.97705e-06 1.91732e-06 0 -9.21688e-06 1.94183e-06 0 -9.45981e-06 1.96686e-06 0 -9.7059e-06 1.99239e-06 0 -9.95523e-06 2.01844e-06 0 -1.02079e-05 2.04498e-06 0 -1.04638e-05 2.07203e-06 0 -1.07232e-05 2.09957e-06 0 -1.09861e-05 2.12761e-06 0 -1.12526e-05 2.15614e-06 0 -1.15226e-05 2.18514e-06 0 -1.17963e-05 2.21463e-06 0 -1.20738e-05 2.24458e-06 0 -1.2355e-05 2.275e-06 0 -1.26401e-05 2.30588e-06 0 -1.29291e-05 2.33721e-06 0 -1.32221e-05 2.36899e-06 0 -1.35191e-05 2.40119e-06 0 -1.38202e-05 2.43382e-06 0 -1.41254e-05 2.46687e-06 0 -1.44348e-05 2.50032e-06 0 -1.47484e-05 2.53417e-06 0 -1.50663e-05 2.56839e-06 0 -1.53886e-05 2.60299e-06 0 -1.57152e-05 2.63794e-06 0 -1.60463e-05 2.67323e-06 0 -1.63818e-05 2.70886e-06 0 -1.67219e-05 2.74479e-06 0 -1.70665e-05 2.78101e-06 0 -1.74157e-05 2.81752e-06 0 -1.77695e-05 2.85428e-06 0 -1.8128e-05 2.89128e-06 0 -1.84912e-05 2.9285e-06 0 -1.88591e-05 2.96592e-06 0 -1.92317e-05 3.00352e-06 0 -1.96092e-05 3.04126e-06 0 -1.99914e-05 3.07914e-06 0 -2.03784e-05 3.11712e-06 0 -2.07703e-05 3.15517e-06 0 -2.1167e-05 3.19328e-06 0 -2.15686e-05 3.2314e-06 0 -2.19749e-05 3.26952e-06 0 -2.23862e-05 3.30759e-06 0 -2.28023e-05 3.34559e-06 0 -2.32232e-05 3.38348e-06 0 -2.36489e-05 3.42124e-06 0 -2.40794e-05 3.45881e-06 0 -2.45148e-05 3.49617e-06 0 -2.49548e-05 3.53328e-06 0 -2.53996e-05 3.5701e-06 0 -2.58491e-05 3.60659e-06 0 -2.63033e-05 3.6427e-06 0 -2.67621e-05 3.6784e-06 0 -2.72254e-05 3.71363e-06 0 -2.76932e-05 3.74836e-06 0 -2.81654e-05 3.78253e-06 0 -2.8642e-05 3.81611e-06 0 -2.91229e-05 3.84903e-06 0 -2.9608e-05 3.88126e-06 0 -3.00972e-05 3.91274e-06 0 -3.05904e-05 3.94341e-06 0 -3.10875e-05 3.97324e-06 0 -3.15885e-05 4.00215e-06 0 -3.20932e-05 4.03011e-06 0 -3.26014e-05 4.05705e-06 0 -3.31131e-05 4.08291e-06 0 -3.36281e-05 4.10765e-06 0 -3.41462e-05 4.13121e-06 0 -3.46674e-05 4.15353e-06 0 -3.51915e-05 4.17455e-06 0 -3.57182e-05 4.19421e-06 0 -3.62475e-05 4.21247e-06 0 -3.67791e-05 4.22925e-06 0 -3.73128e-05 4.2445e-06 0 -3.78485e-05 4.25818e-06 0 -3.8386e-05 4.27021e-06 0 -3.8925e-05 4.28054e-06 0 -3.94653e-05 4.28913e-06 0 -4.00068e-05 4.2959e-06 0 -4.05491e-05 4.30082e-06 0 -4.1092e-05 4.30382e-06 0 0 1.51826e-06 0 -1.67007e-07 1.51854e-06 0 -3.34076e-07 1.5194e-06 0 -5.01272e-07 1.52082e-06 0 -6.68656e-07 1.52282e-06 0 -8.36293e-07 1.52538e-06 0 -1.00425e-06 1