<?xml version="1.0"?> 
<VTKFile type="StructuredGrid" version="0.1"> 
<StructuredGrid WholeExtent="0 127 0 127 0 0"> 
<Piece Extent="0 127 0 127 0 0"> 
<PointData>
<DataArray type="Float32" Name="B" format="ascii" NumberOfComponents="3"> 
-4.1099e-05 -0 0 -4.16344e-05 -0 0 -4.21697e-05 -0 0 -4.27047e-05 -0 0 -4.32391e-05 -0 0 -4.37727e-05 -0 0 -4.43052e-05 -0 0 -4.48363e-05 -0 0 -4.53657e-05 -0 0 -4.58932e-05 -0 0 -4.64184e-05 -0 0 -4.69412e-05 -0 0 -4.74611e-05 -0 0 -4.79778e-05 -0 0 -4.84911e-05 -0 0 -4.90007e-05 -0 0 -4.95063e-05 -0 0 -5.00075e-05 -0 0 -5.0504e-05 -0 0 -5.09956e-05 -0 0 -5.14819e-05 -0 0 -5.19625e-05 -0 0 -5.24372e-05 -0 0 -5.29057e-05 -0 0 -5.33677e-05 -0 0 -5.38228e-05 -0 0 -5.42707e-05 -0 0 -5.47112e-05 -0 0 -5.51439e-05 -0 0 -5.55684e-05 -0 0 -5.59847e-05 -0 0 -5.63922e-05 -0 0 -5.67908e-05 -0 0 -5.71801e-05 -0 0 -5.75598e-05 -0 0 -5.79298e-05 -0 0 -5.82897e-05 -0 0 -5.86392e-05 -0 0 -5.89781e-05 -0 0 -5.93062e-05 -0 0 -5.96232e-05 -0 0 -5.99288e-05 -0 0 -6.02229e-05 -0 0 -6.05051e-05 -0 0 -6.07754e-05 -0 0 -6.10335e-05 -0 0 -6.12791e-05 -0 0 -6.15122e-05 -0 0 -6.17325e-05 -0 0 -6.19399e-05 -0 0 -6.21342e-05 -0 0 -6.23152e-05 -0 0 -6.24828e-05 -0 0 -6.2637e-05 -0 0 -6.27775e-05 -0 0 -6.29042e-05 -0 0 -6.30172e-05 -0 0 -6.31162e-05 -0 0 -6.32012e-05 -0 0 -6.32721e-05 -0 0 -6.33289e-05 -0 0 -6.33716e-05 -0 0 -6.34e-05 -0 0 -6.34143e-05 -0 0 -6.34143e-05 -0 0 -6.34e-05 -0 0 -6.33716e-05 -0 0 -6.33289e-05 -0 0 -6.32721e-05 -0 0 -6.32012e-05 -0 0 -6.31162e-05 -0 0 -6.30172e-05 -0 0 -6.29042e-05 -0 0 -6.27775e-05 -0 0 -6.2637e-05 -0 0 -6.24828e-05 -0 0 -6.23152e-05 -0 0 -6.21342e-05 -0 0 -6.19399e-05 -0 0 -6.17325e-05 -0 0 -6.15122e-05 -0 0 -6.12791e-05 -0 0 -6.10335e-05 -0 0 -6.07754e-05 -0 0 -6.05051e-05 -0 0 -6.02229e-05 -0 0 -5.99288e-05 -0 0 -5.96232e-05 -0 0 -5.93062e-05 -0 0 -5.89781e-05 -0 0 -5.86392e-05 -0 0 -5.82897e-05 -0 0 -5.79298e-05 -0 0 -5.75598e-05 -0 0 -5.71801e-05 -0 0 -5.67908e-05 -0 0 -5.63922e-05 -0 0 -5.59847e-05 -0 0 -5.55684e-05 -0 0 -5.51439e-05 -0 0 -5.47112e-05 -0 0 -5.42707e-05 -0 0 -5.38228e-05 -0 0 -5.33677e-05 -0 0 -5.29057e-05 -0 0 -5.24372e-05 -0 0 -5.19625e-05 -0 0 -5.14819e-05 -0 0 -5.09956e-05 -0 0 -5.0504e-05 -0 0 -5.00075e-05 -0 0 -4.95063e-05 -0 0 -4.90007e-05 -0 0 -4.84911e-05 -0 0 -4.79778e-05 -0 0 -4.74611e-05 -0 0 -4.69412e-05 -0 0 -4.64184e-05 -0 0 -4.58932e-05 -0 0 -4.53657e-05 -0 0 -4.48363e-05 -0 0 -4.43052e-05 -0 0 -4.37727e-05 -0 0 -4.32391e-05 -0 0 -4.27047e-05 -0 0 -4.21697e-05 -0 0 -4.16344e-05 -0 0 -4.1099e-05 -0 0 -4.10989e-05 5.3541e-07 0 -4.16344e-05 5.35473e-07 0 -4.21698e-05 5.35286e-07 0 -4.2705e-05 5.34842e-07 0 -4.32395e-05 5.34137e-07 0 -4.37733e-05 5.33165e-07 0 -4.43059e-05 5.3192e-07 0 -4.48371e-05 5.30397e-07 0 -4.53667e-05 5.28592e-07 0 -4.58943e-05 5.26501e-07 0 -4.64197e-05 5.24118e-07 0 -4.69426e-05 5.2144e-07 0 -4.74626e-05 5.18464e-07 0 -4.79795e-05 5.15186e-07 0 -4.8493e-05 5.11603e-07 0 -4.90028e-05 5.07713e-07 0 -4.95085e-05 5.03514e-07 0 -5.00098e-05 4.99004e-07 0 -5.05065e-05 4.94182e-07 0 -5.09983e-05 4.89046e-07 0 -5.14847e-05 4.83596e-07 0 -5.19655e-05 4.77831e-07 0 -5.24404e-05 4.71753e-07 0 -5.2909e-05 4.65362e-07 0 -5.33712e-05 4.58658e-07 0 -5.38264e-05 4.51643e-07 0 -5.42745e-05 4.4432e-07 0 -5.47151e-05 4.3669e-07 0 -5.51479e-05 4.28756e-07 0 -5.55727e-05 4.20521e-07 0 -5.5989e-05 4.11989e-07 0 -5.63967e-05 4.03165e-07 0 -5.67954e-05 3.94051e-07 0 -5.71849e-05 3.84653e-07 0 -5.75648e-05 3.74976e-07 0 -5.79349e-05 3.65026e-07 0 -5.82949e-05 3.54808e-07 0 -5.86445e-05 3.44329e-07 0 -5.89836e-05 3.33595e-07 0 -5.93118e-05 3.22613e-07 0 -5.96289e-05 3.1139e-07 0 -5.99346e-05 2.99934e-07 0 -6.02288e-05 2.88253e-07 0 -6.05112e-05 2.76354e-07 0 -6.07816e-05 2.64246e-07 0 -6.10397e-05 2.51938e-07 0 -6.12855e-05 2.39438e-07 0 -6.15186e-05 2.26755e-07 0 -6.1739e-05 2.139e-07 0 -6.19465e-05 2.00881e-07 0 -6.21408e-05 1.87707e-07 0 -6.23219e-05 1.7439e-07 0 -6.24896e-05 1.60939e-07 0 -6.26438e-05 1.47363e-07 0 -6.27844e-05 1.33675e-07 0 -6.29112e-05 1.19882e-07 0 -6.30242e-05 1.05998e-07 0 -6.31232e-05 9.20312e-08 0 -6.32083e-05 7.79935e-08 0 -6.32792e-05 6.38954e-08 0 -6.33361e-05 4.97478e-08 0 -6.33787e-05 3.55617e-08 0 -6.34072e-05 2.13481e-08 0 -6.34214e-05 7.11786e-09 0 -6.34214e-05 -7.11786e-09 0 -6.34072e-05 -2.13481e-08 0 -6.33787e-05 -3.55617e-08 0 -6.33361e-05 -4.97478e-08 0 -6.32792e-05 -6.38954e-08 0 -6.32083e-05 -7.79935e-08 0 -6.31232e-05 -9.20312e-08 0 -6.30242e-05 -1.05998e-07 0 -6.29112e-05 -1.19882e-07 0 -6.27844e-05 -1.33675e-07 0 -6.26438e-05 -1.47363e-07 0 -6.24896e-05 -1.60939e-07 0 -6.23219e-05 -1.7439e-07 0 -6.21408e-05 -1.87707e-07 0 -6.19465e-05 -2.00881e-07 0 -6.1739e-05 -2.139e-07 0 -6.15186e-05 -2.26755e-07 0 -6.12855e-05 -2.39438e-07 0 -6.10397e-05 -2.51938e-07 0 -6.07816e-05 -2.64246e-07 0 -6.05112e-05 -2.76354e-07 0 -6.02288e-05 -2.88253e-07 0 -5.99346e-05 -2.99934e-07 0 -5.96289e-05 -3.1139e-07 0 -5.93118e-05 -3.22613e-07 0 -5.89836e-05 -3.33595e-07 0 -5.86445e-05 -3.44329e-07 0 -5.82949e-05 -3.54808e-07 0 -5.79349e-05 -3.65026e-07 0 -5.75648e-05 -3.74976e-07 0 -5.71849e-05 -3.84653e-07 0 -5.67954e-05 -3.94051e-07 0 -5.63967e-05 -4.03165e-07 0 -5.5989e-05 -4.11989e-07 0 -5.55727e-05 -4.20521e-07 0 -5.51479e-05 -4.28756e-07 0 -5.47151e-05 -4.3669e-07 0 -5.42745e-05 -4.4432e-07 0 -5.38264e-05 -4.51643e-07 0 -5.33712e-05 -4.58658e-07 0 -5.2909e-05 -4.65362e-07 0 -5.24404e-05 -4.71753e-07 0 -5.19655e-05 -4.77831e-07 0 -5.14847e-05 -4.83596e-07 0 -5.09983e-05 -4.89046e-07 0 -5.05065e-05 -4.94182e-07 0 -5.00098e-05 -4.99004e-07 0 -4.95085e-05 -5.03514e-07 0 -4.90028e-05 -5.07713e-07 0 -4.8493e-05 -5.11603e-07 0 -4.79795e-05 -5.15186e-07 0 -4.74626e-05 -5.18464e-07 0 -4.69426e-05 -5.2144e-07 0 -4.64197e-05 -5.24118e-07 0 -4.58943e-05 -5.26501e-07 0 -4.53667e-05 -5.28592e-07 0 -4.48371e-05 -5.30397e-07 0 -4.43059e-05 -5.3192e-07 0 -4.37733e-05 -5.33165e-07 0 -4.32395e-05 -5.34137e-07 0 -4.2705e-05 -5.34842e-07 0 -4.21698e-05 -5.35286e-07 0 -4.16344e-05 -5.35473e-07 0 -4.10989e-05 -5.3541e-07 0 -4.10986e-05 1.07106e-06 0 -4.16345e-05 1.0712e-06 0 -4.21703e-05 1.07083e-06 0 -4.27058e-05 1.06995e-06 0 -4.32408e-05 1.06854e-06 0 -4.37749e-05 1.0666e-06 0 -4.4308e-05 1.06412e-06 0 -4.48396e-05 1.06108e-06 0 -4.53696e-05 1.05747e-06 0 -4.58977e-05 1.05329e-06 0 -4.64235e-05 1.04853e-06 0 -4.69468e-05 1.04318e-06 0 -4.74673e-05 1.03723e-06 0 -4.79847e-05 1.03068e-06 0 -4.84986e-05 1.02351e-06 0 -4.90089e-05 1.01574e-06 0 -4.9515e-05 1.00734e-06 0 -5.00169e-05 9.98321e-07 0 -5.0514e-05 9.88677e-07 0 -5.10062e-05 9.78406e-07 0 -5.14931e-05 9.67506e-07 0 -5.19744e-05 9.55977e-07 0 -5.24498e-05 9.4382e-07 0 -5.29189e-05 9.31036e-07 0 -5.33815e-05 9.17626e-07 0 -5.38372e-05 9.03595e-07 0 -5.42857e-05 8.88946e-07 0 -5.47268e-05 8.73683e-07 0 -5.51601e-05 8.57812e-07 0 -5.55853e-05 8.41339e-07 0 -5.60021e-05 8.24272e-07 0 -5.64102e-05 8.06618e-07 0 -5.68093e-05 7.88386e-07 0 -5.71992e-05 7.69585e-07 0 -5.75795e-05 7.50226e-07 0 -5.795e-05 7.3032e-07 0 -5.83104e-05 7.09878e-07 0 -5.86605e-05 6.88913e-07 0 -5.89999e-05 6.67438e-07 0 -5.93285e-05 6.45467e-07 0 -5.96459e-05 6.23014e-07 0 -5.9952e-05 6.00094e-07 0 -6.02465e-05 5.76723e-07 0 -6.05292e-05 5.52917e-07 0 -6.07999e-05 5.28692e-07 0 -6.10584e-05 5.04067e-07 0 -6.13044e-05 4.79058e-07 0 -6.15378e-05 4.53684e-07 0 -6.17585e-05 4.27963e-07 0 -6.19662e-05 4.01915e-07 0 -6.21607e-05 3.75559e-07 0 -6.23421e-05 3.48914e-07 0 -6.251e-05 3.22001e-07 0 -6.26643e-05 2.9484e-07 0 -6.28051e-05 2.67452e-07 0 -6.2932e-05 2.39858e-07 0 -6.30451e-05 2.12078e-07 0 -6.31443e-05 1.84134e-07 0 -6.32294e-05 1.56047e-07 0 -6.33005e-05 1.2784e-07 0 -6.33574e-05 9.95342e-08 0 -6.34001e-05 7.1151e-08 0 -6.34286e-05 4.27127e-08 0 -6.34428e-05 1.42412e-08 0 -6.34428e-05 -1.42412e-08 0 -6.34286e-05 -4.27127e-08 0 -6.34001e-05 -7.1151e-08 0 -6.33574e-05 -9.95342e-08 0 -6.33005e-05 -1.2784e-07 0 -6.32294e-05 -1.56047e-07 0 -6.31443e-05 -1.84134e-07 0 -6.30451e-05 -2.12078e-07 0 -6.2932e-05 -2.39858e-07 0 -6.28051e-05 -2.67452e-07 0 -6.26643e-05 -2.9484e-07 0 -6.251e-05 -3.22001e-07 0 -6.23421e-05 -3.48914e-07 0 -6.21607e-05 -3.75559e-07 0 -6.19662e-05 -4.01915e-07 0 -6.17585e-05 -4.27963e-07 0 -6.15378e-05 -4.53684e-07 0 -6.13044e-05 -4.79058e-07 0 -6.10584e-05 -5.04067e-07 0 -6.07999e-05 -5.28692e-07 0 -6.05292e-05 -5.52917e-07 0 -6.02465e-05 -5.76723e-07 0 -5.9952e-05 -6.00094e-07 0 -5.96459e-05 -6.23014e-07 0 -5.93285e-05 -6.45467e-07 0 -5.89999e-05 -6.67438e-07 0 -5.86605e-05 -6.88913e-07 0 -5.83104e-05 -7.09878e-07 0 -5.795e-05 -7.3032e-07 0 -5.75795e-05 -7.50226e-07 0 -5.71992e-05 -7.69585e-07 0 -5.68093e-05 -7.88386e-07 0 -5.64102e-05 -8.06618e-07 0 -5.60021e-05 -8.24272e-07 0 -5.55853e-05 -8.41339e-07 0 -5.51601e-05 -8.57812e-07 0 -5.47268e-05 -8.73683e-07 0 -5.42857e-05 -8.88946e-07 0 -5.38372e-05 -9.03595e-07 0 -5.33815e-05 -9.17626e-07 0 -5.29189e-05 -9.31036e-07 0 -5.24498e-05 -9.4382e-07 0 -5.19744e-05 -9.55977e-07 0 -5.14931e-05 -9.67506e-07 0 -5.10062e-05 -9.78406e-07 0 -5.0514e-05 -9.88677e-07 0 -5.00169e-05 -9.98321e-07 0 -4.9515e-05 -1.00734e-06 0 -4.90089e-05 -1.01574e-06 0 -4.84986e-05 -1.02351e-06 0 -4.79847e-05 -1.03068e-06 0 -4.74673e-05 -1.03723e-06 0 -4.69468e-05 -1.04318e-06 0 -4.64235e-05 -1.04853e-06 0 -4.58977e-05 -1.05329e-06 0 -4.53696e-05 -1.05747e-06 0 -4.48396e-05 -1.06108e-06 0 -4.4308e-05 -1.06412e-06 0 -4.37749e-05 -1.0666e-06 0 -4.32408e-05 -1.06854e-06 0 -4.27058e-05 -1.06995e-06 0 -4.21703e-05 -1.07083e-06 0 -4.16345e-05 -1.0712e-06 0 -4.10986e-05 -1.07106e-06 0 -4.10981e-05 1.60721e-06 0 -4.16346e-05 1.60742e-06 0 -4.21711e-05 1.60688e-06 0 -4.27073e-05 1.60557e-06 0 -4.32429e-05 1.60348e-06 0 -4.37777e-05 1.60059e-06 0 -4.43114e-05 1.59687e-06 0 -4.48438e-05 1.59232e-06 0 -4.53745e-05 1.58693e-06 0 -4.59033e-05 1.58067e-06 0 -4.64298e-05 1.57353e-06 0 -4.69539e-05 1.56551e-06 0 -4.74751e-05 1.5566e-06 0 -4.79933e-05 1.54678e-06 0 -4.8508e-05 1.53604e-06 0 -4.9019e-05 1.52438e-06 0 -4.95259e-05 1.51179e-06 0 -5.00285e-05 1.49826e-06 0 -5.05265e-05 1.4838e-06 0 -5.10195e-05 1.46839e-06 0 -5.15071e-05 1.45204e-06 0 -5.19892e-05 1.43475e-06 0 -5.24654e-05 1.41651e-06 0 -5.29353e-05 1.39733e-06 0 -5.33986e-05 1.37722e-06 0 -5.38551e-05 1.35617e-06 0 -5.43045e-05 1.33419e-06 0 -5.47463e-05 1.31128e-06 0 -5.51803e-05 1.28747e-06 0 -5.56063e-05 1.26275e-06 0 -5.60238e-05 1.23714e-06 0 -5.64327e-05 1.21065e-06 0 -5.68325e-05 1.18329e-06 0 -5.72231e-05 1.15508e-06 0 -5.76041e-05 1.12602e-06 0 -5.79753e-05 1.09615e-06 0 -5.83364e-05 1.06547e-06 0 -5.86871e-05 1.03401e-06 0 -5.90271e-05 1.00178e-06 0 -5.93563e-05 9.68803e-07 0 -5.96743e-05 9.35104e-07 0 -5.9981e-05 9.00705e-07 0 -6.02761e-05 8.65628e-07 0 -6.05593e-05 8.29898e-07 0 -6.08305e-05 7.9354e-07 0 -6.10895e-05 7.5658e-07 0 -6.1336e-05 7.19044e-07 0 -6.15698e-05 6.80959e-07 0 -6.17909e-05 6.42355e-07 0 -6.1999e-05 6.03258e-07 0 -6.21939e-05 5.63699e-07 0 -6.23756e-05 5.23707e-07 0 -6.25438e-05 4.83312e-07 0 -6.26985e-05 4.42545e-07 0 -6.28395e-05 4.01436e-07 0 -6.29667e-05 3.60018e-07 0 -6.308e-05 3.18321e-07 0 -6.31794e-05 2.76379e-07 0 -6.32647e-05 2.34222e-07 0 -6.33359e-05 1.91884e-07 0 -6.33929e-05 1.49398e-07 0 -6.34357e-05 1.06795e-07 0 -6.34642e-05 6.41104e-08 0 -6.34785e-05 2.13757e-08 0 -6.34785e-05 -2.13757e-08 0 -6.34642e-05 -6.41104e-08 0 -6.34357e-05 -1.06795e-07 0 -6.33929e-05 -1.49398e-07 0 -6.33359e-05 -1.91884e-07 0 -6.32647e-05 -2.34222e-07 0 -6.31794e-05 -2.76379e-07 0 -6.308e-05 -3.18321e-07 0 -6.29667e-05 -3.60018e-07 0 -6.28395e-05 -4.01436e-07 0 -6.26985e-05 -4.42545e-07 0 -6.25438e-05 -4.83312e-07 0 -6.23756e-05 -5.23707e-07 0 -6.21939e-05 -5.63699e-07 0 -6.1999e-05 -6.03258e-07 0 -6.17909e-05 -6.42355e-07 0 -6.15698e-05 -6.80959e-07 0 -6.1336e-05 -7.19044e-07 0 -6.10895e-05 -7.5658e-07 0 -6.08305e-05 -7.9354e-07 0 -6.05593e-05 -8.29898e-07 0 -6.02761e-05 -8.65628e-07 0 -5.9981e-05 -9.00705e-07 0 -5.96743e-05 -9.35104e-07 0 -5.93563e-05 -9.68803e-07 0 -5.90271e-05 -1.00178e-06 0 -5.86871e-05 -1.03401e-06 0 -5.83364e-05 -1.06547e-06 0 -5.79753e-05 -1.09615e-06 0 -5.76041e-05 -1.12602e-06 0 -5.72231e-05 -1.15508e-06 0 -5.68325e-05 -1.18329e-06 0 -5.64327e-05 -1.21065e-06 0 -5.60238e-05 -1.23714e-06 0 -5.56063e-05 -1.26275e-06 0 -5.51803e-05 -1.28747e-06 0 -5.47463e-05 -1.31128e-06 0 -5.43045e-05 -1.33419e-06 0 -5.38551e-05 -1.35617e-06 0 -5.33986e-05 -1.37722e-06 0 -5.29353e-05 -1.39733e-06 0 -5.24654e-05 -1.41651e-06 0 -5.19892e-05 -1.43475e-06 0 -5.15071e-05 -1.45204e-06 0 -5.10195e-05 -1.46839e-06 0 -5.05265e-05 -1.4838e-06 0 -5.00285e-05 -1.49826e-06 0 -4.95259e-05 -1.51179e-06 0 -4.9019e-05 -1.52438e-06 0 -4.8508e-05 -1.53604e-06 0 -4.79933e-05 -1.54678e-06 0 -4.74751e-05 -1.5566e-06 0 -4.69539e-05 -1.56551e-06 0 -4.64298e-05 -1.57353e-06 0 -4.59033e-05 -1.58067e-06 0 -4.53745e-05 -1.58693e-06 0 -4.48438e-05 -1.59232e-06 0 -4.43114e-05 -1.59687e-06 0 -4.37777e-05 -1.60059e-06 0 -4.32429e-05 -1.60348e-06 0 -4.27073e-05 -1.60557e-06 0 -4.21711e-05 -1.60688e-06 0 -4.16346e-05 -1.60742e-06 0 -4.10981e-05 -1.60721e-06 0 -4.10974e-05 2.14408e-06 0 -4.16348e-05 2.14439e-06 0 -4.21721e-05 2.1437e-06 0 -4.27092e-05 2.14199e-06 0 -4.32458e-05 2.13922e-06 0 -4.37815e-05 2.13539e-06 0 -4.43162e-05 2.13046e-06 0 -4.48496e-05 2.12442e-06 0 -4.53813e-05 2.11724e-06 0 -4.59111e-05 2.10892e-06 0 -4.64387e-05 2.09942e-06 0 -4.69638e-05 2.08875e-06 0 -4.74861e-05 2.07688e-06 0 -4.80053e-05 2.06379e-06 0 -4.85211e-05 2.04949e-06 0 -4.90331e-05 2.03395e-06 0 -4.95412e-05 2.01717e-06 0 -5.00449e-05 1.99914e-06 0 -5.05439e-05 1.97986e-06 0 -5.1038e-05 1.95933e-06 0 -5.15268e-05 1.93753e-06 0 -5.201e-05 1.91447e-06 0 -5.24872e-05 1.89015e-06 0 -5.29582e-05 1.86457e-06 0 -5.34227e-05 1.83774e-06 0 -5.38803e-05 1.80966e-06 0 -5.43307e-05 1.78035e-06 0 -5.47736e-05 1.7498e-06 0 -5.52087e-05 1.71803e-06 0 -5.56357e-05 1.68506e-06 0 -5.60543e-05 1.65089e-06 0 -5.64641e-05 1.61555e-06 0 -5.6865e-05 1.57905e-06 0 -5.72566e-05 1.54141e-06 0 -5.76385e-05 1.50264e-06 0 -5.80107e-05 1.46278e-06 0 -5.83727e-05 1.42185e-06 0 -5.87243e-05 1.37987e-06 0 -5.90652e-05 1.33686e-06 0 -5.93953e-05 1.29286e-06 0 -5.97141e-05 1.2479e-06 0 -6.00216e-05 1.20199e-06 0 -6.03174e-05 1.15519e-06 0 -6.06014e-05 1.10751e-06 0 -6.08733e-05 1.05899e-06 0 -6.1133e-05 1.00967e-06 0 -6.13801e-05 9.59578e-07 0 -6.16146e-05 9.08755e-07 0 -6.18363e-05 8.57238e-07 0 -6.20449e-05 8.05064e-07 0 -6.22404e-05 7.52273e-07 0 -6.24226e-05 6.98903e-07 0 -6.25912e-05 6.44995e-07 0 -6.27463e-05 5.90591e-07 0 -6.28877e-05 5.35731e-07 0 -6.30153e-05 4.80457e-07 0 -6.31289e-05 4.24811e-07 0 -6.32285e-05 3.68838e-07 0 -6.3314e-05 3.12578e-07 0 -6.33854e-05 2.56077e-07 0 -6.34426e-05 1.99377e-07 0 -6.34855e-05 1.42523e-07 0 -6.35141e-05 8.55578e-08 0 -6.35285e-05 2.85267e-08 0 -6.35285e-05 -2.85267e-08 0 -6.35141e-05 -8.55578e-08 0 -6.34855e-05 -1.42523e-07 0 -6.34426e-05 -1.99377e-07 0 -6.33854e-05 -2.56077e-07 0 -6.3314e-05 -3.12578e-07 0 -6.32285e-05 -3.68838e-07 0 -6.31289e-05 -4.24811e-07 0 -6.30153e-05 -4.80457e-07 0 -6.28877e-05 -5.35731e-07 0 -6.27463e-05 -5.90591e-07 0 -6.25912e-05 -6.44995e-07 0 -6.24226e-05 -6.98903e-07 0 -6.22404e-05 -7.52273e-07 0 -6.20449e-05 -8.05064e-07 0 -6.18363e-05 -8.57238e-07 0 -6.16146e-05 -9.08755e-07 0 -6.13801e-05 -9.59578e-07 0 -6.1133e-05 -1.00967e-06 0 -6.08733e-05 -1.05899e-06 0 -6.06014e-05 -1.10751e-06 0 -6.03174e-05 -1.15519e-06 0 -6.00216e-05 -1.20199e-06 0 -5.97141e-05 -1.2479e-06 0 -5.93953e-05 -1.29286e-06 0 -5.90652e-05 -1.33686e-06 0 -5.87243e-05 -1.37987e-06 0 -5.83727e-05 -1.42185e-06 0 -5.80107e-05 -1.46278e-06 0 -5.76385e-05 -1.50264e-06 0 -5.72566e-05 -1.54141e-06 0 -5.6865e-05 -1.57905e-06 0 -5.64641e-05 -1.61555e-06 0 -5.60543e-05 -1.65089e-06 0 -5.56357e-05 -1.68506e-06 0 -5.52087e-05 -1.71803e-06 0 -5.47736e-05 -1.7498e-06 0 -5.43307e-05 -1.78035e-06 0 -5.38803e-05 -1.80966e-06 0 -5.34227e-05 -1.83774e-06 0 -5.29582e-05 -1.86457e-06 0 -5.24872e-05 -1.89015e-06 0 -5.201e-05 -1.91447e-06 0 -5.15268e-05 -1.93753e-06 0 -5.1038e-05 -1.95933e-06 0 -5.05439e-05 -1.97986e-06 0 -5.00449e-05 -1.99914e-06 0 -4.95412e-05 -2.01717e-06 0 -4.90331e-05 -2.03395e-06 0 -4.85211e-05 -2.04949e-06 0 -4.80053e-05 -2.06379e-06 0 -4.74861e-05 -2.07688e-06 0 -4.69638e-05 -2.08875e-06 0 -4.64387e-05 -2.09942e-06 0 -4.59111e-05 -2.10892e-06 0 -4.53813e-05 -2.11724e-06 0 -4.48496e-05 -2.12442e-06 0 -4.43162e-05 -2.13046e-06 0 -4.37815e-05 -2.13539e-06 0 -4.32458e-05 -2.13922e-06 0 -4.27092e-05 -2.14199e-06 0 -4.21721e-05 -2.1437e-06 0 -4.16348e-05 -2.14439e-06 0 -4.10974e-05 -2.14408e-06 0 -4.10965e-05 2.68193e-06 0 -4.1635e-05 2.68237e-06 0 -4.21735e-05 2.68155e-06 0 -4.27117e-05 2.67945e-06 0 -4.32495e-05 2.67604e-06 0 -4.37864e-05 2.67128e-06 0 -4.43224e-05 2.66516e-06 0 -4.4857e-05 2.65764e-06 0 -4.539e-05 2.64871e-06 0 -4.59211e-05 2.63833e-06 0 -4.645e-05 2.6265e-06 0 -4.69765e-05 2.61318e-06 0 -4.75001e-05 2.59836e-06 0 -4.80207e-05 2.58203e-06 0 -4.85378e-05 2.56417e-06 0 -4.90513e-05 2.54476e-06 0 -4.95608e-05 2.5238e-06 0 -5.00659e-05 2.50128e-06 0 -5.05663e-05 2.47719e-06 0 -5.10618e-05 2.45152e-06 0 -5.1552e-05 2.42427e-06 0 -5.20366e-05 2.39545e-06 0 -5.25153e-05 2.36504e-06 0 -5.29877e-05 2.33306e-06 0 -5.34536e-05 2.29952e-06 0 -5.39126e-05 2.2644e-06 0 -5.43644e-05 2.22774e-06 0 -5.48087e-05 2.18954e-06 0 -5.52451e-05 2.1498e-06 0 -5.56735e-05 2.10856e-06 0 -5.60934e-05 2.06582e-06 0 -5.65046e-05 2.02161e-06 0 -5.69067e-05 1.97595e-06 0 -5.72996e-05 1.92885e-06 0 -5.76828e-05 1.88036e-06 0 -5.80562e-05 1.83049e-06 0 -5.84194e-05 1.77928e-06 0 -5.87721e-05 1.72675e-06 0 -5.91142e-05 1.67294e-06 0 -5.94454e-05 1.61789e-06 0 -5.97653e-05 1.56162e-06 0 -6.00738e-05 1.50419e-06 0 -6.03707e-05 1.44562e-06 0 -6.06556e-05 1.38596e-06 0 -6.09285e-05 1.32524e-06 0 -6.1189e-05 1.26353e-06 0 -6.1437e-05 1.20084e-06 0 -6.16723e-05 1.13725e-06 0 -6.18947e-05 1.07278e-06 0 -6.21041e-05 1.00749e-06 0 -6.23002e-05 9.41424e-07 0 -6.2483e-05 8.74637e-07 0 -6.26523e-05 8.07176e-07 0 -6.28079e-05 7.39092e-07 0 -6.29498e-05 6.70439e-07 0 -6.30777e-05 6.01267e-07 0 -6.31918e-05 5.3163e-07 0 -6.32917e-05 4.61582e-07 0 -6.33776e-05 3.91176e-07 0 -6.34492e-05 3.20468e-07 0 -6.35066e-05 2.49511e-07 0 -6.35496e-05 1.7836e-07 0 -6.35784e-05 1.07072e-07 0 -6.35927e-05 3.56998e-08 0 -6.35927e-05 -3.56998e-08 0 -6.35784e-05 -1.07072e-07 0 -6.35496e-05 -1.7836e-07 0 -6.35066e-05 -2.49511e-07 0 -6.34492e-05 -3.20468e-07 0 -6.33776e-05 -3.91176e-07 0 -6.32917e-05 -4.61582e-07 0 -6.31918e-05 -5.3163e-07 0 -6.30777e-05 -6.01267e-07 0 -6.29498e-05 -6.70439e-07 0 -6.28079e-05 -7.39092e-07 0 -6.26523e-05 -8.07176e-07 0 -6.2483e-05 -8.74637e-07 0 -6.23002e-05 -9.41424e-07 0 -6.21041e-05 -1.00749e-06 0 -6.18947e-05 -1.07278e-06 0 -6.16723e-05 -1.13725e-06 0 -6.1437e-05 -1.20084e-06 0 -6.1189e-05 -1.26353e-06 0 -6.09285e-05 -1.32524e-06 0 -6.06556e-05 -1.38596e-06 0 -6.03707e-05 -1.44562e-06 0 -6.00738e-05 -1.50419e-06 0 -5.97653e-05 -1.56162e-06 0 -5.94454e-05 -1.61789e-06 0 -5.91142e-05 -1.67294e-06 0 -5.87721e-05 -1.72675e-06 0 -5.84194e-05 -1.77928e-06 0 -5.80562e-05 -1.83049e-06 0 -5.76828e-05 -1.88036e-06 0 -5.72996e-05 -1.92885e-06 0 -5.69067e-05 -1.97595e-06 0 -5.65046e-05 -2.02161e-06 0 -5.60934e-05 -2.06582e-06 0 -5.56735e-05 -2.10856e-06 0 -5.52451e-05 -2.1498e-06 0 -5.48087e-05 -2.18954e-06 0 -5.43644e-05 -2.22774e-06 0 -5.39126e-05 -2.2644e-06 0 -5.34536e-05 -2.29952e-06 0 -5.29877e-05 -2.33306e-06 0 -5.25153e-05 -2.36504e-06 0 -5.20366e-05 -2.39545e-06 0 -5.1552e-05 -2.42427e-06 0 -5.10618e-05 -2.45152e-06 0 -5.05663e-05 -2.47719e-06 0 -5.00659e-05 -2.50128e-06 0 -4.95608e-05 -2.5238e-06 0 -4.90513e-05 -2.54476e-06 0 -4.85378e-05 -2.56417e-06 0 -4.80207e-05 -2.58203e-06 0 -4.75001e-05 -2.59836e-06 0 -4.69765e-05 -2.61318e-06 0 -4.645e-05 -2.6265e-06 0 -4.59211e-05 -2.63833e-06 0 -4.539e-05 -2.64871e-06 0 -4.4857e-05 -2.65764e-06 0 -4.43224e-05 -2.66516e-06 0 -4.37864e-05 -2.67128e-06 0 -4.32495e-05 -2.67604e-06 0 -4.27117e-05 -2.67945e-06 0 -4.21735e-05 -2.68155e-06 0 -4.1635e-05 -2.68237e-06 0 -4.10965e-05 -2.68193e-06 0 -4.10953e-05 3.22101e-06 0 -4.16352e-05 3.2216e-06 0 -4.2175e-05 3.22069e-06 0 -4.27147e-05 3.21823e-06 0 -4.32539e-05 3.21419e-06 0 -4.37924e-05 3.20854e-06 0 -4.43298e-05 3.20125e-06 0 -4.4866e-05 3.19228e-06 0 -4.54006e-05 3.18161e-06 0 -4.59333e-05 3.16921e-06 0 -4.64638e-05 3.15505e-06 0 -4.69919e-05 3.13911e-06 0 -4.75172e-05 3.12137e-06 0 -4.80395e-05 3.1018e-06 0 -4.85583e-05 3.08039e-06 0 -4.90735e-05 3.05713e-06 0 -4.95847e-05 3.032e-06 0 -5.00915e-05 3.00499e-06 0 -5.05937e-05 2.97609e-06 0 -5.10909e-05 2.94529e-06 0 -5.15829e-05 2.9126e-06 0 -5.20692e-05 2.878e-06 0 -5.25496e-05 2.84151e-06 0 -5.30238e-05 2.80313e-06 0 -5.34914e-05 2.76285e-06 0 -5.39521e-05 2.7207e-06 0 -5.44056e-05 2.67667e-06 0 -5.48516e-05 2.6308e-06 0 -5.52897e-05 2.58308e-06 0 -5.57197e-05 2.53355e-06 0 -5.61413e-05 2.48222e-06 0 -5.65541e-05 2.42912e-06 0 -5.69578e-05 2.37427e-06 0 -5.73522e-05 2.31771e-06 0 -5.7737e-05 2.25945e-06 0 -5.81118e-05 2.19955e-06 0 -5.84765e-05 2.13802e-06 0 -5.88307e-05 2.07492e-06 0 -5.91742e-05 2.01027e-06 0 -5.95067e-05 1.94413e-06 0 -5.98279e-05 1.87653e-06 0 -6.01377e-05 1.80752e-06 0 -6.04358e-05 1.73714e-06 0 -6.07219e-05 1.66546e-06 0 -6.09959e-05 1.59251e-06 0 -6.12575e-05 1.51835e-06 0 -6.15065e-05 1.44303e-06 0 -6.17428e-05 1.36661e-06 0 -6.19662e-05 1.28914e-06 0 -6.21764e-05 1.21069e-06 0 -6.23734e-05 1.1313e-06 0 -6.25569e-05 1.05104e-06 0 -6.27269e-05 9.69979e-07 0 -6.28832e-05 8.88165e-07 0 -6.30257e-05 8.05665e-07 0 -6.31542e-05 7.22542e-07 0 -6.32687e-05 6.3886e-07 0 -6.33691e-05 5.54684e-07 0 -6.34553e-05 4.70078e-07 0 -6.35272e-05 3.85107e-07 0 -6.35848e-05 2.99838e-07 0 -6.36281e-05 2.14337e-07 0 -6.36569e-05 1.28669e-07 0 -6.36714e-05 4.29006e-08 0 -6.36714e-05 -4.29006e-08 0 -6.36569e-05 -1.28669e-07 0 -6.36281e-05 -2.14337e-07 0 -6.35848e-05 -2.99838e-07 0 -6.35272e-05 -3.85107e-07 0 -6.34553e-05 -4.70078e-07 0 -6.33691e-05 -5.54684e-07 0 -6.32687e-05 -6.3886e-07 0 -6.31542e-05 -7.22542e-07 0 -6.30257e-05 -8.05665e-07 0 -6.28832e-05 -8.88165e-07 0 -6.27269e-05 -9.69979e-07 0 -6.25569e-05 -1.05104e-06 0 -6.23734e-05 -1.1313e-06 0 -6.21764e-05 -1.21069e-06 0 -6.19662e-05 -1.28914e-06 0 -6.17428e-05 -1.36661e-06 0 -6.15065e-05 -1.44303e-06 0 -6.12575e-05 -1.51835e-06 0 -6.09959e-05 -1.59251e-06 0 -6.07219e-05 -1.66546e-06 0 -6.04358e-05 -1.73714e-06 0 -6.01377e-05 -1.80752e-06 0 -5.98279e-05 -1.87653e-06 0 -5.95067e-05 -1.94413e-06 0 -5.91742e-05 -2.01027e-06 0 -5.88307e-05 -2.07492e-06 0 -5.84765e-05 -2.13802e-06 0 -5.81118e-05 -2.19955e-06 0 -5.7737e-05 -2.25945e-06 0 -5.73522e-05 -2.31771e-06 0 -5.69578e-05 -2.37427e-06 0 -5.65541e-05 -2.42912e-06 0 -5.61413e-05 -2.48222e-06 0 -5.57197e-05 -2.53355e-06 0 -5.52897e-05 -2.58308e-06 0 -5.48516e-05 -2.6308e-06 0 -5.44056e-05 -2.67667e-06 0 -5.39521e-05 -2.7207e-06 0 -5.34914e-05 -2.76285e-06 0 -5.30238e-05 -2.80313e-06 0 -5.25496e-05 -2.84151e-06 0 -5.20692e-05 -2.878e-06 0 -5.15829e-05 -2.9126e-06 0 -5.10909e-05 -2.94529e-06 0 -5.05937e-05 -2.97609e-06 0 -5.00915e-05 -3.00499e-06 0 -4.95847e-05 -3.032e-06 0 -4.90735e-05 -3.05713e-06 0 -4.85583e-05 -3.08039e-06 0 -4.80395e-05 -3.1018e-06 0 -4.75172e-05 -3.12137e-06 0 -4.69919e-05 -3.13911e-06 0 -4.64638e-05 -3.15505e-06 0 -4.59333e-05 -3.16921e-06 0 -4.54006e-05 -3.18161e-06 0 -4.4866e-05 -3.19228e-06 0 -4.43298e-05 -3.20125e-06 0 -4.37924e-05 -3.20854e-06 0 -4.32539e-05 -3.21419e-06 0 -4.27147e-05 -3.21823e-06 0 -4.2175e-05 -3.22069e-06 0 -4.16352e-05 -3.2216e-06 0 -4.10953e-05 -3.22101e-06 0 -4.10938e-05 3.76156e-06 0 -4.16353e-05 3.76234e-06 0 -4.21768e-05 3.76136e-06 0 -4.27182e-05 3.75858e-06 0 -4.32591e-05 3.75396e-06 0 -4.37994e-05 3.74745e-06 0 -4.43386e-05 3.73902e-06 0 -4.48766e-05 3.72863e-06 0 -4.5413e-05 3.71625e-06 0 -4.59476e-05 3.70185e-06 0 -4.64801e-05 3.68539e-06 0 -4.70101e-05 3.66684e-06 0 -4.75374e-05 3.64619e-06 0 -4.80617e-05 3.62341e-06 0 -4.85825e-05 3.59847e-06 0 -4.90997e-05 3.57137e-06 0 -4.96129e-05 3.54207e-06 0 -5.01218e-05 3.51058e-06 0 -5.06261e-05 3.47688e-06 0 -5.11253e-05 3.44096e-06 0 -5.16194e-05 3.40282e-06 0 -5.21078e-05 3.36246e-06 0 -5.25902e-05 3.31988e-06 0 -5.30664e-05 3.27508e-06 0 -5.35361e-05 3.22807e-06 0 -5.39988e-05 3.17886e-06 0 -5.44543e-05 3.12746e-06 0 -5.49023e-05 3.0739e-06 0 -5.53424e-05 3.01819e-06 0 -5.57744e-05 2.96034e-06 0 -5.61979e-05 2.9004e-06 0 -5.66126e-05 2.83838e-06 0 -5.70182e-05 2.77432e-06 0 -5.74145e-05 2.70825e-06 0 -5.78011e-05 2.6402e-06 0 -5.81777e-05 2.57022e-06 0 -5.85441e-05 2.49835e-06 0 -5.89e-05 2.42462e-06 0 -5.92451e-05 2.3491e-06 0 -5.95792e-05 2.27182e-06 0 -5.9902e-05 2.19284e-06 0 -6.02133e-05 2.11221e-06 0 -6.05128e-05 2.02998e-06 0 -6.08004e-05 1.94622e-06 0 -6.10757e-05 1.86098e-06 0 -6.13386e-05 1.77432e-06 0 -6.15888e-05 1.68631e-06 0 -6.18263e-05 1.59702e-06 0 -6.20508e-05 1.50649e-06 0 -6.2262e-05 1.41481e-06 0 -6.246e-05 1.32205e-06 0 -6.26444e-05 1.22826e-06 0 -6.28153e-05 1.13353e-06 0 -6.29723e-05 1.03792e-06 0 -6.31155e-05 9.41514e-07 0 -6.32447e-05 8.44377e-07 0 -6.33598e-05 7.46585e-07 0 -6.34607e-05 6.48216e-07 0 -6.35473e-05 5.49344e-07 0 -6.36196e-05 4.50046e-07 0 -6.36775e-05 3.50398e-07 0 -6.37209e-05 2.50479e-07 0 -6.37499e-05 1.50365e-07 0 -6.37644e-05 5.01348e-08 0 -6.37644e-05 -5.01348e-08 0 -6.37499e-05 -1.50365e-07 0 -6.37209e-05 -2.50479e-07 0 -6.36775e-05 -3.50398e-07 0 -6.36196e-05 -4.50046e-07 0 -6.35473e-05 -5.49344e-07 0 -6.34607e-05 -6.48216e-07 0 -6.33598e-05 -7.46585e-07 0 -6.32447e-05 -8.44377e-07 0 -6.31155e-05 -9.41514e-07 0 -6.29723e-05 -1.03792e-06 0 -6.28153e-05 -1.13353e-06 0 -6.26444e-05 -1.22826e-06 0 -6.246e-05 -1.32205e-06 0 -6.2262e-05 -1.41481e-06 0 -6.20508e-05 -1.50649e-06 0 -6.18263e-05 -1.59702e-06 0 -6.15888e-05 -1.68631e-06 0 -6.13386e-05 -1.77432e-06 0 -6.10757e-05 -1.86098e-06 0 -6.08004e-05 -1.94622e-06 0 -6.05128e-05 -2.02998e-06 0 -6.02133e-05 -2.11221e-06 0 -5.9902e-05 -2.19284e-06 0 -5.95792e-05 -2.27182e-06 0 -5.92451e-05 -2.3491e-06 0 -5.89e-05 -2.42462e-06 0 -5.85441e-05 -2.49835e-06 0 -5.81777e-05 -2.57022e-06 0 -5.78011e-05 -2.6402e-06 0 -5.74145e-05 -2.70825e-06 0 -5.70182e-05 -2.77432e-06 0 -5.66126e-05 -2.83838e-06 0 -5.61979e-05 -2.9004e-06 0 -5.57744e-05 -2.96034e-06 0 -5.53424e-05 -3.01819e-06 0 -5.49023e-05 -3.0739e-06 0 -5.44543e-05 -3.12746e-06 0 -5.39988e-05 -3.17886e-06 0 -5.35361e-05 -3.22807e-06 0 -5.30664e-05 -3.27508e-06 0 -5.25902e-05 -3.31988e-06 0 -5.21078e-05 -3.36246e-06 0 -5.16194e-05 -3.40282e-06 0 -5.11253e-05 -3.44096e-06 0 -5.06261e-05 -3.47688e-06 0 -5.01218e-05 -3.51058e-06 0 -4.96129e-05 -3.54207e-06 0 -4.90997e-05 -3.57137e-06 0 -4.85825e-05 -3.59847e-06 0 -4.80617e-05 -3.62341e-06 0 -4.75374e-05 -3.64619e-06 0 -4.70101e-05 -3.66684e-06 0 -4.64801e-05 -3.68539e-06 0 -4.59476e-05 -3.70185e-06 0 -4.5413e-05 -3.71625e-06 0 -4.48766e-05 -3.72863e-06 0 -4.43386e-05 -3.73902e-06 0 -4.37994e-05 -3.74745e-06 0 -4.32591e-05 -3.75396e-06 0 -4.27182e-05 -3.75858e-06 0 -4.21768e-05 -3.76136e-06 0 -4.16353e-05 -3.76234e-06 0 -4.10938e-05 -3.76156e-06 0 -4.1092e-05 4.30382e-06 0 -4.16353e-05 4.30484e-06 0 -4.21788e-05 4.30384e-06 0 -4.27221e-05 4.30078e-06 0 -4.3265e-05 4.29561e-06 0 -4.38073e-05 4.28828e-06 0 -4.43486e-05 4.27875e-06 0 -4.48888e-05 4.26697e-06 0 -4.54274e-05 4.25291e-06 0 -4.59641e-05 4.23654e-06 0 -4.64988e-05 4.2178e-06 0 -4.70311e-05 4.19668e-06 0 -4.75607e-05 4.17315e-06 0 -4.80872e-05 4.14717e-06 0 -4.86104e-05 4.11873e-06 0 -4.91299e-05 4.08779e-06 0 -4.96455e-05 4.05435e-06 0 -5.01567e-05 4.01839e-06 0 -5.06634e-05 3.97989e-06 0 -5.1165e-05 3.93885e-06 0 -5.16614e-05 3.89527e-06 0 -5.21522e-05 3.84914e-06 0 -5.26371e-05 3.80046e-06 0 -5.31157e-05 3.74924e-06 0 -5.35877e-05 3.69548e-06 0 -5.40528e-05 3.63921e-06 0 -5.45106e-05 3.58042e-06 0 -5.49609e-05 3.51915e-06 0 -5.54033e-05 3.45541e-06 0 -5.58376e-05 3.38924e-06 0 -5.62633e-05 3.32065e-06 0 -5.66802e-05 3.24968e-06 0 -5.7088e-05 3.17637e-06 0 -5.74864e-05 3.10076e-06 0 -5.78751e-05 3.02288e-06 0 -5.82538e-05 2.94279e-06 0 -5.86222e-05 2.86052e-06 0 -5.89801e-05 2.77613e-06 0 -5.93271e-05 2.68968e-06 0 -5.9663e-05 2.60121e-06 0 -5.99876e-05 2.5108e-06 0 -6.03007e-05 2.41849e-06 0 -6.06019e-05 2.32436e-06 0 -6.0891e-05 2.22846e-06 0 -6.11679e-05 2.13087e-06 0 -6.14323e-05 2.03166e-06 0 -6.1684e-05 1.93089e-06 0 -6.19228e-05 1.82865e-06 0 -6.21485e-05 1.725e-06 0 -6.2361e-05 1.62003e-06 0 -6.25601e-05 1.51381e-06 0 -6.27456e-05 1.40643e-06 0 -6.29174e-05 1.29796e-06 0 -6.30754e-05 1.18848e-06 0 -6.32194e-05 1.07809e-06 0 -6.33493e-05 9.66865e-07 0 -6.3465e-05 8.54889e-07 0 -6.35665e-05 7.42251e-07 0 -6.36536e-05 6.29036e-07 0 -6.37263e-05 5.15333e-07 0 -6.37846e-05 4.01231e-07 0 -6.38283e-05 2.86816e-07 0 -6.38574e-05 1.72179e-07 0 -6.3872e-05 5.74078e-08 0 -6.3872e-05 -5.74078e-08 0 -6.38574e-05 -1.72179e-07 0 -6.38283e-05 -2.86816e-07 0 -6.37846e-05 -4.01231e-07 0 -6.37263e-05 -5.15333e-07 0 -6.36536e-05 -6.29036e-07 0 -6.35665e-05 -7.42251e-07 0 -6.3465e-05 -8.54889e-07 0 -6.33493e-05 -9.66865e-07 0 -6.32194e-05 -1.07809e-06 0 -6.30754e-05 -1.18848e-06 0 -6.29174e-05 -1.29796e-06 0 -6.27456e-05 -1.40643e-06 0 -6.25601e-05 -1.51381e-06 0 -6.2361e-05 -1.62003e-06 0 -6.21485e-05 -1.725e-06 0 -6.19228e-05 -1.82865e-06 0 -6.1684e-05 -1.93089e-06 0 -6.14323e-05 -2.03166e-06 0 -6.11679e-05 -2.13087e-06 0 -6.0891e-05 -2.22846e-06 0 -6.06019e-05 -2.32436e-06 0 -6.03007e-05 -2.41849e-06 0 -5.99876e-05 -2.5108e-06 0 -5.9663e-05 -2.60121e-06 0 -5.93271e-05 -2.68968e-06 0 -5.89801e-05 -2.77613e-06 0 -5.86222e-05 -2.86052e-06 0 -5.82538e-05 -2.94279e-06 0 -5.78751e-05 -3.02288e-06 0 -5.74864e-05 -3.10076e-06 0 -5.7088e-05 -3.17637e-06 0 -5.66802e-05 -3.24968e-06 0 -5.62633e-05 -3.32065e-06 0 -5.58376e-05 -3.38924e-06 0 -5.54033e-05 -3.45541e-06 0 -5.49609e-05 -3.51915e-06 0 -5.45106e-05 -3.58042e-06 0 -5.40528e-05 -3.63921e-06 0 -5.35877e-05 -3.69548e-06 0 -5.31157e-05 -3.74924e-06 0 -5.26371e-05 -3.80046e-06 0 -5.21522e-05 -3.84914e-06 0 -5.16614e-05 -3.89527e-06 0 -5.1165e-05 -3.93885e-06 0 -5.06634e-05 -3.97989e-06 0 -5.01567e-05 -4.01839e