<?xml version="1.0"?> 
<VTKFile type="StructuredGrid" version="0.1"> 
<StructuredGrid WholeExtent="0 31 0 31 0 0"> 
<Piece Extent="0 31 0 31 0 0"> 
<PointData>
<DataArray type="Float32" Name="B" format="ascii" NumberOfComponents="3"> 
0 -0.0483281 0 -0.011899 -0.0149634 0 -0.0112238 -0.0116518 0 -0.00913105 -0.00869768 0 -0.00896258 -0.00723341 0 -0.00814743 -0.00606688 0 -0.00791856 -0.00522558 0 -0.00756674 -0.00452889 0 -0.00739103 -0.00393791 0 -0.00720986 -0.00341933 0 -0.00708773 -0.00295044 0 -0.00697888 -0.00252148 0 -0.00689549 -0.00212136 0 -0.00682574 -0.00174455 0 -0.00677137 -0.00138453 0 -0.00672917 -0.00103674 0 -0.00669909 -0.000696083 0 -0.00668026 -0.000358018 0 -0.00667217 -1.74859e-05 0 -0.00667489 0.000330577 0 -0.00668687 0.000692286 0 -0.00671005 0.00107395 0 -0.0067387 0.00148445 0 -0.00678243 0.00193304 0 -0.00681884 0.00243508 0 -0.00688925 0.00300936 0 -0.00690554 0.00368546 0 -0.00703233 0.00452704 0 -0.00692988 0.00559045 0 -0.0071878 0.00724224 0 -0.00675643 0.0096171 0 0.00256987 0.0225843 0 0 -0.0188286 0 -0.00581581 -0.0152862 0 -0.00721702 -0.0116299 0 -0.00751967 -0.00921875 0 -0.00737862 -0.00757637 0 -0.00724339 -0.00638216 0 -0.0070657 -0.00546173 0 -0.00693166 -0.00471574 0 -0.00680784 -0.00408612 0 -0.00671071 -0.00353741 0 -0.00662692 -0.00304711 0 -0.0065584 -0.0026003 0 -0.00650035 -0.00218632 0 -0.00645232 -0.00179725 0 -0.00641259 -0.00142662 0 -0.00638061 -0.00106895 0 -0.00635564 -0.000719167 0 -0.00633715 -0.000372456 0 -0.0063245 -2.39109e-05 0 -0.00631682 0.000331586 0 -0.00631317 0.000699688 0 -0.00631163 0.00108676 0 -0.00631063 0.00150049 0 -0.00630528 0.00195024 0 -0.00629317 0.00244861 0 -0.00625956 0.00301254 0 -0.00620042 0.00366752 0 -0.00606344 0.00445193 0 -0.00582655 0.00542806 0 -0.00524946 0.00669008 0 -0.003952 0.00826866 0 -0.000980882 0.00912685 0 0 -0.0132396 0 -0.0030425 -0.012462 0 -0.00488322 -0.0106171 0 -0.00571565 -0.00891481 0 -0.00608154 -0.00752675 0 -0.00621317 -0.00642471 0 -0.00625211 -0.00553224 0 -0.00624372 -0.00478967 0 -0.00621954 -0.00415503 0 -0.00618814 -0.00359863 0 -0.00615628 -0.00310077 0 -0.00612533 -0.00264684 0 -0.00609662 -0.00222655 0 -0.00607028 -0.00183169 0 -0.00604649 -0.00145581 0 -0.0060251 -0.00109329 0 -0.00600588 -0.00073917 0 -0.00598837 -0.00038869 0 -0.00597182 -3.72037e-05 0 -0.00595516 0.000320107 0 -0.00593671 0.000688334 0 -0.00591416 0.00107318 0 -0.00588383 0.00148101 0 -0.00584077 0.00191954 0 -0.00577616 0.00239777 0 -0.00567801 0.00292726 0 -0.00552191 0.00352187 0 -0.00527391 0.00419727 0 -0.00485697 0.00496473 0 -0.0041601 0.00579089 0 -0.00298699 0.00652325 0 -0.0013821 0.0065593 0 0 -0.0108089 0 -0.00195372 -0.0103203 0 -0.00343754 -0.0093816 0 -0.00439644 -0.00825219 0 -0.0049601 -0.0071927 0 -0.00528591 -0.00626009 0 -0.00546964 -0.00545552 0 -0.00557484 -0.00475835 0 -0.00563393 -0.00414672 0 -0.00566672 -0.00360258 0 -0.00568329 -0.00311088 0 -0.00568987 -0.00266027 0 -0.00568984 -0.00224151 0 -0.00568531 -0.00184735 0 -0.00567748 -0.00147169 0 -0.00566697 -0.00110932 0 -0.00565394 -0.000755524 0 -0.00563811 -0.000405923 0 -0.00561877 -5.62466e-05 0 -0.00559466 0.000297767 0 -0.00556385 0.000660545 0 -0.00552347 0.0010367 0 -0.00546941 0.00143124 0 -0.00539551 0.00184931 0 -0.00529291 0.00229637 0 -0.00514738 0.00277713 0 -0.00493801 0.00329473 0 -0.00463014 0.00384741 0 -0.0041785 0.00441692 0 -0.00352364 0.00495251 0 -0.00264132 0.00531383 0 -0.00162158 0.0054219 0 0 -0.00899824 0 -0.00138652 -0.00882493 0 -0.00256925 -0.00824958 0 -0.00345573 -0.00750634 0 -0.00407523 -0.00671887 0 -0.00448986 -0.00596576 0 -0.00476544 -0.00527178 0 -0.0049495 -0.00464167 0 -0.00507521 -0.0040719 0 -0.00516162 -0.00355437 0 -0.00522126 -0.00308049 0 -0.00526188 -0.00264205 0 -0.00528861 -0.00223212 0 -0.0053047 -0.00184463 0 -0.00531224 -0.0014744 0 -0.00531245 -0.00111681 0 -0.00530586 -0.000767713 0 -0.00529243 -0.000423218 0 -0.00527153 -7.96178e-05 0 -0.00524189 0.000266725 0 -0.00520149 0.000619394 0 -0.00514739 0.000981966 0 -0.00507536 0.00135786 0 -0.00497965 0.00175016 0 -0.00485196 0.00216086 0 -0.00468106 0.00258953 0 -0.00444858 0.00303079 0 -0.00413088 0.00347347 0 -0.00370072 0.00389651 0 -0.00314143 0.00425366 0 -0.00246194 0.0044855 0 -0.00172558 0.00448338 0 0 -0.00781365 0 -0.00105932 -0.00765881 0 -0.00201002 -0.00730123 0 -0.00279126 -0.00678625 0 -0.00339189 -0.00620397 0 -0.00383207 -0.00560957 0 -0.00414437 -0.0050228 0 -0.00437808 -0.00446418 0 -0.00455111 -0.00394458 0 -0.00467957 -0.0034628 0 -0.00477453 -0.00301473 0 -0.00484434 -0.00259556 0 -0.00489461 -0.0022004 0 -0.00492931 -0.00182477 0 -0.00495104 -0.00146451 0 -0.00496143 -0.00111586 0 -0.00496134 -0.000775323 0 -0.00495093 -0.000439639 0 -0.00492971 -0.000105728 0 -0.00489652 0.000229341 0 -0.00484946 0.000568343 0 -0.00478571 0.000913823 0 -0.00470156 0.00126796 0 -0.00459181 0.00163218 0 -0.00445055 0.00200658 0 -0.00427006 0.00238843 0 -0.00404503 0.00276432 0 -0.00374437 0.00311569 0 -0.00335779 0.00343453 0 -0.00288693 0.00369129 0 -0.00234973 0.0038445 0 -0.00178662 0.00388767 0 0 -0.00682609 0 -0.000846739 -0.00674857 0 -0.00163137 -0.00649776 0 -0.00231126 -0.00613228 0 -0.00286956 -0.00569502 0 -0.003309 -0.00523506 0 -0.00364649 -0.00473931 0 -0.00391041 -0.00424643 0 -0.00411571 -0.0037791 0 -0.00427465 -0.00333738 0 -0.00439701 -0.00292014 0 -0.00449038 -0.00252508 0 -0.00456039 -0.00214924 0 -0.00461112 -0.00178959 0 -0.00464542 -0.00144308 0 -0.00466517 -0.00110684 0 -0.00467142 -0.000778107 0 -0.00466451 -0.000454311 0 -0.00464413 -0.000133022 0 -0.00460928 0.000187989 0 -0.00455829 0.000510752 0 -0.00448871 0.000836919 0 -0.00439733 0.00116775 0 -0.00428006 0.00150361 0 -0.00413228 0.00184389 0 -0.00394899 0.00218754 0 -0.00372501 0.00251315 0 -0.00344399 0.00278732 0 -0.00310147 0.00303486 0 -0.00270354 0.00322746 0 -0.00226595 0.00334732 0 -0.001815 0.00336778 0 0 -0.00606168 0 -0.000700155 -0.00599372 0 -0.00136209 -0.0058165 0 -0.00195621 -0.00554563 0 -0.00246745 -0.00521204 0 -0.00289297 -0.00484887 0 -0.00323989 -0.00443312 0 -0.00352035 -0.00400367 0 -0.00374558 -0.00358761 0 -0.00392524 -0.00318723 0 -0.00406745 -0.00280331 0 -0.00417883 -0.00243534 0 -0.00426454 -0.00208191 0 -0.00432849 -0.00174127 0 -0.00437353 -0.00141142 0 -0.00440159 -0.00109032 0 -0.00441384 -0.000775987 0 -0.00441076 -0.000466502 0 -0.00439219 -0.000160084 0 -0.00435735 0.000144849 0 -0.00430486 0.00044965 0 -0.00423268 0.000755275 0 -0.00413817 0.00106227 0 -0.00401812 0.00137038 0 -0.00386892 0.00167864 0 -0.00368672 0.0019856 0 -0.00346727 0.00226705 0 -0.00320595 0.00249008 0 -0.00290222 0.00268785 0 -0.00256184 0.0028412 0 -0.00219664 0.00293707 0 -0.00182421 0.00297256 0 0 -0.0054053 0 -0.000593952 -0.00536161 0 -0.00116268 -0.00522738 0 -0.00168644 -0.00502132 0 -0.00215251 -0.00476038 0 -0.00255644 -0.00446983 0 -0.00289933 -0.00411991 0 -0.0031851 -0.00374761 0 -0.00342063 -0.00338008 0 -0.00361287 -0.00302038 0 -0.00376834 -0.00267042 0 -0.00389259 -0.00233097 0 -0.00399012 -0.00200178 0 -0.00406448 -0.00168216 0 -0.00411834 -0.001371 0 -0.00415356 -0.00106706 0 -0.00417134 -0.000769042 0 -0.00417224 -0.000475652 0 -0.00415627 -0.000185709 0 -0.00412284 0.000101791 0 -0.00407087 0.000387625 0 -0.00399874 0.000672181 0 -0.00390433 0.000955474 0 -0.00378514 0.00123685 0 -0.00363835 0.00151509 0 -0.0034614 0.00178894 0 -0.00325215 0.00203463 0 -0.00301127 0.00222071 0 -0.0027408 0.0023849 0 -0.00244578 0.00251214 0 -0.0021351 0.00259591 0 -0.00182059 0.00262795 0 0 -0.0048531 0 -0.000513369 -0.00481618 0 -0.00100997 -0.0047128 0 -0.00147549 -0.00455052 0 -0.00190087 -0.00434121 0 -0.00228154 -0.00410461 0 -0.0026145 -0.00380861 0 -0.00289896 -0.00348705 0 -0.00313752 -0.00316443 0 -0.00333582 -0.00284353 0 -0.00349898 -0.00252692 0 -0.00363159 -0.00221621 0 -0.00373742 -0.00191205 0 -0.00381956 -0.00161455 0 -0.00388036 -0.00132335 0 -0.00392156 -0.0010379 0 -0.00394431 -0.000757481 0 -0.00394922 -0.000481382 0 -0.0039364 -0.000208938 0 -0.00390548 6.03525e-05 0 -0.00385566 0.000326785 0 -0.00378569 0.000590287 0 -0.00369396 0.000850459 0 -0.00357842 0.0011063 0 -0.0034369 0.00135648 0 -0.00326693 0.00160034 0 -0.00306909 0.00181669 0 -0.00284678 0.00197644 0 -0.00260449 0.00211789 0 -0.00234608 0.00222838 0 -0.00207756 0.00230353 0 -0.00180701 0.00234127 0 0 -0.00436843 0 -0.0004504 -0.00434069 0 -0.000888942 -0.00425755 0 -0.00130571 -0.00412604 0 -0.00169412 -0.00395314 0 -0.00205347 -0.00375208 0 -0.00238223 -0.00350261 0 -0.00266012 -0.00322826 0 -0.00289629 -0.00294686 0 -0.00309525 -0.00266218 0 -0.00326162 -0.00237741 0 -0.00339877 -0.00209479 0 -0.00350986 -0.00181561 0 -0.0035974 -0.00154057 0 -0.00366342 -0.00126994 0 -0.00370947 -0.00100369 0 -0.00373658 -0.000741617 0 -0.00374539 -0.000483479 0 -0.00373609 -0.000229059 0 -0.0037085 2.17295e-05 0 -0.00366206 0.000268785 0 -0.00359591 0.000511676 0 -0.00350878 0.000749648 0 -0.00339937 0.000981379 0 -0.0032653 0.00120511 0 -0.00310434 0.00141922 0 -0.00290938 0.00160889 0 -0.00270219 0.00175449 0 -0.00248475 0.00188103 0 -0.00225682 0.0019805 0 -0.00202221 0.00205083 0 -0.00178667 0.00208936 0 0 -0.00394336 0 -0.000399432 -0.00391991 0 -0.000790326 -0.00385181 0 -0.00116514 -0.00374214 0 -0.00151858 -0.00359618 0 -0.00184779 -0.00341766 0 -0.00214838 -0.00320869 0 -0.00241238 -0.00297699 0 -0.00264077 -0.00273239 0 -0.00283649 -0.00248068 0 -0.00300238 -0.00222565 0 -0.00314104 -0.00196981 0 -0.00325483 -0.00171494 0 -0.00334576 -0.00146215 0 -0.00341548 -0.00121214 0 -0.00346531 -0.000965289 0 -0.00349619 -0.000721825 0 -0.0035087 -0.000481876 0 -0.00350311 -0.000245588 0 -0.00347939 -1.31998e-05 0 -0.00343723 0.000214866 0 -0.00337606 0.000437935 0 -0.00329513 0.000654946 0 -0.00319347 0.000864388 0 -0.00306994 0.00106397 0 -0.0029232 0.0012499 0 -0.00275354 0.00141497 0 -0.00256972 0.00155465 0 -0.00237611 0.00167048 0 -0.00217447 0.00176257 0 -0.00196795 0.0018293 0 -0.00176074 0.00187044 0 0 -0.003564 0 -0.000357326 -0.00354479 0 -0.000708077 -0.00348759 0 -0.00104642 -0.00339492 0 -0.00136752 -0.00326991 0 -0.00166757 -0.00311617 0 -0.00194287 -0.00293697 0 -0.00218979 -0.00273783 0 -0.00240759 -0.00252469 0 -0.00259713 -0.00230238 0 -0.00275996 -0.00207452 0 -0.00289777 -0.00184379 0 -0.00301224 -0.00161212 0 -0.00310488 -0.0013809 0 -0.00317701 -0.00115113 0 -0.00322969 -0.000923494 0 -0.00326373 -0.000698519 0 -0.00327968 -0.000476629 0 -0.00327785 -0.000258245 0 -0.00325832 -4.3858e-05 0 -0.003221 0.000165897 0 -0.00316561 0.000370152 0 -0.00309178 0.000567733 0 -0.00299911 0.000757021 0 -0.00288731 0.000935798 0 -0.00275662 0.00110103 0 -0.00260856 0.00124901 0 -0.00244713 0.00137681 0 -0.00227575 0.001484 0 -0.00209718 0.00156989 0 -0.00191446 0.00163404 0 -0.00173095 0.00167614 0 0 -0.00322409 0 -0.000321832 -0.00320765 0 -0.000638488 -0.0031591 0 -0.000945118 -0.00307996 0 -0.00123754 -0.00297262 0 -0.00151214 -0.00283986 0 -0.00176576 -0.00268521 0 -0.00199627 -0.0025125 0 -0.00220241 -0.00232595 0 -0.00238416 -0.00212944 0 -0.00254219 -0.00192615 0 -0.00267746 -0.0017186 0 -0.00279108 -0.00150877 0 -0.00288413 -0.00129817 0 -0.0029576 -0.00108795 0 -0.00301232 -0.000879026 0 -0.00304897 -0.000672126 0 -0.00306805 -0.000467888 0 -0.00306989 -0.000266931 0 -0.00305468 -6.9919e-05 0 -0.00302246 0.00012237 0 -0.00297323 0.00030898 0 -0.00290692 0.000488705 0 -0.00282358 0.00066003 0 -0.00272347 0.000821049 0 -0.00260733 0.000969489 0 -0.0024769 0.001103 0 -0.00233441 0.00121983 0 -0.00218261 0.00131871 0 -0.00202415 0.00139912 0 -0.00186176 0.00146072 0 -0.00169827 0.00150366 0 0 -0.00291689 0 -0.000291625 -0.00290291 0 -0.000579005 -0.0028613 0 -0.000858148 -0.0027933 0 -0.00112543 -0.0027007 0 -0.00137773 -0.00258589 0 -0.00161248 -0.00245157 0 -0.00182762 -0.00230089 0 -0.00202205 -0.00213707 0 -0.00219531 -0.00196318 0 -0.00234752 -0.00178194 0 -0.00247913 -0.00159563 0 -0.00259082 -0.00140614 0 -0.00268328 -0.001215 0 -0.00275723 -0.00102345 0 -0.00281332 -0.000832518 0 -0.00285208 -0.000643067 0 -0.00287396 -0.000455875 0 -0.0028793 -0.000271691 0 -0.00286835 -9.12875e-05 0 -0.00284128 8.44817e-05 0 -0.00279826 0.000254635 0 -0.00273948 0.000418019 0 -0.00266524 0.000573273 0 -0.0025761 0.000718833 0 -0.00247299 0.000853 0 -0.00235728 0.000974118 0 -0.00223096 0.00108075 0 -0.00209613 0.00117198 0 -0.00195509 0.00124721 0 -0.00181018 0.00130622 0 -0.00166382 0.00134913 0 0 -0.00263795 0 -0.000265681 -0.00262587 0 -0.000527844 -0.00259002 0 -0.000783112 -0.00253128 0 -0.00102841 -0.00245111 0 -0.00126102 -0.00235137 0 -0.00147868 -0.00223432 0 -0.00167967 -0.0021024 0 -0.00186279 -0.0019582 0 -0.0020274 -0.00180421 0 -0.00217329 -0.00164272 0 -0.00230058 -0.00147577 0 -0.00240959 -0.00130511 0 -0.00250076 -0.0011322 0 -0.00257455 -0.000958313 0 -0.00263145 -0.000784514 0 -0.00267188 -0.000611743 0 -0.00269623 -0.000440859 0 -0.00270482 -0.000272682 0 -0.00269795 -0.000108043 0 -0.00267589 5.21799e-05 0 -0.00263891 0.000207026 0 -0.00258736 0.000355423 0 -0.0025217 0.000496185 0 -0.00244263 0.000628021 0 -0.00235108 0.000749603 0 -0.00224836 0.000859669 0 -0.00213602 0.000957176 0 -0.00201589 0.0010413 0 -0.00188989 0.00111158 0 -0.00176005 0.00116784 0 -0.00162841 0.00121026 0 0 -0.00238317 0 -0.000243295 -0.00237275 0 -0.000483617 -0.00234171 0 -0.000718114 -0.00229079 0 -0.00094414 -0.00222113 0 -0.00115935 -0.00213425 0 -0.00136175 -0.00203194 0 -0.00154975 -0.00191619 0 -0.0017222 -0.00178908 0 -0.00187834 -0.00165268 0 -0.00201778 -0.00150892 0 -0.00214041 -0.00135959 0 -0.0022463 -0.00120627 0 -0.00233569 -0.00105036 0 -0.00240885 -0.000893064 0 -0.00246612 -0.000735466 0 -0.00250784 -0.000578527 0 -0.00253432 -0.000423136 0 -0.00254589 -0.000270145 0 -0.00254284 -0.000120398 0 -0.0025255 2.52371e-05 0 -0.00249423 0.000165844 0 -0.00244945 0.000300448 0 -0.00239172 0.000428014 0 -0.00232176 0.000547471 0 -0.0022405 0.000657757 0 -0.00214909 0.000757887 0 -0.00204891 0.000847013 0 -0.00194151 0.000924522 0 -0.00182854 0.000990019 0 -0.00171172 0.00104339 0 -0.0015928 0.00108475 0 0 -0.00214935 0 -0.000223895 -0.0021403 0 -0.000445257 -0.00211336 0 -0.000661637 -0.00206909 0 -0.000870752 -0.00200843 0 -0.00107055 -0.00193258 0 -0.00125925 -0.00184301 0 -0.00143543 -0.00174133 0 -0.00159794 -0.00162925 0 -0.001746 -0.00150847 0 -0.00187909 -0.00138066 0 -0.00199695 -0.00124737 0 -0.0020995 -0.00111001 0 -0.0021868 -0.000969869 0 -0.002259 -0.000828101 0 -0.00231631 -0.000685746 0 -0.00235899 -0.000543755 0 -0.0023873 -0.000403014 0 -0.00240153 -0.000264367 0 -0.00240199 -0.000128647 0 -0.00238903 3.31159e-06 0 -0.00236304 0.000130655 0 -0.00232449 0.000252502 0 -0.00227397 0.000367953 0 -0.0022122 0.000476107 0 -0.00214006 0.000576093 0 -0.00205861 0.000667118 0 -0.00196905 0.000748521 0 -0.00187271 0.000819794 0 -0.00177104 0.000880637 0 -0.0016655 0.000930954 0 -0.00155759 0.000970877 0 0 -0.00193368 0 -0.000207046 -0.00192581 0 -0.000411906 -0.00190238 0 -0.000612464 -0.00186384 0 -0.000806728 -0.00181094 0 -0.000992891 -0.00174467 0 -0.00116937 -0.0016662 0 -0.00133483 -0.00157687 0 -0.0014882 -0.00147809 0 -0.00162867 -0.00137128 0 -0.00175567 -0.00125787 0 -0.00186884 -0.00113919 0 -0.00196798 -0.0010165 0 -0.00205304 -0.000890988 0 -0.00212405 -0.000763709 0 -0.00218116 -0.000635652 0 -0.00222452 -0.000507728 0 -0.00225437 -0.000380793 0 -0.00227096 -0.000255665 0 -0.00227459 -0.000133139 0 -0.00226561 -1.40026e-05 0 -0.00224443 0.000100958 0 -0.00221154 0.000210952 0 -0.00216751 0.000315196 0 -0.00211305 0.000412922 0 -0.00204899 0.000503409 0 -0.00197626 0.000586011 0 -0.00189597 0.000660186 0 -0.00180926 0.000725535 0 -0.00171739 0.000781814 0 -0.00162165 0.000828955 0 -0.0015233 0.000867067 0 0 -0.00173379 0 -0.000192392 -0.00172695 0 -0.000382882 -0.00170656 0 -0.000569615 -0.001673 0 -0.000750844 -0.00162686 0 -0.000924963 -0.00156897 0 -0.00109054 -0.00150027 0 -0.00124636 -0.00142188 0 -0.00139139 -0.00133495 0 -0.00152485 -0.0012407 0 -0.00164612 -0.00114032 0 -0.00175477 -0.00103499 0 -0.00185055 -0.000925817 0 -0.00193332 -0.000813855 0 -0.00200303 -0.000700083 0 -0.00205974 -0.000585414 0 -0.00210357 -0.000470704 0 -0.0021347 -0.000356762 0 -0.00215335 -0.000244359 0 -0.0021598 -0.000134242 0 -0.00215441 -2.71411e-05 0 -0.00213755 7.62268e-05 0 -0.00210973 0.000175157 0 -0.0020715 0.000268963 0 -0.00202353 0.000356989 0 -0.00196658 0.00043863 0 -0.00190152 0.000513349 0 -0.0018293 0.000580706 0 -0.00175098 0.000640374 0 -0.00166763 0.000692159 0 -0.00158038 0.00073601 0 -0.00149034 0.000772021 0 0 -0.00154761 0 -0.000179652 -0.00154167 0 -0.000357629 -0.00152395 0 -0.000532296 -0.00149476 0 -0.000702101 -0.00145458 0 -0.000865607 -0.00140408 0 -0.00102152 -0.00134406 0 -0.00116871 -0.00127542 0 -0.00130621 -0.00119914 0 -0.00143324 -0.00111623 0 -0.0015492 -0.00102772 0 -0.00165361 -0.000934618 0 -0.00174617 -0.000837908 0 -0.00182667 -0.000738522 0 -0.00189502 -0.000637344 0 -0.00195122 -0.000535209 0 -0.00199534 -0.000432907 0 -0.00202751 -0.000331187 0 -0.00204794 -0.000230764 0 -0.00205689 -0.000132327 0 -0.00205467 -3.65445e-05 0 -0.00204167 5.59369e-05 0 -0.00201835 0.000144491 0 -0.00198525 0.000228517 0 -0.001943 0.000307454 0 -0.0018923 0.000380787 0 -0.00183393 0.00044807 0 -0.00176877 0.000508936 0 -0.00169773 0.00056312 0 -0.00162177 0.000610463 0 -0.0015419 0.000650926 0 -0.00145908 0.000684589 0 0 -0.00137336 0 -0.000168594 -0.00136821 0 -0.000335699 -0.00135285 0 -0.000499859 -0.00132752 0 -0.000659682 -0.00129264 0 -0.000813872 -0.00124874 0 -0.000961249 -0.00119648 0 -0.00110076 -0.00113661 0 -0.00123152 -0.00106995 0 -0.00135274 -0.000997354 0 -0.00146384 -0.000919697 0 -0.00156432 -0.000837851 0 -0.00165385 -0.000752668 0 -0.00173218 -0.000664972 0 -0.00179917 -0.000575554 0 -0.00185479 -0.000485166 0 -0.00189906 -0.000394523 0 -0.00193209 -0.00030431 0 -0.00195404 -0.000215178 0 -0.00196515 -0.000127755 0 -0.00196572 -4.26431e-05 0 -0.00195611 3.9579e-05 0 -0.00193676 0.000118358 0 -0.00190818 0.000193171 0 -0.00187094 0.000263533 0 -0.00182569 0.000329009 0 -0.00177316 0.000389222 0 -0.00171411 0.000443868 0 -0.00164939 0.000492726 0 -0.00157984 0.000535667 0 -0.00150635 0.00057266 0 -0.00142978 0.000603771 0 0 -0.00120942 0 -0.000159032 -0.00120498 0 -0.000316726 -0.00119173 0 -0.000471773 -0.00116987 0 -0.000622916 -0.00113974 0 -0.000768974 -0.00110177 0 -0.000908865 -0.00105652 0 -0.00104161 -0.0010046 0 -0.00116637 -0.000946701 0 -0.0012824 -0.000883542 0 -0.00138912 -0.000815865 0 -0.00148602 -0.000744416 0 -0.00157275 -0.000669934 0 -0.00164904 -0.000593139 0 -0.00171472 -0.000514728 0 -0.00176972 -0.00043537 0 -0.00181404 -0.000355705 0 -0.00184774 -0.000276346 0 -0.00187098 -0.00019788 0 -0.00188396 -0.000120868 0 -0.00188695 -4.58475e-05 0 -0.00188031 2.66694e-05 0 -0.00186442 9.61975e-05 0 -0.00183977 0.000162283 0 -0.00180689 0.000224509 0 -0.00176638 0.000282506 0 -0.0017189 0.000335955 0 -0.00166515 0.000384603 0 -0.00160587 0.000428266 0 -0.00154185 0.000466836 0 -0.00147387 0.000500289 0 -0.0014027 0.000528679 0 0 -0.00105439 0 -0.000150812 -0.00105059 0 -0.00030041 -0.00103924 0 -0.000447605 -0.00102052 0 -0.00059125 -0.000994681 0 -0.000730263 -0.000962103 0 -0.000863642 -0.00092323 0 -0.000990479 -0.000878579 0 -0.00110997 -0.000828717 0 -0.00122141 -0.00077425 0 -0.00132422 -0.000715803 0 -0.00141791 -0.000654011 0 -0.0015021 -0.000589509 0 -0.00157652 -0.000522918 0 -0.00164097 -0.000454845 0 -0.00169535 -0.000385876 0 -0.00173964 -0.000316576 0 -0.00177388 -0.000247486 0 -0.00179819 -0.000179124 0 -0.00181276 -0.000111986 0 -0.00181784 -4.65437e-05 0 -0.00181375 1.6754e-05 0 -0.00180086 7.7486e-05 0 -0.0017796 0.000135261 0 -0.00175048 0.000189724 0 -0.00171405 0.00024056 0 -0.00167091 0.000287502 0 -0.00162171 0.000330337 0 -0.00156711 0.000368911 0 -0.00150783 0.000403136 0 -0.00144457 0.000432991 0 -0.00137804 0.000458521 0 0 -0.000906987 0 -0.000143809 -0.000903767 0 -0.000286505 -0.000894155 0 -0.000426997 -0.000878286 0 -0.00056423 -0.000856382 0 -0.000697201 -0.00082874 0 -0.000824979 -0.00079573 0 -0.000946709 -0.000757774 0 -0.00106163 -0.000715342 0 -0.00116907 -0.000668938 0 -0.00126845 -0.000619084 0 -0.0013593 -0.000566316 0 -0.00144124 -0.000511169 0 -0.00151397 -0.000454175 0 -0.0015773 -0.000395854 0 -0.00163108 -0.00033671 0 -0.00167529 -0.000277234 0 -0.00170995 -0.000217894 0 -0.00173515 -0.00015914 0 -0.00175107 -0.000101403 0 -0.00175792 -4.5091e-05 0 -0.001756 9.40943e-06 0 -0.00174566 6.17372e-05 0 -0.00172731 0.000111559 0 -0.0017014 0.000158574 0 -0.00166844 0.000202518 0 -0.001629 0.000243166 0 -0.00158366 0.000280341 0 -0.00153304 0.000313917 0 -0.00147778 0.000343818 0 -0.00141854 0.000370028 0 -0.00135595 0.000392583 0 0 -0.000766032 0 -0.00013792 -0.000763349 0 -0.000274811 -0.000755336 0 -0.000409659 -0.000742104 0 -0.000541482 -0.000723831 0 -0.000669347 -0.000700757 0 -0.000792377 -0.000673182 0 -0.000909767 -0.00064145 0 -0.00102079 -0.000605944 0 -0.0011248 -0.000567078 0 -0.00122124 -0.000525281 0 -0.00130963 -0.000480998 0 -0.00138961 -0.000434675 0 -0.00146086 -0.000386757 0 -0.00152317 -0.000337681 0 -0.00157641 -0.000287875 0 -0.00162051 -0.000237752 0 -0.00165549 -0.000187711 0 -0.00168142 -0.000138136 0 -0.00169845 -8.93907e-05 0 -0.00170678 -4.18226e-05 0 -0.00170669 4.24217e-06 0 -0.00169849 4.84995e-05 0 -0.00168258 9.06703e-05 0 -0.00165936 0.000130503 0 -0.00162933 0.000167778 0 -0.00159299 0.000202311 0 -0.00155089 0.000233955 0 -0.0015036 0.000262605 0 -0.00145173 0.000288201 0 -0.00139585 0.000310728 0 -0.00133657 0.000330214 0 0 -0.000630455 0 -0.000133065 -0.000628271 0 -0.000265165 -0.000621749 0 -0.000395352 -0.000610974 0 -0.000522704 -0.000596088 0 -0.000646339 -0.000577284 0 -0.000765428 -0.000554798 0 -0.000879207 -0.000528904 0 -0.000986976 -0.000499911 0 -0.00108811 -0.000468149 0 -0.00118208 -0.000433966 0 -0.0012684 -0.00039772 0 -0.00134671 -0.000359775 0 -0.00141669 -0.000320495 0 -0.00147813 -0.000280237 0 -0.00153088 -0.000239353 0 -0.00157487 -0.000198185 0 -0.00161009 -0.000157061 0 -0.0016366 -0.000116298 0 -0.00165453 -7.61982e-05 0 -0.00166408 -3.70471e-05 0 -0.00166549 8.86514e-07 0 -0.00165906 3.73532e-05 0 -0.00164515 7.21244e-05 0 -0.00162415 0.000104996 0 -0.00159652 0.000135788 0 -0.00156274 0.000164352 0 -0.00152331 0.000190569 0 -0.00147877 0.000214356 0 -0.00142967 0.000235662 0 -0.00137656 0.000254475 0 -0.00132 0.000270817 0 0 -0.000499256 0 -0.000129176 -0.000497542 0 -0.000257438 -0.000492422 0 -0.000383888 -0.000483963 0 -0.00050765 -0.000472273 0 -0.000627886 -0.0004575 0 -0.000743804 -0.000439825 0 -0.000854668 -0.000419463 0 -0.000959807 -0.00039665 0 -0.00105862 -0.000371643 0 -0.00115057 -0.000344713 0 -0.0012352 -0.000316141 0 -0.00131214 -0.000286211 0 -0.00138108 -0.000255208 0 -0.0014418 -0.000223417 0 -0.00149413 -0.000191114 0 -0.001538 -0.00015857 0 -0.0015734 -0.000126047 0 -0.00160036 -9.37949e-05 0 -0.00161901 -6.2054e-05 0 -0.00162953 -3.1051e-05 0 -0.00163213 -9.98549e-07 0 -0.00162711 2.79062e-05 0 -0.00161481 5.54832e-05 0 -0.00159559 8.15715e-05 0 -0.00156988 0.000106031 0 -0.00153814 0.000128745 0 -0.00150084 0.000149621 0 -0.00145849 0.000168592 0 -0.00141161 0.000185621 0 -0.00136072 0.000200697 0 -0.00130634 0.000213837 0 0 -0.000371493 0 -0.000126202 -0.000370226 0 -0.000251529 -0.000366442 0 -0.000375118 -0.000360189 0 -0.000496131 -0.000351546 0 -0.00061376 -0.000340621 0 -0.000727242 -0.000327545 0 -0.000835867 -0.000312476 0 -0.00093898 -0.000295585 0 -0.00103599 -0.000277061 0 -0.00112639 -0.000257104 0 -0.00120971 -0.000235919 0 -0.00128559 -0.000213718 0 -0.00135371 -0.000190711 0 -0.00141386 -0.000167107 0 -0.00146586 -0.000143115 0 -0.00150963 -0.000118934 0 -0.00154515 -9.47593e-05 0 -0.00157245 -7.07784e-05 0 -0.00159164 -4.71696e-05 0 -0.00160289 -2.41017e-05 0 -0.00160641 -1.73297e-06 0 -0.00160246 1.97901e-05 0 -0.00159138 4.03341e-05 0 -0.00157352 5.978e-05 0 -0.00154928 7.80241e-05 0 -0.0015191 9.49803e-05 0 -0.00148343 0.000110581 0 -0.00144275 0.000124776 0 -0.00139756 0.000137539 0 -0.00134836 0.00014886 0 -0.00129565 0.000158752 0 0 -0.000246268 0 -0.000124104 -0.000245432 0 -0.00024736 -0.000242936 0 -0.000368931 -0.00023881 0 -0.000488002 -0.000233107 0 -0.000603789 -0.000225896 0 -0.000715549 -0.000217263 0 -0.000822587 -0.000207312 0 -0.000924264 -0.000196154 0 -0.00102 -0.000183914 0 -0.00110929 -0.000170722 0 -0.00119167 -0.000156715 0 -0.00126679 -0.00014203 0 -0.00133433 -0.000126808 0 -0.00139407 -0.000111186 0 -0.00144583 -9.53026e-05 0 -0.00148952 -7.92896e-05 0 -0.00152512 -6.32768e-05 0 -0.00155266 -4.73882e-05 0 -0.00157223 -3.17424e-05 0 -0.00158399 -1.64512e-05 0 -0.00158815 -1.61956e-06 0 -0.00158496 1.26556e-05 0 -0.00157474 2.6286e-05 0 -0.00155784 3.9193e-05 0 -0.00153463 5.13083e-05 0 -0.00150554 6.25751e-05 0 -0.00147102 7.29485e-05 0 -0.00143152 8.23965e-05 0 -0.00138753 9.09003e-05 0 -0.00133952 9.84545e-05 0 -0.00128798 0.000105067 0 0 -0.000122718 0 -0.000122856 -0.000122303 0 -0.000244879 -0.000121062 0 -0.000365249 -0.000119012 0 -0.000483164 -0.000116178 0 -0.000597854 -0.000112594 0 -0.000708587 -0.000108303 0 -0.000814679 -0.000103355 0 -0.000915498 -9.7807e-05 0 -0.00101047 -9.17195e-05 0 -0.0010991 -8.51575e-05 0 -0.00118092 -7.81883e-05 0 -0.00125559 -7.08807e-05 0 -0.00132278 -6.33041e-05 0 -0.00138226 -5.55274e-05 0 -0.00143388 -4.76187e-05 0 -0.00147752 -3.96444e-05 0 -0.00151316 -3.1669e-05 0 -0.00154084 -2.37543e-05 0 -0.00156063 -1.59593e-05 0 -0.0015727 -8.33983e-06 0 -0.00157724 -9.48183e-07 0 -0.0015745 6.1674e-06 0 -0.0015648 1.2963e-05 0 -0.00154846 1.93995e-05 0 -0.00152587 2.5443e-05 0 -0.00149743 3.10652e-05 0 -0.00146359 3.6244e-05 0 -0.00142479 4.09633e-05 0 -0.00138151 4.52139e-05 0 -0.00133421 4.89929e-05 0 -0.00128337 5.23042e-05 0 0 -0 0 -0.000122441 -6.16211e-19 0 -0.000244056 -1.01172e-18 0 -0.000364027 -0 0 -0.000481558 -3.79791e-20 0 -0.000595884 -3.58635e-18 0 -0.000706276 -2.17585e-18 0 -0.000812053 -0 0 -0.000912587 -0 0 -0.00100731 -0 0 -0.00109571 -0 0 -0.00117735 -0 0 -0.00125186 -0 0 -0.00131894 1.09872e-18 0 -0.00137834 9.7631e-18 0 -0.0014299 1.80435e-18 0 -0.00147353 -0 0 -0.00150919 -0 0 -0.00153691 2.45453e-18 0 -0.00155678 1.08736e-17 0 -0.00156894 9.35768e-19 0 -0.00157361 -0 0 -0.00157102 -0 0 -0.00156149 -0 0 -0.00154534 -0 0 -0.00152295 -0 0 -0.00149473 -0 0 -0.00146111 -0 0 -0.00142255 -0 0 -0.0013795 -0 0 -0.00133243 -0 0 -0.00128182 -0 0 </DataArray> 
</PointData> 
<Points> 
<DataArray type="Float32" NumberOfComponents="3"> 