<?xml version="1.0"?> 
<VTKFile type="StructuredGrid" version="0.1"> 
<StructuredGrid WholeExtent="0 31 0 31 0 0"> 
<Piece Extent="0 31 0 31 0 0"> 
<PointData>
<DataArray type="Float32" Name="u" format="ascii" NumberOfComponents="3"> 
0 0 0 4.15769e-05 4.80734e-05 0 7.50796e-05 6.41618e-05 0 0.000110316 7.08208e-05 0 0.000147 7.35213e-05 0 0.000185075 7.4483e-05 0 0.000223921 7.47466e-05 0 0.000263379 7.47162e-05 0 0.00030318 7.45929e-05 0 0.000343232 7.44381e-05 0 0.000383435 7.42862e-05 0 0.000423742 7.41415e-05 0 0.000464116 7.40067e-05 0 0.000504536 7.38793e-05 0 0.000544986 7.37575e-05 0 0.000585457 7.36392e-05 0 0.000625945 7.3523e-05 0 0.000666446 7.34076e-05 0 0.000706959 7.32923e-05 0 0.000747485 7.31768e-05 0 0.000788024 7.3061e-05 0 0.00082858 7.29456e-05 0 0.000869153 7.28313e-05 0 0.000909748 7.27206e-05 0 0.000950365 7.26135e-05 0 0.000991005 7.25146e-05 0 0.00103166 7.24133e-05 0 0.00107233 7.23057e-05 0 0.00111296 7.21124e-05 0 0.00115357 7.17322e-05 0 0.00119407 7.07008e-05 0 0.00123474 6.74113e-05 0 0 0 0 3.86553e-05 4.37681e-05 0 7.45764e-05 5.97792e-05 0 0.000110879 6.63857e-05 0 0.000147981 6.88711e-05 0 0.00018612 6.97279e-05 0 0.000224948 6.99031e-05 0 0.0002643 6.98152e-05 0 0.000304001 6.96551e-05 0 0.000343941 6.94736e-05 0 0.000384043 6.93053e-05 0 0.000424254 6.91484e-05 0 0.00046454 6.90059e-05 0 0.000504878 6.88728e-05 0 0.000545251 6.87471e-05 0 0.00058565 6.8626e-05 0 0.000626068 6.85076e-05 0 0.0006665 6.83905e-05 0 0.000706944 6.82737e-05 0 0.000747398 6.81568e-05 0 0.000787862 6.80397e-05 0 0.000828336 6.79229e-05 0 0.000868821 6.78071e-05 0 0.000909316 6.76949e-05 0 0.000949818 6.75867e-05 0 0.000990324 6.7487e-05 0 0.00103082 6.7387e-05 0 0.00107129 6.72823e-05 0 0.0011117 6.70987e-05 0 0.00115201 6.67294e-05 0 0.00119209 6.57222e-05 0 0.00123162 6.25914e-05 0 0 0 0 3.65656e-05 3.93659e-05 0 7.39178e-05 5.53584e-05 0 0.000111028 6.1818e-05 0 0.000148654 6.42085e-05 0 0.000186937 6.49566e-05 0 0.000225805 6.50642e-05 0 0.00026511 6.49235e-05 0 0.000304738 6.47274e-05 0 0.000344593 6.45214e-05 0 0.000384608 6.43353e-05 0 0.000424735 6.41666e-05 0 0.000464941 6.40152e-05 0 0.000505203 6.38762e-05 0 0.000545504 6.37461e-05 0 0.000585834 6.36218e-05 0 0.000626184 6.35011e-05 0 0.000666549 6.33823e-05 0 0.000706926 6.32642e-05 0 0.00074731 6.31463e-05 0 0.000787701 6.30285e-05 0 0.000828096 6.29111e-05 0 0.000868494 6.27951e-05 0 0.00090889 6.26829e-05 0 0.000949281 6.25757e-05 0 0.000989657 6.24775e-05 0 0.00103 6.23827e-05 0 0.0010703 6.22836e-05 0 0.00111049 6.21184e-05 0 0.00115052 6.17656e-05 0 0.00119024 6.08127e-05 0 0.00122944 5.79334e-05 0 0 0 0 3.53269e-05 3.52631e-05 0 7.31811e-05 5.08718e-05 0 0.000110973 5.71904e-05 0 0.000149059 5.94975e-05 0 0.000187561 6.01696e-05 0 0.000226506 6.02176e-05 0 0.00026581 6.0035e-05 0 0.000305393 5.98059e-05 0 0.000345185 5.95776e-05 0 0.000385129 5.93745e-05 0 0.000425183 5.9194e-05 0 0.000465317 5.90339e-05 0 0.000505509 5.88885e-05 0 0.000545743 5.87539e-05 0 0.000586007 5.86262e-05 0 0.000626293 5.85031e-05 0 0.000666595 5.83827e-05 0 0.000706906 5.82636e-05 0 0.000747224 5.81451e-05 0 0.000787544 5.80272e-05 0 0.000827862 5.79102e-05 0 0.000868175 5.77951e-05 0 0.000908477 5.76844e-05 0 0.000948759 5.75798e-05 0 0.000989012 5.74857e-05 0 0.00102921 5.7398e-05 0 0.00106934 5.73092e-05 0 0.00110934 5.7164e-05 0 0.00114914 5.68376e-05 0 0.00118863 5.59376e-05 0 0.00122764 5.33162e-05 0 0 0 0 3.4596e-05 3.1486e-05 0 7.25221e-05 4.63948e-05 0 0.000110795 5.25198e-05 0 0.000149276 5.47429e-05 0 0.000188017 5.5358e-05 0 0.000227071 5.53587e-05 0 0.000266405 5.51433e-05 0 0.00030597 5.48868e-05 0 0.000345719 5.46392e-05 0 0.000385605 5.44208e-05 0 0.000425597 5.42293e-05 0 0.000465667 5.40608e-05 0 0.000505795 5.39091e-05 0 0.000545967 5.37698e-05 0 0.00058617 5.36388e-05 0 0.000626396 5.35133e-05 0 0.000666637 5.33913e-05 0 0.000706887 5.32715e-05 0 0.00074714 5.31529e-05 0 0.000787392 5.30355e-05 0 0.000827637 5.29197e-05 0 0.000867868 5.28065e-05 0 0.000908079 5.26987e-05 0 0.00094826 5.25983e-05 0 0.000988396 5.251e-05 0 0.00102847 5.24313e-05 0 0.00106844 5.23552e-05 0 0.00110827 5.2231e-05 0 0.0011479 5.19346e-05 0 0.00118723 5.10845e-05 0 0.00122614 4.8712e-05 0 0 0 0 3.41473e-05 2.79913e-05 0 7.19863e-05 4.19756e-05 0 0.000110559 4.78254e-05 0 0.000149366 4.99526e-05 0 0.000188337 5.05186e-05 0 0.000227519 5.04845e-05 0 0.000266904 5.02444e-05 0 0.000306472 4.99669e-05 0 0.000346193 4.97035e-05 0 0.000386036 4.94723e-05 0 0.000425976 4.92709e-05 0 0.00046599 4.90947e-05 0 0.000506061 4.89371e-05 0 0.000546175 4.87933e-05 0 0.000586322 4.8659e-05 0 0.000626491 4.85312e-05 0 0.000666675 4.84079e-05 0 0.000706867 4.82876e-05 0 0.00074706 4.81694e-05 0 0.000787247 4.80531e-05 0 0.000827422 4.79392e-05 0 0.000867576 4.7829e-05 0 0.000907702 4.77251e-05 0 0.000947786 4.76302e-05 0 0.000987815 4.7549e-05 0 0.00102777 4.74805e-05 0 0.00106761 4.74181e-05 0 0.0011073 4.73149e-05 0 0.00114679 4.70477e-05 0 0.00118602 4.62495e-05 0 0.00122485 4.41168e-05 0 0 0 0 3.38606e-05 2.47324e-05 0 7.15631e-05 3.76332e-05 0 0.000110313 4.31262e-05 0 0.000149373 4.5134e-05 0 0.000188553 4.56527e-05 0 0.000227867 4.55926e-05 0 0.000267317 4.53356e-05 0 0.000306903 4.50435e-05 0 0.000346611 4.47685e-05 0 0.000386422 4.45272e-05 0 0.000426318 4.43176e-05 0 0.000466284 4.41346e-05 0 0.000506304 4.39716e-05 0 0.000546367 4.38236e-05 0 0.000586462 4.36862e-05 0 0.000626579 4.35563e-05 0 0.00066671 4.34319e-05 0 0.000706848 4.33113e-05 0 0.000746984 4.31939e-05 0 0.00078711 4.30793e-05 0 0.00082722 4.29682e-05 0 0.000867303 4.28618e-05 0 0.000907348 4.27628e-05 0 0.000947345 4.26743e-05 0 0.000987275 4.26011e-05 0 0.00102712 4.25433e-05 0 0.00106685 4.24945e-05 0 0.00110643 4.24109e-05 0 0.00114582 4.21717e-05 0 0.00118497 4.14309e-05 0 0.00122374 3.95288e-05 0 0 0 0 3.36704e-05 2.16678e-05 0 7.12314e-05 3.33724e-05 0 0.000110081 3.8435e-05 0 0.00014933 4.02952e-05 0 0.000188692 4.07631e-05 0 0.000228132 4.06827e-05 0 0.000267654 4.04156e-05 0 0.000307269 4.0115e-05 0 0.000346974 3.98326e-05 0 0.000386763 3.95841e-05 0 0.000426625 3.93681e-05 0 0.00046655 3.91795e-05 0 0.000506525 3.90118e-05 0 0.000546542 3.886e-05 0 0.000586589 3.87197e-05 0 0.000626659 3.8588e-05 0 0.000666742 3.84627e-05 0 0.00070683 3.83423e-05 0 0.000746913 3.82261e-05 0 0.000786984 3.81138e-05 0 0.000827033 3.8006e-05 0 0.00086705 3.79041e-05 0 0.000907023 3.78108e-05 0 0.000946939 3.77294e-05 0 0.000986781 3.76646e-05 0 0.00102653 3.76174e-05 0 0.00106617 3.75814e-05 0 0.00110566 3.75157e-05 0 0.00114497 3.73038e-05 0 0.00118407 3.66272e-05 0 0.00122279 3.49487e-05 0 0 0 0 3.35405e-05 1.87633e-05 0 7.0971e-05 2.91897e-05 0 0.000109873 3.37592e-05 0 0.000149262 3.54428e-05 0 0.000188774 3.58534e-05 0 0.000228331 3.57556e-05 0 0.000267927 3.54839e-05 0 0.000307575 3.518e-05 0 0.000347286 3.48944e-05 0 0.000387061 3.46418e-05 0 0.000426896 3.44215e-05 0 0.000466786 3.42285e-05 0 0.000506723 3.40569e-05 0 0.000546699 3.39018e-05 0 0.000586705 3.3759e-05 0 0.000626732 3.36257e-05 0 0.000666771 3.34998e-05 0 0.000706813 3.33799e-05 0 0.00074685 3.32653e-05 0 0.00078687 3.31557e-05 0 0.000826864 3.30518e-05 0 0.000866821 3.2955e-05 0 0.000906728 3.2868e-05 0 0.000946572 3.27941e-05 0 0.000986338 3.27378e-05 0 0.00102601 3.27006e-05 0 0.00106556 3.26762e-05 0 0.00110499 3.26267e-05 0 0.00114425 3.24421e-05 0 0.0011833 3.18367e-05 0 0.00122198 3.0376e-05 0 0 0 0 3.34497e-05 1.59901e-05 0 7.07662e-05 2.50786e-05 0 0.000109693 2.91022e-05 0 0.000149185 3.05823e-05 0 0.000188819 3.09272e-05 0 0.000228478 3.08131e-05 0 0.000268143 3.05407e-05 0 0.000307829 3.02383e-05 0 0.00034755 2.99532e-05 0 0.000387317 2.96995e-05 0 0.000427132 2.94768e-05 0 0.000466994 2.92808e-05 0 0.000506898 2.91062e-05 0 0.000546839 2.89483e-05 0 0.000586808 2.88034e-05 0 0.000626797 2.86688e-05 0 0.000666797 2.85425e-05 0 0.0007068 2.84234e-05 0 0.000746793 2.83107e-05 0 0.000786769 2.82044e-05 0 0.000826714 2.81049e-05 0 0.000866617 2.80137e-05 0 0.000906467 2.79333e-05 0 0.000946248 2.78671e-05 0 0.000985948 2.78192e-05 0 0.00102555 2.77912e-05 0 0.00106504 2.7777e-05 0 0.00110441 2.77419e-05 0 0.00114363 2.75856e-05 0 0.00118265 2.70579e-05 0 0.0012213 2.58106e-05 0 0 0 0 3.33854e-05 1.3324e-05 0 7.06057e-05 2.10308e-05 0 0.000109541 2.44646e-05 0 0.000149108 2.57174e-05 0 0.00018884 2.59878e-05 0 0.000228585 2.5857e-05 0 0.000268313 2.55868e-05 0 0.000308035 2.52897e-05 0 0.00034777 2.50087e-05 0 0.000387533 2.47564e-05 0 0.000427333 2.45333e-05 0 0.000467172 2.43357e-05 0 0.000507049 2.41589e-05 0 0.00054696 2.39988e-05 0 0.000586898 2.38521e-05 0 0.000626855 2.37165e-05 0 0.000666822 2.35902e-05 0 0.000706789 2.34721e-05 0 0.000746746 2.33617e-05 0 0.000786682 2.3259e-05 0 0.000826585 2.31643e-05 0 0.000866442 2.30792e-05 0 0.000906241 2.30057e-05 0 0.000945969 2.29472e-05 0 0.000985614 2.29072e-05 0 0.00102516 2.28874e-05 0 0.0010646 2.28821e-05 0 0.00110393 2.28603e-05 0 0.00114311 2.27334e-05 0 0.00118211 2.2289e-05 0 0.00122073 2.12517e-05 0 0 0 0 3.33396e-05 1.07437e-05 0 7.04813e-05 1.70368e-05 0 0.000109417 1.98453e-05 0 0.000149038 2.08508e-05 0 0.000188845 2.10384e-05 0 0.000228662 2.08897e-05 0 0.000268443 2.06235e-05 0 0.000308199 2.03349e-05 0 0.000347948 2.00606e-05 0 0.000387711 1.98123e-05 0 0.0004275 1.95906e-05 0 0.000467321 1.93926e-05 0 0.000507176 1.92144e-05 0 0.000547063 1.90526e-05 0 0.000586975 1.89045e-05 0 0.000626904 1.87682e-05 0 0.000666843 1.8642e-05 0 0.000706781 1.85253e-05 0 0.000746708 1.84175e-05 0 0.00078661 1.83186e-05 0 0.000826478 1.82292e-05 0 0.000866296 1.81503e-05 0 0.000906054 1.8084e-05 0 0.000945738 1.8033e-05 0 0.000985337 1.80006e-05 0 0.00102484 1.79881e-05 0 0.00106424 1.79903e-05 0 0.00110354 1.79808e-05 0 0.0011427 1.78849e-05 0 0.00118167 1.75284e-05 0 0.00122028 1.66983e-05 0 0 0 0 3.33075e-05 8.23082e-06 0 7.03875e-05 1.30872e-05 0 0.00010932 1.52421e-05 0 0.000148979 1.59837e-05 0 0.000188843 1.60814e-05 0 0.000228715 1.59133e-05 0 0.000268541 1.56524e-05 0 0.000308325 1.53744e-05 0 0.000348088 1.51094e-05 0 0.000387852 1.48671e-05 0 0.000427634 1.46483e-05 0 0.000467442 1.44509e-05 0 0.00050728 1.42721e-05 0 0.000547147 1.41091e-05 0 0.000587038 1.396e-05 0 0.000626947 1.38231e-05 0 0.000666863 1.36974e-05 0 0.000706778 1.35822e-05 0 0.000746679 1.34772e-05 0 0.000786556 1.33825e-05 0 0.000826394 1.32985e-05 0 0.000866182 1.32261e-05 0 0.000905906 1.3167e-05 0 0.000945555 1.31234e-05 0 0.000985119 1.30981e-05 0 0.00102459 1.30919e-05 0 0.00106396 1.31006e-05 0 0.00110323 1.3103e-05 0 0.00114238 1.30394e-05 0 0.00118133 1.27744e-05 0 0.00121993 1.21496e-05 0 0 0 0 3.32857e-05 5.76851e-06 0 7.03203e-05 9.17223e-06 0 0.000109249 1.06518e-05 0 0.000148933 1.1117e-05 0 0.000188839 1.11191e-05 0 0.000228752 1.09299e-05 0 0.000268611 1.0675e-05 0 0.000308417 1.04094e-05 0 0.000348192 1.01555e-05 0 0.000387958 9.92067e-06 0 0.000427735 9.70603e-06 0 0.000467534 9.51022e-06 0 0.00050736 9.33134e-06 0 0.000547213 9.16762e-06 0 0.000587089 9.01767e-06 0 0.000626981 8.88049e-06 0 0.000666881 8.75538e-06 0 0.000706778 8.64194e-06 0 0.000746661 8.53999e-06 0 0.000786518 8.44962e-06 0 0.000826335 8.37119e-06 0 0.0008661 8.30543e-06 0 0.0009058 8.2536e-06 0 0.000945423 8.21734e-06 0 0.000984961 8.19855e-06 0 0.00102441 8.19799e-06 0 0.00106376 8.21239e-06 0 0.00110301 8.2262e-06 0 0.00114214 8.19615e-06 0 0.00118109 8.02553e-06 0 0.00121967 7.60445e-06 0 0 0 0 3.32723e-05 3.34144e-06 0 7.02772e-05 5.2819e-06 0 0.000109202 6.0711e-06 0 0.000148903 6.25092e-06 0 0.000188835 6.15301e-06 0 0.000228775 5.94168e-06 0 0.000268657 5.69305e-06 0 0.000308479 5.44094e-06 0 0.000348261 5.19939e-06 0 0.00038803 4.97332e-06 0 0.000427805 4.76374e-06 0 0.000467598 4.57015e-06 0 0.000507416 4.39169e-06 0 0.00054726 4.22751e-06 0 0.000587126 4.07698e-06 0 0.000627008 3.93965e-06 0 0.000666897 3.81526e-06 0 0.000706783 3.70368e-06 0 0.000746654 3.60489e-06 0 0.000786498 3.51902e-06 0 0.000826301 3.44634e-06 0 0.000866051 3.38732e-06 0 0.000905735 3.34274e-06 0 0.000945341 3.31361e-06 0 0.000984862 3.30107e-06 0 0.00102429 3.30556e-06 0 0.00106363 3.32505e-06 0 0.00110287 3.35008e-06 0 0.001142 3.35448e-06 0 0.00118094 3.28023e-06 0 0.00121952 3.06191e-06 0 0 0 0 3.32662e-05 9.35121e-07 0 7.02565e-05 1.40636e-06 0 0.000109179 1.49617e-06 0 0.000148889 1.38525e-06 0 0.000188833 1.18484e-06 0 0.000228788 9.505e-07 0 0.000268681 7.08358e-07 0 0.000308511 4.70397e-07 0 0.000348298 2.41962e-07 0 0.000388069 2.53082e-08 0 0.000427843 -1.78668e-07 0 0.000467633 -3.6962e-07 0 0.000507448 -5.47386e-07 0 0.000547288 -7.11835e-07 0 0.00058715 -8.62827e-07 0 0.000627028 -1.0002e-06 0 0.000666912 -1.1238e-06 0 0.000706793 -1.23344e-06 0 0.000746658 -1.32899e-06 0 0.000786496 -1.41027e-06 0 0.000826293 -1.47713e-06 0 0.000866036 -1.52935e-06 0 0.000905712 -1.56668e-06 0 0.000945311 -1.58878e-06 0 0.000984824 -1.5953e-06 0 0.00102425 -1.58609e-06 0 0.00106358 -1.56186e-06 0 0.00110282 -1.52571e-06 0 0.00114194 -1.4863e-06 0 0.00118087 -1.463e-06 0 0.00121945 -1.47911e-06 0 0 0 0 3.32667e-05 -1.46439e-06 0 7.02576e-05 -2.46432e-06 0 0.000109181 -3.07686e-06 0 0.000148891 -3.48032e-06 0 0.000188836 -3.78408e-06 0 0.000228791 -4.0417e-06 0 0.000268685 -4.27732e-06 0 0.000308515 -4.50093e-06 0 0.000348303 -4.716e-06 0 0.000388075 -4.92301e-06 0 0.000427849 -5.1212e-06 0 0.000467641 -5.30939e-06 0 0.000507457 -5.48637e-06 0 0.000547298 -5.65103e-06 0 0.000587161 -5.80244e-06 0 0.000627039 -5.93984e-06 0 0.000666925 -6.06261e-06 0 0.000706807 -6.17029e-06 0 0.000746674 -6.26257e-06 0 0.000786513 -6.33924e-06 0 0.000826311 -6.40024e-06 0 0.000866055 -6.44567e-06 0 0.000905732 -6.47575e-06 0 0.000945332 -6.49085e-06 0 0.000984847 -6.49141e-06 0 0.00102427 -6.47761e-06 0 0.00106361 -6.44875e-06 0 0.00110285 -6.40153e-06 0 0.00114197 -6.3269e-06 0 0.0011809 -6.20567e-06 0 0.00121948 -6.01964e-06 0 0 0 0 3.32738e-05 -3.87089e-06 0 7.02803e-05 -6.34005e-06 0 0.000109206 -7.65195e-06 0 0.000148909 -8.34616e-06 0 0.000188842 -8.75242e-06 0 0.000228784 -9.03305e-06 0 0.000268668 -9.26219e-06 0 0.000308491 -9.47168e-06 0 0.000348276 -9.67366e-06 0 0.000388047 -9.87127e-06 0 0.000427824 -1.00639e-05 0 0.00046762 -1.02494e-05 0 0.000507442 -1.04257e-05 0 0.000547289 -1.05907e-05 0 0.000587158 -1.07426e-05 0 0.000627043 -1.088e-05 0 0.000666936 -1.1002e-05 0 0.000706825 -1.11078e-05 0 0.0007467 -1.11968e-05 0 0.000786547 -1.12689e-05 0 0.000826354 -1.13241e-05 0 0.000866108 -1.13627e-05 0 0.000905795 -1.13855e-05 0 0.000945406 -1.13936e-05 0 0.00098493 -1.13881e-05 0 0.00102436 -1.13696e-05 0 0.00106371 -1.1336e-05 0 0.00110295 -1.12777e-05 0 0.00114208 -1.1168e-05 0 0.00118102 -1.09492e-05 0 0.0012196 -1.05607e-05 0 0 0 0 3.32882e-05 -6.29832e-06 0 7.03254e-05 -1.02307e-05 0 0.000109256 -1.2233e-05 0 0.000148943 -1.32126e-05 0 0.000188851 -1.37188e-05 0 0.000228767 -1.40216e-05 0 0.000268629 -1.42445e-05 0 0.000308438 -1.44405e-05 0 0.000348216 -1.46302e-05 0 0.000387987 -1.48191e-05 0 0.000427768 -1.50067e-05 0 0.000467572 -1.51901e-05 0 0.000507402 -1.5366e-05 0 0.000547261 -1.55314e-05 0 0.000587142 -1.56839e-05 0 0.00062704 -1.58215e-05 0 0.000666946 -1.59428e-05 0 0.000706849 -1.60467e-05 0 0.000746738 -1.61326e-05 0 0.0007866 -1.62002e-05 0 0.000826424 -1.62496e-05 0 0.000866195 -1.62815e-05 0 0.000905901 -1.62971e-05 0 0.00094553 -1.6298e-05 0 0.000985074 -1.62863e-05 0 0.00102453 -1.62627e-05 0 0.00106388 -1.6224e-05 0 0.00110314 -1.61545e-05 0 0.00114228 -1.60104e-05 0 0.00118123 -1.56952e-05 0 0.00121982 -1.51034e-05 0 0 0 0 3.33109e-05 -8.76115e-06 0 7.03944e-05 -1.41463e-05 0 0.00010933 -1.68237e-05 0 0.000148992 -1.80797e-05 0 0.00018886 -1.86816e-05 0 0.000228736 -1.90055e-05 0 0.000268566 -1.92225e-05 0 0.000308354 -1.94062e-05 0 0.000348122 -1.95848e-05 0 0.000387892 -1.97662e-05 0 0.00042768 -1.99497e-05 0 0.000467494 -2.01316e-05 0 0.000507339 -2.03076e-05 0 0.000547214 -2.04738e-05 0 0.000587113 -2.06271e-05 0 0.000627029 -2.07651e-05 0 0.000666953 -2.08858e-05 0 0.000706876 -2.0988e-05 0 0.000746786 -2.10709e-05 0 0.000786671 -2.11341e-05 0 0.000826518 -2.1178e-05 0 0.000866315 -2.12032e-05 0 0.000906048 -2.12115e-05 0 0.000945705 -2.12052e-05 0 0.000985278 -2.11868e-05 0 0.00102476 -2.11576e-05 0 0.00106414 -2.11133e-05 0 0.00110341 -2.10323e-05 0 0.00114257 -2.08548e-05 0 0.00118153 -2.0445e-05 0 0.00122013 -1.96488e-05 0 0 0 0 3.33439e-05 -1.12748e-05 0 7.04899e-05 -1.80966e-05 0 0.00010943 -2.14276e-05 0 0.000149054 -2.29474e-05 0 0.000188866 -2.36392e-05 0 0.000228687 -2.39826e-05 0 0.000268474 -2.41944e-05 0 0.000308235 -2.43675e-05 0 0.000347991 -2.45369e-05 0 0.000387762 -2.47125e-05 0 0.000427558 -2.48931e-05 0 0.000467388 -2.50744e-05 0 0.000507252 -2.52511e-05 0 0.000547148 -2.54186e-05 0 0.00058707 -2.5573e-05 0 0.00062701 -2.57115e-05 0 0.000666959 -2.58318e-05 0 0.000706908 -2.59325e-05 0 0.000746845 -2.60126e-05 0 0.000786759 -2.60717e-05 0 0.000826637 -2.61101e-05 0 0.000866467 -2.61289e-05 0 0.000906236 -2.613e-05 0 0.000945931 -2.61162e-05 0 0.000985541 -2.60908e-05 0 0.00102506 -2.60552e-05 0 0.00106447 -2.60043e-05 0 0.00110377 -2.59115e-05 0 0.00114294 -2.57017e-05 0 0.00118192 -2.52003e-05 0 0.00122054 -2.41978e-05 0 0 0 0 3.33904e-05 -1.38558e-05 0 7.06156e-05 -2.20913e-05 0 0.000109556 -2.60477e-05 0 0.000149127 -2.78148e-05 0 0.000188864 -2.85894e-05 0 0.000228615 -2.89508e-05 0 0.00026835 -2.91586e-05 0 0.000308079 -2.93234e-05 0 0.000347822 -2.94861e-05 0 0.000387594 -2.96578e-05 0 0.000427404 -2.98372e-05 0 0.000467253 -3.00189e-05 0 0.000507141 -3.01971e-05 0 0.000547064 -3.03663e-05 0 0.000587014 -3.05222e-05 0 0.000626983 -3.06615e-05 0 0.000666963 -3.07817e-05 0 0.000706943 -3.08811e-05 0 0.000746913 -3.09586e-05 0 0.000786863 -3.10138e-05 0 0.000826779 -3.10471e-05 0 0.00086665 -3.10596e-05 0 0.000906463 -3.10535e-05 0 0.000946205 -3.10321e-05 0 0.000985863 -3.09992e-05 0 0.00102542 -3.09563e-05 0 0.00106488 -3.08978e-05 0 0.00110422 -3.07927e-05 0 0.00114342 -3.0552e-05 0 0.00118242 -2.99626e-05 0 0.00122106 -2.87515e-05 0 0 0 0 3.34553e-05 -1.6523e-05 0 7.07773e-05 -2.61402e-05 0 0.000109709 -3.06861e-05 0 0.000149206 -3.26805e-05 0 0.000188847 -3.35297e-05 0 0.000228513 -3.39078e-05 0 0.000268185 -3.41136e-05 0 0.00030788 -3.42732e-05 0 0.000347611 -3.4432e-05 0 0.000387388 -3.46023e-05 0 0.000427215 -3.47822e-05 0 0.000467089 -3.49657e-05 0 0.000507007 -3.51462e-05 0 0.000546961 -3.53176e-05 0 0.000586944 -3.54754e-05 0 0.000626948 -3.56158e-05 0 0.000666964 -3.57361e-05 0 0.000706981 -3.58344e-05 0 0.000746991 -3.59097e-05 0 0.000786982 -3.59614e-05 0 0.000826944 -3.59898e-05 0 0.000866863 -3.59963e-05 0 0.000906729 -3.59833e-05 0 0.000946527 -3.59542e-05 0 0.000986243 -3.59132e-05 0 0.00102586 -3.58621e-05 0 0.00106537 -3.57948e-05 0 0.00110475 -3.56764e-05 0 0.00114398 -3.54063e-05 0 0.00118302 -3.47335e-05 0 0.00122168 -3.3311e-05 0 0 0 0 3.35464e-05 -1.92972e-05 0 7.09827e-05 -3.02523e-05 0 0.00010989 -3.53441e-05 0 0.000149286 -3.7542e-05 0 0.000188805 -3.8457e-05 0 0.000228369 -3.88516e-05 0 0.000267974 -3.90581e-05 0 0.000307633 -3.92164e-05 0 0.000347355 -3.93748e-05 0 0.000387142 -3.95465e-05 0 0.000426991 -3.97288e-05 0 0.000466895 -3.99154e-05 0 0.000506848 -4.0099e-05 0 0.000546839 -4.02733e-05 0 0.000586862 -4.04333e-05 0 0.000626906 -4.05751e-05 0 0.000666962 -4.06958e-05 0 0.000707023 -4.07934e-05 0 0.000747077 -4.08667e-05 0 0.000787116 -4.09152e-05 0 0.000827129 -4.09393e-05 0 0.000867104 -4.09402e-05 0 0.000907031 -4.09205e-05 0 0.000946894 -4.08837e-05 0 0.000986678 -4.08343e-05 0 0.00102637 -4.0774e-05 0 0.00106594 -4.06964e-05 0 0.00110538 -4.05636e-05 0 0.00114466 -4.02653e-05 0 0.00118373 -3.95148e-05 0 0.00122243 -3.7877e-05 0 0 0 0 3.36764e-05 -2.22028e-05 0 7.12434e-05 -3.4436e-05 0 0.000110099 -4.00209e-05 0 0.000149355 -4.23954e-05 0 0.000188724 -4.3368e-05 0 0.000228173 -4.378e-05 0 0.000267706 -4.39914e-05 0 0.000307332 -4.4153e-05 0 0.00034705 -4.43149e-05 0 0.000386853 -4.44908e-05 0 0.000426731 -4.46776e-05 0 0.000466672 -4.48687e-05 0 0.000506665 -4.50563e-05 0 0.0005467 -4.52341e-05 0 0.000586766 -4.53966e-05 0 0.000626855 -4.55401e-05 0 0.000666958 -4.56614e-05 0 0.000707066 -4.57586e-05 0 0.000747171 -4.58304e-05 0 0.000787263 -4.58762e-05 0 0.000827333 -4.58963e-05 0 0.000867371 -4.58921e-05 0 0.000907366 -4.58662e-05 0 0.000947303 -4.58219e-05 0 0.000987167 -4.5764e-05 0 0.00102694 -4.56936e-05 0 0.00106659 -4.56044e-05 0 0.00110611 -4.54555e-05 0 0.00114544 -4.51299e-05 0 0.00118456 -4.4308e-05 0 0.0012233 -4.24504e-05 0 0 0 0 3.38663e-05 -2.52686e-05 0 7.15746e-05 -3.8698e-05 0 0.000110331 -4.47133e-05 0 0.000149397 -4.72354e-05 0 0.000188587 -4.82589e-05 0 0.00022791 -4.86914e-05 0 0.000267372 -4.89131e-05 0 0.000306971 -4.90835e-05 0 0.000346693 -4.9253e-05 0 0.000386521 -4.94362e-05 0 0.000426435 -4.96295e-05 0 0.000466419 -4.98264e-05 0 0.000506459 -5.00189e-05 0 0.000546542 -5.02005e-05 0 0.000586658 -5.0366e-05 0 0.000626797 -5.05114e-05 0 0.000666951 -5.06337e-05 0 0.000707112 -5.07308e-05 0 0.000747271 -5.08015e-05 0 0.000787422 -5.0845e-05 0 0.000827555 -5.08618e-05 0 0.000867662 -5.08531e-05 0 0.000907732 -5.08215e-05 0 0.000947752 -5.07701e-05 0 0.000987707 -5.07038e-05 0 0.00102757 -5.06227e-05 0 0.00106733 -5.05206e-05 0 0.00110693 -5.03539e-05 0 0.00114634 -5.00011e-05 0 0.00118552 -4.9115e-05 0 0.00122431 -4.70314e-05 0 0 0 0 3.41523e-05 -2.85287e-05 0 7.19965e-05 -4.30413e-05 0 0.000110575 -4.94136e-05 0 0.00014939 -5.20553e-05 0 0.000188371 -5.31262e-05 0 0.000227563 -5.3585e-05 0 0.000266961 -5.38238e-05 0 0.000306544 -5.4009e-05 0 0.000346282 -5.41903e-05 0 0.000386143 -5.43839e-05 0 0.000426102 -5.45856e-05 0 0.000466137 -5.47894e-05 0 0.00050623 -5.49874e-05 0 0.000546367 -5.51735e-05 0 0.000586537 -5.53422e-05 0 0.000626731 -5.54898e-05 0 0.00066694 -5.56133e-05 0 0.000707158 -5.57106e-05 0 0.000747377 -5.57805e-05 0 0.00078759 -5.58224e-05 0 0.000827792 -5.58365e-05 0 0.000867973 -5.5824e-05 0 0.000908126 -5.57875e-05 0 0.000948237 -5.57297e-05 0 0.000988292 -5.56554e-05 0 0.00102827 -5.55636e-05 0 0.00106814 -5.54479e-05 0 0.00110786 -5.52614e-05 0 0.00114737 -5.48807e-05 0 0.00118663 -5.39373e-05 0 0.00122548 -5.16205e-05 0 0 0 0 3.45996e-05 -3.20244e-05 0 7.253e-05 -4.74615e-05 0 0.000110808 -5.41092e-05 0 0.000149298 -5.68468e-05 0 0.000188049 -5.79673e-05 0 0.000227116 -5.84611e-05 0 0.000266464 -5.87249e-05 0 0.000306046 -5.89313e-05 0 0.000345812 -5.91286e-05 0 0.000385719 -5.93352e-05 0 0.000425733 -5.9547e-05 0 0.000465826 -5.97588e-05 0 0.000505978 -5.99629e-05 0 0.000546175 -6.01536e-05 0 0.000586404 -6.03257e-05 0 0.000626657 -6.04757e-05 0 0.000666926 -6.06006e-05 0 0.000707205 -6.06985e-05 0 0.000747487 -6.07681e-05 0 0.000787768 -6.08089e-05 0 0.000828042 -6.0821e-05 0 0.000868303 -6.08056e-05 0 0.000908543 -6.07651e-05 0 0.000948753 -6.07018e-05 0 0.000988919 -6.06204e-05 0 0.00102902 -6.05185e-05 0 0.00106902 -6.0389e-05 0 0.00110888 -6.01816e-05 0 0.00114854 -5.97716e-05 0 0.0011879 -5.87763e-05 0 0.00122683 -5.62171e-05 0 0 0 0 3.53282e-05 -3.58024e-05 0 7.31855e-05 -5.19393e-05 0 0.000110983 -5.87809e-05 0 0.000149078 -6.16028e-05 0 0.00018759 -6.27806e-05 0 0.000226549 -6.3322e-05 0 0.000265869 -6.36189e-05 0 0.000305471 -6.38531e-05 0 0.000345283 -6.407e-05 0 0.000385249 -6.42921e-05 0 0.000425327 -6.45151e-05 0 0.000465486 -6.47355e-05 0 0.000505705 -6.49461e-05 0 0.000545967 -6.51415e-05 0 0.00058626 -6.53172e-05 0 0.000626576 -6.54696e-05 0 0.000666908 -6.55962e-05 0 0.000707251 -6.56949e-05 0 0.0007476 -6.57647e-05 0 0.000787952 -6.5805e-05 0 0.000828302 -6.5816e-05 0 0.000868647 -6.57986e-05 0 0.000908981 -6.57553e-05 0 0.000949296 -6.56878e-05 0 0.000989581 -6.56005e-05 0 0.00102982 -6.54896e-05 0 0.00106997 -6.53474e-05 0 0.00111 -6.51191e-05 0 0.00114984 -6.46791e-05 0 0.00118936 -6.3634e-05 0 0.0012284 -6.08231e-05 0 0 0 0 3.65634e-05 -3.99057e-05 0 7.39171e-05 -5.64264e-05 0 0.000111032 -6.34098e-05 0 0.000148668 -6.63153e-05 0 0.000186963 -6.75696e-05 0 0.000225846 -6.81709e-05 0 0.000265169 -6.85101e-05 0 0.000304816 -6.87775e-05 0 0.000344694 -6.9017e-05 0 0.000384733 -6.92563e-05 0 0.000424886 -6.94914e-05 0 0.00046512 -6.97208e-05 0 0.000505411 -6.99378e-05 0 0.000545743 -7.01381e-05 0 0.000586104 -7.03172e-05 0 0.000626487 -7.04722e-05 0 0.000666886 -7.06004e-05 0 0.000707296 -7.07003e-05 0 0.000747716 -7.07707e-05 0 0.000788141 -7.08111e-05 0 0.000828571 -7.08218e-05 0 0.000869004 -7.08035e-05 0 0.000909435 -7.07586e-05 0 0.00094986 -7.06885e-05 0 0.000990272 -7.05972e-05 0 0.00103065 -7.04792e-05 0 0.00107098 -7.03268e-05 0 0.00111121 -7.00785e-05 0 0.00115128 -6.96121e-05 0 0.00119104 -6.85142e-05 0 0.00123027 -6.54428e-05 0 0 0 0 3.86474e-05 -4.43081e-05 0 7.45688e-05 -6.08477e-05 0 0.000110876 -6.79787e-05 0 0.000147989 -7.09794e-05 0 0.000186141 -7.2343e-05 0 0.000224985 -7.30122e-05 0 0.000264357 -7.34047e-05 0 0.00030408 -7.37083e-05 0 0.000344044 -7.39727e-05 0 0.000384172 -7.42301e-05 0 0.000424412 -7.44774e-05 0 0.000464728 -7.47157e-05 0 0.000505098 -7.49389e-05 0 0.000545505 -7.51438e-05 0 0.000585938 -7.53263e-05 0 0.000626391 -7.54837e-05 0 0.00066686 -7.56137e-05 0 0.00070734 -7.5715e-05 0 0.000747832 -7.57864e-05 0 0.000788334 -7.58275e-05 0 0.000828846 -7.58388e-05 0 0.000869368 -7.58207e-05 0 0.000909901 -7.57758e-05 0 0.000950441 -7.57047e-05 0 0.000990985 -7.56119e-05 0 0.00103152 -7.54887e-05 0 0.00107203 -7.53307e-05 0 0.00111248 -7.50643e-05 0 0.00115282 -7.45816e-05 0 0.00119295 -7.34296e-05 0 0.00123252 -7.01046e-05 0 0 0 0 4.156e-05 -4.86131e-05 0 7.50635e-05 -6.52306e-05 0 0.000110305 -7.24151e-05 0 0.000147 -7.56314e-05 0 0.000185089 -7.71003e-05 0 0.000223954 -7.78584e-05 0 0.000263433 -7.83088e-05 0 0.000303258 -7.86496e-05 0 0.000343336 -7.8941e-05 0 0.000383567 -7.92152e-05 0 0.000423906 -7.94748e-05 0 0.000464313 -7.97212e-05 0 0.000504767 -7.99503e-05 0 0.000545253 -8.01593e-05 0 0.000585762 -8.03448e-05 0 0.000626289 -8.05045e-05 0 0.000666829 -8.06364e-05 0 0.000707382 -8.07391e-05 0 0.000747948 -8.08119e-05 0 0.000788528 -8.08545e-05 0 0.000829124 -8.08671e-05 0 0.000869738 -8.08506e-05 0 0.000910374 -8.08071e-05 0 0.000951031 -8.07372e-05 0 0.000991712 -8.06451e-05 0 0.00103241 -8.05206e-05 0 0.00107311 -8.03598e-05 0 0.00111378 -8.00838e-05 0 0.00115444 -7.95905e-05 0 0.00119499 -7.8415e-05 0 0.00123572 -7.49308e-05 0 </DataArray> 
</PointData> 
<Points> 
<DataArray type="Float32" NumberOfComponents="3"> 