<?xml version="1.0"?> 
<VTKFile type="StructuredGrid" version="0.1"> 
<StructuredGrid WholeExtent="0 31 0 31 0 0"> 
<Piece Extent="0 31 0 31 0 0"> 
<PointData>
<DataArray type="Float32" Name="u" format="ascii" NumberOfComponents="3"> 
0.00123572 -7.49308e-05 0 0 0 0 0 0 0 0 0 0 0 0 0 0 0 0 0 0 0 0 0 0 0 0 0 0 0 0 0 0 0 0 0 0 0 0 0 0 0 0 0 0 0 0 0 0 0 0 0 0 0 0 0 0 0 0 0 0 0 0 0 0 0 0 0 0 0 0 0 0 0 0 0 0 0 0 0 0 0 0 0 0 0 0 0 0 0 0 0 0 0 0 0 0 0 0 0 0 0 0 0 0 0 0 0 0 0 0 0 0 0 0 0 0 0 0 0 0 0 0 0 0 0 0 0 0 0 0 0 0 0 0 0 0 0 0 0 0 0 0 0 0 0 0 0 0 0 0 0 0 0 0 0 0 0 0 0 0 0 0 0 0 0 0 0 0 0 0 0 0 0 0 0 0 0 0 0 0 0 0 0 0 0 0 0 0 0 0 0 0 0 0 0 0 0 0 0 0 0 0 0 0 0 0 0 0 0 0 0 0 0 0 0 0 0 0 0 0 0 0 0 0 0 0 0 0 0 0 0 0 0 0 0 0 0 0 0 0 0 0 0 0 0 0 0 0 0 0 0 0 0 0 0 0 0 0 0 0 0 0 0 0 0 0 0 0 0 0 0 0 0 0 0 0 0 0 0 0 0 0 0 0 0 0 0 0 0 0 0 0 0 0 0 0 0 0 0 0 0 0 0 0 0 0 0 0 0 0 0 0 0 0 0 0 0 0 0 0 0 0 0 0 0 0 0 0 0 0 0 0 0 0 0 0 0 0 0 0 0 0 0 0 0 0 0 0 0 0 0 0 0 0 0 0 0 0 0 0 0 0 0 0 0 0 0 0 0 0 0 0 0 0 0 0 0 0 0 0 0 0 0 0 0 0 0 0 0 0 0 0 0 0 0 0 0 0 0 0 0 0 0 0 0 0 0 0 0 0 0 0 0 0 0 0 0 0 0 0 0 0 0 0 0 0 0 0 0 0 0 0 0 0 0 0 0 0 0 0 0 0 0 0 0 0 0 0 0 0 0 0 0 0 0 0 0 0 0 0 0 0 0 0 0 0 0 0 0 0 0 0 0 0 0 0 0 0 0 0 0 0 0 0 0 0 0 0 0 0 0 0 0 0 0 0 0 0 0 0 0 0 0 0 0 0 0 0 0 0 0 0 0 0 0 0 0 0 0 0 0 0 0 0 0 0 0 0 0 0 0 0 0 0 0 0 0 0 0 0 0 0 0 0 0 0 0 0 0 0 0 0 0 0 0 0 0 0 0 0 0 0 0 0 0 0 0 0 0 0 0 0 0 0 0 0 0 0 0 0 0 0 0 0 0 0 0 0 0 0 0 0 0 0 0 0 0 0 0 0 0 0 0 0 0 0 0 0 0 0 0 0 0 0 0 0 0 0 0 0 0 0 0 0 0 0 0 0 0 0 0 0 0 0 0 0 0 0 0 0 0 0 0 0 0 0 0 0 0 0 0 0 0 0 0 0 0 0 0 0 0 0 0 0 0 0 0 0 0 0 0 0 0 0 0 0 0 0 0 0 0 0 0 0 0 0 0 0 0 0 0 0 0 0 0 0 0 0 0 0 0 0 0 0 0 0 0 0 0 0 0 0 0 0 0 0 0 0 0 0 0 0 0 0 0 0 0 0 0 0 0 0 0 0 0 0 0 0 0 0 0 0 0 0 0 0 0 0 0 0 0 0 0 0 0 0 0 0 0 0 0 0 0 0 0 0 0 0 0 0 0 0 0 0 0 0 0 0 0 0 0 0 0 0 0 0 0 0 0 0 0 0 0 0 0 0 0 0 0 0 0 0 0 0 0 0 0 0 0 0 0 0 0 0 0 0 0 0 0 0 0 0 0 0 0 0 0 0 0 0 0 0 0 0 0 0 0 0 0 0 0 0 0 0 0 0 0 0 0 0 0 0 0 0 0 0 0 0 0 0 0 0 0 0 0 0 0 0 0 0 0 0 0 0 0 0 0 0 0 0 0 0 0 0 0 0 0 0 0 0 0 0 0 0 0 0 0 0 0 0 0 0 0 0 0 0 0 0 0 0 0 0 0 0 0 0 0 0 0 0 0 0 0 0 0 0 0 0 0 0 0 0 0 0 0 0 0 0 0 0 0 0 0 0 0 0 0 0 0 0 0 0 0 0 0 0 0 0 0 0 0 0 0 0 0 0 0 0 0 0 0 0 0 0 0 0 0 0 0 0 0 0 0 0 0 0 0 0 0 0 0 0 0 0 0 0 0 0 0 0 0 0 0 0 0 0 0 0 0 0 0 0 0 0 0 0 0 0 0 0 0 0 0 0 0 0 0 0 0 0 0 0 0 0 0 0 0 0 0 0 0 0 0 0 0 0 0 0 0 0 0 0 0 0 0 0 0 0 0 0 0 0 0 0 0 0 0 0 0 0 0 0 0 0 0 0 0 0 0 0 0 0 0 0 0 0 0 0 0 0 0 0 0 0 0 0 0 0 0 0 0 0 0 0 0 0 0 0 0 0 0 0 0 0 0 0 0 0 0 0 0 0 0 0 0 0 0 0 0 0 0 0 0 0 0 0 0 0 0 0 0 0 0 0 0 0 0 0 0 0 0 0 0 0 0 0 0 0 0 0 0 0 0 0 0 0 0 0 0 0 0 0 0 0 0 0 0 0 0 0 0 0 0 0 0 0 0 0 0 0 0 0 0 0 0 0 0 0 0 0 0 0 0 0 0 0 0 0 0 0 0 0 0 0 0 0 0 0 0 0 0 0 0 0 0 0 0 0 0 0 0 0 0 0 0 0 0 0 0 0 0 0 0 0 0 0 0 0 0 0 0 0 0 0 0 0 0 0 0 0 0 0 0 0 0 0 0 0 0 0 0 0 0 0 0 0 0 0 0 0 0 0 0 0 0 0 0 0 0 0 0 0 0 0 0 0 0 0 0 0 0 0 0 0 0 0 0 0 0 0 0 0 0 0 0 0 0 0 0 0 0 0 0 0 0 0 0 0 0 0 0 0 0 0 0 0 0 0 0 0 0 0 0 0 0 0 0 0 0 0 0 0 0 0 0 0 0 0 0 0 0 0 0 0 0 0 0 0 0 0 0 0 0 0 0 0 0 0 0 0 0 0 0 0 0 0 0 0 0 0 0 0 0 0 0 0 0 0 0 0 0 0 0 0 0 0 0 0 0 0 0 0 0 0 0 0 0 0 0 0 0 0 0 0 0 0 0 0 0 0 0 0 0 0 0 0 0 0 0 0 0 0 0 0 0 0 0 0 0 0 0 0 0 0 0 0 0 0 0 0 0 0 0 0 0 0 0 0 0 0 0 0 0 0 0 0 0 0 0 0 0 0 0 0 0 0 0 0 0 0 0 0 0 0 0 0 0 0 0 0 0 0 0 0 0 0 0 0 0 0 0 0 0 0 0 0 0 0 0 0 0 0 0 0 0 0 0 0 0 0 0 0 0 0 0 0 0 0 0 0 0 0 0 0 0 0 0 0 0 0 0 0 0 0 0 0 0 0 0 0 0 0 0 0 0 0 0 0 0 0 0 0 0 0 0 0 0 0 0 0 0 0 0 0 0 0 0 0 0 0 0 0 0 0 0 0 0 0 0 0 0 0 0 0 0 0 0 0 0 0 0 0 0 0 0 0 0 0 0 0 0 0 0 0 0 0 0 0 0 0 0 0 0 0 0 0 0 0 0 0 0 0 0 0 0 0 0 0 0 0 0 0 0 0 0 0 0 0 0 0 0 0 0 0 0 0 0 0 0 0 0 0 0 0 0 0 0 0 0 0 0 0 0 0 0 0 0 0 0 0 0 0 0 0 0 0 0 0 0 0 0 0 0 0 0 0 0 0 0 0 0 0 0 0 0 0 0 0 0 0 0 0 0 0 0 0 0 0 0 0 0 0 0 0 0 0 0 0 0 0 0 0 0 0 0 0 0 0 0 0 0 0 0 0 0 0 0 0 0 0 0 0 0 0 0 0 0 0 0 0 0 0 0 0 0 0 0 0 0 0 0 0 0 0 0 0 0 0 0 0 0 0 0 0 0 0 0 0 0 0 0 0 0 0 0 0 0 0 0 0 0 0 0 0 0 0 0 0 0 0 0 0 0 0 0 0 0 0 0 0 0 0 0 0 0 0 0 0 0 0 0 0 0 0 0 0 0 0 0 0 0 0 0 0 0 0 0 0 0 0 0 0 0 0 0 0 0 0 0 0 0 0 0 0 0 0 0 0 0 0 0 0 0 0 0 0 0 0 0 0 0 0 0 0 0 0 0 0 0 0 0 0 0 0 0 0 0 0 0 0 0 0 0 0 0 0 0 0 0 0 0 0 0 0 0 0 0 0 0 0 0 0 0 0 0 0 0 0 0 0 0 0 0 0 0 0 0 0 0 0 0 0 0 0 0 0 0 0 0 0 0 0 0 0 0 0 0 0 0 0 0 0 0 0 0 0 0 0 0 0 0 0 0 0 0 0 0 0 0 0 0 0 0 0 0 0 0 0 0 0 0 0 0 0 0 0 0 0 0 0 0 0 0 0 0 0 0 0 0 0 0 0 0 0 0 0 0 0 0 0 0 0 0 0 0 0 0 0 0 0 0 0 0 0 0 0 0 0 0 0 0 0 0 0 0 0 0 0 0 0 0 0 0 0 0 0 0 0 0 0 0 0 0 0 0 0 0 0 0 0 0 0 0 0 0 0 0 0 0 0 0 0 0 0 0 0 0 0 0 0 0 0 0 0 0 0 0 0 0 0 0 0 0 0 0 0 0 0 0 0 0 0 0 0 0 0 0 0 0 0 0 0 0 0 0 0 0 0 0 0 0 0 0 0 0 0 0 0 0 0 0 0 0 0 0 0 0 0 0 0 0 0 0 0 0 0 0 0 0 0 0 0 0 0 0 0 0 0 0 0 0 0 0 0 0 0 0 0 0 0 0 0 0 0 0 0 0 0 0 0 0 0 0 0 0 0 0 0 0 0 0 0 0 0 0 0 0 0 0 0 0 0 0 0 0 0 0 0 0 0 0 0 0 0 0 0 0 0 0 0 0 0 0 0 0 0 0 0 0 0 0 0 0 0 0 0 0 0 0 0 0 0 0 0 0 0 0 0 0 0 0 0 0 0 0 0 0 0 0 0 0 0 0 0 0 0 0 0 0 0 0 0 0 0 0 0 0 0 0 0 0 0 0 0 0 0 0 0 0 0 0 0 0 0 0 0 0 0 0 0 0 0 0 0 0 0 0 0 0 0 0 0 0 0 0 0 0 0 0 0 0 0 0 0 0 0 0 0 0 0 0 0 0 0 0 0 0 0 0 0 0 0 0 0 0 0 0 0 0 0 0 0 0 0 0 0 0 0 0 0 0 0 0 0 0 0 0 0 0 0 0 0 0 0 0 0 0 0 0 0 0 0 0 0 0 0 0 0 0 0 0 0 0 0 0 0 0 0 0 0 0 0 0 0 0 0 0 0 0 0 0 0 0 0 0 0 0 0 0 0 0 0 0 0 0 0 0 0 0 0 0 0 0 0 0 0 0 0 0 0 0 0 0 0 0 0 0 0 0 0 0 0 0 0 0 0 0 0 0 0 0 0 0 0 0 0 0 0 0 0 0 0 0 0 0 0 0 0 0 0 0 0 0 0 0 0 0 0 0 0 0 0 0 0 0 0 0 0 0 0 0 0 0 0 0 0 0 0 0 0 0 0 0 0 0 0 0 0 0 0 0 0 0 0 0 0 0 0 0 0 0 0 0 0 0 0 0 0 0 0 0 0 0 0 0 0 0 0 0 0 0 0 0 0 0 0 0 0 0 0 0 0 0 0 0 0 0 0 0 0 0 0 0 0 0 0 0 0 0 0 0 0 0 0 0 0 0 0 0 0 0 0 0 0 0 0 0 0 0 0 0 0 0 0 0 0 0 0 0 0 0 0 0 0 0 0 0 0 0 0 0 0 0 0 0 0 0 0 0 0 0 0 0 0 0 0 0 0 0 0 0 0 0 0 0 0 0 0 0 0 0 0 0 0 0 0 0 0 0 0 0 0 0 0 0 0 0 0 0 0 0 0 0 0 0 0 0 0 0 0 0 0 0 0 0 0 0 0 0 0 0 0 0 0 0 0 0 0 0 0 0 0 0 0 0 0 0 0 0 0 0 0 0 0 0 0 0 0 0 0 0 0 0 0 0 0 0 0 0 0 0 0 0 0 0 0 0 0 0 0 0 0 0 0 0 0 0 0 0 0 0 0 0 0 0 0 0 0 0 0 0 0 0 0 0 0 0 0 0 0 0 0 0 0 0 0 0 0 0 0 0 0 0 0 0 0 0 0 0 0 0 0 0 0 0 0 0 0 0 0 0 0 0 0 0 0 0 0 0 0 0 0 0 0 0 0 0 0 0 0 0 0 0 0 0 0 0 0 0 0 0 0 0 0 0 0 0 0 0 0 0 0 0 0 0 0 0 0 0 0 0 0 0 0 0 0 0 0 0 0 0 0 0 0 0 0 0 0 0 0 0 0 0 0 0 0 0 0 0 0 0 0 0 0 0 0 0 0 0 0 0 0 0 0 0 0 0 0 0 0 0 0 0 0 0 0 0 0 0 0 0 0 0 0 0 0 0 0 0 0 0 0 0 0 0 0 0 0 0 0 0 0 0 0 0 0 0 0 0 0 0 0 0 0 0 0 0 0 0 0 0 0 0 0 0 0 0 0 0 0 0 0 0 0 0 0 0 0 0 0 0 0 0 0 0 0 0 0 0 0 0 0 0 0 0 0 0 0 0 0 0 0 0 0 0 0 0 0 0 0 0 0 0 0 0 0 0 0 0 0 0 0 0 0 0 0 0 0 0 0 0 0 0 0 0 0 0 0 0 0 0 0 0 0 0 0 0 0 0 0 0 0 0 0 0 0 0 0 0 0 0 0 </DataArray> 
</PointData> 
<Points> 
<DataArray type="Float32" NumberOfComponents="3"> 
3.5 3 0 3.54839 3 0 3.59677 3 0 3.64516 3 0 3.69355 3 0 3.74194 3 0 3.79032 3 0 3.83871 3 0 3.8871 3 0 3.93548 3 0 3.98387 3 0 4.03226 3 0 4.08065 3 0 4.12903 3 0 4.17742 3 0 4.22581 3 0 4.27419 3 0 4.32258 3 0 4.37097 3 0 4.41935 3 0 4.46774 3 0 4.51613 3 0 4.56452 3 0 4.6129 3 0 4.66129 3 0 4.70968 3 0 4.75806 3 0 4.80645 3 0 4.85484 3 0 4.90323 3 0 4.95161 3 0 5 3 0 3.5 3.09677 0 3.54839 3.09677 0 3.59677 3.09677 0 3.64516 3.09677 0 3.69355 3.09677 0 3.74194 3.09677 0 3.79032 3.09677 0 3.83871 3.09677 0 3.8871 3.09677 0 3.93548 3.09677 0 3.98387 3.09677 0 4.03226 3.09677 0 4.08065 3.09677 0 4.12903 3.09677 0 4.17742 3.09677 0 4.22581 3.09677 0 4.27419 3.09677 0 4.32258 3.09677 0 4.37097 3.09677 0 4.41935 3.09677 0 4.46774 3.09677 0 4.51613 3.09677 0 4.56452 3.09677 0 4.6129 3.09677 0 4.66129 3.09677 0 4.70968 3.09677 0 4.75806 3.09677 0 4.80645 3.09677 0 4.85484 3.09677 0 4.90323 3.09677 0 4.95161 3.09677 0 5 3.09677 0 3.5 3.19355 0 3.54839 3.19355 0 3.59677 3.19355 0 3.64516 3.19355 0 3.69355 3.19355 0 3.74194 3.19355 0 3.79032 3.19355 0 3.83871 3.19355 0 3.8871 3.19355 0 3.93548 3.19355 0 3.98387 3.19355 0 4.03226 3.19355 0 4.08065 3.19355 0 4.12903 3.19355 0 4.17742 3.19355 0 4.22581 3.19355 0 4.27419 3.19355 0 4.32258 3.19355 0 4.37097 3.19355 0 4.41935 3.19355 0 4.46774 3.19355 0 4.51613 3.19355 0 4.56452 3.19355 0 4.6129 3.19355 0 4.66129 3.19355 0 4.70968 3.19355 0 4.75806 3.19355 0 4.80645 3.19355 0 4.85484 3.19355 0 4.90323 3.19355 0 4.95161 3.19355 0 5 3.19355 0 3.5 3.29032 0 3.54839 3.29032 0 3.59677 3.29032 0 3.64516 3.29032 0 3.69355 3.29032 0 3.74194 3.29032 0 3.79032 3.29032 0 3.83871 3.29032 0 3.8871 3.29032 0 3.93548 3.29032 0 3.98387 3.29032 0 4.03226 3.29032 0 4.08065 3.29032 0 4.12903 3.29032 0 4.17742 3.29032 0 4.22581 3.29032 0 4.27419 3.29032 0 4.32258 3.29032 0 4.37097 3.29032 0 4.41935 3.29032 0 4.46774 3.29032 0 4.51613 3.29032 0 4.56452 3.29032 0 4.6129 3.29032 0 4.66129 3.29032 0 4.70968 3.29032 0 4.75806 3.29032 0 4.80645 3.29032 0 4.85484 3.29032 0 4.90323 3.29032 0 4.95161 3.29032 0 5 3.29032 0 3.5 3.3871 0 3.54839 3.3871 0 3.59677 3.3871 0 3.64516 3.3871 0 3.69355 3.3871 0 3.74194 3.3871 0 3.79032 3.3871 0 3.83871 3.3871 0 3.8871 3.3871 0 3.93548 3.3871 0 3.98387 3.3871 0 4.03226 3.3871 0 4.08065 3.3871 0 4.12903 3.3871 0 4.17742 3.3871 0 4.22581 3.3871 0 4.27419 3.3871 0 4.32258 3.3871 0 4.37097 3.3871 0 4.41935 3.3871 0 4.46774 3.3871 0 4.51613 3.3871 0 4.56452 3.3871 0 4.6129 3.3871 0 4.66129 3.3871 0 4.70968 3.3871 0 4.75806 3.3871 0 4.80645 3.3871 0 4.85484 3.3871 0 4.90323 3.3871 0 4.95161 3.3871 0 5 3.3871 0 3.5 3.48387 0 3.54839 3.48387 0 3.59677 3.48387 0 3.64516 3.48387 0 3.69355 3.48387 0 3.74194 3.48387 0 3.79032 3.48387 0 3.83871 3.48387 0 3.8871 3.48387 0 3.93548 3.48387 0 3.98387 3.48387 0 4.03226 3.48387 0 4.08065 3.48387 0 4.12903 3.48387 0 4.17742 3.48387 0 4.22581 3.48387 0 4.27419 3.48387 0 4.32258 3.48387 0 4.37097 3.48387 0 4.41935 3.48387 0 4.46774 3.48387 0 4.51613 3.48387 0 4.56452 3.48387 0 4.6129 3.48387 0 4.66129 3.48387 0 4.70968 3.48387 0 4.75806 3.48387 0 4.80645 3.48387 0 4.85484 3.48387 0 4.90323 3.48387 0 4.95161 3.48387 0 5 3.48387 0 3.5 3.58065 0 3.54839 3.58065 0 3.59677 3.58065 0 3.64516 3.58065 0 3.69355 3.58065 0 3.74194 3.58065 0 3.79032 3.58065 0 3.83871 3.58065 0 3.8871 3.58065 0 3.93548 3.58065 0 3.98387 3.58065 0 4.03226 3.58065 0 4.08065 3.58065 0 4.12903 3.58065 0 4.17742 3.58065 0 4.22581 3.58065 0 4.27419 3.58065 0 4.32258 3.58065 0 4.37097 3.58065 0 4.41935 3.58065 0 4.46774 3.58065 0 4.51613 3.58065 0 4.56452 3.58065 0 4.6129 3.58065 0 4.66129 3.58065 0 4.70968 3.58065 0 4.75806 3.58065 0 4.80645 3.58065 0 4.85484 3.58065 0 4.90323 3.58065 0 4.95161 3.58065 0 5 3.58065 0 3.5 3.67742 0 3.54839 3.67742 0 3.59677 3.67742 0 3.64516 3.67742 0 3.69355 3.67742 0 3.74194 3.67742 0 3.79032 3.67742 0 3.83871 3.67742 0 3.8871 3.67742 0 3.93548 3.67742 0 3.98387 3.67742 0 4.03226 3.67742 0 4.08065 3.67742 0 4.12903 3.67742 0 4.17742 3.67742 0 4.22581 3.67742 0 4.27419 3.67742 0 4.32258 3.67742 0 4.37097 3.67742 0 4.41935 3.67742 0 4.46774 3.67742 0 4.51613 3.67742 0 4.56452 3.67742 0 4.6129 3.67742 0 4.66129 3.67742 0 4.70968 3.67742 0 4.75806 3.67742 0 4.80645 3.67742 0 4.85484 3.67742 0 4.90323 3.67742 0 4.95161 3.67742 0 5 3.67742 0 3.5 3.77419 0 3.54839 3.77419 0 3.59677 3.77419 0 3.64516 3.77419 0 3.69355 3.77419 0 3.74194 3.77419 0 3.79032 3.77419 0 3.83871 3.77419 0 3.8871 3.77419 0 3.93548 3.77419 0 3.98387 3.77419 0 4.03226 3.77419 0 4.08065 3.77419 0 4.12903 3.77419 0 4.17742 3.77419 0 4.22581 3.77419 0 4.27419 3.77419 0 4.32258 3.77419 0 4.37097 3.77419 0 4.41935 3.77419 0 4.46774 3.77419 0 4.51613 3.77419 0 4.56452 3.77419 0 4.6129 3.77419 0 4.66129 3.77419 0 4.70968 3.77419 0 4.75806 3.77419 0 4.80645 3.77419 0 4.85484 3.77419 0 4.90323 3.77419 0 4.95161 3.77419 0 5 3.77419 0 3.5 3.87097 0 3.54839 3.87097 0 3.59677 3.87097 0 3.64516 3.87097 0 3.69355 3.87097 0 3.74194 3.87097 0 3.79032 3.87097 0 3.83871 3.87097 0 3.8871 3.87097 0 3.93548 3.87097 0 3.98387 3.87097 0 4.03226 3.87097 0 4.08065 3.87097 0 4.12903 3.87097 0 4.17742 3.87097 0 4.22581 3.87097 0 4.27419 3.87097 0 4.32258 3.87097 0 4.37097 3.87097 0 4.41935 3.87097 0 4.46774 3.87097 0 4.51613 3.87097 0 4.56452 3.87097 0 4.6129 3.87097 0 4.66129 3.87097 0 4.70968 3.87097 0 4.75806 3.87097 0 4.80645 3.87097 0 4.85484 3.87097 0 4.90323 3.87097 0 4.95161 3.87097 0 5 3.87097 0 3.5 3.96774 0 3.54839 3.96774 0 3.59677 3.96774 0 3.64516 3.96774 0 3.69355 3.96774 0 3.74194 3.96774 0 3.79032 3.96774 0 3.83871 3.96774 0 3.8871 3.96774 0 3.93548 3.96774 0 3.98387 3.96774 0 4.03226 3.96774 0 4.08065 3.96774 0 4.12903 3.96774 0 4.17742 3.96774 0 4.22581 3.96774 0 4.27419 3.96774 0 4.32258 3.96774 0 4.37097 3.96774 0 4.41935 3.96774 0 4.46774 3.96774 0 4.51613 3.96774 0 4.56452 3.96774 0 4.6129 3.96774 0 4.66129 3.96774 0 4.70968 3.96774 0 4.75806 3.96774 0 4.80645 3.96774 0 4.85484 3.96774 0 4.90323 3.96774 0 4.95161 3.96774 0 5 3.96774 0 3.5 4.06452 0 3.54839 4.06452 0 3.59677 4.06452 0 3.64516 4.06452 0 3.69355 4.06452 0 3.74194 4.06452 0 3.79032 4.06452 0 3.83871 4.06452 0 3.8871 4.06452 0 3.93548 4.06452 0 3.98387 4.06452 0 4.03226 4.06452 0 4.08065 4.06452 0 4.12903 4.06452 0 4.17742 4.06452 0 4.22581 4.06452 0 4.27419 4.06452 0 4.32258 4.06452 0 4.37097 4.06452 0 4.41935 4.06452 0 4.46774 4.06452 0 4.51613 4.06452 0 4.56452 4.06452 0 4.6129 4.06452 0 4.66129 4.06452 0 4.70968 4.06452 0 4.75806 4.06452 0 4.80645 4.06452 0 4.85484 4.06452 0 4.90323 4.06452 0 4.95161 4.06452 0 5 4.06452 0 3.5 4.16129 0 3.54839 4.16129 0 3.59677 4.16129 0 3.64516 4.16129 0 3.69355 4.16129 0 3.74194 4.16129 0 3.79032 4.16129 0 3.83871 4.16129 0 3.8871 4.16129 0 3.93548 4.16129 0 3.98387 4.16129 0 4.03226 4.16129 0 4.08065 4.16129 0 4.12903 4.16129 0 4.17742 4.16129 0 4.22581 4.16129 0 4.27419 4.16129 0 4.32258 4.16129 0 4.37097 4.16129 0 4.41935 4.16129 0 4.46774 4.16129 0 4.51613 4.16129 0 4.56452 4.16129 0 4.6129 4.16129 0 4.66129 4.16129 0 4.70968 4.16129 0 4.75806 4.16129 0 4.80645 4.16129 0 4.85484 4.16129 0 4.90323 4.16129 0 4.95161 4.16129 0 5 4.16129 0 3.5 4.25806 0 3.54839 4.25806 0 3.59677 4.25806 0 3.64516 4.25806 0 3.69355 4.25806 0 3.74194 4.25806 0 3.79032 4.25806 0 3.83871 4.25806 0 3.8871 4.25806 0 3.93548 4.25806 0 3.98387 4.25806 0 4.03226 4.25806 0 4.08065 4.25806 0 4.12903 4.25806 0 4.17742 4.25806 0 4.22581 4.25806 0 4.27419 4.25806 0 4.32258 4.25806 0 4.37097 4.25806 0 4.41935 4.25806 0 4.46774 4.25806 0 4.51613 4.25806 0 4.56452 4.25806 0 4.6129 4.25806 0 4.66129 4.25806 0 4.70968 4.25806 0 4.75806 4.25806 0 4.80645 4.25806 0 4.85484 4.25806 0 4.90323 4.25806 0 4.95161 4.25806 0 5 4.25806 0 3.5 4.35484 0 3.54839 4.35484 0 3.59677 4.35484 0 3.64516 4.35484 0 3.69355 4.35484 0 3.74194 4.35484 0 3.79032 4.35484 0 3.83871 4.35484 0 3.8871 4.35484 0 3.93548 4.35484 0 3.98387 4.35484 0 4.03226 4.35484 0 4.08065 4.35484 0 4.12903 4.35484 0 4.17742 4.35484 0 4.22581 4.35484 0 4.27419 4.35484 0 4.32258 4.35484 0 4.37097 4.35484 0 4.41935 4.35484 0 4.46774 4.35484 0 4.51613 4.35484 0 4.56452 4.35484 0 4.6129 4.35484 0 4.66129 4.35484 0 4.70968 4.35484 0 4.75806 4.35484 0 4.80645 4.35484 0 4.85484 4.35484 0 4.90323 4.35484 0 4.95161 4.35484 0 5 4.35484 0 3.5 4.45161 0 3.54839 4.45161 0 3.59677 4.45161 0 3.64516 4.45161 0 3.69355 4.45161 0 3.74194 4.45161 0 3.79032 4.45161 0 3.83871 4.45161 0 3.8871 4.45161 0 3.93548 4.45161 0 3.98387 4.45161 0 4.03226 4.45161 0 4.08065 4.45161 0 4.12903 4.45161 0 4.17742 4.45161 0 4.22581 4.45161 0 4.27419 4.45161 0 4.32258 4.45161 0 4.37097 4.45161 0 4.41935 4.45161 0 4.46774 4.45161 0 4.51613 4.45161 0 4.56452 4.45161 0 4.6129 4.45161 0 4.66129 4.45161 0 4.70968 4.45161 0 4.75806 4.45161 0 4.80645 4.45161 0 4.85484 4.45161 0 4.90323 4.45161 0 4.95161 4.45161 0 5 4.45161 0 3.5 4.54839 0 3.54839 4.54839 0 3.59677 4.54839 0 3.64516 4.54839 0 3.69355 4.54839 0 3.74194 4.54839 0 3.79032 4.54839 0 3.83871 4.54839 0 3.8871 4.54839 0 3.93548 4.54839 0 3.98387 4.54839 0 4.03226 4.54839 0 4.08065 4.54839 0 4.12903 4.54839 0 4.17742 4.54839 0 4.22581 4.54839 0 4.27419 4.54839 0 4.32258 4.54839 0 4.37097 4.54839 0 4.41935 4.54839 0 4.46774 4.54839 0 4.51613 4.54839 0 4.56452 4.54839 0 4.6129 4.54839 0 4.66129 4.54839 0 4.70968 4.54839 0 4.75806 4.54839 0 4.80645 4.54839 0 4.85484 4.54839 0 4.90323 4.54839 0 4.95161 4.54839 0 5 4.54839 0 3.5 4.64516 0 3.54839 4.64516 0 3.59677 4.64516 0 3.64516 4.64516 0 3.69355 4.64516 0 3.74194 4.64516 0 3.79032 4.64516 0 3.83871 4.64516 0 3.8871 4.64516 0 3.93548 4.64516 0 3.98387 4.64516 0 4.03226 4.64516 0 4.08065 4.64516 0 4.12903 4.64516 0 4.17742 4.64516 0 4.22581 4.64516 0 4.27419 4.64516 0 4.32258 4.64516 0 4.37097 4.64516 0 4.41935 4.64516 0 4.46774 4.64516 0 4.51613 4.64516 0 4.56452 4.64516 0 4.6129 4.64516 0 4.66129 4.64516 0 4.70968 4.64516 0 4.75806 4.64516 0 4.80645 4.64516 0 4.85484 4.64516 0 4.90323 4.64516 0 4.95161 4.64516 0 5 4.64516 0 3.5 4.74194 0 3.54839 4.74194 0 3.59677 4.74194 0 3.64516 4.74194 0 3.69355 4.74194 0 3.74194 4.74194 0 3.79032 4.74194 0 3.83871 4.74194 0 3.8871 4.74194 0 3.93548 4.74194 0 3.98387 4.74194 0 4.03226 4.74194 0 4.08065 4.74194 0 4.12903 4.74194 0 4.17742 4.74194 0 4.22581 4.74194 0 4.27419 4.74194 0 4.32258 4.74194 0 4.37097 4.74194 0 4.41935 4.74194 0 4.46774 4.74194 0 4.51613 4.74194 0 4.56452 4.74194 0 4.6129 4.74194 0 4.66129 4.74194 0 4.70968 4.74194 0 4.75806 4.74194 0 4.80645 4.74194 0 4.85484 4.74194 0 4.90323 4.74194 0 4.95161 4.74194 0 5 4.74194 0 3.5 4.83871 0 3.54839 4.83871 0 3.59677 4.83871 0 3.64516 4.83871 0 3.69355 4.83871 0 3.74194 4.83871 0 3.79032 4.83871 0 3.83871 4.83871 0 3.8871 4.83871 0 3.93548 4.83871 0 3.98387 4.83871 0 4.03226 4.83871 0 4.08065 4.83871 0 4.12903 4.83871 0 4.17742 4.83871 0 4.22581 4.83871 0 4.27419 4.83871 0 4.32258 4.83871 0 4.37097 4.83871 0 4.41935 4.83871 0 4.46774 4.83871 0 4.51613 4.83871 0 4.56452 4.83871 0 4.6129 4.83871 0 4.66129 4.83871 0 4.70968 4.83871 0 4.75806 4.83871 0 4.80645 4.83871 0 4.85484 4.83871 0 4.90323 4.83871 0 4.95161 4.83871 0 5 4.83871 0 3.5 4.93548 0 3.54839 4.93548 0 3.59677 4.93548 0 3.64516 4.93548 0 3.69355 4.93548 0 3.74194 4.93548 0 3.79032 4.93548 0 3.83871 4.93548 0 3.8871 4.93548 0 3.93548 4.93548 0 3.98387 4.93548 0 4.03226 4.93548 0 4.08065 4.93548 0 4.12903 4.93548 0 4.17742 4.93548 0 4.22581 4.93548 0 4.27419 4.93548 0 4.32258 4.93548 0 4.37097 4.93548 0 4.41935 4.93548 0 4.46774 4.93548 0 4.51613 4.93548 0 4.56452 4.93548 0 4.6129 4.93548 0 4.66129 4.93548 0 4.70968 4.93548 0 4.75806 4.93548 0 4.80645 4.93548 0 4.85484 4.93548 0 4.90323 4.93548 0 4.95161 4.93548 0 5 4.93548 0 3.5 5.03226 0 3.54839 5.03226 0 3.59677 5.03226 0 3.64516 5.03226 0 3.69355 5.03226 0 3.74194 5.03226 0 3.79032 5.03226 0 3.83871 5.03226 0 3.8871 5.03226 0 3.93548 5.03226 0 3.98387 5.03226 0 4.03226 5.03226 0 4.08065 5.03226 0 4.12903 5.03226 0 4.17742 5.03226 0 4.22581 5.03226 0 4.27419 5.03226 0 4.32258 5.03226 0 4.37097 5.03226 0 4.41935 5.03226 0 4.46774 5.03226 0 4.51613 5.03226 0 4.56452 5.03226 0 4.6129 5.03226 0 4.66129 5.03226 0 4.70968 5.03226 0 4.75806 5.03226 0 4.80645 5.03226 0 4.85484 5.03226 0 4.90323 5.03226 0 4.95161 5.03226 0 5 5.03226 0 3.5 5.12903 0 3.54839 5.12903 0 3.59677 5.12903 0 3.64516 5.12903 0 3.69355 5.12903 0 3.74194 5.12903 0 3.79032 5.12903 0 3.83871 5.12903 0 3.8871 5.12903 0 3.93548 5.12903 0 3.98387 5.12903 0 4.03226 5.12903 0 4.08065 5.12903 0 4.12903 5.12903 0 4.17742 5.12903 0 4.22581 5.12903 0 4.27419 5.12903 0 4.32258 5.12903 0 4.37097 5.12903 0 4.41935 5.12903 0 4.46774 5.12903 0 4.51613 5.12903 0 4.56452 5.12903 0 4.6129 5.12903 0 4.66129 5.12903 0 4.70968 5.12903 0 4.75806 5.12903 0 4.80645 5.12903 0 4.85484 5.12903 0 4.90323 5.12903 0 4.95161 5.12903 0 5 5.12903 0 3.5 5.22581 0 3.54839 5.22581 0 3.59677 5.22581 0 3.64516 5.22581 0 3.69355 5.22581 0 3.74194 5.22581 0 3.79032 5.22581 0 3.83871 5.22581 0 3.8871 5.22581 0 3.93548 5.22581 0 3.98387 5.22581 0 4.03226 5.22581 0 4.08065 5.22581 0 4.12903 5.22581 0 4.17742 5.22581 0 4.22581 5.22581 0 4.27419 5.22581 0 4.32258 5.22581 0 4.37097 5.22581 0 4.41935 5.22581 0 4.46774 5.22581 0 4.51613 5.22581 0 4.56452 5.22581 0 4.6129 5.22581 0 4.66129 5.22581 0 4.70968 5.22581 0 4.75806 5.22581 0 4.80645 5.22581 0 4.85484 5.22581 0 4.90323 5.22581 0 4.95161 5.22581 0 5 5.22581 0 3.5 5.32258 0 3.54839 5.32258 0 3.59677 5.32258 0 3.64516 5.32258 0 3.69355 5.32258 0 3.74194 5.32258 0 3.79032 5.32258 0 3.83871 5.32258 0 3.8871 5.32258 0 3.93548 5.32258 0 3.98387 5.32258 0 4.03226 5.32258 0 4.08065 5.32258 0 4.12903 5.32258 0 4.17742 5.32258 0 4.22581 5.32258 0 4.27419 5.32258 0 4.32258 5.32258 0 4.37097 5.32258 0 4.41935 5.32258 0 4.46774 5.32258 0 4.51613 5.32258 0 4.56452 5.32258 0 4.6129 5.32258 0 4.66129 5.32258 0 4.70968 5.32258 0 4.75806 5.32258 0 4.80645 5.32258 0 4.85484 5.32258 0 4.90323 5.32258 0 4.95161 5.32258 0 5 5.32258 0 3.5 5.41935 0 3.54839 5.41935 0 3.59677 5.41935 0 3.64516 5.41935 0 3.69355 5.41935 0 3.74194 5.41935 0 3.79032 5.41935 0 3.83871 5.41935 0 3.8871 5.41935 0 3.93548 5.41935 0 3.98387 5.41935 0 4.03226 5.41935 0 4.08065 5.41935 0 4.12903 5.41935 0 4.17742 5.41935 0 4.22581 5.41935 0 4.27419 5.41935 0 4.32258 5.41935 0 4.37097 5.41935 0 4.41935 5.41935 0 4.46774 5.41935 0 4.51613 5.41935 0 4.56452 5.41935 0 4.6129 5.41935 0 4.66129 5.41935 0 4.70968 5.41935 0 4.75806 5.41935 0 4.80645 5.41935 0 4.85484 5.41935 0 4.90323 5.41935 0 4.95161 5.41935 0 5 5.41935 0 3.5 5.51613 0 3.54839 5.51613 0 3.59677 5.51613 0 3.64516 5.51613 0 3.69355 5.51613 0 3.74194 5.51613 0 3.79032 5.51613 0 3.83871 5.51613 0 3.8871 5.51613 0 3.93548 5.51613 0 3.98387 5.51613 0 4.03226 5.51613 0 4.08065 5.51613 0 4.12903 5.51613 0 4.17742 5.51613 0 4.22581 5.51613 0 4.27419 5.51613 0 4.32258 5.51613 0 4.37097 5.51613 0 4.41935 5.51613 0 4.46774 5.51613 0 4.51613 5.51613 0 4.56452 5.51613 0 4.6129 5.51613 0 4.66129 5.51613 0 4.70968 5.51613 0 4.75806 5.51613 0 4.80645 5.51613 0 4.85484 5.51613 0 4.90323 5.51613 0 4.95161 5.51613 0 5 5.51613 0 3.5 5.6129 0 3.54839 5.6129 0 3.59677 5.6129 0 3.64516 5.6129 0 3.69355 5.6129 0 3.74194 5.6129 0 3.79032 5.6129 0 3.83871 5.6129 0 3.8871 5.6129 0 3.93548 5.6129 0 3.98387 5.6129 0 4.03226 5.6129 0 4.08065 5.6129 0 4.12903 5.6129 0 4.17742 5.6129 0 4.22581 5.6129 0 4.27419 5.6129 0 4.32258 5.6129 0 4.37097 5.6129 0 4.41935 5.6129 0 4.46774 5.6129 0 4.51613 5.6129 0 4.56452 5.6129 0 4.6129 5.6129 0 4.66129 5.6129 0 4.70968 5.6129 0 4.75806 5.6129 0 4.80645 5.6129 0 4.85484 5.6129 0 4.90323 5.6129 0 4.95161 5.6129 0 5 5.6129 0 3.5 5.70968 0 3.54839 5.70968 0 3.59677 5.70968 0 3.64516 5.70968 0 3.69355 5.70968 0 3.74194 5.70968 0 3.79032 5.70968 0 3.83871 5.70968 0 3.8871 5.70968 0 3.93548 5.70968 0 3.98387 5.70968 0 4.03226 5.70968 0 4.08065 5.70968 0 4.12903 5.70968 0 4.17742 5.70968 0 4.22581 5.70968 0 4.27419 5.70968 0 4.32258 5.70968 0 4.37097 5.70968 0 4.41935 5.70968 0 4.46774 5.70968 0 4.51613 5.70968 0 4.56452 5.70968 0 4.6129 5.70968 0 4.66129 5.70968 0 4.70968 5.70968 0 4.75806 5.70968 0 4.80645 5.70968 0 4.85484 5.70968 0 4.90323 5.70968 0 4.95161 5.70968 0 5 5.70968 0 3.5 5.80645 0 3.54839 5.80645 0 3.59677 5.80645 0 3.64516 5.80645 0 3.69355 5.80645 0 3.74194 5.80645 0 3.79032 5.80645 0 3.83871 5.80645 0 3.8871 5.80645 0 3.93548 5.80645 0 3.98387 5.80645 0 4.03226 5.80645 0 4.08065 5.80645 0 4.12903 5.80645 0 4.17742 5.80645 0 4.22581 5.80645 0 4.27419 5.80645 0 4.32258 5.80645 0 4.37097 5.80645 0 4.41935 5.80645 0 4.46774 5.80645 0 4.51613 5.80645 0 4.56452 5.80645 0 4.6129 5.80645 0 4.66129 5.80645 0 4.70968 5.80645 0 4.75806 5.80645 0 4.80645 5.80645 0 4.85484 5.80645 0 4.90323 5.80645 0 4.95161 5.80645 0 5 5.80645 0 3.5 5.90323 0 3.54839 5.90323 0 3.59677 5.90323 0 3.64516 5.90323 0 3.69355 5.90323 0 3.74194 5.90323 0 3.79032 5.90323 0 3.83871 5.90323 0 3.8871 5.90323 0 3.93548 5.90323 0 3.98387 5.90323 0 4.03226 5.90323 0 4.08065 5.90323 0 4.12903 5.90323 0 4.17742 5.90323 0 4.22581 5.90323 0 4.27419 5.90323 0 4.32258 5.90323 0 4.37097 5.90323 0 4.41935 5.90323 0 4.46774 5.90323 0 4.51613 5.90323 0 4.56452 5.90323 0 4.6129 5.90323 0 4.66129 5.90323 0 4.70968 5.90323 0 4.75806 5.90323 0 4.80645 5.90323 0 4.85484 5.90323 0 4.90323 5.90323 0 4.95161 5.90323 0 5 5.90323 0 3.5 6 0 3.54839 6 0 3.59677 6 0 3.64516 6 0 3.69355 6 0 3.74194 6 0 3.79032 6 0 3.83871 6 0 3.8871 6 0 3.93548 6 0 3.98387 6 0 4.03226 6 0 4.08065 6 0 4.12903 6 0 4.17742 6 0 4.22581 6 0 4.27419 6 0 4.32258 6 0 4.37097 6 0 4.41935 6 0 4.46774 6 0 4.51613 6 0 4.56452 6 0 4.6129 6 0 4.66129 6 0 4.70968 6 0 4.75806 6 0 4.80645 6 0 4.85484 6 0 4.90323 6 0 4.95161 6 0 5 6 0 
</DataArray>
</Points> 
</Piece> 
</StructuredGrid> 
</VTKFile> 
