<?xml version="1.0"?> 
<VTKFile type="StructuredGrid" version="0.1"> 
<StructuredGrid WholeExtent="0 31 0 31 0 0"> 
<Piece Extent="0 31 0 31 0 0"> 
<PointData>
<DataArray type="Float32" Name="u" format="ascii" NumberOfComponents="3"> 
0 0 0 0 0 0 0 0 0 0 0 0 0 0 0 0 0 0 0 0 0 0 0 0 0 0 0 0 0 0 0 0 0 0 0 0 0 0 0 0 0 0 0 0 0 0 0 0 0 0 0 0 0 0 0 0 0 0 0 0 0 0 0 0 0 0 0 0 0 0 0 0 0 0 0 0 0 0 0 0 0 0 0 0 0 0 0 0 0 0 0 0 0 0 0 0 0 0 0 0 0 0 0 0 0 0 0 0 0 0 0 0 0 0 0 0 0 0 0 0 0 0 0 0 0 0 0 0 0 0 0 0 0 0 0 0 0 0 0 0 0 0 0 0 0 0 0 0 0 0 0 0 0 0 0 0 0 0 0 0 0 0 0 0 0 0 0 0 0 0 0 0 0 0 0 0 0 0 0 0 0 0 0 0 0 0 0 0 0 0 0 0 0 0 0 0 0 0 0 0 0 0 0 0 0 0 0 0 0 0 0 0 0 0 0 0 0 0 0 0 0 0 0 0 0 0 0 0 0 0 0 0 0 0 0 0 0 0 0 0 0 0 0 0 0 0 0 0 0 0 0 0 0 0 0 0 0 0 0 0 0 0 0 0 0 0 0 0 0 0 0 0 0 0 0 0 0 0 0 0 0 0 0 0 0 0 0 0 0 0 0 0 0 0 0 0 0 0 0 0 0 0 0 0 0 0 0 0 0 0 0 0 0 0 0 0 0 0 0 0 0 0 0 0 0 0 0 0 0 0 0 0 0 0 0 0 0 0 0 0 0 0 0 0 0 0 0 0 0 0 0 0 0 0 0 0 0 0 0 0 0 0 0 0 0 0 0 0 0 0 0 0 0 0 0 0 0 0 0 0 0 0 0 0 0 0 0 0 0 0 0 0 0 0 0 0 0 0 0 0 0 0 0 0 0 0 0 0 0 0 0 0 0 0 0 0 0 0 0 0 0 0 0 0 0 0 0 0 0 0 0 0 0 0 0 0 0 0 0 0 0 0 0 0 0 0 0 0 0 0 0 0 0 0 0 0 0 0 0 0 0 0 0 0 0 0 0 0 0 0 0 0 0 0 0 0 0 0 0 0 0 0 0 0 0 0 0 0 0 0 0 0 0 0 0 0 0 0 0 0 0 0 0 0 0 0 0 0 0 0 0 0 0 0 0 0 0 0 0 0 0 0 0 0 0 0 0 0 0 0 0 0 0 0 0 0 0 0 0 0 0 0 0 0 0 0 0 0 0 0 0 0 0 0 0 0 0 0 0 0 0 0 0 0 0 0 0 0 0 0 0 0 0 0 0 0 0 0 0 0 0 0 0 0 0 0 0 0 0 0 0 0 0 0 0 0 0 0 0 0 0 0 0 0 0 0 0 0 0 0 0 0 0 0 0 0 0 0 0 0 0 0 0 0 0 0 0 0 0 0 0 0 0 0 0 0 0 0 0 0 0 0 0 0 0 0 0 0 0 0 0 0 0 0 0 0 0 0 0 0 0 0 0 0 0 0 0 0 0 0 0 0 0 0 0 0 0 0 0 0 0 0 0 0 0 0 0 0 0 0 0 0 0 0 0 0 0 0 0 0 0 0 0 0 0 0 0 0 0 0 0 0 0 0 0 0 0 0 0 0 0 0 0 0 0 0 0 0 0 0 0 0 0 0 0 0 0 0 0 0 0 0 0 0 0 0 0 0 0 0 0 0 0 0 0 0 0 0 0 0 0 0 0 0 0 0 0 0 0 0 0 0 0 0 0 0 0 0 0 0 0 0 0 0 0 0 0 0 0 0 0 0 0 0 0 0 0 0 0 0 0 0 0 0 0 0 0 0 0 0 0 0 0 0 0 0 0 0 0 0 0 0 0 0 0 0 0 0 0 0 0 0 0 0 0 0 0 0 0 0 0 0 0 0 0 0 0 0 0 0 0 0 0 0 0 0 0 0 0 0 0 0 0 0 0 0 0 0 0 0 0 0 0 0 0 0 0 0 0 0 0 0 0 0 0 0 0 0 0 0 0 0 0 0 0 0 0 0 0 0 0 0 0 0 0 0 0 0 0 0 0 0 0 0 0 0 0 0 0 0 0 0 0 0 0 0 0 0 0 0 0 0 0 0 0 0 0 0 0 0 0 0 0 0 0 0 0 0 0 0 0 0 0 0 0 0 0 0 0 0 0 0 0 0 0 0 0 0 0 0 0 0 0 0 0 0 0 0 0 0 0 0 0 0 0 0 0 0 0 0 0 0 0 0 0 0 0 0 0 0 0 0 0 0 0 0 0 0 0 0 0 0 0 0 0 0 0 0 0 0 0 0 0 0 0 0 0 0 0 0 0 0 0 0 0 0 0 0 0 0 0 0 0 0 0 0 0 0 0 0 0 0 0 0 0 0 0 0 0 0 0 0 0 0 0 0 0 0 0 0 0 0 0 0 0 0 0 0 0 0 0 0 0 0 0 0 0 0 0 0 0 0 0 0 0 0 0 0 0 0 0 0 0 0 0 0 0 0 0 0 0 0 0 0 0 0 0 0 0 0 0 0 0 0 0 0 0 0 0 0 0 0 0 0 0 0 0 0 0 0 0 0 0 0 0 0 0 0 0 0 0 0 0 0 0 0 0 0 0 0 0 0 0 0 0 0 0 0 0 0 0 0 0 0 0 0 0 0 0 0 0 0 0 0 0 0 0 0 0 0 0 0 0 0 0 0 0 0 0 0 0 0 0 0 0 0 0 0 0 0 0 0 0 0 0 0 0 0 0 0 0 0 0 0 0 0 0 0 0 0 0 0 0 0 0 0 0 0 0 0 0 0 0 0 0 0 0 0 0 0 0 0 0 0 0 0 0 0 0 0 0 0 0 0 0 0 0 0 0 0 0 0 0 0 0 0 0 0 0 0 0 0 0 0 0 0 0 0 0 0 0 0 0 0 0 0 0 0 0 0 0 0 0 0 0 0 0 0 0 0 0 0 0 0 0 0 0 0 0 0 0 0 0 0 0 0 0 0 0 0 0 0 0 0 0 0 0 0 0 0 0 0 0 0 0 0 0 0 0 0 0 0 0 0 0 0 0 0 0 0 0 0 0 0 0 0 0 0 0 0 0 0 0 0 0 0 0 0 0 0 0 0 0 0 0 0 0 0 0 0 0 0 0 0 0 0 0 0 0 0 0 0 0 0 0 0 0 0 0 0 0 0 0 0 0 0 0 0 0 0 0 0 0 0 0 0 0 0 0 0 0 0 0 0 0 0 0 0 0 0 0 0 0 0 0 0 0 0 0 0 0 0 0 0 0 0 0 0 0 0 0 0 0 0 0 0 0 0 0 0 0 0 0 0 0 0 0 0 0 0 0 0 0 0 0 0 0 0 0 0 0 0 0 0 0 0 0 0 0 0 0 0 0 0 0 0 0 0 0 0 0 0 0 0 0 0 0 0 0 0 0 0 0 0 0 0 0 0 0 0 0 0 0 0 0 0 0 0 0 0 0 0 0 0 0 0 0 0 0 0 0 0 0 0 0 0 0 0 0 0 0 0 0 0 0 0 0 0 0 0 0 0 0 0 0 0 0 0 0 0 0 0 0 0 0 0 0 0 0 0 0 0 0 0 0 0 0 0 0 0 0 0 0 0 0 0 0 0 0 0 0 0 0 0 0 0 0 0 0 0 0 0 0 0 0 0 0 0 0 0 0 0 0 0 0 0 0 0 0 0 0 0 0 0 0 0 0 0 0 0 0 0 0 0 0 0 0 0 0 0 0 0 0 0 0 0 0 0 0 0 0 0 0 0 0 0 0 0 0 0 0 0 0 0 0 0 0 0 0 0 0 0 0 0 0 0 0 0 0 0 0 0 0 0 0 0 0 0 0 0 0 0 0 0 0 0 0 0 0 0 0 0 0 0 0 0 0 0 0 0 0 0 0 0 0 0 0 0 0 0 0 0 0 0 0 0 0 0 0 0 0 0 0 0 0 0 0 0 0 0 0 0 0 0 0 0 0 0 0 0 0 0 0 0 0 0 0 0 0 0 0 0 0 0 0 0 0 0 0 0 0 0 0 0 0 0 0 0 0 0 0 0 0 0 0 0 0 0 0 0 0 0 0 0 0 0 0 0 0 0 0 0 0 0 0 0 0 0 0 0 0 0 0 0 0 0 0 0 0 0 0 0 0 0 0 0 0 0 0 0 0 0 0 0 0 0 0 0 0 0 0 0 0 0 0 0 0 0 0 0 0 0 0 0 0 0 0 0 0 0 0 0 0 0 0 0 0 0 0 0 0 0 0 0 0 0 0 0 0 0 0 0 0 0 0 0 0 0 0 0 0 0 0 0 0 0 0 0 0 0 0 0 0 0 0 0 0 0 0 0 0 0 0 0 0 0 0 0 0 0 0 0 0 0 0 0 0 0 0 0 0 0 0 0 0 0 0 0 0 0 0 0 0 0 0 0 0 0 0 0 0 0 0 0 0 0 0 0 0 0 0 0 0 0 0 0 0 0 0 0 0 0 0 0 0 0 0 0 0 0 0 0 0 0 0 0 0 0 0 0 0 0 0 0 0 0 0 0 0 0 0 0 0 0 0 0 0 0 0 0 0 0 0 0 0 0 0 0 0 0 0 0 0 0 0 0 0 0 0 0 0 0 0 0 0 0 0 0 0 0 0 0 0 0 0 0 0 0 0 0 0 0 0 0 0 0 0 0 0 0 0 0 0 0 0 0 0 0 0 0 0 0 0 0 0 0 0 0 0 0 0 0 0 0 0 0 0 0 0 0 0 0 0 0 0 0 0 0 0 0 0 0 0 0 0 0 0 0 0 0 0 0 0 0 0 0 0 0 0 0 0 0 0 0 0 0 0 0 0 0 0 0 0 0 0 0 0 0 0 0 0 0 0 0 0 0 0 0 0 0 0 0 0 0 0 0 0 0 0 0 0 0 0 0 0 0 0 0 0 0 0 0 0 0 0 0 0 0 0 0 0 0 0 0 0 0 0 0 0 0 0 0 0 0 0 0 0 0 0 0 0 0 0 0 0 0 0 0 0 0 0 0 0 0 0 0 0 0 0 0 0 0 0 0 0 0 0 0 0 0 0 0 0 0 0 0 0 0 0 0 0 0 0 0 0 0 0 0 0 0 0 0 0 0 0 0 0 0 0 0 0 0 0 0 0 0 0 0 0 0 0 0 0 0 0 0 0 0 0 0 0 0 0 0 0 0 0 0 0 0 0 0 0 0 0 0 0 0 0 0 0 0 0 0 0 0 0 0 0 0 0 0 0 0 0 0 0 0 0 0 0 0 0 0 0 0 0 0 0 0 0 0 0 0 0 0 0 0 0 0 0 0 0 0 0 0 0 0 0 0 0 0 0 0 0 0 0 0 0 0 0 0 0 0 0 0 0 0 0 0 0 0 0 0 0 0 0 0 0 0 0 0 0 0 0 0 0 0 0 0 0 0 0 0 0 0 0 0 0 0 0 0 0 0 0 0 0 0 0 0 0 0 0 0 0 0 0 0 0 0 0 0 0 0 0 0 0 0 0 0 0 0 0 0 0 0 0 0 0 0 0 0 0 0 0 0 0 0 0 0 0 0 0 0 0 0 0 0 0 0 0 0 0 0 0 0 0 0 0 0 0 0 0 0 0 0 0 0 0 0 0 0 0 0 0 0 0 0 0 0 0 0 0 0 0 0 0 0 0 0 0 0 0 0 0 0 0 0 0 0 0 0 0 0 0 0 0 0 0 0 0 0 0 0 0 0 0 0 0 0 0 0 0 0 0 0 0 0 0 0 0 0 0 0 0 0 0 0 0 0 0 0 0 0 0 0 0 0 0 0 0 0 0 0 0 0 0 0 0 0 0 0 0 0 0 0 0 0 0 0 0 0 0 0 0 0 0 0 0 0 0 0 0 0 0 0 0 0 0 0 0 0 0 0 0 0 0 0 0 0 0 0 0 0 0 0 0 0 0 0 0 0 0 0 0 0 0 0 0 0 0 0 0 0 0 0 0 0 0 0 0 0 0 0 0 0 0 0 0 0 0 0 0 0 0 0 0 0 0 0 0 0 0 0 0 0 0 0 0 0 0 0 0 0 0 0 0 0 0 0 0 0 0 0 0 0 0 0 0 0 0 0 0 0 0 0 0 0 0 0 0 0 0 0 0 0 0 0 0 0 0 0 0 0 0 0 0 0 0 0 0 0 0 0 0 0 0 0 0 0 0 0 0 0 0 0 0 0 0 0 0 0 0 0 0 0 0 0 0 0 0 0 0 0 0 0 0 0 0 0 0 0 0 0 0 0 0 0 0 0 0 0 0 0 0 0 0 0 0 0 0 0 0 0 0 0 0 0 0 0 0 0 0 0 0 0 0 0 0 0 0 0 0 0 0 0 0 0 0 0 0 0 0 0 0 0 0 0 0 0 0 0 0 0 0 0 0 0 0 0 0 0 0 0 0 0 0 0 0 0 0 0 0 0 0 0 0 0 0 0 0 0 0 0 0 0 0 0 0 0 0 0 0 0 0 0 0 0 0 0 0 0 0 0 0 0 0 0 0 0 0 0 0 0 0 0 0 0 0 0 0 0 0 0 0 0 0 0 0 0 0 0 0 0 0 0 0 0 0 0 0 0 0 0 0 0 0 0 0 0 0 0 0 0 0 0 0 0 0 0 0 0 0 0 0 0 0 0 0 0 0 0 0 0 0 0 0 0 0 0 0 0 0 0 0 0 0.00123474 6.74113e-05 0 0 0 0 0 0 0 0 0 0 0 0 0 0 0 0 0 0 0 0 0 0 0 0 0 0 0 0 0 0 0 0 0 0 0 0 0 0 0 0 0 0 0 0 0 0 0 0 0 0 0 0 0 0 0 0 0 0 0 0 0 0 0 0 0 0 0 0 0 0 0 0 0 0 0 0 0 0 0 0 0 0 0 0 0 0 0 0 0 0 0 0 0 0 </DataArray> 
</PointData> 
<Points> 
<DataArray type="Float32" NumberOfComponents="3"> 
3.5 0 0 3.54839 0 0 3.59677 0 0 3.64516 0 0 3.69355 0 0 3.74194 0 0 3.79032 0 0 3.83871 0 0 3.8871 0 0 3.93548 0 0 3.98387 0 0 4.03226 0 0 4.08065 0 0 4.12903 0 0 4.17742 0 0 4.22581 0 0 4.27419 0 0 4.32258 0 0 4.37097 0 0 4.41935 0 0 4.46774 0 0 4.51613 0 0 4.56452 0 0 4.6129 0 0 4.66129 0 0 4.70968 0 0 4.75806 0 0 4.80645 0 0 4.85484 0 0 4.90323 0 0 4.95161 0 0 5 0 0 3.5 0.0645161 0 3.54839 0.0645161 0 3.59677 0.0645161 0 3.64516 0.0645161 0 3.69355 0.0645161 0 3.74194 0.0645161 0 3.79032 0.0645161 0 3.83871 0.0645161 0 3.8871 0.0645161 0 3.93548 0.0645161 0 3.98387 0.0645161 0 4.03226 0.0645161 0 4.08065 0.0645161 0 4.12903 0.0645161 0 4.17742 0.0645161 0 4.22581 0.0645161 0 4.27419 0.0645161 0 4.32258 0.0645161 0 4.37097 0.0645161 0 4.41935 0.0645161 0 4.46774 0.0645161 0 4.51613 0.0645161 0 4.56452 0.0645161 0 4.6129 0.0645161 0 4.66129 0.0645161 0 4.70968 0.0645161 0 4.75806 0.0645161 0 4.80645 0.0645161 0 4.85484 0.0645161 0 4.90323 0.0645161 0 4.95161 0.0645161 0 5 0.0645161 0 3.5 0.129032 0 3.54839 0.129032 0 3.59677 0.129032 0 3.64516 0.129032 0 3.69355 0.129032 0 3.74194 0.129032 0 3.79032 0.129032 0 3.83871 0.129032 0 3.8871 0.129032 0 3.93548 0.129032 0 3.98387 0.129032 0 4.03226 0.129032 0 4.08065 0.129032 0 4.12903 0.129032 0 4.17742 0.129032 0 4.22581 0.129032 0 4.27419 0.129032 0 4.32258 0.129032 0 4.37097 0.129032 0 4.41935 0.129032 0 4.46774 0.129032 0 4.51613 0.129032 0 4.56452 0.129032 0 4.6129 0.129032 0 4.66129 0.129032 0 4.70968 0.129032 0 4.75806 0.129032 0 4.80645 0.129032 0 4.85484 0.129032 0 4.90323 0.129032 0 4.95161 0.129032 0 5 0.129032 0 3.5 0.193548 0 3.54839 0.193548 0 3.59677 0.193548 0 3.64516 0.193548 0 3.69355 0.193548 0 3.74194 0.193548 0 3.79032 0.193548 0 3.83871 0.193548 0 3.8871 0.193548 0 3.93548 0.193548 0 3.98387 0.193548 0 4.03226 0.193548 0 4.08065 0.193548 0 4.12903 0.193548 0 4.17742 0.193548 0 4.22581 0.193548 0 4.27419 0.193548 0 4.32258 0.193548 0 4.37097 0.193548 0 4.41935 0.193548 0 4.46774 0.193548 0 4.51613 0.193548 0 4.56452 0.193548 0 4.6129 0.193548 0 4.66129 0.193548 0 4.70968 0.193548 0 4.75806 0.193548 0 4.80645 0.193548 0 4.85484 0.193548 0 4.90323 0.193548 0 4.95161 0.193548 0 5 0.193548 0 3.5 0.258065 0 3.54839 0.258065 0 3.59677 0.258065 0 3.64516 0.258065 0 3.69355 0.258065 0 3.74194 0.258065 0 3.79032 0.258065 0 3.83871 0.258065 0 3.8871 0.258065 0 3.93548 0.258065 0 3.98387 0.258065 0 4.03226 0.258065 0 4.08065 0.258065 0 4.12903 0.258065 0 4.17742 0.258065 0 4.22581 0.258065 0 4.27419 0.258065 0 4.32258 0.258065 0 4.37097 0.258065 0 4.41935 0.258065 0 4.46774 0.258065 0 4.51613 0.258065 0 4.56452 0.258065 0 4.6129 0.258065 0 4.66129 0.258065 0 4.70968 0.258065 0 4.75806 0.258065 0 4.80645 0.258065 0 4.85484 0.258065 0 4.90323 0.258065 0 4.95161 0.258065 0 5 0.258065 0 3.5 0.322581 0 3.54839 0.322581 0 3.59677 0.322581 0 3.64516 0.322581 0 3.69355 0.322581 0 3.74194 0.322581 0 3.79032 0.322581 0 3.83871 0.322581 0 3.8871 0.322581 0 3.93548 0.322581 0 3.98387 0.322581 0 4.03226 0.322581 0 4.08065 0.322581 0 4.12903 0.322581 0 4.17742 0.322581 0 4.22581 0.322581 0 4.27419 0.322581 0 4.32258 0.322581 0 4.37097 0.322581 0 4.41935 0.322581 0 4.46774 0.322581 0 4.51613 0.322581 0 4.56452 0.322581 0 4.6129 0.322581 0 4.66129 0.322581 0 4.70968 0.322581 0 4.75806 0.322581 0 4.80645 0.322581 0 4.85484 0.322581 0 4.90323 0.322581 0 4.95161 0.322581 0 5 0.322581 0 3.5 0.387097 0 3.54839 0.387097 0 3.59677 0.387097 0 3.64516 0.387097 0 3.69355 0.387097 0 3.74194 0.387097 0 3.79032 0.387097 0 3.83871 0.387097 0 3.8871 0.387097 0 3.93548 0.387097 0 3.98387 0.387097 0 4.03226 0.387097 0 4.08065 0.387097 0 4.12903 0.387097 0 4.17742 0.387097 0 4.22581 0.387097 0 4.27419 0.387097 0 4.32258 0.387097 0 4.37097 0.387097 0 4.41935 0.387097 0 4.46774 0.387097 0 4.51613 0.387097 0 4.56452 0.387097 0 4.6129 0.387097 0 4.66129 0.387097 0 4.70968 0.387097 0 4.75806 0.387097 0 4.80645 0.387097 0 4.85484 0.387097 0 4.90323 0.387097 0 4.95161 0.387097 0 5 0.387097 0 3.5 0.451613 0 3.54839 0.451613 0 3.59677 0.451613 0 3.64516 0.451613 0 3.69355 0.451613 0 3.74194 0.451613 0 3.79032 0.451613 0 3.83871 0.451613 0 3.8871 0.451613 0 3.93548 0.451613 0 3.98387 0.451613 0 4.03226 0.451613 0 4.08065 0.451613 0 4.12903 0.451613 0 4.17742 0.451613 0 4.22581 0.451613 0 4.27419 0.451613 0 4.32258 0.451613 0 4.37097 0.451613 0 4.41935 0.451613 0 4.46774 0.451613 0 4.51613 0.451613 0 4.56452 0.451613 0 4.6129 0.451613 0 4.66129 0.451613 0 4.70968 0.451613 0 4.75806 0.451613 0 4.80645 0.451613 0 4.85484 0.451613 0 4.90323 0.451613 0 4.95161 0.451613 0 5 0.451613 0 3.5 0.516129 0 3.54839 0.516129 0 3.59677 0.516129 0 3.64516 0.516129 0 3.69355 0.516129 0 3.74194 0.516129 0 3.79032 0.516129 0 3.83871 0.516129 0 3.8871 0.516129 0 3.93548 0.516129 0 3.98387 0.516129 0 4.03226 0.516129 0 4.08065 0.516129 0 4.12903 0.516129 0 4.17742 0.516129 0 4.22581 0.516129 0 4.27419 0.516129 0 4.32258 0.516129 0 4.37097 0.516129 0 4.41935 0.516129 0 4.46774 0.516129 0 4.51613 0.516129 0 4.56452 0.516129 0 4.6129 0.516129 0 4.66129 0.516129 0 4.70968 0.516129 0 4.75806 0.516129 0 4.80645 0.516129 0 4.85484 0.516129 0 4.90323 0.516129 0 4.95161 0.516129 0 5 0.516129 0 3.5 0.580645 0 3.54839 0.580645 0 3.59677 0.580645 0 3.64516 0.580645 0 3.69355 0.580645 0 3.74194 0.580645 0 3.79032 0.580645 0 3.83871 0.580645 0 3.8871 0.580645 0 3.93548 0.580645 0 3.98387 0.580645 0 4.03226 0.580645 0 4.08065 0.580645 0 4.12903 0.580645 0 4.17742 0.580645 0 4.22581 0.580645 0 4.27419 0.580645 0 4.32258 0.580645 0 4.37097 0.580645 0 4.41935 0.580645 0 4.46774 0.580645 0 4.51613 0.580645 0 4.56452 0.580645 0 4.6129 0.580645 0 4.66129 0.580645 0 4.70968 0.580645 0 4.75806 0.580645 0 4.80645 0.580645 0 4.85484 0.580645 0 4.90323 0.580645 0 4.95161 0.580645 0 5 0.580645 0 3.5 0.645161 0 3.54839 0.645161 0 3.59677 0.645161 0 3.64516 0.645161 0 3.69355 0.645161 0 3.74194 0.645161 0 3.79032 0.645161 0 3.83871 0.645161 0 3.8871 0.645161 0 3.93548 0.645161 0 3.98387 0.645161 0 4.03226 0.645161 0 4.08065 0.645161 0 4.12903 0.645161 0 4.17742 0.645161 0 4.22581 0.645161 0 4.27419 0.645161 0 4.32258 0.645161 0 4.37097 0.645161 0 4.41935 0.645161 0 4.46774 0.645161 0 4.51613 0.645161 0 4.56452 0.645161 0 4.6129 0.645161 0 4.66129 0.645161 0 4.70968 0.645161 0 4.75806 0.645161 0 4.80645 0.645161 0 4.85484 0.645161 0 4.90323 0.645161 0 4.95161 0.645161 0 5 0.645161 0 3.5 0.709677 0 3.54839 0.709677 0 3.59677 0.709677 0 3.64516 0.709677 0 3.69355 0.709677 0 3.74194 0.709677 0 3.79032 0.709677 0 3.83871 0.709677 0 3.8871 0.709677 0 3.93548 0.709677 0 3.98387 0.709677 0 4.03226 0.709677 0 4.08065 0.709677 0 4.12903 0.709677 0 4.17742 0.709677 0 4.22581 0.709677 0 4.27419 0.709677 0 4.32258 0.709677 0 4.37097 0.709677 0 4.41935 0.709677 0 4.46774 0.709677 0 4.51613 0.709677 0 4.56452 0.709677 0 4.6129 0.709677 0 4.66129 0.709677 0 4.70968 0.709677 0 4.75806 0.709677 0 4.80645 0.709677 0 4.85484 0.709677 0 4.90323 0.709677 0 4.95161 0.709677 0 5 0.709677 0 3.5 0.774194 0 3.54839 0.774194 0 3.59677 0.774194 0 3.64516 0.774194 0 3.69355 0.774194 0 3.74194 0.774194 0 3.79032 0.774194 0 3.83871 0.774194 0 3.8871 0.774194 0 3.93548 0.774194 0 3.98387 0.774194 0 4.03226 0.774194 0 4.08065 0.774194 0 4.12903 0.774194 0 4.17742 0.774194 0 4.22581 0.774194 0 4.27419 0.774194 0 4.32258 0.774194 0 4.37097 0.774194 0 4.41935 0.774194 0 4.46774 0.774194 0 4.51613 0.774194 0 4.56452 0.774194 0 4.6129 0.774194 0 4.66129 0.774194 0 4.70968 0.774194 0 4.75806 0.774194 0 4.80645 0.774194 0 4.85484 0.774194 0 4.90323 0.774194 0 4.95161 0.774194 0 5 0.774194 0 3.5 0.83871 0 3.54839 0.83871 0 3.59677 0.83871 0 3.64516 0.83871 0 3.69355 0.83871 0 3.74194 0.83871 0 3.79032 0.83871 0 3.83871 0.83871 0 3.8871 0.83871 0 3.93548 0.83871 0 3.98387 0.83871 0 4.03226 0.83871 0 4.08065 0.83871 0 4.12903 0.83871 0 4.17742 0.83871 0 4.22581 0.83871 0 4.27419 0.83871 0 4.32258 0.83871 0 4.37097 0.83871 0 4.41935 0.83871 0 4.46774 0.83871 0 4.51613 0.83871 0 4.56452 0.83871 0 4.6129 0.83871 0 4.66129 0.83871 0 4.70968 0.83871 0 4.75806 0.83871 0 4.80645 0.83871 0 4.85484 0.83871 0 4.90323 0.83871 0 4.95161 0.83871 0 5 0.83871 0 3.5 0.903226 0 3.54839 0.903226 0 3.59677 0.903226 0 3.64516 0.903226 0 3.69355 0.903226 0 3.74194 0.903226 0 3.79032 0.903226 0 3.83871 0.903226 0 3.8871 0.903226 0 3.93548 0.903226 0 3.98387 0.903226 0 4.03226 0.903226 0 4.08065 0.903226 0 4.12903 0.903226 0 4.17742 0.903226 0 4.22581 0.903226 0 4.27419 0.903226 0 4.32258 0.903226 0 4.37097 0.903226 0 4.41935 0.903226 0 4.46774 0.903226 0 4.51613 0.903226 0 4.56452 0.903226 0 4.6129 0.903226 0 4.66129 0.903226 0 4.70968 0.903226 0 4.75806 0.903226 0 4.80645 0.903226 0 4.85484 0.903226 0 4.90323 0.903226 0 4.95161 0.903226 0 5 0.903226 0 3.5 0.967742 0 3.54839 0.967742 0 3.59677 0.967742 0 3.64516 0.967742 0 3.69355 0.967742 0 3.74194 0.967742 0 3.79032 0.967742 0 3.83871 0.967742 0 3.8871 0.967742 0 3.93548 0.967742 0 3.98387 0.967742 0 4.03226 0.967742 0 4.08065 0.967742 0 4.12903 0.967742 0 4.17742 0.967742 0 4.22581 0.967742 0 4.27419 0.967742 0 4.32258 0.967742 0 4.37097 0.967742 0 4.41935 0.967742 0 4.46774 0.967742 0 4.51613 0.967742 0 4.56452 0.967742 0 4.6129 0.967742 0 4.66129 0.967742 0 4.70968 0.967742 0 4.75806 0.967742 0 4.80645 0.967742 0 4.85484 0.967742 0 4.90323 0.967742 0 4.95161 0.967742 0 5 0.967742 0 3.5 1.03226 0 3.54839 1.03226 0 3.59677 1.03226 0 3.64516 1.03226 0 3.69355 1.03226 0 3.74194 1.03226 0 3.79032 1.03226 0 3.83871 1.03226 0 3.8871 1.03226 0 3.93548 1.03226 0 3.98387 1.03226 0 4.03226 1.03226 0 4.08065 1.03226 0 4.12903 1.03226 0 4.17742 1.03226 0 4.22581 1.03226 0 4.27419 1.03226 0 4.32258 1.03226 0 4.37097 1.03226 0 4.41935 1.03226 0 4.46774 1.03226 0 4.51613 1.03226 0 4.56452 1.03226 0 4.6129 1.03226 0 4.66129 1.03226 0 4.70968 1.03226 0 4.75806 1.03226 0 4.80645 1.03226 0 4.85484 1.03226 0 4.90323 1.03226 0 4.95161 1.03226 0 5 1.03226 0 3.5 1.09677 0 3.54839 1.09677 0 3.59677 1.09677 0 3.64516 1.09677 0 3.69355 1.09677 0 3.74194 1.09677 0 3.79032 1.09677 0 3.83871 1.09677 0 3.8871 1.09677 0 3.93548 1.09677 0 3.98387 1.09677 0 4.03226 1.09677 0 4.08065 1.09677 0 4.12903 1.09677 0 4.17742 1.09677 0 4.22581 1.09677 0 4.27419 1.09677 0 4.32258 1.09677 0 4.37097 1.09677 0 4.41935 1.09677 0 4.46774 1.09677 0 4.51613 1.09677 0 4.56452 1.09677 0 4.6129 1.09677 0 4.66129 1.09677 0 4.70968 1.09677 0 4.75806 1.09677 0 4.80645 1.09677 0 4.85484 1.09677 0 4.90323 1.09677 0 4.95161 1.09677 0 5 1.09677 0 3.5 1.16129 0 3.54839 1.16129 0 3.59677 1.16129 0 3.64516 1.16129 0 3.69355 1.16129 0 3.74194 1.16129 0 3.79032 1.16129 0 3.83871 1.16129 0 3.8871 1.16129 0 3.93548 1.16129 0 3.98387 1.16129 0 4.03226 1.16129 0 4.08065 1.16129 0 4.12903 1.16129 0 4.17742 1.16129 0 4.22581 1.16129 0 4.27419 1.16129 0 4.32258 1.16129 0 4.37097 1.16129 0 4.41935 1.16129 0 4.46774 1.16129 0 4.51613 1.16129 0 4.56452 1.16129 0 4.6129 1.16129 0 4.66129 1.16129 0 4.70968 1.16129 0 4.75806 1.16129 0 4.80645 1.16129 0 4.85484 1.16129 0 4.90323 1.16129 0 4.95161 1.16129 0 5 1.16129 0 3.5 1.22581 0 3.54839 1.22581 0 3.59677 1.22581 0 3.64516 1.22581 0 3.69355 1.22581 0 3.74194 1.22581 0 3.79032 1.22581 0 3.83871 1.22581 0 3.8871 1.22581 0 3.93548 1.22581 0 3.98387 1.22581 0 4.03226 1.22581 0 4.08065 1.22581 0 4.12903 1.22581 0 4.17742 1.22581 0 4.22581 1.22581 0 4.27419 1.22581 0 4.32258 1.22581 0 4.37097 1.22581 0 4.41935 1.22581 0 4.46774 1.22581 0 4.51613 1.22581 0 4.56452 1.22581 0 4.6129 1.22581 0 4.66129 1.22581 0 4.70968 1.22581 0 4.75806 1.22581 0 4.80645 1.22581 0 4.85484 1.22581 0 4.90323 1.22581 0 4.95161 1.22581 0 5 1.22581 0 3.5 1.29032 0 3.54839 1.29032 0 3.59677 1.29032 0 3.64516 1.29032 0 3.69355 1.29032 0 3.74194 1.29032 0 3.79032 1.29032 0 3.83871 1.29032 0 3.8871 1.29032 0 3.93548 1.29032 0 3.98387 1.29032 0 4.03226 1.29032 0 4.08065 1.29032 0 4.12903 1.29032 0 4.17742 1.29032 0 4.22581 1.29032 0 4.27419 1.29032 0 4.32258 1.29032 0 4.37097 1.29032 0 4.41935 1.29032 0 4.46774 1.29032 0 4.51613 1.29032 0 4.56452 1.29032 0 4.6129 1.29032 0 4.66129 1.29032 0 4.70968 1.29032 0 4.75806 1.29032 0 4.80645 1.29032 0 4.85484 1.29032 0 4.90323 1.29032 0 4.95161 1.29032 0 5 1.29032 0 3.5 1.35484 0 3.54839 1.35484 0 3.59677 1.35484 0 3.64516 1.35484 0 3.69355 1.35484 0 3.74194 1.35484 0 3.79032 1.35484 0 3.83871 1.35484 0 3.8871 1.35484 0 3.93548 1.35484 0 3.98387 1.35484 0 4.03226 1.35484 0 4.08065 1.35484 0 4.12903 1.35484 0 4.17742 1.35484 0 4.22581 1.35484 0 4.27419 1.35484 0 4.32258 1.35484 0 4.37097 1.35484 0 4.41935 1.35484 0 4.46774 1.35484 0 4.51613 1.35484 0 4.56452 1.35484 0 4.6129 1.35484 0 4.66129 1.35484 0 4.70968 1.35484 0 4.75806 1.35484 0 4.80645 1.35484 0 4.85484 1.35484 0 4.90323 1.35484 0 4.95161 1.35484 0 5 1.35484 0 3.5 1.41935 0 3.54839 1.41935 0 3.59677 1.41935 0 3.64516 1.41935 0 3.69355 1.41935 0 3.74194 1.41935 0 3.79032 1.41935 0 3.83871 1.41935 0 3.8871 1.41935 0 3.93548 1.41935 0 3.98387 1.41935 0 4.03226 1.41935 0 4.08065 1.41935 0 4.12903 1.41935 0 4.17742 1.41935 0 4.22581 1.41935 0 4.27419 1.41935 0 4.32258 1.41935 0 4.37097 1.41935 0 4.41935 1.41935 0 4.46774 1.41935 0 4.51613 1.41935 0 4.56452 1.41935 0 4.6129 1.41935 0 4.66129 1.41935 0 4.70968 1.41935 0 4.75806 1.41935 0 4.80645 1.41935 0 4.85484 1.41935 0 4.90323 1.41935 0 4.95161 1.41935 0 5 1.41935 0 3.5 1.48387 0 3.54839 1.48387 0 3.59677 1.48387 0 3.64516 1.48387 0 3.69355 1.48387 0 3.74194 1.48387 0 3.79032 1.48387 0 3.83871 1.48387 0 3.8871 1.48387 0 3.93548 1.48387 0 3.98387 1.48387 0 4.03226 1.48387 0 4.08065 1.48387 0 4.12903 1.48387 0 4.17742 1.48387 0 4.22581 1.48387 0 4.27419 1.48387 0 4.32258 1.48387 0 4.37097 1.48387 0 4.41935 1.48387 0 4.46774 1.48387 0 4.51613 1.48387 0 4.56452 1.48387 0 4.6129 1.48387 0 4.66129 1.48387 0 4.70968 1.48387 0 4.75806 1.48387 0 4.80645 1.48387 0 4.85484 1.48387 0 4.90323 1.48387 0 4.95161 1.48387 0 5 1.48387 0 3.5 1.54839 0 3.54839 1.54839 0 3.59677 1.54839 0 3.64516 1.54839 0 3.69355 1.54839 0 3.74194 1.54839 0 3.79032 1.54839 0 3.83871 1.54839 0 3.8871 1.54839 0 3.93548 1.54839 0 3.98387 1.54839 0 4.03226 1.54839 0 4.08065 1.54839 0 4.12903 1.54839 0 4.17742 1.54839 0 4.22581 1.54839 0 4.27419 1.54839 0 4.32258 1.54839 0 4.37097 1.54839 0 4.41935 1.54839 0 4.46774 1.54839 0 4.51613 1.54839 0 4.56452 1.54839 0 4.6129 1.54839 0 4.66129 1.54839 0 4.70968 1.54839 0 4.75806 1.54839 0 4.80645 1.54839 0 4.85484 1.54839 0 4.90323 1.54839 0 4.95161 1.54839 0 5 1.54839 0 3.5 1.6129 0 3.54839 1.6129 0 3.59677 1.6129 0 3.64516 1.6129 0 3.69355 1.6129 0 3.74194 1.6129 0 3.79032 1.6129 0 3.83871 1.6129 0 3.8871 1.6129 0 3.93548 1.6129 0 3.98387 1.6129 0 4.03226 1.6129 0 4.08065 1.6129 0 4.12903 1.6129 0 4.17742 1.6129 0 4.22581 1.6129 0 4.27419 1.6129 0 4.32258 1.6129 0 4.37097 1.6129 0 4.41935 1.6129 0 4.46774 1.6129 0 4.51613 1.6129 0 4.56452 1.6129 0 4.6129 1.6129 0 4.66129 1.6129 0 4.70968 1.6129 0 4.75806 1.6129 0 4.80645 1.6129 0 4.85484 1.6129 0 4.90323 1.6129 0 4.95161 1.6129 0 5 1.6129 0 3.5 1.67742 0 3.54839 1.67742 0 3.59677 1.67742 0 3.64516 1.67742 0 3.69355 1.67742 0 3.74194 1.67742 0 3.79032 1.67742 0 3.83871 1.67742 0 3.8871 1.67742 0 3.93548 1.67742 0 3.98387 1.67742 0 4.03226 1.67742 0 4.08065 1.67742 0 4.12903 1.67742 0 4.17742 1.67742 0 4.22581 1.67742 0 4.27419 1.67742 0 4.32258 1.67742 0 4.37097 1.67742 0 4.41935 1.67742 0 4.46774 1.67742 0 4.51613 1.67742 0 4.56452 1.67742 0 4.6129 1.67742 0 4.66129 1.67742 0 4.70968 1.67742 0 4.75806 1.67742 0 4.80645 1.67742 0 4.85484 1.67742 0 4.90323 1.67742 0 4.95161 1.67742 0 5 1.67742 0 3.5 1.74194 0 3.54839 1.74194 0 3.59677 1.74194 0 3.64516 1.74194 0 3.69355 1.74194 0 3.74194 1.74194 0 3.79032 1.74194 0 3.83871 1.74194 0 3.8871 1.74194 0 3.93548 1.74194 0 3.98387 1.74194 0 4.03226 1.74194 0 4.08065 1.74194 0 4.12903 1.74194 0 4.17742 1.74194 0 4.22581 1.74194 0 4.27419 1.74194 0 4.32258 1.74194 0 4.37097 1.74194 0 4.41935 1.74194 0 4.46774 1.74194 0 4.51613 1.74194 0 4.56452 1.74194 0 4.6129 1.74194 0 4.66129 1.74194 0 4.70968 1.74194 0 4.75806 1.74194 0 4.80645 1.74194 0 4.85484 1.74194 0 4.90323 1.74194 0 4.95161 1.74194 0 5 1.74194 0 3.5 1.80645 0 3.54839 1.80645 0 3.59677 1.80645 0 3.64516 1.80645 0 3.69355 1.80645 0 3.74194 1.80645 0 3.79032 1.80645 0 3.83871 1.80645 0 3.8871 1.80645 0 3.93548 1.80645 0 3.98387 1.80645 0 4.03226 1.80645 0 4.08065 1.80645 0 4.12903 1.80645 0 4.17742 1.80645 0 4.22581 1.80645 0 4.27419 1.80645 0 4.32258 1.80645 0 4.37097 1.80645 0 4.41935 1.80645 0 4.46774 1.80645 0 4.51613 1.80645 0 4.56452 1.80645 0 4.6129 1.80645 0 4.66129 1.80645 0 4.70968 1.80645 0 4.75806 1.80645 0 4.80645 1.80645 0 4.85484 1.80645 0 4.90323 1.80645 0 4.95161 1.80645 0 5 1.80645 0 3.5 1.87097 0 3.54839 1.87097 0 3.59677 1.87097 0 3.64516 1.87097 0 3.69355 1.87097 0 3.74194 1.87097 0 3.79032 1.87097 0 3.83871 1.87097 0 3.8871 1.87097 0 3.93548 1.87097 0 3.98387 1.87097 0 4.03226 1.87097 0 4.08065 1.87097 0 4.12903 1.87097 0 4.17742 1.87097 0 4.22581 1.87097 0 4.27419 1.87097 0 4.32258 1.87097 0 4.37097 1.87097 0 4.41935 1.87097 0 4.46774 1.87097 0 4.51613 1.87097 0 4.56452 1.87097 0 4.6129 1.87097 0 4.66129 1.87097 0 4.70968 1.87097 0 4.75806 1.87097 0 4.80645 1.87097 0 4.85484 1.87097 0 4.90323 1.87097 0 4.95161 1.87097 0 5 1.87097 0 3.5 1.93548 0 3.54839 1.93548 0 3.59677 1.93548 0 3.64516 1.93548 0 3.69355 1.93548 0 3.74194 1.93548 0 3.79032 1.93548 0 3.83871 1.93548 0 3.8871 1.93548 0 3.93548 1.93548 0 3.98387 1.93548 0 4.03226 1.93548 0 4.08065 1.93548 0 4.12903 1.93548 0 4.17742 1.93548 0 4.22581 1.93548 0 4.27419 1.93548 0 4.32258 1.93548 0 4.37097 1.93548 0 4.41935 1.93548 0 4.46774 1.93548 0 4.51613 1.93548 0 4.56452 1.93548 0 4.6129 1.93548 0 4.66129 1.93548 0 4.70968 1.93548 0 4.75806 1.93548 0 4.80645 1.93548 0 4.85484 1.93548 0 4.90323 1.93548 0 4.95161 1.93548 0 5 1.93548 0 3.5 2 0 3.54839 2 0 3.59677 2 0 3.64516 2 0 3.69355 2 0 3.74194 2 0 3.79032 2 0 3.83871 2 0 3.8871 2 0 3.93548 2 0 3.98387 2 0 4.03226 2 0 4.08065 2 0 4.12903 2 0 4.17742 2 0 4.22581 2 0 4.27419 2 0 4.32258 2 0 4.37097 2 0 4.41935 2 0 4.46774 2 0 4.51613 2 0 4.56452 2 0 4.6129 2 0 4.66129 2 0 4.70968 2 0 4.75806 2 0 4.80645 2 0 4.85484 2 0 4.90323 2 0 4.95161 2 0 5 2 0 
</DataArray>
</Points> 
</Piece> 
</StructuredGrid> 
</VTKFile> 
