<?xml version="1.0"?> 
<VTKFile type="StructuredGrid" version="0.1"> 
<StructuredGrid WholeExtent="0 31 0 31 0 0"> 
<Piece Extent="0 31 0 31 0 0"> 
<PointData>
<DataArray type="Float32" Name="u" format="ascii" NumberOfComponents="3"> 
0 0 0 4.156e-05 -4.86131e-05 0 7.50635e-05 -6.52306e-05 0 0.000110305 -7.24151e-05 0 0.000147 -7.56314e-05 0 0.000185089 -7.71003e-05 0 0.000223954 -7.78584e-05 0 0.000263433 -7.83088e-05 0 0.000303258 -7.86496e-05 0 0.000343336 -7.8941e-05 0 0.000383567 -7.92152e-05 0 0.000423906 -7.94748e-05 0 0.000464313 -7.97212e-05 0 0.000504767 -7.99503e-05 0 0.000545253 -8.01593e-05 0 0.000585762 -8.03448e-05 0 0.000626289 -8.05045e-05 0 0.000666829 -8.06364e-05 0 0.000707382 -8.07391e-05 0 0.000747948 -8.08119e-05 0 0.000788528 -8.08545e-05 0 0.000829124 -8.08671e-05 0 0.000869738 -8.08506e-05 0 0.000910374 -8.08071e-05 0 0.000951031 -8.07372e-05 0 0.000991712 -8.06451e-05 0 0.00103241 -8.05206e-05 0 0.00107311 -8.03598e-05 0 0.00111378 -8.00838e-05 0 0.00115444 -7.95905e-05 0 0.00119499 -7.8415e-05 0 0.00123572 -7.49308e-05 0 0 0 0 0 0 0 0 0 0 0 0 0 0 0 0 0 0 0 0 0 0 0 0 0 0 0 0 0 0 0 0 0 0 0 0 0 0 0 0 0 0 0 0 0 0 0 0 0 0 0 0 0 0 0 0 0 0 0 0 0 0 0 0 0 0 0 0 0 0 0 0 0 0 0 0 0 0 0 0 0 0 0 0 0 0 0 0 0 0 0 0 0 0 0 0 0 0 0 0 0 0 0 0 0 0 0 0 0 0 0 0 0 0 0 0 0 0 0 0 0 0 0 0 0 0 0 0 0 0 0 0 0 0 0 0 0 0 0 0 0 0 0 0 0 0 0 0 0 0 0 0 0 0 0 0 0 0 0 0 0 0 0 0 0 0 0 0 0 0 0 0 0 0 0 0 0 0 0 0 0 0 0 0 0 0 0 0 0 0 0 0 0 0 0 0 0 0 0 0 0 0 0 0 0 0 0 0 0 0 0 0 0 0 0 0 0 0 0 0 0 0 0 0 0 0 0 0 0 0 0 0 0 0 0 0 0 0 0 0 0 0 0 0 0 0 0 0 0 0 0 0 0 0 0 0 0 0 0 0 0 0 0 0 0 0 0 0 0 0 0 0 0 0 0 0 0 0 0 0 0 0 0 0 0 0 0 0 0 0 0 0 0 0 0 0 0 0 0 0 0 0 0 0 0 0 0 0 0 0 0 0 0 0 0 0 0 0 0 0 0 0 0 0 0 0 0 0 0 0 0 0 0 0 0 0 0 0 0 0 0 0 0 0 0 0 0 0 0 0 0 0 0 0 0 0 0 0 0 0 0 0 0 0 0 0 0 0 0 0 0 0 0 0 0 0 0 0 0 0 0 0 0 0 0 0 0 0 0 0 0 0 0 0 0 0 0 0 0 0 0 0 0 0 0 0 0 0 0 0 0 0 0 0 0 0 0 0 0 0 0 0 0 0 0 0 0 0 0 0 0 0 0 0 0 0 0 0 0 0 0 0 0 0 0 0 0 0 0 0 0 0 0 0 0 0 0 0 0 0 0 0 0 0 0 0 0 0 0 0 0 0 0 0 0 0 0 0 0 0 0 0 0 0 0 0 0 0 0 0 0 0 0 0 0 0 0 0 0 0 0 0 0 0 0 0 0 0 0 0 0 0 0 0 0 0 0 0 0 0 0 0 0 0 0 0 0 0 0 0 0 0 0 0 0 0 0 0 0 0 0 0 0 0 0 0 0 0 0 0 0 0 0 0 0 0 0 0 0 0 0 0 0 0 0 0 0 0 0 0 0 0 0 0 0 0 0 0 0 0 0 0 0 0 0 0 0 0 0 0 0 0 0 0 0 0 0 0 0 0 0 0 0 0 0 0 0 0 0 0 0 0 0 0 0 0 0 0 0 0 0 0 0 0 0 0 0 0 0 0 0 0 0 0 0 0 0 0 0 0 0 0 0 0 0 0 0 0 0 0 0 0 0 0 0 0 0 0 0 0 0 0 0 0 0 0 0 0 0 0 0 0 0 0 0 0 0 0 0 0 0 0 0 0 0 0 0 0 0 0 0 0 0 0 0 0 0 0 0 0 0 0 0 0 0 0 0 0 0 0 0 0 0 0 0 0 0 0 0 0 0 0 0 0 0 0 0 0 0 0 0 0 0 0 0 0 0 0 0 0 0 0 0 0 0 0 0 0 0 0 0 0 0 0 0 0 0 0 0 0 0 0 0 0 0 0 0 0 0 0 0 0 0 0 0 0 0 0 0 0 0 0 0 0 0 0 0 0 0 0 0 0 0 0 0 0 0 0 0 0 0 0 0 0 0 0 0 0 0 0 0 0 0 0 0 0 0 0 0 0 0 0 0 0 0 0 0 0 0 0 0 0 0 0 0 0 0 0 0 0 0 0 0 0 0 0 0 0 0 0 0 0 0 0 0 0 0 0 0 0 0 0 0 0 0 0 0 0 0 0 0 0 0 0 0 0 0 0 0 0 0 0 0 0 0 0 0 0 0 0 0 0 0 0 0 0 0 0 0 0 0 0 0 0 0 0 0 0 0 0 0 0 0 0 0 0 0 0 0 0 0 0 0 0 0 0 0 0 0 0 0 0 0 0 0 0 0 0 0 0 0 0 0 0 0 0 0 0 0 0 0 0 0 0 0 0 0 0 0 0 0 0 0 0 0 0 0 0 0 0 0 0 0 0 0 0 0 0 0 0 0 0 0 0 0 0 0 0 0 0 0 0 0 0 0 0 0 0 0 0 0 0 0 0 0 0 0 0 0 0 0 0 0 0 0 0 0 0 0 0 0 0 0 0 0 0 0 0 0 0 0 0 0 0 0 0 0 0 0 0 0 0 0 0 0 0 0 0 0 0 0 0 0 0 0 0 0 0 0 0 0 0 0 0 0 0 0 0 0 0 0 0 0 0 0 0 0 0 0 0 0 0 0 0 0 0 0 0 0 0 0 0 0 0 0 0 0 0 0 0 0 0 0 0 0 0 0 0 0 0 0 0 0 0 0 0 0 0 0 0 0 0 0 0 0 0 0 0 0 0 0 0 0 0 0 0 0 0 0 0 0 0 0 0 0 0 0 0 0 0 0 0 0 0 0 0 0 0 0 0 0 0 0 0 0 0 0 0 0 0 0 0 0 0 0 0 0 0 0 0 0 0 0 0 0 0 0 0 0 0 0 0 0 0 0 0 0 0 0 0 0 0 0 0 0 0 0 0 0 0 0 0 0 0 0 0 0 0 0 0 0 0 0 0 0 0 0 0 0 0 0 0 0 0 0 0 0 0 0 0 0 0 0 0 0 0 0 0 0 0 0 0 0 0 0 0 0 0 0 0 0 0 0 0 0 0 0 0 0 0 0 0 0 0 0 0 0 0 0 0 0 0 0 0 0 0 0 0 0 0 0 0 0 0 0 0 0 0 0 0 0 0 0 0 0 0 0 0 0 0 0 0 0 0 0 0 0 0 0 0 0 0 0 0 0 0 0 0 0 0 0 0 0 0 0 0 0 0 0 0 0 0 0 0 0 0 0 0 0 0 0 0 0 0 0 0 0 0 0 0 0 0 0 0 0 0 0 0 0 0 0 0 0 0 0 0 0 0 0 0 0 0 0 0 0 0 0 0 0 0 0 0 0 0 0 0 0 0 0 0 0 0 0 0 0 0 0 0 0 0 0 0 0 0 0 0 0 0 0 0 0 0 0 0 0 0 0 0 0 0 0 0 0 0 0 0 0 0 0 0 0 0 0 0 0 0 0 0 0 0 0 0 0 0 0 0 0 0 0 0 0 0 0 0 0 0 0 0 0 0 0 0 0 0 0 0 0 0 0 0 0 0 0 0 0 0 0 0 0 0 0 0 0 0 0 0 0 0 0 0 0 0 0 0 0 0 0 0 0 0 0 0 0 0 0 0 0 0 0 0 0 0 0 0 0 0 0 0 0 0 0 0 0 0 0 0 0 0 0 0 0 0 0 0 0 0 0 0 0 0 0 0 0 0 0 0 0 0 0 0 0 0 0 0 0 0 0 0 0 0 0 0 0 0 0 0 0 0 0 0 0 0 0 0 0 0 0 0 0 0 0 0 0 0 0 0 0 0 0 0 0 0 0 0 0 0 0 0 0 0 0 0 0 0 0 0 0 0 0 0 0 0 0 0 0 0 0 0 0 0 0 0 0 0 0 0 0 0 0 0 0 0 0 0 0 0 0 0 0 0 0 0 0 0 0 0 0 0 0 0 0 0 0 0 0 0 0 0 0 0 0 0 0 0 0 0 0 0 0 0 0 0 0 0 0 0 0 0 0 0 0 0 0 0 0 0 0 0 0 0 0 0 0 0 0 0 0 0 0 0 0 0 0 0 0 0 0 0 0 0 0 0 0 0 0 0 0 0 0 0 0 0 0 0 0 0 0 0 0 0 0 0 0 0 0 0 0 0 0 0 0 0 0 0 0 0 0 0 0 0 0 0 0 0 0 0 0 0 0 0 0 0 0 0 0 0 0 0 0 0 0 0 0 0 0 0 0 0 0 0 0 0 0 0 0 0 0 0 0 0 0 0 0 0 0 0 0 0 0 0 0 0 0 0 0 0 0 0 0 0 0 0 0 0 0 0 0 0 0 0 0 0 0 0 0 0 0 0 0 0 0 0 0 0 0 0 0 0 0 0 0 0 0 0 0 0 0 0 0 0 0 0 0 0 0 0 0 0 0 0 0 0 0 0 0 0 0 0 0 0 0 0 0 0 0 0 0 0 0 0 0 0 0 0 0 0 0 0 0 0 0 0 0 0 0 0 0 0 0 0 0 0 0 0 0 0 0 0 0 0 0 0 0 0 0 0 0 0 0 0 0 0 0 0 0 0 0 0 0 0 0 0 0 0 0 0 0 0 0 0 0 0 0 0 0 0 0 0 0 0 0 0 0 0 0 0 0 0 0 0 0 0 0 0 0 0 0 0 0 0 0 0 0 0 0 0 0 0 0 0 0 0 0 0 0 0 0 0 0 0 0 0 0 0 0 0 0 0 0 0 0 0 0 0 0 0 0 0 0 0 0 0 0 0 0 0 0 0 0 0 0 0 0 0 0 0 0 0 0 0 0 0 0 0 0 0 0 0 0 0 0 0 0 0 0 0 0 0 0 0 0 0 0 0 0 0 0 0 0 0 0 0 0 0 0 0 0 0 0 0 0 0 0 0 0 0 0 0 0 0 0 0 0 0 0 0 0 0 0 0 0 0 0 0 0 0 0 0 0 0 0 0 0 0 0 0 0 0 0 0 0 0 0 0 0 0 0 0 0 0 0 0 0 0 0 0 0 0 0 0 0 0 0 0 0 0 0 0 0 0 0 0 0 0 0 0 0 0 0 0 0 0 0 0 0 0 0 0 0 0 0 0 0 0 0 0 0 0 0 0 0 0 0 0 0 0 0 0 0 0 0 0 0 0 0 0 0 0 0 0 0 0 0 0 0 0 0 0 0 0 0 0 0 0 0 0 0 0 0 0 0 0 0 0 0 0 0 0 0 0 0 0 0 0 0 0 0 0 0 0 0 0 0 0 0 0 0 0 0 0 0 0 0 0 0 0 0 0 0 0 0 0 0 0 0 0 0 0 0 0 0 0 0 0 0 0 0 0 0 0 0 0 0 0 0 0 0 0 0 0 0 0 0 0 0 0 0 0 0 0 0 0 0 0 0 0 0 0 0 0 0 0 0 0 0 0 0 0 0 0 0 0 0 0 0 0 0 0 0 0 0 0 0 0 0 0 0 0 0 0 0 0 0 0 0 0 0 0 0 0 0 0 0 0 0 0 0 0 0 0 0 0 0 0 0 0 0 0 0 0 0 0 0 0 0 0 0 0 0 0 0 0 0 0 0 0 0 0 0 0 0 0 0 0 0 0 0 0 0 0 0 0 0 0 0 0 0 0 0 0 0 0 0 0 0 0 0 0 0 0 0 0 0 0 0 0 0 0 0 0 0 0 0 0 0 0 0 0 0 0 0 0 0 0 0 0 0 0 0 0 0 0 0 0 0 0 0 0 0 0 0 0 0 0 0 0 0 0 0 0 0 0 0 0 0 0 0 0 0 0 0 0 0 0 0 0 0 0 0 0 0 0 0 0 0 0 0 0 0 0 0 0 0 0 0 0 0 0 0 0 0 0 0 0 0 0 0 0 0 0 0 0 0 0 0 0 0 0 0 0 0 0 0 0 0 0 0 0 0 0 0 0 0 0 0 0 0 0 0 0 0 0 0 0 0 0 0 0 0 0 0 0 0 0 0 0 0 0 0 0 0 0 0 0 0 0 0 0 0 0 0 0 0 0 0 0 0 0 0 0 0 0 0 0 0 0 0 0 0 0 0 0 0 0 0 0 0 0 0 0 0 0 0 0 0 0 0 0 0 0 0 0 0 0 0 0 0 0 0 0 0 0 0 0 0 0 0 0 0 0 0 0 0 0 0 0 0 0 0 0 0 0 0 0 0 0 0 0 0 0 0 0 0 0 0 0 0 0 0 0 0 0 0 0 0 0 0 0 0 0 0 0 0 0 0 0 0 0 0 0 0 0 0 0 0 0 0 0 0 0 0 0 0 0 0 0 0 0 0 0 0 0 0 0 0 0 0 0 0 0 0 0 0 0 0 0 0 0 0 0 0 0 0 0 0 0 0 0 0 0 0 0 0 0 0 0 0 0 0 0 0 0 0 0 0 0 0 0 0 0 0 0 0 0 0 0 0 0 0 0 0 0 0 0 0 0 0 0 0 0 0 0 0 0 0 0 0 0 0 0 0 0 0 0 0 0 0 0 0 0 0 0 0 0 0 0 0 0 0 0 0 0 0 0 0 0 0 0 0 0 0 0 0 0 0 0 0 0 0 0 0 0 0 0 0 0 0 0 0 0 0 0 0 0 0 0 0 0 0 0 0 0 0 0 0 0 0 0 0 0 0 0 0 0 0 0 0 0 0 0 0 0 0 0 0 0 0 0 0 0 0 0 0 0 0 0 0 0 0 0 0 0 0 0 0 0 0 0 0 0 0 0 0 0 0 0 0 0 0 0 0 0 0 0 0 0 0 0 0 0 0 0 0 0 0 0 0 0 0 0 0 0 0 0 0 0 0 0 0 0 0 0 0 0 0 0 0 0 0 0 0 0 0 0 0 0 0 0 0 0 0 0 0 0 0 0 0 0 0 0 0 0 0 0 0 0 0 </DataArray> 
</PointData> 
<Points> 
<DataArray type="Float32" NumberOfComponents="3"> 
0 3 0 0.112903 3 0 0.225806 3 0 0.33871 3 0 0.451613 3 0 0.564516 3 0 0.677419 3 0 0.790323 3 0 0.903226 3 0 1.01613 3 0 1.12903 3 0 1.24194 3 0 1.35484 3 0 1.46774 3 0 1.58065 3 0 1.69355 3 0 1.80645 3 0 1.91935 3 0 2.03226 3 0 2.14516 3 0 2.25806 3 0 2.37097 3 0 2.48387 3 0 2.59677 3 0 2.70968 3 0 2.82258 3 0 2.93548 3 0 3.04839 3 0 3.16129 3 0 3.27419 3 0 3.3871 3 0 3.5 3 0 0 3.09677 0 0.112903 3.09677 0 0.225806 3.09677 0 0.33871 3.09677 0 0.451613 3.09677 0 0.564516 3.09677 0 0.677419 3.09677 0 0.790323 3.09677 0 0.903226 3.09677 0 1.01613 3.09677 0 1.12903 3.09677 0 1.24194 3.09677 0 1.35484 3.09677 0 1.46774 3.09677 0 1.58065 3.09677 0 1.69355 3.09677 0 1.80645 3.09677 0 1.91935 3.09677 0 2.03226 3.09677 0 2.14516 3.09677 0 2.25806 3.09677 0 2.37097 3.09677 0 2.48387 3.09677 0 2.59677 3.09677 0 2.70968 3.09677 0 2.82258 3.09677 0 2.93548 3.09677 0 3.04839 3.09677 0 3.16129 3.09677 0 3.27419 3.09677 0 3.3871 3.09677 0 3.5 3.09677 0 0 3.19355 0 0.112903 3.19355 0 0.225806 3.19355 0 0.33871 3.19355 0 0.451613 3.19355 0 0.564516 3.19355 0 0.677419 3.19355 0 0.790323 3.19355 0 0.903226 3.19355 0 1.01613 3.19355 0 1.12903 3.19355 0 1.24194 3.19355 0 1.35484 3.19355 0 1.46774 3.19355 0 1.58065 3.19355 0 1.69355 3.19355 0 1.80645 3.19355 0 1.91935 3.19355 0 2.03226 3.19355 0 2.14516 3.19355 0 2.25806 3.19355 0 2.37097 3.19355 0 2.48387 3.19355 0 2.59677 3.19355 0 2.70968 3.19355 0 2.82258 3.19355 0 2.93548 3.19355 0 3.04839 3.19355 0 3.16129 3.19355 0 3.27419 3.19355 0 3.3871 3.19355 0 3.5 3.19355 0 0 3.29032 0 0.112903 3.29032 0 0.225806 3.29032 0 0.33871 3.29032 0 0.451613 3.29032 0 0.564516 3.29032 0 0.677419 3.29032 0 0.790323 3.29032 0 0.903226 3.29032 0 1.01613 3.29032 0 1.12903 3.29032 0 1.24194 3.29032 0 1.35484 3.29032 0 1.46774 3.29032 0 1.58065 3.29032 0 1.69355 3.29032 0 1.80645 3.29032 0 1.91935 3.29032 0 2.03226 3.29032 0 2.14516 3.29032 0 2.25806 3.29032 0 2.37097 3.29032 0 2.48387 3.29032 0 2.59677 3.29032 0 2.70968 3.29032 0 2.82258 3.29032 0 2.93548 3.29032 0 3.04839 3.29032 0 3.16129 3.29032 0 3.27419 3.29032 0 3.3871 3.29032 0 3.5 3.29032 0 0 3.3871 0 0.112903 3.3871 0 0.225806 3.3871 0 0.33871 3.3871 0 0.451613 3.3871 0 0.564516 3.3871 0 0.677419 3.3871 0 0.790323 3.3871 0 0.903226 3.3871 0 1.01613 3.3871 0 1.12903 3.3871 0 1.24194 3.3871 0 1.35484 3.3871 0 1.46774 3.3871 0 1.58065 3.3871 0 1.69355 3.3871 0 1.80645 3.3871 0 1.91935 3.3871 0 2.03226 3.3871 0 2.14516 3.3871 0 2.25806 3.3871 0 2.37097 3.3871 0 2.48387 3.3871 0 2.59677 3.3871 0 2.70968 3.3871 0 2.82258 3.3871 0 2.93548 3.3871 0 3.04839 3.3871 0 3.16129 3.3871 0 3.27419 3.3871 0 3.3871 3.3871 0 3.5 3.3871 0 0 3.48387 0 0.112903 3.48387 0 0.225806 3.48387 0 0.33871 3.48387 0 0.451613 3.48387 0 0.564516 3.48387 0 0.677419 3.48387 0 0.790323 3.48387 0 0.903226 3.48387 0 1.01613 3.48387 0 1.12903 3.48387 0 1.24194 3.48387 0 1.35484 3.48387 0 1.46774 3.48387 0 1.58065 3.48387 0 1.69355 3.48387 0 1.80645 3.48387 0 1.91935 3.48387 0 2.03226 3.48387 0 2.14516 3.48387 0 2.25806 3.48387 0 2.37097 3.48387 0 2.48387 3.48387 0 2.59677 3.48387 0 2.70968 3.48387 0 2.82258 3.48387 0 2.93548 3.48387 0 3.04839 3.48387 0 3.16129 3.48387 0 3.27419 3.48387 0 3.3871 3.48387 0 3.5 3.48387 0 0 3.58065 0 0.112903 3.58065 0 0.225806 3.58065 0 0.33871 3.58065 0 0.451613 3.58065 0 0.564516 3.58065 0 0.677419 3.58065 0 0.790323 3.58065 0 0.903226 3.58065 0 1.01613 3.58065 0 1.12903 3.58065 0 1.24194 3.58065 0 1.35484 3.58065 0 1.46774 3.58065 0 1.58065 3.58065 0 1.69355 3.58065 0 1.80645 3.58065 0 1.91935 3.58065 0 2.03226 3.58065 0 2.14516 3.58065 0 2.25806 3.58065 0 2.37097 3.58065 0 2.48387 3.58065 0 2.59677 3.58065 0 2.70968 3.58065 0 2.82258 3.58065 0 2.93548 3.58065 0 3.04839 3.58065 0 3.16129 3.58065 0 3.27419 3.58065 0 3.3871 3.58065 0 3.5 3.58065 0 0 3.67742 0 0.112903 3.67742 0 0.225806 3.67742 0 0.33871 3.67742 0 0.451613 3.67742 0 0.564516 3.67742 0 0.677419 3.67742 0 0.790323 3.67742 0 0.903226 3.67742 0 1.01613 3.67742 0 1.12903 3.67742 0 1.24194 3.67742 0 1.35484 3.67742 0 1.46774 3.67742 0 1.58065 3.67742 0 1.69355 3.67742 0 1.80645 3.67742 0 1.91935 3.67742 0 2.03226 3.67742 0 2.14516 3.67742 0 2.25806 3.67742 0 2.37097 3.67742 0 2.48387 3.67742 0 2.59677 3.67742 0 2.70968 3.67742 0 2.82258 3.67742 0 2.93548 3.67742 0 3.04839 3.67742 0 3.16129 3.67742 0 3.27419 3.67742 0 3.3871 3.67742 0 3.5 3.67742 0 0 3.77419 0 0.112903 3.77419 0 0.225806 3.77419 0 0.33871 3.77419 0 0.451613 3.77419 0 0.564516 3.77419 0 0.677419 3.77419 0 0.790323 3.77419 0 0.903226 3.77419 0 1.01613 3.77419 0 1.12903 3.77419 0 1.24194 3.77419 0 1.35484 3.77419 0 1.46774 3.77419 0 1.58065 3.77419 0 1.69355 3.77419 0 1.80645 3.77419 0 1.91935 3.77419 0 2.03226 3.77419 0 2.14516 3.77419 0 2.25806 3.77419 0 2.37097 3.77419 0 2.48387 3.77419 0 2.59677 3.77419 0 2.70968 3.77419 0 2.82258 3.77419 0 2.93548 3.77419 0 3.04839 3.77419 0 3.16129 3.77419 0 3.27419 3.77419 0 3.3871 3.77419 0 3.5 3.77419 0 0 3.87097 0 0.112903 3.87097 0 0.225806 3.87097 0 0.33871 3.87097 0 0.451613 3.87097 0 0.564516 3.87097 0 0.677419 3.87097 0 0.790323 3.87097 0 0.903226 3.87097 0 1.01613 3.87097 0 1.12903 3.87097 0 1.24194 3.87097 0 1.35484 3.87097 0 1.46774 3.87097 0 1.58065 3.87097 0 1.69355 3.87097 0 1.80645 3.87097 0 1.91935 3.87097 0 2.03226 3.87097 0 2.14516 3.87097 0 2.25806 3.87097 0 2.37097 3.87097 0 2.48387 3.87097 0 2.59677 3.87097 0 2.70968 3.87097 0 2.82258 3.87097 0 2.93548 3.87097 0 3.04839 3.87097 0 3.16129 3.87097 0 3.27419 3.87097 0 3.3871 3.87097 0 3.5 3.87097 0 0 3.96774 0 0.112903 3.96774 0 0.225806 3.96774 0 0.33871 3.96774 0 0.451613 3.96774 0 0.564516 3.96774 0 0.677419 3.96774 0 0.790323 3.96774 0 0.903226 3.96774 0 1.01613 3.96774 0 1.12903 3.96774 0 1.24194 3.96774 0 1.35484 3.96774 0 1.46774 3.96774 0 1.58065 3.96774 0 1.69355 3.96774 0 1.80645 3.96774 0 1.91935 3.96774 0 2.03226 3.96774 0 2.14516 3.96774 0 2.25806 3.96774 0 2.37097 3.96774 0 2.48387 3.96774 0 2.59677 3.96774 0 2.70968 3.96774 0 2.82258 3.96774 0 2.93548 3.96774 0 3.04839 3.96774 0 3.16129 3.96774 0 3.27419 3.96774 0 3.3871 3.96774 0 3.5 3.96774 0 0 4.06452 0 0.112903 4.06452 0 0.225806 4.06452 0 0.33871 4.06452 0 0.451613 4.06452 0 0.564516 4.06452 0 0.677419 4.06452 0 0.790323 4.06452 0 0.903226 4.06452 0 1.01613 4.06452 0 1.12903 4.06452 0 1.24194 4.06452 0 1.35484 4.06452 0 1.46774 4.06452 0 1.58065 4.06452 0 1.69355 4.06452 0 1.80645 4.06452 0 1.91935 4.06452 0 2.03226 4.06452 0 2.14516 4.06452 0 2.25806 4.06452 0 2.37097 4.06452 0 2.48387 4.06452 0 2.59677 4.06452 0 2.70968 4.06452 0 2.82258 4.06452 0 2.93548 4.06452 0 3.04839 4.06452 0 3.16129 4.06452 0 3.27419 4.06452 0 3.3871 4.06452 0 3.5 4.06452 0 0 4.16129 0 0.112903 4.16129 0 0.225806 4.16129 0 0.33871 4.16129 0 0.451613 4.16129 0 0.564516 4.16129 0 0.677419 4.16129 0 0.790323 4.16129 0 0.903226 4.16129 0 1.01613 4.16129 0 1.12903 4.16129 0 1.24194 4.16129 0 1.35484 4.16129 0 1.46774 4.16129 0 1.58065 4.16129 0 1.69355 4.16129 0 1.80645 4.16129 0 1.91935 4.16129 0 2.03226 4.16129 0 2.14516 4.16129 0 2.25806 4.16129 0 2.37097 4.16129 0 2.48387 4.16129 0 2.59677 4.16129 0 2.70968 4.16129 0 2.82258 4.16129 0 2.93548 4.16129 0 3.04839 4.16129 0 3.16129 4.16129 0 3.27419 4.16129 0 3.3871 4.16129 0 3.5 4.16129 0 0 4.25806 0 0.112903 4.25806 0 0.225806 4.25806 0 0.33871 4.25806 0 0.451613 4.25806 0 0.564516 4.25806 0 0.677419 4.25806 0 0.790323 4.25806 0 0.903226 4.25806 0 1.01613 4.25806 0 1.12903 4.25806 0 1.24194 4.25806 0 1.35484 4.25806 0 1.46774 4.25806 0 1.58065 4.25806 0 1.69355 4.25806 0 1.80645 4.25806 0 1.91935 4.25806 0 2.03226 4.25806 0 2.14516 4.25806 0 2.25806 4.25806 0 2.37097 4.25806 0 2.48387 4.25806 0 2.59677 4.25806 0 2.70968 4.25806 0 2.82258 4.25806 0 2.93548 4.25806 0 3.04839 4.25806 0 3.16129 4.25806 0 3.27419 4.25806 0 3.3871 4.25806 0 3.5 4.25806 0 0 4.35484 0 0.112903 4.35484 0 0.225806 4.35484 0 0.33871 4.35484 0 0.451613 4.35484 0 0.564516 4.35484 0 0.677419 4.35484 0 0.790323 4.35484 0 0.903226 4.35484 0 1.01613 4.35484 0 1.12903 4.35484 0 1.24194 4.35484 0 1.35484 4.35484 0 1.46774 4.35484 0 1.58065 4.35484 0 1.69355 4.35484 0 1.80645 4.35484 0 1.91935 4.35484 0 2.03226 4.35484 0 2.14516 4.35484 0 2.25806 4.35484 0 2.37097 4.35484 0 2.48387 4.35484 0 2.59677 4.35484 0 2.70968 4.35484 0 2.82258 4.35484 0 2.93548 4.35484 0 3.04839 4.35484 0 3.16129 4.35484 0 3.27419 4.35484 0 3.3871 4.35484 0 3.5 4.35484 0 0 4.45161 0 0.112903 4.45161 0 0.225806 4.45161 0 0.33871 4.45161 0 0.451613 4.45161 0 0.564516 4.45161 0 0.677419 4.45161 0 0.790323 4.45161 0 0.903226 4.45161 0 1.01613 4.45161 0 1.12903 4.45161 0 1.24194 4.45161 0 1.35484 4.45161 0 1.46774 4.45161 0 1.58065 4.45161 0 1.69355 4.45161 0 1.80645 4.45161 0 1.91935 4.45161 0 2.03226 4.45161 0 2.14516 4.45161 0 2.25806 4.45161 0 2.37097 4.45161 0 2.48387 4.45161 0 2.59677 4.45161 0 2.70968 4.45161 0 2.82258 4.45161 0 2.93548 4.45161 0 3.04839 4.45161 0 3.16129 4.45161 0 3.27419 4.45161 0 3.3871 4.45161 0 3.5 4.45161 0 0 4.54839 0 0.112903 4.54839 0 0.225806 4.54839 0 0.33871 4.54839 0 0.451613 4.54839 0 0.564516 4.54839 0 0.677419 4.54839 0 0.790323 4.54839 0 0.903226 4.54839 0 1.01613 4.54839 0 1.12903 4.54839 0 1.24194 4.54839 0 1.35484 4.54839 0 1.46774 4.54839 0 1.58065 4.54839 0 1.69355 4.54839 0 1.80645 4.54839 0 1.91935 4.54839 0 2.03226 4.54839 0 2.14516 4.54839 0 2.25806 4.54839 0 2.37097 4.54839 0 2.48387 4.54839 0 2.59677 4.54839 0 2.70968 4.54839 0 2.82258 4.54839 0 2.93548 4.54839 0 3.04839 4.54839 0 3.16129 4.54839 0 3.27419 4.54839 0 3.3871 4.54839 0 3.5 4.54839 0 0 4.64516 0 0.112903 4.64516 0 0.225806 4.64516 0 0.33871 4.64516 0 0.451613 4.64516 0 0.564516 4.64516 0 0.677419 4.64516 0 0.790323 4.64516 0 0.903226 4.64516 0 1.01613 4.64516 0 1.12903 4.64516 0 1.24194 4.64516 0 1.35484 4.64516 0 1.46774 4.64516 0 1.58065 4.64516 0 1.69355 4.64516 0 1.80645 4.64516 0 1.91935 4.64516 0 2.03226 4.64516 0 2.14516 4.64516 0 2.25806 4.64516 0 2.37097 4.64516 0 2.48387 4.64516 0 2.59677 4.64516 0 2.70968 4.64516 0 2.82258 4.64516 0 2.93548 4.64516 0 3.04839 4.64516 0 3.16129 4.64516 0 3.27419 4.64516 0 3.3871 4.64516 0 3.5 4.64516 0 0 4.74194 0 0.112903 4.74194 0 0.225806 4.74194 0 0.33871 4.74194 0 0.451613 4.74194 0 0.564516 4.74194 0 0.677419 4.74194 0 0.790323 4.74194 0 0.903226 4.74194 0 1.01613 4.74194 0 1.12903 4.74194 0 1.24194 4.74194 0 1.35484 4.74194 0 1.46774 4.74194 0 1.58065 4.74194 0 1.69355 4.74194 0 1.80645 4.74194 0 1.91935 4.74194 0 2.03226 4.74194 0 2.14516 4.74194 0 2.25806 4.74194 0 2.37097 4.74194 0 2.48387 4.74194 0 2.59677 4.74194 0 2.70968 4.74194 0 2.82258 4.74194 0 2.93548 4.74194 0 3.04839 4.74194 0 3.16129 4.74194 0 3.27419 4.74194 0 3.3871 4.74194 0 3.5 4.74194 0 0 4.83871 0 0.112903 4.83871 0 0.225806 4.83871 0 0.33871 4.83871 0 0.451613 4.83871 0 0.564516 4.83871 0 0.677419 4.83871 0 0.790323 4.83871 0 0.903226 4.83871 0 1.01613 4.83871 0 1.12903 4.83871 0 1.24194 4.83871 0 1.35484 4.83871 0 1.46774 4.83871 0 1.58065 4.83871 0 1.69355 4.83871 0 1.80645 4.83871 0 1.91935 4.83871 0 2.03226 4.83871 0 2.14516 4.83871 0 2.25806 4.83871 0 2.37097 4.83871 0 2.48387 4.83871 0 2.59677 4.83871 0 2.70968 4.83871 0 2.82258 4.83871 0 2.93548 4.83871 0 3.04839 4.83871 0 3.16129 4.83871 0 3.27419 4.83871 0 3.3871 4.83871 0 3.5 4.83871 0 0 4.93548 0 0.112903 4.93548 0 0.225806 4.93548 0 0.33871 4.93548 0 0.451613 4.93548 0 0.564516 4.93548 0 0.677419 4.93548 0 0.790323 4.93548 0 0.903226 4.93548 0 1.01613 4.93548 0 1.12903 4.93548 0 1.24194 4.93548 0 1.35484 4.93548 0 1.46774 4.93548 0 1.58065 4.93548 0 1.69355 4.93548 0 1.80645 4.93548 0 1.91935 4.93548 0 2.03226 4.93548 0 2.14516 4.93548 0 2.25806 4.93548 0 2.37097 4.93548 0 2.48387 4.93548 0 2.59677 4.93548 0 2.70968 4.93548 0 2.82258 4.93548 0 2.93548 4.93548 0 3.04839 4.93548 0 3.16129 4.93548 0 3.27419 4.93548 0 3.3871 4.93548 0 3.5 4.93548 0 0 5.03226 0 0.112903 5.03226 0 0.225806 5.03226 0 0.33871 5.03226 0 0.451613 5.03226 0 0.564516 5.03226 0 0.677419 5.03226 0 0.790323 5.03226 0 0.903226 5.03226 0 1.01613 5.03226 0 1.12903 5.03226 0 1.24194 5.03226 0 1.35484 5.03226 0 1.46774 5.03226 0 1.58065 5.03226 0 1.69355 5.03226 0 1.80645 5.03226 0 1.91935 5.03226 0 2.03226 5.03226 0 2.14516 5.03226 0 2.25806 5.03226 0 2.37097 5.03226 0 2.48387 5.03226 0 2.59677 5.03226 0 2.70968 5.03226 0 2.82258 5.03226 0 2.93548 5.03226 0 3.04839 5.03226 0 3.16129 5.03226 0 3.27419 5.03226 0 3.3871 5.03226 0 3.5 5.03226 0 0 5.12903 0 0.112903 5.12903 0 0.225806 5.12903 0 0.33871 5.12903 0 0.451613 5.12903 0 0.564516 5.12903 0 0.677419 5.12903 0 0.790323 5.12903 0 0.903226 5.12903 0 1.01613 5.12903 0 1.12903 5.12903 0 1.24194 5.12903 0 1.35484 5.12903 0 1.46774 5.12903 0 1.58065 5.12903 0 1.69355 5.12903 0 1.80645 5.12903 0 1.91935 5.12903 0 2.03226 5.12903 0 2.14516 5.12903 0 2.25806 5.12903 0 2.37097 5.12903 0 2.48387 5.12903 0 2.59677 5.12903 0 2.70968 5.12903 0 2.82258 5.12903 0 2.93548 5.12903 0 3.04839 5.12903 0 3.16129 5.12903 0 3.27419 5.12903 0 3.3871 5.12903 0 3.5 5.12903 0 0 5.22581 0 0.112903 5.22581 0 0.225806 5.22581 0 0.33871 5.22581 0 0.451613 5.22581 0 0.564516 5.22581 0 0.677419 5.22581 0 0.790323 5.22581 0 0.903226 5.22581 0 1.01613 5.22581 0 1.12903 5.22581 0 1.24194 5.22581 0 1.35484 5.22581 0 1.46774 5.22581 0 1.58065 5.22581 0 1.69355 5.22581 0 1.80645 5.22581 0 1.91935 5.22581 0 2.03226 5.22581 0 2.14516 5.22581 0 2.25806 5.22581 0 2.37097 5.22581 0 2.48387 5.22581 0 2.59677 5.22581 0 2.70968 5.22581 0 2.82258 5.22581 0 2.93548 5.22581 0 3.04839 5.22581 0 3.16129 5.22581 0 3.27419 5.22581 0 3.3871 5.22581 0 3.5 5.22581 0 0 5.32258 0 0.112903 5.32258 0 0.225806 5.32258 0 0.33871 5.32258 0 0.451613 5.32258 0 0.564516 5.32258 0 0.677419 5.32258 0 0.790323 5.32258 0 0.903226 5.32258 0 1.01613 5.32258 0 1.12903 5.32258 0 1.24194 5.32258 0 1.35484 5.32258 0 1.46774 5.32258 0 1.58065 5.32258 0 1.69355 5.32258 0 1.80645 5.32258 0 1.91935 5.32258 0 2.03226 5.32258 0 2.14516 5.32258 0 2.25806 5.32258 0 2.37097 5.32258 0 2.48387 5.32258 0 2.59677 5.32258 0 2.70968 5.32258 0 2.82258 5.32258 0 2.93548 5.32258 0 3.04839 5.32258 0 3.16129 5.32258 0 3.27419 5.32258 0 3.3871 5.32258 0 3.5 5.32258 0 0 5.41935 0 0.112903 5.41935 0 0.225806 5.41935 0 0.33871 5.41935 0 0.451613 5.41935 0 0.564516 5.41935 0 0.677419 5.41935 0 0.790323 5.41935 0 0.903226 5.41935 0 1.01613 5.41935 0 1.12903 5.41935 0 1.24194 5.41935 0 1.35484 5.41935 0 1.46774 5.41935 0 1.58065 5.41935 0 1.69355 5.41935 0 1.80645 5.41935 0 1.91935 5.41935 0 2.03226 5.41935 0 2.14516 5.41935 0 2.25806 5.41935 0 2.37097 5.41935 0 2.48387 5.41935 0 2.59677 5.41935 0 2.70968 5.41935 0 2.82258 5.41935 0 2.93548 5.41935 0 3.04839 5.41935 0 3.16129 5.41935 0 3.27419 5.41935 0 3.3871 5.41935 0 3.5 5.41935 0 0 5.51613 0 0.112903 5.51613 0 0.225806 5.51613 0 0.33871 5.51613 0 0.451613 5.51613 0 0.564516 5.51613 0 0.677419 5.51613 0 0.790323 5.51613 0 0.903226 5.51613 0 1.01613 5.51613 0 1.12903 5.51613 0 1.24194 5.51613 0 1.35484 5.51613 0 1.46774 5.51613 0 1.58065 5.51613 0 1.69355 5.51613 0 1.80645 5.51613 0 1.91935 5.51613 0 2.03226 5.51613 0 2.14516 5.51613 0 2.25806 5.51613 0 2.37097 5.51613 0 2.48387 5.51613 0 2.59677 5.51613 0 2.70968 5.51613 0 2.82258 5.51613 0 2.93548 5.51613 0 3.04839 5.51613 0 3.16129 5.51613 0 3.27419 5.51613 0 3.3871 5.51613 0 3.5 5.51613 0 0 5.6129 0 0.112903 5.6129 0 0.225806 5.6129 0 0.33871 5.6129 0 0.451613 5.6129 0 0.564516 5.6129 0 0.677419 5.6129 0 0.790323 5.6129 0 0.903226 5.6129 0 1.01613 5.6129 0 1.12903 5.6129 0 1.24194 5.6129 0 1.35484 5.6129 0 1.46774 5.6129 0 1.58065 5.6129 0 1.69355 5.6129 0 1.80645 5.6129 0 1.91935 5.6129 0 2.03226 5.6129 0 2.14516 5.6129 0 2.25806 5.6129 0 2.37097 5.6129 0 2.48387 5.6129 0 2.59677 5.6129 0 2.70968 5.6129 0 2.82258 5.6129 0 2.93548 5.6129 0 3.04839 5.6129 0 3.16129 5.6129 0 3.27419 5.6129 0 3.3871 5.6129 0 3.5 5.6129 0 0 5.70968 0 0.112903 5.70968 0 0.225806 5.70968 0 0.33871 5.70968 0 0.451613 5.70968 0 0.564516 5.70968 0 0.677419 5.70968 0 0.790323 5.70968 0 0.903226 5.70968 0 1.01613 5.70968 0 1.12903 5.70968 0 1.24194 5.70968 0 1.35484 5.70968 0 1.46774 5.70968 0 1.58065 5.70968 0 1.69355 5.70968 0 1.80645 5.70968 0 1.91935 5.70968 0 2.03226 5.70968 0 2.14516 5.70968 0 2.25806 5.70968 0 2.37097 5.70968 0 2.48387 5.70968 0 2.59677 5.70968 0 2.70968 5.70968 0 2.82258 5.70968 0 2.93548 5.70968 0 3.04839 5.70968 0 3.16129 5.70968 0 3.27419 5.70968 0 3.3871 5.70968 0 3.5 5.70968 0 0 5.80645 0 0.112903 5.80645 0 0.225806 5.80645 0 0.33871 5.80645 0 0.451613 5.80645 0 0.564516 5.80645 0 0.677419 5.80645 0 0.790323 5.80645 0 0.903226 5.80645 0 1.01613 5.80645 0 1.12903 5.80645 0 1.24194 5.80645 0 1.35484 5.80645 0 1.46774 5.80645 0 1.58065 5.80645 0 1.69355 5.80645 0 1.80645 5.80645 0 1.91935 5.80645 0 2.03226 5.80645 0 2.14516 5.80645 0 2.25806 5.80645 0 2.37097 5.80645 0 2.48387 5.80645 0 2.59677 5.80645 0 2.70968 5.80645 0 2.82258 5.80645 0 2.93548 5.80645 0 3.04839 5.80645 0 3.16129 5.80645 0 3.27419 5.80645 0 3.3871 5.80645 0 3.5 5.80645 0 0 5.90323 0 0.112903 5.90323 0 0.225806 5.90323 0 0.33871 5.90323 0 0.451613 5.90323 0 0.564516 5.90323 0 0.677419 5.90323 0 0.790323 5.90323 0 0.903226 5.90323 0 1.01613 5.90323 0 1.12903 5.90323 0 1.24194 5.90323 0 1.35484 5.90323 0 1.46774 5.90323 0 1.58065 5.90323 0 1.69355 5.90323 0 1.80645 5.90323 0 1.91935 5.90323 0 2.03226 5.90323 0 2.14516 5.90323 0 2.25806 5.90323 0 2.37097 5.90323 0 2.48387 5.90323 0 2.59677 5.90323 0 2.70968 5.90323 0 2.82258 5.90323 0 2.93548 5.90323 0 3.04839 5.90323 0 3.16129 5.90323 0 3.27419 5.90323 0 3.3871 5.90323 0 3.5 5.90323 0 0 6 0 0.112903 6 0 0.225806 6 0 0.33871 6 0 0.451613 6 0 0.564516 6 0 0.677419 6 0 0.790323 6 0 0.903226 6 0 1.01613 6 0 1.12903 6 0 1.24194 6 0 1.35484 6 0 1.46774 6 0 1.58065 6 0 1.69355 6 0 1.80645 6 0 1.91935 6 0 2.03226 6 0 2.14516 6 0 2.25806 6 0 2.37097 6 0 2.48387 6 0 2.59677 6 0 2.70968 6 0 2.82258 6 0 2.93548 6 0 3.04839 6 0 3.16129 6 0 3.27419 6 0 3.3871 6 0 3.5 6 0 
</DataArray>
</Points> 
</Piece> 
</StructuredGrid> 
</VTKFile> 
