<?xml version="1.0"?> 
<VTKFile type="StructuredGrid" version="0.1"> 
<StructuredGrid WholeExtent="0 31 0 31 0 0"> 
<Piece Extent="0 31 0 31 0 0"> 
<PointData>
<DataArray type="Float32" Name="B" format="ascii" NumberOfComponents="3"> 
0 9.45215e-05 0 2.91766e-05 9.33825e-05 0 5.71049e-05 9.01066e-05 0 8.28188e-05 8.50453e-05 0 0.000105755 7.86442e-05 0 0.00012571 7.1329e-05 0 0.000142717 6.34496e-05 0 0.000156937 5.52665e-05 0 0.000168574 4.69607e-05 0 0.000177828 3.86514e-05 0 0.000184871 3.04143e-05 0 0.000189837 2.22966e-05 0 0.000192814 1.43305e-05 0 0.00019385 6.54458e-06 0 0.000192953 -1.02567e-06 0 0.000190104 -8.32679e-06 0 0.000185269 -1.52767e-05 0 0.000178435 -2.17545e-05 0 0.000169646 -2.75965e-05 0 0.000159072 -3.2605e-05 0 0.000147057 -3.65819e-05 0 0.000134152 -3.93857e-05 0 0.000120996 -4.09946e-05 0 0.000108248 -4.15214e-05 0 9.63103e-05 -4.11852e-05 0 8.55559e-05 -4.02389e-05 0 7.58446e-05 -3.89321e-05 0 6.75702e-05 -3.74944e-05 0 5.9852e-05 -3.61107e-05 0 5.39951e-05 -3.51702e-05 0 4.76683e-05 -3.4867e-05 0 2.89642e-05 -4.29247e-05 0 0 8.51701e-05 0 2.66248e-05 8.42225e-05 0 5.22746e-05 8.14778e-05 0 7.61553e-05 7.71859e-05 0 9.77482e-05 7.16788e-05 0 0.000116801 6.52928e-05 0 0.000133259 5.83215e-05 0 0.000147192 5.09975e-05 0 0.000158723 4.34935e-05 0 0.000167994 3.59316e-05 0 0.000175135 2.83963e-05 0 0.000180253 2.09465e-05 0 0.000183427 1.36266e-05 0 0.000184703 6.47657e-06 0 0.000184105 -4.58703e-07 0 0.000181638 -7.12054e-06 0 0.000177307 -1.34284e-05 0 0.00017114 -1.92743e-05 0 0.000163224 -2.45224e-05 0 0.000153742 -2.90202e-05 0 0.000143012 -3.26245e-05 0 0.000131473 -3.52404e-05 0 0.000119643 -3.68572e-05 0 0.000108011 -3.75606e-05 0 9.69668e-05 -3.75115e-05 0 8.67358e-05 -3.69084e-05 0 7.74401e-05 -3.59547e-05 0 6.90248e-05 -3.48424e-05 0 6.14625e-05 -3.37666e-05 0 5.43498e-05 -3.2939e-05 0 4.70281e-05 -3.27374e-05 0 3.59325e-05 -3.24923e-05 0 0 7.66118e-05 0 2.44849e-05 7.58146e-05 0 4.81885e-05 7.3493e-05 0 7.04499e-05 6.98295e-05 0 9.08003e-05 6.50751e-05 0 0.000108969 5.94959e-05 0 0.000124849 5.33364e-05 0 0.00013844 4.68007e-05 0 0.000149806 4.00484e-05 0 0.00015904 3.31995e-05 0 0.000166234 2.63422e-05 0 0.000171473 1.95425e-05 0 0.000174823 1.28526e-05 0 0.00017633 6.32037e-06 0 0.000176029 -3.8215e-09 0 0.000173944 -6.05938e-06 0 0.000170106 -1.177e-05 0 0.000164573 -1.70405e-05 0 0.000157454 -2.17591e-05 0 0.000148937 -2.58076e-05 0 0.000139302 -2.90808e-05 0 0.000128917 -3.15134e-05 0 0.000118197 -3.31021e-05 0 0.000107537 -3.39127e-05 0 9.72567e-05 -3.40677e-05 0 8.75713e-05 -3.37223e-05 0 7.85801e-05 -3.3041e-05 0 7.02852e-05 -3.21835e-05 0 6.25737e-05 -3.13019e-05 0 5.51706e-05 -3.05323e-05 0 4.74091e-05 -2.99031e-05 0 3.85182e-05 -2.87295e-05 0 0 6.87196e-05 0 2.26748e-05 6.80436e-05 0 4.47092e-05 6.60668e-05 0 6.55456e-05 6.29253e-05 0 8.47634e-05 5.88116e-05 0 0.000102091 5.39372e-05 0 0.000117388 4.85049e-05 0 0.000130609 4.26915e-05 0 0.000141773 3.66418e-05 0 0.00015093 3.04698e-05 0 0.000158142 2.42637e-05 0 0.000163474 1.80926e-05 0 0.00016698 1.20136e-05 0 0.000168706 6.07855e-06 0 0.000168692 3.40669e-07 0 0.000166977 -5.14004e-06 0 0.000163609 -1.02928e-05 0 0.000158666 -1.50348e-05 0 0.000152269 -1.92739e-05 0 0.000144598 -2.29178e-05 0 0.000135905 -2.58882e-05 0 0.0001265 -2.81393e-05 0 0.000116722 -2.96719e-05 0 0.000106898 -3.05376e-05 0 9.72974e-05 -3.08314e-05 0 8.81099e-05 -3.06749e-05 0 7.94352e-05 -3.01998e-05 0 7.12823e-05 -2.9534e-05 0 6.35646e-05 -2.87892e-05 0 5.60683e-05 -2.8039e-05 0 4.84561e-05 -2.7216e-05 0 4.06557e-05 -2.60195e-05 0 0 6.13917e-05 0 2.11341e-05 6.08154e-05 0 4.17325e-05 5.91253e-05 0 6.13186e-05 5.64245e-05 0 7.95151e-05 5.28624e-05 0 9.60582e-05 4.86081e-05 0 0.000110789 4.38296e-05 0 0.000123633 3.86786e-05 0 0.000134571 3.32845e-05 0 0.000143624 2.77532e-05 0 0.000150829 2.21701e-05 0 0.00015623 1.66045e-05 0 0.000159874 1.11151e-05 0 0.000161803 5.75546e-06 0 0.00016206 5.79267e-07 0 0.000160694 -4.35579e-06 0 0.000157767 -8.98518e-06 0 0.000153365 -1.32371e-05 0 0.000147613 -1.70358e-05 0 0.000140685 -2.03083e-05 0 0.000132804 -2.29957e-05 0 0.000124235 -2.50653e-05 0 0.000115264 -2.65199e-05 0 0.000106163 -2.74007e-05 0 9.71626e-05 -2.77819e-05 0 8.84325e-05 -2.77593e-05 0 8.0069e-05 -2.7437e-05 0 7.20947e-05 -2.69151e-05 0 6.44539e-05 -2.6275e-05 0 5.70209e-05 -2.55547e-05 0 4.96492e-05 -2.47029e-05 0 4.24131e-05 -2.35632e-05 0 0 5.45441e-05 0 1.9818e-05 5.40518e-05 0 3.918e-05 5.26044e-05 0 5.76725e-05 5.02812e-05 0 7.49563e-05 4.71995e-05 0 9.07795e-05 4.34953e-05 0 0.000104975 3.93073e-05 0 0.000117446 3.47651e-05 0 0.000128151 2.99829e-05 0 0.000137083 2.50574e-05 0 0.000144261 2.00688e-05 0 0.000149714 1.50846e-05 0 0.000153477 1.01628e-05 0 0.000155591 5.35667e-06 0 0.000156101 7.18415e-07 0 0.00015506 -3.6977e-06 0 0.000152537 -7.83352e-06 0 0.000148625 -1.16272e-05 0 0.000143448 -1.50162e-05 0 0.000137169 -1.79424e-05 0 0.000129988 -2.03608e-05 0 0.000122137 -2.22478e-05 0 0.000113858 -2.3607e-05 0 0.000105383 -2.44717e-05 0 9.69126e-05 -2.49e-05 0 8.85996e-05 -2.49674e-05 0 8.05384e-05 -2.47559e-05 0 7.27643e-05 -2.43432e-05 0 6.52566e-05 -2.37894e-05 0 5.79546e-05 -2.31199e-05 0 5.08156e-05 -2.23055e-05 0 4.39262e-05 -2.12927e-05 0 0 4.81066e-05 0 1.86929e-05 4.76862e-05 0 3.69909e-05 4.64476e-05 0 5.45311e-05 4.44529e-05 0 7.10063e-05 4.17945e-05 0 8.6178e-05 3.85822e-05 0 9.98762e-05 3.49308e-05 0 0.000111992 3.09502e-05 0 0.000122465 2.674e-05 0 0.00013127 2.23869e-05 0 0.000138408 1.79653e-05 0 0.000143897 1.35386e-05 0 0.000147764 9.16258e-06 0 0.000150044 4.88851e-06 0 0.000150784 7.65824e-07 0 0.000150039 -3.15541e-06 0 0.000147883 -6.82341e-06 0 0.000144409 -1.01851e-05 0 0.00013974 -1.31886e-05 0 0.000134027 -1.57877e-05 0 0.000127451 -1.79474e-05 0 0.000120216 -1.96502e-05 0 0.000112531 -2.09002e-05 0 0.000104598 -2.17241e-05 0 9.65948e-05 -2.21678e-05 0 8.86596e-05 -2.22907e-05 0 8.08861e-05 -2.21573e-05 0 7.33218e-05 -2.18281e-05 0 6.59739e-05 -2.13493e-05 0 5.88281e-05 -2.07418e-05 0 5.18885e-05 -1.99978e-05 0 4.52303e-05 -1.9096e-05 0 0 4.20191e-05 0 1.77328e-05 4.16612e-05 0 3.51184e-05 4.06053e-05 0 5.18338e-05 3.89e-05 0 6.75993e-05 3.66189e-05 0 8.21895e-05 3.38507e-05 0 9.54353e-05 3.069e-05 0 0.00010722 2.72296e-05 0 0.00011747 2.35555e-05 0 0.000126147 1.97444e-05 0 0.000133239 1.58634e-05 0 0.000138752 1.19713e-05 0 0.000142707 8.12012e-06 0 0.000145135 4.35772e-06 0 0.000146082 7.29947e-07 0 0.000145605 -2.71787e-06 0 0.000143776 -5.94012e-06 0 0.000140691 -8.89153e-06 0 0.000136466 -1.15291e-05 0 0.000131244 -1.38157e-05 0 0.000125188 -1.57241e-05 0 0.00011848 -1.72411e-05 0 0.000111305 -1.83708e-05 0 0.000103841 -1.91345e-05 0 9.62466e-05 -1.95686e-05 0 8.86504e-05 -1.97199e-05 0 8.11452e-05 -1.96391e-05 0 7.37885e-05 -1.93738e-05 0 6.66085e-05 -1.89606e-05 0 5.96198e-05 -1.84199e-05 0 5.28492e-05 -1.7755e-05 0 4.63593e-05 -1.69681e-05 0 0 3.62294e-05 0 1.69177e-05 3.59268e-05 0 3.35255e-05 3.5033e-05 0 4.95324e-05 3.35862e-05 0 6.46816e-05 3.16452e-05 0 7.876e-05 2.92816e-05 0 9.16013e-05 2.6573e-05 0 0.000103084 2.3597e-05 0 0.000113127 2.04272e-05 0 0.000121681 1.71303e-05 0 0.000128724 1.37659e-05 0 0.000134253 1.03869e-05 0 0.000138282 7.0408e-06 0 0.000140841 3.77121e-06 0 0.000141971 6.19602e-07 0 0.00014173 -2.37369e-06 0 0.000140191 -5.16904e-06 0 0.000137445 -7.7281e-06 0 0.000133606 -1.00154e-05 0 0.000128806 -1.2001e-05 0 0.000123195 -1.36636e-05 0 0.000116937 -1.49933e-05 0 0.000110197 -1.59936e-05 0 0.000103136 -1.66818e-05 0 9.58975e-05 -1.70866e-05 0 8.86018e-05 -1.7245e-05 0 8.13414e-05 -1.71968e-05 0 7.41813e-05 -1.69798e-05 0 6.71644e-05 -1.6624e-05 0 6.03232e-05 -1.61489e-05 0 5.36954e-05 -1.55647e-05 0 4.7335e-05 -1.488e-05 0 0 3.06913e-05 0 1.62317e-05 3.04384e-05 0 3.2183e-05 2.96904e-05 0 4.75882e-05 2.84777e-05 0 6.22094e-05 2.68468e-05 0 7.58447e-05 2.48552e-05 0 8.83316e-05 2.25663e-05 0 9.95466e-05 2.00444e-05 0 0.000109402 1.73512e-05 0 0.000117842 1.45438e-05 0 0.000124836 1.16742e-05 0 0.000130374 8.78876e-06 0 0.000134467 5.92969e-06 0 0.000137138 3.13581e-06 0 0.000138428 4.43701e-07 0 0.000138393 -2.1115e-06 0 0.000137105 -4.49591e-06 0 0.000134653 -6.67742e-06 0 0.000131145 -8.62701e-06 0 0.000126704 -1.03206e-05 0 0.000121471 -1.17416e-05 0 0.000115593 -1.28824e-05 0 0.000109222 -1.37463e-05 0 0.000102504 -1.43469e-05 0 9.55706e-05 -1.47069e-05 0 8.85371e-05 -1.48554e-05 0 8.14949e-05 -1.4824e-05 0 7.45143e-05 -1.46426e-05 0 6.76479e-05 -1.43363e-05 0 6.09392e-05 -1.39232e-05 0 5.44315e-05 -1.3416e-05 0 4.81733e-05 -1.28275e-05 0 0 2.53636e-05 0 1.56627e-05 2.51559e-05 0 3.10678e-05 2.4541e-05 0 4.59702e-05 2.35428e-05 0 6.01473e-05 2.21979e-05 0 7.34067e-05 2.0552e-05 0 8.559e-05 1.86561e-05 0 9.65731e-05 1.65624e-05 0 0.000106265 1.43221e-05 0 0.000114603 1.19829e-05 0 0.000121551 9.58875e-06 0 0.000127095 7.17952e-06 0 0.00013124 4.7915e-06 0 0.000134007 2.45821e-06 0 0.000135435 2.11072e-07 0 0.000135576 -1.92008e-06 0 0.000134502 -3.9069e-06 0 0.000132299 -5.72299e-06 0 0.00012907 -7.3449e-06 0 0.000124931 -8.7536e-06 0 0.000120013 -9.93607e-06 0 0.000114453 -1.08867e-05 0 0.00010839 -1.16083e-05 0 0.000101959 -1.21118e-05 0 9.52843e-05 -1.24148e-05 0 8.8475e-05 -1.25403e-05 0 8.16222e-05 -1.2513e-05 0 7.47995e-05 -1.23568e-05 0 6.80662e-05 -1.20924e-05 0 6.14723e-05 -1.17363e-05 0 5.50643e-05 -1.13014e-05 0 4.88879e-05 -1.08006e-05 0 0 2.02087e-05 0 1.52008e-05 2.00426e-05 0 3.01619e-05 1.9551e-05 0 4.4654e-05 1.87519e-05 0 5.84668e-05 1.76738e-05 0 7.14159e-05 1.63524e-05 0 8.33468e-05 1.48276e-05 0 9.41356e-05 1.3141e-05 0 0.000103689 1.13337e-05 0 0.00011194 9.44451e-06 0 0.000118849 7.5094e-06 0 0.000124397 5.56135e-06 0 0.000128585 3.63056e-06 0 0.000131432 1.74489e-06 0 0.000132974 -6.96356e-08 0 0.000133263 -1.7885e-06 0 0.000132368 -3.38871e-06 0 0.000130371 -4.84915e-06 0 0.000127372 -6.15136e-06 0 0.000123481 -7.28057e-06 0 0.000118821 -8.2269e-06 0 0.00011352 -8.9863e-06 0 0.000107709 -9.56109e-06 0 0.000101514 -9.95983e-06 0 9.50528e-05 -1.01964e-05 0 8.84299e-05 -1.02884e-05 0 8.17361e-05 -1.02552e-05 0 7.50473e-05 -1.01155e-05 0 6.84267e-05 -9.88641e-06 0 6.19285e-05 -9.58193e-06 0 5.56011e-05 -9.21419e-06 0 4.94888e-05 -8.79494e-06 0 0 1.51918e-05 0 1.48387e-05 1.50648e-05 0 2.94512e-05 1.46886e-05 0 4.36202e-05 1.40768e-05 0 5.71451e-05 1.32507e-05 0 6.98481e-05 1.22369e-05 0 8.15778e-05 1.1066e-05 0 9.22109e-05 9.7695e-06 0 0.000101652 8.37911e-06 0 0.000109834 6.92497e-06 0 0.000116711 5.43526e-06 0 0.000122262 3.93594e-06 0 0.000126485 2.45085e-06 0 0.000129397 1.00204e-06 0 0.000131033 -3.90011e-07 0 0.000131442 -1.70612e-06 0 0.00013069 -2.9285e-06 0 0.000128859 -4.04099e-06 0 0.000126043 -5.02966e-06 0 0.000122349 -5.88354e-06 0 0.000117894 -6.59544e-06 0 0.000112799 -7.16258e-06 0 0.000107188 -7.58697e-06 0 0.00010118 -7.87522e-06 0 9.48874e-05 -8.03789e-06 0 8.84135e-05 -8.08833e-06 0 8.18474e-05 -8.04124e-06 0 7.52664e-05 -7.91118e-06 0 6.87363e-05 -7.71149e-06 0 6.23137e-05 -7.45377e-06 0 5.60486e-05 -7.14833e-06 0 4.99847e-05 -6.80494e-06 0 0 1.02804e-05 0 1.45706e-05 1.01905e-05 0 2.89248e-05 9.92413e-06 0 4.28541e-05 9.49078e-06 0 5.61651e-05 8.90533e-06 0 6.86846e-05 8.18669e-06 0 8.0264e-05 7.3563e-06 0 9.07808e-05 6.4368e-06 0 0.000100139 5.45079e-06 0 0.000108268 4.42006e-06 0 0.000115123 3.36501e-06 0 0.000120677 2.30454e-06 0 0.000124929 1.25606e-06 0 0.000127892 2.35622e-07 0 0.0001296 -7.41882e-07 0 0.000130101 -1.66262e-06 0 0.00012946 -2.51388e-06 0 0.000127755 -3.28422e-06 0 0.000125078 -3.96394e-06 0 0.000121534 -4.5455e-06 0 0.000117233 -5.02413e-06 0 0.000112292 -5.39818e-06 0 0.00010683 -5.66939e-06 0 0.000100962 -5.84272e-06 0 9.47966e-05 -5.92589e-06 0 8.84345e-05 -5.92861e-06 0 8.19644e-05 -5.86159e-06 0 7.54641e-05 -5.73556e-06 0 6.9001e-05 -5.5605e-06 0 6.26335e-05 -5.34535e-06 0 5.64125e-05 -5.09813e-06 0 5.03817e-05 -4.8264e-06 0 0 5.4438e-06 0 1.43925e-05 5.38959e-06 0 2.8575e-05 5.22902e-06 0 4.23451e-05 4.96788e-06 0 5.55138e-05 4.61526e-06 0 6.79115e-05 4.18274e-06 0 7.93914e-05 3.68352e-06 0 8.98316e-05 3.13158e-06 0 9.91356e-05 2.54093e-06 0 0.000107232 1.92512e-06 0 0.000114073 1.29692e-06 0 0.000119633 6.68116e-07 0 0.000123907 4.9602e-08 0 0.000126908 -5.48615e-07 0 0.000128668 -1.1173e-06 0 0.000129234 -1.64795e-06 0 0.00012867 -2.13283e-06 0 0.000127053 -2.56508e-06 0 0.000124473 -2.93898e-06 0 0.000121031 -3.25023e-06 0 0.000116836 -3.49627e-06 0 0.000112 -3.67652e-06 0 0.00010664 -3.79247e-06 0 0.000100866 -3.84763e-06 0 9.47869e-05 -3.84724e-06 0 8.84997e-05 -3.79776e-06 0 8.20933e-05 -3.70634e-06 0 7.56459e-05 -3.58017e-06 0 6.92257e-05 -3.42606e-06 0 6.28924e-05 -3.25018e-06 0 5.66974e-05 -3.05807e-06 0 5.06847e-05 -2.85477e-06 0 0 6.52221e-07 0 1.43016e-05 6.32886e-07 0 2.83967e-05 5.757e-07 0 4.20859e-05 4.82974e-07 0 5.51827e-05 3.58341e-07 0 6.75195e-05 2.06439e-07 0 7.89504e-05 3.25691e-08 0 8.93538e-05 -1.57649e-07 0 9.86332e-05 -3.58564e-07 0 0.000106716 -5.64717e-07 0 0.000113555 -7.70976e-07 0 0.000119122 -9.72609e-07 0 0.000123412 -1.16529e-06 0 0.000126438 -1.34511e-06 0 0.00012823 -1.5085e-06 0 0.000128836 -1.65228e-06 0 0.000128317 -1.77362e-06 0 0.000126751 -1.87016e-06 0 0.000124225 -1.94004e-06 0 0.000120841 -1.98206e-06 0 0.000116703 -1.99576e-06 0 0.000111926 -1.98157e-06 0 0.00010662 -1.94079e-06 0 0.000100897 -1.8756e-06 0 9.48627e-05 -1.78893e-06 0 8.86138e-05 -1.68427e-06 0 8.22387e-05 -1.56544e-06 0 7.58159e-05 -1.43631e-06 0 6.94141e-05 -1.30061e-06 0 6.30936e-05 -1.16172e-06 0 5.69064e-05 -1.0226e-06 0 5.0897e-05 -8.85756e-07 0 0 -4.12328e-06 0 1.42965e-05 -4.10807e-06 0 2.83871e-05 -4.06285e-06 0 4.20727e-05 -3.98868e-06 0 5.51674e-05 -3.88726e-06 0 6.75037e-05 -3.76075e-06 0 7.89359e-05 -3.61161e-06 0 8.93426e-05 -3.44245e-06 0 9.8627e-05 -3.2559e-06 0 0.000106717 -3.05453e-06 0 0.000113564 -2.8408e-06 0 0.000119141 -2.61706e-06 0 0.000123442 -2.38554e-06 0 0.00012648 -2.14842e-06 0 0.000128285 -1.90784e-06 0 0.000128903 -1.6659e-06 0 0.000128398 -1.42471e-06 0 0.000126846 -1.18631e-06 0 0.000124334 -9.52674e-07 0 0.000120962 -7.25638e-07 0 0.000116837 -5.06837e-07 0 0.000112069 -2.97664e-07 0 0.000106773 -9.92521e-08 0 0.000101057 8.75086e-08 0 9.50267e-05 2.6191e-07 0 8.87795e-05 4.23344e-07 0 8.24035e-05 5.71206e-07 0 7.59768e-05 7.04841e-07 0 6.95686e-05 8.23545e-07 0 6.32392e-05 9.26675e-07 0 5.70414e-05 1.01384e-06 0 5.10202e-05 1.0851e-06 0 0 -8.9114e-06 0 1.43771e-05 -8.8615e-06 0 2.85458e-05 -8.71341e-06 0 4.2305e-05 -8.47163e-06 0 5.54671e-05 -8.14326e-06 0 6.78633e-05 -7.73732e-06 0 7.93472e-05 -7.26409e-06 0 8.97971e-05 -6.73445e-06 0 9.91164e-05 -6.15938e-06 0 0.000107233 -5.54946e-06 0 0.0001141 -4.91477e-06 0 0.000119689 -4.26472e-06 0 0.000123996 -3.60809e-06 0 0.000127033 -2.95316e-06 0 0.000128831 -2.30773e-06 0 0.000129437 -1.67922e-06 0 0.000128914 -1.07464e-06 0 0.000127338 -5.00477e-07 0 0.000124798 3.74341e-08 0 0.000121395 5.342e-07 0 0.000117236 9.86084e-07 0 0.000112432 1.39071e-06 0 0.000107099 1.74712e-06 0 0.000101346 2.05574e-06 0 9.528e-05 2.31812e-06 0 8.89982e-05 2.53658e-06 0 8.25887e-05 2.71374e-06 0 7.61297e-05 2.85218e-06 0 6.96899e-05 2.95416e-06 0 6.333e-05 3.0217e-06 0 5.71029e-05 3.05688e-06 0 5.10545e-05 3.06226e-06 0 0 -1.3741e-05 0 1.45442e-05 -1.36557e-05 0 2.88747e-05 -1.34029e-05 0 4.27855e-05 -1.29905e-05 0 5.6085e-05 -1.24314e-05 0 6.86017e-05 -1.17418e-05 0 8.01877e-05 -1.09399e-05 0 9.07208e-05 -1.00453e-05 0 0.000100105 -9.07724e-06 0 0.000108268 -8.05461e-06 0 0.000115165 -6.99507e-06 0 0.000120769 -5.91507e-06 0 0.000125075 -4.82993e-06 0 0.000128099 -3.75396e-06 0 0.000129871 -2.70061e-06 0 0.000130439 -1.68261e-06 0 0.000129866 -7.11932e-07 0 0.00012823 2.00404e-07 0 0.000125621 1.04463e-06 0 0.000122142 1.81268e-06 0 0.000117901 2.49864e-06 0 0.000113015 3.0991e-06 0 0.000107598 3.61332e-06 0 0.000101765 4.04314e-06 0 9.56222e-05 4.39253e-06 0 8.92692e-05 4.66689e-06 0 8.27939e-05 4.87228e-06 0 7.62741e-05 5.01458e-06 0 6.97779e-05 5.09903e-06 0 6.33654e-05 5.13015e-06 0 5.709e-05 5.11229e-06 0 5.09987e-05 5.05037e-06 0 0 -1.86413e-05 0 1.48001e-05 -1.85196e-05 0 2.9378e-05 -1.81586e-05 0 4.35199e-05 -1.75703e-05 0 5.70281e-05 -1.67738e-05 0 6.97267e-05 -1.57927e-05 0 8.14654e-05 -1.46541e-05 0 9.21214e-05 -1.33864e-05 0 0.000101599 -1.20176e-05 0 0.000109829 -1.0575e-05 0 0.000116766 -9.08377e-06 0 0.000122386 -7.5675e-06 0 0.000126687 -6.04793e-06 0 0.000129685 -4.54535e-06 0 0.00013141 -3.07881e-06 0 0.000131913 -1.66637e-06 0 0.000131258 -3.25018e-07 0 0.000129524 9.2956e-07 0 0.000126805 2.08347e-06 0 0.000123203 3.12527e-06 0 0.000118834 4.04672e-06 0 0.000113816 4.84331e-06 0 0.000108269 5.51457e-06 0 0.000102311 6.06392e-06 0 9.60511e-05 6.49802e-06 0 8.95904e-05 6.82575e-06 0 8.30172e-05 7.0569e-06 0 7.64084e-05 7.2009e-06 0 6.9831e-05 7.26596e-06 0 6.33438e-05 7.2589e-06 0 5.70007e-05 7.18599e-06 0 5.08499e-05 7.05412e-06 0 0 -2.36429e-05 0 1.51485e-05 -2.34829e-05 0 3.00626e-05 -2.30086e-05 0 4.45177e-05 -2.22366e-05 0 5.83075e-05 -2.11926e-05 0 7.12502e-05 -1.99089e-05 0 8.31926e-05 -1.84218e-05 0 9.4011e-05 -1.67693e-05 0 0.000103611 -1.49886e-05 0 0.000111926 -1.31154e-05 0 0.000118913 -1.11828e-05 0 0.000124551 -9.22122e-06 0 0.00012884 -7.25885e-06 0 0.000131797 -5.32177e-06 0 0.000133456 -3.43458e-06 0 0.000133868 -1.62065e-06 0 0.000133098 9.79044e-08 0 0.000131228 1.70051e-06 0 0.000128354 3.16886e-06 0 0.000124583 4.48787e-06 0 0.000120036 5.64669e-06 0 0.000114836 6.6396e-06 0 0.00010911 7.46645e-06 0 0.000102981 8.13251e-06 0 9.65626e-05 8.64758e-06 0 8.99574e-05 9.02457e-06 0 8.32546e-05 9.27753e-06 0 7.65294e-05 9.41983e-06 0 6.98463e-05 9.4627e-06 0 6.32625e-05 9.41496e-06 0 5.68313e-05 9.28413e-06 0 5.06037e-05 9.07871e-06 0 0 -2.87775e-05 0 1.55943e-05 -2.85767e-05 0 3.09381e-05 -2.79823e-05 0 4.57922e-05 -2.70159e-05 0 5.9939e-05 -2.57109e-05 0 7.31894e-05 -2.41093e-05 0 8.53864e-05 -2.2258e-05 0 9.64063e-05 -2.02051e-05 0 0.000106157 -1.79977e-05 0 0.000114574 -1.56802e-05 0 0.000121619 -1.32936e-05 0 0.000127275 -1.08752e-05 0 0.000131545 -8.45922e-06 0 0.000134447 -6.07748e-06 0 0.00013602 -3.75997e-06 0 0.000136312 -1.53536e-06 0 0.000135394 5.68929e-07 0 0.000133348 2.52718e-06 0 0.000130274 4.31629e-06 0 0.000126285 5.91703e-06 0 0.000121508 7.31562e-06 0 0.000116074 8.5049e-06 0 0.000110118 9.48511e-06 0 0.000103771 1.02637e-05 0 9.71506e-05 1.08544e-05 0 9.03643e-05 1.12747e-05 0 8.35007e-05 1.15439e-05 0 7.66326e-05 1.16798e-05 0 6.98204e-05 1.16969e-05 0 6.31178e-05 1.16055e-05 0 5.65775e-05 1.14133e-05 0 5.0254e-05 1.11292e-05 0 0 -3.40789e-05 0 1.61445e-05 -3.38343e-05 0 3.20173e-05 -3.31106e-05 0 4.73608e-05 -3.19356e-05 0 6.19431e-05 -3.03521e-05 0 7.55661e-05 -2.84133e-05 0 8.80691e-05 -2.61776e-05 0 9.93285e-05 -2.37047e-05 0 0.000109255 -2.10522e-05 0 0.00011779 -1.82735e-05 0 0.0001249 -1.54175e-05 0 0.000130573 -1.2528e-05 0 0.000134816 -9.64534e-06 0 0.00013765 -6.80654e-06 0 0.000139113 -4.04684e-06 0 0.000139259 -1.4002e-06 0 0.000138157 1.10053e-06 0 0.000135894 3.42407e-06 0 0.000132573 5.54194e-06 0 0.000128314 7.43021e-06 0 0.000123252 9.07155e-06 0 0.000117528 1.04571e-05 0 0.000111288 1.15875e-05 0 0.000104672 1.2473e-05 0 9.78067e-05 1.31317e-05 0 9.08024e-05 1.35873e-05 0 8.3748e-05 1.38651e-05 0 7.67123e-05 1.39887e-05 0 6.97492e-05 1.39758e-05 0 6.2906e-05 1.38377e-05 0 5.62338e-05 1.35806e-05 0 4.97925e-05 1.32126e-05 0 0 -3.95836e-05 0 1.68078e-05 -3.92911e-05 0 3.33169e-05 -3.84264e-05 0 4.92462e-05 -3.70249e-05 0 6.43462e-05 -3.51407e-05 0 7.84083e-05 -3.28401e-05 0 9.12682e-05 -3.01952e-05 0 0.000102804 -2.72784e-05 0 0.000112931 -2.41586e-05 0 0.000121598 -2.08986e-05 0 0.000128778 -1.7555e-05 0 0.000134465 -1.4178e-05 0 0.000138671 -1.08132e-05 0 0.00014142 -7.50279e-06 0 0.000142753 -4.28686e-06 0 0.000142723 -1.20457e-06 0 0.000141402 1.7056e-06 0 0.000138879 4.40632e-06 0 0.000135261 6.86297e-06 0 0.000130676 9.04602e-06 0 0.000125269 1.09338e-05 0 0.000119195 1.25154e-05 0 0.000112613 1.37917e-05 0 0.000105675 1.47764e-05 0 9.85194e-05 1.54932e-05 0 9.12603e-05 1.59734e-05 0 8.39867e-05 1.62501e-05 0 7.67617e-05 1.63537e-05 0 6.96286e-05 1.63064e-05 0 6.2624e-05 1.61193e-05 0 5.57947e-05 1.57945e-05 0 4.92094e-05 1.53344e-05 0 0 -4.53315e-05 0 1.75956e-05 -4.49859e-05 0 3.48581e-05 -4.39653e-05 0 5.14768e-05 -4.23147e-05 0 6.7181e-05 -4.0102e-05 0 8.17503e-05 -3.74094e-05 0 9.50172e-05 -3.43252e-05 0 0.000106863 -3.0936e-05 0 0.000117213 -2.73227e-05 0 0.000126022 -2.35581e-05 0 0.000133274 -1.9706e-05 0 0.000138971 -1.58227e-05 0 0.000143129 -1.19585e-05 0 0.000145777 -8.1599e-06 0 0.000146957 -4.47155e-06 0 0.000146723 -9.37632e-07 0 0.000145146 2.3975e-06 0 0.000142317 5.48983e-06 0 0.00013835 8.29763e-06 0 0.000133379 1.07846e-05 0 0.000127563 1.29235e-05 0 0.000121072 1.47006e-05 0 0.000114084 1.61172e-05 0 0.000106768 1.71909e-05 0 9.92734e-05 1.79529e-05 0 9.17228e-05 1.84435e-05 0 8.42043e-05 1.87062e-05 0 7.67726e-05 1.87805e-05 0 6.94554e-05 1.86943e-05 0 6.22707e-05 1.8458e-05 0 5.52553e-05 1.80644e-05 0 4.84908e-05 1.75077e-05 0 0 -5.1367e-05 0 1.85224e-05 -5.09616e-05 0 3.66678e-05 -4.97661e-05 0 5.40885e-05 -4.78378e-05 0 7.04882e-05 -4.52621e-05 0 8.56338e-05 -4.21409e-05 0 9.93564e-05 -3.8581e-05 0 0.000111544 -3.46858e-05 0 0.000122133 -3.05491e-05 0 0.000131091 -2.62534e-05 0 0.000138415 -2.18696e-05 0 0.000144114 -1.74593e-05 0 0.000148212 -1.30765e-05 0 0.000150743 -8.77136e-06 0 0.000151747 -4.59234e-06 0 0.000151279 -5.88405e-07 0 0.000149409 3.18999e-06 0 0.000146229 6.69139e-06 0 0.000141855 9.86558e-06 0 0.000136433 1.26678e-05 0 0.000130135 1.50638e-05 0 0.000123155 1.70358e-05 0 0.00011569 1.85854e-05 0 0.000107933 1.9735e-05 0 0.000100049 2.0525e-05 0 9.21704e-05 2.10077e-05 0 8.43846e-05 2.12397e-05 0 7.67355e-05 2.12729e-05 0 6.92282e-05 2.11436e-05 0 6.18498e-05 2.08613e-05 0 5.46142e-05 2.04044e-05 0 4.76205e-05 1.9739e-05 0 0 -5.774e-05 0 1.96067e-05 -5.72662e-05 0 3.87801e-05 -5.58717e-05 0 5.7126e-05 -5.36296e-05 0 7.43176e-05 -5.06482e-05 0 9.01091e-05 -4.70536e-05 0 0.000104333 -4.29753e-05 0 0.000116889 -3.8535e-05 0 0.000127729 -3.38408e-05 0 0.000136838 -2.89846e-05 0 0.000144228 -2.4044e-05 0 0.00014992 -1.90842e-05 0 0.000153946 -1.41623e-05 0 0.000156341 -9.33066e-06 0 0.000157147 -4.64075e-06 0 0.000156417 -1.45888e-07 0 0.000154216 4.0972e-06 0 0.000150636 8.02863e-06 0 0.000145795 1.1588e-05 0 0.00013985 1.47199e-05 0 0.000132991 1.73807e-05 0 0.000125437 1.95468e-05 0 0.000117417 2.12199e-05 0 0.000109148 2.24286e-05 0 0.000100821 2.32246e-05 0 9.25773e-05 2.36755e-05 0 8.45065e-05 2.38549e-05 0 7.66386e-05 2.38312e-05 0 6.89489e-05 2.36544e-05 0 6.13743e-05 2.33366e-05 0 5.3878e-05 2.28304e-05 0 4.65763e-05 2.20635e-05 0 0 -6.45075e-05 0 2.08723e-05 -6.39542e-05 0 4.12383e-05 -6.23296e-05 0 6.06451e-05 -5.97284e-05 0 7.87305e-05 -5.62883e-05 0 9.52365e-05 -5.21662e-05 0 0.000110002 -4.75187e-05 0 0.000122946 -4.24886e-05 0 0.000134042 -3.71987e-05 0 0.000143298 -3.17502e-05 0 0.000150744 -2.62258e-05 0 0.000156416 -2.06933e-05 0 0.000160354 -1.52107e-05 0 0.000162597 -9.83139e-06 0 0.000163185 -4.60861e-06 0 0.000162164 4.00669e-07 0 0.000159596 5.13336e-06 0 0.000155566 9.52008e-06 0 0.000150194 1.34881e-05 0 0.000143646 1.6968e-05 0 0.000136136 1.99037e-05 0 0.000127913 2.22633e-05 0 0.000119244 2.40479e-05 0 0.000110386 2.52937e-05 0 0.000101555 2.60673e-05 0 9.291e-05 2.64555e-05 0 8.45414e-05 2.65532e-05 0 7.64662e-05 2.64511e-05 0 6.8622e-05 2.62208e-05 0 6.08746e-05 2.58864e-05 0 5.30726e-05 2.53732e-05 0 4.53218e-05 2.44899e-05 0 0 -7.17362e-05 0 2.23501e-05 -7.10889e-05 0 4.40981e-05 -6.91938e-05 0 6.47165e-05 -6.61754e-05 0 8.3802e-05 -6.22107e-05 0 0.000101088 -5.74956e-05 0 0.000116429 -5.22195e-05 0 0.00012977 -4.65487e-05 0 0.000141117 -4.06212e-05 0 0.000150508 -3.45465e-05 0 0.000157994 -2.84106e-05 0 0.00016363 -2.22815e-05 0 0.000167464 -1.62164e-05 0 0.000169538 -1.02675e-05 0 0.000169888 -4.48842e-06 0 0.000168553 1.06137e-06 0 0.000165583 6.31253e-06 0 0.000161053 1.1185e-05 0 0.000155082 1.55908e-05 0 0.000147843 1.94426e-05 0 0.000139576 2.26667e-05 0 0.000130572 2.52196e-05 0 0.000121148 2.71005e-05 0 0.000111609 2.83553e-05 0 0.000102208 2.90699e-05 0 9.31247e-05 2.93554e-05 0 8.44515e-05 2.93333e-05 0 7.61931e-05 2.91222e-05 0 6.82548e-05 2.88252e-05 0 6.04052e-05 2.85048e-05 0 5.22798e-05 2.80654e-05 0 4.38214e-05 2.71502e-05 0 0 -7.95048e-05 0 2.4081e-05 -7.87441e-05 0 4.74316e-05 -7.65254e-05 0 6.94291e-05 -7.3015e-05 0 8.96241e-05 -6.84432e-05 0 0.000107749 -6.30561e-05 0 0.000123686 -5.70821e-05 0 0.000137421 -5.07138e-05 0 0.000149003 -4.41036e-05 0 0.000158506 -3.73674e-05 0 0.00016601 -3.05919e-05 0 0.00017159 -2.3843e-05 0 0.000175303 -1.7174e-05 0 0.000177193 -1.06337e-05 0 0.00017729 -4.27381e-06 0 0.00017562 1.84513e-06 0 0.000172217 7.64803e-06 0 0.00016714 1.3043e-05 0 0.000160497 1.79236e-05 0 0.000152469 2.21785e-05 0 0.000143323 2.57098e-05 0 0.000133404 2.84564e-05 0 0.000123097 3.04141e-05 0 0.000112771 3.16418e-05 0 0.000102726 3.22505e-05 0 9.31659e-05 3.23827e-05 0 8.41845e-05 3.2191e-05 0 7.57827e-05 3.18266e-05 0 6.784e-05 3.14353e-05 0 6.00584e-05 3.11484e-05 0 5.17024e-05 3.09766e-05 0 4.19261e-05 3.01253e-05 0 0 -8.79085e-05 0 2.612e-05 -8.70084e-05 0 5.1334e-05 -8.43946e-05 0 7.4897e-05 -8.02947e-05 0 9.63108e-05 -7.50121e-05 0 0.000115321 -6.88577e-05 0 0.000131856 -6.2106e-05 0 0.000145965 -5.49771e-05 0 0.000157749 -4.76366e-05 0 0.00016733 -4.02035e-05 0 0.000174823 -3.27617e-05 0 0.000180321 -2.53711e-05 0 0.000183896 -1.80784e-05 0 0.000185589 -1.09258e-05 0 0.000185423 -3.96018e-06 0 0.000183406 2.75882e-06 0 0.000179547 9.15161e-06 0 0.000173878 1.51136e-05 0 0.00016649 2.05159e-05 0 0.000157561 2.52157e-05 0 0.000147392 2.90806e-05 0 0.000136396 3.2023e-05 0 0.000125051 3.40327e-05 0 0.00011381 3.5186e-05 0 0.000103042 3.56289e-05 0 9.29572e-05 3.55436e-05 0 8.36819e-05 3.51201e-05 0 7.51576e-05 3.45414e-05 0 6.73673e-05 3.40004e-05 0 5.98683e-05 3.37123e-05 0 5.19379e-05 3.40807e-05 0 3.95736e-05 3.43261e-05 0 0 -9.70621e-05 0 2.85429e-05 -9.59898e-05 0 5.59296e-05 -9.28822e-05 0 8.12652e-05 -8.80643e-05 0 0.000103999 -8.19401e-05 0 0.00012392 -7.49038e-05 0 0.000141034 -6.72832e-05 0 0.00015547 -5.93258e-05 0 0.000167406 -5.12063e-05 0 0.000177018 -4.3042e-05 0 0.000184459 -3.49095e-05 0 0.000189848 -2.68586e-05 0 0.000193266 -1.89251e-05 0 0.000194754 -1.11411e-05 0 0.000194323 -3.54548e-06 0 0.000191955 3.80625e-06 0 0.000187627 1.08323e-05 0 0.000181333 1.7415e-05 0 0.000173124 2.33995e-05 0 0.000163173 2.86005e-05 0 0.000151805 3.28374e-05 0 0.000139535 3.59798e-05 0 0.00012695 3.80098e-05 0 0.000114663 3.90254e-05 0 0.000103041 3.92267e-05 0 9.24625e-05 3.88441e-05 0 8.27655e-05 3.81115e-05 0 7.44089e-05 3.72502e-05 0 6.64188e-05 3.64404e-05 0 6.02885e-05 3.60994e-05 0 5.33974e-05 3.6417e-05 0 3.22586e-05 4.61287e-05 0 </DataArray> 
</PointData> 
<Points> 
<DataArray type="Float32" NumberOfComponents="3"> 