<?xml version="1.0"?> 
<VTKFile type="StructuredGrid" version="0.1"> 
<StructuredGrid WholeExtent="0 31 0 31 0 0"> 
<Piece Extent="0 31 0 31 0 0"> 
<PointData>
<DataArray type="Float32" Name="u" format="ascii" NumberOfComponents="3"> 
0 0 0 3.95209e-05 4.62832e-05 0 6.93388e-05 6.30379e-05 0 9.98488e-05 7.08769e-05 0 0.000131251 7.45911e-05 0 0.000163762 7.62857e-05 0 0.000196934 7.70418e-05 0 0.000230679 7.7344e-05 0 0.000264766 7.74542e-05 0 0.000299116 7.74762e-05 0 0.000333631 7.74688e-05 0 0.000368265 7.74501e-05 0 0.000402978 7.74301e-05 0 0.000437747 7.74095e-05 0 0.000472553 7.73878e-05 0 0.000507387 7.73632e-05 0 0.00054224 7.73339e-05 0 0.000577108 7.72983e-05 0 0.00061199 7.72551e-05 0 0.000646884 7.72037e-05 0 0.000681791 7.71439e-05 0 0.000716712 7.70762e-05 0 0.000751648 7.70008e-05 0 0.0007866 7.69195e-05 0 0.000821565 7.68309e-05 0 0.000856544 7.67354e-05 0 0.000891523 7.66171e-05 0 0.0009265 7.64614e-05 0 0.000961435 7.61801e-05 0 0.00099635 7.56667e-05 0 0.00103118 7.4499e-05 0 0.00106618 7.12747e-05 0 0 0 0 3.51654e-05 4.16468e-05 0 6.75532e-05 5.85289e-05 0 9.93591e-05 6.63864e-05 0 0.000131445 6.99331e-05 0 0.000164196 7.15285e-05 0 0.000197489 7.21996e-05 0 0.000231219 7.24387e-05 0 0.000265274 7.25078e-05 0 0.000299557 7.24984e-05 0 0.000334006 7.2471e-05 0 0.000368569 7.24374e-05 0 0.000403214 7.24076e-05 0 0.000437914 7.23799e-05 0 0.000472654 7.23535e-05 0 0.000507421 7.23255e-05 0 0.000542209 7.22938e-05 0 0.00057701 7.22564e-05 0 0.000611822 7.22118e-05 0 0.000646644 7.21591e-05 0 0.000681473 7.20982e-05 0 0.000716309 7.20293e-05 0 0.000751151 7.1953e-05 0 0.000785997 7.18708e-05 0 0.000820843 7.17822e-05 0 0.000855683 7.16872e-05 0 0.000890503 7.15722e-05 0 0.000925289 7.14209e-05 0 0.000960004 7.11515e-05 0 0.00099462 7.06482e-05 0 0.00102903 6.9505e-05 0 0.00106299 6.64599e-05 0 0 0 0 3.25214e-05 3.70665e-05 0 6.59181e-05 5.39534e-05 0 9.86129e-05 6.17386e-05 0 0.000131349 6.52254e-05 0 0.000164408 6.6737e-05 0 0.000197854 6.73435e-05 0 0.000231635 6.75335e-05 0 0.000265682 6.75638e-05 0 0.000299934 6.75285e-05 0 0.000334333 6.74809e-05 0 0.000368841 6.7434e-05 0 0.000403426 6.73942e-05 0 0.000438066 6.73599e-05 0 0.000472745 6.73287e-05 0 0.00050745 6.72975e-05 0 0.000542174 6.72635e-05 0 0.000576911 6.72246e-05 0 0.000611656 6.71791e-05 0 0.000646407 6.71259e-05 0 0.000681159 6.70647e-05 0 0.000715912 6.69958e-05 0 0.000750662 6.692e-05 0 0.000785406 6.68389e-05 0 0.000820135 6.67524e-05 0 0.000854843 6.66607e-05 0 0.00088951 6.65527e-05 0 0.000924118 6.64095e-05 0 0.000958621 6.61602e-05 0 0.000992977 6.56755e-05 0 0.00102706 6.45862e-05 0 0.0010607 6.17961e-05 0 0 0 0 3.10692e-05 3.29377e-05 0 6.4539e-05 4.93582e-05 0 9.78153e-05 5.70235e-05 0 0.000131063 6.04542e-05 0 0.000164442 6.19088e-05 0 0.000198069 6.24662e-05 0 0.000231933 6.26186e-05 0 0.000266006 6.26182e-05 0 0.000300245 6.25606e-05 0 0.000334614 6.24961e-05 0 0.000369079 6.24371e-05 0 0.000403614 6.23885e-05 0 0.000438201 6.2348e-05 0 0.000472825 6.23125e-05 0 0.000507473 6.22784e-05 0 0.000542138 6.22426e-05 0 0.000576813 6.22027e-05 0 0.000611494 6.21568e-05 0 0.000646175 6.21037e-05 0 0.000680854 6.20432e-05 0 0.000715526 6.19755e-05 0 0.000750188 6.19015e-05 0 0.000784832 6.1823e-05 0 0.000819451 6.17406e-05 0 0.000854032 6.16547e-05 0 0.000888558 6.15558e-05 0 0.000923002 6.14253e-05 0 0.000957322 6.11978e-05 0 0.000991464 6.0742e-05 0 0.00102534 5.97026e-05 0 0.00105884 5.71709e-05 0 0 0 0 3.02367e-05 2.92304e-05 0 6.34704e-05 4.48399e-05 0 9.70562e-05 5.22834e-05 0 0.000130677 5.56344e-05 0 0.000164352 5.70435e-05 0 0.000198164 5.75634e-05 0 0.000232132 5.76897e-05 0 0.00026625 5.76659e-05 0 0.000300498 5.75917e-05 0 0.00033485 5.75135e-05 0 0.000369284 5.74447e-05 0 0.00040378 5.73888e-05 0 0.000438321 5.7343e-05 0 0.000472894 5.73039e-05 0 0.00050749 5.72675e-05 0 0.0005421 5.72305e-05 0 0.000576717 5.71901e-05 0 0.000611336 5.71444e-05 0 0.000645952 5.70923e-05 0 0.00068056 5.70333e-05 0 0.000715155 5.69678e-05 0 0.000749731 5.68968e-05 0 0.000784282 5.68224e-05 0 0.000818796 5.67455e-05 0 0.000853261 5.66671e-05 0 0.000887657 5.6579e-05 0 0.000921958 5.64634e-05 0 0.000956124 5.62588e-05 0 0.000990108 5.58335e-05 0 0.00102386 5.48438e-05 0 0.00105726 5.25561e-05 0 0 0 0 2.97213e-05 2.5863e-05 0 6.26695e-05 4.04436e-05 0 9.63772e-05 4.75495e-05 0 0.00013026 5.07853e-05 0 0.000164179 5.21439e-05 0 0.00019817 5.26353e-05 0 0.000232249 5.27431e-05 0 0.000266427 5.27042e-05 0 0.000300696 5.26185e-05 0 0.000335045 5.25309e-05 0 0.000369458 5.24549e-05 0 0.000403922 5.23935e-05 0 0.000438424 5.23439e-05 0 0.000472954 5.23022e-05 0 0.000507502 5.22642e-05 0 0.00054206 5.22265e-05 0 0.000576623 5.21863e-05 0 0.000611184 5.21416e-05 0 0.000645738 5.20911e-05 0 0.000680279 5.20344e-05 0 0.000714802 5.19721e-05 0 0.000749298 5.19052e-05 0 0.000783761 5.18359e-05 0 0.000818178 5.17657e-05 0 0.000852537 5.16958e-05 0 0.000886818 5.16194e-05 0 0.000920997 5.15191e-05 0 0.00095504 5.13367e-05 0 0.000988911 5.09412e-05 0 0.00102257 5.00061e-05 0 0.0010559 4.79504e-05 0 0 0 0 2.93862e-05 2.27706e-05 0 6.20629e-05 3.61756e-05 0 9.5797e-05 4.28459e-05 0 0.000129847 4.59205e-05 0 0.000163961 4.72178e-05 0 0.000198111 4.76827e-05 0 0.000232302 4.77785e-05 0 0.000266546 4.7731e-05 0 0.000300847 4.76392e-05 0 0.000335202 4.75463e-05 0 0.000369603 4.74662e-05 0 0.000404043 4.74015e-05 0 0.000438513 4.73495e-05 0 0.000473004 4.73062e-05 0 0.000507509 4.72676e-05 0 0.000542021 4.723e-05 0 0.000576534 4.71907e-05 0 0.000611041 4.71476e-05 0 0.000645537 4.70995e-05 0 0.000680015 4.70459e-05 0 0.000714469 4.69875e-05 0 0.000748892 4.69256e-05 0 0.000783273 4.68623e-05 0 0.000817603 4.67995e-05 0 0.000851867 4.67386e-05 0 0.000886048 4.6674e-05 0 0.000920125 4.65884e-05 0 0.000954073 4.64266e-05 0 0.000987862 4.60603e-05 0 0.00102146 4.51879e-05 0 0.00105474 4.33523e-05 0 0 0 0 2.91573e-05 1.98989e-05 0 6.1599e-05 3.20313e-05 0 9.53093e-05 3.81831e-05 0 0.000129463 4.10522e-05 0 0.000163726 4.22717e-05 0 0.000198013 4.27089e-05 0 0.000232308 4.27962e-05 0 0.00026662 4.27456e-05 0 0.000300958 4.26526e-05 0 0.000335326 4.25584e-05 0 0.000369722 4.24772e-05 0 0.000404145 4.24114e-05 0 0.000438588 4.23588e-05 0 0.000473045 4.23153e-05 0 0.000507512 4.2277e-05 0 0.000541982 4.22404e-05 0 0.000576449 4.22026e-05 0 0.000610907 4.21618e-05 0 0.000645349 4.21167e-05 0 0.00067977 4.2067e-05 0 0.000714162 4.20133e-05 0 0.000748516 4.1957e-05 0 0.000782824 4.19002e-05 0 0.000817075 4.18452e-05 0 0.000851256 4.17933e-05 0 0.000885353 4.17398e-05 0 0.000919347 4.16678e-05 0 0.00095322 4.15249e-05 0 0.00098695 4.11886e-05 0 0.0010205 4.03871e-05 0 0.00105374 3.87629e-05 0 0 0 0 2.89962e-05 1.72061e-05 0 6.12391e-05 2.79994e-05 0 9.49046e-05 3.35652e-05 0 0.000129119 3.61879e-05 0 0.000163494 3.73121e-05 0 0.000197894 3.77172e-05 0 0.000232281 3.77977e-05 0 0.000266659 3.77481e-05 0 0.000301036 3.7658e-05 0 0.000335421 3.75663e-05 0 0.000369818 3.7487e-05 0 0.000404228 3.74225e-05 0 0.000438649 3.73709e-05 0 0.000473079 3.73286e-05 0 0.000507512 3.72916e-05 0 0.000541945 3.72568e-05 0 0.00057637 3.72214e-05 0 0.000610784 3.71835e-05 0 0.000645178 3.71421e-05 0 0.000679546 3.70969e-05 0 0.000713881 3.70484e-05 0 0.000748174 3.69982e-05 0 0.000782417 3.69483e-05 0 0.000816599 3.6901e-05 0 0.000850708 3.68578e-05 0 0.000884734 3.68144e-05 0 0.000918662 3.67545e-05 0 0.000952478 3.66292e-05 0 0.000986163 3.63246e-05 0 0.00101967 3.56016e-05 0 0.00105288 3.41817e-05 0 0 0 0 2.88799e-05 1.46579e-05 0 6.09581e-05 2.4067e-05 0 9.45712e-05 2.89912e-05 0 0.00012882 3.13323e-05 0 0.000163276 3.23439e-05 0 0.000197767 3.27112e-05 0 0.000232235 3.2785e-05 0 0.000266672 3.27391e-05 0 0.000301088 3.26554e-05 0 0.000335492 3.25696e-05 0 0.000369893 3.24949e-05 0 0.000404295 3.24341e-05 0 0.000438699 3.23853e-05 0 0.000473105 3.23453e-05 0 0.00050751 3.23108e-05 0 0.00054191 3.22785e-05 0 0.000576299 3.22461e-05 0 0.000610673 3.22119e-05 0 0.000645024 3.21748e-05 0 0.000679346 3.21346e-05 0 0.00071363 3.20919e-05 0 0.000747869 3.2048e-05 0 0.000782055 3.20051e-05 0 0.000816177 3.19654e-05 0 0.000850226 3.19302e-05 0 0.000884194 3.18956e-05 0 0.000918069 3.18465e-05 0 0.000951842 3.1738e-05 0 0.000985493 3.14674e-05 0 0.00101897 3.08293e-05 0 0.00105215 2.96082e-05 0 0 0 0 2.87948e-05 1.22259e-05 0 6.07386e-05 2.02205e-05 0 9.43001e-05 2.44578e-05 0 0.000128567 2.64875e-05 0 0.000163082 2.73706e-05 0 0.000197644 2.7694e-05 0 0.000232178 2.77602e-05 0 0.000266668 2.772e-05 0 0.00030112 2.76454e-05 0 0.000335544 2.75683e-05 0 0.00036995 2.75008e-05 0 0.000404348 2.74455e-05 0 0.000438739 2.74012e-05 0 0.000473125 2.73649e-05 0 0.000507506 2.73337e-05 0 0.000541878 2.73049e-05 0 0.000576236 2.72762e-05 0 0.000610575 2.72462e-05 0 0.000644889 2.72139e-05 0 0.00067917 2.71791e-05 0 0.000713411 2.71425e-05 0 0.000747604 2.71052e-05 0 0.000781741 2.70693e-05 0 0.000815812 2.70369e-05 0 0.000849812 2.70088e-05 0 0.000883732 2.69819e-05 0 0.000917567 2.69422e-05 0 0.000951306 2.68501e-05 0 0.000984931 2.6616e-05 0 0.00101839 2.60682e-05 0 0.00105154 2.50415e-05 0 0 0 0 2.87324e-05 9.88647e-06 0 6.05687e-05 1.64465e-05 0 9.40835e-05 1.99602e-05 0 0.000128359 2.16536e-05 0 0.000162915 2.23948e-05 0 0.000197532 2.26684e-05 0 0.000232121 2.27255e-05 0 0.000266655 2.2692e-05 0 0.000301138 2.26287e-05 0 0.00033558 2.25626e-05 0 0.000369994 2.25044e-05 0 0.000404388 2.24566e-05 0 0.00043877 2.24181e-05 0 0.000473141 2.23867e-05 0 0.000507501 2.23598e-05 0 0.00054185 2.23351e-05 0 0.000576182 2.23108e-05 0 0.000610492 2.22854e-05 0 0.000644774 2.22584e-05 0 0.000679021 2.22295e-05 0 0.000713226 2.21992e-05 0 0.00074738 2.21687e-05 0 0.000781476 2.21397e-05 0 0.000815507 2.21139e-05 0 0.000849466 2.20923e-05 0 0.00088335 2.20719e-05 0 0.000917152 2.20407e-05 0 0.000950867 2.19649e-05 0 0.000984471 2.17697e-05 0 0.00101791 2.13163e-05 0 0.00105105 2.04805e-05 0 0 0 0 2.86873e-05 7.61891e-06 0 6.04405e-05 1.27312e-05 0 9.3916e-05 1.54926e-05 0 0.000128194 1.683e-05 0 0.00016278 1.74181e-05 0 0.000197438 1.76365e-05 0 0.000232068 1.7683e-05 0 0.000266637 1.76568e-05 0 0.000301146 1.76062e-05 0 0.000335604 1.7553e-05 0 0.000370025 1.75059e-05 0 0.000404418 1.74671e-05 0 0.000438792 1.74358e-05 0 0.000473152 1.74102e-05 0 0.000507497 1.73884e-05 0 0.000541826 1.73685e-05 0 0.000576137 1.7349e-05 0 0.000610424 1.73288e-05 0 0.000644681 1.73074e-05 0 0.000678901 1.72846e-05 0 0.000713076 1.72609e-05 0 0.000747199 1.72372e-05 0 0.000781263 1.72149e-05 0 0.000815261 1.71954e-05 0 0.00084919 1.71795e-05 0 0.000883045 1.71646e-05 0 0.000916824 1.7141e-05 0 0.00095052 1.70818e-05 0 0.000984108 1.69276e-05 0 0.00101753 1.65718e-05 0 0.00105066 1.59243e-05 0 0 0 0 2.8656e-05 5.40505e-06 0 6.03485e-05 9.0614e-06 0 9.37935e-05 1.10489e-05 0 0.000128072 1.20149e-05 0 0.000162678 1.24412e-05 0 0.000197365 1.26004e-05 0 0.000232024 1.26347e-05 0 0.00026662 1.2616e-05 0 0.000301149 1.25792e-05 0 0.00033562 1.25402e-05 0 0.000370046 1.25056e-05 0 0.000404439 1.2477e-05 0 0.000438809 1.24539e-05 0 0.000473159 1.2435e-05 0 0.000507493 1.2419e-05 0 0.000541808 1.24043e-05 0 0.000576103 1.23901e-05 0 0.000610373 1.23754e-05 0 0.000644611 1.23599e-05 0 0.00067881 1.23435e-05 0 0.000712963 1.23264e-05 0 0.000747062 1.23095e-05 0 0.000781102 1.22938e-05 0 0.000815076 1.22802e-05 0 0.000848982 1.22693e-05 0 0.000882817 1.22592e-05 0 0.000916579 1.22427e-05 0 0.000950262 1.22002e-05 0 0.00098384 1.20888e-05 0 0.00101725 1.1833e-05 0 0.00105037 1.13719e-05 0 0 0 0 2.86362e-05 3.22844e-06 0 6.02889e-05 5.42395e-06 0 9.37133e-05 6.62241e-06 0 0.000127991 7.2063e-06 0 0.000162609 7.46454e-06 0 0.000197314 7.5613e-06 0 0.000231994 7.58242e-06 0 0.000266607 7.57119e-06 0 0.000301149 7.54884e-06 0 0.000335629 7.52511e-06 0 0.000370059 7.50394e-06 0 0.000404453 7.4864e-06 0 0.000438819 7.47223e-06 0 0.000473164 7.46068e-06 0 0.00050749 7.45084e-06 0 0.000541796 7.44191e-06 0 0.000576081 7.43323e-06 0 0.000610338 7.42432e-06 0 0.000644563 7.41493e-06 0 0.000678748 7.40501e-06 0 0.000712886 7.39477e-06 0 0.00074697 7.38463e-06 0 0.000780994 7.37524e-06 0 0.000814953 7.36724e-06 0 0.000848844 7.36089e-06 0 0.000882666 7.35507e-06 0 0.000916417 7.34531e-06 0 0.000950091 7.31968e-06 0 0.000983662 7.25232e-06 0 0.00101706 7.09824e-06 0 0.00105018 6.82206e-06 0 0 0 0 2.86266e-05 1.07374e-06 0 6.02597e-05 1.80584e-06 0 9.36736e-05 2.20631e-06 0 0.000127951 2.40165e-06 0 0.000162575 2.48814e-06 0 0.000197289 2.52061e-06 0 0.000231978 2.52773e-06 0 0.0002666 2.52399e-06 0 0.000301149 2.5165e-06 0 0.000335633 2.50853e-06 0 0.000370066 2.50141e-06 0 0.000404459 2.4955e-06 0 0.000438824 2.49073e-06 0 0.000473166 2.48684e-06 0 0.000507488 2.48353e-06 0 0.00054179 2.48052e-06 0 0.000576069 2.47761e-06 0 0.000610321 2.47462e-06 0 0.000644539 2.47147e-06 0 0.000678717 2.46816e-06 0 0.000712848 2.46474e-06 0 0.000746925 2.46136e-06 0 0.00078094 2.45824e-06 0 0.000814891 2.4556e-06 0 0.000848775 2.45352e-06 0 0.00088259 2.45162e-06 0 0.000916336 2.44838e-06 0 0.000950006 2.43982e-06 0 0.000983573 2.41728e-06 0 0.00101697 2.36582e-06 0 0.00105008 2.27384e-06 0 0 0 0 2.86266e-05 -1.07374e-06 0 6.02597e-05 -1.80584e-06 0 9.36736e-05 -2.20631e-06 0 0.000127951 -2.40165e-06 0 0.000162575 -2.48814e-06 0 0.000197289 -2.52061e-06 0 0.000231978 -2.52773e-06 0 0.0002666 -2.52399e-06 0 0.000301149 -2.5165e-06 0 0.000335633 -2.50853e-06 0 0.000370066 -2.50141e-06 0 0.000404459 -2.4955e-06 0 0.000438824 -2.49073e-06 0 0.000473166 -2.48684e-06 0 0.000507488 -2.48353e-06 0 0.00054179 -2.48052e-06 0 0.000576069 -2.47761e-06 0 0.000610321 -2.47462e-06 0 0.000644539 -2.47147e-06 0 0.000678717 -2.46816e-06 0 0.000712848 -2.46474e-06 0 0.000746925 -2.46136e-06 0 0.00078094 -2.45824e-06 0 0.000814891 -2.4556e-06 0 0.000848775 -2.45352e-06 0 0.00088259 -2.45162e-06 0 0.000916336 -2.44838e-06 0 0.000950006 -2.43982e-06 0 0.000983573 -2.41728e-06 0 0.00101697 -2.36582e-06 0 0.00105008 -2.27384e-06 0 0 0 0 2.86362e-05 -3.22844e-06 0 6.02889e-05 -5.42395e-06 0 9.37133e-05 -6.62241e-06 0 0.000127991 -7.2063e-06 0 0.000162609 -7.46454e-06 0 0.000197314 -7.5613e-06 0 0.000231994 -7.58242e-06 0 0.000266607 -7.57119e-06 0 0.000301149 -7.54884e-06 0 0.000335629 -7.52511e-06 0 0.000370059 -7.50394e-06 0 0.000404453 -7.4864e-06 0 0.000438819 -7.47223e-06 0 0.000473164 -7.46068e-06 0 0.00050749 -7.45084e-06 0 0.000541796 -7.44191e-06 0 0.000576081 -7.43323e-06 0 0.000610338 -7.42432e-06 0 0.000644563 -7.41493e-06 0 0.000678748 -7.40501e-06 0 0.000712886 -7.39477e-06 0 0.00074697 -7.38463e-06 0 0.000780994 -7.37524e-06 0 0.000814953 -7.36724e-06 0 0.000848844 -7.36089e-06 0 0.000882666 -7.35507e-06 0 0.000916417 -7.34531e-06 0 0.000950091 -7.31968e-06 0 0.000983662 -7.25232e-06 0 0.00101706 -7.09824e-06 0 0.00105018 -6.82206e-06 0 0 0 0 2.8656e-05 -5.40505e-06 0 6.03485e-05 -9.0614e-06 0 9.37935e-05 -1.10489e-05 0 0.000128072 -1.20149e-05 0 0.000162678 -1.24412e-05 0 0.000197365 -1.26004e-05 0 0.000232024 -1.26347e-05 0 0.00026662 -1.2616e-05 0 0.000301149 -1.25792e-05 0 0.00033562 -1.25402e-05 0 0.000370046 -1.25056e-05 0 0.000404439 -1.2477e-05 0 0.000438809 -1.24539e-05 0 0.000473159 -1.2435e-05 0 0.000507493 -1.2419e-05 0 0.000541808 -1.24043e-05 0 0.000576103 -1.23901e-05 0 0.000610373 -1.23754e-05 0 0.000644611 -1.23599e-05 0 0.00067881 -1.23435e-05 0 0.000712963 -1.23264e-05 0 0.000747062 -1.23095e-05 0 0.000781102 -1.22938e-05 0 0.000815076 -1.22802e-05 0 0.000848982 -1.22693e-05 0 0.000882817 -1.22592e-05 0 0.000916579 -1.22427e-05 0 0.000950262 -1.22002e-05 0 0.00098384 -1.20888e-05 0 0.00101725 -1.1833e-05 0 0.00105037 -1.13719e-05 0 0 0 0 2.86873e-05 -7.61891e-06 0 6.04405e-05 -1.27312e-05 0 9.3916e-05 -1.54926e-05 0 0.000128194 -1.683e-05 0 0.00016278 -1.74181e-05 0 0.000197438 -1.76365e-05 0 0.000232068 -1.7683e-05 0 0.000266637 -1.76568e-05 0 0.000301146 -1.76062e-05 0 0.000335604 -1.7553e-05 0 0.000370025 -1.75059e-05 0 0.000404418 -1.74671e-05 0 0.000438792 -1.74358e-05 0 0.000473152 -1.74102e-05 0 0.000507497 -1.73884e-05 0 0.000541826 -1.73685e-05 0 0.000576137 -1.7349e-05 0 0.000610424 -1.73288e-05 0 0.000644681 -1.73074e-05 0 0.000678901 -1.72846e-05 0 0.000713076 -1.72609e-05 0 0.000747199 -1.72372e-05 0 0.000781263 -1.72149e-05 0 0.000815261 -1.71954e-05 0 0.00084919 -1.71795e-05 0 0.000883045 -1.71646e-05 0 0.000916824 -1.7141e-05 0 0.00095052 -1.70818e-05 0 0.000984108 -1.69276e-05 0 0.00101753 -1.65718e-05 0 0.00105066 -1.59243e-05 0 0 0 0 2.87324e-05 -9.88647e-06 0 6.05687e-05 -1.64465e-05 0 9.40835e-05 -1.99602e-05 0 0.000128359 -2.16536e-05 0 0.000162915 -2.23948e-05 0 0.000197532 -2.26684e-05 0 0.000232121 -2.27255e-05 0 0.000266655 -2.2692e-05 0 0.000301138 -2.26287e-05 0 0.00033558 -2.25626e-05 0 0.000369994 -2.25044e-05 0 0.000404388 -2.24566e-05 0 0.00043877 -2.24181e-05 0 0.000473141 -2.23867e-05 0 0.000507501 -2.23598e-05 0 0.00054185 -2.23351e-05 0 0.000576182 -2.23108e-05 0 0.000610492 -2.22854e-05 0 0.000644774 -2.22584e-05 0 0.000679021 -2.22295e-05 0 0.000713226 -2.21992e-05 0 0.00074738 -2.21687e-05 0 0.000781476 -2.21397e-05 0 0.000815507 -2.21139e-05 0 0.000849466 -2.20923e-05 0 0.00088335 -2.20719e-05 0 0.000917152 -2.20407e-05 0 0.000950867 -2.19649e-05 0 0.000984471 -2.17697e-05 0 0.00101791 -2.13163e-05 0 0.00105105 -2.04805e-05 0 0 0 0 2.87948e-05 -1.22259e-05 0 6.07386e-05 -2.02205e-05 0 9.43001e-05 -2.44578e-05 0 0.000128567 -2.64875e-05 0 0.000163082 -2.73706e-05 0 0.000197644 -2.7694e-05 0 0.000232178 -2.77602e-05 0 0.000266668 -2.772e-05 0 0.00030112 -2.76454e-05 0 0.000335544 -2.75683e-05 0 0.00036995 -2.75008e-05 0 0.000404348 -2.74455e-05 0 0.000438739 -2.74012e-05 0 0.000473125 -2.73649e-05 0 0.000507506 -2.73337e-05 0 0.000541878 -2.73049e-05 0 0.000576236 -2.72762e-05 0 0.000610575 -2.72462e-05 0 0.000644889 -2.72139e-05 0 0.00067917 -2.71791e-05 0 0.000713411 -2.71425e-05 0 0.000747604 -2.71052e-05 0 0.000781741 -2.70693e-05 0 0.000815812 -2.70369e-05 0 0.000849812 -2.70088e-05 0 0.000883732 -2.69819e-05 0 0.000917567 -2.69422e-05 0 0.000951306 -2.68501e-05 0 0.000984931 -2.6616e-05 0 0.00101839 -2.60682e-05 0 0.00105154 -2.50415e-05 0 0 0 0 2.88799e-05 -1.46579e-05 0 6.09581e-05 -2.4067e-05 0 9.45712e-05 -2.89912e-05 0 0.00012882 -3.13323e-05 0 0.000163276 -3.23439e-05 0 0.000197767 -3.27112e-05 0 0.000232235 -3.2785e-05 0 0.000266672 -3.27391e-05 0 0.000301088 -3.26554e-05 0 0.000335492 -3.25696e-05 0 0.000369893 -3.24949e-05 0 0.000404295 -3.24341e-05 0 0.000438699 -3.23853e-05 0 0.000473105 -3.23453e-05 0 0.00050751 -3.23108e-05 0 0.00054191 -3.22785e-05 0 0.000576299 -3.22461e-05 0 0.000610673 -3.22119e-05 0 0.000645024 -3.21748e-05 0 0.000679346 -3.21346e-05 0 0.00071363 -3.20919e-05 0 0.000747869 -3.2048e-05 0 0.000782055 -3.20051e-05 0 0.000816177 -3.19654e-05 0 0.000850226 -3.19302e-05 0 0.000884194 -3.18956e-05 0 0.000918069 -3.18465e-05 0 0.000951842 -3.1738e-05 0 0.000985493 -3.14674e-05 0 0.00101897 -3.08293e-05 0 0.00105215 -2.96082e-05 0 0 0 0 2.89962e-05 -1.72061e-05 0 6.12391e-05 -2.79994e-05 0 9.49046e-05 -3.35652e-05 0 0.000129119 -3.61879e-05 0 0.000163494 -3.73121e-05 0 0.000197894 -3.77172e-05 0 0.000232281 -3.77977e-05 0 0.000266659 -3.77481e-05 0 0.000301036 -3.7658e-05 0 0.000335421 -3.75663e-05 0 0.000369818 -3.7487e-05 0 0.000404228 -3.74225e-05 0 0.000438649 -3.73709e-05 0 0.000473079 -3.73286e-05 0 0.000507512 -3.72916e-05 0 0.000541945 -3.72568e-05 0 0.00057637 -3.72214e-05 0 0.000610784 -3.71835e-05 0 0.000645178 -3.71421e-05 0 0.000679546 -3.70969e-05 0 0.000713881 -3.70484e-05 0 0.000748174 -3.69982e-05 0 0.000782417 -3.69483e-05 0 0.000816599 -3.6901e-05 0 0.000850708 -3.68578e-05 0 0.000884734 -3.68144e-05 0 0.000918662 -3.67545e-05 0 0.000952478 -3.66292e-05 0 0.000986163 -3.63246e-05 0 0.00101967 -3.56016e-05 0 0.00105288 -3.41817e-05 0 0 0 0 2.91573e-05 -1.98989e-05 0 6.1599e-05 -3.20313e-05 0 9.53093e-05 -3.81831e-05 0 0.000129463 -4.10522e-05 0 0.000163726 -4.22717e-05 0 0.000198013 -4.27089e-05 0 0.000232308 -4.27962e-05 0 0.00026662 -4.27456e-05 0 0.000300958 -4.26526e-05 0 0.000335326 -4.25584e-05 0 0.000369722 -4.24772e-05 0 0.000404145 -4.24114e-05 0 0.000438588 -4.23588e-05 0 0.000473045 -4.23153e-05 0 0.000507512 -4.2277e-05 0 0.000541982 -4.22404e-05 0 0.000576449 -4.22026e-05 0 0.000610907 -4.21618e-05 0 0.000645349 -4.21167e-05 0 0.00067977 -4.2067e-05 0 0.000714162 -4.20133e-05 0 0.000748516 -4.1957e-05 0 0.000782824 -4.19002e-05 0 0.000817075 -4.18452e-05 0 0.000851256 -4.17933e-05 0 0.000885353 -4.17398e-05 0 0.000919347 -4.16678e-05 0 0.00095322 -4.15249e-05 0 0.00098695 -4.11886e-05 0 0.0010205 -4.03871e-05 0 0.00105374 -3.87629e-05 0 0 0 0 2.93862e-05 -2.27706e-05 0 6.20629e-05 -3.61756e-05 0 9.5797e-05 -4.28459e-05 0 0.000129847 -4.59205e-05 0 0.000163961 -4.72178e-05 0 0.000198111 -4.76827e-05 0 0.000232302 -4.77785e-05 0 0.000266546 -4.7731e-05 0 0.000300847 -4.76392e-05 0 0.000335202 -4.75463e-05 0 0.000369603 -4.74662e-05 0 0.000404043 -4.74015e-05 0 0.000438513 -4.73495e-05 0 0.000473004 -4.73062e-05 0 0.000507509 -4.72676e-05 0 0.000542021 -4.723e-05 0 0.000576534 -4.71907e-05 0 0.000611041 -4.71476e-05 0 0.000645537 -4.70995e-05 0 0.000680015 -4.70459e-05 0 0.000714469 -4.69875e-05 0 0.000748892 -4.69256e-05 0 0.000783273 -4.68623e-05 0 0.000817603 -4.67995e-05 0 0.000851867 -4.67386e-05 0 0.000886048 -4.6674e-05 0 0.000920125 -4.65884e-05 0 0.000954073 -4.64266e-05 0 0.000987862 -4.60603e-05 0 0.00102146 -4.51879e-05 0 0.00105474 -4.33523e-05 0 0 0 0 2.97213e-05 -2.5863e-05 0 6.26695e-05 -4.04436e-05 0 9.63772e-05 -4.75495e-05 0 0.00013026 -5.07853e-05 0 0.000164179 -5.21439e-05 0 0.00019817 -5.26353e-05 0 0.000232249 -5.27431e-05 0 0.000266427 -5.27042e-05 0 0.000300696 -5.26185e-05 0 0.000335045 -5.25309e-05 0 0.000369458 -5.24549e-05 0 0.000403922 -5.23935e-05 0 0.000438424 -5.23439e-05 0 0.000472954 -5.23022e-05 0 0.000507502 -5.22642e-05 0 0.00054206 -5.22265e-05 0 0.000576623 -5.21863e-05 0 0.000611184 -5.21416e-05 0 0.000645738 -5.20911e-05 0 0.000680279 -5.20344e-05 0 0.000714802 -5.19721e-05 0 0.000749298 -5.19052e-05 0 0.000783761 -5.18359e-05 0 0.000818178 -5.17657e-05 0 0.000852537 -5.16958e-05 0 0.000886818 -5.16194e-05 0 0.000920997 -5.15191e-05 0 0.00095504 -5.13367e-05 0 0.000988911 -5.09412e-05 0 0.00102257 -5.00061e-05 0 0.0010559 -4.79504e-05 0 0 0 0 3.02367e-05 -2.92304e-05 0 6.34704e-05 -4.48399e-05 0 9.70562e-05 -5.22834e-05 0 0.000130677 -5.56344e-05 0 0.000164352 -5.70435e-05 0 0.000198164 -5.75634e-05 0 0.000232132 -5.76897e-05 0 0.00026625 -5.76659e-05 0 0.000300498 -5.75917e-05 0 0.00033485 -5.75135e-05 0 0.000369284 -5.74447e-05 0 0.00040378 -5.73888e-05 0 0.000438321 -5.7343e-05 0 0.000472894 -5.73039e-05 0 0.00050749 -5.72675e-05 0 0.0005421 -5.72305e-05 0 0.000576717 -5.71901e-05 0 0.000611336 -5.71444e-05 0 0.000645952 -5.70923e-05 0 0.00068056 -5.70333e-05 0 0.000715155 -5.69678e-05 0 0.000749731 -5.68968e-05 0 0.000784282 -5.68224e-05 0 0.000818796 -5.67455e-05 0 0.000853261 -5.66671e-05 0 0.000887657 -5.6579e-05 0 0.000921958 -5.64634e-05 0 0.000956124 -5.62588e-05 0 0.000990108 -5.58335e-05 0 0.00102386 -5.48438e-05 0 0.00105726 -5.25561e-05 0 0 0 0 3.10692e-05 -3.29377e-05 0 6.4539e-05 -4.93582e-05 0 9.78153e-05 -5.70235e-05 0 0.000131063 -6.04542e-05 0 0.000164442 -6.19088e-05 0 0.000198069 -6.24662e-05 0 0.000231933 -6.26186e-05 0 0.000266006 -6.26182e-05 0 0.000300245 -6.25606e-05 0 0.000334614 -6.24961e-05 0 0.000369079 -6.24371e-05 0 0.000403614 -6.23885e-05 0 0.000438201 -6.2348e-05 0 0.000472825 -6.23125e-05 0 0.000507473 -6.22784e-05 0 0.000542138 -6.22426e-05 0 0.000576813 -6.22027e-05 0 0.000611494 -6.21568e-05 0 0.000646175 -6.21037e-05 0 0.000680854 -6.20432e-05 0 0.000715526 -6.19755e-05 0 0.000750188 -6.19015e-05 0 0.000784832 -6.1823e-05 0 0.000819451 -6.17406e-05 0 0.000854032 -6.16547e-05 0 0.000888558 -6.15558e-05 0 0.000923002 -6.14253e-05 0 0.000957322 -6.11978e-05 0 0.000991464 -6.0742e-05 0 0.00102534 -5.97026e-05 0 0.00105884 -5.71709e-05 0 0 0 0 3.25214e-05 -3.70665e-05 0 6.59181e-05 -5.39534e-05 0 9.86129e-05 -6.17386e-05 0 0.000131349 -6.52254e-05 0 0.000164408 -6.6737e-05 0 0.000197854 -6.73435e-05 0 0.000231635 -6.75335e-05 0 0.000265682 -6.75638e-05 0 0.000299934 -6.75285e-05 0 0.000334333 -6.74809e-05 0 0.000368841 -6.7434e-05 0 0.000403426 -6.73942e-05 0 0.000438066 -6.73599e-05 0 0.000472745 -6.73287e-05 0 0.00050745 -6.72975e-05 0 0.000542174 -6.72635e-05 0 0.000576911 -6.72246e-05 0 0.000611656 -6.71791e-05 0 0.000646407 -6.71259e-05 0 0.000681159 -6.70647e-05 0 0.000715912 -6.69958e-05 0 0.000750662 -6.692e-05 0 0.000785406 -6.68389e-05 0 0.000820135 -6.67524e-05 0 0.000854843 -6.66607e-05 0 0.00088951 -6.65527e-05 0 0.000924118 -6.64095e-05 0 0.000958621 -6.61602e-05 0 0.000992977 -6.56755e-05 0 0.00102706 -6.45862e-05 0 0.0010607 -6.17961e-05 0 0 0 0 3.51654e-05 -4.16468e-05 0 6.75532e-05 -5.85289e-05 0 9.93591e-05 -6.63864e-05 0 0.000131445 -6.99331e-05 0 0.000164196 -7.15285e-05 0 0.000197489 -7.21996e-05 0 0.000231219 -7.24387e-05 0 0.000265274 -7.25078e-05 0 0.000299557 -7.24984e-05 0 0.000334006 -7.2471e-05 0 0.000368569 -7.24374e-05 0 0.000403214 -7.24076e-05 0 0.000437914 -7.23799e-05 0 0.000472654 -7.23535e-05 0 0.000507421 -7.23255e-05 0 0.000542209 -7.22938e-05 0 0.00057701 -7.22564e-05 0 0.000611822 -7.22118e-05 0 0.000646644 -7.21591e-05 0 0.000681473 -7.20982e-05 0 0.000716309 -7.20293e-05 0 0.000751151 -7.1953e-05 0 0.000785997 -7.18708e-05 0 0.000820843 -7.17822e-05 0 0.000855683 -7.16872e-05 0 0.000890503 -7.15722e-05 0 0.000925289 -7.14209e-05 0 0.000960004 -7.11515e-05 0 0.00099462 -7.06482e-05 0 0.00102903 -6.9505e-05 0 0.00106299 -6.64599e-05 0 0 0 0 3.95209e-05 -4.62832e-05 0 6.93388e-05 -6.30379e-05 0 9.98488e-05 -7.08769e-05 0 0.000131251 -7.45911e-05 0 0.000163762 -7.62857e-05 0 0.000196934 -7.70418e-05 0 0.000230679 -7.7344e-05 0 0.000264766 -7.74542e-05 0 0.000299116 -7.74762e-05 0 0.000333631 -7.74688e-05 0 0.000368265 -7.74501e-05 0 0.000402978 -7.74301e-05 0 0.000437747 -7.74095e-05 0 0.000472553 -7.73878e-05 0 0.000507387 -7.73632e-05 0 0.00054224 -7.73339e-05 0 0.000577108 -7.72983e-05 0 0.00061199 -7.72551e-05 0 0.000646884 -7.72037e-05 0 0.000681791 -7.71439e-05 0 0.000716712 -7.70762e-05 0 0.000751648 -7.70008e-05 0 0.0007866 -7.69195e-05 0 0.000821565 -7.68309e-05 0 0.000856544 -7.67354e-05 0 0.000891523 -7.66171e-05 0 0.0009265 -7.64614e-05 0 0.000961435 -7.61801e-05 0 0.00099635 -7.56667e-05 0 0.00103118 -7.4499e-05 0 0.00106618 -7.12747e-05 0 </DataArray> 
</PointData> 
<Points> 
<DataArray type="Float32" NumberOfComponents="3"> 