<?xml version="1.0"?> 
<VTKFile type="StructuredGrid" version="0.1"> 
<StructuredGrid WholeExtent="0 31 0 31 0 0"> 
<Piece Extent="0 31 0 31 0 0"> 
<PointData>
<DataArray type="Float32" Name="u" format="ascii" NumberOfComponents="3"> 
0 0 0 0 0 0 0 0 0 0 0 0 0 0 0 0 0 0 0 0 0 0 0 0 0 0 0 0 0 0 0 0 0 0 0 0 0 0 0 0 0 0 0 0 0 0 0 0 0 0 0 0 0 0 0 0 0 0 0 0 0 0 0 0 0 0 0 0 0 0 0 0 0 0 0 0 0 0 0 0 0 0 0 0 0 0 0 0 0 0 0 0 0 0 0 0 0 0 0 0 0 0 0 0 0 0 0 0 0 0 0 0 0 0 0 0 0 0 0 0 0 0 0 0 0 0 0 0 0 0 0 0 0 0 0 0 0 0 0 0 0 0 0 0 0 0 0 0 0 0 0 0 0 0 0 0 0 0 0 0 0 0 0 0 0 0 0 0 0 0 0 0 0 0 0 0 0 0 0 0 0 0 0 0 0 0 0 0 0 0 0 0 0 0 0 0 0 0 0 0 0 0 0 0 0 0 0 0 0 0 0 0 0 0 0 0 0 0 0 0 0 0 0 0 0 0 0 0 0 0 0 0 0 0 0 0 0 0 0 0 0 0 0 0 0 0 0 0 0 0 0 0 0 0 0 0 0 0 0 0 0 0 0 0 0 0 0 0 0 0 0 0 0 0 0 0 0 0 0 0 0 0 0 0 0 0 0 0 0 0 0 0 0 0 0 0 0 0 0 0 0 0 0 0 0 0 0 0 0 0 0 0 0 0 0 0 0 0 0 0 0 0 0 0 0 0 0 0 0 0 0 0 0 0 0 0 0 0 0 0 0 0 0 0 0 0 0 0 0 0 0 0 0 0 0 0 0 0 0 0 0 0 0 0 0 0 0 0 0 0 0 0 0 0 0 0 0 0 0 0 0 0 0 0 0 0 0 0 0 0 0 0 0 0 0 0 0 0 0 0 0 0 0 0 0 0 0 0 0 0 0 0 0 0 0 0 0 0 0 0 0 0 0 0 0 0 0 0 0 0 0 0 0 0 0 0 0 0 0 0 0 0 0 0 0 0 0 0 0 0 0 0 0 0 0 0 0 0 0 0 0 0 0 0 0 0 0 0 0 0 0 0 0 0 0 0 0 0 0 0 0 0 0 0 0 0 0 0 0 0 0 0 0 0 0 0 0 0 0 0 0 0 0 0 0 0 0 0 0 0 0 0 0 0 0 0 0 0 0 0 0 0 0 0 0 0 0 0 0 0 0 0 0 0 0 0 0 0 0 0 0 0 0 0 0 0 0 0 0 0 0 0 0 0 0 0 0 0 0 0 0 0 0 0 0 0 0 0 0 0 0 0 0 0 0 0 0 0 0 0 0 0 0 0 0 0 0 0 0 0 0 0 0 0 0 0 0 0 0 0 0 0 0 0 0 0 0 0 0 0 0 0 0 0 0 0 0 0 0 0 0 0 0 0 0 0 0 0 0 0 0 0 0 0 0 0 0 0 0 0 0 0 0 0 0 0 0 0 0 0 0 0 0 0 0 0 0 0 0 0 0 0 0 0 0 0 0 0 0 0 0 0 0 0 0 0 0 0 0 0 0 0 0 0 0 0 0 0 0 0 0 0 0 0 0 0 0 0 0 0 0 0 0 0 0 0 0 0 0 0 0 0 0 0 0 0 0 0 0 0 0 0 0 0 0 0 0 0 0 0 0 0 0 0 0 0 0 0 0 0 0 0 0 0 0 0 0 0 0 0 0 0 0 0 0 0 0 0 0 0 0 0 0 0 0 0 0 0 0 0 0 0 0 0 0 0 0 0 0 0 0 0 0 0 0 0 0 0 0 0 0 0 0 0 0 0 0 0 0 0 0 0 0 0 0 0 0 0 0 0 0 0 0 0 0 0 0 0 0 0 0 0 0 0 0 0 0 0 0 0 0 0 0 0 0 0 0 0 0 0 0 0 0 0 0 0 0 0 0 0 0 0 0 0 0 0 0 0 0 0 0 0 0 0 0 0 0 0 0 0 0 0 0 0 0 0 0 0 0 0 0 0 0 0 0 0 0 0 0 0 0 0 0 0 0 0 0 0 0 0 0 0 0 0 0 0 0 0 0 0 0 0 0 0 0 0 0 0 0 0 0 0 0 0 0 0 0 0 0 0 0 0 0 0 0 0 0 0 0 0 0 0 0 0 0 0 0 0 0 0 0 0 0 0 0 0 0 0 0 0 0 0 0 0 0 0 0 0 0 0 0 0 0 0 0 0 0 0 0 0 0 0 0 0 0 0 0 0 0 0 0 0 0 0 0 0 0 0 0 0 0 0 0 0 0 0 0 0 0 0 0 0 0 0 0 0 0 0 0 0 0 0 0 0 0 0 0 0 0 0 0 0 0 0 0 0 0 0 0 0 0 0 0 0 0 0 0 0 0 0 0 0 0 0 0 0 0 0 0 0 0 0 0 0 0 0 0 0 0 0 0 0 0 0 0 0 0 0 0 0 0 0 0 0 0 0 0 0 0 0 0 0 0 0 0 0 0 0 0 0 0 0 0 0 0 0 0 0 0 0 0 0 0 0 0 0 0 0 0 0 0 0 0 0 0 0 0 0 0 0 0 0 0 0 0 0 0 0 0 0 0 0 0 0 0 0 0 0 0 0 0 0 0 0 0 0 0 0 0 0 0 0 0 0 0 0 0 0 0 0 0 0 0 0 0 0 0 0 0 0 0 0 0 0 0 0 0 0 0 0 0 0 0 0 0 0 0 0 0 0 0 0 0 0 0 0 0 0 0 0 0 0 0 0 0 0 0 0 0 0 0 0 0 0 0 0 0 0 0 0 0 0 0 0 0 0 0 0 0 0 0 0 0 0 0 0 0 0 0 0 0 0 0 0 0 0 0 0 0 0 0 0 0 0 0 0 0 0 0 0 0 0 0 0 0 0 0 0 0 0 0 0 0 0 0 0 0 0 0 0 0 0 0 0 0 0 0 0 0 0 0 0 0 0 0 0 0 0 0 0 0 0 0 0 0 0 0 0 0 0 0 0 0 0 0 0 0 0 0 0 0 0 0 0 0 0 0 0 0 0 0 0 0 0 0 0 0 0 0 0 0 0 0 0 0 0 0 0 0 0 0 0 0 0 0 0 0 0 0 0 0 0 0 0 0 0 0 0 0 0 0 0 0 0 0 0 0 0 0 0 0 0 0 0 0 0 0 0 0 0 0 0 0 0 0 0 0 0 0 0 0 0 0 0 0 0 0 0 0 0 0 0 0 0 0 0 0 0 0 0 0 0 0 0 0 0 0 0 0 0 0 0 0 0 0 0 0 0 0 0 0 0 0 0 0 0 0 0 0 0 0 0 0 0 0 0 0 0 0 0 0 0 0 0 0 0 0 0 0 0 0 0 0 0 0 0 0 0 0 0 0 0 0 0 0 0 0 0 0 0 0 0 0 0 0 0 0 0 0 0 0 0 0 0 0 0 0 0 0 0 0 0 0 0 0 0 0 0 0 0 0 0 0 0 0 0 0 0 0 0 0 0 0 0 0 0 0 0 0 0 0 0 0 0 0 0 0 0 0 0 0 0 0 0 0 0 0 0 0 0 0 0 0 0 0 0 0 0 0 0 0 0 0 0 0 0 0 0 0 0 0 0 0 0 0 0 0 0 0 0 0 0 0 0 0 0 0 0 0 0 0 0 0 0 0 0 0 0 0 0 0 0 0 0 0 0 0 0 0 0 0 0 0 0 0 0 0 0 0 0 0 0 0 0 0 0 0 0 0 0 0 0 0 0 0 0 0 0 0 0 0 0 0 0 0 0 0 0 0 0 0 0 0 0 0 0 0 0 0 0 0 0 0 0 0 0 0 0 0 0 0 0 0 0 0 0 0 0 0 0 0 0 0 0 0 0 0 0 0 0 0 0 0 0 0 0 0 0 0 0 0 0 0 0 0 0 0 0 0 0 0 0 0 0 0 0 0 0 0 0 0 0 0 0 0 0 0 0 0 0 0 0 0 0 0 0 0 0 0 0 0 0 0 0 0 0 0 0 0 0 0 0 0 0 0 0 0 0 0 0 0 0 0 0 0 0 0 0 0 0 0 0 0 0 0 0 0 0 0 0 0 0 0 0 0 0 0 0 0 0 0 0 0 0 0 0 0 0 0 0 0 0 0 0 0 0 0 0 0 0 0 0 0 0 0 0 0 0 0 0 0 0 0 0 0 0 0 0 0 0 0 0 0 0 0 0 0 0 0 0 0 0 0 0 0 0 0 0 0 0 0 0 0 0 0 0 0 0 0 0 0 0 0 0 0 0 0 0 0 0 0 0 0 0 0 0 0 0 0 0 0 0 0 0 0 0 0 0 0 0 0 0 0 0 0 0 0 0 0 0 0 0 0 0 0 0 0 0 0 0 0 0 0 0 0 0 0 0 0 0 0 0 0 0 0 0 0 0 0 0 0 0 0 0 0 0 0 0 0 0 0 0 0 0 0 0 0 0 0 0 0 0 0 0 0 0 0 0 0 0 0 0 0 0 0 0 0 0 0 0 0 0 0 0 0 0 0 0 0 0 0 0 0 0 0 0 0 0 0 0 0 0 0 0 0 0 0 0 0 0 0 0 0 0 0 0 0 0 0 0 0 0 0 0 0 0 0 0 0 0 0 0 0 0 0 0 0 0 0 0 0 0 0 0 0 0 0 0 0 0 0 0 0 0 0 0 0 0 0 0 0 0 0 0 0 0 0 0 0 0 0 0 0 0 0 0 0 0 0 0 0 0 0 0 0 0 0 0 0 0 0 0 0 0 0 0 0 0 0 0 0 0 0 0 0 0 0 0 0 0 0 0 0 0 0 0 0 0 0 0 0 0 0 0 0 0 0 0 0 0 0 0 0 0 0 0 0 0 0 0 0 0 0 0 0 0 0 0 0 0 0 0 0 0 0 0 0 0 0 0 0 0 0 0 0 0 0 0 0 0 0 0 0 0 0 0 0 0 0 0 0 0 0 0 0 0 0 0 0 0 0 0 0 0 0 0 0 0 0 0 0 0 0 0 0 0 0 0 0 0 0 0 0 0 0 0 0 0 0 0 0 0 0 0 0 0 0 0 0 0 0 0 0 0 0 0 0 0 0 0 0 0 0 0 0 0 0 0 0 0 0 0 0 0 0 0 0 0 0 0 0 0 0 0 0 0 0 0 0 0 0 0 0 0 0 0 0 0 0 0 0 0 0 0 0 0 0 0 0 0 0 0 0 0 0 0 0 0 0 0 0 0 0 0 0 0 0 0 0 0 0 0 0 0 0 0 0 0 0 0 0 0 0 0 0 0 0 0 0 0 0 0 0 0 0 0 0 0 0 0 0 0 0 0 0 0 0 0 0 0 0 0 0 0 0 0 0 0 0 0 0 0 0 0 0 0 0 0 0 0 0 0 0 0 0 0 0 0 0 0 0 0 0 0 0 0 0 0 0 0 0 0 0 0 0 0 0 0 0 0 0 0 0 0 0 0 0 0 0 0 0 0 0 0 0 0 0 0 0 0 0 0 0 0 0 0 0 0 0 0 0 0 0 0 0 0 0 0 0 0 0 0 0 0 0 0 0 0 0 0 0 0 0 0 0 0 0 0 0 0 0 0 0 0 0 0 0 0 0 0 0 0 0 0 0 0 0 0 0 0 0 0 0 0 0 0 0 0 0 0 0 0 0 0 0 0 0 0 0 0 0 0 0 0 0 0 0 0 0 0 0 0 0 0 0 0 0 0 0 0 0 0 0 0 0 0 0 0 0 0 0 0 0 0 0 0 0 0 0 0 0 0 0 0 0 0 0 0 0 0 0 0 0 0 0 0 0 0 0 0 0 0 0 0 0 0 0 0 0 0 0 0 0 0 0 0 0 0 0 0 0 0 0 0 0 0 0 0 0 0 0 0 0 0 0 0 0 0 0 0 0 0 0 0 0 0 0 0 0 0 0 0 0 0 0 0 0 0 0 0 0 0 0 0 0 0 0 0 0 0 0 0 0 0 0 0 0 0 0 0 0 0 0 0 0 0 0 0 0 0 0 0 0 0 0 0 0 0 0 0 0 0 0 0 0 0 0 0 0 0 0 0 0 0 0 0 0 0 0 0 0 0 0 0 0 0 0 0 0 0 0 0 0 0 0 0 0 0 0 0 0 0 0 0 0 0 0 0 0 0 0 0 0 0 0 0 0 0 0 0 0 0 0 0 0 0 0 0 0 0 0 0 0 0 0 0 0 0 0 0 0 0 0 0 0 0 0 0 0 0 0 0 0 0 0 0 0 0 0 0 0 0 0 0 0 0 0 0 0 0 0 0 0 0 0 0 0 0 0 0 0 0 0 0 0 0 0 0 0 0 0 0 0 0 0 0 0 0 0 0 0 0 0 0 0 0 0 0 0 0 0 0 0 0 0 0 0 0 0 0 0 0 0 0 0 0 0 0 0 0 0 0 0 0 0 0 0 0 0 0 0 0 0 0 0 0 0 0 0 0 0 0 0 0 0 0 0 0 0 0 0 0 0 0 0 0 0 0 0 0 0 0 0 0 0 0 0 0 0 0 0 0 0 0 0 0 0 0 0 0 0 0 0 0 0 0 0 0 0 0 0 0 0 0 0 0 0 0 0 0 0 0 0 0 0 0 0 0 0 0 0 0 0 0 0 0 0 0 0 0 0 0 0 0 0 0 0 0 0 0 0 0 0 0 0 0 0 0 0 0 0 0 0 0 0 0 0 0 0 0 0 0 0 0 0 0 0 0 0 3.95209e-05 4.62832e-05 0 6.93388e-05 6.30379e-05 0 9.98488e-05 7.08769e-05 0 0.000131251 7.45911e-05 0 0.000163762 7.62857e-05 0 0.000196934 7.70418e-05 0 0.000230679 7.7344e-05 0 0.000264766 7.74542e-05 0 0.000299116 7.74762e-05 0 0.000333631 7.74688e-05 0 0.000368265 7.74501e-05 0 0.000402978 7.74301e-05 0 0.000437747 7.74095e-05 0 0.000472553 7.73878e-05 0 0.000507387 7.73632e-05 0 0.00054224 7.73339e-05 0 0.000577108 7.72983e-05 0 0.00061199 7.72551e-05 0 0.000646884 7.72037e-05 0 0.000681791 7.71439e-05 0 0.000716712 7.70762e-05 0 0.000751648 7.70008e-05 0 0.0007866 7.69195e-05 0 0.000821565 7.68309e-05 0 0.000856544 7.67354e-05 0 0.000891523 7.66171e-05 0 0.0009265 7.64614e-05 0 0.000961435 7.61801e-05 0 0.00099635 7.56667e-05 0 0.00103118 7.4499e-05 0 0.00106618 7.12747e-05 0 </DataArray> 
</PointData> 
<Points> 
<DataArray type="Float32" NumberOfComponents="3"> 
0 0 0 0.0967742 0 0 0.193548 0 0 0.290323 0 0 0.387097 0 0 0.483871 0 0 0.580645 0 0 0.677419 0 0 0.774194 0 0 0.870968 0 0 0.967742 0 0 1.06452 0 0 1.16129 0 0 1.25806 0 0 1.35484 0 0 1.45161 0 0 1.54839 0 0 1.64516 0 0 1.74194 0 0 1.83871 0 0 1.93548 0 0 2.03226 0 0 2.12903 0 0 2.22581 0 0 2.32258 0 0 2.41935 0 0 2.51613 0 0 2.6129 0 0 2.70968 0 0 2.80645 0 0 2.90323 0 0 3 0 0 0 0.0967742 0 0.0967742 0.0967742 0 0.193548 0.0967742 0 0.290323 0.0967742 0 0.387097 0.0967742 0 0.483871 0.0967742 0 0.580645 0.0967742 0 0.677419 0.0967742 0 0.774194 0.0967742 0 0.870968 0.0967742 0 0.967742 0.0967742 0 1.06452 0.0967742 0 1.16129 0.0967742 0 1.25806 0.0967742 0 1.35484 0.0967742 0 1.45161 0.0967742 0 1.54839 0.0967742 0 1.64516 0.0967742 0 1.74194 0.0967742 0 1.83871 0.0967742 0 1.93548 0.0967742 0 2.03226 0.0967742 0 2.12903 0.0967742 0 2.22581 0.0967742 0 2.32258 0.0967742 0 2.41935 0.0967742 0 2.51613 0.0967742 0 2.6129 0.0967742 0 2.70968 0.0967742 0 2.80645 0.0967742 0 2.90323 0.0967742 0 3 0.0967742 0 0 0.193548 0 0.0967742 0.193548 0 0.193548 0.193548 0 0.290323 0.193548 0 0.387097 0.193548 0 0.483871 0.193548 0 0.580645 0.193548 0 0.677419 0.193548 0 0.774194 0.193548 0 0.870968 0.193548 0 0.967742 0.193548 0 1.06452 0.193548 0 1.16129 0.193548 0 1.25806 0.193548 0 1.35484 0.193548 0 1.45161 0.193548 0 1.54839 0.193548 0 1.64516 0.193548 0 1.74194 0.193548 0 1.83871 0.193548 0 1.93548 0.193548 0 2.03226 0.193548 0 2.12903 0.193548 0 2.22581 0.193548 0 2.32258 0.193548 0 2.41935 0.193548 0 2.51613 0.193548 0 2.6129 0.193548 0 2.70968 0.193548 0 2.80645 0.193548 0 2.90323 0.193548 0 3 0.193548 0 0 0.290323 0 0.0967742 0.290323 0 0.193548 0.290323 0 0.290323 0.290323 0 0.387097 0.290323 0 0.483871 0.290323 0 0.580645 0.290323 0 0.677419 0.290323 0 0.774194 0.290323 0 0.870968 0.290323 0 0.967742 0.290323 0 1.06452 0.290323 0 1.16129 0.290323 0 1.25806 0.290323 0 1.35484 0.290323 0 1.45161 0.290323 0 1.54839 0.290323 0 1.64516 0.290323 0 1.74194 0.290323 0 1.83871 0.290323 0 1.93548 0.290323 0 2.03226 0.290323 0 2.12903 0.290323 0 2.22581 0.290323 0 2.32258 0.290323 0 2.41935 0.290323 0 2.51613 0.290323 0 2.6129 0.290323 0 2.70968 0.290323 0 2.80645 0.290323 0 2.90323 0.290323 0 3 0.290323 0 0 0.387097 0 0.0967742 0.387097 0 0.193548 0.387097 0 0.290323 0.387097 0 0.387097 0.387097 0 0.483871 0.387097 0 0.580645 0.387097 0 0.677419 0.387097 0 0.774194 0.387097 0 0.870968 0.387097 0 0.967742 0.387097 0 1.06452 0.387097 0 1.16129 0.387097 0 1.25806 0.387097 0 1.35484 0.387097 0 1.45161 0.387097 0 1.54839 0.387097 0 1.64516 0.387097 0 1.74194 0.387097 0 1.83871 0.387097 0 1.93548 0.387097 0 2.03226 0.387097 0 2.12903 0.387097 0 2.22581 0.387097 0 2.32258 0.387097 0 2.41935 0.387097 0 2.51613 0.387097 0 2.6129 0.387097 0 2.70968 0.387097 0 2.80645 0.387097 0 2.90323 0.387097 0 3 0.387097 0 0 0.483871 0 0.0967742 0.483871 0 0.193548 0.483871 0 0.290323 0.483871 0 0.387097 0.483871 0 0.483871 0.483871 0 0.580645 0.483871 0 0.677419 0.483871 0 0.774194 0.483871 0 0.870968 0.483871 0 0.967742 0.483871 0 1.06452 0.483871 0 1.16129 0.483871 0 1.25806 0.483871 0 1.35484 0.483871 0 1.45161 0.483871 0 1.54839 0.483871 0 1.64516 0.483871 0 1.74194 0.483871 0 1.83871 0.483871 0 1.93548 0.483871 0 2.03226 0.483871 0 2.12903 0.483871 0 2.22581 0.483871 0 2.32258 0.483871 0 2.41935 0.483871 0 2.51613 0.483871 0 2.6129 0.483871 0 2.70968 0.483871 0 2.80645 0.483871 0 2.90323 0.483871 0 3 0.483871 0 0 0.580645 0 0.0967742 0.580645 0 0.193548 0.580645 0 0.290323 0.580645 0 0.387097 0.580645 0 0.483871 0.580645 0 0.580645 0.580645 0 0.677419 0.580645 0 0.774194 0.580645 0 0.870968 0.580645 0 0.967742 0.580645 0 1.06452 0.580645 0 1.16129 0.580645 0 1.25806 0.580645 0 1.35484 0.580645 0 1.45161 0.580645 0 1.54839 0.580645 0 1.64516 0.580645 0 1.74194 0.580645 0 1.83871 0.580645 0 1.93548 0.580645 0 2.03226 0.580645 0 2.12903 0.580645 0 2.22581 0.580645 0 2.32258 0.580645 0 2.41935 0.580645 0 2.51613 0.580645 0 2.6129 0.580645 0 2.70968 0.580645 0 2.80645 0.580645 0 2.90323 0.580645 0 3 0.580645 0 0 0.677419 0 0.0967742 0.677419 0 0.193548 0.677419 0 0.290323 0.677419 0 0.387097 0.677419 0 0.483871 0.677419 0 0.580645 0.677419 0 0.677419 0.677419 0 0.774194 0.677419 0 0.870968 0.677419 0 0.967742 0.677419 0 1.06452 0.677419 0 1.16129 0.677419 0 1.25806 0.677419 0 1.35484 0.677419 0 1.45161 0.677419 0 1.54839 0.677419 0 1.64516 0.677419 0 1.74194 0.677419 0 1.83871 0.677419 0 1.93548 0.677419 0 2.03226 0.677419 0 2.12903 0.677419 0 2.22581 0.677419 0 2.32258 0.677419 0 2.41935 0.677419 0 2.51613 0.677419 0 2.6129 0.677419 0 2.70968 0.677419 0 2.80645 0.677419 0 2.90323 0.677419 0 3 0.677419 0 0 0.774194 0 0.0967742 0.774194 0 0.193548 0.774194 0 0.290323 0.774194 0 0.387097 0.774194 0 0.483871 0.774194 0 0.580645 0.774194 0 0.677419 0.774194 0 0.774194 0.774194 0 0.870968 0.774194 0 0.967742 0.774194 0 1.06452 0.774194 0 1.16129 0.774194 0 1.25806 0.774194 0 1.35484 0.774194 0 1.45161 0.774194 0 1.54839 0.774194 0 1.64516 0.774194 0 1.74194 0.774194 0 1.83871 0.774194 0 1.93548 0.774194 0 2.03226 0.774194 0 2.12903 0.774194 0 2.22581 0.774194 0 2.32258 0.774194 0 2.41935 0.774194 0 2.51613 0.774194 0 2.6129 0.774194 0 2.70968 0.774194 0 2.80645 0.774194 0 2.90323 0.774194 0 3 0.774194 0 0 0.870968 0 0.0967742 0.870968 0 0.193548 0.870968 0 0.290323 0.870968 0 0.387097 0.870968 0 0.483871 0.870968 0 0.580645 0.870968 0 0.677419 0.870968 0 0.774194 0.870968 0 0.870968 0.870968 0 0.967742 0.870968 0 1.06452 0.870968 0 1.16129 0.870968 0 1.25806 0.870968 0 1.35484 0.870968 0 1.45161 0.870968 0 1.54839 0.870968 0 1.64516 0.870968 0 1.74194 0.870968 0 1.83871 0.870968 0 1.93548 0.870968 0 2.03226 0.870968 0 2.12903 0.870968 0 2.22581 0.870968 0 2.32258 0.870968 0 2.41935 0.870968 0 2.51613 0.870968 0 2.6129 0.870968 0 2.70968 0.870968 0 2.80645 0.870968 0 2.90323 0.870968 0 3 0.870968 0 0 0.967742 0 0.0967742 0.967742 0 0.193548 0.967742 0 0.290323 0.967742 0 0.387097 0.967742 0 0.483871 0.967742 0 0.580645 0.967742 0 0.677419 0.967742 0 0.774194 0.967742 0 0.870968 0.967742 0 0.967742 0.967742 0 1.06452 0.967742 0 1.16129 0.967742 0 1.25806 0.967742 0 1.35484 0.967742 0 1.45161 0.967742 0 1.54839 0.967742 0 1.64516 0.967742 0 1.74194 0.967742 0 1.83871 0.967742 0 1.93548 0.967742 0 2.03226 0.967742 0 2.12903 0.967742 0 2.22581 0.967742 0 2.32258 0.967742 0 2.41935 0.967742 0 2.51613 0.967742 0 2.6129 0.967742 0 2.70968 0.967742 0 2.80645 0.967742 0 2.90323 0.967742 0 3 0.967742 0 0 1.06452 0 0.0967742 1.06452 0 0.193548 1.06452 0 0.290323 1.06452 0 0.387097 1.06452 0 0.483871 1.06452 0 0.580645 1.06452 0 0.677419 1.06452 0 0.774194 1.06452 0 0.870968 1.06452 0 0.967742 1.06452 0 1.06452 1.06452 0 1.16129 1.06452 0 1.25806 1.06452 0 1.35484 1.06452 0 1.45161 1.06452 0 1.54839 1.06452 0 1.64516 1.06452 0 1.74194 1.06452 0 1.83871 1.06452 0 1.93548 1.06452 0 2.03226 1.06452 0 2.12903 1.06452 0 2.22581 1.06452 0 2.32258 1.06452 0 2.41935 1.06452 0 2.51613 1.06452 0 2.6129 1.06452 0 2.70968 1.06452 0 2.80645 1.06452 0 2.90323 1.06452 0 3 1.06452 0 0 1.16129 0 0.0967742 1.16129 0 0.193548 1.16129 0 0.290323 1.16129 0 0.387097 1.16129 0 0.483871 1.16129 0 0.580645 1.16129 0 0.677419 1.16129 0 0.774194 1.16129 0 0.870968 1.16129 0 0.967742 1.16129 0 1.06452 1.16129 0 1.16129 1.16129 0 1.25806 1.16129 0 1.35484 1.16129 0 1.45161 1.16129 0 1.54839 1.16129 0 1.64516 1.16129 0 1.74194 1.16129 0 1.83871 1.16129 0 1.93548 1.16129 0 2.03226 1.16129 0 2.12903 1.16129 0 2.22581 1.16129 0 2.32258 1.16129 0 2.41935 1.16129 0 2.51613 1.16129 0 2.6129 1.16129 0 2.70968 1.16129 0 2.80645 1.16129 0 2.90323 1.16129 0 3 1.16129 0 0 1.25806 0 0.0967742 1.25806 0 0.193548 1.25806 0 0.290323 1.25806 0 0.387097 1.25806 0 0.483871 1.25806 0 0.580645 1.25806 0 0.677419 1.25806 0 0.774194 1.25806 0 0.870968 1.25806 0 0.967742 1.25806 0 1.06452 1.25806 0 1.16129 1.25806 0 1.25806 1.25806 0 1.35484 1.25806 0 1.45161 1.25806 0 1.54839 1.25806 0 1.64516 1.25806 0 1.74194 1.25806 0 1.83871 1.25806 0 1.93548 1.25806 0 2.03226 1.25806 0 2.12903 1.25806 0 2.22581 1.25806 0 2.32258 1.25806 0 2.41935 1.25806 0 2.51613 1.25806 0 2.6129 1.25806 0 2.70968 1.25806 0 2.80645 1.25806 0 2.90323 1.25806 0 3 1.25806 0 0 1.35484 0 0.0967742 1.35484 0 0.193548 1.35484 0 0.290323 1.35484 0 0.387097 1.35484 0 0.483871 1.35484 0 0.580645 1.35484 0 0.677419 1.35484 0 0.774194 1.35484 0 0.870968 1.35484 0 0.967742 1.35484 0 1.06452 1.35484 0 1.16129 1.35484 0 1.25806 1.35484 0 1.35484 1.35484 0 1.45161 1.35484 0 1.54839 1.35484 0 1.64516 1.35484 0 1.74194 1.35484 0 1.83871 1.35484 0 1.93548 1.35484 0 2.03226 1.35484 0 2.12903 1.35484 0 2.22581 1.35484 0 2.32258 1.35484 0 2.41935 1.35484 0 2.51613 1.35484 0 2.6129 1.35484 0 2.70968 1.35484 0 2.80645 1.35484 0 2.90323 1.35484 0 3 1.35484 0 0 1.45161 0 0.0967742 1.45161 0 0.193548 1.45161 0 0.290323 1.45161 0 0.387097 1.45161 0 0.483871 1.45161 0 0.580645 1.45161 0 0.677419 1.45161 0 0.774194 1.45161 0 0.870968 1.45161 0 0.967742 1.45161 0 1.06452 1.45161 0 1.16129 1.45161 0 1.25806 1.45161 0 1.35484 1.45161 0 1.45161 1.45161 0 1.54839 1.45161 0 1.64516 1.45161 0 1.74194 1.45161 0 1.83871 1.45161 0 1.93548 1.45161 0 2.03226 1.45161 0 2.12903 1.45161 0 2.22581 1.45161 0 2.32258 1.45161 0 2.41935 1.45161 0 2.51613 1.45161 0 2.6129 1.45161 0 2.70968 1.45161 0 2.80645 1.45161 0 2.90323 1.45161 0 3 1.45161 0 0 1.54839 0 0.0967742 1.54839 0 0.193548 1.54839 0 0.290323 1.54839 0 0.387097 1.54839 0 0.483871 1.54839 0 0.580645 1.54839 0 0.677419 1.54839 0 0.774194 1.54839 0 0.870968 1.54839 0 0.967742 1.54839 0 1.06452 1.54839 0 1.16129 1.54839 0 1.25806 1.54839 0 1.35484 1.54839 0 1.45161 1.54839 0 1.54839 1.54839 0 1.64516 1.54839 0 1.74194 1.54839 0 1.83871 1.54839 0 1.93548 1.54839 0 2.03226 1.54839 0 2.12903 1.54839 0 2.22581 1.54839 0 2.32258 1.54839 0 2.41935 1.54839 0 2.51613 1.54839 0 2.6129 1.54839 0 2.70968 1.54839 0 2.80645 1.54839 0 2.90323 1.54839 0 3 1.54839 0 0 1.64516 0 0.0967742 1.64516 0 0.193548 1.64516 0 0.290323 1.64516 0 0.387097 1.64516 0 0.483871 1.64516 0 0.580645 1.64516 0 0.677419 1.64516 0 0.774194 1.64516 0 0.870968 1.64516 0 0.967742 1.64516 0 1.06452 1.64516 0 1.16129 1.64516 0 1.25806 1.64516 0 1.35484 1.64516 0 1.45161 1.64516 0 1.54839 1.64516 0 1.64516 1.64516 0 1.74194 1.64516 0 1.83871 1.64516 0 1.93548 1.64516 0 2.03226 1.64516 0 2.12903 1.64516 0 2.22581 1.64516 0 2.32258 1.64516 0 2.41935 1.64516 0 2.51613 1.64516 0 2.6129 1.64516 0 2.70968 1.64516 0 2.80645 1.64516 0 2.90323 1.64516 0 3 1.64516 0 0 1.74194 0 0.0967742 1.74194 0 0.193548 1.74194 0 0.290323 1.74194 0 0.387097 1.74194 0 0.483871 1.74194 0 0.580645 1.74194 0 0.677419 1.74194 0 0.774194 1.74194 0 0.870968 1.74194 0 0.967742 1.74194 0 1.06452 1.74194 0 1.16129 1.74194 0 1.25806 1.74194 0 1.35484 1.74194 0 1.45161 1.74194 0 1.54839 1.74194 0 1.64516 1.74194 0 1.74194 1.74194 0 1.83871 1.74194 0 1.93548 1.74194 0 2.03226 1.74194 0 2.12903 1.74194 0 2.22581 1.74194 0 2.32258 1.74194 0 2.41935 1.74194 0 2.51613 1.74194 0 2.6129 1.74194 0 2.70968 1.74194 0 2.80645 1.74194 0 2.90323 1.74194 0 3 1.74194 0 0 1.83871 0 0.0967742 1.83871 0 0.193548 1.83871 0 0.290323 1.83871 0 0.387097 1.83871 0 0.483871 1.83871 0 0.580645 1.83871 0 0.677419 1.83871 0 0.774194 1.83871 0 0.870968 1.83871 0 0.967742 1.83871 0 1.06452 1.83871 0 1.16129 1.83871 0 1.25806 1.83871 0 1.35484 1.83871 0 1.45161 1.83871 0 1.54839 1.83871 0 1.64516 1.83871 0 1.74194 1.83871 0 1.83871 1.83871 0 1.93548 1.83871 0 2.03226 1.83871 0 2.12903 1.83871 0 2.22581 1.83871 0 2.32258 1.83871 0 2.41935 1.83871 0 2.51613 1.83871 0 2.6129 1.83871 0 2.70968 1.83871 0 2.80645 1.83871 0 2.90323 1.83871 0 3 1.83871 0 0 1.93548 0 0.0967742 1.93548 0 0.193548 1.93548 0 0.290323 1.93548 0 0.387097 1.93548 0 0.483871 1.93548 0 0.580645 1.93548 0 0.677419 1.93548 0 0.774194 1.93548 0 0.870968 1.93548 0 0.967742 1.93548 0 1.06452 1.93548 0 1.16129 1.93548 0 1.25806 1.93548 0 1.35484 1.93548 0 1.45161 1.93548 0 1.54839 1.93548 0 1.64516 1.93548 0 1.74194 1.93548 0 1.83871 1.93548 0 1.93548 1.93548 0 2.03226 1.93548 0 2.12903 1.93548 0 2.22581 1.93548 0 2.32258 1.93548 0 2.41935 1.93548 0 2.51613 1.93548 0 2.6129 1.93548 0 2.70968 1.93548 0 2.80645 1.93548 0 2.90323 1.93548 0 3 1.93548 0 0 2.03226 0 0.0967742 2.03226 0 0.193548 2.03226 0 0.290323 2.03226 0 0.387097 2.03226 0 0.483871 2.03226 0 0.580645 2.03226 0 0.677419 2.03226 0 0.774194 2.03226 0 0.870968 2.03226 0 0.967742 2.03226 0 1.06452 2.03226 0 1.16129 2.03226 0 1.25806 2.03226 0 1.35484 2.03226 0 1.45161 2.03226 0 1.54839 2.03226 0 1.64516 2.03226 0 1.74194 2.03226 0 1.83871 2.03226 0 1.93548 2.03226 0 2.03226 2.03226 0 2.12903 2.03226 0 2.22581 2.03226 0 2.32258 2.03226 0 2.41935 2.03226 0 2.51613 2.03226 0 2.6129 2.03226 0 2.70968 2.03226 0 2.80645 2.03226 0 2.90323 2.03226 0 3 2.03226 0 0 2.12903 0 0.0967742 2.12903 0 0.193548 2.12903 0 0.290323 2.12903 0 0.387097 2.12903 0 0.483871 2.12903 0 0.580645 2.12903 0 0.677419 2.12903 0 0.774194 2.12903 0 0.870968 2.12903 0 0.967742 2.12903 0 1.06452 2.12903 0 1.16129 2.12903 0 1.25806 2.12903 0 1.35484 2.12903 0 1.45161 2.12903 0 1.54839 2.12903 0 1.64516 2.12903 0 1.74194 2.12903 0 1.83871 2.12903 0 1.93548 2.12903 0 2.03226 2.12903 0 2.12903 2.12903 0 2.22581 2.12903 0 2.32258 2.12903 0 2.41935 2.12903 0 2.51613 2.12903 0 2.6129 2.12903 0 2.70968 2.12903 0 2.80645 2.12903 0 2.90323 2.12903 0 3 2.12903 0 0 2.22581 0 0.0967742 2.22581 0 0.193548 2.22581 0 0.290323 2.22581 0 0.387097 2.22581 0 0.483871 2.22581 0 0.580645 2.22581 0 0.677419 2.22581 0 0.774194 2.22581 0 0.870968 2.22581 0 0.967742 2.22581 0 1.06452 2.22581 0 1.16129 2.22581 0 1.25806 2.22581 0 1.35484 2.22581 0 1.45161 2.22581 0 1.54839 2.22581 0 1.64516 2.22581 0 1.74194 2.22581 0 1.83871 2.22581 0 1.93548 2.22581 0 2.03226 2.22581 0 2.12903 2.22581 0 2.22581 2.22581 0 2.32258 2.22581 0 2.41935 2.22581 0 2.51613 2.22581 0 2.6129 2.22581 0 2.70968 2.22581 0 2.80645 2.22581 0 2.90323 2.22581 0 3 2.22581 0 0 2.32258 0 0.0967742 2.32258 0 0.193548 2.32258 0 0.290323 2.32258 0 0.387097 2.32258 0 0.483871 2.32258 0 0.580645 2.32258 0 0.677419 2.32258 0 0.774194 2.32258 0 0.870968 2.32258 0 0.967742 2.32258 0 1.06452 2.32258 0 1.16129 2.32258 0 1.25806 2.32258 0 1.35484 2.32258 0 1.45161 2.32258 0 1.54839 2.32258 0 1.64516 2.32258 0 1.74194 2.32258 0 1.83871 2.32258 0 1.93548 2.32258 0 2.03226 2.32258 0 2.12903 2.32258 0 2.22581 2.32258 0 2.32258 2.32258 0 2.41935 2.32258 0 2.51613 2.32258 0 2.6129 2.32258 0 2.70968 2.32258 0 2.80645 2.32258 0 2.90323 2.32258 0 3 2.32258 0 0 2.41935 0 0.0967742 2.41935 0 0.193548 2.41935 0 0.290323 2.41935 0 0.387097 2.41935 0 0.483871 2.41935 0 0.580645 2.41935 0 0.677419 2.41935 0 0.774194 2.41935 0 0.870968 2.41935 0 0.967742 2.41935 0 1.06452 2.41935 0 1.16129 2.41935 0 1.25806 2.41935 0 1.35484 2.41935 0 1.45161 2.41935 0 1.54839 2.41935 0 1.64516 2.41935 0 1.74194 2.41935 0 1.83871 2.41935 0 1.93548 2.41935 0 2.03226 2.41935 0 2.12903 2.41935 0 2.22581 2.41935 0 2.32258 2.41935 0 2.41935 2.41935 0 2.51613 2.41935 0 2.6129 2.41935 0 2.70968 2.41935 0 2.80645 2.41935 0 2.90323 2.41935 0 3 2.41935 0 0 2.51613 0 0.0967742 2.51613 0 0.193548 2.51613 0 0.290323 2.51613 0 0.387097 2.51613 0 0.483871 2.51613 0 0.580645 2.51613 0 0.677419 2.51613 0 0.774194 2.51613 0 0.870968 2.51613 0 0.967742 2.51613 0 1.06452 2.51613 0 1.16129 2.51613 0 1.25806 2.51613 0 1.35484 2.51613 0 1.45161 2.51613 0 1.54839 2.51613 0 1.64516 2.51613 0 1.74194 2.51613 0 1.83871 2.51613 0 1.93548 2.51613 0 2.03226 2.51613 0 2.12903 2.51613 0 2.22581 2.51613 0 2.32258 2.51613 0 2.41935 2.51613 0 2.51613 2.51613 0 2.6129 2.51613 0 2.70968 2.51613 0 2.80645 2.51613 0 2.90323 2.51613 0 3 2.51613 0 0 2.6129 0 0.0967742 2.6129 0 0.193548 2.6129 0 0.290323 2.6129 0 0.387097 2.6129 0 0.483871 2.6129 0 0.580645 2.6129 0 0.677419 2.6129 0 0.774194 2.6129 0 0.870968 2.6129 0 0.967742 2.6129 0 1.06452 2.6129 0 1.16129 2.6129 0 1.25806 2.6129 0 1.35484 2.6129 0 1.45161 2.6129 0 1.54839 2.6129 0 1.64516 2.6129 0 1.74194 2.6129 0 1.83871 2.6129 0 1.93548 2.6129 0 2.03226 2.6129 0 2.12903 2.6129 0 2.22581 2.6129 0 2.32258 2.6129 0 2.41935 2.6129 0 2.51613 2.6129 0 2.6129 2.6129 0 2.70968 2.6129 0 2.80645 2.6129 0 2.90323 2.6129 0 3 2.6129 0 0 2.70968 0 0.0967742 2.70968 0 0.193548 2.70968 0 0.290323 2.70968 0 0.387097 2.70968 0 0.483871 2.70968 0 0.580645 2.70968 0 0.677419 2.70968 0 0.774194 2.70968 0 0.870968 2.70968 0 0.967742 2.70968 0 1.06452 2.70968 0 1.16129 2.70968 0 1.25806 2.70968 0 1.35484 2.70968 0 1.45161 2.70968 0 1.54839 2.70968 0 1.64516 2.70968 0 1.74194 2.70968 0 1.83871 2.70968 0 1.93548 2.70968 0 2.03226 2.70968 0 2.12903 2.70968 0 2.22581 2.70968 0 2.32258 2.70968 0 2.41935 2.70968 0 2.51613 2.70968 0 2.6129 2.70968 0 2.70968 2.70968 0 2.80645 2.70968 0 2.90323 2.70968 0 3 2.70968 0 0 2.80645 0 0.0967742 2.80645 0 0.193548 2.80645 0 0.290323 2.80645 0 0.387097 2.80645 0 0.483871 2.80645 0 0.580645 2.80645 0 0.677419 2.80645 0 0.774194 2.80645 0 0.870968 2.80645 0 0.967742 2.80645 0 1.06452 2.80645 0 1.16129 2.80645 0 1.25806 2.80645 0 1.35484 2.80645 0 1.45161 2.80645 0 1.54839 2.80645 0 1.64516 2.80645 0 1.74194 2.80645 0 1.83871 2.80645 0 1.93548 2.80645 0 2.03226 2.80645 0 2.12903 2.80645 0 2.22581 2.80645 0 2.32258 2.80645 0 2.41935 2.80645 0 2.51613 2.80645 0 2.6129 2.80645 0 2.70968 2.80645 0 2.80645 2.80645 0 2.90323 2.80645 0 3 2.80645 0 0 2.90323 0 0.0967742 2.90323 0 0.193548 2.90323 0 0.290323 2.90323 0 0.387097 2.90323 0 0.483871 2.90323 0 0.580645 2.90323 0 0.677419 2.90323 0 0.774194 2.90323 0 0.870968 2.90323 0 0.967742 2.90323 0 1.06452 2.90323 0 1.16129 2.90323 0 1.25806 2.90323 0 1.35484 2.90323 0 1.45161 2.90323 0 1.54839 2.90323 0 1.64516 2.90323 0 1.74194 2.90323 0 1.83871 2.90323 0 1.93548 2.90323 0 2.03226 2.90323 0 2.12903 2.90323 0 2.22581 2.90323 0 2.32258 2.90323 0 2.41935 2.90323 0 2.51613 2.90323 0 2.6129 2.90323 0 2.70968 2.90323 0 2.80645 2.90323 0 2.90323 2.90323 0 3 2.90323 0 0 3 0 0.0967742 3 0 0.193548 3 0 0.290323 3 0 0.387097 3 0 0.483871 3 0 0.580645 3 0 0.677419 3 0 0.774194 3 0 0.870968 3 0 0.967742 3 0 1.06452 3 0 1.16129 3 0 1.25806 3 0 1.35484 3 0 1.45161 3 0 1.54839 3 0 1.64516 3 0 1.74194 3 0 1.83871 3 0 1.93548 3 0 2.03226 3 0 2.12903 3 0 2.22581 3 0 2.32258 3 0 2.41935 3 0 2.51613 3 0 2.6129 3 0 2.70968 3 0 2.80645 3 0 2.90323 3 0 3 3 0 
</DataArray>
</Points> 
</Piece> 
</StructuredGrid> 
</VTKFile> 
