<?xml version="1.0"?> 
<VTKFile type="StructuredGrid" version="0.1"> 
<StructuredGrid WholeExtent="0 31 0 31 0 0"> 
<Piece Extent="0 31 0 31 0 0"> 
<PointData>
<DataArray type="Float32" Name="u" format="ascii" NumberOfComponents="3"> 
0 0 0 0 0 0 0 0 0 0 0 0 0 0 0 0 0 0 0 0 0 0 0 0 0 0 0 0 0 0 0 0 0 0 0 0 0 0 0 0 0 0 0 0 0 0 0 0 0 0 0 0 0 0 0 0 0 0 0 0 0 0 0 0 0 0 0 0 0 0 0 0 0 0 0 0 0 0 0 0 0 0 0 0 0 0 0 0 0 0 0 0 0 0 0 0 0 0 0 0 0 0 0 0 0 0 0 0 0 0 0 0 0 0 0 0 0 0 0 0 0 0 0 0 0 0 0 0 0 0 0 0 0 0 0 0 0 0 0 0 0 0 0 0 0 0 0 0 0 0 0 0 0 0 0 0 0 0 0 0 0 0 0 0 0 0 0 0 0 0 0 0 0 0 0 0 0 0 0 0 0 0 0 0 0 0 0 0 0 0 0 0 0 0 0 0 0 0 0 0 0 0 0 0 0 0 0 0 0 0 0 0 0 0 0 0 0 0 0 0 0 0 0 0 0 0 0 0 0 0 0 0 0 0 0 0 0 0 0 0 0 0 0 0 0 0 0 0 0 0 0 0 0 0 0 0 0 0 0 0 0 0 0 0 0 0 0 0 0 0 0 0 0 0 0 0 0 0 0 0 0 0 0 0 0 0 0 0 0 0 0 0 0 0 0 0 0 0 0 0 0 0 0 0 0 0 0 0 0 0 0 0 0 0 0 0 0 0 0 0 0 0 0 0 0 0 0 0 0 0 0 0 0 0 0 0 0 0 0 0 0 0 0 0 0 0 0 0 0 0 0 0 0 0 0 0 0 0 0 0 0 0 0 0 0 0 0 0 0 0 0 0 0 0 0 0 0 0 0 0 0 0 0 0 0 0 0 0 0 0 0 0 0 0 0 0 0 0 0 0 0 0 0 0 0 0 0 0 0 0 0 0 0 0 0 0 0 0 0 0 0 0 0 0 0 0 0 0 0 0 0 0 0 0 0 0 0 0 0 0 0 0 0 0 0 0 0 0 0 0 0 0 0 0 0 0 0 0 0 0 0 0 0 0 0 0 0 0 0 0 0 0 0 0 0 0 0 0 0 0 0 0 0 0 0 0 0 0 0 0 0 0 0 0 0 0 0 0 0 0 0 0 0 0 0 0 0 0 0 0 0 0 0 0 0 0 0 0 0 0 0 0 0 0 0 0 0 0 0 0 0 0 0 0 0 0 0 0 0 0 0 0 0 0 0 0 0 0 0 0 0 0 0 0 0 0 0 0 0 0 0 0 0 0 0 0 0 0 0 0 0 0 0 0 0 0 0 0 0 0 0 0 0 0 0 0 0 0 0 0 0 0 0 0 0 0 0 0 0 0 0 0 0 0 0 0 0 0 0 0 0 0 0 0 0 0 0 0 0 0 0 0 0 0 0 0 0 0 0 0 0 0 0 0 0 0 0 0 0 0 0 0 0 0 0 0 0 0 0 0 0 0 0 0 0 0 0 0 0 0 0 0 0 0 0 0 0 0 0 0 0 0 0 0 0 0 0 0 0 0 0 0 0 0 0 0 0 0 0 0 0 0 0 0 0 0 0 0 0 0 0 0 0 0 0 0 0 0 0 0 0 0 0 0 0 0 0 0 0 0 0 0 0 0 0 0 0 0 0 0 0 0 0 0 0 0 0 0 0 0 0 0 0 0 0 0 0 0 0 0 0 0 0 0 0 0 0 0 0 0 0 0 0 0 0 0 0 0 0 0 0 0 0 0 0 0 0 0 0 0 0 0 0 0 0 0 0 0 0 0 0 0 0 0 0 0 0 0 0 0 0 0 0 0 0 0 0 0 0 0 0 0 0 0 0 0 0 0 0 0 0 0 0 0 0 0 0 0 0 0 0 0 0 0 0 0 0 0 0 0 0 0 0 0 0 0 0 0 0 0 0 0 0 0 0 0 0 0 0 0 0 0 0 0 0 0 0 0 0 0 0 0 0 0 0 0 0 0 0 0 0 0 0 0 0 0 0 0 0 0 0 0 0 0 0 0 0 0 0 0 0 0 0 0 0 0 0 0 0 0 0 0 0 0 0 0 0 0 0 0 0 0 0 0 0 0 0 0 0 0 0 0 0 0 0 0 0 0 0 0 0 0 0 0 0 0 0 0 0 0 0 0 0 0 0 0 0 0 0 0 0 0 0 0 0 0 0 0 0 0 0 0 0 0 0 0 0 0 0 0 0 0 0 0 0 0 0 0 0 0 0 0 0 0 0 0 0 0 0 0 0 0 0 0 0 0 0 0 0 0 0 0 0 0 0 0 0 0 0 0 0 0 0 0 0 0 0 0 0 0 0 0 0 0 0 0 0 0 0 0 0 0 0 0 0 0 0 0 0 0 0 0 0 0 0 0 0 0 0 0 0 0 0 0 0 0 0 0 0 0 0 0 0 0 0 0 0 0 0 0 0 0 0 0 0 0 0 0 0 0 0 0 0 0 0 0 0 0 0 0 0 0 0 0 0 0 0 0 0 0 0 0 0 0 0 0 0 0 0 0 0 0 0 0 0 0 0 0 0 0 0 0 0 0 0 0 0 0 0 0 0 0 0 0 0 0 0 0 0 0 0 0 0 0 0 0 0 0 0 0 0 0 0 0 0 0 0 0 0 0 0 0 0 0 0 0 0 0 0 0 0 0 0 0 0 0 0 0 0 0 0 0 0 0 0 0 0 0 0 0 0 0 0 0 0 0 0 0 0 0 0 0 0 0 0 0 0 0 0 0 0 0 0 0 0 0 0 0 0 0 0 0 0 0 0 0 0 0 0 0 0 0 0 0 0 0 0 0 0 0 0 0 0 0 0 0 0 0 0 0 0 0 0 0 0 0 0 0 0 0 0 0 0 0 0 0 0 0 0 0 0 0 0 0 0 0 0 0 0 0 0 0 0 0 0 0 0 0 0 0 0 0 0 0 0 0 0 0 0 0 0 0 0 0 0 0 0 0 0 0 0 0 0 0 0 0 0 0 0 0 0 0 0 0 0 0 0 0 0 0 0 0 0 0 0 0 0 0 0 0 0 0 0 0 0 0 0 0 0 0 0 0 0 0 0 0 0 0 0 0 0 0 0 0 0 0 0 0 0 0 0 0 0 0 0 0 0 0 0 0 0 0 0 0 0 0 0 0 0 0 0 0 0 0 0 0 0 0 0 0 0 0 0 0 0 0 0 0 0 0 0 0 0 0 0 0 0 0 0 0 0 0 0 0 0 0 0 0 0 0 0 0 0 0 0 0 0 0 0 0 0 0 0 0 0 0 0 0 0 0 0 0 0 0 0 0 0 0 0 0 0 0 0 0 0 0 0 0 0 0 0 0 0 0 0 0 0 0 0 0 0 0 0 0 0 0 0 0 0 0 0 0 0 0 0 0 0 0 0 0 0 0 0 0 0 0 0 0 0 0 0 0 0 0 0 0 0 0 0 0 0 0 0 0 0 0 0 0 0 0 0 0 0 0 0 0 0 0 0 0 0 0 0 0 0 0 0 0 0 0 0 0 0 0 0 0 0 0 0 0 0 0 0 0 0 0 0 0 0 0 0 0 0 0 0 0 0 0 0 0 0 0 0 0 0 0 0 0 0 0 0 0 0 0 0 0 0 0 0 0 0 0 0 0 0 0 0 0 0 0 0 0 0 0 0 0 0 0 0 0 0 0 0 0 0 0 0 0 0 0 0 0 0 0 0 0 0 0 0 0 0 0 0 0 0 0 0 0 0 0 0 0 0 0 0 0 0 0 0 0 0 0 0 0 0 0 0 0 0 0 0 0 0 0 0 0 0 0 0 0 0 0 0 0 0 0 0 0 0 0 0 0 0 0 0 0 0 0 0 0 0 0 0 0 0 0 0 0 0 0 0 0 0 0 0 0 0 0 0 0 0 0 0 0 0 0 0 0 0 0 0 0 0 0 0 0 0 0 0 0 0 0 0 0 0 0 0 0 0 0 0 0 0 0 0 0 0 0 0 0 0 0 0 0 0 0 0 0 0 0 0 0 0 0 0 0 0 0 0 0 0 0 0 0 0 0 0 0 0 0 0 0 0 0 0 0 0 0 0 0 0 0 0 0 0 0 0 0 0 0 0 0 0 0 0 0 0 0 0 0 0 0 0 0 0 0 0 0 0 0 0 0 0 0 0 0 0 0 0 0 0 0 0 0 0 0 0 0 0 0 0 0 0 0 0 0 0 0 0 0 0 0 0 0 0 0 0 0 0 0 0 0 0 0 0 0 0 0 0 0 0 0 0 0 0 0 0 0 0 0 0 0 0 0 0 0 0 0 0 0 0 0 0 0 0 0 0 0 0 0 0 0 0 0 0 0 0 0 0 0 0 0 0 0 0 0 0 0 0 0 0 0 0 0 0 0 0 0 0 0 0 0 0 0 0 0 0 0 0 0 0 0 0 0 0 0 0 0 0 0 0 0 0 0 0 0 0 0 0 0 0 0 0 0 0 0 0 0 0 0 0 0 0 0 0 0 0 0 0 0 0 0 0 0 0 0 0 0 0 0 0 0 0 0 0 0 0 0 0 0 0 0 0 0 0 0 0 0 0 0 0 0 0 0 0 0 0 0 0 0 0 0 0 0 0 0 0 0 0 0 0 0 0 0 0 0 0 0 0 0 0 0 0 0 0 0 0 0 0 0 0 0 0 0 0 0 0 0 0 0 0 0 0 0 0 0 0 0 0 0 0 0 0 0 0 0 0 0 0 0 0 0 0 0 0 0 0 0 0 0 0 0 0 0 0 0 0 0 0 0 0 0 0 0 0 0 0 0 0 0 0 0 0 0 0 0 0 0 0 0 0 0 0 0 0 0 0 0 0 0 0 0 0 0 0 0 0 0 0 0 0 0 0 0 0 0 0 0 0 0 0 0 0 0 0 0 0 0 0 0 0 0 0 0 0 0 0 0 0 0 0 0 0 0 0 0 0 0 0 0 0 0 0 0 0 0 0 0 0 0 0 0 0 0 0 0 0 0 0 0 0 0 0 0 0 0 0 0 0 0 0 0 0 0 0 0 0 0 0 0 0 0 0 0 0 0 0 0 0 0 0 0 0 0 0 0 0 0 0 0 0 0 0 0 0 0 0 0 0 0 0 0 0 0 0 0 0 0 0 0 0 0 0 0 0 0 0 0 0 0 0 0 0 0 0 0 0 0 0 0 0 0 0 0 0 0 0 0 0 0 0 0 0 0 0 0 0 0 0 0 0 0 0 0 0 0 0 0 0 0 0 0 0 0 0 0 0 0 0 0 0 0 0 0 0 0 0 0 0 0 0 0 0 0 0 0 0 0 0 0 0 0 0 0 0 0 0 0 0 0 0 0 0 0 0 0 0 0 0 0 0 0 0 0 0 0 0 0 0 0 0 0 0 0 0 0 0 0 0 0 0 0 0 0 0 0 0 0 0 0 0 0 0 0 0 0 0 0 0 0 0 0 0 0 0 0 0 0 0 0 0 0 0 0 0 0 0 0 0 0 0 0 0 0 0 0 0 0 0 0 0 0 0 0 0 0 0 0 0 0 0 0 0 0 0 0 0 0 0 0 0 0 0 0 0 0 0 0 0 0 0 0 0 0 0 0 0 0 0 0 0 0 0 0 0 0 0 0 0 0 0 0 0 0 0 0 0 0 0 0 0 0 0 0 0 0 0 0 0 0 0 0 0 0 0 0 0 0 0 0 0 0 0 0 0 0 0 0 0 0 0 0 0 0 0 0 0 0 0 0 0 0 0 0 0 0 0 0 0 0 0 0 0 0 0 0 0 0 0 0 0 0 0 0 0 0 0 0 0 0 0 0 0 0 0 0 0 0 0 0 0 0 0 0 0 0 0 0 0 0 0 0 0 0 0 0 0 0 0 0 0 0 0 0 0 0 0 0 0 0 0 0 0 0 0 0 0 0 0 0 0 0 0 0 0 0 0 0 0 0 0 0 0 0 0 0 0 0 0 0 0 0 0 0 0 0 0 0 0 0 0 0 0 0 0 0 0 0 0 0 0 0 0 0 0 0 0 0 0 0 0 0 0 0 0 0 0 0 0 0 0 0 0 0 0 0 0 0 0 0 0 0 0 0 0 0 0 0 0 0 0 0 0 0 0 0 0 0 0 0 0 0 0 0 0 0 0 0 0 0 0 0 0 0 0 0 0 0 0 0 0 0 0 0 0 0 0 0 0 0 0 0 0 0 0 0 0 0 0 0 0 0 0 0 0 0 0 0 0 0 0 0 0 0 0 0 0 0 0 0 0 0 0 0 0 0 0 0 0 0 0 0 0 0 0 0 0 0 0 0 0 0 0 0 0 0 0 0 0 0 0 0 0 0 0 0 0 0 0 0 0 0 0 0 0 0 0 0 0 0 0 0 0 0 0 0 0 0 0 0 0 0 0 0 0 0 0 0 0 0 0 0 0 0 0 0 0 0 0 0 0 0 0 0 0 0 0 0 0 0 0 0 0 0 0 0 0 0 0 0 0 0 0 0 0 0 0 0 0 0 0 0 0 0 0 0 0 0 0 0 0 0 0 0 0 0 0 0 0 0 0 0 0 0 0 0 0 0 0 0 0 0 0 0 0 0 0 0 0 0 0 0 0 0 0 0 0 0 0 0 0 0 0 0 0 0 0 0 0 0 0 0 0 0 0 0 0 0 0 0 0 0 0 0 0 0 0 0 0 0 0 0 0 0 0 0 0 0 0 0 0 0 0 0 0 0 0 0 0 0 0 0 0 0 0 0 0 0 0 0 0 0 0 0 0 0 0 0 0 0 0 0 0 0 0 0 0 0 0 0 0 0 0 0 0 0 0 0 0 0 0 0 0 0 0 0 0 0 0 0 0 0 0 0 0 0 0 0 0 0 0 0 0 0 0 0 0 0 0 0 0 0 0 0 0 0 0 0 0 0 0 0 </DataArray> 
</PointData> 
<Points> 
<DataArray type="Float32" NumberOfComponents="3"> 
-3 3 0 -2.90323 3 0 -2.80645 3 0 -2.70968 3 0 -2.6129 3 0 -2.51613 3 0 -2.41935 3 0 -2.32258 3 0 -2.22581 3 0 -2.12903 3 0 -2.03226 3 0 -1.93548 3 0 -1.83871 3 0 -1.74194 3 0 -1.64516 3 0 -1.54839 3 0 -1.45161 3 0 -1.35484 3 0 -1.25806 3 0 -1.16129 3 0 -1.06452 3 0 -0.967742 3 0 -0.870968 3 0 -0.774194 3 0 -0.677419 3 0 -0.580645 3 0 -0.483871 3 0 -0.387097 3 0 -0.290323 3 0 -0.193548 3 0 -0.0967742 3 0 0 3 0 -3 3.03226 0 -2.90323 3.03226 0 -2.80645 3.03226 0 -2.70968 3.03226 0 -2.6129 3.03226 0 -2.51613 3.03226 0 -2.41935 3.03226 0 -2.32258 3.03226 0 -2.22581 3.03226 0 -2.12903 3.03226 0 -2.03226 3.03226 0 -1.93548 3.03226 0 -1.83871 3.03226 0 -1.74194 3.03226 0 -1.64516 3.03226 0 -1.54839 3.03226 0 -1.45161 3.03226 0 -1.35484 3.03226 0 -1.25806 3.03226 0 -1.16129 3.03226 0 -1.06452 3.03226 0 -0.967742 3.03226 0 -0.870968 3.03226 0 -0.774194 3.03226 0 -0.677419 3.03226 0 -0.580645 3.03226 0 -0.483871 3.03226 0 -0.387097 3.03226 0 -0.290323 3.03226 0 -0.193548 3.03226 0 -0.0967742 3.03226 0 0 3.03226 0 -3 3.06452 0 -2.90323 3.06452 0 -2.80645 3.06452 0 -2.70968 3.06452 0 -2.6129 3.06452 0 -2.51613 3.06452 0 -2.41935 3.06452 0 -2.32258 3.06452 0 -2.22581 3.06452 0 -2.12903 3.06452 0 -2.03226 3.06452 0 -1.93548 3.06452 0 -1.83871 3.06452 0 -1.74194 3.06452 0 -1.64516 3.06452 0 -1.54839 3.06452 0 -1.45161 3.06452 0 -1.35484 3.06452 0 -1.25806 3.06452 0 -1.16129 3.06452 0 -1.06452 3.06452 0 -0.967742 3.06452 0 -0.870968 3.06452 0 -0.774194 3.06452 0 -0.677419 3.06452 0 -0.580645 3.06452 0 -0.483871 3.06452 0 -0.387097 3.06452 0 -0.290323 3.06452 0 -0.193548 3.06452 0 -0.0967742 3.06452 0 0 3.06452 0 -3 3.09677 0 -2.90323 3.09677 0 -2.80645 3.09677 0 -2.70968 3.09677 0 -2.6129 3.09677 0 -2.51613 3.09677 0 -2.41935 3.09677 0 -2.32258 3.09677 0 -2.22581 3.09677 0 -2.12903 3.09677 0 -2.03226 3.09677 0 -1.93548 3.09677 0 -1.83871 3.09677 0 -1.74194 3.09677 0 -1.64516 3.09677 0 -1.54839 3.09677 0 -1.45161 3.09677 0 -1.35484 3.09677 0 -1.25806 3.09677 0 -1.16129 3.09677 0 -1.06452 3.09677 0 -0.967742 3.09677 0 -0.870968 3.09677 0 -0.774194 3.09677 0 -0.677419 3.09677 0 -0.580645 3.09677 0 -0.483871 3.09677 0 -0.387097 3.09677 0 -0.290323 3.09677 0 -0.193548 3.09677 0 -0.0967742 3.09677 0 0 3.09677 0 -3 3.12903 0 -2.90323 3.12903 0 -2.80645 3.12903 0 -2.70968 3.12903 0 -2.6129 3.12903 0 -2.51613 3.12903 0 -2.41935 3.12903 0 -2.32258 3.12903 0 -2.22581 3.12903 0 -2.12903 3.12903 0 -2.03226 3.12903 0 -1.93548 3.12903 0 -1.83871 3.12903 0 -1.74194 3.12903 0 -1.64516 3.12903 0 -1.54839 3.12903 0 -1.45161 3.12903 0 -1.35484 3.12903 0 -1.25806 3.12903 0 -1.16129 3.12903 0 -1.06452 3.12903 0 -0.967742 3.12903 0 -0.870968 3.12903 0 -0.774194 3.12903 0 -0.677419 3.12903 0 -0.580645 3.12903 0 -0.483871 3.12903 0 -0.387097 3.12903 0 -0.290323 3.12903 0 -0.193548 3.12903 0 -0.0967742 3.12903 0 0 3.12903 0 -3 3.16129 0 -2.90323 3.16129 0 -2.80645 3.16129 0 -2.70968 3.16129 0 -2.6129 3.16129 0 -2.51613 3.16129 0 -2.41935 3.16129 0 -2.32258 3.16129 0 -2.22581 3.16129 0 -2.12903 3.16129 0 -2.03226 3.16129 0 -1.93548 3.16129 0 -1.83871 3.16129 0 -1.74194 3.16129 0 -1.64516 3.16129 0 -1.54839 3.16129 0 -1.45161 3.16129 0 -1.35484 3.16129 0 -1.25806 3.16129 0 -1.16129 3.16129 0 -1.06452 3.16129 0 -0.967742 3.16129 0 -0.870968 3.16129 0 -0.774194 3.16129 0 -0.677419 3.16129 0 -0.580645 3.16129 0 -0.483871 3.16129 0 -0.387097 3.16129 0 -0.290323 3.16129 0 -0.193548 3.16129 0 -0.0967742 3.16129 0 0 3.16129 0 -3 3.19355 0 -2.90323 3.19355 0 -2.80645 3.19355 0 -2.70968 3.19355 0 -2.6129 3.19355 0 -2.51613 3.19355 0 -2.41935 3.19355 0 -2.32258 3.19355 0 -2.22581 3.19355 0 -2.12903 3.19355 0 -2.03226 3.19355 0 -1.93548 3.19355 0 -1.83871 3.19355 0 -1.74194 3.19355 0 -1.64516 3.19355 0 -1.54839 3.19355 0 -1.45161 3.19355 0 -1.35484 3.19355 0 -1.25806 3.19355 0 -1.16129 3.19355 0 -1.06452 3.19355 0 -0.967742 3.19355 0 -0.870968 3.19355 0 -0.774194 3.19355 0 -0.677419 3.19355 0 -0.580645 3.19355 0 -0.483871 3.19355 0 -0.387097 3.19355 0 -0.290323 3.19355 0 -0.193548 3.19355 0 -0.0967742 3.19355 0 0 3.19355 0 -3 3.22581 0 -2.90323 3.22581 0 -2.80645 3.22581 0 -2.70968 3.22581 0 -2.6129 3.22581 0 -2.51613 3.22581 0 -2.41935 3.22581 0 -2.32258 3.22581 0 -2.22581 3.22581 0 -2.12903 3.22581 0 -2.03226 3.22581 0 -1.93548 3.22581 0 -1.83871 3.22581 0 -1.74194 3.22581 0 -1.64516 3.22581 0 -1.54839 3.22581 0 -1.45161 3.22581 0 -1.35484 3.22581 0 -1.25806 3.22581 0 -1.16129 3.22581 0 -1.06452 3.22581 0 -0.967742 3.22581 0 -0.870968 3.22581 0 -0.774194 3.22581 0 -0.677419 3.22581 0 -0.580645 3.22581 0 -0.483871 3.22581 0 -0.387097 3.22581 0 -0.290323 3.22581 0 -0.193548 3.22581 0 -0.0967742 3.22581 0 0 3.22581 0 -3 3.25806 0 -2.90323 3.25806 0 -2.80645 3.25806 0 -2.70968 3.25806 0 -2.6129 3.25806 0 -2.51613 3.25806 0 -2.41935 3.25806 0 -2.32258 3.25806 0 -2.22581 3.25806 0 -2.12903 3.25806 0 -2.03226 3.25806 0 -1.93548 3.25806 0 -1.83871 3.25806 0 -1.74194 3.25806 0 -1.64516 3.25806 0 -1.54839 3.25806 0 -1.45161 3.25806 0 -1.35484 3.25806 0 -1.25806 3.25806 0 -1.16129 3.25806 0 -1.06452 3.25806 0 -0.967742 3.25806 0 -0.870968 3.25806 0 -0.774194 3.25806 0 -0.677419 3.25806 0 -0.580645 3.25806 0 -0.483871 3.25806 0 -0.387097 3.25806 0 -0.290323 3.25806 0 -0.193548 3.25806 0 -0.0967742 3.25806 0 0 3.25806 0 -3 3.29032 0 -2.90323 3.29032 0 -2.80645 3.29032 0 -2.70968 3.29032 0 -2.6129 3.29032 0 -2.51613 3.29032 0 -2.41935 3.29032 0 -2.32258 3.29032 0 -2.22581 3.29032 0 -2.12903 3.29032 0 -2.03226 3.29032 0 -1.93548 3.29032 0 -1.83871 3.29032 0 -1.74194 3.29032 0 -1.64516 3.29032 0 -1.54839 3.29032 0 -1.45161 3.29032 0 -1.35484 3.29032 0 -1.25806 3.29032 0 -1.16129 3.29032 0 -1.06452 3.29032 0 -0.967742 3.29032 0 -0.870968 3.29032 0 -0.774194 3.29032 0 -0.677419 3.29032 0 -0.580645 3.29032 0 -0.483871 3.29032 0 -0.387097 3.29032 0 -0.290323 3.29032 0 -0.193548 3.29032 0 -0.0967742 3.29032 0 0 3.29032 0 -3 3.32258 0 -2.90323 3.32258 0 -2.80645 3.32258 0 -2.70968 3.32258 0 -2.6129 3.32258 0 -2.51613 3.32258 0 -2.41935 3.32258 0 -2.32258 3.32258 0 -2.22581 3.32258 0 -2.12903 3.32258 0 -2.03226 3.32258 0 -1.93548 3.32258 0 -1.83871 3.32258 0 -1.74194 3.32258 0 -1.64516 3.32258 0 -1.54839 3.32258 0 -1.45161 3.32258 0 -1.35484 3.32258 0 -1.25806 3.32258 0 -1.16129 3.32258 0 -1.06452 3.32258 0 -0.967742 3.32258 0 -0.870968 3.32258 0 -0.774194 3.32258 0 -0.677419 3.32258 0 -0.580645 3.32258 0 -0.483871 3.32258 0 -0.387097 3.32258 0 -0.290323 3.32258 0 -0.193548 3.32258 0 -0.0967742 3.32258 0 0 3.32258 0 -3 3.35484 0 -2.90323 3.35484 0 -2.80645 3.35484 0 -2.70968 3.35484 0 -2.6129 3.35484 0 -2.51613 3.35484 0 -2.41935 3.35484 0 -2.32258 3.35484 0 -2.22581 3.35484 0 -2.12903 3.35484 0 -2.03226 3.35484 0 -1.93548 3.35484 0 -1.83871 3.35484 0 -1.74194 3.35484 0 -1.64516 3.35484 0 -1.54839 3.35484 0 -1.45161 3.35484 0 -1.35484 3.35484 0 -1.25806 3.35484 0 -1.16129 3.35484 0 -1.06452 3.35484 0 -0.967742 3.35484 0 -0.870968 3.35484 0 -0.774194 3.35484 0 -0.677419 3.35484 0 -0.580645 3.35484 0 -0.483871 3.35484 0 -0.387097 3.35484 0 -0.290323 3.35484 0 -0.193548 3.35484 0 -0.0967742 3.35484 0 0 3.35484 0 -3 3.3871 0 -2.90323 3.3871 0 -2.80645 3.3871 0 -2.70968 3.3871 0 -2.6129 3.3871 0 -2.51613 3.3871 0 -2.41935 3.3871 0 -2.32258 3.3871 0 -2.22581 3.3871 0 -2.12903 3.3871 0 -2.03226 3.3871 0 -1.93548 3.3871 0 -1.83871 3.3871 0 -1.74194 3.3871 0 -1.64516 3.3871 0 -1.54839 3.3871 0 -1.45161 3.3871 0 -1.35484 3.3871 0 -1.25806 3.3871 0 -1.16129 3.3871 0 -1.06452 3.3871 0 -0.967742 3.3871 0 -0.870968 3.3871 0 -0.774194 3.3871 0 -0.677419 3.3871 0 -0.580645 3.3871 0 -0.483871 3.3871 0 -0.387097 3.3871 0 -0.290323 3.3871 0 -0.193548 3.3871 0 -0.0967742 3.3871 0 0 3.3871 0 -3 3.41935 0 -2.90323 3.41935 0 -2.80645 3.41935 0 -2.70968 3.41935 0 -2.6129 3.41935 0 -2.51613 3.41935 0 -2.41935 3.41935 0 -2.32258 3.41935 0 -2.22581 3.41935 0 -2.12903 3.41935 0 -2.03226 3.41935 0 -1.93548 3.41935 0 -1.83871 3.41935 0 -1.74194 3.41935 0 -1.64516 3.41935 0 -1.54839 3.41935 0 -1.45161 3.41935 0 -1.35484 3.41935 0 -1.25806 3.41935 0 -1.16129 3.41935 0 -1.06452 3.41935 0 -0.967742 3.41935 0 -0.870968 3.41935 0 -0.774194 3.41935 0 -0.677419 3.41935 0 -0.580645 3.41935 0 -0.483871 3.41935 0 -0.387097 3.41935 0 -0.290323 3.41935 0 -0.193548 3.41935 0 -0.0967742 3.41935 0 0 3.41935 0 -3 3.45161 0 -2.90323 3.45161 0 -2.80645 3.45161 0 -2.70968 3.45161 0 -2.6129 3.45161 0 -2.51613 3.45161 0 -2.41935 3.45161 0 -2.32258 3.45161 0 -2.22581 3.45161 0 -2.12903 3.45161 0 -2.03226 3.45161 0 -1.93548 3.45161 0 -1.83871 3.45161 0 -1.74194 3.45161 0 -1.64516 3.45161 0 -1.54839 3.45161 0 -1.45161 3.45161 0 -1.35484 3.45161 0 -1.25806 3.45161 0 -1.16129 3.45161 0 -1.06452 3.45161 0 -0.967742 3.45161 0 -0.870968 3.45161 0 -0.774194 3.45161 0 -0.677419 3.45161 0 -0.580645 3.45161 0 -0.483871 3.45161 0 -0.387097 3.45161 0 -0.290323 3.45161 0 -0.193548 3.45161 0 -0.0967742 3.45161 0 0 3.45161 0 -3 3.48387 0 -2.90323 3.48387 0 -2.80645 3.48387 0 -2.70968 3.48387 0 -2.6129 3.48387 0 -2.51613 3.48387 0 -2.41935 3.48387 0 -2.32258 3.48387 0 -2.22581 3.48387 0 -2.12903 3.48387 0 -2.03226 3.48387 0 -1.93548 3.48387 0 -1.83871 3.48387 0 -1.74194 3.48387 0 -1.64516 3.48387 0 -1.54839 3.48387 0 -1.45161 3.48387 0 -1.35484 3.48387 0 -1.25806 3.48387 0 -1.16129 3.48387 0 -1.06452 3.48387 0 -0.967742 3.48387 0 -0.870968 3.48387 0 -0.774194 3.48387 0 -0.677419 3.48387 0 -0.580645 3.48387 0 -0.483871 3.48387 0 -0.387097 3.48387 0 -0.290323 3.48387 0 -0.193548 3.48387 0 -0.0967742 3.48387 0 0 3.48387 0 -3 3.51613 0 -2.90323 3.51613 0 -2.80645 3.51613 0 -2.70968 3.51613 0 -2.6129 3.51613 0 -2.51613 3.51613 0 -2.41935 3.51613 0 -2.32258 3.51613 0 -2.22581 3.51613 0 -2.12903 3.51613 0 -2.03226 3.51613 0 -1.93548 3.51613 0 -1.83871 3.51613 0 -1.74194 3.51613 0 -1.64516 3.51613 0 -1.54839 3.51613 0 -1.45161 3.51613 0 -1.35484 3.51613 0 -1.25806 3.51613 0 -1.16129 3.51613 0 -1.06452 3.51613 0 -0.967742 3.51613 0 -0.870968 3.51613 0 -0.774194 3.51613 0 -0.677419 3.51613 0 -0.580645 3.51613 0 -0.483871 3.51613 0 -0.387097 3.51613 0 -0.290323 3.51613 0 -0.193548 3.51613 0 -0.0967742 3.51613 0 0 3.51613 0 -3 3.54839 0 -2.90323 3.54839 0 -2.80645 3.54839 0 -2.70968 3.54839 0 -2.6129 3.54839 0 -2.51613 3.54839 0 -2.41935 3.54839 0 -2.32258 3.54839 0 -2.22581 3.54839 0 -2.12903 3.54839 0 -2.03226 3.54839 0 -1.93548 3.54839 0 -1.83871 3.54839 0 -1.74194 3.54839 0 -1.64516 3.54839 0 -1.54839 3.54839 0 -1.45161 3.54839 0 -1.35484 3.54839 0 -1.25806 3.54839 0 -1.16129 3.54839 0 -1.06452 3.54839 0 -0.967742 3.54839 0 -0.870968 3.54839 0 -0.774194 3.54839 0 -0.677419 3.54839 0 -0.580645 3.54839 0 -0.483871 3.54839 0 -0.387097 3.54839 0 -0.290323 3.54839 0 -0.193548 3.54839 0 -0.0967742 3.54839 0 0 3.54839 0 -3 3.58065 0 -2.90323 3.58065 0 -2.80645 3.58065 0 -2.70968 3.58065 0 -2.6129 3.58065 0 -2.51613 3.58065 0 -2.41935 3.58065 0 -2.32258 3.58065 0 -2.22581 3.58065 0 -2.12903 3.58065 0 -2.03226 3.58065 0 -1.93548 3.58065 0 -1.83871 3.58065 0 -1.74194 3.58065 0 -1.64516 3.58065 0 -1.54839 3.58065 0 -1.45161 3.58065 0 -1.35484 3.58065 0 -1.25806 3.58065 0 -1.16129 3.58065 0 -1.06452 3.58065 0 -0.967742 3.58065 0 -0.870968 3.58065 0 -0.774194 3.58065 0 -0.677419 3.58065 0 -0.580645 3.58065 0 -0.483871 3.58065 0 -0.387097 3.58065 0 -0.290323 3.58065 0 -0.193548 3.58065 0 -0.0967742 3.58065 0 0 3.58065 0 -3 3.6129 0 -2.90323 3.6129 0 -2.80645 3.6129 0 -2.70968 3.6129 0 -2.6129 3.6129 0 -2.51613 3.6129 0 -2.41935 3.6129 0 -2.32258 3.6129 0 -2.22581 3.6129 0 -2.12903 3.6129 0 -2.03226 3.6129 0 -1.93548 3.6129 0 -1.83871 3.6129 0 -1.74194 3.6129 0 -1.64516 3.6129 0 -1.54839 3.6129 0 -1.45161 3.6129 0 -1.35484 3.6129 0 -1.25806 3.6129 0 -1.16129 3.6129 0 -1.06452 3.6129 0 -0.967742 3.6129 0 -0.870968 3.6129 0 -0.774194 3.6129 0 -0.677419 3.6129 0 -0.580645 3.6129 0 -0.483871 3.6129 0 -0.387097 3.6129 0 -0.290323 3.6129 0 -0.193548 3.6129 0 -0.0967742 3.6129 0 0 3.6129 0 -3 3.64516 0 -2.90323 3.64516 0 -2.80645 3.64516 0 -2.70968 3.64516 0 -2.6129 3.64516 0 -2.51613 3.64516 0 -2.41935 3.64516 0 -2.32258 3.64516 0 -2.22581 3.64516 0 -2.12903 3.64516 0 -2.03226 3.64516 0 -1.93548 3.64516 0 -1.83871 3.64516 0 -1.74194 3.64516 0 -1.64516 3.64516 0 -1.54839 3.64516 0 -1.45161 3.64516 0 -1.35484 3.64516 0 -1.25806 3.64516 0 -1.16129 3.64516 0 -1.06452 3.64516 0 -0.967742 3.64516 0 -0.870968 3.64516 0 -0.774194 3.64516 0 -0.677419 3.64516 0 -0.580645 3.64516 0 -0.483871 3.64516 0 -0.387097 3.64516 0 -0.290323 3.64516 0 -0.193548 3.64516 0 -0.0967742 3.64516 0 0 3.64516 0 -3 3.67742 0 -2.90323 3.67742 0 -2.80645 3.67742 0 -2.70968 3.67742 0 -2.6129 3.67742 0 -2.51613 3.67742 0 -2.41935 3.67742 0 -2.32258 3.67742 0 -2.22581 3.67742 0 -2.12903 3.67742 0 -2.03226 3.67742 0 -1.93548 3.67742 0 -1.83871 3.67742 0 -1.74194 3.67742 0 -1.64516 3.67742 0 -1.54839 3.67742 0 -1.45161 3.67742 0 -1.35484 3.67742 0 -1.25806 3.67742 0 -1.16129 3.67742 0 -1.06452 3.67742 0 -0.967742 3.67742 0 -0.870968 3.67742 0 -0.774194 3.67742 0 -0.677419 3.67742 0 -0.580645 3.67742 0 -0.483871 3.67742 0 -0.387097 3.67742 0 -0.290323 3.67742 0 -0.193548 3.67742 0 -0.0967742 3.67742 0 0 3.67742 0 -3 3.70968 0 -2.90323 3.70968 0 -2.80645 3.70968 0 -2.70968 3.70968 0 -2.6129 3.70968 0 -2.51613 3.70968 0 -2.41935 3.70968 0 -2.32258 3.70968 0 -2.22581 3.70968 0 -2.12903 3.70968 0 -2.03226 3.70968 0 -1.93548 3.70968 0 -1.83871 3.70968 0 -1.74194 3.70968 0 -1.64516 3.70968 0 -1.54839 3.70968 0 -1.45161 3.70968 0 -1.35484 3.70968 0 -1.25806 3.70968 0 -1.16129 3.70968 0 -1.06452 3.70968 0 -0.967742 3.70968 0 -0.870968 3.70968 0 -0.774194 3.70968 0 -0.677419 3.70968 0 -0.580645 3.70968 0 -0.483871 3.70968 0 -0.387097 3.70968 0 -0.290323 3.70968 0 -0.193548 3.70968 0 -0.0967742 3.70968 0 0 3.70968 0 -3 3.74194 0 -2.90323 3.74194 0 -2.80645 3.74194 0 -2.70968 3.74194 0 -2.6129 3.74194 0 -2.51613 3.74194 0 -2.41935 3.74194 0 -2.32258 3.74194 0 -2.22581 3.74194 0 -2.12903 3.74194 0 -2.03226 3.74194 0 -1.93548 3.74194 0 -1.83871 3.74194 0 -1.74194 3.74194 0 -1.64516 3.74194 0 -1.54839 3.74194 0 -1.45161 3.74194 0 -1.35484 3.74194 0 -1.25806 3.74194 0 -1.16129 3.74194 0 -1.06452 3.74194 0 -0.967742 3.74194 0 -0.870968 3.74194 0 -0.774194 3.74194 0 -0.677419 3.74194 0 -0.580645 3.74194 0 -0.483871 3.74194 0 -0.387097 3.74194 0 -0.290323 3.74194 0 -0.193548 3.74194 0 -0.0967742 3.74194 0 0 3.74194 0 -3 3.77419 0 -2.90323 3.77419 0 -2.80645 3.77419 0 -2.70968 3.77419 0 -2.6129 3.77419 0 -2.51613 3.77419 0 -2.41935 3.77419 0 -2.32258 3.77419 0 -2.22581 3.77419 0 -2.12903 3.77419 0 -2.03226 3.77419 0 -1.93548 3.77419 0 -1.83871 3.77419 0 -1.74194 3.77419 0 -1.64516 3.77419 0 -1.54839 3.77419 0 -1.45161 3.77419 0 -1.35484 3.77419 0 -1.25806 3.77419 0 -1.16129 3.77419 0 -1.06452 3.77419 0 -0.967742 3.77419 0 -0.870968 3.77419 0 -0.774194 3.77419 0 -0.677419 3.77419 0 -0.580645 3.77419 0 -0.483871 3.77419 0 -0.387097 3.77419 0 -0.290323 3.77419 0 -0.193548 3.77419 0 -0.0967742 3.77419 0 0 3.77419 0 -3 3.80645 0 -2.90323 3.80645 0 -2.80645 3.80645 0 -2.70968 3.80645 0 -2.6129 3.80645 0 -2.51613 3.80645 0 -2.41935 3.80645 0 -2.32258 3.80645 0 -2.22581 3.80645 0 -2.12903 3.80645 0 -2.03226 3.80645 0 -1.93548 3.80645 0 -1.83871 3.80645 0 -1.74194 3.80645 0 -1.64516 3.80645 0 -1.54839 3.80645 0 -1.45161 3.80645 0 -1.35484 3.80645 0 -1.25806 3.80645 0 -1.16129 3.80645 0 -1.06452 3.80645 0 -0.967742 3.80645 0 -0.870968 3.80645 0 -0.774194 3.80645 0 -0.677419 3.80645 0 -0.580645 3.80645 0 -0.483871 3.80645 0 -0.387097 3.80645 0 -0.290323 3.80645 0 -0.193548 3.80645 0 -0.0967742 3.80645 0 0 3.80645 0 -3 3.83871 0 -2.90323 3.83871 0 -2.80645 3.83871 0 -2.70968 3.83871 0 -2.6129 3.83871 0 -2.51613 3.83871 0 -2.41935 3.83871 0 -2.32258 3.83871 0 -2.22581 3.83871 0 -2.12903 3.83871 0 -2.03226 3.83871 0 -1.93548 3.83871 0 -1.83871 3.83871 0 -1.74194 3.83871 0 -1.64516 3.83871 0 -1.54839 3.83871 0 -1.45161 3.83871 0 -1.35484 3.83871 0 -1.25806 3.83871 0 -1.16129 3.83871 0 -1.06452 3.83871 0 -0.967742 3.83871 0 -0.870968 3.83871 0 -0.774194 3.83871 0 -0.677419 3.83871 0 -0.580645 3.83871 0 -0.483871 3.83871 0 -0.387097 3.83871 0 -0.290323 3.83871 0 -0.193548 3.83871 0 -0.0967742 3.83871 0 0 3.83871 0 -3 3.87097 0 -2.90323 3.87097 0 -2.80645 3.87097 0 -2.70968 3.87097 0 -2.6129 3.87097 0 -2.51613 3.87097 0 -2.41935 3.87097 0 -2.32258 3.87097 0 -2.22581 3.87097 0 -2.12903 3.87097 0 -2.03226 3.87097 0 -1.93548 3.87097 0 -1.83871 3.87097 0 -1.74194 3.87097 0 -1.64516 3.87097 0 -1.54839 3.87097 0 -1.45161 3.87097 0 -1.35484 3.87097 0 -1.25806 3.87097 0 -1.16129 3.87097 0 -1.06452 3.87097 0 -0.967742 3.87097 0 -0.870968 3.87097 0 -0.774194 3.87097 0 -0.677419 3.87097 0 -0.580645 3.87097 0 -0.483871 3.87097 0 -0.387097 3.87097 0 -0.290323 3.87097 0 -0.193548 3.87097 0 -0.0967742 3.87097 0 0 3.87097 0 -3 3.90323 0 -2.90323 3.90323 0 -2.80645 3.90323 0 -2.70968 3.90323 0 -2.6129 3.90323 0 -2.51613 3.90323 0 -2.41935 3.90323 0 -2.32258 3.90323 0 -2.22581 3.90323 0 -2.12903 3.90323 0 -2.03226 3.90323 0 -1.93548 3.90323 0 -1.83871 3.90323 0 -1.74194 3.90323 0 -1.64516 3.90323 0 -1.54839 3.90323 0 -1.45161 3.90323 0 -1.35484 3.90323 0 -1.25806 3.90323 0 -1.16129 3.90323 0 -1.06452 3.90323 0 -0.967742 3.90323 0 -0.870968 3.90323 0 -0.774194 3.90323 0 -0.677419 3.90323 0 -0.580645 3.90323 0 -0.483871 3.90323 0 -0.387097 3.90323 0 -0.290323 3.90323 0 -0.193548 3.90323 0 -0.0967742 3.90323 0 0 3.90323 0 -3 3.93548 0 -2.90323 3.93548 0 -2.80645 3.93548 0 -2.70968 3.93548 0 -2.6129 3.93548 0 -2.51613 3.93548 0 -2.41935 3.93548 0 -2.32258 3.93548 0 -2.22581 3.93548 0 -2.12903 3.93548 0 -2.03226 3.93548 0 -1.93548 3.93548 0 -1.83871 3.93548 0 -1.74194 3.93548 0 -1.64516 3.93548 0 -1.54839 3.93548 0 -1.45161 3.93548 0 -1.35484 3.93548 0 -1.25806 3.93548 0 -1.16129 3.93548 0 -1.06452 3.93548 0 -0.967742 3.93548 0 -0.870968 3.93548 0 -0.774194 3.93548 0 -0.677419 3.93548 0 -0.580645 3.93548 0 -0.483871 3.93548 0 -0.387097 3.93548 0 -0.290323 3.93548 0 -0.193548 3.93548 0 -0.0967742 3.93548 0 0 3.93548 0 -3 3.96774 0 -2.90323 3.96774 0 -2.80645 3.96774 0 -2.70968 3.96774 0 -2.6129 3.96774 0 -2.51613 3.96774 0 -2.41935 3.96774 0 -2.32258 3.96774 0 -2.22581 3.96774 0 -2.12903 3.96774 0 -2.03226 3.96774 0 -1.93548 3.96774 0 -1.83871 3.96774 0 -1.74194 3.96774 0 -1.64516 3.96774 0 -1.54839 3.96774 0 -1.45161 3.96774 0 -1.35484 3.96774 0 -1.25806 3.96774 0 -1.16129 3.96774 0 -1.06452 3.96774 0 -0.967742 3.96774 0 -0.870968 3.96774 0 -0.774194 3.96774 0 -0.677419 3.96774 0 -0.580645 3.96774 0 -0.483871 3.96774 0 -0.387097 3.96774 0 -0.290323 3.96774 0 -0.193548 3.96774 0 -0.0967742 3.96774 0 0 3.96774 0 -3 4 0 -2.90323 4 0 -2.80645 4 0 -2.70968 4 0 -2.6129 4 0 -2.51613 4 0 -2.41935 4 0 -2.32258 4 0 -2.22581 4 0 -2.12903 4 0 -2.03226 4 0 -1.93548 4 0 -1.83871 4 0 -1.74194 4 0 -1.64516 4 0 -1.54839 4 0 -1.45161 4 0 -1.35484 4 0 -1.25806 4 0 -1.16129 4 0 -1.06452 4 0 -0.967742 4 0 -0.870968 4 0 -0.774194 4 0 -0.677419 4 0 -0.580645 4 0 -0.483871 4 0 -0.387097 4 0 -0.290323 4 0 -0.193548 4 0 -0.0967742 4 0 0 4 0 
</DataArray>
</Points> 
</Piece> 
</StructuredGrid> 
</VTKFile> 
