<?xml version="1.0"?> 
<VTKFile type="StructuredGrid" version="0.1"> 
<StructuredGrid WholeExtent="0 127 0 127 0 0"> 
<Piece Extent="0 127 0 127 0 0"> 
<PointData>
<DataArray type="Float32" Name="B" format="ascii" NumberOfComponents="3"> 
0.000234946 -0.000108655 0 0.00010068 -6.00532e-05 0 9.74611e-05 -5.73608e-05 0 8.46833e-05 -5.06358e-05 0 8.03187e-05 -4.81478e-05 0 7.50763e-05 -4.52876e-05 0 7.15499e-05 -4.33082e-05 0 6.82331e-05 -4.14486e-05 0 6.5453e-05 -3.98655e-05 0 6.29196e-05 -3.84093e-05 0 6.0642e-05 -3.70836e-05 0 5.85447e-05 -3.58491e-05 0 5.6606e-05 -3.46951e-05 0 5.47965e-05 -3.36066e-05 0 5.30988e-05 -3.25752e-05 0 5.14973e-05 -3.15936e-05 0 4.99804e-05 -3.06561e-05 0 4.85384e-05 -2.97585e-05 0 4.71635e-05 -2.8897e-05 0 4.58489e-05 -2.80688e-05 0 4.45893e-05 -2.72714e-05 0 4.33799e-05 -2.65027e-05 0 4.22166e-05 -2.57611e-05 0 4.10962e-05 -2.50449e-05 0 4.00154e-05 -2.43528e-05 0 3.89717e-05 -2.36837e-05 0 3.79627e-05 -2.30365e-05 0 3.69864e-05 -2.24102e-05 0 3.60409e-05 -2.18039e-05 0 3.51246e-05 -2.12169e-05 0 3.42358e-05 -2.06485e-05 0 3.33734e-05 -2.00978e-05 0 3.25359e-05 -1.95643e-05 0 3.17224e-05 -1.90474e-05 0 3.09317e-05 -1.85464e-05 0 3.01628e-05 -1.80608e-05 0 2.9415e-05 -1.75902e-05 0 2.86872e-05 -1.71339e-05 0 2.79789e-05 -1.66916e-05 0 2.72891e-05 -1.62627e-05 0 2.66173e-05 -1.58469e-05 0 2.59628e-05 -1.54436e-05 0 2.53249e-05 -1.50525e-05 0 2.47032e-05 -1.46733e-05 0 2.4097e-05 -1.43054e-05 0 2.35059e-05 -1.39487e-05 0 2.29293e-05 -1.36026e-05 0 2.23667e-05 -1.32669e-05 0 2.18178e-05 -1.29413e-05 0 2.12821e-05 -1.26254e-05 0 2.07591e-05 -1.23189e-05 0 2.02485e-05 -1.20215e-05 0 1.975e-05 -1.17331e-05 0 1.9263e-05 -1.14532e-05 0 1.87873e-05 -1.11816e-05 0 1.83226e-05 -1.09181e-05 0 1.78684e-05 -1.06624e-05 0 1.74246e-05 -1.04143e-05 0 1.69907e-05 -1.01736e-05 0 1.65665e-05 -9.93996e-06 0 1.61517e-05 -9.71329e-06 0 1.57461e-05 -9.49335e-06 0 1.53493e-05 -9.27994e-06 0 1.49611e-05 -9.07286e-06 0 1.45812e-05 -8.87194e-06 0 1.42095e-05 -8.67699e-06 0 1.38456e-05 -8.48785e-06 0 1.34894e-05 -8.30435e-06 0 1.31405e-05 -8.12633e-06 0 1.27989e-05 -7.95364e-06 0 1.24642e-05 -7.78613e-06 0 1.21364e-05 -7.62366e-06 0 1.18151e-05 -7.46609e-06 0 1.15002e-05 -7.3133e-06 0 1.11914e-05 -7.16514e-06 0 1.08887e-05 -7.0215e-06 0 1.05919e-05 -6.88227e-06 0 1.03007e-05 -6.74732e-06 0 1.0015e-05 -6.61655e-06 0 9.73457e-06 -6.48984e-06 0 9.45933e-06 -6.36711e-06 0 9.18909e-06 -6.24824e-06 0 8.9237e-06 -6.13315e-06 0 8.66301e-06 -6.02175e-06 0 8.40686e-06 -5.91394e-06 0 8.15512e-06 -5.80964e-06 0 7.90763e-06 -5.70877e-06 0 7.66427e-06 -5.61125e-06 0 7.42491e-06 -5.51701e-06 0 7.18939e-06 -5.42597e-06 0 6.95761e-06 -5.33807e-06 0 6.72942e-06 -5.25323e-06 0 6.50471e-06 -5.1714e-06 0 6.28336e-06 -5.09251e-06 0 6.06523e-06 -5.0165e-06 0 5.85023e-06 -4.94332e-06 0 5.63823e-06 -4.87291e-06 0 5.42911e-06 -4.80522e-06 0 5.22278e-06 -4.74019e-06 0 5.01911e-06 -4.67779e-06 0 4.818e-06 -4.61797e-06 0 4.61934e-06 -4.56067e-06 0 4.42304e-06 -4.50587e-06 0 4.22898e-06 -4.45352e-06 0 4.03707e-06 -4.40358e-06 0 3.84721e-06 -4.35601e-06 0 3.6593e-06 -4.3108e-06 0 3.47323e-06 -4.26789e-06 0 3.28893e-06 -4.22726e-06 0 3.10628e-06 -4.18888e-06 0 2.9252e-06 -4.15273e-06 0 2.7456e-06 -4.11878e-06 0 2.56738e-06 -4.087e-06 0 2.39045e-06 -4.05737e-06 0 2.21472e-06 -4.02988e-06 0 2.04011e-06 -4.00449e-06 0 1.86652e-06 -3.9812e-06 0 1.69388e-06 -3.95999e-06 0 1.52208e-06 -3.94085e-06 0 1.35104e-06 -3.92375e-06 0 1.18068e-06 -3.90869e-06 0 1.01092e-06 -3.89566e-06 0 8.41659e-07 -3.88465e-06 0 6.72822e-07 -3.87565e-06 0 5.04322e-07 -3.86865e-06 0 3.36074e-07 -3.86366e-06 0 1.67995e-07 -3.86066e-06 0 0 -3.85966e-06 0 0.000162038 -4.84663e-05 0 0.00011366 -5.90205e-05 0 9.59336e-05 -5.15174e-05 0 8.71085e-05 -4.91706e-05 0 8.06923e-05 -4.60609e-05 0 7.60039e-05 -4.40344e-05 0 7.20854e-05 -4.20887e-05 0 6.88104e-05 -4.0463e-05 0 6.59302e-05 -3.89654e-05 0 6.33736e-05 -3.76103e-05 0 6.10557e-05 -3.63503e-05 0 5.89343e-05 -3.51752e-05 0 5.69718e-05 -3.40681e-05 0 5.51433e-05 -3.30203e-05 0 5.34286e-05 -3.20236e-05 0 5.18122e-05 -3.10722e-05 0 5.02819e-05 -3.01614e-05 0 4.88278e-05 -2.92875e-05 0 4.74416e-05 -2.84473e-05 0 4.61167e-05 -2.76384e-05 0 4.48474e-05 -2.68586e-05 0 4.36289e-05 -2.61061e-05 0 4.24572e-05 -2.53793e-05 0 4.13286e-05 -2.46769e-05 0 4.02401e-05 -2.39976e-05 0 3.91891e-05 -2.33405e-05 0 3.81731e-05 -2.27046e-05 0 3.71901e-05 -2.20889e-05 0 3.62381e-05 -2.14927e-05 0 3.53156e-05 -2.09152e-05 0 3.44208e-05 -2.03557e-05 0 3.35526e-05 -1.98136e-05 0 3.27096e-05 -1.92883e-05 0 3.18907e-05 -1.87792e-05 0 3.10949e-05 -1.82857e-05 0 3.0321e-05 -1.78073e-05 0 2.95683e-05 -1.73435e-05 0 2.88359e-05 -1.68938e-05 0 2.8123e-05 -1.64579e-05 0 2.74289e-05 -1.60351e-05 0 2.67528e-05 -1.56251e-05 0 2.60942e-05 -1.52276e-05 0 2.54524e-05 -1.4842e-05 0 2.48268e-05 -1.4468e-05 0 2.42169e-05 -1.41053e-05 0 2.36222e-05 -1.37535e-05 0 2.30421e-05 -1.34122e-05 0 2.24762e-05 -1.30811e-05 0 2.1924e-05 -1.276e-05 0 2.13851e-05 -1.24484e-05 0 2.08591e-05 -1.21461e-05 0 2.03455e-05 -1.18529e-05 0 1.9844e-05 -1.15683e-05 0 1.93543e-05 -1.12923e-05 0 1.88759e-05 -1.10244e-05 0 1.84085e-05 -1.07645e-05 0 1.79518e-05 -1.05123e-05 0 1.75055e-05 -1.02676e-05 0 1.70692e-05 -1.00302e-05 0 1.66427e-05 -9.79976e-06 0 1.62256e-05 -9.5762e-06 0 1.58178e-05 -9.35926e-06 0 1.54189e-05 -9.14877e-06 0 1.50286e-05 -8.94452e-06 0 1.46467e-05 -8.74635e-06 0 1.4273e-05 -8.55407e-06 0 1.39073e-05 -8.36752e-06 0 1.35492e-05 -8.18654e-06 0 1.31986e-05 -8.01096e-06 0 1.28552e-05 -7.84065e-06 0 1.25188e-05 -7.67544e-06 0 1.21893e-05 -7.5152e-06 0 1.18664e-05 -7.35981e-06 0 1.155e-05 -7.20911e-06 0 1.12397e-05 -7.063e-06 0 1.09356e-05 -6.92134e-06 0 1.06373e-05 -6.78403e-06 0 1.03447e-05 -6.65094e-06 0 1.00576e-05 -6.52198e-06 0 9.77584e-06 -6.39703e-06 0 9.49931e-06 -6.27599e-06 0 9.22781e-06 -6.15877e-06 0 8.96118e-06 -6.04528e-06 0 8.69928e-06 -5.93542e-06 0 8.44196e-06 -5.8291e-06 0 8.18906e-06 -5.72625e-06 0 7.94046e-06 -5.62678e-06 0 7.696e-06 -5.53062e-06 0 7.45556e-06 -5.43769e-06 0 7.219e-06 -5.34792e-06 0 6.98619e-06 -5.26125e-06 0 6.757e-06 -5.17759e-06 0 6.53131e-06 -5.0969e-06 0 6.30899e-06 -5.01911e-06 0 6.08992e-06 -4.94417e-06 0 5.87399e-06 -4.87201e-06 0 5.66108e-06 -4.80258e-06 0 5.45107e-06 -4.73583e-06 0 5.24386e-06 -4.67172e-06 0 5.03933e-06 -4.61019e-06 0 4.83738e-06 -4.55121e-06 0 4.63789e-06 -4.49471e-06 0 4.44077e-06 -4.44068e-06 0 4.24591e-06 -4.38906e-06 0 4.0532e-06 -4.33982e-06 0 3.86256e-06 -4.29293e-06 0 3.67388e-06 -4.24834e-06 0 3.48705e-06 -4.20604e-06 0 3.302e-06 -4.16598e-06 0 3.11861e-06 -4.12814e-06 0 2.9368e-06 -4.0925e-06 0 2.75647e-06 -4.05902e-06 0 2.57754e-06 -4.02769e-06 0 2.3999e-06 -3.99848e-06 0 2.22347e-06 -3.97138e-06 0 2.04816e-06 -3.94635e-06 0 1.87389e-06 -3.92339e-06 0 1.70055e-06 -3.90248e-06 0 1.52807e-06 -3.8836e-06 0 1.35636e-06 -3.86675e-06 0 1.18533e-06 -3.8519e-06 0 1.01489e-06 -3.83905e-06 0 8.44968e-07 -3.8282e-06 0 6.75466e-07 -3.81932e-06 0 5.06303e-07 -3.81243e-06 0 3.37395e-07 -3.8075e-06 0 1.68655e-07 -3.80454e-06 0 0 -3.80355e-06 0 0.000138442 -3.25664e-05 0 0.000113882 -5.06594e-05 0 9.68819e-05 -4.82248e-05 0 8.7945e-05 -4.65477e-05 0 8.14408e-05 -4.43551e-05 0 7.66167e-05 -4.25712e-05 0 7.26464e-05 -4.09152e-05 0 6.93052e-05 -3.94304e-05 0 6.63878e-05 -3.80628e-05 0 6.37948e-05 -3.67955e-05 0 6.14503e-05 -3.56098e-05 0 5.93053e-05 -3.44929e-05 0 5.73232e-05 -3.34349e-05 0 5.54775e-05 -3.24282e-05 0 5.37476e-05 -3.1467e-05 0 5.21176e-05 -3.05464e-05 0 5.0575e-05 -2.96627e-05 0 4.91095e-05 -2.88128e-05 0 4.77129e-05 -2.79942e-05 0 4.63783e-05 -2.72048e-05 0 4.50999e-05 -2.64428e-05 0 4.38728e-05 -2.57065e-05 0 4.26929e-05 -2.49948e-05 0 4.15566e-05 -2.43063e-05 0 4.04607e-05 -2.364e-05 0 3.94026e-05 -2.2995e-05 0 3.83798e-05 -2.23704e-05 0 3.73903e-05 -2.17654e-05 0 3.64321e-05 -2.11793e-05 0 3.55035e-05 -2.06114e-05 0 3.46029e-05 -2.0061e-05 0 3.37291e-05 -1.95276e-05 0 3.28807e-05 -1.90105e-05 0 3.20565e-05 -1.85092e-05 0 3.12556e-05 -1.80233e-05 0 3.04768e-05 -1.75521e-05 0 2.97194e-05 -1.70952e-05 0 2.89824e-05 -1.66522e-05 0 2.8265e-05 -1.62227e-05 0 2.75666e-05 -1.58061e-05 0 2.68864e-05 -1.5402e-05 0 2.62238e-05 -1.50102e-05 0 2.5578e-05 -1.46301e-05 0 2.49487e-05 -1.42615e-05 0 2.43351e-05 -1.3904e-05 0 2.37368e-05 -1.35571e-05 0 2.31533e-05 -1.32207e-05 0 2.25841e-05 -1.28943e-05 0 2.20287e-05 -1.25776e-05 0 2.14866e-05 -1.22704e-05 0 2.09576e-05 -1.19724e-05 0 2.04411e-05 -1.16832e-05 0 1.99368e-05 -1.14027e-05 0 1.94443e-05 -1.11305e-05 0 1.89632e-05 -1.08664e-05 0 1.84932e-05 -1.06101e-05 0 1.8034e-05 -1.03614e-05 0 1.75852e-05 -1.01201e-05 0 1.71466e-05 -9.88599e-06 0 1.67178e-05 -9.65881e-06 0 1.62985e-05 -9.43836e-06 0 1.58885e-05 -9.22446e-06 0 1.54875e-05 -9.0169e-06 0 1.50952e-05 -8.81551e-06 0 1.47113e-05 -8.62011e-06 0 1.43357e-05 -8.43052e-06 0 1.39681e-05 -8.24658e-06 0 1.36082e-05 -8.06813e-06 0 1.32558e-05 -7.89502e-06 0 1.29107e-05 -7.72708e-06 0 1.25727e-05 -7.5642e-06 0 1.22415e-05 -7.40621e-06 0 1.19171e-05 -7.25299e-06 0 1.15991e-05 -7.10442e-06 0 1.12873e-05 -6.96036e-06 0 1.09817e-05 -6.8207e-06 0 1.0682e-05 -6.68532e-06 0 1.0388e-05 -6.55411e-06 0 1.00996e-05 -6.42696e-06 0 9.81654e-06 -6.30377e-06 0 9.53873e-06 -6.18445e-06 0 9.26598e-06 -6.06889e-06 0 8.99814e-06 -5.957e-06 0 8.73505e-06 -5.84869e-06 0 8.47656e-06 -5.74388e-06 0 8.22254e-06 -5.64249e-06 0 7.97283e-06 -5.54443e-06 0 7.72729e-06 -5.44963e-06 0 7.48579e-06 -5.35802e-06 0 7.24819e-06 -5.26953e-06 0 7.01437e-06 -5.18408e-06 0 6.78419e-06 -5.10162e-06 0 6.55752e-06 -5.02208e-06 0 6.33425e-06 -4.9454e-06 0 6.11426e-06 -4.87152e-06 0 5.89741e-06 -4.80039e-06 0 5.68361e-06 -4.73195e-06 0 5.47272e-06 -4.66616e-06 0 5.26464e-06 -4.60296e-06 0 5.05927e-06 -4.54231e-06 0 4.85648e-06 -4.48417e-06 0 4.65617e-06 -4.42848e-06 0 4.45825e-06 -4.37522e-06 0 4.26259e-06 -4.32434e-06 0 4.06911e-06 -4.27581e-06 0 3.87769e-06 -4.22959e-06 0 3.68825e-06 -4.18564e-06 0 3.50068e-06 -4.14394e-06 0 3.31488e-06 -4.10446e-06 0 3.13076e-06 -4.06716e-06 0 2.94823e-06 -4.03203e-06 0 2.76719e-06 -3.99904e-06 0 2.58755e-06 -3.96815e-06 0 2.40921e-06 -3.93936e-06 0 2.23209e-06 -3.91264e-06 0 2.0561e-06 -3.88798e-06 0 1.88114e-06 -3.86535e-06 0 1.70713e-06 -3.84474e-06 0 1.53398e-06 -3.82613e-06 0 1.3616e-06 -3.80952e-06 0 1.18991e-06 -3.79489e-06 0 1.01881e-06 -3.78222e-06 0 8.4823e-07 -3.77152e-06 0 6.78073e-07 -3.76278e-06 0 5.08257e-07 -3.75598e-06 0 3.38696e-07 -3.75112e-06 0 1.69306e-07 -3.74821e-06 0 0 -3.74723e-06 0 0.000126104 -2.68307e-05 0 0.000111738 -4.35051e-05 0 9.72801e-05 -4.48462e-05 0 8.84556e-05 -4.40024e-05 0 8.20247e-05 -4.25741e-05 0 7.71369e-05 -4.11119e-05 0 7.31365e-05 -3.97129e-05 0 6.97553e-05 -3.83898e-05 0 6.68087e-05 -3.71467e-05 0 6.41891e-05 -3.59727e-05 0 6.18226e-05 -3.48612e-05 0 5.96583e-05 -3.38042e-05 0 5.76595e-05 -3.27959e-05 0 5.57988e-05 -3.18312e-05 0 5.40555e-05 -3.09058e-05 0 5.24133e-05 -3.00164e-05 0 5.08595e-05 -2.91601e-05 0 4.93837e-05 -2.83346e-05 0 4.79774e-05 -2.75379e-05 0 4.66337e-05 -2.67682e-05 0 4.53467e-05 -2.60241e-05 0 4.41115e-05 -2.53043e-05 0 4.29238e-05 -2.46077e-05 0 4.17801e-05 -2.39332e-05 0 4.06771e-05 -2.328e-05 0 3.96122e-05 -2.26472e-05 0 3.85829e-05 -2.20341e-05 0 3.7587e-05 -2.14398e-05 0 3.66227e-05 -2.08639e-05 0 3.56882e-05 -2.03056e-05 0 3.4782e-05 -1.97644e-05 0 3.39027e-05 -1.92397e-05 0 3.3049e-05 -1.87309e-05 0 3.22198e-05 -1.82376e-05 0 3.14138e-05 -1.77592e-05 0 3.06303e-05 -1.72953e-05 0 2.98682e-05 -1.68454e-05 0 2.91267e-05 -1.64092e-05 0 2.8405e-05 -1.5986e-05 0 2.77024e-05 -1.55756e-05 0 2.7018e-05 -1.51776e-05 0 2.63514e-05 -1.47915e-05 0 2.57019e-05 -1.4417e-05 0 2.50688e-05 -1.40538e-05 0 2.44517e-05 -1.37014e-05 0 2.38499e-05 -1.33596e-05 0 2.3263e-05 -1.3028e-05 0 2.26905e-05 -1.27063e-05 0 2.21319e-05 -1.23942e-05 0 2.15868e-05 -1.20914e-05 0 2.10547e-05 -1.17977e-05 0 2.05354e-05 -1.15126e-05 0 2.00282e-05 -1.12361e-05 0 1.9533e-05 -1.09678e-05 0 1.90493e-05 -1.07074e-05 0 1.85768e-05 -1.04548e-05 0 1.81151e-05 -1.02097e-05 0 1.76639e-05 -9.97184e-06 0 1.72229e-05 -9.74105e-06 0 1.67919e-05 -9.5171e-06 0 1.63704e-05 -9.2998e-06 0 1.59582e-05 -9.08894e-06 0 1.55551e-05 -8.88435e-06 0 1.51608e-05 -8.68583e-06 0 1.4775e-05 -8.49322e-06 0 1.43975e-05 -8.30634e-06 0 1.4028e-05 -8.12503e-06 0 1.36663e-05 -7.94913e-06 0 1.33122e-05 -7.77849e-06 0 1.29654e-05 -7.61296e-06 0 1.26258e-05 -7.45241e-06 0 1.2293e-05 -7.29669e-06 0 1.1967e-05 -7.14567e-06 0 1.16475e-05 -6.99922e-06 0 1.13343e-05 -6.85723e-06 0 1.10272e-05 -6.71958e-06 0 1.07261e-05 -6.58614e-06 0 1.04307e-05 -6.45682e-06 0 1.0141e-05 -6.33151e-06 0 9.85666e-06 -6.21009e-06 0 9.57758e-06 -6.09249e-06 0 9.3036e-06 -5.97859e-06 0 9.03456e-06 -5.86832e-06 0 8.7703e-06 -5.76157e-06 0 8.51067e-06 -5.65828e-06 0 8.25553e-06 -5.55835e-06 0 8.00473e-06 -5.46172e-06 0 7.75812e-06 -5.36829e-06 0 7.51558e-06 -5.27801e-06 0 7.27697e-06 -5.1908e-06 0 7.04214e-06 -5.10659e-06 0 6.81099e-06 -5.02533e-06 0 6.58337e-06 -4.94694e-06 0 6.35916e-06 -4.87137e-06 0 6.13824e-06 -4.79857e-06 0 5.9205e-06 -4.72847e-06 0 5.70581e-06 -4.66103e-06 0 5.49406e-06 -4.59619e-06 0 5.28513e-06 -4.53392e-06 0 5.07892e-06 -4.47415e-06 0 4.87531e-06 -4.41685e-06 0 4.67419e-06 -4.36198e-06 0 4.47547e-06 -4.3095e-06 0 4.27903e-06 -4.25936e-06 0 4.08478e-06 -4.21154e-06 0 3.89261e-06 -4.16599e-06 0 3.70241e-06 -4.12269e-06 0 3.51411e-06 -4.0816e-06 0 3.32758e-06 -4.04269e-06 0 3.14274e-06 -4.00594e-06 0 2.9595e-06 -3.97132e-06 0 2.77776e-06 -3.93881e-06 0 2.59742e-06 -3.90838e-06 0 2.41839e-06 -3.88001e-06 0 2.24059e-06 -3.85368e-06 0 2.06392e-06 -3.82938e-06 0 1.88829e-06 -3.80708e-06 0 1.71362e-06 -3.78677e-06 0 1.5398e-06 -3.76844e-06 0 1.36677e-06 -3.75207e-06 0 1.19442e-06 -3.73765e-06 0 1.02268e-06 -3.72517e-06 0 8.51445e-07 -3.71463e-06 0 6.80642e-07 -3.70601e-06 0 5.10182e-07 -3.69932e-06 0 3.39979e-07 -3.69453e-06 0 1.69947e-07 -3.69166e-06 0 0 -3.6907e-06 0 0.000118819 -2.42311e-05 0 0.000108913 -3.80719e-05 0 9.71254e-05 -4.15176e-05 0 8.86979e-05 -4.15716e-05 0 8.24451e-05 -4.0768e-05 0 7.7561e-05 -3.9656e-05 0 7.35586e-05 -3.84978e-05 0 7.0158e-05 -3.73419e-05 0 6.71934e-05 -3.62224e-05 0 6.45556e-05 -3.51432e-05 0 6.21726e-05 -3.41064e-05 0 5.99931e-05 -3.31102e-05 0 5.79805e-05 -3.21521e-05 0 5.61072e-05 -3.12297e-05 0 5.43522e-05 -3.03406e-05 0 5.26993e-05 -2.94828e-05 0 5.11354e-05 -2.86542e-05 0 4.96501e-05 -2.78532e-05 0 4.82349e-05 -2.70785e-05 0 4.68828e-05 -2.63287e-05 0 4.55877e-05 -2.56027e-05 0 4.43448e-05 -2.48994e-05 0 4.31498e-05 -2.42181e-05 0 4.1999e-05 -2.35578e-05 0 4.08893e-05 -2.29177e-05 0 3.98178e-05 -2.22972e-05 0 3.87822e-05 -2.16956e-05 0 3.77803e-05 -2.11123e-05 0 3.68101e-05 -2.05466e-05 0 3.58699e-05 -1.9998e-05 0 3.49582e-05 -1.9466e-05 0 3.40735e-05 -1.895e-05 0 3.32147e-05 -1.84496e-05 0 3.23804e-05 -1.79643e-05 0 3.15696e-05 -1.74936e-05 0 3.07814e-05 -1.7037e-05 0 3.00147e-05 -1.65941e-05 0 2.92688e-05 -1.61646e-05 0 2.85428e-05 -1.5748e-05 0 2.7836e-05 -1.53438e-05 0 2.71477e-05 -1.49518e-05 0 2.64772e-05 -1.45715e-05 0 2.58239e-05 -1.42027e-05 0 2.51872e-05 -1.38448e-05 0 2.45665e-05 -1.34977e-05 0 2.39613e-05 -1.31609e-05 0 2.3371e-05 -1.28342e-05 0 2.27953e-05 -1.25173e-05 0 2.22336e-05 -1.22098e-05 0 2.16855e-05 -1.19114e-05 0 2.11505e-05 -1.1622e-05 0 2.06282e-05 -1.13411e-05 0 2.01184e-05 -1.10686e-05 0 1.96205e-05 -1.08042e-05 0 1.91341e-05 -1.05476e-05 0 1.86591e-05 -1.02987e-05 0 1.8195e-05 -1.00572e-05 0 1.77414e-05 -9.82277e-06 0 1.72982e-05 -9.59534e-06 0 1.68648e-05 -9.37466e-06 0 1.64412e-05 -9.16052e-06 0 1.6027e-05 -8.95274e-06 0 1.56218e-05 -8.75112e-06 0 1.52255e-05 -8.5555e-06 0 1.48378e-05 -8.3657e-06 0 1.44584e-05 -8.18154e-06 0 1.40871e-05 -8.00288e-06 0 1.37237e-05 -7.82955e-06 0 1.33678e-05 -7.6614e-06 0 1.30194e-05 -7.49829e-06 0 1.26781e-05 -7.34008e-06 0 1.23438e-05 -7.18664e-06 0 1.20162e-05 -7.03783e-06 0 1.16952e-05 -6.89353e-06 0 1.13805e-05 -6.75363e-06 0 1.10721e-05 -6.61799e-06 0 1.07696e-05 -6.48651e-06 0 1.04729e-05 -6.35909e-06 0 1.01818e-05 -6.23562e-06 0 9.89619e-06 -6.11599e-06 0 9.61587e-06 -6.00011e-06 0 9.34068e-06 -5.8879e-06 0 9.07046e-06 -5.77925e-06 0 8.80504e-06 -5.67408e-06 0 8.54429e-06 -5.57231e-06 0 8.28804e-06 -5.47386e-06 0 8.03616e-06 -5.37864e-06 0 7.78851e-06 -5.2866e-06 0 7.54494e-06 -5.19765e-06 0 7.30532e-06 -5.11173e-06 0 7.06951e-06 -5.02877e-06 0 6.83739e-06 -4.94871e-06 0 6.60883e-06 -4.87148e-06 0 6.3837e-06 -4.79704e-06 0 6.16188e-06 -4.72531e-06 0 5.94325e-06 -4.65626e-06 0 5.72769e-06 -4.58982e-06 0 5.51508e-06 -4.52595e-06 0 5.30531e-06 -4.46459e-06 0 5.09828e-06 -4.40572e-06 0 4.89386e-06 -4.34927e-06 0 4.69195e-06 -4.29522e-06 0 4.49244e-06 -4.24352e-06 0 4.29524e-06 -4.19413e-06 0 4.10022e-06 -4.14701e-06 0 3.9073e-06 -4.10214e-06 0 3.71637e-06 -4.05949e-06 0 3.52733e-06 -4.01901e-06 0 3.34009e-06 -3.98068e-06 0 3.15455e-06 -3.94448e-06 0 2.9706e-06 -3.91038e-06 0 2.78817e-06 -3.87835e-06 0 2.60714e-06 -3.84838e-06 0 2.42744e-06 -3.82043e-06 0 2.24896e-06 -3.7945e-06 0 2.07163e-06 -3.77056e-06 0 1.89534e-06 -3.74859e-06 0 1.72001e-06 -3.72859e-06 0 1.54554e-06 -3.71053e-06 0 1.37186e-06 -3.6944e-06 0 1.19887e-06 -3.6802e-06 0 1.02648e-06 -3.66791e-06 0 8.54612e-07 -3.65753e-06 0 6.83173e-07 -3.64904e-06 0 5.12079e-07 -3.64244e-06 0 3.41243e-07 -3.63773e-06 0 1.70578e-07 -3.6349e-06 0 0 -3.63395e-06 0 0.000113484 -2.25708e-05 0 0.000106179 -3.40341e-05 0 9.6521e-05 -3.84105e-05 0 8.87283e-05 -3.92645e-05 0 8.27061e-05 -3.89775e-05 0 7.78939e-05 -3.82094e-05 0 7.3913e-05 -3.72801e-05 0 7.05136e-05 -3.62905e-05 0 6.7542e-05 -3.52933e-05 0 6.48942e-05 -3.43089e-05 0 6.25e-05 -3.33472e-05 0 6.03095e-05 -3.24119e-05 0 5.82861e-05 -3.15043e-05 0 5.64024e-05 -3.06246e-05 0 5.46376e-05 -2.9772e-05 0 5.29753e-05 -2.89459e-05 0 5.14025e-05 -2.81451e-05 0 4.99088e-05 -2.73689e-05 0 4.84854e-05 -2.66163e-05 0 4.71255e-05 -2.58865e-05 0 4.5823e-05 -2.51787e-05 0 4.45729e-05 -2.44922e-05 0 4.33709e-05 -2.38262e-05 0 4.22134e-05 -2.31801e-05 0 4.10972e-05 -2.25533e-05 0 4.00195e-05 -2.19451e-05 0 3.89778e-05 -2.13551e-05 0 3.797e-05 -2.07827e-05 0 3.69941e-05 -2.02273e-05 0 3.60484e-05 -1.96885e-05 0 3.51313e-05 -1.91658e-05 0 3.42415e-05 -1.86587e-05 0 3.33775e-05 -1.81667e-05 0 3.25384e-05 -1.76894e-05 0 3.17229e-05 -1.72263e-05 0 3.093e-05 -1.67771e-05 0 3.01589e-05 -1.63414e-05 0 2.94087e-05 -1.59186e-05 0 2.86785e-05 -1.55085e-05 0 2.79677e-05 -1.51107e-05 0 2.72754e-05 -1.47247e-05 0 2.66011e-05 -1.43503e-05 0 2.59441e-05 -1.39871e-05 0 2.53038e-05 -1.36347e-05 0 2.46796e-05 -1.32928e-05 0 2.4071e-05 -1.29612e-05 0 2.34775e-05 -1.26394e-05 0 2.28986e-05 -1.23272e-05 0 2.23338e-05 -1.20243e-05 0 2.17827e-05 -1.17304e-05 0 2.12448e-05 -1.14453e-05 0 2.07198e-05 -1.11686e-05 0 2.02072e-05 -1.09002e-05 0 1.97066e-05 -1.06397e-05 0 1.92178e-05 -1.0387e-05 0 1.87402e-05 -1.01418e-05 0 1.82737e-05 -9.90383e-06 0 1.78178e-05 -9.67293e-06 0 1.73723e-05 -9.44889e-06 0 1.69368e-05 -9.23148e-06 0 1.6511e-05 -9.02053e-06 0 1.60947e-05 -8.81584e-06 0 1.56875e-05 -8.61723e-06 0 1.52893e-05 -8.42452e-06 0 1.48997e-05 -8.23754e-06 0 1.45184e-05 -8.05613e-06 0 1.41453e-05 -7.88013e-06 0 1.37801e-05 -7.70939e-06 0 1.34226e-05 -7.54375e-06 0 1.30725e-05 -7.38307e-06 0 1.27296e-05 -7.22723e-06 0 1.23937e-05 -7.07608e-06 0 1.20647e-05 -6.9295e-06 0 1.17422e-05 -6.78736e-06 0 1.14261e-05 -6.64954e-06 0 1.11162e-05 -6.51594e-06 0 1.08124e-05 -6.38643e-06 0 1.05144e-05 -6.26092e-06 0 1.0222e-05 -6.1393e-06 0 9.93514e-06 -6.02147e-06 0 9.6536e-06 -5.90733e-06 0 9.37721e-06 -5.7968e-06 0 9.10582e-06 -5.68979e-06 0 8.83926e-06 -5.5862e-06 0 8.5774e-06 -5.48596e-06 0 8.32007e-06 -5.389e-06 0 8.06713e-06 -5.29522e-06 0 7.81844e-06 -5.20457e-06 0 7.57386e-06 -5.11696e-06 0 7.33324e-06 -5.03234e-06 0 7.09647e-06 -4.95063e-06 0 6.8634e-06 -4.87178e-06 0 6.63391e-06 -4.79572e-06 0 6.40787e-06 -4.7224e-06 0 6.18516e-06 -4.65176e-06 0 5.96565e-06 -4.58375e-06 0 5.74923e-06 -4.51832e-06 0 5.53579e-06 -4.45542e-06 0 5.32519e-06 -4.395e-06 0 5.11735e-06 -4.33701e-06 0 4.91213e-06 -4.28143e-06 0 4.70944e-06 -4.22819e-06 0 4.50916e-06 -4.17727e-06 0 4.31119e-06 -4.12864e-06 0 4.11543e-06 -4.08224e-06 0 3.92177e-06 -4.03805e-06 0 3.73012e-06 -3.99604e-06 0 3.54036e-06 -3.95618e-06 0 3.35241e-06 -3.91844e-06 0 3.16617e-06 -3.88279e-06 0 2.98154e-06 -3.84921e-06 0 2.79842e-06 -3.81767e-06 0 2.61672e-06 -3.78815e-06 0 2.43635e-06 -3.76063e-06 0 2.25721e-06 -3.73509e-06 0 2.07922e-06 -3.71152e-06 0 1.90228e-06 -3.68989e-06 0 1.7263e-06 -3.67019e-06 0 1.55119e-06 -3.6524e-06 0 1.37687e-06 -3.63653e-06 0 1.20325e-06 -3.62254e-06 0 1.03023e-06 -3.61044e-06 0 8.57731e-07 -3.60021e-06 0 6.85666e-07 -3.59185e-06 0 5.13947e-07 -3.58535e-06 0 3.42487e-07 -3.58071e-06 0 1.712e-07 -3.57793e-06 0 0 -3.577e-06 0 0.00010937 -2.13413e-05 0 0.000103649 -3.09461e-05 0 9.56582e-05 -3.56261e-05 0 8.85692e-05 -3.70846e-05 0 8.28323e-05 -3.72336e-05 0 7.81367e-05 -3.67799e-05 0 7.42034e-05 -3.60685e-05 0 7.08223e-05 -3.52395e-05 0 6.78548e-05 -3.43628e-05 0 6.52047e-05 -3.34721e-05 0 6.2805e-05 -3.2585e-05 0 6.06074e-05 -3.17105e-05 0 5.85762e-05 -3.08535e-05 0 5.66845e-05 -3.00164e-05 0 5.49117e-05 -2.92005e-05 0 5.32414e-05 -2.84061e-05 0 5.16609e-05 -2.76334e-05 0 5.01596e-05 -2.6882e-05 0 4.87289e-05 -2.61517e-05 0 4.73619e-05 -2.5442e-05 0 4.60524e-05 -2.47524e-05 0 4.47956e-05 -2.40826e-05 0 4.35871e-05 -2.34321e-05 0 4.24233e-05 -2.28003e-05 0 4.13009e-05 -2.21867e-05 0 4.02172e-05 -2.1591e-05 0 3.91696e-05 -2.10127e-05 0 3.81561e-05 -2.04512e-05 0 3.71747e-05 -1.99063e-05 0 3.62237e-05 -1.93773e-05 0 3.53014e-05 -1.88639e-05 0 3.44065e-05 -1.83656e-05 0 3.35377e-05 -1.78821e-05 0 3.26938e-05 -1.74129e-05 0 3.18736e-05 -1.69576e-05 0 3.10763e-05 -1.65158e-05 0 3.03008e-05 -1.60871e-05 0 2.95464e-05 -1.56712e-05 0 2.88121e-05 -1.52677e-05 0 2.80973e-05 -1.48762e-05 0 2.74011e-05 -1.44964e-05 0 2.67231e-05 -1.41278e-05 0 2.60624e-05 -1.37703e-05 0 2.54185e-05 -1.34234e-05 0 2.47909e-05 -1.30868e-05 0 2.4179e-05 -1.27603e-05 0 2.35823e-05 -1.24435e-05 0 2.30003e-05 -1.21361e-05 0 2.24325e-05 -1.18379e-05 0 2.18784e-05 -1.15485e-05 0 2.13377e-05 -1.12677e-05 0 2.08099e-05 -1.09953e-05 0 2.02946e-05 -1.07309e-05 0 1.97915e-05 -1.04744e-05 0 1.93001e-05 -1.02256e-05 0 1.88201e-05 -9.98405e-06 0 1.83512e-05 -9.74972e-06 0 1.7893e-05 -9.52233e-06 0 1.74453e-05 -9.30169e-06 0 1.70076e-05 -9.0876e-06 0 1.65797e-05 -8.87985e-06 0 1.61614e-05 -8.67827e-06 0 1.57522e-05 -8.48268e-06 0 1.53521e-05 -8.29291e-06 0 1.49606e-05 -8.10877e-06 0 1.45775e-05 -7.93012e-06 0 1.42027e-05 -7.7568e-06 0 1.38358e-05 -7.58866e-06 0 1.34766e-05 -7.42554e-06 0 1.31248e-05 -7.26732e-06 0 1.27804e-05 -7.11385e-06 0 1.2443e-05 -6.96501e-06 0 1.21124e-05 -6.82067e-06 0 1.17885e-05 -6.6807e-06 0 1.1471e-05 -6.54499e-06 0 1.11597e-05 -6.41343e-06 0 1.08545e-05 -6.28591e-06 0 1.05552e-05 -6.16232e-06 0 1.02616e-05 -6.04256e-06 0 9.97349e-06 -5.92654e-06 0 9.69074e-06 -5.81415e-06 0 9.41318e-06 -5.70532e-06 0 9.14064e-06 -5.59995e-06 0 8.87296e-06 -5.49795e-06 0 8.61e-06 -5.39926e-06 0 8.35161e-06 -5.30378e-06 0 8.09762e-06 -5.21145e-06 0 7.84791e-06 -5.12219e-06 0 7.60233e-06 -5.03594e-06 0 7.36075e-06 -4.95262e-06 0 7.12302e-06 -4.87217e-06 0 6.88901e-06 -4.79454e-06 0 6.65861e-06 -4.71966e-06 0 6.43167e-06 -4.64747e-06 0 6.20808e-06 -4.57792e-06 0 5.98771e-06 -4.51096e-06 0 5.77045e-06 -4.44654e-06 0 5.55618e-06 -4.38461e-06 0 5.34477e-06 -4.32513e-06 0 5.13612e-06 -4.26804e-06 0 4.93012e-06 -4.21332e-06 0 4.72666e-06 -4.16091e-06 0 4.52562e-06 -4.11078e-06 0 4.3269e-06 -4.0629e-06 0 4.13041e-06 -4.01722e-06 0 3.93602e-06 -3.97372e-06 0 3.74365e-06 -3.93236e-06 0 3.55319e-06 -3.89312e-06 0 3.36455e-06 -3.85597e-06 0 3.17762e-06 -3.82087e-06 0 2.9923e-06 -3.78781e-06 0 2.80851e-06 -3.75676e-06 0 2.62615e-06 -3.7277e-06 0 2.44512e-06 -3.70061e-06 0 2.26533e-06 -3.67547e-06 0 2.08669e-06 -3.65226e-06 0 1.90911e-06 -3.63097e-06 0 1.73249e-06 -3.61157e-06 0 1.55676e-06 -3.59407e-06 0 1.38181e-06 -3.57844e-06 0 1.20756e-06 -3.56467e-06 0 1.03392e-06 -3.55275e-06 0 8.60802e-07 -3.54269e-06 0 6.8812e-07 -3.53446e-06 0 5.15786e-07 -3.52806e-06 0 3.43713e-07 -3.52349e-06 0 1.71813e-07 -3.52075e-06 0 0 -3.51983e-06 0 0.000106012 -2.03337e-05 0 0.000101362 -2.85136e-05 0 9.46549e-05 -3.31712e-05 0 8.82604e-05 -3.50446e-05 0 8.2842e-05 -3.55524e-05 0 7.82963e-05 -3.53775e-05 0 7.4433e-05 -3.48695e-05 0 7.10855e-05 -3.41935e-05 0 6.81327e-05 -3.34337e-05 0 6.54876e-05 -3.26348e-05 0 6.30877e-05 -3.18213e-05 0 6.08868e-05 -3.10071e-05 0 5.88508e-05 -3.02004e-05 0 5.69534e-05 -2.94059e-05 0 5.51743e-05 -2.86266e-05 0 5.34976e-05 -2.7864e-05 0 5.19105e-05 -2.71192e-05 0 5.04026e-05 -2.63927e-05 0 4.89654e-05 -2.56847e-05 0 4.75918e-05 -2.49951e-05 0 4.6276e-05 -2.4324e-05 0 4.5013e-05 -2.3671e-05 0 4.37983e-05 -2.30359e-05 0 4.26285e-05 -2.24184e-05 0 4.15002e-05 -2.18182e-05 0 4.04108e-05 -2.1235e-05 0 3.93577e-05 -2.06684e-05 0 3.83387e-05 -2.0118e-05 0 3.7352e-05 -1.95834e-05 0 3.63958e-05 -1.90643e-05 0 3.54685e-05 -1.85602e-05 0 3.45687e-05 -1.80709e-05 0 3.36951e-05 -1.75959e-05 0 3.28465e-05 -1.71348e-05 0 3.20219e-05 -1.66873e-05 0 3.12201e-05 -1.6253e-05 0 3.04404e-05 -1.58315e-05 0 2.96818e-05 -1.54225e-05 0 2.89435e-05 -1.50256e-05 0 2.82247e-05 -1.46404e-05 0 2.75248e-05 -1.42667e-05 0 2.68431e-05 -1.39041e-05 0 2.61788e-05 -1.35523e-05 0 2.55315e-05 -1.32109e-05 0 2.49006e-05 -1.28797e-05 0 2.42854e-05 -1.25583e-05 0 2.36855e-05 -1.22465e-05 0 2.31004e-05 -1.1944e-05 0 2.25296e-05 -1.16504e-05 0 2.19727e-05 -1.13656e-05 0 2.14292e-05 -1.10892e-05 0 2.08986e-05 -1.0821e-05 0 2.03807e-05 -1.05608e-05 0 1.9875e-05 -1.03083e-05 0 1.93812e-05 -1.00633e-05 0 1.88988e-05 -9.82553e-06 0 1.84276e-05 -9.59483e-06 0 1.79671e-05 -9.37098e-06 0 1.75171e-05 -9.15377e-06 0 1.70773e-05 -8.943e-06 0 1.66474e-05 -8.73849e-06 0 1.6227e-05 -8.54004e-06 0 1.5816e-05 -8.34749e-06 0 1.54139e-05 -8.16066e-06 0 1.50206e-05 -7.97939e-06 0 1.46357e-05 -7.80352e-06 0 1.42591e-05 -7.6329e-06 0 1.38905e-05 -7.46737e-06 0 1.35297e-05 -7.3068e-06 0 1.31764e-05 -7.15104e-06 0 1.28304e-05 -6.99996e-06 0 1.24915e-05 -6.85344e-06 0 1.21594e-05 -6.71135e-06 0 1.18341e-05 -6.57357e-06 0 1.15152e-05 -6.43998e-06 0 1.12026e-05 -6.31048e-06 0 1.08961e-05 -6.18495e-06 0 1.05955e-05 -6.06329e-06 0 1.03006e-05 -5.94541e-06 0 1.00113e-05 -5.8312e-06 0 9.72732e-06 -5.72058e-06 0 9.44859e-06 -5.61345e-06 0 9.17492e-06 -5.50973e-06 0 8.90614e-06 -5.40934e-06 0 8.6421e-06 -5.31219e-06 0 8.38265e-06 -5.21822e-06 0 8.12764e-06 -5.12734e-06 0 7.87693e-06 -5.03948e-06 0 7.63037e-06 -4.95459e-06 0 7.38782e-06 -4.87258e-06 0 7.14915e-06 -4.7934e-06 0 6.91423e-06 -4.71699e-06 0 6.68292e-06 -4.64329e-06 0 6.4551e-06 -4.57224e-06 0 6.23065e-06 -4.50379e-06 0 6.00943e-06 -4.43789e-06 0 5.79134e-06 -4.37449e-06 0 5.57625e-06 -4.31354e-06 0 5.36404e-06 -4.25499e-06 0 5.15461e-06 -4.19881e-06 0 4.94783e-06 -4.14495e-06 0 4.74361e-06 -4.09337e-06 0 4.54182e-06 -4.04404e-06 0 4.34237e-06 -3.99691e-06 0 4.14515e-06 -3.95196e-06 0 3.95005e-06 -3.90915e-06 0 3.75698e-06 -3.86845e-06 0 3.56582e-06 -3.82983e-06 0 3.37649e-06 -3.79326e-06 0 3.18888e-06 -3.75872e-06 0 3.0029e-06 -3.72619e-06 0 2.81845e-06 -3.69563e-06 0 2.63543e-06 -3.66703e-06 0 2.45375e-06 -3.64037e-06 0 2.27332e-06 -3.61563e-06 0 2.09405e-06 -3.59279e-06 0 1.91583e-06 -3.57184e-06 0 1.73859e-06 -3.55275e-06 0 1.56223e-06 -3.53552e-06 0 1.38667e-06 -3.52014e-06 0 1.2118e-06 -3.50659e-06 0 1.03755e-06 -3.49487e-06 0 8.63824e-07 -3.48496e-06 0 6.90536e-07 -3.47686e-06 0 5.17596e-07 -3.47057e-06 0 3.44919e-07 -3.46607e-06 0 1.72416e-07 -3.46337e-06 0 0 -3.46247e-06 0 0.000103202 -1.9471e-05 0 9.93032e-05 -2.65383e-05 0 9.3592e-05 -3.1018e-05 0 8.78389e-05 -3.31505e-05 0 8.27542e-05 -3.39441e-05 0 7.83805e-05 -3.40103e-05 0 7.46059e-05 -3.36886e-05 0 7.13051e-05 -3.31564e-05 0 6.83766e-05 -3.25088e-05 0 6.57435e-05 -3.17991e-05 0 6.33483e-05 -3.10577e-05 0 6.11481e-05 -3.03029e-05 0 5.91101e-05 -2.95459e-05 0 5.72092e-05 -2.87937e-05 0 5.54257e-05 -2.80507e-05 0 5.37439e-05 -2.73199e-05 0 5.21513e-05 -2.66031e-05 0 5.06378e-05 -2.59014e-05 0 4.91948e-05 -2.52157e-05 0 4.78154e-05 -2.45463e-05 0 4.64938e-05 -2.38935e-05 0 4.52249e-05 -2.32573e-05 0 4.40046e-05 -2.26377e-05 0 4.28291e-05 -2.20346e-05 0 4.16953e-05 -2.14479e-05 0 4.06004e-05 -2.08772e-05 0 3.95419e-05 -2.03223e-05 0 3.85178e-05 -1.97829e-05 0 3.75259e-05 -1.92588e-05 0 3.65647e-05 -1.87496e-05 0 3.56325e-05 -1.8255e-05 0 3.47279e-05 -1.77746e-05 0 3.38497e-05 -1.73081e-05 0 3.29966e-05 -1.68552e-05 0 3.21675e-05 -1.64156e-05 0 3.13615e-05 -1.59887e-05 0 3.05776e-05 -1.55744e-05 0 2.9815e-05 -1.51723e-05 0 2.90727e-05 -1.47821e-05 0 2.83501e-05 -1.44034e-05 0 2.76465e-05 -1.40359e-05 0 2.69611e-05 -1.36792e-05 0 2.62934e-05 -1.33332e-05 0 2.56427e-05 -1.29974e-05 0 2.50084e-05 -1.26715e-05 0 2.43901e-05 -1.23553e-05 0 2.37871e-05 -1.20485e-05 0 2.31989e-05 -1.17508e-05 0 2.26252e-05 -1.1462e-05 0 2.20654e-05 -1.11817e-05 0 2.15192e-05 -1.09097e-05 0 2.0986e-05 -1.06458e-05 0 2.04655e-05 -1.03898e-05 0 1.99573e-05 -1.01413e-05 0 1.9461e-05 -9.90018e-06 0 1.89762e-05 -9.66621e-06 0 1.85027e-05 -9.43919e-06 0 1.804e-05 -9.2189e-06 0 1.75879e-05 -9.00513e-06 0 1.7146e-05 -8.79771e-06 0 1.6714e-05 -8.59645e-06 0 1.62917e-05 -8.40115e-06 0 1.58787e-05 -8.21166e-06 0 1.54747e-05 -8.0278e-06 0 1.50796e-05 -7.84941e-06 0 1.4693e-05 -7.67634e-06 0 1.43147e-05 -7.50843e-06 0 1.39444e-05 -7.34553e-06 0 1.3582e-05 -7.18752e-06 0 1.32271e-05 -7.03424e-06 0 1.28796e-05 -6.88557e-06 0 1.25392e-05 -6.74138e-06 0 1.22057e-05 -6.60156e-06 0 1.18789e-05 -6.46597e-06 0 1.15587e-05 -6.33452e-06 0 1.12447e-05 -6.20708e-06 0 1.09369e-05 -6.08356e-06 0 1.0635e-05 -5.96384e-06 0 1.03389e-05 -5.84785e-06 0 1.00484e-05 -5.73547e-06 0 9.76331e-06 -5.62662e-06 0 9.48344e-06 -5.5212e-06 0 9.20866e-06 -5.41915e-06 0 8.93879e-06 -5.32037e-06 0 8.6737e-06 -5.22478e-06 0 8.41321e-06 -5.13231e-06 0 8.15719e-06 -5.04289e-06 0 7.90548e-06 -4.95645e-06 0 7.65795e-06 -4.87292e-06 0 7.41446e-06 -4.79223e-06 0 7.