<?xml version="1.0"?> 
<VTKFile type="StructuredGrid" version="0.1"> 
<StructuredGrid WholeExtent="0 31 0 31 0 0"> 
<Piece Extent="0 31 0 31 0 0"> 
<PointData>
<DataArray type="Float32" Name="B" format="ascii" NumberOfComponents="3"> 
2.09918e-05 5.08364e-05 0 2.89869e-05 3.50635e-05 0 2.79164e-05 3.00238e-05 0 2.61252e-05 2.63398e-05 0 2.45206e-05 2.35743e-05 0 2.28253e-05 2.13089e-05 0 2.1257e-05 1.94225e-05 0 1.97311e-05 1.78184e-05 0 1.83024e-05 1.64373e-05 0 1.69463e-05 1.52398e-05 0 1.56735e-05 1.41932e-05 0 1.44745e-05 1.32752e-05 0 1.33484e-05 1.24661e-05 0 1.22893e-05 1.17515e-05 0 1.12932e-05 1.11185e-05 0 1.03551e-05 1.05573e-05 0 9.47068e-06 1.00592e-05 0 8.63533e-06 9.61704e-06 0 7.8448e-06 9.22487e-06 0 7.09498e-06 8.87756e-06 0 6.38194e-06 8.57077e-06 0 5.70193e-06 8.30084e-06 0 5.05138e-06 8.06464e-06 0 4.42687e-06 7.85952e-06 0 3.82515e-06 7.68325e-06 0 3.24307e-06 7.53395e-06 0 2.67761e-06 7.41007e-06 0 2.12586e-06 7.31036e-06 0 1.58497e-06 7.23381e-06 0 1.05218e-06 7.17965e-06 0 5.24751e-07 7.14737e-06 0 0 7.13665e-06 0 2.04916e-05 3.66547e-05 0 2.18646e-05 3.41017e-05 0 2.22045e-05 3.10043e-05 0 2.17178e-05 2.80859e-05 0 2.08105e-05 2.55472e-05 0 1.97419e-05 2.33514e-05 0 1.8597e-05 2.14464e-05 0 1.74422e-05 1.97837e-05 0 1.63019e-05 1.83248e-05 0 1.51954e-05 1.70391e-05 0 1.41302e-05 1.59019e-05 0 1.31114e-05 1.48931e-05 0 1.21402e-05 1.39962e-05 0 1.12166e-05 1.31975e-05 0 1.03393e-05 1.24853e-05 0 9.5064e-06 1.18498e-05 0 8.71534e-06 1.12828e-05 0 7.9635e-06 1.07771e-05 0 7.24806e-06 1.03266e-05 0 6.56616e-06 9.92616e-06 0 5.9149e-06 9.57128e-06 0 5.29145e-06 9.25811e-06 0 4.693e-06 8.98337e-06 0 4.11681e-06 8.74424e-06 0 3.56021e-06 8.53834e-06 0 3.02059e-06 8.36367e-06 0 2.49539e-06 8.21853e-06 0 1.98212e-06 8.10157e-06 0 1.47835e-06 8.01169e-06 0 9.81647e-07 7.94808e-06 0 4.8965e-07 7.91013e-06 0 0 7.89753e-06 0 1.79701e-05 3.50826e-05 0 1.82494e-05 3.3386e-05 0 1.82887e-05 3.11628e-05 0 1.80112e-05 2.89085e-05 0 1.74793e-05 2.67436e-05 0 1.67724e-05 2.47455e-05 0 1.5966e-05 2.29308e-05 0 1.51064e-05 2.12953e-05 0 1.42269e-05 1.9826e-05 0 1.33478e-05 1.85071e-05 0 1.24828e-05 1.73235e-05 0 1.16401e-05 1.6261e-05 0 1.08249e-05 1.53069e-05 0 1.00397e-05 1.44499e-05 0 9.28592e-06 1.36802e-05 0 8.56354e-06 1.29891e-05 0 7.87194e-06 1.2369e-05 0 7.20995e-06 1.18133e-05 0 6.57607e-06 1.13162e-05 0 5.96854e-06 1.08727e-05 0 5.38547e-06 1.04783e-05 0 4.82487e-06 1.01292e-05 0 4.28467e-06 9.82221e-06 0 3.7628e-06 9.55442e-06 0 3.25718e-06 9.32341e-06 0 2.76574e-06 9.1271e-06 0 2.28639e-06 8.96377e-06 0 1.81711e-06 8.832e-06 0 1.35584e-06 8.73065e-06 0 9.00564e-07 8.65887e-06 0 4.49285e-07 8.61604e-06 0 0 8.6018e-06 0 1.54244e-05 3.5261e-05 0 1.53158e-05 3.33265e-05 0 1.51653e-05 3.14193e-05 0 1.49033e-05 2.94572e-05 0 1.45149e-05 2.75397e-05 0 1.4019e-05 2.57135e-05 0 1.34416e-05 2.40075e-05 0 1.28099e-05 2.24324e-05 0 1.21457e-05 2.09887e-05 0 1.14659e-05 1.96716e-05 0 1.0783e-05 1.84735e-05 0 1.01059e-05 1.73859e-05 0 9.44075e-06 1.63997e-05 0 8.79169e-06 1.55068e-05 0 8.16132e-06 1.4699e-05 0 7.5511e-06 1.39693e-05 0 6.96166e-06 1.3311e-05 0 6.393e-06 1.27182e-05 0 5.84466e-06 1.21857e-05 0 5.31583e-06 1.17089e-05 0 4.80546e-06 1.12835e-05 0 4.31233e-06 1.0906e-05 0 3.83507e-06 1.05731e-05 0 3.37222e-06 1.02821e-05 0 2.92227e-06 1.00306e-05 0 2.48366e-06 9.81651e-06 0 2.05478e-06 9.63817e-06 0 1.63405e-06 9.49413e-06 0 1.21983e-06 9.38325e-06 0 8.10503e-07 9.30466e-06 0 4.04436e-07 9.25775e-06 0 0 9.24215e-06 0 1.27153e-05 3.53865e-05 0 1.25207e-05 3.35958e-05 0 1.23253e-05 3.17316e-05 0 1.20919e-05 2.98991e-05 0 1.18004e-05 2.81129e-05 0 1.14465e-05 2.64018e-05 0 1.10372e-05 2.4784e-05 0 1.05833e-05 2.32703e-05 0 1.00969e-05 2.18651e-05 0 9.58891e-06 2.05678e-05 0 9.06864e-06 1.93752e-05 0 8.5436e-06 1.82824e-05 0 8.01959e-06 1.72834e-05 0 7.50097e-06 1.63722e-05 0 6.9909e-06 1.55427e-05 0 6.49156e-06 1.47891e-05 0 6.00438e-06 1.41058e-05 0 5.53015e-06 1.34878e-05 0 5.0692e-06 1.29305e-05 0 4.62148e-06 1.24296e-05 0 4.18662e-06 1.19814e-05 0 3.76405e-06 1.15825e-05 0 3.35301e-06 1.123e-05 0 2.95261e-06 1.09211e-05 0 2.56184e-06 1.06537e-05 0 2.17964e-06 1.04257e-05 0 1.80487e-06 1.02356e-05 0 1.43633e-06 1.00818e-05 0 1.07282e-06 9.96334e-06 0 7.13103e-07 9.87932e-06 0 3.55917e-07 9.82915e-06 0 0 9.81247e-06 0 9.89282e-06 3.57691e-05 0 9.73236e-06 3.3846e-05 0 9.58445e-06 3.20122e-05 0 9.42284e-06 3.02289e-05 0 9.23114e-06 2.85133e-05 0 9.00164e-06 2.68745e-05 0 8.73325e-06 2.5322e-05 0 8.42936e-06 2.38618e-05 0 8.0956e-06 2.24968e-05 0 7.73838e-06 2.12275e-05 0 7.36399e-06 2.00521e-05 0 6.97811e-06 1.89675e-05 0 6.58559e-06 1.79696e-05 0 6.19044e-06 1.7054e-05 0 5.79586e-06 1.6216e-05 0 5.40432e-06 1.54508e-05 0 5.01766e-06 1.47539e-05 0 4.63721e-06 1.41212e-05 0 4.26383e-06 1.35484e-05 0 3.89804e-06 1.3032e-05 0 3.54002e-06 1.25686e-05 0 3.18974e-06 1.2155e-05 0 2.84695e-06 1.17887e-05 0 2.51126e-06 1.14672e-05 0 2.18212e-06 1.11882e-05 0 1.8589e-06 1.09501e-05 0 1.54089e-06 1.07512e-05 0 1.22729e-06 1.05902e-05 0 9.17282e-07 1.04661e-05 0 6.09997e-07 1.0378e-05 0 3.04539e-07 1.03254e-05 0 0 1.03079e-05 0 6.96959e-06 3.59126e-05 0 6.92179e-06 3.40032e-05 0 6.87955e-06 3.21632e-05 0 6.82663e-06 3.04102e-05 0 6.75126e-06 2.87389e-05 0 6.64675e-06 2.71517e-05 0 6.51047e-06 2.56505e-05 0 6.34299e-06 2.42371e-05 0 6.14693e-06 2.29121e-05 0 5.92609e-06 2.1675e-05 0 5.68471e-06 2.05242e-05 0 5.42704e-06 1.94571e-05 0 5.15703e-06 1.84707e-05 0 4.87821e-06 1.75614e-05 0 4.59361e-06 1.67254e-05 0 4.30576e-06 1.59589e-05 0 4.01672e-06 1.52582e-05 0 3.72813e-06 1.46196e-05 0 3.44123e-06 1.40398e-05 0 3.15694e-06 1.35154e-05 0 2.87589e-06 1.30436e-05 0 2.59847e-06 1.26216e-05 0 2.32487e-06 1.22469e-05 0 2.0551e-06 1.19174e-05 0 1.78903e-06 1.16311e-05 0 1.52642e-06 1.13864e-05 0 1.26693e-06 1.11817e-05 0 1.01015e-06 1.10158e-05 0 7.55603e-07 1.08879e-05 0 5.02767e-07 1.0797e-05 0 2.51091e-07 1.07427e-05 0 0 1.07246e-05 0 3.98939e-06 3.58964e-05 0 4.10093e-06 3.39542e-05 0 4.20211e-06 3.21316e-05 0 4.28382e-06 3.0407e-05 0 4.33957e-06 2.87761e-05 0 4.36522e-06 2.72347e-05 0 4.35914e-06 2.57808e-05 0 4.32158e-06 2.44126e-05 0 4.2543e-06 2.31289e-05 0 4.15999e-06 2.19279e-05 0 4.04191e-06 2.08074e-05 0 3.90345e-06 1.97651e-05 0 3.74798e-06 1.87982e-05 0 3.57867e-06 1.79037e-05 0 3.39837e-06 1.70784e-05 0 3.20961e-06 1.63191e-05 0 3.01456e-06 1.56227e-05 0 2.81505e-06 1.49861e-05 0 2.61259e-06 1.44064e-05 0 2.40841e-06 1.38808e-05 0 2.20348e-06 1.34067e-05 0 1.99852e-06 1.29817e-05 0 1.79409e-06 1.26037e-05 0 1.59054e-06 1.22706e-05 0 1.3881e-06 1.19808e-05 0 1.18687e-06 1.17327e-05 0 9.86851e-07 1.15249e-05 0 7.87962e-07 1.13564e-05 0 5.90051e-07 1.12263e-05 0 3.92917e-07 1.11338e-05 0 1.96321e-07 1.10786e-05 0 0 1.10602e-05 0 1.0088e-06 3.55705e-05 0 1.30467e-06 3.36663e-05 0 1.56971e-06 3.18767e-05 0 1.80116e-06 3.01955e-05 0 1.99698e-06 2.86125e-05 0 2.15637e-06 2.71215e-05 0 2.2795e-06 2.57179e-05 0 2.36762e-06 2.43982e-05 0 2.42275e-06 2.31595e-05 0 2.44752e-06 2.19991e-05 0 2.4449e-06 2.09146e-05 0 2.41799e-06 1.99034e-05 0 2.36991e-06 1.89628e-05 0 2.30365e-06 1.80902e-05 0 2.22197e-06 1.72828e-05 0 2.12742e-06 1.65379e-05 0 2.02224e-06 1.58527e-05 0 1.90842e-06 1.52248e-05 0 1.78767e-06 1.46515e-05 0 1.66145e-06 1.41305e-05 0 1.53099e-06 1.36595e-05 0 1.3973e-06 1.32364e-05 0 1.26122e-06 1.28594e-05 0 1.1234e-06 1.25267e-05 0 9.84376e-07 1.22367e-05 0 8.44541e-07 1.19882e-05 0 7.04194e-07 1.17799e-05 0 5.63543e-07 1.16108e-05 0 4.2273e-07 1.14801e-05 0 2.81841e-07 1.13872e-05 0 1.40925e-07 1.13316e-05 0 0 1.13131e-05 0 -1.91002e-06 3.49565e-05 0 -1.42187e-06 3.31088e-05 0 -9.86359e-07 3.1383e-05 0 -6.00803e-07 2.9764e-05 0 -2.62853e-07 2.82429e-05 0 2.96606e-08 2.68123e-05 0 2.79149e-07 2.54667e-05 0 4.88218e-07 2.42017e-05 0 6.59747e-07 2.30137e-05 0 7.96788e-07 2.18997e-05 0 9.02509e-07 2.08568e-05 0 9.80088e-07 1.98826e-05 0 1.03264e-06 1.89744e-05 0 1.06314e-06 1.81299e-05 0 1.07438e-06 1.73466e-05 0 1.06896e-06 1.66221e-05 0 1.0492e-06 1.59542e-05 0 1.01723e-06 1.53406e-05 0 9.74919e-07 1.47791e-05 0 9.23912e-07 1.42677e-05 0 8.65649e-07 1.38045e-05 0 8.01375e-07 1.33876e-05 0 7.32159e-07 1.30155e-05 0 6.58914e-07 1.26866e-05 0 5.82415e-07 1.23997e-05 0 5.03318e-07 1.21533e-05 0 4.22176e-07 1.19467e-05 0 3.39455e-07 1.17788e-05 0 2.55554e-07 1.1649e-05 0 1.70814e-07 1.15566e-05 0 8.5538e-08 1.15014e-05 0 0 1.1483e-05 0 -4.70299e-06 3.40318e-05 0 -4.03057e-06 3.22855e-05 0 -3.43041e-06 3.06493e-05 0 -2.89557e-06 2.91139e-05 0 -2.42041e-06 2.76706e-05 0 -2.00004e-06 2.63126e-05 0 -1.63012e-06 2.50346e-05 0 -1.30659e-06 2.38322e-05 0 -1.0256e-06 2.27017e-05 0 -7.83465e-07 2.16402e-05 0 -5.76601e-07 2.06448e-05 0 -4.01582e-07 1.97131e-05 0 -2.55137e-07 1.88429e-05 0 -1.34182e-07 1.80319e-05 0 -3.58322e-08 1.7278e-05 0 4.25821e-08 1.65793e-05 0 1.0351e-07 1.59336e-05 0 1.49178e-07 1.53391e-05 0 1.81599e-07 1.4794e-05 0 2.02578e-07 1.42966e-05 0 2.13725e-07 1.38452e-05 0 2.1647e-07 1.34383e-05 0 2.12081e-07 1.30745e-05 0 2.01675e-07 1.27525e-05 0 1.86239e-07 1.24711e-05 0 1.66646e-07 1.22294e-05 0 1.43667e-07 1.20264e-05 0 1.17992e-07 1.18613e-05 0 9.02402e-08 1.17336e-05 0 6.09785e-08 1.16427e-05 0 3.07321e-08 1.15883e-05 0 0 1.15702e-05 0 -7.31533e-06 3.28324e-05 0 -6.47776e-06 3.12126e-05 0 -5.72814e-06 2.96905e-05 0 -5.0566e-06 2.82575e-05 0 -4.45497e-06 2.6907e-05 0 -3.91644e-06 2.56337e-05 0 -3.43511e-06 2.44329e-05 0 -3.00574e-06 2.33011e-05 0 -2.62363e-06 2.2235e-05 0 -2.28444e-06 2.12319e-05 0 -1.98416e-06 2.02895e-05 0 -1.71907e-06 1.94056e-05 0 -1.48569e-06 1.85782e-05 0 -1.28077e-06 1.78055e-05 0 -1.10133e-06 1.70856e-05 0 -9.44583e-07 1.64169e-05 0 -8.07984e-07 1.57978e-05 0 -6.89197e-07 1.52265e-05 0 -5.86095e-07 1.47018e-05 0 -4.96745e-07 1.4222e-05 0 -4.19397e-07 1.37858e-05 0 -3.52471e-07 1.3392e-05 0 -2.9454e-07 1.30394e-05 0 -2.44317e-07 1.27269e-05 0 -2.00642e-07 1.24535e-05 0 -1.62461e-07 1.22184e-05 0 -1.28817e-07 1.20207e-05 0 -9.88337e-08 1.18599e-05 0 -7.17001e-08 1.17354e-05 0 -4.66581e-08 1.16467e-05 0 -2.29891e-08 1.15936e-05 0 0 1.1576e-05 0 -9.70401e-06 3.13919e-05 0 -8.72854e-06 2.99224e-05 0 -7.85135e-06 2.8532e-05 0 -7.06104e-06 2.72161e-05 0 -6.34812e-06 2.59706e-05 0 -5.70456e-06 2.47918e-05 0 -5.12347e-06 2.36766e-05 0 -4.59882e-06 2.26223e-05 0 -4.12527e-06 2.16265e-05 0 -3.69802e-06 2.06872e-05 0 -3.31271e-06 1.98026e-05 0 -2.96536e-06 1.89709e-05 0 -2.65232e-06 1.81905e-05 0 -2.3702e-06 1.74601e-05 0 -2.1159e-06 1.67781e-05 0 -1.88655e-06 1.61432e-05 0 -1.67953e-06 1.55541e-05 0 -1.4924e-06 1.50096e-05 0 -1.32296e-06 1.45083e-05 0 -1.16917e-06 1.40492e-05 0 -1.02917e-06 1.36312e-05 0 -9.01258e-07 1.32532e-05 0 -7.83892e-07 1.29142e-05 0 -6.75647e-07 1.26134e-05 0 -5.75218e-07 1.235e-05 0 -4.81408e-07 1.21231e-05 0 -3.93106e-07 1.19323e-05 0 -3.09279e-07 1.17769e-05 0 -2.28958e-07 1.16565e-05 0 -1.51222e-07 1.15708e-05 0 -7.51882e-08 1.15194e-05 0 0 1.15023e-05 0 -1.18424e-05 2.97622e-05 0 -1.07597e-05 2.84539e-05 0 -9.78022e-06 2.7206e-05 0 -8.89226e-06 2.60167e-05 0 -8.0859e-06 2.48843e-05 0 -7.35267e-06 2.38071e-05 0 -6.68526e-06 2.27835e-05 0 -6.07725e-06 2.1812e-05 0 -5.523e-06 2.08912e-05 0 -5.01745e-06 2.00198e-05 0 -4.55605e-06 1.91967e-05 0 -4.13466e-06 1.84207e-05 0 -3.74953e-06 1.76907e-05 0 -3.39718e-06 1.70057e-05 0 -3.07445e-06 1.63646e-05 0 -2.77843e-06 1.57665e-05 0 -2.50641e-06 1.52103e-05 0 -2.25594e-06 1.46951e-05 0 -2.02472e-06 1.42201e-05 0 -1.81065e-06 1.37842e-05 0 -1.61181e-06 1.33866e-05 0 -1.42641e-06 1.30265e-05 0 -1.2528e-06 1.27032e-05 0 -1.08945e-06 1.24159e-05 0 -9.3496e-07 1.21641e-05 0 -7.88009e-07 1.1947e-05 0 -6.47365e-07 1.17642e-05 0 -5.11869e-07 1.16152e-05 0 -3.80422e-07 1.14997e-05 0 -2.51969e-07 1.14175e-05 0 -1.25493e-07 1.13682e-05 0 0 1.13518e-05 0 -1.37188e-05 2.79931e-05 0 -1.256e-05 2.68498e-05 0 -1.15043e-05 2.57482e-05 0 -1.05407e-05 2.46894e-05 0 -9.65983e-06 2.36739e-05 0 -8.85327e-06 2.27019e-05 0 -8.11383e-06 2.17732e-05 0 -7.43512e-06 2.08875e-05 0 -6.81147e-06 2.00446e-05 0 -6.23781e-06 1.92438e-05 0 -5.70957e-06 1.84848e-05 0 -5.2226e-06 1.77669e-05 0 -4.77312e-06 1.70897e-05 0 -4.35767e-06 1.64524e-05 0 -3.97308e-06 1.58545e-05 0 -3.61641e-06 1.52953e-05 0 -3.28497e-06 1.47742e-05 0 -2.97626e-06 1.42906e-05 0 -2.68798e-06 1.38437e-05 0 -2.41799e-06 1.34329e-05 0 -2.16431e-06 1.30576e-05 0 -1.92511e-06 1.27172e-05 0 -1.69867e-06 1.24112e-05 0 -1.48339e-06 1.21389e-05 0 -1.27779e-06 1.18999e-05 0 -1.08046e-06 1.16937e-05 0 -8.90077e-07 1.15199e-05 0 -7.05381e-07 1.13782e-05 0 -5.25169e-07 1.12683e-05 0 -3.48282e-07 1.119e-05 0 -1.73594e-07 1.11431e-05 0 0 1.11274e-05 0 -1.53358e-05 2.61339e-05 0 -1.41293e-05 2.51513e-05 0 -1.3022e-05 2.41937e-05 0 -1.20041e-05 2.32644e-05 0 -1.10671e-05 2.23656e-05 0 -1.02034e-05 2.14991e-05 0 -9.40619e-06 2.0666e-05 0 -8.66945e-06 1.98671e-05 0 -7.98777e-06 1.9103e-05 0 -7.35624e-06 1.8374e-05 0 -6.77046e-06 1.76803e-05 0 -6.22638e-06 1.70219e-05 0 -5.72032e-06 1.63987e-05 0 -5.24891e-06 1.58106e-05 0 -4.80901e-06 1.52573e-05 0 -4.39776e-06 1.47385e-05 0 -4.01248e-06 1.4254e-05 0 -3.65072e-06 1.38033e-05 0 -3.31018e-06 1.3386e-05 0 -2.98871e-06 1.30018e-05 0 -2.68432e-06 1.26502e-05 0 -2.39516e-06 1.23308e-05 0 -2.11947e-06 1.20432e-05 0 -1.85562e-06 1.1787e-05 0 -1.60206e-06 1.15619e-05 0 -1.35733e-06 1.13675e-05 0 -1.12003e-06 1.12035e-05 0 -8.88829e-07 1.10698e-05 0 -6.62455e-07 1.09659e-05 0 -4.39662e-07 1.08919e-05 0 -2.19241e-07 1.08475e-05 0 0 1.08328e-05 0 -1.67059e-05 2.42273e-05 0 -1.54763e-05 2.33957e-05 0 -1.4339e-05 2.25751e-05 0 -1.3286e-05 2.17702e-05 0 -1.231e-05 2.09845e-05 0 -1.14043e-05 2.02208e-05 0 -1.05629e-05 1.94815e-05 0 -9.78026e-06 1.87682e-05 0 -9.05148e-06 1.80823e-05 0 -8.37201e-06 1.74247e-05 0 -7.73772e-06 1.67963e-05 0 -7.1448e-06 1.61975e-05 0 -6.58976e-06 1.56287e-05 0 -6.06936e-06 1.50903e-05 0 -5.58062e-06 1.45823e-05 0 -5.12077e-06 1.41047e-05 0 -4.68721e-06 1.36575e-05 0 -4.27755e-06 1.32407e-05 0 -3.88954e-06 1.2854e-05 0 -3.52107e-06 1.24972e-05 0 -3.17016e-06 1.21702e-05 0 -2.83496e-06 1.18727e-05 0 -2.51371e-06 1.16045e-05 0 -2.20475e-06 1.13652e-05 0 -1.90652e-06 1.11547e-05 0 -1.6175e-06 1.09728e-05 0 -1.33627e-06 1.08193e-05 0 -1.06145e-06 1.06939e-05 0 -7.917e-07 1.05966e-05 0 -5.25719e-07 1.05271e-05 0 -2.62237e-07 1.04855e-05 0 0 1.04716e-05 0 -1.78487e-05 2.23083e-05 0 -1.66159e-05 2.16147e-05 0 -1.54668e-05 2.09209e-05 0 -1.43953e-05 2.02322e-05 0 -1.33951e-05 1.95533e-05 0 -1.2461e-05 1.88877e-05 0 -1.15875e-05 1.82383e-05 0 -1.07702e-05 1.76077e-05 0 -1.00045e-05 1.69976e-05 0 -9.28636e-06 1.64098e-05 0 -8.61208e-06 1.58454e-05 0 -7.97817e-06 1.53054e-05 0 -7.38138e-06 1.47905e-05 0 -6.81872e-06 1.43015e-05 0 -6.28737e-06 1.38387e-05 0 -5.7847e-06 1.34024e-05 0 -5.30827e-06 1.29929e-05 0 -4.85577e-06 1.26103e-05 0 -4.42502e-06 1.22546e-05 0 -4.01398e-06 1.19258e-05 0 -3.62072e-06 1.16239e-05 0 -3.24342e-06 1.13488e-05 0 -2.88033e-06 1.11005e-05 0 -2.52981e-06 1.08787e-05 0 -2.19026e-06 1.06834e-05 0 -1.86019e-06 1.05144e-05 0 -1.53814e-06 1.03717e-05 0 -1.22269e-06 1.0255e-05 0 -9.12477e-07 1.01644e-05 0 -6.06164e-07 1.00998e-05 0 -3.02437e-07 1.0061e-05 0 0 1.00481e-05 0 -1.8788e-05 2.04042e-05 0 -1.75672e-05 1.98336e-05 0 -1.64207e-05 1.92543e-05 0 -1.53439e-05 1.8672e-05 0 -1.43322e-05 1.80917e-05 0 -1.33811e-05 1.75175e-05 0 -1.24864e-05 1.69528e-05 0 -1.16441e-05 1.64005e-05 0 -1.08506e-05 1.58629e-05 0 -1.01022e-05 1.5342e-05 0 -9.39578e-06 1.48394e-05 0 -8.72813e-06 1.43565e-05 0 -8.09636e-06 1.38943e-05 0 -7.49773e-06 1.34537e-05 0 -6.92966e-06 1.30354e-05 0 -6.38971e-06 1.26399e-05 0 -5.87559e-06 1.22678e-05 0 -5.38511e-06 1.19192e-05 0 -4.91622e-06 1.15945e-05 0 -4.46695e-06 1.12939e-05 0 -4.03546e-06 1.10173e-05 0 -3.61995e-06 1.07649e-05 0 -3.21873e-06 1.05367e-05 0 -2.83018e-06 1.03326e-05 0 -2.45274e-06 1.01527e-05 0 -2.08488e-06 9.99698e-06 0 -1.72517e-06 9.86529e-06 0 -1.37216e-06 9.75762e-06 0 -1.02449e-06 9.67393e-06 0 -6.80798e-07 9.61418e-06 0 -3.39741e-07 9.57834e-06 0 0 9.5664e-06 0 -1.9549e-05 1.85348e-05 0 -1.83511e-05 1.80716e-05 0 -1.7218e-05 1.75937e-05 0 -1.61464e-05 1.71068e-05 0 -1.5133e-05 1.6616e-05 0 -1.41744e-05 1.61256e-05 0 -1.32673e-05 1.56392e-05 0 -1.24086e-05 1.51599e-05 0 -1.15951e-05 1.46904e-05 0 -1.0824e-05 1.42328e-05 0 -1.00923e-05 1.37891e-05 0 -9.39747e-06 1.33608e-05 0 -8.73688e-06 1.29493e-05 0 -8.10809e-06 1.25555e-05 0 -7.50876e-06 1.21805e-05 0 -6.9367e-06 1.1825e-05 0 -6.38976e-06 1.14895e-05 0 -5.86595e-06 1.11745e-05 0 -5.36331e-06 1.08804e-05 0 -4.88001e-06 1.06076e-05 0 -4.41426e-06 1.03562e-05 0 -3.96436e-06 1.01265e-05 0 -3.52868e-06 9.91841e-06 0 -3.10562e-06 9.73219e-06 0 -2.69365e-06 9.56784e-06 0 -2.2913e-06 9.42539e-06 0 -1.8971e-06 9.30486e-06 0 -1.50966e-06 9.20625e-06 0 -1.12758e-06 9.12957e-06 0 -7.49504e-07 9.0748e-06 0 -3.74088e-07 9.04194e-06 0 0 9.03099e-06 0 -2.01569e-05 1.67134e-05 0 -1.8989e-05 1.63423e-05 0 -1.78767e-05 1.59527e-05 0 -1.6818e-05 1.555e-05 0 -1.58105e-05 1.51391e-05 0 -1.48518e-05 1.47243e-05 0 -1.39395e-05 1.43092e-05 0 -1.30712e-05 1.38971e-05 0 -1.22445e-05 1.34907e-05 0 -1.14569e-05 1.30923e-05 0 -1.07061e-05 1.2704e-05 0 -9.98984e-06 1.23274e-05 0 -9.30592e-06 1.19641e-05 0 -8.65219e-06 1.16152e-05 0 -8.02661e-06 1.12818e-05 0 -7.42718e-06 1.09648e-05 0 -6.85199e-06 1.06649e-05 0 -6.29918e-06 1.03826e-05 0 -5.76695e-06 1.01186e-05 0 -5.2536e-06 9.8731e-06 0 -4.75743e-06 9.64653e-06 0 -4.27684e-06 9.43912e-06 0 -3.81024e-06 9.25107e-06 0 -3.35612e-06 9.08254e-06 0 -2.91298e-06 8.93364e-06 0 -2.47937e-06 8.80448e-06 0 -2.05387e-06 8.6951e-06 0 -1.6351e-06 8.60556e-06 0 -1.22167e-06 8.53589e-06 0 -8.12232e-07 8.48612e-06 0 -4.05453e-07 8.45625e-06 0 0 8.44629e-06 0 -2.06353e-05 1.49478e-05 0 -1.95017e-05 1.46547e-05 0 -1.8415e-05 1.43407e-05 0 -1.73742e-05 1.40112e-05 0 -1.6378e-05 1.36707e-05 0 -1.54248e-05 1.33232e-05 0 -1.45129e-05 1.29723e-05 0 -1.36405e-05 1.26213e-05 0 -1.28058e-05 1.22727e-05 0 -1.2007e-05 1.1929e-05 0 -1.12422e-05 1.15922e-05 0 -1.05095e-05 1.12641e-05 0 -9.80705e-06 1.09462e-05 0 -9.13303e-06 1.06399e-05 0 -8.48566e-06 1.03462e-05 0 -7.86318e-06 1.00661e-05 0 -7.26389e-06 9.80041e-06 0 -6.68611e-06 9.5498e-06 0 -6.12819e-06 9.31485e-06 0 -5.58854e-06 9.09601e-06 0 -5.0656e-06 8.89368e-06 0 -4.55784e-06 8.70819e-06 0 -4.06377e-06 8.53979e-06 0 -3.58192e-06 8.38868e-06 0 -3.11087e-06 8.25505e-06 0 -2.6492e-06 8.13902e-06 0 -2.19554e-06 8.0407e-06 0 -1.74851e-06 7.96015e-06 0 -1.30677e-06 7.89746e-06 0 -8.6899e-07 7.85264e-06 0 -4.33838e-07 7.82575e-06 0 0 7.81678e-06 0 -2.10062e-05 1.32418e-05 0 -1.99085e-05 1.30134e-05 0 -1.88499e-05 1.27636e-05 0 -1.78301e-05 1.24969e-05 0 -1.68487e-05 1.22176e-05 0 -1.59047e-05 1.19294e-05 0 -1.49972e-05 1.16358e-05 0 -1.41249e-05 1.13396e-05 0 -1.32865e-05 1.10436e-05 0 -1.24808e-05 1.07499e-05 0 -1.17061e-05 1.04607e-05 0 -1.09611e-05 1.01776e-05 0 -1.02442e-05 9.9023e-06 0 -9.55392e-06 9.636e-06 0 -8.88871e-06 9.37987e-06 0 -8.24705e-06 9.13491e-06 0 -7.62744e-06 8.90195e-06 0 -7.02836e-06 8.68171e-06 0 -6.44834e-06 8.4748e-06 0 -5.88592e-06 8.28173e-06 0 -5.33963e-06 8.10293e-06 0 -4.80806e-06 7.93877e-06 0 -4.2898e-06 7.78955e-06 0 -3.78346e-06 7.6555e-06 0 -3.28766e-06 7.53684e-06 0 -2.80105e-06 7.43371e-06 0 -2.32228e-06 7.34626e-06 0 -1.85003e-06 7.27459e-06 0 -1.38299e-06 7.21877e-06 0 -9.19833e-07 7.17886e-06 0 -4.59269e-07 7.1549e-06 0 0 7.14691e-06 0 -2.12891e-05 1.15955e-05 0 -2.0227e-05 1.14203e-05 0 -1.9197e-05 1.1224e-05 0 -1.81997e-05 1.10106e-05 0 -1.72349e-05 1.07841e-05 0 -1.63026e-05 1.05478e-05 0 -1.54021e-05 1.03047e-05 0 -1.45328e-05 1.00575e-05 0 -1.36939e-05 9.80885e-06 0 -1.28844e-05 9.56075e-06 0 -1.21033e-05 9.31514e-06 0 -1.13494e-05 9.07371e-06 0 -1.06215e-05 8.83794e-06 0 -9.91839e-06 8.60912e-06 0 -9.23877e-06 8.38836e-06 0 -8.58134e-06 8.17664e-06 0 -7.94477e-06 7.9748e-06 0 -7.32775e-06 7.78357e-06 0 -6.72893e-06 7.60355e-06 0 -6.14698e-06 7.43528e-06 0 -5.58057e-06 7.27922e-06 0 -5.02836e-06 7.13572e-06 0 -4.48904e-06 7.00513e-06 0 -3.96128e-06 6.88769e-06 0 -3.44379e-06 6.78363e-06 0 -2.93525e-06 6.69312e-06 0 -2.43437e-06 6.61633e-06 0 -1.93986e-06 6.55335e-06 0 -1.45045e-06 6.50427e-06 0 -9.64849e-07 6.46918e-06 0 -4.8179e-07 6.4481e-06 0 0 6.44107e-06 0 -2.1501e-05 1.00067e-05 0 -2.04728e-05 9.87446e-06 0 -1.94707e-05 9.72235e-06 0 -1.84957e-05 9.55395e-06 0 -1.75482e-05 9.37254e-06 0 -1.66286e-05 9.18112e-06 0 -1.57367e-05 8.9824e-06 0 -1.48723e-05 8.77885e-06 0 -1.4035e-05 8.57266e-06 0 -1.32242e-05 8.36582e-06 0 -1.24392e-05 8.16006e-06 0 -1.16791e-05 7.95695e-06 0 -1.09431e-05 7.75786e-06 0 -1.023e-05 7.564e-06 0 -9.53889e-06 7.37643e-06 0 -8.86866e-06 7.19608e-06 0 -8.21814e-06 7.02374e-06 0 -7.58617e-06 6.86012e-06 0 -6.97156e-06 6.70582e-06 0 -6.37309e-06 6.56135e-06 0 -5.78954e-06 6.42716e-06 0 -5.21967e-06 6.30363e-06 0 -4.66225e-06 6.19107e-06 0 -4.11603e-06 6.08975e-06 0 -3.57977e-06 5.99989e-06 0 -3.05221e-06 5.92169e-06 0 -2.53212e-06 5.85528e-06 0 -2.01824e-06 5.80079e-06 0 -1.50933e-06 5.75832e-06 0 -1.00415e-06 5.72794e-06 0 -5.01454e-07 5.70969e-06 0 0 5.7036e-06 0 -2.16567e-05 8.47116e-06 0 -2.06595e-05 8.37316e-06 0 -1.96833e-05 8.25723e-06 0 -1.87295e-05 8.12635e-06 0 -1.77988e-05 7.98333e-06 0 -1.6892e-05 7.83072e-06 0 -1.60093e-05 7.67088e-06 0 -1.51508e-05 7.50594e-06 0 -1.43165e-05 7.33784e-06 0 -1.3506e-05 7.16831e-06 0 -1.2719e-05 6.99891e-06 0 -1.19548e-05 6.83104e-06 0 -1.12128e-05 6.66592e-06 0 -1.04921e-05 6.50465e-06 0 -9.79206e-06 6.3482e-06 0 -9.11159e-06 6.1974e-06 0 -8.44976e-06 6.05301e-06 0 -7.80553e-06 5.91566e-06 0 -7.17786e-06 5.78591e-06 0 -6.56562e-06 5.66426e-06 0 -5.96771e-06 5.55111e-06 0 -5.38298e-06 5.44682e-06 0 -4.81026e-06 5.35169e-06 0 -4.24838e-06 5.26599e-06 0 -3.69615e-06 5.18993e-06 0 -3.15238e-06 5.12368e-06 0 -2.61588e-06 5.06739e-06 0 -2.08543e-06 5.02119e-06 0 -1.55983e-06 4.98517e-06 0 -1.03786e-06 4.95938e-06 0 -5.18325e-07 4.9439e-06 0 0 4.93873e-06 0 -2.17685e-05 6.98313e-06 0 -2.07987e-05 6.91213e-06 0 -1.98456e-05 6.8256e-06 0 -1.89109e-05 6.72596e-06 0 -1.79957e-05 6.61554e-06 0 -1.71009e-05 6.49646e-06 0 -1.62271e-05 6.3707e-06 0 -1.53749e-05 6.24003e-06 0 -1.45442e-05 6.10611e-06 0 -1.3735e-05 5.9704e-06 0 -1.29473e-05 5.83424e-06 0 -1.21805e-05 5.69883e-06 0 -1.14343e-05 5.56524e-06 0 -1.0708e-05 5.4344e-06 0 -1.0001e-05 5.30716e-06 0 -9.31256e-06 5.18427e-06 0 -8.64173e-06 5.06637e-06 0 -7.98766e-06 4.95404e-06 0 -7.34939e-06 4.84776e-06 0 -6.72592e-06 4.74799e-06 0 -6.11623e-06 4.65508e-06 0 -5.51924e-06 4.56935e-06 0 -4.93387e-06 4.49109e-06 0 -4.359e-06 4.42052e-06 0 -3.7935e-06 4.35785e-06 0 -3.23622e-06 4.30323e-06 0 -2.68601e-06 4.25681e-06 0 -2.14171e-06 4.21868e-06 0 -1.60214e-06 4.18894e-06 0 -1.06612e-06 4.16766e-06 0 -5.32465e-07 4.15487e-06 0 0 4.1506e-06 0 -2.18467e-05 5.53595e-06 0 -2.08999e-05 5.48603e-06 0 -1.99664e-05 5.42332e-06 0 -1.90481e-05 5.34975e-06 0 -1.81464e-05 5.26713e-06 0 -1.72623e-05 5.17717e-06 0 -1.63967e-05 5.08143e-06 0 -1.55502e-05 4.98137e-06 0 -1.47232e-05 4.8783e-06 0 -1.39159e-05 4.77342e-06 0 -1.31282e-05 4.66782e-06 0 -1.23599e-05 4.56248e-06 0 -1.16109e-05 4.45827e-06 0 -1.08805e-05 4.35598e-06 0 -1.01684e-05 4.2563e-06 0 -9.47376e-06 4.15985e-06 0 -8.79597e-06 4.06717e-06 0 -8.13419e-06 3.97874e-06 0 -7.48758e-06 3.89497e-06 0 -6.85522e-06 3.81623e-06 0 -6.23614e-06 3.74284e-06 0 -5.62936e-06 3.67507e-06 0 -5.03384e-06 3.61315e-06 0 -4.44853e-06 3.55728e-06 0 -3.87233e-06 3.50763e-06 0 -3.30415e-06 3.46434e-06 0 -2.74286e-06 3.42753e-06 0 -2.18734e-06 3.39729e-06 0 -1.63645e-06 3.37369e-06 0 -1.08903e-06 3.3568e-06 0 -5.43937e-07 3.34665e-06 0 0 3.34326e-06 0 -2.18993e-05 4.12216e-06 0 -2.09708e-05 4.08869e-06 0 -2.00531e-05 4.04543e-06 0 -1.9148e-05 3.9938e-06 0 -1.82572e-05 3.93516e-06 0 -1.73818e-05 3.87078e-06 0 -1.65231e-05 3.80183e-06 0 -1.56816e-05 3.7294e-06 0 -1.48579e-05 3.65449e-06 0 -1.40524e-05 3.578e-06 0 -1.32652e-05 3.50076e-06 0 -1.24962e-05 3.42352e-06 0 -1.17452e-05 3.34695e-06 0 -1.10121e-05 3.27164e-06 0 -1.02962e-05 3.19813e-06 0 -9.59708e-06 3.1269e-06 0 -8.91412e-06 3.05837e-06 0 -8.24658e-06 2.9929e-06 0 -7.59368e-06 2.93083e-06 0 -6.95458e-06 2.87243e-06 0 -6.32838e-06 2.81795e-06 0 -5.71413e-06 2.76761e-06 0 -5.11085e-06 2.72158e-06 0 -4.51752e-06 2.68003e-06 0 -3.93311e-06 2.64309e-06 0 -3.35654e-06 2.61087e-06 0 -2.78673e-06 2.58346e-06 0 -2.22257e-06 2.56093e-06 0 -1.66294e-06 2.54335e-06 0 -1.10673e-06 2.53077e-06 0 -5.52795e-07 2.5232e-06 0 0 2.52068e-06 0 -2.19325e-05 2.73381e-06 0 -2.10173e-05 2.71337e-06 0 -2.0111e-05 2.68631e-06 0 -1.92156e-05 2.65358e-06 0 -1.83329e-05 2.61606e-06 0 -1.74641e-05 2.57461e-06 0 -1.66104e-05 2.53e-06 0 -1.57727e-05 2.48297e-06 0 -1.49517e-05 2.43417e-06 0 -1.41477e-05 2.38422e-06 0 -1.3361e-05 2.33367e-06 0 -1.25917e-05 2.28302e-06 0 -1.18396e-05 2.23273e-06 0 -1.11046e-05 2.18321e-06 0 -1.03862e-05 2.13481e-06 0 -9.68404e-06 2.08786e-06 0 -8.99752e-06 2.04264e-06 0 -8.32599e-06 1.99941e-06 0 -7.66872e-06 1.95839e-06 0 -7.0249e-06 1.91978e-06 0 -6.39369e-06 1.88373e-06 0 -5.77419e-06 1.85041e-06 0 -5.16544e-06 1.81992e-06 0 -4.56646e-06 1.7924e-06 0 -3.97624e-06 1.76791e-06 0 -3.39373e-06 1.74655e-06 0 -2.81787e-06 1.72837e-06 0 -2.24758e-06 1.71344e-06 0 -1.68176e-06 1.70178e-06 0 -1.1193e-06 1.69343e-06 0 -5.59088e-07 1.68841e-06 0 0 1.68673e-06 0 -2.19508e-05 1.3626e-06 0 -2.10436e-05 1.35294e-06 0 -2.01442e-05 1.33994e-06 0 -1.92548e-05 1.32407e-06 0 -1.83769e-05 1.30579e-06 0 -1.75121e-05 1.2855e-06 0 -1.66617e-05 1.26361e-06 0 -1.58264e-05 1.24046e-06 0 -1.5007e-05 1.21641e-06 0 -1.4204e-05 1.19175e-06 0 -1.34177e-05 1.16676e-06 0 -1.26483e-05 1.14169e-06 0 -1.18956e-05 1.11678e-06 0 -1.11595e-05 1.09222e-06 0 -1.04397e-05 1.0682e-06 0 -9.73576e-06 1.04489e-06 0 -9.04717e-06 1.02242e-06 0 -8.37329e-06 1.00094e-06 0 -7.71343e-06 9.80536e-07 0 -7.06683e-06 9.61324e-07 0 -6.43265e-06 9.43385e-07 0 -5.81002e-06 9.26794e-07 0 -5.19802e-06 9.11615e-07 0 -4.59568e-06 8.97904e-07 0 -4.00199e-06 8.85706e-07 0 -3.41594e-06 8.75062e-07 0 -2.83648e-06 8.66003e-07 0 -2.26252e-06 8.58557e-07 0 -1.693e-06 8.52745e-07 0 -1.12681e-06 8.48582e-07 0 -5.62849e-07 8.4608e-07 0 0 8.45246e-07 0 -2.19566e-05 -0 0 -2.10521e-05 -0 0 -2.0155e-05 -0 0 -1.92676e-05 -0 0 -1.83914e-05 -0 0 -1.7528e-05 -0 0 -1.66785e-05 -0 0 -1.5844e-05 -0 0 -1.50252e-05 -0 0 -1.42226e-05 -0 0 -1.34365e-05 -0 0 -1.2667e-05 -0 0 -1.19141e-05 -0 0 -1.11777e-05 -0 0 -1.04574e-05 -0 0 -9.75293e-06 -0 0 -9.06364e-06 -0 0 -8.38899e-06 -0 0 -7.72828e-06 -0 0 -7.08075e-06 -0 0 -6.4456e-06 -0 0 -5.82194e-06 -0 0 -5.20885e-06 -0 0 -4.60539e-06 -0 0 -4.01056e-06 -0 0 -3.42333e-06 -0 0 -2.84266e-06 -0 0 -2.26749e-06 -0 0 -1.69674e-06 -0 0 -1.12931e-06 -0 0 -5.641e-07 -0 0 0 -0 0 </DataArray> 
</PointData> 
<Points> 
<DataArray type="Float32" NumberOfComponents="3"> 