<?xml version="1.0"?> 
<VTKFile type="StructuredGrid" version="0.1"> 
<StructuredGrid WholeExtent="0 31 0 31 0 0"> 
<Piece Extent="0 31 0 31 0 0"> 
<PointData>
<DataArray type="Float32" Name="B" format="ascii" NumberOfComponents="3"> 
2.89642e-05 -4.77656e-05 0 2.64249e-05 -3.26616e-05 0 2.51001e-05 -2.76321e-05 0 2.38739e-05 -2.37985e-05 0 2.2226e-05 -2.08496e-05 0 2.0792e-05 -1.83837e-05 0 1.92985e-05 -1.62937e-05 0 1.79291e-05 -1.44889e-05 0 1.6601e-05 -1.29129e-05 0 1.53635e-05 -1.15289e-05 0 1.41909e-05 -1.03047e-05 0 1.30934e-05 -9.21901e-06 0 1.2061e-05 -8.25215e-06 0 1.10929e-05 -7.38982e-06 0 1.01833e-05 -6.61914e-06 0 9.32855e-06 -5.92999e-06 0 8.52399e-06 -5.31349e-06 0 7.76556e-06 -4.76232e-06 0 7.04909e-06 -4.27013e-06 0 6.37072e-06 -3.83156e-06 0 5.72669e-06 -3.44199e-06 0 5.11347e-06 -3.09747e-06 0 4.52766e-06 -2.79462e-06 0 3.96605e-06 -2.53055e-06 0 3.42558e-06 -2.30281e-06 0 2.90329e-06 -2.10932e-06 0 2.39639e-06 -1.94835e-06 0 1.90214e-06 -1.8185e-06 0 1.41792e-06 -1.71864e-06 0 9.41162e-07 -1.64791e-06 0 4.69349e-07 -1.60571e-06 0 0 -1.59168e-06 0 3.59325e-05 -4.04337e-05 0 2.98137e-05 -3.20534e-05 0 2.74139e-05 -2.67068e-05 0 2.54429e-05 -2.29681e-05 0 2.36075e-05 -2.00206e-05 0 2.18881e-05 -1.7597e-05 0 2.02707e-05 -1.55462e-05 0 1.87533e-05 -1.37827e-05 0 1.73319e-05 -1.22495e-05 0 1.60018e-05 -1.09055e-05 0 1.47583e-05 -9.72089e-06 0 1.35959e-05 -8.67175e-06 0 1.25092e-05 -7.73964e-06 0 1.14925e-05 -6.90931e-06 0 1.05405e-05 -6.1684e-06 0 9.64783e-06 -5.50652e-06 0 8.80946e-06 -4.91504e-06 0 8.02055e-06 -4.38664e-06 0 7.27651e-06 -3.91513e-06 0 6.57302e-06 -3.49522e-06 0 5.90599e-06 -3.12241e-06 0 5.27156e-06 -2.79285e-06 0 4.66609e-06 -2.50325e-06 0 4.08613e-06 -2.25081e-06 0 3.52842e-06 -2.03314e-06 0 2.98983e-06 -1.84825e-06 0 2.46738e-06 -1.69446e-06 0 1.95822e-06 -1.57041e-06 0 1.45956e-06 -1.47502e-06 0 9.68729e-07 -1.40746e-06 0 4.83074e-07 -1.36716e-06 0 0 -1.35376e-06 0 3.85182e-05 -3.57962e-05 0 3.28057e-05 -3.02241e-05 0 2.95335e-05 -2.55013e-05 0 2.70516e-05 -2.19241e-05 0 2.4919e-05 -1.90708e-05 0 2.29815e-05 -1.6717e-05 0 2.12052e-05 -1.47273e-05 0 1.95603e-05 -1.30199e-05 0 1.80362e-05 -1.15385e-05 0 1.66203e-05 -1.02429e-05 0 1.53044e-05 -9.10306e-06 0 1.408e-05 -8.09549e-06 0 1.29396e-05 -7.20166e-06 0 1.1876e-05 -6.40657e-06 0 1.08828e-05 -5.69791e-06 0 9.95355e-06 -5.0655e-06 0 9.08255e-06 -4.50084e-06 0 8.26432e-06 -3.99677e-06 0 7.4938e-06 -3.54725e-06 0 6.76621e-06 -3.14713e-06 0 6.07714e-06 -2.79204e-06 0 5.42242e-06 -2.47826e-06 0 4.79815e-06 -2.20261e-06 0 4.20066e-06 -1.96238e-06 0 3.62648e-06 -1.75529e-06 0 3.07232e-06 -1.57941e-06 0 2.53506e-06 -1.43314e-06 0 2.01167e-06 -1.31516e-06 0 1.49925e-06 -1.22445e-06 0 9.95001e-07 -1.16021e-06 0 4.96154e-07 -1.12188e-06 0 0 -1.10914e-06 0 4.06557e-05 -3.22998e-05 0 3.52215e-05 -2.80486e-05 0 3.14636e-05 -2.40115e-05 0 2.8593e-05 -2.07031e-05 0 2.61766e-05 -1.7999e-05 0 2.40385e-05 -1.57468e-05 0 2.21053e-05 -1.38387e-05 0 2.0338e-05 -1.22009e-05 0 1.87131e-05 -1.07813e-05 0 1.7214e-05 -9.54154e-06 0 1.58277e-05 -8.45231e-06 0 1.45431e-05 -7.49088e-06 0 1.33508e-05 -6.63908e-06 0 1.2242e-05 -5.88226e-06 0 1.12091e-05 -5.2084e-06 0 1.02447e-05 -4.60758e-06 0 9.34245e-06 -4.07152e-06 0 8.49618e-06 -3.59329e-06 0 7.70035e-06 -3.16703e-06 0 6.94979e-06 -2.78779e-06 0 6.23971e-06 -2.45136e-06 0 5.56567e-06 -2.15415e-06 0 4.92352e-06 -1.89312e-06 0 4.30936e-06 -1.66568e-06 0 3.71954e-06 -1.46965e-06 0 3.15061e-06 -1.30318e-06 0 2.59926e-06 -1.16475e-06 0 2.06237e-06 -1.05311e-06 0 1.5369e-06 -9.67268e-07 0 1.01992e-06 -9.06481e-07 0 5.08562e-07 -8.70218e-07 0 0 -8.58165e-07 0 4.24131e-05 -2.92842e-05 0 3.71945e-05 -2.57741e-05 0 3.31895e-05 -2.23261e-05 0 3.00249e-05 -1.93323e-05 0 2.7368e-05 -1.68152e-05 0 2.50444e-05 -1.46916e-05 0 2.29648e-05 -1.2883e-05 0 2.108e-05 -1.13277e-05 0 1.93588e-05 -9.97947e-06 0 1.77795e-05 -8.80266e-06 0 1.63255e-05 -7.76973e-06 0 1.49832e-05 -6.85894e-06 0 1.37411e-05 -6.05282e-06 0 1.25891e-05 -5.33726e-06 0 1.15182e-05 -4.70068e-06 0 1.05204e-05 -4.1335e-06 0 9.58836e-06 -3.62778e-06 0 8.71545e-06 -3.17684e-06 0 7.89559e-06 -2.77509e-06 0 7.12325e-06 -2.41777e-06 0 6.39328e-06 -2.10088e-06 0 5.70096e-06 -1.821e-06 0 5.04189e-06 -1.57524e-06 0 4.41198e-06 -1.36114e-06 0 3.80739e-06 -1.17662e-06 0 3.22449e-06 -1.01994e-06 0 2.65986e-06 -8.89663e-07 0 2.11023e-06 -7.84604e-07 0 1.57243e-06 -7.03829e-07 0 1.04344e-06 -6.46629e-07 0 5.2027e-07 -6.12506e-07 0 0 -6.01165e-07 0 4.39262e-05 -2.64363e-05 0 3.88448e-05 -2.34797e-05 0 3.47105e-05 -2.05149e-05 0 3.13336e-05 -1.78414e-05 0 2.84785e-05 -1.55332e-05 0 2.599e-05 -1.35582e-05 0 2.37761e-05 -1.18643e-05 0 2.17813e-05 -1.04031e-05 0 1.99691e-05 -9.13495e-06 0 1.83138e-05 -8.02796e-06 0 1.67955e-05 -7.05674e-06 0 1.53983e-05 -6.20091e-06 0 1.41089e-05 -5.44399e-06 0 1.29159e-05 -4.77258e-06 0 1.18091e-05 -4.17564e-06 0 1.07797e-05 -3.6441e-06 0 9.8195e-06 -3.17036e-06 0 8.92145e-06 -2.74812e-06 0 8.07898e-06 -2.37205e-06 0 7.28612e-06 -2.03766e-06 0 6.53744e-06 -1.74116e-06 0 5.82794e-06 -1.47934e-06 0 5.15298e-06 -1.24946e-06 0 4.50827e-06 -1.04921e-06 0 3.88981e-06 -8.76637e-07 0 3.29381e-06 -7.30114e-07 0 2.71672e-06 -6.08282e-07 0 2.15512e-06 -5.10036e-07 0 1.60577e-06 -4.34502e-07 0 1.0655e-06 -3.81013e-07 0 5.31254e-07 -3.49104e-07 0 0 -3.38499e-07 0 4.52303e-05 -2.3719e-05 0 4.02475e-05 -2.11822e-05 0 3.60427e-05 -1.86242e-05 0 3.25141e-05 -1.6257e-05 0 2.9499e-05 -1.41675e-05 0 2.68678e-05 -1.23546e-05 0 2.45331e-05 -1.07876e-05 0 2.24372e-05 -9.43043e-06 0 2.05404e-05 -8.25029e-06 0 1.88139e-05 -7.21944e-06 0 1.72352e-05 -6.31499e-06 0 1.57865e-05 -5.51823e-06 0 1.44527e-05 -4.81385e-06 0 1.32212e-05 -4.18932e-06 0 1.20807e-05 -3.63431e-06 0 1.10216e-05 -3.14027e-06 0 1.00351e-05 -2.7001e-06 0 9.11358e-06 -2.30787e-06 0 8.24996e-06 -1.9586e-06 0 7.43796e-06 -1.64809e-06 0 6.67182e-06 -1.37279e-06 0 5.94629e-06 -1.1297e-06 0 5.25651e-06 -9.16275e-07 0 4.59802e-06 -7.30363e-07 0 3.96662e-06 -5.70151e-07 0 3.35841e-06 -4.3412e-07 0 2.7697e-06 -3.2101e-07 0 2.19696e-06 -2.29797e-07 0 1.63683e-06 -1.59668e-07 0 1.08606e-06 -1.10007e-07 0 5.4149e-07 -8.03803e-08 0 0 -7.05339e-08 0 4.63593e-05 -2.10697e-05 0 4.14496e-05 -1.88909e-05 0 3.72049e-05 -1.66815e-05 0 3.35674e-05 -1.46012e-05 0 3.04248e-05 -1.27319e-05 0 2.76723e-05 -1.10895e-05 0 2.52308e-05 -9.65858e-06 0 2.30436e-05 -8.41362e-06 0 2.10693e-05 -7.32845e-06 0 1.92771e-05 -6.37944e-06 0 1.76425e-05 -5.54642e-06 0 1.6146e-05 -4.81253e-06 0 1.4771e-05 -4.16381e-06 0 1.35037e-05 -3.58873e-06 0 1.2332e-05 -3.07776e-06 0 1.12454e-05 -2.623e-06 0 1.02346e-05 -2.21788e-06 0 9.29125e-06 -1.85691e-06 0 8.40806e-06 -1.53549e-06 0 7.57834e-06 -1.24973e-06 0 6.79606e-06 -9.96378e-07 0 6.05571e-06 -7.72656e-07 0 5.35224e-06 -5.76224e-07 0 4.68099e-06 -4.05103e-07 0 4.03764e-06 -2.57628e-07 0 3.41815e-06 -1.32402e-07 0 2.81869e-06 -2.82699e-08 0 2.23565e-06 5.57082e-08 0 1.66556e-06 1.20278e-07 0 1.10508e-06 1.66004e-07 0 5.50956e-07 1.93284e-07 0 0 2.0235e-07 0 4.7335e-05 -1.84794e-05 0 4.24819e-05 -1.66065e-05 0 3.82139e-05 -1.47041e-05 0 3.44974e-05 -1.28909e-05 0 3.12537e-05 -1.12389e-05 0 2.83996e-05 -9.77134e-06 0 2.58654e-05 -8.48306e-06 0 2.3597e-05 -7.35696e-06 0 2.15529e-05 -6.37265e-06 0 1.9701e-05 -5.51052e-06 0 1.80154e-05 -4.75314e-06 0 1.64751e-05 -4.0856e-06 0 1.50624e-05 -3.49541e-06 0 1.37624e-05 -2.97216e-06 0 1.25621e-05 -2.5072e-06 0 1.14503e-05 -2.09336e-06 0 1.04171e-05 -1.72465e-06 0 9.4539e-06 -1.39608e-06 0 8.55281e-06 -1.10347e-06 0 7.70689e-06 -8.4329e-07 0 6.90983e-06 -6.12569e-07 0 6.15592e-06 -4.08798e-07 0 5.43991e-06 -2.29853e-07 0 4.757e-06 -7.39397e-08 0 4.10271e-06 6.04516e-08 0 3.47288e-06 1.74584e-07 0 2.86358e-06 2.69504e-07 0 2.2711e-06 3.46061e-07 0 1.69188e-06 4.0493e-07 0 1.1225e-06 4.46623e-07 0 5.59631e-07 4.71497e-07 0 0 4.79764e-07 0 4.81733e-05 -1.5929e-05 0 4.33656e-05 -1.433e-05 0 3.90839e-05 -1.27028e-05 0 3.53091e-05 -1.11391e-05 0 3.19856e-05 -9.69916e-06 0 2.90474e-05 -8.40805e-06 0 2.64338e-05 -7.26694e-06 0 2.40945e-05 -6.26486e-06 0 2.19886e-05 -5.38637e-06 0 2.00834e-05 -4.61549e-06 0 1.83521e-05 -3.93746e-06 0 1.67724e-05 -3.33939e-06 0 1.53258e-05 -2.81032e-06 0 1.39962e-05 -2.34105e-06 0 1.27701e-05 -1.92389e-06 0 1.16355e-05 -1.55245e-06 0 1.05822e-05 -1.2214e-06 0 9.60104e-06 -9.26283e-07 0 8.68378e-06 -6.6336e-07 0 7.82323e-06 -4.29494e-07 0 7.01283e-06 -2.22034e-07 0 6.24666e-06 -3.87434e-08 0 5.51932e-06 1.22268e-07 0 4.82586e-06 2.62598e-07 0 4.16167e-06 3.8359e-07 0 3.52248e-06 4.86368e-07 0 2.90427e-06 5.71863e-07 0 2.30324e-06 6.40831e-07 0 1.71575e-06 6.93873e-07 0 1.1383e-06 7.31442e-07 0 5.67498e-07 7.53857e-07 0 0 7.61308e-07 0 4.88879e-05 -1.34126e-05 0 4.41163e-05 -1.20606e-05 0 3.98261e-05 -1.06848e-05 0 3.60078e-05 -9.35536e-06 0 3.26214e-05 -8.12158e-06 0 2.96143e-05 -7.00698e-06 0 2.6934e-05 -6.01595e-06 0 2.45338e-05 -5.14187e-06 0 2.23743e-05 -4.37323e-06 0 2.04225e-05 -3.69729e-06 0 1.8651e-05 -3.10183e-06 0 1.70366e-05 -2.57598e-06 0 1.55598e-05 -2.11033e-06 0 1.42041e-05 -1.69695e-06 0 1.29552e-05 -1.32918e-06 0 1.18005e-05 -1.00147e-06 0 1.07294e-05 -7.0919e-07 0 9.7322e-06 -4.48449e-07 0 8.8006e-06 -2.16e-07 0 7.92704e-06 -9.10644e-09 0 7.10478e-06 1.74535e-07 0 6.32771e-06 3.36873e-07 0 5.59028e-06 4.79553e-07 0 4.8874e-06 6.03964e-07 0 4.21438e-06 7.11277e-07 0 3.56684e-06 8.02469e-07 0 2.94067e-06 8.7835e-07 0 2.33199e-06 9.3958e-07 0 1.73711e-06 9.8668e-07 0 1.15244e-06 1.02005e-06 0 5.74539e-07 1.03996e-06 0 0 1.04657e-06 0 4.94888e-05 -1.09215e-05 0 4.47455e-05 -9.79716e-06 0 4.04496e-05 -8.65452e-06 0 3.65982e-05 -7.54707e-06 0 3.31624e-05 -6.51371e-06 0 3.00997e-05 -5.57474e-06 0 2.73643e-05 -4.73561e-06 0 2.49132e-05 -3.99248e-06 0 2.27083e-05 -3.33693e-06 0 2.07167e-05 -2.759e-06 0 1.89106e-05 -2.24885e-06 0 1.72664e-05 -1.79755e-06 0 1.57637e-05 -1.3973e-06 0 1.43855e-05 -1.04147e-06 0 1.31167e-05 -7.24479e-07 0 1.19446e-05 -4.41661e-07 0 1.0858e-05 -1.8911e-07 0 9.84701e-06 3.64432e-08 0 8.90293e-06 2.37739e-07 0 8.01805e-06 4.17084e-07 0 7.18544e-06 5.76422e-07 0 6.39885e-06 7.17398e-07 0 5.6526e-06 8.41399e-07 0 4.9415e-06 9.496e-07 0 4.26074e-06 1.04299e-06 0 3.60586e-06 1.12239e-06 0 2.9727e-06 1.1885e-06 0 2.35731e-06 1.24186e-06 0 1.75591e-06 1.28292e-06 0 1.16489e-06 1.31201e-06 0 5.8074e-07 1.32938e-06 0 0 1.33515e-06 0 4.99847e-05 -8.45049e-06 0 4.5262e-05 -7.53834e-06 0 4.09613e-05 -6.615e-06 0 3.70844e-05 -5.71977e-06 0 3.36101e-05 -4.88185e-06 0 3.05033e-05 -4.1173e-06 0 2.77237e-05 -3.43116e-06 0 2.52312e-05 -2.82117e-06 0 2.2989e-05 -2.28124e-06 0 2.09646e-05 -1.80379e-06 0 1.91299e-05 -1.38119e-06 0 1.74608e-05 -1.00639e-06 0 1.59366e-05 -6.7319e-07 0 1.45395e-05 -3.76302e-07 0 1.32542e-05 -1.11255e-07 0 1.20674e-05 1.25702e-07 0 1.09678e-05 3.37706e-07 0 9.9451e-06 5.27388e-07 0 8.99048e-06 6.96956e-07 0 8.09601e-06 8.48268e-07 0 7.25462e-06 9.82894e-07 0 6.45993e-06 1.10216e-06 0 5.70616e-06 1.20719e-06 0 4.98801e-06 1.29893e-06 0 4.30062e-06 1.37819e-06 0 3.63947e-06 1.44564e-06 0 3.0003e-06 1.50183e-06 0 2.37912e-06 1.54721e-06 0 1.77212e-06 1.58214e-06 0 1.17563e-06 1.60691e-06 0 5.86088e-07 1.62169e-06 0 0 1.6266e-06 0 5.03817e-05 -5.99344e-06 0 4.56722e-05 -5.28236e-06 0 4.13664e-05 -4.56814e-06 0 3.74695e-05 -3.87779e-06 0 3.39657e-05 -3.23137e-06 0 3.08252e-05 -2.64008e-06 0 2.80114e-05 -2.10757e-06 0 2.54867e-05 -1.63231e-06 0 2.32153e-05 -1.20992e-06 0 2.11652e-05 -8.34894e-07 0 1.93079e-05 -5.01607e-07 0 1.76192e-05 -2.04849e-07 0 1.60778e-05 5.99733e-08 0 1.46656e-05 2.96804e-07 0 1.3367e-05 5.08976e-07 0 1.21685e-05 6.99289e-07 0 1.10584e-05 8.70092e-07 0 1.00262e-05 1.02335e-06 0 9.06301e-06 1.16073e-06 0 8.16072e-06 1.28362e-06 0 7.31213e-06 1.3932e-06 0 6.51079e-06 1.49048e-06 0 5.75081e-06 1.5763e-06 0 5.02685e-06 1.65139e-06 0 4.33396e-06 1.71635e-06 0 3.66758e-06 1.7717e-06 0 3.0234e-06 1.81785e-06 0 2.3974e-06 1.85517e-06 0 1.78571e-06 1.88391e-06 0 1.18464e-06 1.9043e-06 0 5.90573e-07 1.91647e-06 0 0 1.92052e-06 0 5.06847e-05 -3.5451e-06 0 4.59807e-05 -3.02714e-06 0 4.16686e-05 -2.51512e-06 0 3.7756e-05 -2.02461e-06 0 3.42304e-05 -1.5669e-06 0 3.10654e-05 -1.14802e-06 0 2.82269e-05 -7.69602e-07 0 2.56789e-05 -4.30206e-07 0 2.33865e-05 -1.26763e-07 0 2.13176e-05 1.4443e-07 0 1.94439e-05 3.87095e-07 0 1.77407e-05 6.04655e-07 0 1.61867e-05 8.00118e-07 0 1.47633e-05 9.7606e-07 0 1.34549e-05 1.13466e-06 0 1.22476e-05 1.27774e-06 0 1.11294e-05 1.40685e-06 0 1.00901e-05 1.52328e-06 0 9.12034e-06 1.62812e-06 0 8.21202e-06 1.72229e-06 0 7.35786e-06 1.80658e-06 0 6.55131e-06 1.88165e-06 0 5.78647e-06 1.94809e-06 0 5.05792e-06 2.00637e-06 0 4.36068e-06 2.05691e-06 0 3.69014e-06 2.10005e-06 0 3.04197e-06 2.13609e-06 0 2.4121e-06 2.16527e-06 0 1.79665e-06 2.18777e-06 0 1.19189e-06 2.20374e-06 0 5.94187e-07 2.21328e-06 0 0 2.21645e-06 0 5.0897e-05 -1.09995e-06 0 4.61907e-05 -7.70428e-07 0 4.18705e-05 -4.56581e-07 0 3.79454e-05 -1.63091e-07 0 3.44048e-05 1.07396e-07 0 3.12238e-05 3.54217e-07 0 2.83698e-05 5.78164e-07 0 2.58073e-05 7.80902e-07 0 2.35018e-05 9.64456e-07 0 2.14213e-05 1.13088e-06 0 1.95374e-05 1.28206e-06 0 1.78251e-05 1.41967e-06 0 1.6263e-05 1.54513e-06 0 1.48324e-05 1.65964e-06 0 1.35175e-05 1.76421e-06 0 1.23043e-05 1.85969e-06 0 1.11809e-05 1.94678e-06 0 1.01366e-05 2.0261e-06 0 9.16234e-06 2.09817e-06 0 8.2498e-06 2.16343e-06 0 7.39169e-06 2.22225e-06 0 6.58143e-06 2.27499e-06 0 5.81307e-06 2.32191e-06 0 5.08118e-06 2.36328e-06 0 4.38074e-06 2.39931e-06 0 3.70711e-06 2.43018e-06 0 3.05597e-06 2.45604e-06 0 2.4232e-06 2.47703e-06 0 1.80492e-06 2.49325e-06 0 1.19738e-06 2.50478e-06 0 5.96923e-07 2.51168e-06 0 0 2.51397e-06 0 5.10202e-05 1.34745e-06 0 4.63036e-05 1.49024e-06 0 4.19731e-05 1.6071e-06 0 3.80384e-05 1.70423e-06 0 3.44891e-05 1.78765e-06 0 3.13005e-05 1.8622e-06 0 2.84398e-05 1.93124e-06 0 2.58716e-05 1.99681e-06 0 2.3561e-05 2.05996e-06 0 2.1476e-05 2.12113e-06 0 1.9588e-05 2.18042e-06 0 1.7872e-05 2.23772e-06 0 1.63064e-05 2.29288e-06 0 1.48727e-05 2.34571e-06 0 1.35547e-05 2.39604e-06 0 1.23387e-05 2.44372e-06 0 1.12125e-05 2.48865e-06 0 1.01657e-05 2.53074e-06 0 9.18892e-06 2.56992e-06 0 8.27399e-06 2.60617e-06 0 7.41357e-06 2.63946e-06 0 6.60109e-06 2.66977e-06 0 5.83057e-06 2.69713e-06 0 5.09658e-06 2.72153e-06 0 4.39409e-06 2.743e-06 0 3.71848e-06 2.76156e-06 0 3.06537e-06 2.77721e-06 0 2.43069e-06 2.78999e-06 0 1.81051e-06 2.79991e-06 0 1.20109e-06 2.80699e-06 0 5.98777e-07 2.81123e-06 0 0 2.81264e-06 0 5.10545e-05 3.80271e-06 0 4.63193e-05 3.75742e-06 0 4.19762e-05 3.67571e-06 0 3.80346e-05 3.57494e-06 0 3.44829e-05 3.47007e-06 0 3.12951e-05 3.37152e-06 0 2.84368e-05 3.28516e-06 0 2.58715e-05 3.2133e-06 0 2.35639e-05 3.15594e-06 0 2.14816e-05 3.11185e-06 0 1.95957e-05 3.07926e-06 0 1.78814e-05 3.05631e-06 0 1.6317e-05 3.04121e-06 0 1.4884e-05 3.0324e-06 0 1.35665e-05 3.02852e-06 0 1.23507e-05 3.02845e-06 0 1.12244e-05 3.03123e-06 0 1.01773e-05 3.0361e-06 0 9.20006e-06 3.04241e-06 0 8.28456e-06 3.04965e-06 0 7.42349e-06 3.0574e-06 0 6.61027e-06 3.0653e-06 0 5.83895e-06 3.07308e-06 0 5.10411e-06 3.08052e-06 0 4.40074e-06 3.08743e-06 0 3.72421e-06 3.09366e-06 0 3.07018e-06 3.0991e-06 0 2.43455e-06 3.10367e-06 0 1.81342e-06 3.10728e-06 0 1.20303e-06 3.1099e-06 0 5.99748e-07 3.11148e-06 0 0 3.11202e-06 0 5.09987e-05 6.27152e-06 0 4.62364e-05 6.03378e-06 0 4.18783e-05 5.749e-06 0 3.79329e-05 5.44656e-06 0 3.43857e-05 5.1508e-06 0 3.12072e-05 4.87771e-06 0 2.83605e-05 4.6354e-06 0 2.58072e-05 4.42613e-06 0 2.35106e-05 4.24859e-06 0 2.14381e-05 4.09969e-06 0 1.95606e-05 3.97571e-06 0 1.78533e-05 3.87293e-06 0 1.62948e-05 3.78797e-06 0 1.48666e-05 3.71786e-06 0 1.3553e-05 3.66006e-06 0 1.23402e-05 3.61246e-06 0 1.12165e-05 3.57329e-06 0 1.01714e-05 3.5411e-06 0 9.19579e-06 3.51467e-06 0 8.28156e-06 3.49301e-06 0 7.42146e-06 3.4753e-06 0 6.60898e-06 3.46086e-06 0 5.83822e-06 3.44912e-06 0 5.10378e-06 3.43964e-06 0 4.40069e-06 3.43202e-06 0 3.72434e-06 3.42596e-06 0 3.0704e-06 3.42121e-06 0 2.43479e-06 3.41758e-06 0 1.81364e-06 3.4149e-06 0 1.2032e-06 3.41307e-06 0 5.99837e-07 3.41201e-06 0 0 3.41165e-06 0 5.08499e-05 8.75989e-06 0 4.60517e-05 8.32197e-06 0 4.16767e-05 7.82654e-06 0 3.77312e-05 7.31629e-06 0 3.4196e-05 6.82565e-06 0 3.10364e-05 6.37605e-06 0 2.8211e-05 5.97729e-06 0 2.56787e-05 5.63099e-06 0 2.34015e-05 5.33407e-06 0 2.13459e-05 5.0813e-06 0 1.94831e-05 4.86686e-06 0 1.77882e-05 4.68512e-06 0 1.624e-05 4.53104e-06 0 1.48206e-05 4.40025e-06 0 1.35142e-05 4.28906e-06 0 1.23076e-05 4.19438e-06 0 1.1189e-05 4.11362e-06 0 1.01482e-05 4.04467e-06 0 9.17621e-06 3.98574e-06 0 8.26504e-06 3.93539e-06 0 7.40754e-06 3.89239e-06 0 6.59728e-06 3.85574e-06 0 5.82843e-06 3.8246e-06 0 5.09563e-06 3.79829e-06 0 4.39396e-06 3.77622e-06 0 3.71886e-06 3.75793e-06 0 3.06603e-06 3.74304e-06 0 2.43142e-06 3.73125e-06 0 1.81118e-06 3.72231e-06 0 1.20159e-06 3.71605e-06 0 5.99046e-07 3.71235e-06 0 0 3.71112e-06 0 5.06037e-05 1.12739e-05 0 4.57604e-05 1.06247e-05 0 4.1367e-05 9.90752e-06 0 3.74265e-05 9.18079e-06 0 3.39124e-05 8.48993e-06 0 3.0782e-05 7.86147e-06 0 2.79883e-05 7.30595e-06 0 2.54865e-05 6.82346e-06 0 2.3237e-05 6.4085e-06 0 2.12057e-05 6.05334e-06 0 1.93637e-05 5.74984e-06 0 1.76864e-05 5.49041e-06 0 1.61532e-05 5.2683e-06 0 1.47463e-05 5.07776e-06 0 1.34506e-05 4.91395e-06 0 1.2253e-05 4.77282e-06 0 1.11421e-05 4.65101e-06 0 1.01078e-05 4.54573e-06 0 9.14144e-06 4.45468e-06 0 8.23511e-06 4.37594e-06 0 7.38183e-06 4.3079e-06 0 6.57525e-06 4.24925e-06 0 5.80963e-06 4.19888e-06 0 5.0797e-06 4.15588e-06 0 4.3806e-06 4.11948e-06 0 3.70782e-06 4.08906e-06 0 3.05711e-06 4.06411e-06 0 2.42447e-06 4.04421e-06 0 1.80607e-06 4.02906e-06 0 1.19823e-06 4.0184e-06 0 5.97379e-07 4.01207e-06 0 0 4.00997e-06 0 5.0254e-05 1.38207e-05 0 4.53557e-05 1.29445e-05 0 4.09433e-05 1.19905e-05 0 3.70148e-05 1.10358e-05 0 3.35326e-05 1.01382e-05 0 3.04435e-05 9.32838e-06 0 2.76927e-05 8.61622e-06 0 2.52314e-05 7.99898e-06 0 2.30181e-05 7.46797e-06 0 2.10183e-05 7.01248e-06 0 1.92031e-05 6.62184e-06 0 1.75487e-05 6.28639e-06 0 1.60348e-05 5.99769e-06 0 1.46443e-05 5.74861e-06 0 1.33625e-05 5.53319e-06 0 1.21768e-05 5.34645e-06 0 1.1076e-05 5.18427e-06 0 1.00505e-05 5.04325e-06 0 9.09167e-06 4.92055e-06 0 8.19195e-06 4.81381e-06 0 7.34445e-06 4.72107e-06 0 6.54298e-06 4.6407e-06 0 5.78191e-06 4.57133e-06 0 5.05607e-06 4.51182e-06 0 4.36067e-06 4.46125e-06 0 3.69127e-06 4.41882e-06 0 3.04368e-06 4.3839e-06 0 2.41396e-06 4.35599e-06 0 1.79832e-06 4.33468e-06 0 1.19313e-06 4.31966e-06 0 5.94845e-07 4.31074e-06 0 0 4.30778e-06 0 4.97925e-05 1.6407e-05 0 4.48282e-05 1.52841e-05 0 4.03978e-05 1.4073e-05 0 3.64912e-05 1.28759e-05 0 3.30547e-05 1.1764e-05 0 3.00205e-05 1.07706e-05 0 2.7325e-05 9.90261e-06 0 2.49145e-05 9.15291e-06 0 2.2746e-05 8.50857e-06 0 2.07848e-05 7.95542e-06 0 1.90025e-05 7.48008e-06 0 1.7376e-05 7.07071e-06 0 1.58857e-05 6.7172e-06 0 1.45152e-05 6.41108e-06 0 1.32505e-05 6.14527e-06 0 1.20793e-05 5.91395e-06 0 1.09911e-05 5.71226e-06 0 9.97649e-06 5.5362e-06 0 9.02716e-06 5.38244e-06 0 8.13575e-06 5.24819e-06 0 7.29558e-06 5.13115e-06 0 6.50063e-06 5.0294e-06 0 5.7454e-06 4.94131e-06 0 5.02484e-06 4.86554e-06 0 4.33425e-06 4.80098e-06 0 3.66927e-06 4.7467e-06 0 3.02579e-06 4.70195e-06 0 2.39993e-06 4.66612e-06 0 1.78796e-06 4.63873e-06 0 1.1863e-06 4.61941e-06 0 5.91452e-07 4.60792e-06 0 0 4.6041e-06 0 4.92094e-05 1.90439e-05 0 4.41655e-05 1.76458e-05 0 3.972e-05 1.61511e-05 0 3.58497e-05 1.46936e-05 0 3.24763e-05 1.33594e-05 0 2.95132e-05 1.21811e-05 0 2.68862e-05 1.11593e-05 0 2.45373e-05 1.02805e-05 0 2.24223e-05 9.52639e-06 0 2.05067e-05 8.87896e-06 0 1.87631e-05 8.32188e-06 0 1.71692e-05 7.84112e-06 0 1.57066e-05 7.42491e-06 0 1.43597e-05 7.06349e-06 0 1.31151e-05 6.74877e-06 0 1.19612e-05 6.47407e-06 0 1.08879e-05 6.23387e-06 0 9.88619e-06 6.0236e-06 0 8.9482e-06 5.83946e-06 0 8.06675e-06 5.67828e-06 0 7.23542e-06 5.53743e-06 0 6.44837e-06 5.41468e-06 0 5.70024e-06 5.30821e-06 0 4.98612e-06 5.21646e-06 0 4.30142e-06 5.13815e-06 0 3.64189e-06 5.07221e-06 0 3.0035e-06 5.01778e-06 0 2.38243e-06 4.97415e-06 0 1.77503e-06 4.94076e-06 0 1.17776e-06 4.9172e-06 0 5.87212e-07 4.90318e-06 0 0 4.89852e-06 0 4.84908e-05 2.17396e-05 0 4.33506e-05 2.00323e-05 0 3.88971e-05 1.82182e-05 0 3.50838e-05 1.64792e-05 0 3.17958e-05 1.49151e-05 0 2.89224e-05 1.35521e-05 0 2.63782e-05 1.23802e-05 0 2.4102e-05 1.13768e-05 0 2.20489e-05 1.05176e-05 0 2.01857e-05 9.77998e-06 0 1.84863e-05 9.14465e-06 0 1.69297e-05 8.59543e-06 0 1.54987e-05 8.11897e-06 0 1.41787e-05 7.70427e-06 0 1.29571e-05 7.34229e-06 0 1.18229e-05 7.02558e-06 0 1.07668e-05 6.74801e-06 0 9.78e-06 6.50448e-06 0 8.85511e-06 6.29075e-06 0 7.98523e-06 6.1033e-06 0 7.1642e-06 5.93918e-06 0 6.38638e-06 5.79592e-06 0 5.64659e-06 5.67144e-06 0 4.94005e-06 5.56403e-06 0 4.26232e-06 5.47223e-06 0 3.60924e-06 5.39485e-06 0 2.97689e-06 5.33091e-06 0 2.36152e-06 5.27961e-06 0 1.75956e-06 5.24033e-06 0 1.16755e-06 5.21261e-06 0 5.82138e-07 5.1961e-06 0 0 5.19062e-06 0 4.76205e-05 2.45182e-05 0 4.23599e-05 2.24452e-05 0 3.79126e-05 2.0264e-05 0 3.41868e-05 1.82192e-05 0 3.10124e-05 1.64197e-05 0 2.82498e-05 1.4875e-05 0 2.58038e-05 1.35589e-05 0 2.36111e-05 1.24373e-05 0 2.16283e-05 1.14785e-05 0 1.98239e-05 1.06555e-05 0 1.81739e-05 9.94596e-06 0 1.66589e-05 9.33162e-06 0 1.52631e-05 8.79764e-06 0 1.39731e-05 8.33191e-06 0 1.27772e-05 7.92452e-06 0 1.16652e-05 7.56734e-06 0 1.06283e-05 7.25367e-06 0 9.65837e-06 6.97792e-06 0 8.74828e-06 6.73549e-06 0 7.89152e-06 6.5225e-06 0 7.0822e-06 6.33573e-06 0 6.31489e-06 6.17246e-06 0 5.58462e-06 6.03042e-06 0 4.88678e-06 5.9077e-06 0 4.21706e-06 5.80271e-06 0 3.57142e-06 5.71413e-06 0 2.94603e-06 5.64088e-06 0 2.33726e-06 5.58208e-06 0 1.74161e-06 5.53703e-06 0 1.1557e-06 5.50521e-06 0 5.76244e-07 5.48627e-06 0 0 5.47998e-06 0 4.65763e-05 2.73925e-05 0 4.11587e-05 2.48864e-05 0 3.67462e-05 2.22709e-05 0 3.31531e-05 1.98955e-05 0 3.01273e-05 1.78598e-05 0 2.7499e-05 1.61407e-05 0 2.51664e-05 1.4689e-05 0 2.3068e-05 1.34571e-05 0 2.11632e-05 1.24056e-05 0 1.94237e-05 1.15028e-05 0 1.78278e-05 1.07236e-05 0 1.63584e-05 1.00478e-05 0 1.50012e-05 9.4593e-06 0 1.3744e-05 8.945e-06 0 1.25763e-05 8.49424e-06 0 1.14888e-05 8.09826e-06 0 1.04731e-05 7.74986e-06 0 9.5218e-06 7.44306e-06 0 8.62813e-06 7.17288e-06 0 7.78597e-06 6.93517e-06 0 6.9897e-06 6.72641e-06 0 6.23415e-06 6.5437e-06 0 5.51457e-06 6.38457e-06 0 4.8265e-06 6.24694e-06 0 4.16579e-06 6.12909e-06 0 3.52853e-06 6.02959e-06 0 2.91102e-06 5.94725e-06 0 2.30972e-06 5.88111e-06 0 1.72122e-06 5.83042e-06 0 1.14223e-06 5.79461e-06 0 5.69549e-07 5.77328e-06 0 0 5.7662e-06 0 4.53218e-05 3.04382e-05 0 3.96938e-05 2.73498e-05 0 3.53751e-05 2.42104e-05 0 3.198e-05 2.14843e-05 0 2.91447e-05 1.92203e-05 0 2.66751e-05 1.73397e-05 0 2.44711e-05 1.57644e-05 0 2.24768e-05 1.4432e-05 0 2.0657e-05 1.32956e-05 0 1.89877e-05 1.23193e-05 0 1.74502e-05 1.14754e-05 0 1.60298e-05 1.07422e-05 0 1.47142e-05 1.01025e-05 0 1.34926e-05 9.54227e-06 0 1.23555e-05 9.0503e-06 0 1.12944e-05 8.61732e-06 0 1.03018e-05 8.23568e-06 0 9.37083e-06 7.89907e-06 0 8.49513e-06 7.60218e-06 0 7.66896e-06 7.3406e-06 0 6.88703e-06 7.1106e-06 0 6.14444e-06 6.90906e-06 0 5.43664e-06 6.73335e-06 0 4.75937e-06 6.58125e-06 0 4.10866e-06 6.4509e-06 0 3.48071e-06 6.34076e-06 0 2.87196e-06 6.24957e-06 0 2.27898e-06 6.17628e-06 0 1.69845e-06 6.12009e-06 0 1.12719e-06 6.08039e-06 0 5.6207e-07 6.05673e-06 0 0 6.04887e-06 0 4.38214e-05 3.37012e-05 0 3.78789e-05 2.98219e-05 0 3.37784e-05 2.60324e-05 0 3.0671e-05 2.29564e-05 0 2.80732e-05 2.04848e-05 0 2.57858e-05 1.84629e-05 0 2.37239e-05 1.67794e-05 0 2.18421e-05 1.53583e-05 0 2.01134e-05 1.41458e-05 0 1.85187e-05 1.31029e-05 0 1.70433e-05 1.21997e-05 0 1.56752e-05 1.14134e-05 0 1.44038e-05 1.07258e-05 0 1.322e-05 1.01225e-05 0 1.21156e-05 9.59166e-06 0 1.10829e-05 9.12357e-06 0 1.01152e-05 8.71028e-06 0 9.20606e-06 8.34516e-06 0 8.34974e-06 8.02267e-06 0 7.54089e-06 7.73815e-06 0 6.77453e-06 7.48769e-06 0 6.04603e-06 7.26798e-06 0 5.35108e-06 7.07624e-06 0 4.68562e-06 6.91012e-06 0 4.04584e-06 6.76766e-06 0 3.4281e-06 6.64721e-06 0 2.82897e-06 6.54741e-06 0 2.24512e-06 6.46719e-06 0 1.67338e-06 6.40565e-06 0 1.11062e-06 6.36215e-06 0 5.53827e-07 6.33624e-06 0 0 6.32763e-06 0 4.19261e-05 3.75443e-05 0 3.55743e-05 3.22216e-05 0 3.19527e-05 2.76604e-05 0 2.92388e-05 2.42785e-05 0 2.69281e-05 2.1638e-05 0 2.48402e-05 1.95025e-05 0 2.29325e-05 1.77294e-05 0 2.11692e-05 1.62327e-05 0 1.95366e-05 1.4954e-05 0 1.80199e-05 1.38516e-05 0 1.66097e-05 1.28949e-05 0 1.52963e-05 1.206e-05 0 1.40715e-05 1.13282e-05 0 1.29277e-05 1.06847e-05 0 1.18578e-05 1.01174e-05 0 1.08552e-05 9.61615e-06 0 9.9139e-06 9.17286e-06 0 9.02809e-06 8.78063e-06 0 8.19251e-06 8.43369e-06 0 7.40221e-06 8.12721e-06 0 6.65257e-06 7.8571e-06 0 5.93924e-06 7.61992e-06 0 5.25815e-06 7.41273e-06 0 4.60545e-06 7.23309e-06 0 3.97751e-06 7.07892e-06 0 3.37084e-06 6.94849e-06 0 2.78215e-06 6.84038e-06 0 2.20825e-06 6.75342e-06 0 1.64605e-06 6.6867e-06 0 1.09256e-06 6.63953e-06 0 5.44843e-07 6.61142e-06 0 0 6.60208e-06 0 3.95736e-05 4.27106e-05 0 3.26176e-05 3.42845e-05 0 2.99104e-05 2.89934e-05 0 2.77276e-05 2.54196e-05 0 2.5722e-05 2.26679e-05 0 2.38537e-05 2.04525e-05 0 2.21036e-05 1.86111e-05 0 2.04645e-05 1.7053e-05 0 1.89304e-05 1.57183e-05 0 1.74947e-05 1.45642e-05 0 1.61519e-05 1.35598e-05 0 1.48953e-05 1.26808e-05 0 1.3719e-05 1.19086e-05 0 1.26169e-05 1.1228e-05 0 1.15832e-05 1.06266e-05 0 1.06123e-05 1.00943e-05 0 9.69874e-06 9.62271e-06 0 8.83757e-06 9.20479e-06 0 8.02396e-06 8.83461e-06 0 7.25338e-06 8.50719e-06 0 6.52154e-06 8.2183e-06 0 5.8244e-06 7.96436e-06 0 5.15813e-06 7.74235e-06 0 4.5191e-06 7.5497e-06 0 3.90386e-06 7.38425e-06 0 3.3091e-06 7.2442e-06 0 2.73165e-06 7.12806e-06 0 2.16845e-06 7.0346e-06 0 1.61655e-06 6.96288e-06 0 1.07306e-06 6.91215e-06 0 5.35141e-07 6.88192e-06 0 0 6.87187e-06 0 3.22586e-05 5.08364e-05 0 2.91583e-05 3.50635e-05 0 2.76619e-05 3.00238e-05 0 2.62422e-05 2.63398e-05 0 2.44434e-05 2.35743e-05 0 2.28591e-05 2.13089e-05 0 2.12353e-05 1.94225e-05 0 1.97397e-05 1.78184e-05 0 1.82962e-05 1.64373e-05 0 1.69481e-05 1.52398e-05 0 1.56715e-05 1.41932e-05 0 1.44747e-05 1.32752e-05 0 1.33477e-05 1.24661e-05 0 1.22891e-05 1.17515e-05 0 1.12928e-05 1.11185e-05 0 1.03549e-05 1.05573e-05 0 9.47047e-06 1.00592e-05 0 8.63517e-06 9.61704e-06 0 7.84466e-06 9.22487e-06 0 7.09486e-06 8.87756e-06 0 6.38183e-06 8.57077e-06 0 5.70184e-06 8.30084e-06 0 5.0513e-06 8.06464e-06 0 4.42681e-06 7.85952e-06 0 3.8251e-06 7.68325e-06 0 3.24302e-06 7.53395e-06 0 2.67758e-06 7.41007e-06 0 2.12583e-06 7.31036e-06 0 1.58495e-06 7.23381e-06 0 1.05217e-06 7.17965e-06 0 5.24745e-07 7.14737e-06 0 0 7.13665e-06 0 </DataArray> 
</PointData> 
<Points> 
<DataArray type="Float32" NumberOfComponents="3"> 