<?xml version="1.0"?> 
<VTKFile type="StructuredGrid" version="0.1"> 
<StructuredGrid WholeExtent="0 31 0 31 0 0"> 
<Piece Extent="0 31 0 31 0 0"> 
<PointData>
<DataArray type="Float32" Name="B" format="ascii" NumberOfComponents="3"> 
-2.84094e-05 -0 0 -2.63903e-05 -0 0 -2.44899e-05 -0 0 -2.27039e-05 -0 0 -2.10276e-05 -0 0 -1.94559e-05 -0 0 -1.79836e-05 -0 0 -1.66054e-05 -0 0 -1.53161e-05 -0 0 -1.41105e-05 -0 0 -1.29835e-05 -0 0 -1.19301e-05 -0 0 -1.09455e-05 -0 0 -1.00251e-05 -0 0 -9.16423e-06 -0 0 -8.3587e-06 -0 0 -7.60429e-06 -0 0 -6.89699e-06 -0 0 -6.23293e-06 -0 0 -5.60838e-06 -0 0 -5.01978e-06 -0 0 -4.46365e-06 -0 0 -3.93666e-06 -0 0 -3.43559e-06 -0 0 -2.9573e-06 -0 0 -2.49875e-06 -0 0 -2.05697e-06 -0 0 -1.62907e-06 -0 0 -1.21221e-06 -0 0 -8.0358e-07 -0 0 -4.00425e-07 -0 0 0 -0 0 -2.83482e-05 -2.07924e-06 0 -2.63309e-05 -1.95841e-06 0 -2.44327e-05 -1.84166e-06 0 -2.26491e-05 -1.7295e-06 0 -2.09753e-05 -1.6223e-06 0 -1.94062e-05 -1.52025e-06 0 -1.79365e-05 -1.42347e-06 0 -1.6561e-05 -1.33198e-06 0 -1.52743e-05 -1.24573e-06 0 -1.40713e-05 -1.16463e-06 0 -1.29467e-05 -1.08858e-06 0 -1.18957e-05 -1.01742e-06 0 -1.09135e-05 -9.51005e-07 0 -9.99526e-06 -8.89174e-07 0 -9.1366e-06 -8.31762e-07 0 -8.33315e-06 -7.78605e-07 0 -7.58075e-06 -7.29542e-07 0 -6.87538e-06 -6.84419e-07 0 -6.21318e-06 -6.43086e-07 0 -5.59043e-06 -6.05402e-07 0 -5.00355e-06 -5.71236e-07 0 -4.44909e-06 -5.40463e-07 0 -3.92371e-06 -5.1297e-07 0 -3.4242e-06 -4.88654e-07 0 -2.94743e-06 -4.6742e-07 0 -2.49036e-06 -4.49186e-07 0 -2.05004e-06 -4.33881e-07 0 -1.62356e-06 -4.21442e-07 0 -1.20809e-06 -4.1182e-07 0 -8.00845e-07 -4.04975e-07 0 -3.9906e-07 -4.00879e-07 0 0 -3.99515e-07 0 -2.81639e-05 -4.15511e-06 0 -2.61523e-05 -3.91272e-06 0 -2.42607e-05 -3.67869e-06 0 -2.24844e-05 -3.45404e-06 0 -2.08183e-05 -3.23942e-06 0 -1.9257e-05 -3.03523e-06 0 -1.77953e-05 -2.84165e-06 0 -1.64277e-05 -2.65871e-06 0 -1.51489e-05 -2.48629e-06 0 -1.39535e-05 -2.32422e-06 0 -1.28364e-05 -2.17225e-06 0 -1.17927e-05 -2.03009e-06 0 -1.08174e-05 -1.89743e-06 0 -9.90593e-06 -1.77393e-06 0 -9.05377e-06 -1.65927e-06 0 -8.25659e-06 -1.55312e-06 0 -7.51021e-06 -1.45515e-06 0 -6.81063e-06 -1.36505e-06 0 -6.154e-06 -1.28252e-06 0 -5.53662e-06 -1.20729e-06 0 -4.95491e-06 -1.13908e-06 0 -4.40545e-06 -1.07765e-06 0 -3.88492e-06 -1.02277e-06 0 -3.3901e-06 -9.74226e-07 0 -2.91788e-06 -9.31842e-07 0 -2.46525e-06 -8.95447e-07 0 -2.02926e-06 -8.64897e-07 0 -1.60704e-06 -8.40069e-07 0 -1.19576e-06 -8.20864e-07 0 -7.92653e-07 -8.07202e-07 0 -3.94973e-07 -7.99027e-07 0 0 -7.96306e-07 0 -2.78554e-05 -6.22399e-06 0 -2.58537e-05 -5.8586e-06 0 -2.39734e-05 -5.5063e-06 0 -2.22095e-05 -5.16849e-06 0 -2.05563e-05 -4.84607e-06 0 -1.90084e-05 -4.53957e-06 0 -1.756e-05 -4.24918e-06 0 -1.62057e-05 -3.97489e-06 0 -1.494e-05 -3.7165e-06 0 -1.37574e-05 -3.47371e-06 0 -1.26528e-05 -3.24612e-06 0 -1.16211e-05 -3.03327e-06 0 -1.06575e-05 -2.83468e-06 0 -9.75732e-06 -2.64985e-06 0 -8.916e-06 -2.47827e-06 0 -8.12924e-06 -2.31945e-06 0 -7.39289e-06 -2.17288e-06 0 -6.70295e-06 -2.03811e-06 0 -6.0556e-06 -1.91467e-06 0 -5.44715e-06 -1.80215e-06 0 -4.87406e-06 -1.70015e-06 0 -4.33292e-06 -1.60829e-06 0 -3.82042e-06 -1.52622e-06 0 -3.3334e-06 -1.45365e-06 0 -2.86876e-06 -1.39028e-06 0 -2.42351e-06 -1.33587e-06 0 -1.99473e-06 -1.29019e-06 0 -1.57958e-06 -1.25308e-06 0 -1.17527e-06 -1.22437e-06 0 -7.79038e-07 -1.20395e-06 0 -3.88179e-07 -1.19172e-06 0 0 -1.18766e-06 0 -2.74206e-05 -8.28172e-06 0 -2.54335e-05 -7.7913e-06 0 -2.35699e-05 -7.31934e-06 0 -2.18237e-05 -6.86748e-06 0 -2.01891e-05 -6.43677e-06 0 -1.86601e-05 -6.02775e-06 0 -1.72307e-05 -5.64058e-06 0 -1.58952e-05 -5.27514e-06 0 -1.46479e-05 -4.9311e-06 0 -1.34834e-05 -4.60799e-06 0 -1.23963e-05 -4.30523e-06 0 -1.13816e-05 -4.02218e-06 0 -1.04343e-05 -3.75817e-06 0 -9.54985e-06 -3.51252e-06 0 -8.7237e-06 -3.28453e-06 0 -7.95151e-06 -3.07352e-06 0 -7.22917e-06 -2.87883e-06 0 -6.55271e-06 -2.69983e-06 0 -5.91832e-06 -2.53592e-06 0 -5.32235e-06 -2.38651e-06 0 -4.76128e-06 -2.25108e-06 0 -4.23174e-06 -2.12913e-06 0 -3.73047e-06 -2.0202e-06 0 -3.25433e-06 -1.92387e-06 0 -2.80025e-06 -1.83976e-06 0 -2.3653e-06 -1.76755e-06 0 -1.94659e-06 -1.70694e-06 0 -1.5413e-06 -1.65769e-06 0 -1.14669e-06 -1.61959e-06 0 -7.60054e-07 -1.59249e-06 0 -3.78707e-07 -1.57628e-06 0 0 -1.57088e-06 0 -2.68567e-05 -1.03234e-05 0 -2.489e-05 -9.70546e-06 0 -2.30487e-05 -9.11216e-06 0 -2.13264e-05 -8.54524e-06 0 -1.97163e-05 -8.00571e-06 0 -1.82122e-05 -7.49403e-06 0 -1.68076e-05 -7.01022e-06 0 -1.54965e-05 -6.55397e-06 0 -1.42732e-05 -6.12476e-06 0 -1.31319e-05 -5.72191e-06 0 -1.20674e-05 -5.34462e-06 0 -1.10745e-05 -4.99205e-06 0 -1.01483e-05 -4.66331e-06 0 -9.28413e-06 -4.35753e-06 0 -8.47744e-06 -4.0738e-06 0 -7.72397e-06 -3.81127e-06 0 -7.01961e-06 -3.56909e-06 0 -6.36043e-06 -3.34648e-06 0 -5.74265e-06 -3.14265e-06 0 -5.16266e-06 -2.9569e-06 0 -4.617e-06 -2.78854e-06 0 -4.10232e-06 -2.63696e-06 0 -3.61542e-06 -2.50158e-06 0 -3.15319e-06 -2.38187e-06 0 -2.71264e-06 -2.27736e-06 0 -2.29086e-06 -2.18764e-06 0 -1.88502e-06 -2.11234e-06 0 -1.49235e-06 -2.05115e-06 0 -1.11016e-06 -2.00382e-06 0 -7.35782e-07 -1.97016e-06 0 -3.66596e-07 -1.95002e-06 0 0 -1.94331e-06 0 -2.61608e-05 -1.2343e-05 0 -2.42209e-05 -1.15949e-05 0 -2.24087e-05 -1.08785e-05 0 -2.07168e-05 -1.01955e-05 0 -1.91378e-05 -9.54673e-06 0 -1.76647e-05 -8.9324e-06 0 -1.62909e-05 -8.35226e-06 0 -1.50102e-05 -7.80574e-06 0 -1.38164e-05 -7.29205e-06 0 -1.27038e-05 -6.81025e-06 0 -1.1667e-05 -6.35929e-06 0 -1.07008e-05 -5.93808e-06 0 -9.80038e-06 -5.54551e-06 0 -8.96092e-06 -5.18048e-06 0 -8.178e-06 -4.84188e-06 0 -7.44736e-06 -4.52867e-06 0 -6.76491e-06 -4.23981e-06 0 -6.12676e-06 -3.97434e-06 0 -5.52921e-06 -3.73132e-06 0 -4.96867e-06 -3.50989e-06 0 -4.44175e-06 -3.30924e-06 0 -3.94514e-06 -3.1286e-06 0 -3.47571e-06 -2.96729e-06 0 -3.0304e-06 -2.82468e-06 0 -2.60628e-06 -2.70018e-06 0 -2.2005e-06 -2.59331e-06 0 -1.81028e-06 -2.50363e-06 0 -1.43294e-06 -2.43076e-06 0 -1.06581e-06 -2.3744e-06 0 -7.06323e-07 -2.33431e-06 0 -3.51898e-07 -2.31033e-06 0 0 -2.30235e-06 0 -2.53294e-05 -1.43334e-05 0 -2.34241e-05 -1.34524e-05 0 -2.16486e-05 -1.26113e-05 0 -1.99943e-05 -1.18114e-05 0 -1.84533e-05 -1.10532e-05 0 -1.7018e-05 -1.03365e-05 0 -1.56814e-05 -9.66063e-06 0 -1.44369e-05 -9.02465e-06 0 -1.32783e-05 -8.42744e-06 0 -1.21999e-05 -7.86773e-06 0 -1.1196e-05 -7.3442e-06 0 -1.02615e-05 -6.85547e-06 0 -9.39146e-06 -6.40018e-06 0 -8.58122e-06 -5.97699e-06 0 -7.82633e-06 -5.58459e-06 0 -7.12257e-06 -5.22171e-06 0 -6.46592e-06 -4.88715e-06 0 -5.85254e-06 -4.57975e-06 0 -5.27877e-06 -4.29842e-06 0 -4.7411e-06 -4.04213e-06 0 -4.23619e-06 -3.80993e-06 0 -3.76081e-06 -3.60093e-06 0 -3.31189e-06 -3.41433e-06 0 -2.88644e-06 -3.24937e-06 0 -2.4816e-06 -3.10539e-06 0 -2.09458e-06 -2.98182e-06 0 -1.72269e-06 -2.87812e-06 0 -1.3633e-06 -2.79387e-06 0 -1.01385e-06 -2.72872e-06 0 -6.718e-07 -2.68238e-06 0 -3.34673e-07 -2.65465e-06 0 0 -2.64543e-06 0 -2.43592e-05 -1.62861e-05 0 -2.24976e-05 -1.52698e-05 0 -2.07672e-05 -1.43028e-05 0 -1.91587e-05 -1.33856e-05 0 -1.76631e-05 -1.25182e-05 0 -1.62726e-05 -1.16997e-05 0 -1.49798e-05 -1.09291e-05 0 -1.37778e-05 -1.02048e-05 0 -1.26603e-05 -9.52531e-06 0 -1.16214e-05 -8.88904e-06 0 -1.06556e-05 -8.2943e-06 0 -9.75773e-06 -7.73942e-06 0 -8.92279e-06 -7.22276e-06 0 -8.14619e-06 -6.74272e-06 0 -7.42356e-06 -6.29778e-06 0 -6.75071e-06 -5.88646e-06 0 -6.12369e-06 -5.50734e-06 0 -5.53873e-06 -5.1591e-06 0 -4.99225e-06 -4.84048e-06 0 -4.4808e-06 -4.55029e-06 0 -4.00112e-06 -4.28743e-06 0 -3.55006e-06 -4.05088e-06 0 -3.12461e-06 -3.83972e-06 0 -2.72189e-06 -3.65309e-06 0 -2.3391e-06 -3.49022e-06 0 -1.97354e-06 -3.35045e-06 0 -1.6226e-06 -3.23318e-06 0 -1.28374e-06 -3.13791e-06 0 -9.54477e-07 -3.06424e-06 0 -6.32362e-07 -3.01184e-06 0 -3.14997e-07 -2.98049e-06 0 0 -2.97006e-06 0 -2.32475e-05 -1.8191e-05 0 -2.144e-05 -1.70377e-05 0 -1.97643e-05 -1.59442e-05 0 -1.82101e-05 -1.491e-05 0 -1.6768e-05 -1.39342e-05 0 -1.54297e-05 -1.30151e-05 0 -1.41874e-05 -1.21511e-05 0 -1.30342e-05 -1.13401e-05 0 -1.19637e-05 -1.058e-05 0 -1.097e-05 -9.86883e-06 0 -1.00475e-05 -9.20455e-06 0 -9.19103e-06 -8.58515e-06 0 -8.39581e-06 -8.00871e-06 0 -7.65725e-06 -7.47338e-06 0 -6.97103e-06 -6.97737e-06 0 -6.33305e-06 -6.51901e-06 0 -5.73943e-06 -6.09667e-06 0 -5.18649e-06 -5.70885e-06 0 -4.67071e-06 -5.35412e-06 0 -4.18876e-06 -5.03112e-06 0 -3.73744e-06 -4.73862e-06 0 -3.3137e-06 -4.47547e-06 0 -2.91463e-06 -4.2406e-06 0 -2.53742e-06 -4.03306e-06 0 -2.17937e-06 -3.85198e-06 0 -1.83789e-06 -3.69659e-06 0 -1.51045e-06 -3.56624e-06 0 -1.1946e-06 -3.46036e-06 0 -8.87959e-07 -3.37849e-06 0 -5.88179e-07 -3.32027e-06 0 -2.92954e-07 -3.28544e-06 0 0 -3.27384e-06 0 -2.19926e-05 -2.00366e-05 0 -2.02507e-05 -1.87457e-05 0 -1.86401e-05 -1.75261e-05 0 -1.71496e-05 -1.6376e-05 0 -1.57694e-05 -1.52933e-05 0 -1.44908e-05 -1.42755e-05 0 -1.3306e-05 -1.33201e-05 0 -1.22081e-05 -1.24244e-05 0 -1.11905e-05 -1.15858e-05 0 -1.02473e-05 -1.08018e-05 0 -9.37327e-06 -1.00699e-05 0 -8.56315e-06 -9.38794e-06 0 -7.81223e-06 -8.75358e-06 0 -7.11602e-06 -8.16471e-06 0 -6.47029e-06 -7.61934e-06 0 -5.87105e-06 -7.11554e-06 0 -5.31452e-06 -6.65151e-06 0 -4.7971e-06 -6.22554e-06 0 -4.31538e-06 -5.83603e-06 0 -3.86611e-06 -5.48148e-06 0 -3.4462e-06 -5.16049e-06 0 -3.05271e-06 -4.87179e-06 0 -2.68281e-06 -4.61417e-06 0 -2.3338e-06 -4.38658e-06 0 -2.0031e-06 -4.18805e-06 0 -1.68821e-06 -4.01772e-06 0 -1.38671e-06 -3.87485e-06 0 -1.09626e-06 -3.75882e-06 0 -8.14586e-07 -3.66911e-06 0 -5.39445e-07 -3.60532e-06 0 -2.68641e-07 -3.56716e-06 0 0 -3.55446e-06 0 -2.05938e-05 -2.18097e-05 0 -1.89303e-05 -2.03823e-05 0 -1.73959e-05 -1.90383e-05 0 -1.59789e-05 -1.77746e-05 0 -1.46693e-05 -1.65875e-05 0 -1.34582e-05 -1.54736e-05 0 -1.2338e-05 -1.44294e-05 0 -1.13016e-05 -1.34516e-05 0 -1.03428e-05 -1.25369e-05 0 -9.45573e-06 -1.16825e-05 0 -8.63518e-06 -1.08855e-05 0 -7.87613e-06 -1.01431e-05 0 -7.17397e-06 -9.45296e-06 0 -6.52433e-06 -8.81258e-06 0 -5.9231e-06 -8.21975e-06 0 -5.36639e-06 -7.67232e-06 0 -4.85053e-06 -7.1683e-06 0 -4.37205e-06 -6.70578e-06 0 -3.92762e-06 -6.283e-06 0 -3.51412e-06 -5.89829e-06 0 -3.12857e-06 -5.55011e-06 0 -2.76814e-06 -5.23703e-06 0 -2.43011e-06 -4.95774e-06 0 -2.1119e-06 -4.71107e-06 0 -1.81104e-06 -4.49594e-06 0 -1.52515e-06 -4.3114e-06 0 -1.25193e-06 -4.15665e-06 0 -9.89163e-07 -4.03098e-06 0 -7.34683e-07 -3.93383e-06 0 -4.86378e-07 -3.86476e-06 0 -2.42168e-07 -3.82344e-06 0 0 -3.80969e-06 0 -1.90528e-05 -2.34964e-05 0 -1.74813e-05 -2.19353e-05 0 -1.60346e-05 -2.04703e-05 0 -1.47011e-05 -1.90964e-05 0 -1.34708e-05 -1.78085e-05 0 -1.2335e-05 -1.6602e-05 0 -1.12862e-05 -1.54723e-05 0 -1.03177e-05 -1.44156e-05 0 -9.42335e-06 -1.34279e-05 0 -8.59772e-06 -1.25059e-05 0 -7.83562e-06 -1.16463e-05 0 -7.13228e-06 -1.08462e-05 0 -6.48324e-06 -1.01026e-05 0 -5.88427e-06 -9.41293e-06 0 -5.33142e-06 -8.77476e-06 0 -4.82091e-06 -8.18572e-06 0 -4.34921e-06 -7.6436e-06 0 -3.91295e-06 -7.14631e-06 0 -3.50896e-06 -6.69191e-06 0 -3.13421e-06 -6.27859e-06 0 -2.78586e-06 -5.90464e-06 0 -2.46118e-06 -5.56849e-06 0 -2.1576e-06 -5.26873e-06 0 -1.87267e-06 -5.00403e-06 0 -1.60402e-06 -4.77324e-06 0 -1.34943e-06 -4.57533e-06 0 -1.10671e-06 -4.40938e-06 0 -8.73783e-07 -4.27465e-06 0 -6.48613e-07 -4.1705e-06 0 -4.29218e-07 -4.09646e-06 0 -2.13655e-07 -4.05217e-06 0 0 -4.03743e-06 0 -1.73735e-05 -2.50815e-05 0 -1.59077e-05 -2.3392e-05 0 -1.45605e-05 -2.18113e-05 0 -1.33204e-05 -2.03323e-05 0 -1.21779e-05 -1.89483e-05 0 -1.11249e-05 -1.76535e-05 0 -1.01542e-05 -1.64425e-05 0 -9.2596e-06 -1.53105e-05 0 -8.43535e-06 -1.42533e-05 0 -7.67622e-06 -1.3267e-05 0 -6.97734e-06 -1.23478e-05 0 -6.33419e-06 -1.14926e-05 0 -5.74247e-06 -1.06982e-05 0 -5.19815e-06 -9.96183e-06 0 -4.69741e-06 -9.28068e-06 0 -4.23666e-06 -8.65223e-06 0 -3.81247e-06 -8.07408e-06 0 -3.42163e-06 -7.54397e-06 0 -3.06108e-06 -7.05978e-06 0 -2.72793e-06 -6.61954e-06 0 -2.41948e-06 -6.22138e-06 0 -2.13314e-06 -5.86361e-06 0 -1.86647e-06 -5.54466e-06 0 -1.61715e-06 -5.26311e-06 0 -1.38298e-06 -5.0177e-06 0 -1.16184e-06 -4.8073e-06 0 -9.51713e-07 -4.63092e-06 0 -7.50653e-07 -4.48775e-06 0 -5.56772e-07 -4.37709e-06 0 -3.68233e-07 -4.29843e-06 0 -1.83234e-07 -4.25138e-06 0 0 -4.23573e-06 0 -1.55624e-05 -2.655e-05 0 -1.42161e-05 -2.474e-05 0 -1.29795e-05 -2.30508e-05 0 -1.18422e-05 -2.14732e-05 0 -1.07957e-05 -1.9999e-05 0 -9.8325e-06 -1.86212e-05 0 -8.94626e-06 -1.73336e-05 0 -8.13126e-06 -1.61308e-05 0 -7.38229e-06 -1.5008e-05 0 -6.69451e-06 -1.39608e-05 0 -6.0634e-06 -1.29854e-05 0 -5.48469e-06 -1.20783e-05 0 -4.95433e-06 -1.1236e-05 0 -4.46847e-06 -1.04555e-05 0 -4.02347e-06 -9.73391e-06 0 -3.61587e-06 -9.06845e-06 0 -3.24243e-06 -8.45654e-06 0 -2.90004e-06 -7.89573e-06 0 -2.58581e-06 -7.38374e-06 0 -2.29699e-06 -6.91841e-06 0 -2.03102e-06 -6.49776e-06 0 -1.78546e-06 -6.11992e-06 0 -1.55801e-06 -5.78321e-06 0 -1.34651e-06 -5.48609e-06 0 -1.14891e-06 -5.22718e-06 0 -9.63248e-07 -5.00527e-06 0 -7.87659e-07 -4.81929e-06 0 -6.20352e-07 -4.66835e-06 0 -4.59596e-07 -4.55171e-06 0 -3.03711e-07 -4.46881e-06 0 -1.51052e-07 -4.41923e-06 0 0 -4.40273e-06 0 -1.36293e-05 -2.78872e-05 0 -1.24151e-05 -2.59673e-05 0 -1.12995e-05 -2.41789e-05 0 -1.02736e-05 -2.25108e-05 0 -9.33031e-06 -2.09535e-05 0 -8.46331e-06 -1.94989e-05 0 -7.66718e-06 -1.81401e-05 0 -6.93697e-06 -1.68712e-05 0 -6.26808e-06 -1.5687e-05 0 -5.65618e-06 -1.45829e-05 0 -5.0971e-06 -1.35549e-05 0 -4.58689e-06 -1.25991e-05 0 -4.12172e-06 -1.1712e-05 0 -3.69796e-06 -1.08903e-05 0 -3.31214e-06 -1.0131e-05 0 -2.96098e-06 -9.43115e-06 0 -2.64135e-06 -8.78792e-06 0 -2.35032e-06 -8.19871e-06 0 -2.08515e-06 -7.66106e-06 0 -1.84324e-06 -7.17265e-06 0 -1.62217e-06 -6.73134e-06 0 -1.41968e-06 -6.33513e-06 0 -1.23362e-06 -5.9822e-06 0 -1.06199e-06 -5.67088e-06 0 -9.02917e-07 -5.3997e-06 0 -7.54596e-07 -5.16733e-06 0 -6.15335e-07 -4.97265e-06 0 -4.83508e-07 -4.81467e-06 0 -3.57556e-07 -4.69263e-06 0 -2.35966e-07 -4.60589e-06 0 -1.17264e-07 -4.55402e-06 0 0 -4.53676e-06 0 -1.15871e-05 -2.90799e-05 0 -1.05158e-05 -2.70634e-05 0 -9.52989e-06 -2.5187e-05 0 -8.62268e-06 -2.34379e-05 0 -7.78873e-06 -2.18055e-05 0 -7.02333e-06 -2.02809e-05 0 -6.32223e-06 -1.88568e-05 0 -5.68139e-06 -1.75269e-05 0 -5.09693e-06 -1.62859e-05 0 -4.56504e-06 -1.51291e-05 0 -4.08198e-06 -1.40521e-05 0 -3.64406e-06 -1.30512e-05 0 -3.24773e-06 -1.21225e-05 0 -2.88955e-06 -1.12628e-05 0 -2.5662e-06 -1.04688e-05 0 -2.27457e-06 -9.73724e-06 0 -2.01169e-06 -9.0653e-06 0 -1.77478e-06 -8.45015e-06 0 -1.56125e-06 -7.88915e-06 0 -1.36867e-06 -7.37983e-06 0 -1.19478e-06 -6.91985e-06 0 -1.03748e-06 -6.50709e-06 0 -8.94812e-07 -6.13959e-06 0 -7.64949e-07 -5.81557e-06 0 -6.4618e-07 -5.53342e-06 0 -5.36898e-07 -5.29174e-06 0 -4.35585e-07 -5.08932e-06 0 -3.40799e-07 -4.9251e-06 0 -2.5116e-07 -4.79826e-06 0 -1.65338e-07 -4.70813e-06 0 -8.20409e-08 -4.65423e-06 0 0 -4.6363e-06 0 -9.45148e-06 -3.01171e-05 0 -8.53148e-06 -2.80196e-05 0 -7.6818e-06 -2.60681e-05 0 -6.89859e-06 -2.42487e-05 0 -6.17866e-06 -2.25499e-05 0 -5.5191e-06 -2.09627e-05 0 -4.91703e-06 -1.94794e-05 0 -4.36944e-06 -1.80939e-05 0 -3.87322e-06 -1.68008e-05 0 -3.4251e-06 -1.55954e-05 0 -3.02171e-06 -1.44734e-05 0 -2.65967e-06 -1.3431e-05 0 -2.33563e-06 -1.24642e-05 0 -2.04631e-06 -1.15697e-05 0 -1.78858e-06 -1.0744e-05 0 -1.55944e-06 -9.98376e-06 0 -1.35609e-06 -9.28591e-06 0 -1.1759e-06 -8.64747e-06 0 -1.01643e-06 -8.06561e-06 0 -8.7543e-07 -7.53767e-06 0 -7.50817e-07 -7.06118e-06 0 -6.40671e-07 -6.63384e-06 0 -5.4322e-07 -6.25355e-06 0 -4.56826e-07 -5.91841e-06 0 -3.79973e-07 -5.62671e-06 0 -3.11245e-07 -5.37694e-06 0 -2.4932e-07 -5.16781e-06 0 -1.92951e-07 -4.9982e-06 0 -1.40952e-07 -4.86721e-06 0 -9.21894e-08 -4.77415e-06 0 -4.55635e-08 -4.71852e-06 0 0 -4.70001e-06 0 -7.24087e-06 -3.09914e-05 0 -6.47703e-06 -2.88302e-05 0 -5.76734e-06 -2.68176e-05 0 -5.11126e-06 -2.49391e-05 0 -4.50823e-06 -2.31831e-05 0 -3.95737e-06 -2.15406e-05 0 -3.4573e-06 -2.00044e-05 0 -3.00611e-06 -1.85686e-05 0 -2.60141e-06 -1.72281e-05 0 -2.24041e-06 -1.59783e-05 0 -1.9201e-06 -1.48153e-05 0 -1.6373e-06 -1.3735e-05 0 -1.38882e-06 -1.27338e-05 0 -1.17153e-06 -1.18078e-05 0 -9.82391e-07 -1.09537e-05 0 -8.18558e-07 -1.01679e-05 0 -6.77358e-07 -9.44716e-06 0 -5.56319e-07 -8.78825e-06 0 -4.5317e-07 -8.18818e-06 0 -3.65833e-07 -7.6441e-06 0 -2.92415e-07 -7.15338e-06 0 -2.31191e-07 -6.71356e-06 0 -1.80591e-07 -6.32239e-06 0 -1.39182e-07 -5.97784e-06 0 -1.05654e-07 -5.67809e-06 0 -7.88012e-08 -5.42154e-06 0 -5.75094e-08 -5.2068e-06 0 -4.07397e-08 -5.0327e-06 0 -2.75152e-08 -4.89828e-06 0 -1.6908e-08 -4.80279e-06 0 -8.02567e-09 -4.74571e-06 0 0 -4.72672e-06 0 -4.97526e-06 -3.16988e-05 0 -4.36851e-06 -2.94927e-05 0 -3.79927e-06 -2.74336e-05 0 -3.27081e-06 -2.55073e-05 0 -2.78555e-06 -2.3703e-05 0 -2.34476e-06 -2.20125e-05 0 -1.94862e-06 -2.04292e-05 0 -1.59623e-06 -1.89481e-05 0 -1.28583e-06 -1.75646e-05 0 -1.01502e-06 -1.62746e-05 0 -7.80968e-07 -1.50744e-05 0 -5.80621e-07 -1.39601e-05 0 -4.10858e-07 -1.2928e-05 0 -2.68607e-07 -1.19742e-05 0 -1.50931e-07 -1.10951e-05 0 -5.50765e-08 -1.02871e-05 0 2.14995e-08 -9.54657e-06 0 8.11158e-08 -8.87021e-06 0 1.25871e-07 -8.25477e-06 0 1.57654e-07 -7.69722e-06 0 1.78156e-07 -7.19472e-06 0 1.8889e-07 -6.74466e-06 0 1.9121e-07 -6.34464e-06 0 1.86325e-07 -5.9925e-06 0 1.75325e-07 -5.68631e-06 0 1.59191e-07 -5.42437e-06 0 1.38813e-07 -5.2052e-06 0 1.15008e-07 -5.02756e-06 0 8.85329e-08 -4.89044e-06 0 6.00945e-08 -4.79306e-06 0 3.03668e-08 -4.73485e-06 0 0 -4.71549e-06 0 -2.67605e-06 -3.22415e-05 0 -2.2224e-06 -3.00086e-05 0 -1.79023e-06 -2.79172e-05 0 -1.38699e-06 -2.5954e-05 0 -1.01818e-06 -2.41096e-05 0 -6.87333e-07 -2.23772e-05 0 -3.96043e-07 -2.0752e-05 0 -1.44252e-07 -1.92299e-05 0 6.93989e-08 -1.78075e-05 0 2.47168e-07 -1.64812e-05 0 3.9188e-07 -1.52476e-05 0 5.06635e-07 -1.41031e-05 0 5.94599e-07 -1.30438e-05 0 6.58856e-07 -1.20659e-05 0 7.02313e-07 -1.11655e-05 0 7.27647e-07 -1.03387e-05 0 7.3728e-07 -9.58187e-06 0 7.33376e-07 -8.89129e-06 0 7.17852e-07 -8.26352e-06 0 6.92392e-07 -7.69532e-06 0 6.58467e-07 -7.18366e-06 0 6.17362e-07 -6.72575e-06 0 5.70193e-07 -6.31905e-06 0 5.17931e-07 -5.96126e-06 0 4.61424e-07 -5.65033e-06 0 4.01413e-07 -5.38446e-06 0 3.38552e-07 -5.16209e-06 0 2.7342e-07 -4.98193e-06 0 2.06538e-07 -4.8429e-06 0 1.38383e-07 -4.74418e-06 0 6.93964e-08 -4.68519e-06 0 0 -4.66556e-06 0 -3.6398e-07 -3.26246e-05 0 -5.45176e-08 -3.0384e-05 0 2.48005e-07 -2.82733e-05 0 5.31633e-07 -2.62824e-05 0 7.87479e-07 -2.44043e-05 0 1.00994e-06 -2.2635e-05 0 1.19625e-06 -2.09717e-05 0 1.34602e-06 -1.94122e-05 0 1.4606e-06 -1.79542e-05 0 1.54246e-06 -1.65951e-05 0 1.59469e-06 -1.53318e-05 0 1.62067e-06 -1.41607e-05 0 1.62373e-06 -1.30782e-05 0 1.60708e-06 -1.208e-05 0 1.57364e-06 -1.11622e-05 0 1.52603e-06 -1.03205e-05 0 1.46655e-06 -9.55094e-06 0 1.39722e-06 -8.84959e-06 0 1.31973e-06 -8.21274e-06 0 1.23556e-06 -7.63692e-06 0 1.14593e-06 -7.11889e-06 0 1.05187e-06 -6.65569e-06 0 9.54248e-07 -6.2446e-06 0 8.53764e-07 -5.8832e-06 0 7.51012e-07 -5.56933e-06 0 6.46475e-07 -5.30108e-06 0 5.40552e-07 -5.07683e-06 0 4.33573e-07 -4.89521e-06 0 3.25811e-07 -4.75509e-06 0 2.17498e-07 -4.65563e-06 0 1.08834e-07 -4.59619e-06 0 0 -4.57642e-06 0 1.94044e-06 -3.28641e-05 0 2.12075e-06 -3.06295e-05 0 2.30575e-06 -2.85103e-05 0 2.47854e-06 -2.64982e-05 0 2.62704e-06 -2.45906e-05 0 2.74375e-06 -2.27869e-05 0 2.82537e-06 -2.10877e-05 0 2.87168e-06 -1.94929e-05 0 2.88464e-06 -1.8002e-05 0 2.86741e-06 -1.66131e-05 0 2.82377e-06 -1.53236e-05 0 2.75757e-06 -1.41299e-05 0 2.67254e-06 -1.30281e-05 0 2.57205e-06 -1.20139e-05 0 2.45908e-06 -1.10828e-05 0 2.33622e-06 -1.02302e-05 0 2.20564e-06 -9.45183e-06 0 2.06916e-06 -8.74341e-06 0 1.92827e-06 -8.10097e-06 0 1.78416e-06 -7.52076e-06 0 1.6378e-06 -6.99934e-06 0 1.48993e-06 -6.53355e-06 0 1.34114e-06 -6.12051e-06 0 1.19185e-06 -5.75767e-06 0 1.04237e-06 -5.44275e-06 0 8.9291e-07 -5.17375e-06 0 7.436e-07 -4.94899e-06 0 5.94502e-07 -4.76702e-06 0 4.45631e-07 -4.62668e-06 0 2.96961e-07 -4.52708e-06 0 1.48441e-07 -4.46757e-06 0 0 -4.44778e-06 0 4.22011e-06 -3.29731e-05 0 4.29205e-06 -3.07621e-05 0 4.3764e-06 -2.86406e-05 0 4.45061e-06 -2.66101e-05 0 4.49904e-06 -2.46729e-05 0 4.51321e-06 -2.28343e-05 0 4.49013e-06 -2.10989e-05 0 4.43091e-06 -1.94697e-05 0 4.33894e-06 -1.79476e-05 0 4.2188e-06 -1.65316e-05 0 4.07536e-06 -1.52194e-05 0 3.91327e-06 -1.40071e-05 0 3.73674e-06 -1.28905e-05 0 3.54941e-06 -1.18647e-05 0 3.35435e-06 -1.09248e-05 0 3.15407e-06 -1.00657e-05 0 2.95058e-06 -9.28279e-06 0 2.74548e-06 -8.57131e-06 0 2.53997e-06 -7.92701e-06 0 2.33497e-06 -7.34588e-06 0 2.13113e-06 -6.82422e-06 0 1.92889e-06 -6.35869e-06 0 1.72851e-06 -5.94627e-06 0 1.53011e-06 -5.58426e-06 0 1.33369e-06 -5.27028e-06 0 1.13919e-06 -5.00225e-06 0 9.46426e-07 -4.7784e-06 0 7.55198e-07 -4.59724e-06 0 5.65244e-07 -4.45758e-06 0 3.76272e-07 -4.35848e-06 0 1.87967e-07 -4.29928e-06 0 0 -4.27959e-06 0 6.45908e-06 -3.29906e-05 0 6.45189e-06 -3.08026e-05 0 6.45857e-06 -2.86816e-05 0 6.44954e-06 -2.66286e-05 0 6.40634e-06 -2.46567e-05 0 6.32053e-06 -2.27783e-05 0 6.19145e-06 -2.10036e-05 0 6.02304e-06 -1.93389e-05 0 5.82146e-06 -1.77867e-05 0 5.59347e-06 -1.63463e-05 0 5.34551e-06 -1.50151e-05 0 5.0833e-06 -1.37887e-05 0 4.81163e-06 -1.26621e-05 0 4.53442e-06 -1.16297e-05 0 4.25477e-06 -1.06859e-05 0 3.97506e-06 -9.82525e-06 0 3.69708e-06 -9.04231e-06 0 3.42214e-06 -8.3321e-06 0 3.15113e-06 -7.68995e-06 0 2.8846e-06 -7.11156e-06 0 2.62285e-06 -6.59303e-06 0 2.36597e-06 -6.13079e-06 0 2.11388e-06 -5.72168e-06 0 1.86636e-06 -5.36288e-06 0 1.6231e-06 -5.0519e-06 0 1.38371e-06 -4.78661e-06 0 1.14771e-06 -4.56516e-06 0 9.14615e-07 -4.38602e-06 0 6.83871e-07 -4.24796e-06 0 4.54913e-07 -4.15001e-06 0 2.27155e-07 -4.09152e-06 0 0 -4.07207e-06 0 8.64714e-06 -3.29285e-05 0 8.59939e-06 -3.07851e-05 0 8.55819e-06 -2.86541e-05 0 8.4845e-06 -2.65664e-05 0 8.35746e-06 -2.45464e-05 0 8.17189e-06 -2.26179e-05 0 7.93245e-06 -2.07978e-05 0 7.64843e-06 -1.90952e-05 0 7.33033e-06 -1.75135e-05 0 6.98796e-06 -1.60516e-05 0 6.62978e-06 -1.47057e-05 0 6.26264e-06 -1.34704e-05 0 5.89194e-06 -1.23393e-05 0 5.52176e-06 -1.13061e-05 0 5.15514e-06 -1.0364e-05 0 4.79422e-06 -9.50705e-06 0 4.44048e-06 -8.72915e-06 0 4.09483e-06 -8.02488e-06 0 3.75775e-06 -7.38918e-06 0 3.4294e-06 -6.81747e-06 0 3.10967e-06 -6.30559e-06 0 2.79824e-06 -5.84982e-06 0 2.49466e-06 -5.44684e-06 0 2.19834e-06 -5.09372e-06 0 1.90864e-06 -4.78791e-06 0 1.62482e-06 -4.52718e-06 0 1.3461e-06 -4.30965e-06 0 1.07167e-06 -4.13377e-06 0 8.00709e-07 -3.99826e-06 0 5.32352e-07 -3.90215e-06 0 2.65739e-07 -3.84476e-06 0 0 -3.82568e-06 0 1.07764e-05 -3.28843e-05 0 1.07429e-05 -3.07439e-05 0 1.06936e-05 -2.85869e-05 0 1.05754e-05 -2.64355e-05 0 1.03687e-05 -2.43433e-05 0 1.00778e-05 -2.2348e-05 0 9.71816e-06 -2.04732e-05 0 9.30779e-06 -1.87299e-05 0 8.8632e-06 -1.71201e-05 0 8.39801e-06 -1.56407e-05 0 7.92275e-06 -1.42857e-05 0 7.44534e-06 -1.30477e-05 0 6.97154e-06 -1.19188e-05 0 6.5054e-06 -1.08912e-05 0 6.04968e-06 -9.95721e-06 0 5.60612e-06 -9.10982e-06 0 5.17572e-06 -8.34246e-06 0 4.75889e-06 -7.64917e-06 0 4.35561e-06 -7.02451e-06 0 3.96556e-06 -6.46362e-06 0 3.58815e-06 -5.96212e-06 0 3.22264e-06 -5.51612e-06 0 2.86815e-06 -5.1222e-06 0 2.52371e-06 -4.77732e-06 0 2.18829e-06 -4.47887e-06 0 1.86082e-06 -4.22459e-06 0 1.54019e-06 -4.01256e-06 0 1.22527e-06 -3.84119e-06 0 9.14938e-07 -3.7092e-06 0 6.08046e-07 -3.61562e-06 0 3.03449e-07 -3.55975e-06 0 0 -3.54117e-06 0 1.284e-05 -3.28374e-05 0 1.2907e-05 -3.07521e-05 0 1.29041e-05 -2.8509e-05 0 1.27587e-05 -2.62445e-05 0 1.2466e-05 -2.40404e-05 0 1.20528e-05 -2.19554e-05 0 1.15543e-05 -2.0016e-05 0 1.10008e-05 -1.82302e-05 0 1.04162e-05 -1.65958e-05 0 9.81767e-06 -1.51051e-05 0 9.21752e-06 -1.37486e-05 0 8.62416e-06 -1.2516e-05 0 8.04327e-06 -1.13972e-05 0 7.47847e-06 -1.03827e-05 0 6.93194e-06 -9.46389e-06 0 6.40478e-06 -8.63264e-06 0 5.89732e-06 -7.8818e-06 0 5.40934e-06 -7.2049e-06 0 4.94022e-06 -6.59616e-06 0 4.48905e-06 -6.05045e-06 0 4.05472e-06 -5.56321e-06 0 3.63601e-06 -5.13043e-06 0 3.23158e-06 -4.74857e-06 0 2.84005e-06 -4.41456e-06 0 2.45999e-06 -4.12574e-06 0 2.08998e-06 -3.87981e-06 0 1.72855e-06 -3.67485e-06 0 1.37428e-06 -3.50927e-06 0 1.02573e-06 -3.38179e-06 0 6.81445e-07 -3.29142e-06 0 3.40011e-07 -3.23748e-06 0 0 -3.21954e-06 0 1.48478e-05 -3.30894e-05 0 1.51548e-05 -3.08741e-05 0 1.52671e-05 -2.84611e-05 0 1.50955e-05 -2.59844e-05 0 1.46839e-05 -2.36141e-05 0 1.41125e-05 -2.14139e-05 0 1.3444e-05 -1.94033e-05 0 1.2724e-05 -1.75785e-05 0 1.19822e-05 -1.59274e-05 0 1.12384e-05 -1.44354e-05 0 1.0505e-05 -1.30877e-05 0 9.79019e-06 -1.18705e-05 0 9.09865e-06 -1.07713e-05 0 8.4331e-06 -9.77884e-06 0 7.79471e-06 -8.88308e-06 0 7.18365e-06 -8.07519e-06 0 6.59938e-06 -7.34732e-06 0 6.04089e-06 -6.69258e-06 0 5.50684e-06 -6.10489e-06 0 4.99566e-06 -5.57891e-06 0 4.50567e-06 -5.10994e-06 0 4.03509e-06 -4.69389e-06 0 3.58211e-06 -4.32717e-06 0 3.14491e-06 -4.00669e-06 0 2.72165e-06 -3.72976e-06 0 2.31054e-06 -3.49411e-06 0 1.90977e-06 -3.29782e-06 0 1.51759e-06 -3.13931e-06 0 1.13224e-06 -3.01731e-06 0 7.51997e-07 -2.93085e-06 0 3.75151e-07 -2.87925e-06 0 0 -2.86209e-06 0 1.67433e-05 -3.35561e-05 0 1.76342e-05 -3.1315e-05 0 1.79426e-05 -2.84397e-05 0 1.76705e-05 -2.56081e-05 0 1.70611e-05 -2.30087e-05 0 1.62648e-05 -2.06799e-05 0 1.53834e-05 -1.86037e-05 0 1.4467e-05 -1.67527e-05 0 1.35494e-05 -1.51e-05 0 1.26478e-05 -1.36214e-05 0 1.17736e-05 -1.22964e-05 0 1.09326e-05 -1.11073e-05 0 1.01278e-05 -1.00389e-05 0 9.36041e-06 -9.0784e-06 0 8.63004e-06 -8.21459e-06 0 7.93564e-06 -7.43785e-06 0 7.27561e-06 -6.73985e-06 0 6.64798e-06 -6.11333e-06 0 6.05056e-06 -5.55202e-06 0 5.48108e-06 -5.05044e-06 0 4.9372e-06 -4.60384e-06 0 4.41657e-06 -4.20809e-06 0 3.91687e-06 -3.85961e-06 0 3.43582e-06 -3.55531e-06 0 2.97118e-06 -3.29256e-06 0 2.52076e-06 -3.06911e-06 0 2.08241e-06 -2.88307e-06 0 1.65406e-06 -2.73289e-06 0 1.23365e-06 -2.61734e-06 0 8.19155e-07 -2.53547e-06 0 4.08596e-07 -2.48661e-06 0 0 -2.47037e-06 0 1.86519e-05 -3.55457e-05 0 2.08845e-05 -3.22254e-05 0 2.11797e-05 -2.83311e-05 0 2.05893e-05 -2.49701e-05 0 1.96012e-05 -2.21275e-05 0 1.85025e-05 -1.96919e-05 0 1.73505e-05 -1.7579e-05 0 1.62112e-05 -1.57294e-05 0 1.50982e-05 -1.4099e-05 0 1.40294e-05 -1.26545e-05 0 1.30082e-05 -1.13697e-05 0 1.20384e-05 -1.02236e-05 0 1.11195e-05 -9.19896e-06 0 1.02505e-05 -8.28153e-06 0 9.42928e-06 -7.45925e-06 0 8.65322e-06 -6.72198e-06 0 7.91941e-06 -6.06104e-06 0 7.22482e-06 -5.46902e-06 0 6.56634e-06 -4.93954e-06 0 5.9409e-06 -4.4671e-06 0 5.34547e-06 -4.04698e-06 0 4.77712e-06 -3.6751e-06 0 4.23299e-06 -3.34793e-06 0 3.71033e-06 -3.06247e-06 0 3.20649e-06 -2.81613e-06 0 2.7189e-06 -2.60675e-06 0 2.24507e-06 -2.43251e-06 0 1.7826e-06 -2.2919e-06 0 1.32914e-06 -2.18374e-06 0 8.82382e-07 -2.10712e-06 0 4.40081e-07 -2.0614e-06 0 0 -2.0462e-06 0 1.81406e-05 -4.77656e-05 0 2.62517e-05 -3.26616e-05 0 2.54024e-05 -2.76321e-05 0 2.37059e-05 -2.37985e-05 0 2.23218e-05 -2.08496e-05 0 2.0743e-05 -1.83837e-05 0 1.93255e-05 -1.62937e-05 0 1.79158e-05 -1.44889e-05 0 1.66084e-05 -1.29129e-05 0 1.53601e-05 -1.15289e-05 0 1.41929e-05 -1.03047e-05 0 1.30926e-05 -9.21901e-06 0 1.20615e-05 -8.25215e-06 0 1.10928e-05 -7.38982e-06 0 1.01835e-05 -6.61914e-06 0 9.32858e-06 -5.92999e-06 0 8.52408e-06 -5.31349e-06 0 7.7656e-06 -4.76232e-06 0 7.04914e-06 -4.27013e-06 0 6.37076e-06 -3.83156e-06 0 5.72673e-06 -3.44199e-06 0 5.1135e-06 -3.09747e-06 0 4.52768e-06 -2.79462e-06 0 3.96607e-06 -2.53055e-06 0 3.42559e-06 -2.30281e-06 0 2.90331e-06 -2.10932e-06 0 2.3964e-06 -1.94835e-06 0 1.90215e-06 -1.8185e-06 0 1.41793e-06 -1.71864e-06 0 9.41166e-07 -1.64791e-06 0 4.69351e-07 -1.60571e-06 0 0 -1.59168e-06 0 </DataArray> 
</PointData> 
<Points> 
<DataArray type="Float32" NumberOfComponents="3"> 