<?xml version="1.0"?> 
<VTKFile type="StructuredGrid" version="0.1"> 
<StructuredGrid WholeExtent="0 31 0 31 0 0"> 
<Piece Extent="0 31 0 31 0 0"> 
<PointData>
<DataArray type="Float32" Name="B" format="ascii" NumberOfComponents="3"> 
0 -0 0 -0.000280613 -0 0 -0.000558472 -0 0 -0.000830889 -0 0 -0.00109531 -0 0 -0.00134938 -0 0 -0.00159097 -0 0 -0.00181823 -0 0 -0.00202958 -0 0 -0.00222377 -0 0 -0.00239981 -0 0 -0.00255697 -0 0 -0.00269477 -0 0 -0.00281294 -0 0 -0.00291138 -0 0 -0.00299016 -0 0 -0.00304946 -0 0 -0.00308959 -0 0 -0.00311095 -0 0 -0.00311406 -0 0 -0.00309953 -0 0 -0.00306808 -0 0 -0.00302055 -0 0 -0.00295792 -0 0 -0.00288129 -0 0 -0.0027919 -0 0 -0.00269111 -0 0 -0.00258042 -0 0 -0.00246138 -0 0 -0.00233564 -0 0 -0.00220486 -0 0 -0.00207068 -0 0 0 0.00018752 0 -0.000281227 0.000186596 0 -0.000559684 0.000183847 0 -0.00083267 0.000179342 0 -0.00109762 0.000173191 0 -0.00135216 0.000165538 0 -0.00159416 0.000156555 0 -0.00182177 0.000146431 0 -0.00203341 0.000135362 0 -0.00222781 0.000123543 0 -0.00240401 0.000111159 0 -0.00256127 9.83786e-05 0 -0.00269913 8.53515e-05 0 -0.00281732 7.22066e-05 0 -0.00291576 5.90539e-05 0 -0.00299449 4.59868e-05 0 -0.00305373 3.30859e-05 0 -0.00309376 2.04235e-05 0 -0.00311501 8.06725e-06 0 -0.00311799 -3.91508e-06 0 -0.00310329 -1.54528e-05 0 -0.00307165 -2.647e-05 0 -0.00302391 -3.68842e-05 0 -0.00296104 -4.66077e-05 0 -0.00288413 -5.55498e-05 0 -0.00279444 -6.36215e-05 0 -0.00269332 -7.07403e-05 0 -0.00258227 -7.68365e-05 0 -0.00246287 -8.18581e-05 0 -0.00233676 -8.57752e-05 0 -0.00220561 -8.85828e-05 0 -0.00207107 -9.03015e-05 0 0 0.000375864 0 -0.000283076 0.000374005 0 -0.000563336 0.000368477 0 -0.000838034 0.000359419 0 -0.00110457 0.000347051 0 -0.00136053 0.000331669 0 -0.00160377 0.000313618 0 -0.00183242 0.000293281 0 -0.0020449 0.000271056 0 -0.00223997 0.000247336 0 -0.00241664 0.000222493 0 -0.00257422 0.000196866 0 -0.00271225 0.000170754 0 -0.0028305 0.000144416 0 -0.00292889 0.000118069 0 -0.0030075 9.18992e-05 0 -0.00306653 6.60657e-05 0 -0.00310629 4.07108e-05 0 -0.0031272 1.59685e-05 0 -0.00312977 -8.02745e-06 0 -0.00311459 -3.11367e-05 0 -0.00308239 -5.32076e-05 0 -0.00303401 -7.40751e-05 0 -0.0029704 -9.35626e-05 0 -0.00289266 -0.000111487 0 -0.00280205 -0.000127667 0 -0.00269994 -0.000141936 0 -0.00258784 -0.000154152 0 -0.00246734 -0.000164208 0 -0.00234012 -0.000172045 0 -0.00220786 -0.000177651 0 -0.00207226 -0.000181067 0 0 0.000565865 0 -0.000286181 0.00056305 0 -0.000569466 0.000554681 0 -0.000847037 0.000540969 0 -0.00111622 0.000522255 0 -0.00137457 0.000498987 0 -0.00161988 0.000471697 0 -0.00185027 0.00044097 0 -0.00206416 0.000407414 0 -0.00226031 0.000371626 0 -0.00243776 0.000334173 0 -0.00259586 0.000295566 0 -0.00273418 0.000256256 0 -0.00285251 0.000216627 0 -0.00295082 0.000177004 0 -0.00302921 0.000137661 0 -0.0030879 9.88323e-05 0 -0.0031272 6.07259e-05 0 -0.00314755 2.35384e-05 0 -0.00314944 -1.25333e-05 0 -0.00313346 -4.72813e-05 0 -0.00310033 -8.04794e-05 0 -0.00305088 -0.000111879 0 -0.00298604 -0.000141213 0 -0.00290692 -0.0001682 0 -0.00281479 -0.000192564 0 -0.00271102 -0.000214046 0 -0.00259715 -0.000232429 0 -0.00247481 -0.000247548 0 -0.00234572 -0.000259309 0 -0.0022116 -0.000267694 0 -0.0020742 -0.000272765 0 0 0.000758374 0 -0.000290577 0.000754572 0 -0.000578145 0.000743266 0 -0.000859777 0.000724748 0 -0.00113271 0.000699486 0 -0.00139441 0.000668096 0 -0.00164264 0.000631305 0 -0.00187547 0.000589917 0 -0.00209132 0.000544761 0 -0.00228897 0.000496654 0 -0.0024675 0.000446362 0 -0.00262629 0.000394575 0 -0.00276499 0.000341895 0 -0.00288343 0.000288832 0 -0.00298161 0.000235813 0 -0.00305968 0.000183193 0 -0.00311788 0.000131277 0 -0.00315655 8.03326e-05 0 -0.00317611 3.06131e-05 0 -0.00317705 -1.76263e-05 0 -0.00315996 -6.41137e-05 0 -0.00312554 -0.000108549 0 -0.00307458 -0.000150601 0 -0.00300803 -0.000189905 0 -0.00292698 -0.00022608 0 -0.00283269 -0.000258743 0 -0.00272658 -0.000287538 0 -0.00261022 -0.00031216 0 -0.00248528 -0.000332384 0 -0.00235354 -0.000348077 0 -0.0022168 -0.000359214 0 -0.00207685 -0.000365876 0 0 0.000954274 0 -0.000296316 0.000949438 0 -0.00058947 0.000935065 0 -0.000876397 0.000911532 0 -0.00115421 0.000879447 0 -0.00142027 0.000839608 0 -0.00167226 0.000792959 0 -0.00190823 0.000740537 0 -0.00212659 0.000683417 0 -0.00232614 0.000622649 0 -0.00250602 0.000559211 0 -0.00266568 0.000493977 0 -0.00280482 0.000427701 0 -0.00292336 0.000361015 0 -0.00302135 0.000294441 0 -0.00309899 0.000228411 0 -0.00315655 0.000163289 0 -0.00319439 9.93949e-05 0 -0.00321294 3.70308e-05 0 -0.00321268 -2.34966e-05 0 -0.00319418 -8.18561e-05 0 -0.00315811 -0.000137677 0 -0.00310523 -0.000190542 0 -0.00303648 -0.000239989 0 -0.00295294 -0.000285522 0 -0.00285586 -0.000326644 0 -0.00274671 -0.000362887 0 -0.0026271 -0.000393852 0 -0.00249878 -0.00041924 0 -0.00236359 -0.000438877 0 -0.00222342 -0.000452727 0 -0.00208015 -0.000460892 0 0 0.00115448 0 -0.000303464 0.00114856 0 -0.000603574 0.00113095 0 -0.000897081 0.00110213 0 -0.00118094 0.00106286 0 -0.00145239 0.00101415 0 -0.00170903 0.000957179 0 -0.00194884 0.000893245 0 -0.00217024 0.000823691 0 -0.00237207 0.000749824 0 -0.00255354 0.000672851 0 -0.00271419 0.000593835 0 -0.00285382 0.000513682 0 -0.00297242 0.000433142 0 -0.00307014 0.000352824 0 -0.00314722 0.000273223 0 -0.00320399 0.000194754 0 -0.00324082 0.000117778 0 -0.00325813 4.26336e-05 0 -0.00325642 -3.03281e-05 0 -0.00323621 -0.000100724 0 -0.00319814 -0.000168116 0 -0.00314295 -0.000232001 0 -0.00307151 -0.000291811 0 -0.00298491 -0.000346927 0 -0.00288441 -0.000396718 0 -0.0027715 -0.000440588 0 -0.00264786 -0.000478028 0 -0.00251533 -0.000508658 0 -0.00237586 -0.000532257 0 -0.00223142 -0.000548773 0 -0.00208402 -0.000558331 0 0 0.00135998 0 -0.000312109 0.00135289 0 -0.000620622 0.00133183 0 -0.000922069 0.00129738 0 -0.00121321 0.00125049 0 -0.00149113 0.00119238 0 -0.0017533 0.0011245 0 -0.00199766 0.00104845 0 -0.00222262 0.000965877 0 -0.00242707 0.000878373 0 -0.00261033 0.00078739 0 -0.00277206 0.00069419 0 -0.00291217 0.000599829 0 -0.00303078 0.000505165 0 -0.00312811 0.000410882 0 -0.0032045 0.00031753 0 -0.0032603 0.000225555 0 -0.00329592 0.000135346 0 -0.0033118 4.72684e-05 0 -0.00330838 -3.82971e-05 0 -0.00328619 -0.000120923 0 -0.0032458 -0.000200111 0 -0.00318789 -0.000275269 0 -0.0031133 -0.000345718 0 -0.00302308 -0.0004107 0 -0.00291849 -0.000469428 0 -0.00280106 -0.000521154 0 -0.00267258 -0.000565239 0 -0.00253498 -0.000601211 0 -0.00239032 -0.000628793 0 -0.00224074 -0.00064792 0 -0.00208834 -0.000658733 0 0 0.00157179 0 -0.000322358 0.00156345 0 -0.000640824 0.00153867 0 -0.000951655 0.00149818 0 -0.00125138 0.00144311 0 -0.00153688 0.00137495 0 -0.0018055 0.00129545 0 -0.00205511 0.00120655 0 -0.00228411 0.00111025 0 -0.0024915 0.00100846 0 -0.0026767 0.000902903 0 -0.00283953 0.00079505 0 -0.00298008 0.000686101 0 -0.00309858 0.00057701 0 -0.00319538 0.000468523 0 -0.0032709 0.000361221 0 -0.00332556 0.00025557 0 -0.00335979 0.000151968 0 -0.00337402 5.07892e-05 0 -0.00336869 -4.75684e-05 0 -0.00334426 -0.000142646 0 -0.00330124 -0.00023389 0 -0.00324025 -0.000320627 0 -0.00316205 -0.000402053 0 -0.00306763 -0.000477254 0 -0.00295827 -0.000545257 0 -0.00283555 -0.000605125 0 -0.00270135 -0.000656067 0 -0.00255776 -0.000697503 0 -0.00240698 -0.000729099 0 -0.0022513 -0.00075077 0 -0.00209299 -0.000762676 0 0 0.00179105 0 -0.000334345 0.00178134 0 -0.000664436 0.00175252 0 -0.000986197 0.00170547 0 -0.00129588 0.00164157 0 -0.00159017 0.00156257 0 -0.00186622 0.00147058 0 -0.00212177 0.00136793 0 -0.00235528 0.00125704 0 -0.00256583 0.0011402 0 -0.00275305 0.00101942 0 -0.00291695 0.000896384 0 -0.00305782 0.000772424 0 -0.00317605 0.000648577 0 -0.00327215 0.00052563 0 -0.00334661 0.000404175 0 -0.00339993 0.000284674 0 -0.00343257 0.000167514 0 -0.00344497 5.30594e-05 0 -0.00343751 -5.82922e-05 0 -0.00341062 -0.000166066 0 -0.0033647 -0.000269666 0 -0.00330029 -0.000368338 0 -0.00321804 -0.000461152 0 -0.00311887 -0.000547009 0 -0.00300403 -0.000624709 0 -0.00287516 -0.000693078 0 -0.00273431 -0.000751131 0 -0.00258373 -0.000798181 0 -0.00242582 -0.000833831 0 -0.00226303 -0.000857973 0 -0.00209782 -0.000870781 0 0 0.00201897 0 -0.000348234 0.00200775 0 -0.000691766 0.0019745 0 -0.00102613 0.00192028 0 -0.00134727 0.00184675 0 -0.00165158 0.00175597 0 -0.001936 0.00165045 0 -0.00219821 0.00153297 0 -0.00243661 0.00140647 0 -0.00265048 0.00127368 0 -0.0028397 0.00113693 0 -0.00300455 0.000998112 0 -0.00314555 0.000858683 0 -0.0032633 0.000719735 0 -0.00335846 0.000582066 0 -0.00343165 0.000446256 0 -0.00348343 0.000312736 0 -0.00351429 0.000181859 0 -0.00352467 5.3955e-05 0 -0.00351492 -7.05995e-05 0 -0.00348536 -0.000191333 0 -0.00343633 -0.000307621 0 -0.00336821 -0.000418643 0 -0.00328151 -0.000523336 0 -0.00317704 -0.000620392 0 -0.00305597 -0.000708318 0 -0.0029201 -0.000785626 0 -0.00277159 -0.000851105 0 -0.00261297 -0.000903939 0 -0.00244683 -0.000943692 0 -0.00227583 -0.000970226 0 -0.00210264 -0.000983718 0 0 0.00225689 0 -0.000364225 0.002244 0 -0.000723195 0.00220583 0 -0.00107197 0.0021437 0 -0.00140615 0.0020596 0 -0.00172189 0.00195597 0 -0.00201589 0.00183564 0 -0.00228541 0.00170202 0 -0.00252904 0.00155867 0 -0.00274627 0.00140888 0 -0.00293735 0.00125533 0 -0.00310292 0.00110009 0 -0.00324376 0.000944713 0 -0.00336074 0.000790313 0 -0.00345469 0.000637668 0 -0.00352635 0.000487315 0 -0.00357636 0.000339624 0 -0.00360527 0.000194884 0 -0.00361347 5.33675e-05 0 -0.00360127 -8.45969e-05 0 -0.00356892 -0.000218564 0 -0.00351661 -0.000347905 0 -0.00344454 -0.000471747 0 -0.00335307 -0.000588903 0 -0.00324275 -0.000697831 0 -0.0031147 -0.000796664 0 -0.00297068 -0.000883472 0 -0.00281337 -0.000956713 0 -0.00264554 -0.00101553 0 -0.00247001 -0.00105944 0 -0.0022896 -0.00108829 0 -0.00210726 -0.00110222 0 0 0.00250632 0 -0.000382574 0.00249154 0 -0.000759181 0.00244783 0 -0.00112433 0.0023769 0 -0.00147325 0.00228118 0 -0.00180187 0.00216338 0 -0.00210631 0.00202675 0 -0.00238386 0.00187536 0 -0.00263286 0.00171371 0 -0.00285334 0.00154573 0 -0.00304601 0.00137445 0 -0.00321192 0.00120211 0 -0.00335223 0.00103029 0 -0.00346807 0.000860096 0 -0.00356046 0.000692244 0 -0.00363031 0.000527185 0 -0.00367833 0.000365199 0 -0.00370509 0.000206479 0 -0.00371097 5.12079e-05 0 -0.00369624 -0.000100361 0 -0.003661 -0.000247837 0 -0.00360531 -0.000390617 0 -0.00352918 -0.000527802 0 -0.00343266 -0.000658109 0 -0.00331605 -0.000779752 0 -0.00318017 -0.00089037 0 -0.00302715 -0.000987339 0 -0.00285982 -0.00106877 0 -0.00268156 -0.00113374 0 -0.00249535 -0.00118191 0 -0.00230424 -0.00121301 0 -0.00211142 -0.00122711 0 0 0.00276894 0 -0.000403596 0.00275199 0 -0.000800312 0.00270198 0 -0.00118393 0.00262114 0 -0.00154939 0.00251255 0 -0.00189267 0.00237934 0 -0.00220971 0.00222448 0 -0.00249582 0.00205321 0 -0.00275022 0.0018715 0 -0.00297358 0.001684 0 -0.00316735 0.00149402 0 -0.00333309 0.00130387 0 -0.00347236 0.00111513 0 -0.0035866 0.000928824 0 -0.00367705 0.000745568 0 -0.00374475 0.000565685 0 -0.00379053 0.000389323 0 -0.00381497 0.000216544 0 -0.00381843 4.74106e-05 0 -0.0038011 -0.000117933 0 -0.00376297 -0.000279183 0 -0.0037039 -0.000435794 0 -0.00362366 -0.000586888 0 -0.00352201 -0.000731131 0 -0.00339874 -0.000866546 0 -0.00325424 -0.000990208 0 -0.00309004 -0.00109831 0 -0.0029111 -0.00118812 0 -0.00272109 -0.00125944 0 -0.0025229 -0.00131199 0 -0.00231964 -0.00134531 0 -0.00211487 -0.00135931 0 0 0.0030467 0 -0.000427726 0.00302722 0 -0.000847315 0.00296988 0 -0.00125168 0.00287768 0 -0.0016354 0.00275491 0 -0.00199495 0.00260477 0 -0.00232506 0.00242945 0 -0.00262031 0.00223563 0 -0.0028796 0.00203181 0 -0.00310524 0.00182332 0 -0.00329939 0.00161361 0 -0.00346427 0.00140496 0 -0.00360185 0.00119886 0 -0.00371393 0.000996182 0 -0.00380197 0.000797383 0 -0.00386717 0.000602616 0 -0.00391045 0.000411855 0 -0.0039324 0.000224994 0 -0.00393337 4.1938e-05 0 -0.00391344 -0.000137312 0 -0.00387248 -0.000312572 0 -0.00381013 -0.000483401 0 -0.00372594 -0.000648982 0 -0.00361919 -0.00080803 0 -0.00348928 -0.000958507 0 -0.00333525 -0.00109694 0 -0.00315927 -0.00121727 0 -0.00296726 -0.00131574 0 -0.0027643 -0.00139345 0 -0.00255271 -0.00145063 0 -0.00233572 -0.00148623 0 -0.00211731 -0.00149984 0 0 0.00334191 0 -0.000455497 0.00331938 0 -0.000901231 0.00325331 0 -0.00132867 0.0031479 0 -0.00173209 0.00300893 0 -0.00211024 0.00284274 0 -0.00246053 0.00264283 0 -0.00276406 0.00242228 0 -0.00302754 0.00219408 0 -0.00325431 0.00196313 0 -0.00344792 0.0017327 0 -0.00361102 0.0015049 0 -0.00374615 0.00128104 0 -0.00385539 0.0010618 0 -0.00394049 0.000847397 0 -0.0040028 0.000637763 0 -0.0040433 0.000432654 0 -0.00406261 0.000231757 0 -0.00406105 3.47828e-05 0 -0.0040386 -0.000158448 0 -0.00399494 -0.000347913 0 -0.00392958 -0.00053331 0 -0.00384164 -0.00071395 0 -0.00373027 -0.000888667 0 -0.00359379 -0.00105562 0 -0.00343062 -0.00121195 0 -0.00323549 -0.00134733 0 -0.0030282 -0.00145209 0 -0.00281135 -0.00153665 0 -0.00258502 -0.00159887 0 -0.00235244 -0.00163697 0 -0.00211841 -0.00164995 0 0 0.00365734 0 -0.000487712 0.00363106 0 -0.000963371 0.00355428 0 -0.0014166 0.00343313 0 -0.0018406 0.00327463 0 -0.00223383 0.00309307 0 -0.0025941 0.00286361 0 -0.00290328 0.00261216 0 -0.00316905 0.00235748 0 -0.00339566 0.00210267 0 -0.00358744 0.00185055 0 -0.00374767 0.00160306 0 -0.0038794 0.00136115 0 -0.00398505 0.00112525 0 -0.00406661 0.00089528 0 -0.00412558 0.000670895 0 -0.00416302 0.000451583 0 -0.00417957 0.000236785 0 -0.00417548 2.59726e-05 0 -0.00415062 -0.000181239 0 -0.00410454 -0.000385048 0 -0.00403647 -0.000585299 0 -0.00394528 -0.000781531 0 -0.00382977 -0.000972683 0 -0.00368784 -0.00115733 0 -0.00351747 -0.00133451 0 -0.00331298 -0.0014884 0 -0.00309391 -0.00159701 0 -0.00286281 -0.00168987 0 -0.00262013 -0.00175785 0 -0.00236984 -0.00179896 0 -0.00211782 -0.00181112 0 0 0.00399626 0 -0.000525419 0.00396533 0 -0.00103561 0.00387532 0 -0.00151784 0.00373447 0 -0.0019634 0.00355239 0 -0.00236801 0.00334753 0 -0.00272765 0.00308712 0 -0.00303944 0.00280379 0 -0.00330518 0.00252089 0 -0.00352998 0.00224092 0 -0.00371835 0.00196633 0 -0.00387443 0.00169868 0 -0.00400164 0.00143858 0 -0.00410282 0.00118605 0 -0.00418017 0.000940674 0 -0.00423534 0.000701768 0 -0.00426944 0.000468508 0 -0.00428312 0.000240045 0 -0.00427655 1.55781e-05 0 -0.00424951 -0.000205534 0 -0.00420135 -0.000423728 0 -0.00413104 -0.000639071 0 -0.00403725 -0.000851311 0 -0.00391823 -0.00105959 0 -0.00377215 -0.00126274 0 -0.00359673 -0.00146042 0 -0.00339284 -0.00163249 0 -0.00316549 -0.00175076 0 -0.00291964 -0.00185364 0 -0.00265867 -0.00192909 0 -0.00238809 -0.00197388 0 -0.00211515 -0.00198499 0 0 0.00436294 0 -0.000569992 0.00432609 0 -0.00112056 0.00421937 0 -0.00163558 0.00405365 0 -0.00210448 0.00384213 0 -0.00252216 0.00360553 0 -0.00288718 0.00331177 0 -0.00319938 0.00299561 0 -0.00346315 0.00268296 0 -0.00368392 0.0023767 0 -0.00386713 0.00207898 0 -0.00401749 0.00179092 0 -0.00413896 0.00151262 0 -0.00423468 0.00124366 0 -0.00430709 0.000983185 0 -0.00435796 0.000730129 0 -0.00438844 0.000483306 0 -0.00439916 0.000241536 0 -0.00439023 3.70802e-06 0 -0.00436129 -0.000231114 0 -0.00431149 -0.000463643 0 -0.00423957 -0.000694214 0 -0.00414387 -0.000922803 0 -0.00402237 -0.00114876 0 -0.00387282 -0.00137102 0 -0.00369331 -0.00158874 0 -0.00348304 -0.00177939 0 -0.00324527 -0.00191325 0 -0.00298327 -0.00202912 0 -0.00270163 -0.0021143 0 -0.00240739 -0.00216386 0 -0.00210989 -0.00217382 0 0 0.00476272 0 -0.000623418 0.00471824 0 -0.00122158 0.00459005 0 -0.00177417 0.0043928 0 -0.00226851 0.00414432 0 -0.00269966 0.0038692 0 -0.00306829 0.00353752 0 -0.00337915 0.00318609 0 -0.00363831 0.00284211 0 -0.00385269 0.00250861 0 -0.00402861 0.00218732 0 -0.00417151 0.00187877 0 -0.00428582 0.00158248 0 -0.00437501 0.00129748 0 -0.00444171 0.00102239 0 -0.00448776 0.000755718 0 -0.00451435 0.000495864 0 -0.00452207 0.000241282 0 -0.00451094 -9.48291e-06 0 -0.00448045 -0.000257698 0 -0.00442959 -0.000504397 0 -0.0043568 -0.00075022 0 -0.00426011 -0.00099542 0 -0.00413709 -0.00123956 0 -0.00398512 -0.0014816 0 -0.00380165 -0.00172032 0 -0.00358534 -0.00193191 0 -0.0033359 -0.00208511 0 -0.00305579 -0.00221787 0 -0.00275028 -0.00231568 0 -0.00242822 -0.0023716 0 -0.00210152 -0.00238025 0 0 0.00520266 0 -0.000688321 0.00514802 0 -0.00134333 0.00499188 0 -0.00193906 0.00475428 0 -0.00246093 0.00445958 0 -0.00290517 0.00413799 0 -0.00327633 0.00376307 0 -0.00358284 0.00337341 0 -0.00383435 0.00299651 0 -0.00403946 0.002635 0 -0.00420568 0.00228996 0 -0.00433915 0.00196114 0 -0.00444477 0.00164732 0 -0.00452628 0.00134688 0 -0.00458643 0.00105787 0 -0.00462714 0.000778277 0 -0.00464959 0.000506085 0 -0.00465429 0.00023934 0 -0.00464119 -2.37909e-05 0 -0.00460962 -0.000284941 0 -0.00455837 -0.000545508 0 -0.00448562 -0.000806485 0 -0.004389 -0.00106846 0 -0.00426567 -0.00133123 0 -0.00411238 -0.0015939 0 -0.00392583 -0.0018551 0 -0.00370252 -0.00209048 0 -0.00344031 -0.00226741 0 -0.0031398 -0.00242175 0 -0.00280649 -0.00253607 0 -0.00245118 -0.00260054 0 -0.00208922 -0.00260799 0 0 0.00569167 0 -0.000768505 0.00562364 0 -0.00149203 0.0054304 0 -0.00213741 0.0051406 0 -0.00268828 0.004788 0 -0.00314338 0.00441017 0 -0.0035123 0.00398611 0 -0.0038103 0.00355518 0 -0.00405025 0.00314394 0 -0.00424279 0.00275398 0 -0.00439655 0.00238535 0 -0.00451843 0.0020368 0 -0.0046137 0.00170621 0 -0.00468631 0.00139119 0 -0.00473909 0.00108915 0 -0.00477394 0.000797551 0 -0.004792 0.000513892 0 -0.00479373 0.0002358 0 -0.00477894 -3.89624e-05 0 -0.00474684 -0.00031243 0 -0.004696 -0.000586402 0 -0.00462433 -0.000862289 0 -0.00452908 -0.00114107 0 -0.00440686 -0.0014229 0 -0.0042538 -0.00170709 0 -0.00406558 -0.00199243 0 -0.00383714 -0.00225491 0 -0.00356202 -0.00246115 0 -0.00323869 -0.002643 0 -0.00287271 -0.00277902 0 -0.00247722 -0.00285523 0 -0.00207215 -0.00286112 0 0 0.00624282 0 -0.000869309 0.00615572 0 -0.00167648 0.00591239 0 -0.00237856 0.00555425 0 -0.00295879 0.00512852 0 -0.00342024 0.00468305 0 -0.00378038 0.00420319 0 -0.00406402 0.00372833 0 -0.00428779 0.00328178 0 -0.00446388 0.0028634 0 -0.00460216 0.00247179 0 -0.0047101 0.00210445 0 -0.00479329 0.00175818 0 -0.00485576 0.00142972 0 -0.00490031 0.0011158 0 -0.0049288 0.000813301 0 -0.00494228 0.000519235 0 -0.00494111 0.00023079 0 -0.00492499 -5.46947e-05 0 -0.00489299 -0.000339677 0 -0.00484349 -0.000626414 0 -0.00477413 -0.000916779 0 -0.00468175 -0.00121226 0 -0.00456241 -0.00151344 0 -0.00441141 -0.00181998 0 -0.00422383 -0.0021311 0 -0.00399282 -0.00242475 0 -0.00370554 -0.00266692 0 -0.00335691 -0.00288422 0 -0.00295249 -0.00304908 0 -0.0025077 -0.00314147 0 -0.00204876 -0.00314669 0 0 0.00687193 0 -0.000999013 0.00675895 0 -0.00190903 0.00644589 0 -0.00267503 0.00599689 0 -0.00328266 0.00547928 0 -0.00374314 0.00494897 0 -0.00408189 0.00440867 0 -0.00434493 0.00388915 0 -0.0045468 0.00340699 0 -0.00470222 0.00296083 0 -0.00482164 0.00254744 0 -0.00491322 0.00216272 0 -0.00498255 0.00180225 0 -0.00503363 0.0014618 0 -0.00506915 0.00113739 0 -0.00509081 0.000825309 0 -0.00509955 0.000522089 0 -0.00509561 0.000224471 0 -0.00507859 -7.06335e-05 0 -0.0050474 -0.000366135 0 -0.00500029 -0.000664772 0 -0.00493462 -0.000968981 0 -0.00484693 -0.00128083 0 -0.00473243 -0.00160154 0 -0.00458599 -0.0019312 0 -0.00440094 -0.00226838 0 -0.00417456 -0.00259558 0 -0.00387672 -0.00288566 0 -0.00350054 -0.0031481 0 -0.00305076 -0.00335189 0 -0.00254486 -0.00346751 0 -0.00201747 -0.00347096 0 0 0.00760685 0 -0.0011702 0.00745254 0 -0.00220811 0.00704028 0 -0.00304317 0.00646858 0 -0.00367193 0.00583584 0 -0.00412483 0.00520481 0 -0.00444364 0.00459867 0 -0.00467891 0.00403339 0 -0.0048529 0.00351608 0 -0.00498268 0.00304362 0 -0.00507981 0.00261036 0 -0.00515251 0.00221022 0 -0.00520625 0.00183743 0 -0.00524477 0.00148676 0 -0.00527049 0.00115351 0 -0.00528493 0.00083339 0 -0.00528883 0.000522464 0 -0.0052823 0.000217043 0 -0.00526483 -8.63832e-05 0 -0.00523525 -0.00039119 0 -0.00519167 -0.000700623 0 -0.00513127 -0.00101776 0 -0.00505024 -0.00134536 0 -0.00494325 -0.00168557 0 -0.0048038 -0.00203918 0 -0.00462325 -0.00240407 0 -0.00439294 -0.00276883 0 -0.00408262 -0.00311754 0 -0.00367752 -0.00343736 0 -0.00317513 -0.00369458 0 -0.00259215 -0.00384381 0 -0.00197509 -0.00384968 0 0 0.00847871 0 -0.00140415 0.00826567 0 -0.00260119 0.00770447 0 -0.00350477 0.0069657 0 -0.00413929 0.00618909 0 -0.004569 0.00544859 0 -0.00485825 0.00476925 0 -0.005056 0.00415587 0 -0.00519483 0.00360512 0 -0.00529376 0.003109 0 -0.00536507 0.00265858 0 -0.00541647 0.00224558 0 -0.005453 0.0018628 0 -0.00547788 0.00150401 0 -0.00549316 0.00116381 0 -0.00550003 0.000837398 0 -0.00549904 0.000520401 0 -0.00549015 0.000208735 0 -0.00547276 -0.000101514 0 -0.00544563 -0.000414177 0 -0.0054068 -0.000733039 0 -0.0053534 -0.00106186 0 -0.0052813 -0.00140425 0 -0.00518487 -0.00176349 0 -0.00505601 -0.00214177 0 -0.00488379 -0.00253874 0 -0.00465015 -0.00294875 0 -0.00433072 -0.0033607 0 -0.00389878 -0.00375405 0 -0.00333707 -0.00408517 0 -0.0026559 -0.0042872 0 -0.00191782 -0.00429192 0 0 0.00956107 0 -0.00173851 0.00923556 0 -0.00313067 0.00844603 0 -0.00408789 0.0074756 0 -0.00469736 0.00652365 0 -0.00507457 0.00566448 0 -0.00530748 0.00491014 0 -0.00545456 0.00425027 0 -0.0055497 0.00366984 0 -0.00561264 0.00315411 0 -0.00565469 0.00269022 0 -0.00568265 0.00226758 0 -0.00570055 0.00187756 0 -0.00571091 0.00151304 0 -0.00571521 0.00116801 0 -0.00571429 0.000837237 0 -0.00570843 0.000515978 0 -0.00569745 0.000199804 0 -0.00568066 -0.000115572 0 -0.00565683 -0.000434406 0 -0.00562403 -0.000761028 0 -0.0055794 -0.00109989 0 -0.00551882 -0.00145561 0 -0.00543629 -0.0018328 0 -0.00532314 -0.00223575 0 -0.00516611 -0.00266736 0 -0.00494518 -0.00312761 0 -0.00462921 -0.0036108 0 -0.00417917 -0.00409681 0 -0.00355505 -0.0045336 0 -0.00274789 -0.00481829 0 -0.00183886 -0.00484143 0 0 0.010931 0 -0.00224304 0.0104261 0 -0.00386364 0.00925849 0 -0.00482552 0.00797131 0 -0.00535717 0.00681367 0 -0.00564259 0.00583285 0 -0.00579571 0.00500889 0 -0.00587711 0.00430936 0 -0.00592032 0.00370594 0 -0.0059423 0.00317629 0 -0.00595226 0.00270364 0 -0.00595498 0.00227516 0 -0.00595319 0.00188104 0 -0.00594837 0.00151343 0 -0.00594135 0.0011659 0 -0.00593251 0.000832861 0 -0.00592186 0.000509305 0 -0.00590907 0.000190518 0 -0.00589344 -0.000128095 0 -0.00587377 -0.000451184 0 -0.00584825 -0.000783578 0 -0.0058142 -0.00113045 0 -0.00576769 -0.0014974 0 -0.00570295 -0.00189063 0 -0.00561106 -0.00231681 0 -0.00547831 -0.00278299 0 -0.00528203 -0.00329563 0 -0.0049872 -0.00385786 0 -0.00453792 -0.00445902 0 -0.00385991 -0.00504643 0 -0.00289126 -0.00547704 0 -0.00172416 -0.00551034 0 0 0.0128569 0 -0.00307277 0.0119057 0 -0.0048954 0.0101071 0 -0.00575281 0.00839869 0 -0.00612083 0.00702239 0 -0.00626749 0.00593117 0 -0.00631311 0.00505252 0 -0.00631535 0.00432618 0 -0.00629912 0.00370947 0 -0.00627644 0.00317341 0 -0.00625217 0.00269755 0 -0.00622855 0.00226759 0 -0.0062064 0.00187279 0 -0.00618606 0.00150497 0 -0.00616755 0.00115737 0 -0.00615078 0.000824289 0 -0.00613548 0.000500515 0 -0.00612121 0.000181154 0 -0.00610725 -0.000138643 0 -0.00609253 -0.000463837 0 -0.00607546 -0.000799727 0 -0.00605369 -0.0011521 0 -0.00602383 -0.00152757 0 -0.00598062 -0.0019338 0 -0.00591609 -0.00238011 0 -0.00581705 -0.00287781 0 -0.00566189 -0.00344101 0 -0.00541198 -0.00408582 0 -0.00499928 -0.00482179 0 -0.00429956 -0.00562466 0 -0.00314186 -0.00630845 0 -0.00155814 -0.00645359 0 0 0.0157611 0 -0.00455067 0.0137739 0 -0.00635635 0.0108568 0 -0.00688192 0.00867264 0 -0.00697723 0.00710262 0 -0.00693327 0.00593616 0 -0.00684919 0.00502956 0 -0.00676107 0.00429479 0 -0.00668097 0.00367776 0 -0.00661133 0.00314398 0 -0.00655208 0.00267132 0 -0.0065017 0.00224449 0 -0.00645912 0.00185267 0 -0.00642321 0.00148754 0 -0.00639327 0.00114244 0 -0.00636868 0.000811589 0 -0.00634893 0.00048977 0 -0.00633348 0.000171973 0 -0.00632166 -0.000146802 0 -0.0063126 -0.000471775 0 -0.00630497 -0.000808576 0 -0.00629704 -0.00116356 0 -0.00628596 -0.00154411 0 -0.00626794 -0.00195931 0 -0.00623607 -0.00242065 0 -0.00618065 -0.00294369 0 -0.00608173 -0.00355012 0 -0.00590725 -0.00427117 0 -0.00558255 -0.00515053 0 -0.00495069 -0.00622909 0 -0.00362644 -0.00741193 0 -0.001256 -0.0077526 0 0 0.0220806 0 -0.00747988 0.0157484 0 -0.00828128 0.0112225 0 -0.00820007 0.00867436 0 -0.00787129 0.00700842 0 -0.007624 0.00582806 0 -0.00737961 0.0049322 0 -0.00720633 0.00421195 0 -0.00705579 0.00360976 0 -0.00694263 0.00308769 0 -0.00684729 0.00262497 0 -0.00677163 0.00220594 0 -0.00670859 0.00182076 0 -0.00665769 0.00146127 0 -0.00661646 0.00112119 0 -0.00658433 0.000794889 0 -0.00656035 0.000477236 0 -0.006544 0.000163218 0 -0.00653476 -0.000152233 0 -0.00653181 -0.000474487 0 -0.0065346 -0.000809407 0 -0.00654132 -0.00116374 0 -0.00655148 -0.0015454 0 -0.00656009 -0.00196451 0 -0.0065679 -0.00243413 0 -0.0065592 -0.00297294 0 -0.00653966 -0.00360912 0 -0.00645401 -0.00438619 0 -0.00630988 -0.00538823 0 -0.00586157 -0.00674824 0 -0.00472593 -0.00879732 0 -0.00070911 -0.0104543 0 0 0.0479429 0 -0.0116632 0.0144304 0 -0.0113894 0.0111549 0 -0.00903776 0.00819689 0 -0.00904332 0.00674427 0 -0.00814119 0.00558816 0 -0.00796892 0.0047601 0 -0.00759463 0.00407912 0 -0.00743833 0.0035054 0 -0.00725397 0.00300647 0 -0.00714002 0.00255874 0 -0.00703302 0.00215289 0 -0.00695425 0.00177729 0 -0.00688722 0.00142653 0 -0.00683601 0.00109378 0 -0.00679626 0.000774391 0 -0.00676843 0.000463057 0 -0.00675149 0.000155111 0 -0.00674485 -0.000154703 0 -0.00674899 -0.000471557 0 -0.0067615 -0.000801777 0 -0.00678612 -0.0011517 0 -0.00681363 -0.00153047 0 -0.00686054 -0.00194719 0 -0.00689129 -0.0024176 0 -0.00697241 -0.00296009 0 -0.00696822 -0.00360444 0 -0.00713211 -0.00441446 0 -0.00696113 -0.00544336 0 -0.00733007 -0.00706622 0 -0.00677627 -0.00937587 0 0.00287815 -0.0223733 0 </DataArray> 
</PointData> 
<Points> 
<DataArray type="Float32" NumberOfComponents="3"> 