<?xml version="1.0"?> 
<VTKFile type="StructuredGrid" version="0.1"> 
<StructuredGrid WholeExtent="0 31 0 31 0 0"> 
<Piece Extent="0 31 0 31 0 0"> 
<PointData>
<DataArray type="Float32" Name="B" format="ascii" NumberOfComponents="3"> 
-0.00207068 -0 0 -0.00198013 -0 0 -0.00188924 -0 0 -0.00179844 -0 0 -0.00170812 -0 0 -0.00161867 -0 0 -0.00153042 -0 0 -0.00144368 -0 0 -0.0013587 -0 0 -0.00127573 -0 0 -0.00119493 -0 0 -0.00111647 -0 0 -0.00104045 -0 0 -0.000966949 -0 0 -0.000895999 -0 0 -0.000827609 -0 0 -0.000761757 -0 0 -0.00069839 -0 0 -0.000637434 -0 0 -0.000578791 -0 0 -0.000522345 -0 0 -0.00046796 -0 0 -0.000415489 -0 0 -0.00036477 -0 0 -0.000315632 -0 0 -0.000267895 -0 0 -0.000221369 -0 0 -0.000175862 -0 0 -0.000131174 -0 0 -8.71051e-05 -0 0 -4.3449e-05 -0 0 0 -0 0 -0.00207107 -9.03021e-05 0 -0.0019803 -9.08657e-05 0 -0.0018892 -9.09865e-05 0 -0.00179819 -9.06889e-05 0 -0.00170769 -9.00018e-05 0 -0.00161807 -8.89576e-05 0 -0.00152966 -8.75914e-05 0 -0.00144279 -8.59405e-05 0 -0.0013577 -8.40437e-05 0 -0.00127463 -8.19402e-05 0 -0.00119376 -7.96696e-05 0 -0.00111525 -7.72704e-05 0 -0.00103919 -7.478e-05 0 -0.00096567 -7.22342e-05 0 -0.000894717 -6.96667e-05 0 -0.000826339 -6.71085e-05 0 -0.000760512 -6.45883e-05 0 -0.000697183 -6.21323e-05 0 -0.000636276 -5.97636e-05 0 -0.000577692 -5.75029e-05 0 -0.000521312 -5.53685e-05 0 -0.000467002 -5.33761e-05 0 -0.000414612 -5.15392e-05 0 -0.000363979 -4.98694e-05 0 -0.000314932 -4.83764e-05 0 -0.000267288 -4.7068e-05 0 -0.000220859 -4.5951e-05 0 -0.000175451 -4.50305e-05 0 -0.000130865 -4.43105e-05 0 -8.68983e-05 -4.37942e-05 0 -4.33454e-05 -4.34836e-05 0 -8.66002e-19 -4.33799e-05 0 -0.00207226 -0.000181068 0 -0.0019808 -0.000182175 0 -0.00188905 -0.000182392 0 -0.00179743 -0.000181768 0 -0.00170637 -0.000180361 0 -0.00161624 -0.000178238 0 -0.00152738 -0.000175468 0 -0.0014401 -0.000172127 0 -0.00135468 -0.000168294 0 -0.00127133 -0.000164048 0 -0.00119024 -0.000159467 0 -0.00111156 -0.000154632 0 -0.00103539 -0.000149615 0 -0.000961814 -0.00014449 0 -0.000890854 -0.000139323 0 -0.000822513 -0.000134178 0 -0.000756764 -0.000129112 0 -0.000693551 -0.000124177 0 -0.000632792 -0.000119419 0 -0.000574385 -0.000114879 0 -0.000518208 -0.000110595 0 -0.000464122 -0.000106596 0 -0.000411975 -0.000102911 0 -0.000361602 -9.95618e-05 0 -0.000312826 -9.65677e-05 0 -0.000265465 -9.39445e-05 0 -0.000219328 -9.17052e-05 0 -0.000174219 -8.98601e-05 0 -0.000129937 -8.84172e-05 0 -8.6277e-05 -8.73825e-05 0 -4.30342e-05 -8.67601e-05 0 0 -8.65523e-05 0 -0.0020742 -0.000272767 0 -0.00198159 -0.000274377 0 -0.00188875 -0.000274639 0 -0.00179612 -0.00027363 0 -0.00170411 -0.000271439 0 -0.00161312 -0.000268164 0 -0.0015235 -0.000263915 0 -0.00143556 -0.000258807 0 -0.00134957 -0.000252957 0 -0.00126575 -0.000246488 0 -0.0011843 -0.000239521 0 -0.00110535 -0.000232173 0 -0.001029 -0.000224558 0 -0.000955335 -0.000216786 0 -0.000884365 -0.000208958 0 -0.000816091 -0.000201169 0 -0.000750478 -0.000193504 0 -0.000687461 -0.000186043 0 -0.000626953 -0.000178854 0 -0.000568846 -0.000172 0 -0.00051301 -0.000165534 0 -0.000459302 -0.000159503 0 -0.000407564 -0.000153946 0 -0.000357624 -0.000148899 0 -0.000309305 -0.000144388 0 -0.000262418 -0.000140437 0 -0.000216769 -0.000137065 0 -0.000172159 -0.000134287 0 -0.000128384 -0.000132116 0 -8.5239e-05 -0.000130558 0 -4.25142e-05 -0.000129622 0 0 -0.000129309 0 -0.00207685 -0.000365879 0 -0.00198263 -0.000367928 0 -0.00188824 -0.00036816 0 -0.00179417 -0.000366677 0 -0.00170083 -0.000363601 0 -0.00160864 -0.000359067 0 -0.00151794 -0.000353223 0 -0.00142907 -0.000346227 0 -0.00134228 -0.00033824 0 -0.00125781 -0.000329428 0 -0.00117585 -0.000319954 0 -0.00109652 -0.000309979 0 -0.00101994 -0.000299658 0 -0.000946149 -0.000289137 0 -0.000875176 -0.000278553 0 -0.000807005 -0.000268033 0 -0.00074159 -0.000257692 0 -0.000678857 -0.000247635 0 -0.000618711 -0.000237954 0 -0.000561032 -0.000228731 0 -0.000505682 -0.000220037 0 -0.000452511 -0.000211933 0 -0.000401351 -0.000204472 0 -0.000352026 -0.000197698 0 -0.000304351 -0.000191647 0 -0.000258132 -0.000186349 0 -0.00021317 -0.00018183 0 -0.000169263 -0.000178108 0 -0.000126203 -0.000175199 0 -8.37801e-05 -0.000173113 0 -4.17834e-05 -0.000171859 0 0 -0.00017144 0 -0.00208015 -0.000460896 0 -0.00198382 -0.000463301 0 -0.00188743 -0.000463399 0 -0.00179147 -0.000461321 0 -0.00169641 -0.000457223 0 -0.00160264 -0.000451281 0 -0.00151056 -0.000443685 0 -0.00142047 -0.000434638 0 -0.00133266 -0.000424348 0 -0.00124736 -0.000413028 0 -0.00116474 -0.000400887 0 -0.00108495 -0.000388131 0 -0.00100807 -0.000374956 0 -0.000934142 -0.000361548 0 -0.000863181 -0.000348081 0 -0.000795158 -0.000334715 0 -0.000730014 -0.000321594 0 -0.000667665 -0.000308849 0 -0.000607999 -0.000296594 0 -0.000550885 -0.000284931 0 -0.000496175 -0.000273948 0 -0.000443706 -0.00026372 0 -0.000393301 -0.00025431 0 -0.000344777 -0.000245772 0 -0.000297939 -0.000238151 0 -0.000252587 -0.000231483 0 -0.000208517 -0.000225797 0 -0.000165519 -0.000221116 0 -0.000123383 -0.000217458 0 -8.1895e-05 -0.000214836 0 -4.08393e-05 -0.00021326 0 0 -0.000212733 0 -0.00208402 -0.000558335 0 -0.00198505 -0.000560988 0 -0.00188617 -0.000560817 0 -0.00178788 -0.000557987 0 -0.00169067 -0.000552692 0 -0.00159497 -0.00054515 0 -0.00150116 -0.000535599 0 -0.00140959 -0.000524292 0 -0.00132053 -0.000511487 0 -0.00123421 -0.000497448 0 -0.00115081 -0.000482435 0 -0.00107046 -0.0004667 0 -0.000993235 -0.000450484 0 -0.000919163 -0.000434016 0 -0.000848242 -0.000417507 0 -0.000780426 -0.00040115 0 -0.000715642 -0.000385119 0 -0.000653786 -0.00036957 0 -0.000594731 -0.00035464 0 -0.000538332 -0.00034045 0 -0.000484425 -0.000327103 0 -0.000432834 -0.000314686 0 -0.000383371 -0.000303274 0 -0.000335841 -0.000292929 0 -0.00029004 -0.000283702 0 -0.00024576 -0.000275633 0 -0.00020279 -0.000268757 0 -0.000160914 -0.000263099 0 -0.000119916 -0.00025868 0 -7.95772e-05 -0.000255513 0 -3.96785e-05 -0.000253609 0 0 -0.000252974 0 -0.00208834 -0.000658738 0 -0.0019862 -0.000661504 0 -0.00188431 -0.000660899 0 -0.00178321 -0.000657122 0 -0.00168342 -0.00065041 0 -0.00158539 -0.00064103 0 -0.00148953 -0.000629272 0 -0.00139618 -0.000615443 0 -0.00130564 -0.00059986 0 -0.00121813 -0.000582842 0 -0.00113383 -0.000564702 0 -0.00105284 -0.000545746 0 -0.000975238 -0.000526262 0 -0.00090103 -0.000506523 0 -0.000830191 -0.000486778 0 -0.000762659 -0.000467255 0 -0.000698337 -0.000448158 0 -0.000637101 -0.000429668 0 -0.000578805 -0.000411944 0 -0.000523284 -0.000395124 0 -0.000470357 -0.000379324 0 -0.000419832 -0.000364645 0 -0.000371507 -0.00035117 0 -0.000325174 -0.000338966 0 -0.000280618 -0.000328092 0 -0.000237623 -0.00031859 0 -0.000195968 -0.000310498 0 -0.000155431 -0.000303844 0 -0.000115789 -0.000298649 0 -7.68193e-05 -0.000294927 0 -3.82976e-05 -0.00029269 0 0 -0.000291944 0 -0.00209299 -0.000762682 0 -0.00198709 -0.0007654 0 -0.00188164 -0.000764159 0 -0.00177723 -0.000759198 0 -0.00167439 -0.000750801 0 -0.00157363 -0.000739291 0 -0.00147537 -0.000725017 0 -0.00137996 -0.000708349 0 -0.00128771 -0.000689668 0 -0.00119885 -0.000669355 0 -0.00111352 -0.000647784 0 -0.00103184 -0.000625316 0 -0.000953837 -0.000602293 0 -0.000879519 -0.000579032 0 -0.000808829 -0.000555823 0 -0.000741677 -0.000532929 0 -0.000677942 -0.000510585 0 -0.000617474 -0.000488996 0 -0.000560102 -0.000468341 0 -0.00050564 -0.000448773 0 -0.000453886 -0.000430423 0 -0.000404629 -0.000413399 0 -0.000357651 -0.000397791 0 -0.000312729 -0.000383674 0 -0.000269637 -0.000371106 0 -0.000228146 -0.000360136 0 -0.000188027 -0.000350801 0 -0.000149052 -0.000343129 0 -0.00011099 -0.000337142 0 -7.36134e-05 -0.000332855 0 -3.66927e-05 -0.000330279 0 0 -0.00032942 0 -0.00209782 -0.000870788 0 -0.00198753 -0.000873264 0 -0.00187793 -0.000871146 0 -0.00176965 -0.000864715 0 -0.00166329 -0.000854311 0 -0.00155936 -0.000840318 0 -0.00145834 -0.000823157 0 -0.00136058 -0.000803269 0 -0.0012664 -0.000781107 0 -0.001176 -0.000757123 0 -0.00108956 -0.000731759 0 -0.00100713 -0.000705438 0 -0.00092875 -0.000678557 0 -0.000854374 -0.000651483 0 -0.000783923 -0.000624548 0 -0.000717275 -0.00059805 0 -0.000654276 -0.000572254 0 -0.000594746 -0.000547387 0 -0.000538488 -0.000523647 0 -0.000485286 -0.000501202 0 -0.000434916 -0.000480192 0 -0.000387146 -0.000460733 0 -0.000341738 -0.00044292 0 -0.000298454 -0.000426829 0 -0.000257053 -0.000412522 0 -0.000217296 -0.000400046 0 -0.000178944 -0.000389439 0 -0.00014176 -0.000380728 0 -0.000105507 -0.000373935 0 -6.99512e-05 -0.000369072 0 -3.48597e-05 -0.000366151 0 0 -0.000365177 0 -0.00210264 -0.000983726 0 -0.00198728 -0.000985736 0 -0.00187288 -0.000982454 0 -0.00176015 -0.000974212 0 -0.00164973 -0.000961414 0 -0.00154219 -0.000944519 0 -0.00143802 -0.000924026 0 -0.00133761 -0.000900463 0 -0.00124127 -0.000874365 0 -0.00114921 -0.000846267 0 -0.00106156 -0.000816687 0 -0.000978378 -0.000786115 0 -0.000899648 -0.00075501 0 -0.000825298 -0.000723789 0 -0.000755209 -0.000692829 0 -0.000689219 -0.000662464 0 -0.000627136 -0.000632986 0 -0.000568746 -0.000604645 0 -0.000513815 -0.000577654 0 -0.0004621 -0.000552192 0 -0.000413346 -0.000528406 0 -0.0003673 -0.000506418 0 -0.000323702 -0.000486323 0 -0.000282295 -0.000468198 0 -0.000242826 -0.000452104 0 -0.000205042 -0.000438086 0 -0.000168694 -0.00042618 0 -0.000133536 -0.00041641 0 -9.93263e-05 -0.000408795 0 -6.58251e-05 -0.000403347 0 -3.2795e-05 -0.000400076 0 0 -0.000398985 0 -0.00210726 -0.00110223 0 -0.00198607 -0.00110352 0 -0.00186616 -0.00109873 0 -0.00174832 -0.00108828 0 -0.00163327 -0.00107262 0 -0.00152163 -0.00105232 0 -0.00141392 -0.00102797 0 -0.00131056 -0.00100019 0 -0.00121185 -0.000969621 0 -0.00111799 -0.000936891 0 -0.00102909 -0.000902601 0 -0.000945161 -0.000867319 0 -0.000866157 -0.00083157 0 -0.000791956 -0.000795826 0 -0.00072239 -0.000760508 0 -0.000657251 -0.000725985 0 -0.000596301 -0.000692575 0 -0.000539284 -0.000660547 0 -0.000485927 -0.000630127 0 -0.00043595 -0.000601501 0 -0.00038907 -0.00057482 0 -0.000345005 -0.000550206 0 -0.000303474 -0.000527753 0 -0.000264201 -0.000507535 0 -0.000226915 -0.000489608 0 -0.000191352 -0.000474014 0 -0.000157253 -0.000460783 0 -0.000124365 -0.000449935 0 -9.24376e-05 -0.000441486 0 -6.12282e-05 -0.000435446 0 -3.04952e-05 -0.000431819 0 0 -0.00043061 0 -0.00211142 -0.00122713 0 -0.00198355 -0.00122738 0 -0.00185735 -0.0012207 0 -0.0017337 -0.00120755 0 -0.00161339 -0.00118849 0 -0.00149713 -0.00116418 0 -0.00138546 -0.00113534 0 -0.00127884 -0.00110271 0 -0.00117756 -0.00106704 0 -0.00108179 -0.00102907 0 -0.000991622 -0.000989498 0 -0.000907012 -0.000948983 0 -0.000827854 -0.000908116 0 -0.000753972 -0.000867428 0 -0.000685139 -0.000827384 0 -0.000621089 -0.000788386 0 -0.000561533 -0.000750775 0 -0.000506161 -0.000714835 0 -0.000454657 -0.0006808 0 -0.000406702 -0.000648859 0 -0.00036198 -0.000619163 0 -0.000320176 -0.000591828 0 -0.000280988 -0.000566944 0 -0.000244119 -0.000544578 0 -0.000209282 -0.000524778 0 -0.0001762 -0.000507577 0 -0.000144603 -0.000493 0 -0.000114232 -0.000481061 0 -8.48319e-05 -0.000471769 0 -5.61551e-05 -0.00046513 0 -2.7958e-05 -0.000461145 0 0 -0.000459817 0 -0.00211487 -0.00135932 0 -0.00197937 -0.0013582 0 -0.00184598 -0.00134916 0 -0.0017157 -0.00133273 0 -0.00158945 -0.00130961 0 -0.00146799 -0.00128058 0 -0.00135194 -0.0012465 0 -0.00124176 -0.00120826 0 -0.00113772 -0.00116675 0 -0.00103999 -0.00112283 0 -0.000948583 -0.00107733 0 -0.000863401 -0.00103099 0 -0.000784267 -0.000984472 0 -0.000710933 -0.000938374 0 -0.000643099 -0.000893203 0 -0.000580433 -0.00084939 0 -0.000522577 -0.000807294 0 -0.000469169 -0.00076721 0 -0.000419839 -0.000729372 0 -0.000374224 -0.000693968 0 -0.000331971 -0.00066114 0 -0.000292735 -0.000630996 0 -0.000256186 -0.000603615 0 -0.000222007 -0.000579053 0 -0.000189896 -0.000557345 0 -0.000159563 -0.000538516 0 -0.00013073 -0.000522579 0 -0.000103129 -0.00050954 0 -7.65037e-05 -0.0004994 0 -5.06029e-05 -0.000492159 0 -2.5182e-05 -0.000487815 0 0 -0.000486367 0 -0.00211731 -0.00149986 0 -0.00197308 -0.00149698 0 -0.00183147 -0.00148502 0 -0.00169365 -0.00146464 0 -0.00156068 -0.00143666 0 -0.00143342 -0.00140204 0 -0.00131254 -0.00136182 0 -0.0011985 -0.00131707 0 -0.00109157 -0.00126885 0 -0.000991855 -0.00121818 0 -0.0008993 -0.001166 0 -0.000813729 -0.00111315 0 -0.000734871 -0.0010604 0 -0.000662388 -0.00100838 0 -0.00059589 -0.000957652 0 -0.000534962 -0.000908666 0 -0.000479176 -0.000861793 0 -0.000428098 -0.000817329 0 -0.000381306 -0.000775504 0 -0.000338387 -0.000736494 0 -0.000298947 -0.000700428 0 -0.000262608 -0.000667397 0 -0.000229015 -0.000637465 0 -0.00019783 -0.00061067 0 -0.000168734 -0.000587033 0 -0.000141428 -0.000566562 0 -0.000115624 -0.000549259 0 -9.10526e-05 -0.000535118 0 -6.74519e-05 -0.000524131 0 -4.45715e-05 -0.00051629 0 -2.21673e-05 -0.000511589 0 0 -0.000510022 0 -0.00211841 -0.00164997 0 -0.00196416 -0.00164487 0 -0.00181314 -0.00162934 0 -0.00166673 -0.00160416 0 -0.00152617 -0.00157036 0 -0.00139244 -0.0015291 0 -0.00126625 -0.00148166 0 -0.00114809 -0.00142934 0 -0.00103818 -0.0013734 0 -0.000936536 -0.00131502 0 -0.000843017 -0.0012553 0 -0.000757332 -0.00119521 0 -0.000679095 -0.00113557 0 -0.000607851 -0.00107708 0 -0.000543108 -0.00102034 0 -0.000484351 -0.000965816 0 -0.000431065 -0.000913872 0 -0.000382745 -0.000864799 0 -0.000338903 -0.000818814 0 -0.000299075 -0.00077607 0 -0.000262824 -0.000736674 0 -0.000229739 -0.000700697 0 -0.000199439 -0.000668175 0 -0.000171565 -0.000639126 0 -0.000145786 -0.000613552 0 -0.000121792 -0.000591441 0 -9.92898e-05 -0.000572777 0 -7.80064e-05 -0.000557542 0 -5.76811e-05 -0.000545716 0 -3.80646e-05 -0.000537282 0 -1.8916e-05 -0.000532228 0 8.82614e-19 -0.000530544 0 -0.00211782 -0.00181109 0 -0.00195201 -0.00180325 0 -0.00179015 -0.00178334 0 -0.00163393 -0.00175234 0 -0.0014848 -0.00171152 0 -0.00134386 -0.00166235 0 -0.00121191 -0.00160639 0 -0.0010894 -0.00154522 0 -0.000976483 -0.00148035 0 -0.000873073 -0.00141319 0 -0.000778883 -0.00134497 0 -0.000693475 -0.00127679 0 -0.000616317 -0.00120956 0 -0.000546813 -0.00114403 0 -0.00048434 -0.00108081 0 -0.000428271 -0.00102037 0 -0.000377993 -0.000963067 0 -0.000332918 -0.000909173 0 -0.00029249 -0.000858873 0 -0.000256191 -0.00081229 0 -0.000223539 -0.000769499 0 -0.000194091 -0.000730536 0 -0.00016744 -0.000695409 0 -0.00014321 -0.000664108 0 -0.000121058 -0.000636606 0 -0.000100665 -0.000612871 0 -8.17389e-05 -0.000592866 0 -6.4004e-05 -0.000576557 0 -4.72028e-05 -0.00056391 0 -3.10907e-05 -0.000554897 0 -1.54327e-05 -0.000549498 0 5.83543e-18 -0.000547699 0 -0.00211515 -0.00198498 0 -0.00193587 -0.00197375 0 -0.00176146 -0.00194847 0 -0.00159399 -0.00191036 0 -0.00143516 -0.00186105 0 -0.00128625 -0.00180239 0 -0.00114808 -0.00173632 0 -0.00102107 -0.00166478 0 -0.000905248 -0.00158958 0 -0.000800368 -0.00151237 0 -0.000705948 -0.00143457 0 -0.00062136 -0.00135739 0 -0.00054588 -0.00128182 0 -0.000478742 -0.00120864 0 -0.000419169 -0.00113847 0 -0.000366404 -0.00107176 0 -0.000319724 -0.00100884 0 -0.00027845 -0.000949944 0 -0.000241956 -0.000895207 0 -0.000209666 -0.000844713 0 -0.000181057 -0.00079849 0 -0.000155653 -0.000756535 0 -0.000133024 -0.000718817 0 -0.000112782 -0.000685288 0 -9.45733e-05 -0.000655893 0 -7.80769e-05 -0.00063057 0 -6.29993e-05 -0.000609261 0 -4.907e-05 -0.000591911 0 -3.60371e-05 -0.00057847 0 -2.36639e-05 -0.000568899 0 -1.17244e-05 -0.000563168 0 8.13367e-19 -0.00056126 0 -0.00210989 -0.00217379 0 -0.00191482 -0.00215841 0 -0.00172578 -0.00212648 0 -0.00154534 -0.00207963 0 -0.00137553 -0.00201996 0 -0.00121781 -0.00194983 0 -0.00107303 -0.00187171 0 -0.000941491 -0.00178797 0 -0.000823037 -0.00170079 0 -0.000717175 -0.0016121 0 -0.000623167 -0.00152352 0 -0.000540129 -0.00143635 0 -0.000467102 -0.00135166 0 -0.000403109 -0.00127023 0 -0.000347197 -0.00119265 0 -0.00029846 -0.00111934 0 -0.000256056 -0.00105059 0 -0.000219211 -0.00098654 0 -0.000187225 -0.000927291 0 -0.000159468 -0.000872856 0 -0.000135376 -0.000823211 0 -0.000114446 -0.000778295 0 -9.62287e-05 -0.000738033 0 -8.0326e-05 -0.000702335 0 -6.63809e-05 -0.000671107 0 -5.40733e-05 -0.000644257 0 -4.31146e-05 -0.0006217 0 -3.32419e-05 -0.000603357 0 -2.42137e-05 -0.000589162 0 -1.58046e-05 -0.000579062 0 -7.80177e-06 -0.000573017 0 0 -0.000571005 0 -0.00210152 -0.00238029 0 -0.00188767 -0.00235972 0 -0.00168141 -0.0023195 0 -0.00148594 -0.00226177 0 -0.00130371 -0.00218933 0 -0.00113635 -0.00210525 0 -0.000984671 -0.00201267 0 -0.000848769 -0.00191454 0 -0.000728195 -0.00181347 0 -0.000622104 -0.00171169 0 -0.000529406 -0.00161099 0 -0.000448885 -0.00151281 0 -0.000379292 -0.00141819 0 -0.000319403 -0.00132793 0 -0.00026806 -0.00124253 0 -0.000224196 -0.00116236 0 -0.000186841 -0.0010876 0 -0.000155125 -0.00101833 0 -0.000128277 -0.000954552 0 -0.000105616 -0.000896207 0 -8.65431e-05 -0.000843197 0 -7.0533e-05 -0.000795401 0 -5.7126e-05 -0.000752685 0 -4.59186e-05 -0.000714911 0 -3.65562e-05 -0.000681943 0 -2.87253e-05 -0.000653653 0 -2.21474e-05 -0.000629925 0 -1.65723e-05 -0.000610657 0 -1.17731e-05 -0.000595761 0 -7.54052e-06 -0.000585172 0 -3.67866e-06 -0.000578838 0 0 -0.00057673 0 -0.00208922 -0.00260791 0 -0.00185286 -0.00258084 0 -0.00162613 -0.00253012 0 -0.00141315 -0.00245869 0 -0.00121688 -0.00237033 0 -0.00103909 -0.00226914 0 -0.000880435 -0.00215914 0 -0.000740654 -0.00204398 0 -0.000618829 -0.00192679 0 -0.000513619 -0.00181011 0 -0.000423461 -0.0016959 0 -0.000346719 -0.00158564 0 -0.000281791 -0.00148034 0 -0.000227166 -0.00138072 0 -0.000181463 -0.00128718 0 -0.000143441 -0.00119995 0 -0.000112002 -0.00111911 0 -8.61865e-05 -0.00104462 0 -6.51565e-05 -0.000976375 0 -4.81886e-05 -0.000914217 0 -3.4658e-05 -0.000857966 0 -2.40269e-05 -0.000807425 0 -1.58318e-05 -0.000762395 0 -9.6732e-06 -0.000722682 0 -5.2057e-06 -0.000688103 0 -2.12916e-06 -0.00065849 0 -1.81115e-07 -0.000633694 0 8.7022e-07 -0.000613586 0 1.23209e-06 -0.000598059 0 1.09282e-06 -0.000587029 0 6.26953e-07 -0.000580435 0 0 -0.000578241 0 -0.00207215 -0.00286132 0 -0.00180821 -0.00282586 0 -0.00155692 -0.00276155 0 -0.00132345 -0.00267258 0 -0.00111139 -0.00256415 0 -0.000922544 -0.00244178 0 -0.000757213 -0.00231067 0 -0.000614513 -0.00217536 0 -0.000492814 -0.00203951 0 -0.000390073 -0.00190597 0 -0.000304105 -0.00177681 0 -0.000232756 -0.00165344 0 -0.000174008 -0.00153678 0 -0.000126031 -0.00142738 0 -8.72076e-05 -0.00132548 0 -5.61243e-05 -0.00123114 0 -3.1563e-05 -0.00114426 0 -1.2481e-05 -0.00106466 0 2.00955e-06 -0.000992103 0 1.2662e-05 -0.000926319 0 2.0114e-05 -0.000867026 0 2.49046e-05 -0.00081394 0 2.74899e-05 -0.000766791 0 2.82557e-05 -0.000725322 0 2.75295e-05 -0.0006893 0 2.55903e-05 -0.000658513 0 2.26778e-05 -0.000632779 0 1.8999e-05 -0.000611938 0 1.47361e-05 -0.000595863 0 1.00513e-05 -0.000584453 0 5.0929e-06 -0.000577636 0 0 -0.000575369 0 -0.00204876 -0.00314638 0 -0.0017508 -0.00310001 0 -0.00146957 -0.00301785 0 -0.00121204 -0.00290597 0 -0.000982401 -0.00277187 0 -0.000782296 -0.00262304 0 -0.000611232 -0.00246627 0 -0.000467307 -0.00230711 0 -0.000347817 -0.0021498 0 -0.000249761 -0.00199736 0 -0.000170155 -0.00185183 0 -0.000106226 -0.00171445 0 -5.54881e-05 -0.00158592 0 -1.57793e-05 -0.00146651 0 1.47549e-05 -0.00135621 0 3.76848e-05 -0.00125485 0 5.43299e-05 -0.00116211 0 6.57934e-05 -0.00107765 0 7.29944e-05 -0.00100106 0 7.66966e-05 -0.000931931 0 7.75333e-05 -0.000869879 0 7.60299e-05 -0.000814522 0 7.26213e-05 -0.000765509 0 6.76685e-05 -0.00072252 0 6.14709e-05 -0.000685265 0 5.4278e-05 -0.00065349 0 4.62985e-05 -0.000626973 0 3.77088e-05 -0.00060553 0 2.86595e-05 -0.000589008 0 1.92818e-05 -0.00057729 0 9.69262e-06 -0.000570293 0 2.03252e-18 -0.000567966 0 -0.00201747 -0.00347174 0 -0.00167617 -0.00341047 0 -0.00135811 -0.00330398 0 -0.00107228 -0.00316163 0 -0.000823541 -0.00299416 0 -0.00061276 -0.00281204 0 -0.000437989 -0.00262404 0 -0.000295619 -0.00243682 0 -0.000181396 -0.00225504 0 -9.10343e-05 -0.00208171 0 -2.05811e-05 -0.00191859 0 3.34434e-05 -0.00176656 0 7.40076e-05 -0.0016259 0 0.0001036 -0.00149649 0 0.00012428 -0.00137799 0 0.000137742 -0.00126991 0 0.000145373 -0.0011717 0 0.000148305 -0.00108277 0 0.000147457 -0.00100254 0 0.000143578 -0.000930474 0 0.000137278 -0.000866041 0 0.000129048 -0.000808764 0 0.000119287 -0.00075821 0 0.000108318 -0.000713989 0 9.64009e-05 -0.000675757 0 8.37467e-05 -0.000643213 0 7.05253e-05 -0.000616101 0 5.6875e-05 -0.000594206 0 4.29091e-05 -0.000577354 0 2.87222e-05 -0.000565412 0 1.4395e-05 -0.000558284 0 5.46261e-18 -0.000555915 0 -0.00197509 -0.00384851 0 -0.00157786 -0.00376662 0 -0.00121362 -0.00362642 0 -0.000894775 -0.00344225 0 -0.000626228 -0.00323082 0 -0.000406961 -0.00300657 0 -0.000232238 -0.00278068 0 -9.57925e-05 -0.0025608 0 8.82923e-06 -0.00235162 0 8.75164e-05 -0.0021557 0 0.000145336 -0.00197417 0 0.000186491 -0.00180724 0 0.000214404 -0.00165458 0 0.000231829 -0.00151554 0 0.000240972 -0.00138934 0 0.000243589 -0.00127511 0 0.000241082 -0.001172 0 0.000234566 -0.00107918 0 0.000224926 -0.000995882 0 0.000212864 -0.000921388 0 0.000198937 -0.000855053 0 0.000183584 -0.000796292 0 0.000167151 -0.000744586 0 0.000149907 -0.000699478 0 0.000132062 -0.000660568 0 0.000113777 -0.000627512 0 9.5177e-05 -0.000600018 0 7.63537e-05 -0.000577844 0 5.73776e-05 -0.000560797 0 3.83013e-05 -0.000548725 0 1.91647e-05 -0.000541524 0 1.95325e-19 -0.000539131 0 -0.00191782 -0.00429494 0 -0.00144532 -0.00418269 0 -0.0010225 -0.00399258 0 -0.000665919 -0.00374996 0 -0.000379057 -0.00347966 0 -0.000156371 -0.00320212 0 1.17915e-05 -0.00293085 0 0.000135758 -0.00267374 0 0.000224842 -0.00243471 0 0.00028679 -0.00221516 0 0.000327786 -0.00201506 0 0.00035267 -0.0018336 0 0.000365197 -0.00166961 0 0.000368269 -0.00152176 0 0.000364129 -0.00138871 0 0.000354512 -0.0012692 0 0.000340763 -0.00116202 0 0.000323922 -0.00106609 0 0.000304792 -0.000980425 0 0.000283995 -0.000904156 0 0.000262006 -0.000836501 0 0.000239188 -0.000776774 0 0.000215815 -0.000724374 0 0.000192088 -0.000678777 0 0.000168156 -0.000639533 0 0.000144119 -0.000606256 0 0.000120048 -0.000578623 0 9.59824e-05 -0.000556365 0 7.19444e-05 -0.000539271 0 4.79392e-05 -0.000527175 0 2.39619e-05 -0.000519963 0 0 -0.000517567 0 -0.00183886 -0.00483662 0 -0.00126076 -0.00467711 0 -0.00076286 -0.00441216 0 -0.00036583 -0.00408408 0 -6.70961e-05 -0.00373465 0 0.000148809 -0.00339044 0 0.000299816 -0.00306618 0 0.000401918 -0.0027682 0 0.000467727 -0.00249808 0 0.000506792 -0.00225504 0 0.000526168 -0.00203725 0 0.000531067 -0.00184248 0 0.000525337 -0.0016685 0 0.000511837 -0.00151318 0 0.000492698 -0.00137458 0 0.000469519 -0.00125096 0 0.000443498 -0.0011408 0 0.000415536 -0.00104274 0 0.000386303 -0.000955593 0 0.000356299 -0.000878325 0 0.00032589 -0.000810036 0 0.000295337 -0.000749943 0 0.000264823 -0.00069737 0 0.00023447 -0.000651735 0 0.000204347 -0.000612541 0 0.000174492 -0.000579367 0 0.000144909 -0.00055186 0 0.000115581 -0.000529732 0 8.64764e-05 -0.000512753 0 5.75484e-05 -0.000500748 0 2.87429e-05 -0.000493594 0 0 -0.000491217 0 -0.00172416 -0.0055214 0 -0.000992363 -0.00528284 0 -0.000397707 -0.00489168 0 3.43168e-05 -0.00443779 0 0.000328108 -0.00398219 0 0.00051839 -0.00355746 0 0.000636201 -0.00317452 0 0.000703831 -0.00283442 0 0.000736962 -0.00253422 0 0.000746175 -0.00226963 0 0.000738809 -0.00203641 0 0.000719932 -0.0018306 0 0.000693131 -0.00164876 0 0.000660956 -0.0014879 0 0.000625244 -0.00134548 0 0.000587319 -0.00121931 0 0.000548139 -0.00110752 0 0.000508391 -0.00100851 0 0.000468563 -0.000920904 0 0.000428992 -0.000843536 0 0.000389904 -0.000775392 0 0.000351436 -0.000715608 0 0.000313664 -0.000663443 0 0.000276613 -0.000618266 0 0.000240268 -0.000579542 0 0.000204589 -0.000546821 0 0.000169511 -0.000519728 0 0.000134956 -0.000497959 0 0.00010083 -0.000481271 0 6.70342e-05 -0.000469479 0 3.34609e-05 -0.000462455 0 0 -0.000460122 0 -0.00155814 -0.00643485 0 -0.00056943 -0.0060392 0 0.000136151 -0.00543274 0 0.000574825 -0.0047863 0 0.000825181 -0.00419581 0 0.000959266 -0.00368114 0 0.00102146 -0.0032394 0 0.00103953 -0.00286065 0 0.00102953 -0.00253469 0 0.0010018 -0.00225294 0 0.00096271 -0.00200822 0 0.00091656 -0.00179483 0 0.000866181 -0.0016081 0 0.000813532 -0.00144426 0 0.000759942 -0.00130019 0 0.00070633 -0.00117332 0 0.000653315 -0.00106149 0 0.000601303 -0.000962895 0 0.000550548 -0.00087601 0 0.00050119 -0.000799546 0 0.000453286 -0.00073241 0 0.000406832 -0.000673671 0 0.000361779 -0.000622543 0 0.000318044 -0.000578357 0 0.00027552 -0.000540552 0 0.000234081 -0.000508658 0 0.00019359 -0.000482284 0 0.000153899 -0.000461115 0 0.000114854 -0.000444901 0 7.62966e-05 -0.000433451 0 3.80664e-05 -0.000426634 0 0 -0.00042437 0 -0.001256 -0.00778039 0 0.000160332 -0.00702192 0 0.000950661 -0.00598465 0 0.00129754 -0.00507121 0 0.00143566 -0.00432952 0 0.00146826 -0.00373122 0 0.00144969 -0.00324145 0 0.00140204 -0.00283424 0 0.00133943 -0.00249133 0 0.00126836 -0.0021994 0 0.00119349 -0.00194892 0 0.00111726 -0.00173253 0 0.00104142 -0.00154468 0 0.000966978 -0.00138094 0 0.000894619 -0.00123779 0 0.000824712 -0.00111235 0 0.000757464 -0.00100228 0 0.000692941 -0.000905611 0 0.000631123 -0.000820727 0 0.000571923 -0.000746257 0 0.000515211 -0.000681053 0 0.000460822 -0.000624145 0 0.000408573 -0.000574718 0 0.000358263 -0.000532084 0 0.000309685 -0.000495666 0 0.000262625 -0.000464985 0 0.000216868 -0.000439646 0 0.000172195 -0.000419326 0 0.000128389 -0.000403775 0 8.5232e-05 -0.0003928 0 4.25079e-05 -0.000386267 0 0 -0.000384099 0 -0.00070911 -0.010308 0 0.00168848 -0.00818 0 0.00216354 -0.00636735 0 0.00222238 -0.00517368 0 0.00213469 -0.00432075 0 0.00202907 -0.00367444 0 0.00190278 -0.00316201 0 0.00177995 -0.00274452 0 0.00165662 -0.00239743 0 0.00153883 -0.00210489 0 0.00142529 -0.00185574 0 0.00131754 -0.0016419 0 0.00121514 -0.00145728 0 0.00111832 -0.00129714 0 0.0010268 -0.00115774 0 0.000940417 -0.00103608 0 0.000858867 -0.000929706 0 0.000781862 -0.000836592 0 0.00070907 -0.000755067 0 0.000640164 -0.000683734 0 0.000574808 -0.000621425 0 0.000512671 -0.000567161 0 0.000453424 -0.000520119 0 0.000396748 -0.00047961 0 0.00034233 -0.000445058 0 0.000289866 -0.000415985 0 0.000239061 -0.000391998 0 0.000189624 -0.000372781 0 0.000141274 -0.000358082 0 9.37348e-05 -0.000347714 0 4.67333e-05 -0.000341545 0 0 -0.000339498 0 0.00287815 -0.0188734 0 0.00458688 -0.00796264 0 0.00386617 -0.00622683 0 0.00314 -0.00493382 0 0.00291902 -0.00412289 0 0.00257018 -0.00348653 0 0.00237272 -0.00298996 0 0.00214746 -0.00258611 0 0.00197391 -0.00224932 0 0.00180218 -0.0019678 0 0.00165281 -0.00172735 0 0.00151178 -0.00152243 0 0.00138366 -0.00134547 0 0.00126421 -0.00119276 0 0.00115395 -0.00106003 0 0.00105127 -0.000944622 0 0.000955765 -0.000843922 0 0.000866576 -0.000756035 0 0.000783149 -0.000679249 0 0.000704865 -0.000612218 0 0.000631198 -0.000553778 0 0.000561637 -0.000502977 0 0.000495713 -0.000459006 0 0.000432982 -0.000421195 0 0.000373028 -0.000388984 0 0.000315455 -0.00036191 0 0.000259888 -0.000339593 0 0.000205969 -0.000321726 0 0.000153352 -0.000308068 0 0.000101701 -0.000298439 0 5.06913e-05 -0.000292711 0 0 -0.00029081 0 </DataArray> 
</PointData> 
<Points> 
<DataArray type="Float32" NumberOfComponents="3"> 