<?xml version="1.0"?> 
<VTKFile type="StructuredGrid" version="0.1"> 
<StructuredGrid WholeExtent="0 31 0 31 0 0"> 
<Piece Extent="0 31 0 31 0 0"> 
<PointData>
<DataArray type="Float32" Name="B" format="ascii" NumberOfComponents="3"> 
-4.18429e-05 -0 0 -4.40797e-05 -0 0 -4.6302e-05 -0 0 -4.84904e-05 -0 0 -5.06241e-05 -0 0 -5.26814e-05 -0 0 -5.46404e-05 -0 0 -5.6479e-05 -0 0 -5.81759e-05 -0 0 -5.97107e-05 -0 0 -6.10644e-05 -0 0 -6.22201e-05 -0 0 -6.3163e-05 -0 0 -6.38812e-05 -0 0 -6.43652e-05 -0 0 -6.46088e-05 -0 0 -6.46088e-05 -0 0 -6.43652e-05 -0 0 -6.38812e-05 -0 0 -6.3163e-05 -0 0 -6.22201e-05 -0 0 -6.10644e-05 -0 0 -5.97107e-05 -0 0 -5.81759e-05 -0 0 -5.6479e-05 -0 0 -5.46404e-05 -0 0 -5.26814e-05 -0 0 -5.06241e-05 -0 0 -4.84904e-05 -0 0 -4.6302e-05 -0 0 -4.40797e-05 -0 0 -4.18429e-05 -0 0 -4.18407e-05 2.24146e-06 0 -4.40876e-05 2.23661e-06 0 -4.63209e-05 2.21294e-06 0 -4.8521e-05 2.16902e-06 0 -5.06669e-05 2.10377e-06 0 -5.27367e-05 2.01647e-06 0 -5.47081e-05 1.907e-06 0 -5.65588e-05 1.77568e-06 0 -5.82672e-05 1.62302e-06 0 -5.98127e-05 1.45083e-06 0 -6.11759e-05 1.26055e-06 0 -6.23399e-05 1.05432e-06 0 -6.32897e-05 8.34568e-07 0 -6.40131e-05 6.04027e-07 0 -6.45007e-05 3.6562e-07 0 -6.4746e-05 1.22416e-07 0 -6.4746e-05 -1.22416e-07 0 -6.45007e-05 -3.6562e-07 0 -6.40131e-05 -6.04027e-07 0 -6.32897e-05 -8.34568e-07 0 -6.23399e-05 -1.05432e-06 0 -6.11759e-05 -1.26055e-06 0 -5.98127e-05 -1.45083e-06 0 -5.82672e-05 -1.62302e-06 0 -5.65588e-05 -1.77568e-06 0 -5.47081e-05 -1.907e-06 0 -5.27367e-05 -2.01647e-06 0 -5.06669e-05 -2.10377e-06 0 -4.8521e-05 -2.16902e-06 0 -4.63209e-05 -2.21294e-06 0 -4.40876e-05 -2.23661e-06 0 -4.18407e-05 -2.24146e-06 0 -4.1834e-05 4.50021e-06 0 -4.41078e-05 4.49225e-06 0 -4.63704e-05 4.44634e-06 0 -4.86017e-05 4.35959e-06 0 -5.07801e-05 4.22976e-06 0 -5.2883e-05 4.05536e-06 0 -5.48875e-05 3.83613e-06 0 -5.67705e-05 3.57267e-06 0 -5.85096e-05 3.26606e-06 0 -6.00835e-05 2.91994e-06 0 -6.14723e-05 2.53724e-06 0 -6.26584e-05 2.12228e-06 0 -6.36264e-05 1.68002e-06 0 -6.43637e-05 1.21598e-06 0 -6.48607e-05 7.36051e-07 0 -6.51108e-05 2.46445e-07 0 -6.51108e-05 -2.46445e-07 0 -6.48607e-05 -7.36051e-07 0 -6.43637e-05 -1.21598e-06 0 -6.36264e-05 -1.68002e-06 0 -6.26584e-05 -2.12228e-06 0 -6.14723e-05 -2.53724e-06 0 -6.00835e-05 -2.91994e-06 0 -5.85096e-05 -3.26606e-06 0 -5.67705e-05 -3.57267e-06 0 -5.48875e-05 -3.83613e-06 0 -5.2883e-05 -4.05536e-06 0 -5.07801e-05 -4.22976e-06 0 -4.86017e-05 -4.35959e-06 0 -4.63704e-05 -4.44634e-06 0 -4.41078e-05 -4.49225e-06 0 -4.1834e-05 -4.50021e-06 0 -4.18198e-05 6.79334e-06 0 -4.41389e-05 6.78574e-06 0 -4.64509e-05 6.72054e-06 0 -4.87348e-05 6.59317e-06 0 -5.09681e-05 6.40013e-06 0 -5.31271e-05 6.13904e-06 0 -5.51876e-05 5.80946e-06 0 -5.71252e-05 5.41225e-06 0 -5.89163e-05 4.94909e-06 0 -6.05383e-05 4.42554e-06 0 -6.19704e-05 3.84612e-06 0 -6.31938e-05 3.21747e-06 0 -6.41926e-05 2.5472e-06 0 -6.49535e-05 1.84372e-06 0 -6.54664e-05 1.11607e-06 0 -6.57246e-05 3.73689e-07 0 -6.57246e-05 -3.73689e-07 0 -6.54664e-05 -1.11607e-06 0 -6.49535e-05 -1.84372e-06 0 -6.41926e-05 -2.5472e-06 0 -6.31938e-05 -3.21747e-06 0 -6.19704e-05 -3.84612e-06 0 -6.05383e-05 -4.42554e-06 0 -5.89163e-05 -4.94909e-06 0 -5.71252e-05 -5.41225e-06 0 -5.51876e-05 -5.80946e-06 0 -5.31271e-05 -6.13904e-06 0 -5.09681e-05 -6.40013e-06 0 -4.87348e-05 -6.59317e-06 0 -4.64509e-05 -6.72054e-06 0 -4.41389e-05 -6.78574e-06 0 -4.18198e-05 -6.79334e-06 0 -4.17926e-05 9.13893e-06 0 -4.41771e-05 9.13718e-06 0 -4.65606e-05 9.05732e-06 0 -4.8921e-05 8.89288e-06 0 -5.12344e-05 8.63883e-06 0 -5.34753e-05 8.29177e-06 0 -5.56175e-05 7.85095e-06 0 -5.7635e-05 7.31751e-06 0 -5.9502e-05 6.69376e-06 0 -6.11942e-05 5.98736e-06 0 -6.26892e-05 5.20456e-06 0 -6.39671e-05 4.35453e-06 0 -6.50106e-05 3.44774e-06 0 -6.58057e-05 2.49572e-06 0 -6.63418e-05 1.5108e-06 0 -6.66116e-05 5.05865e-07 0 -6.66116e-05 -5.05865e-07 0 -6.63418e-05 -1.5108e-06 0 -6.58057e-05 -2.49572e-06 0 -6.50106e-05 -3.44774e-06 0 -6.39671e-05 -4.35453e-06 0 -6.26892e-05 -5.20456e-06 0 -6.11942e-05 -5.98736e-06 0 -5.9502e-05 -6.69376e-06 0 -5.7635e-05 -7.31751e-06 0 -5.56175e-05 -7.85095e-06 0 -5.34753e-05 -8.29177e-06 0 -5.12344e-05 -8.63883e-06 0 -4.8921e-05 -8.89288e-06 0 -4.65606e-05 -9.05732e-06 0 -4.41771e-05 -9.13718e-06 0 -4.17926e-05 -9.13893e-06 0 -4.17476e-05 1.15552e-05 0 -4.42159e-05 1.1567e-05 0 -4.66915e-05 1.1479e-05 0 -4.91507e-05 1.12826e-05 0 -5.15677e-05 1.09707e-05 0 -5.39147e-05 1.05387e-05 0 -5.61631e-05 9.9855e-06 0 -5.8284e-05 9.31245e-06 0 -6.02495e-05 8.52254e-06 0 -6.20327e-05 7.62581e-06 0 -6.36093e-05 6.63047e-06 0 -6.49575e-05 5.54852e-06 0 -6.60588e-05 4.39358e-06 0 -6.6898e-05 3.1806e-06 0 -6.74639e-05 1.92547e-06 0 -6.77488e-05 6.4472e-07 0 -6.77488e-05 -6.4472e-07 0 -6.74639e-05 -1.92547e-06 0 -6.6898e-05 -3.1806e-06 0 -6.60588e-05 -4.39358e-06 0 -6.49575e-05 -5.54852e-06 0 -6.36093e-05 -6.63047e-06 0 -6.20327e-05 -7.62581e-06 0 -6.02495e-05 -8.52254e-06 0 -5.8284e-05 -9.31245e-06 0 -5.61631e-05 -9.9855e-06 0 -5.39147e-05 -1.05387e-05 0 -5.15677e-05 -1.09707e-05 0 -4.91507e-05 -1.12826e-05 0 -4.66915e-05 -1.1479e-05 0 -4.42159e-05 -1.1567e-05 0 -4.17476e-05 -1.15552e-05 0 -4.1672e-05 1.40609e-05 0 -4.42464e-05 1.40967e-05 0 -4.68392e-05 1.40095e-05 0 -4.9425e-05 1.37879e-05 0 -5.1975e-05 1.34226e-05 0 -5.44587e-05 1.29073e-05 0 -5.68439e-05 1.22403e-05 0 -5.90985e-05 1.14232e-05 0 -6.11909e-05 1.04598e-05 0 -6.30913e-05 9.36298e-06 0 -6.47726e-05 8.14313e-06 0 -6.62108e-05 6.81556e-06 0 -6.73858e-05 5.39745e-06 0 -6.82813e-05 3.90754e-06 0 -6.88851e-05 2.36561e-06 0 -6.9189e-05 7.92101e-07 0 -6.9189e-05 -7.92101e-07 0 -6.88851e-05 -2.36561e-06 0 -6.82813e-05 -3.90754e-06 0 -6.73858e-05 -5.39745e-06 0 -6.62108e-05 -6.81556e-06 0 -6.47726e-05 -8.14313e-06 0 -6.30913e-05 -9.36298e-06 0 -6.11909e-05 -1.04598e-05 0 -5.90985e-05 -1.14232e-05 0 -5.68439e-05 -1.22403e-05 0 -5.44587e-05 -1.29073e-05 0 -5.1975e-05 -1.34226e-05 0 -4.9425e-05 -1.37879e-05 0 -4.68392e-05 -1.40095e-05 0 -4.42464e-05 -1.40967e-05 0 -4.1672e-05 -1.40609e-05 0 -4.15554e-05 1.66767e-05 0 -4.42579e-05 1.67499e-05 0 -4.69935e-05 1.66753e-05 0 -4.9734e-05 1.64378e-05 0 -5.24476e-05 1.60251e-05 0 -5.50998e-05 1.54288e-05 0 -5.76541e-05 1.46463e-05 0 -6.00736e-05 1.36795e-05 0 -6.23224e-05 1.25334e-05 0 -6.43669e-05 1.12238e-05 0 -6.61766e-05 9.76413e-06 0 -6.7725e-05 8.17355e-06 0 -6.89899e-05 6.47336e-06 0 -6.99537e-05 4.68657e-06 0 -7.06034e-05 2.83723e-06 0 -7.09304e-05 9.50013e-07 0 -7.09304e-05 -9.50013e-07 0 -7.06034e-05 -2.83723e-06 0 -6.99537e-05 -4.68657e-06 0 -6.89899e-05 -6.47336e-06 0 -6.7725e-05 -8.17355e-06 0 -6.61766e-05 -9.76413e-06 0 -6.43669e-05 -1.12238e-05 0 -6.23224e-05 -1.25334e-05 0 -6.00736e-05 -1.36795e-05 0 -5.76541e-05 -1.46463e-05 0 -5.50998e-05 -1.54288e-05 0 -5.24476e-05 -1.60251e-05 0 -4.9734e-05 -1.64378e-05 0 -4.69935e-05 -1.66753e-05 0 -4.42579e-05 -1.67499e-05 0 -4.15554e-05 -1.66767e-05 0 -4.13859e-05 1.9423e-05 0 -4.42387e-05 1.95513e-05 0 -4.7143e-05 1.95047e-05 0 -5.00679e-05 1.92633e-05 0 -5.29775e-05 1.88113e-05 0 -5.58321e-05 1.81372e-05 0 -5.85896e-05 1.72373e-05 0 -6.12074e-05 1.61138e-05 0 -6.36441e-05 1.4773e-05 0 -6.58611e-05 1.32348e-05 0 -6.78238e-05 1.15163e-05 0 -6.95028e-05 9.64124e-06 0 -7.08739e-05 7.63584e-06 0 -7.19182e-05 5.52798e-06 0 -7.26218e-05 3.34647e-06 0 -7.29758e-05 1.12049e-06 0 -7.29758e-05 -1.12049e-06 0 -7.26218e-05 -3.34647e-06 0 -7.19182e-05 -5.52798e-06 0 -7.08739e-05 -7.63584e-06 0 -6.95028e-05 -9.64124e-06 0 -6.78238e-05 -1.15163e-05 0 -6.58611e-05 -1.32348e-05 0 -6.36441e-05 -1.4773e-05 0 -6.12074e-05 -1.61138e-05 0 -5.85896e-05 -1.72373e-05 0 -5.58321e-05 -1.81372e-05 0 -5.29775e-05 -1.88113e-05 0 -5.00679e-05 -1.92633e-05 0 -4.7143e-05 -1.95047e-05 0 -4.42387e-05 -1.95513e-05 0 -4.13859e-05 -1.9423e-05 0 -4.1129e-05 2.23222e-05 0 -4.41606e-05 2.25281e-05 0 -4.72684e-05 2.25296e-05 0 -5.0418e-05 2.23006e-05 0 -5.35683e-05 2.18201e-05 0 -5.66727e-05 2.10728e-05 0 -5.96817e-05 2.00533e-05 0 -6.25446e-05 1.87641e-05 0 -6.52125e-05 1.72136e-05 0 -6.76407e-05 1.54268e-05 0 -6.97896e-05 1.34256e-05 0 -7.16264e-05 1.12395e-05 0 -7.31247e-05 8.90078e-06 0 -7.42648e-05 6.44291e-06 0 -7.50322e-05 3.8999e-06 0 -7.54182e-05 1.30571e-06 0 -7.54182e-05 -1.30571e-06 0 -7.50322e-05 -3.8999e-06 0 -7.42648e-05 -6.44291e-06 0 -7.31247e-05 -8.90078e-06 0 -7.16264e-05 -1.12395e-05 0 -6.97896e-05 -1.34256e-05 0 -6.76407e-05 -1.54268e-05 0 -6.52125e-05 -1.72136e-05 0 -6.25446e-05 -1.87641e-05 0 -5.96817e-05 -2.00533e-05 0 -5.66727e-05 -2.10728e-05 0 -5.35683e-05 -2.18201e-05 0 -5.0418e-05 -2.23006e-05 0 -4.72684e-05 -2.25296e-05 0 -4.41606e-05 -2.25281e-05 0 -4.1129e-05 -2.23222e-05 0 -4.07745e-05 2.53976e-05 0 -4.40101e-05 2.57102e-05 0 -4.73535e-05 2.57861e-05 0 -5.07662e-05 2.55911e-05 0 -5.42006e-05 2.50969e-05 0 -5.76016e-05 2.42827e-05 0 -6.09094e-05 2.31409e-05 0 -6.40631e-05 2.16746e-05 0 -6.70043e-05 1.9895e-05 0 -6.96803e-05 1.78341e-05 0 -7.2046e-05 1.55203e-05 0 -7.40649e-05 1.29907e-05 0 -7.57089e-05 1.02849e-05 0 -7.69578e-05 7.44278e-06 0 -7.77974e-05 4.50415e-06 0 -7.82192e-05 1.50784e-06 0 -7.82192e-05 -1.50784e-06 0 -7.77974e-05 -4.50415e-06 0 -7.69578e-05 -7.44278e-06 0 -7.57089e-05 -1.02849e-05 0 -7.40649e-05 -1.29907e-05 0 -7.2046e-05 -1.55203e-05 0 -6.96803e-05 -1.78341e-05 0 -6.70043e-05 -1.9895e-05 0 -6.40631e-05 -2.16746e-05 0 -6.09094e-05 -2.31409e-05 0 -5.76016e-05 -2.42827e-05 0 -5.42006e-05 -2.50969e-05 0 -5.07662e-05 -2.55911e-05 0 -4.73535e-05 -2.57861e-05 0 -4.40101e-05 -2.57102e-05 0 -4.07745e-05 -2.53976e-05 0 -4.02822e-05 2.86726e-05 0 -4.37506e-05 2.91293e-05 0 -4.73681e-05 2.93142e-05 0 -5.10918e-05 2.9182e-05 0 -5.48657e-05 2.8694e-05 0 -5.86234e-05 2.78219e-05 0 -6.22914e-05 2.65546e-05 0 -6.57947e-05 2.48961e-05 0 -6.90621e-05 2.28621e-05 0 -7.2031e-05 2.04947e-05 0 -7.46499e-05 1.78308e-05 0 -7.68787e-05 1.4918e-05 0 -7.86887e-05 1.18047e-05 0 -8.00601e-05 8.53864e-06 0 -8.09802e-05 5.16549e-06 0 -8.1442e-05 1.7289e-06 0 -8.1442e-05 -1.7289e-06 0 -8.09802e-05 -5.16549e-06 0 -8.00601e-05 -8.53864e-06 0 -7.86887e-05 -1.18047e-05 0 -7.68787e-05 -1.4918e-05 0 -7.46499e-05 -1.78308e-05 0 -7.2031e-05 -2.04947e-05 0 -6.90621e-05 -2.28621e-05 0 -6.57947e-05 -2.48961e-05 0 -6.22914e-05 -2.65546e-05 0 -5.86234e-05 -2.78219e-05 0 -5.48657e-05 -2.8694e-05 0 -5.10918e-05 -2.9182e-05 0 -4.73681e-05 -2.93142e-05 0 -4.37506e-05 -2.91293e-05 0 -4.02822e-05 -2.86726e-05 0 -3.95994e-05 3.21717e-05 0 -4.33319e-05 3.28211e-05 0 -4.72687e-05 3.31613e-05 0 -5.13622e-05 3.31313e-05 0 -5.55465e-05 3.26776e-05 0 -5.97391e-05 3.17603e-05 0 -6.38472e-05 3.03631e-05 0 -6.77756e-05 2.84919e-05 0 -7.14356e-05 2.61696e-05 0 -7.47519e-05 2.34525e-05 0 -7.76655e-05 2.03909e-05 0 -8.01343e-05 1.70457e-05 0 -8.21305e-05 1.34769e-05 0 -8.36372e-05 9.74093e-06 0 -8.46453e-05 5.88959e-06 0 -8.51503e-05 1.97068e-06 0 -8.51503e-05 -1.97068e-06 0 -8.46453e-05 -5.88959e-06 0 -8.36372e-05 -9.74093e-06 0 -8.21305e-05 -1.34769e-05 0 -8.01343e-05 -1.70457e-05 0 -7.76655e-05 -2.03909e-05 0 -7.47519e-05 -2.34525e-05 0 -7.14356e-05 -2.61696e-05 0 -6.77756e-05 -2.84919e-05 0 -6.38472e-05 -3.03631e-05 0 -5.97391e-05 -3.17603e-05 0 -5.55465e-05 -3.26776e-05 0 -5.13622e-05 -3.31313e-05 0 -4.72687e-05 -3.31613e-05 0 -4.33319e-05 -3.28211e-05 0 -3.95994e-05 -3.21717e-05 0 -3.86986e-05 3.59171e-05 0 -4.27223e-05 3.68225e-05 0 -4.70222e-05 3.73802e-05 0 -5.1547e-05 3.75071e-05 0 -5.62184e-05 3.71273e-05 0 -6.09328e-05 3.6183e-05 0 -6.55699e-05 3.46499e-05 0 -7.00062e-05 3.25369e-05 0 -7.4129e-05 2.98794e-05 0 -7.7847e-05 2.67551e-05 0 -8.10941e-05 2.32342e-05 0 -8.38282e-05 1.93962e-05 0 -8.60257e-05 1.53153e-05 0 -8.76761e-05 1.10575e-05 0 -8.87761e-05 6.68029e-06 0 -8.93257e-05 2.23432e-06 0 -8.93257e-05 -2.23432e-06 0 -8.87761e-05 -6.68029e-06 0 -8.76761e-05 -1.10575e-05 0 -8.60257e-05 -1.53153e-05 0 -8.38282e-05 -1.93962e-05 0 -8.10941e-05 -2.32342e-05 0 -7.7847e-05 -2.67551e-05 0 -7.4129e-05 -2.98794e-05 0 -7.00062e-05 -3.25369e-05 0 -6.55699e-05 -3.46499e-05 0 -6.09328e-05 -3.6183e-05 0 -5.62184e-05 -3.71273e-05 0 -5.1547e-05 -3.75071e-05 0 -4.70222e-05 -3.73802e-05 0 -4.27223e-05 -3.68225e-05 0 -3.86986e-05 -3.59171e-05 0 -3.74706e-05 3.99272e-05 0 -4.18127e-05 4.11711e-05 0 -4.65295e-05 4.20312e-05 0 -5.15697e-05 4.23924e-05 0 -5.68406e-05 4.21444e-05 0 -6.22082e-05 4.12001e-05 0 -6.75095e-05 3.95218e-05 0 -7.25762e-05 3.7124e-05 0 -7.72601e-05 3.4064e-05 0 -8.14498e-05 3.04538e-05 0 -8.50743e-05 2.63935e-05 0 -8.80974e-05 2.1988e-05 0 -9.05065e-05 1.73287e-05 0 -9.2303e-05 1.24917e-05 0 -9.34942e-05 7.53852e-06 0 -9.40875e-05 2.51993e-06 0 -9.40875e-05 -2.51993e-06 0 -9.34942e-05 -7.53852e-06 0 -9.2303e-05 -1.24917e-05 0 -9.05065e-05 -1.73287e-05 0 -8.80974e-05 -2.1988e-05 0 -8.50743e-05 -2.63935e-05 0 -8.14498e-05 -3.04538e-05 0 -7.72601e-05 -3.4064e-05 0 -7.25762e-05 -3.7124e-05 0 -6.75095e-05 -3.95218e-05 0 -6.22082e-05 -4.12001e-05 0 -5.68406e-05 -4.21444e-05 0 -5.15697e-05 -4.23924e-05 0 -4.65295e-05 -4.20312e-05 0 -4.18127e-05 -4.11711e-05 0 -3.74706e-05 -3.99272e-05 0 -3.58524e-05 4.42115e-05 0 -4.05283e-05 4.59022e-05 0 -4.57109e-05 4.7183e-05 0 -5.13575e-05 4.78927e-05 0 -5.73621e-05 4.78656e-05 0 -6.35479e-05 4.69635e-05 0 -6.96831e-05 4.51241e-05 0 -7.55292e-05 4.23735e-05 0 -8.08844e-05 3.88097e-05 0 -8.56143e-05 3.46018e-05 0 -8.96502e-05 2.98957e-05 0 -9.29726e-05 2.48305e-05 0 -9.55903e-05 1.95171e-05 0 -9.75249e-05 1.40397e-05 0 -9.87994e-05 8.46046e-06 0 -9.94317e-05 2.82602e-06 0 -9.94317e-05 -2.82602e-06 0 -9.87994e-05 -8.46046e-06 0 -9.75249e-05 -1.40397e-05 0 -9.55903e-05 -1.95171e-05 0 -9.29726e-05 -2.48305e-05 0 -8.96502e-05 -2.98957e-05 0 -8.56143e-05 -3.46018e-05 0 -8.08844e-05 -3.88097e-05 0 -7.55292e-05 -4.23735e-05 0 -6.96831e-05 -4.51241e-05 0 -6.35479e-05 -4.69635e-05 0 -5.73621e-05 -4.78656e-05 0 -5.13575e-05 -4.78927e-05 0 -4.57109e-05 -4.7183e-05 0 -4.05283e-05 -4.59022e-05 0 -3.58524e-05 -4.42115e-05 0 -3.37624e-05 4.87623e-05 0 -3.87685e-05 5.10391e-05 0 -4.44545e-05 5.2905e-05 0 -5.08054e-05 5.41342e-05 0 -5.77103e-05 5.44699e-05 0 -6.49315e-05 5.368e-05 0 -7.21332e-05 5.16504e-05 0 -7.89485e-05 4.84342e-05 0 -8.51001e-05 4.42095e-05 0 -9.04322e-05 3.92436e-05 0 -9.4896e-05 3.3752e-05 0 -9.85079e-05 2.79163e-05 0 -0.000101314 2.18657e-05 0 -0.000103365 1.56867e-05 0 -0.000104705 9.43578e-06 0 -0.000105367 3.14889e-06 0 -0.000105367 -3.14889e-06 0 -0.000104705 -9.43578e-06 0 -0.000103365 -1.56867e-05 0 -0.000101314 -2.18657e-05 0 -9.85079e-05 -2.79163e-05 0 -9.4896e-05 -3.3752e-05 0 -9.04322e-05 -3.92436e-05 0 -8.51001e-05 -4.42095e-05 0 -7.89485e-05 -4.84342e-05 0 -7.21332e-05 -5.16504e-05 0 -6.49315e-05 -5.368e-05 0 -5.77103e-05 -5.44699e-05 0 -5.08054e-05 -5.41342e-05 0 -4.44545e-05 -5.2905e-05 0 -3.87685e-05 -5.10391e-05 0 -3.37624e-05 -4.87623e-05 0 -3.09551e-05 5.35404e-05 0 -3.62397e-05 5.65778e-05 0 -4.24355e-05 5.92579e-05 0 -4.96047e-05 6.12737e-05 0 -5.76761e-05 6.22183e-05 0 -6.63382e-05 6.16646e-05 0 -7.50346e-05 5.93918e-05 0 -8.3141e-05 5.55027e-05 0 -9.02557e-05 5.03591e-05 0 -9.62332e-05 4.44011e-05 0 -0.000101097 3.79432e-05 0 -0.000104943 3.12096e-05 0 -0.000107877 2.43368e-05 0 -0.000109993 1.74021e-05 0 -0.000111364 1.04448e-05 0 -0.000112038 3.48184e-06 0 -0.000112038 -3.48184e-06 0 -0.000111364 -1.04448e-05 0 -0.000109993 -1.74021e-05 0 -0.000107877 -2.43368e-05 0 -0.000104943 -3.12096e-05 0 -0.000101097 -3.79432e-05 0 -9.62332e-05 -4.44011e-05 0 -9.02557e-05 -5.03591e-05 0 -8.3141e-05 -5.55027e-05 0 -7.50346e-05 -5.93918e-05 0 -6.63382e-05 -6.16646e-05 0 -5.76761e-05 -6.22183e-05 0 -4.96047e-05 -6.12737e-05 0 -4.24355e-05 -5.92579e-05 0 -3.62397e-05 -5.65778e-05 0 -3.09551e-05 -5.35404e-05 0 -2.7403e-05 5.84557e-05 0 -3.28555e-05 6.24555e-05 0 -3.94898e-05 6.62564e-05 0 -4.75256e-05 6.94801e-05 0 -5.70488e-05 7.14941e-05 0 -6.77141e-05 7.14433e-05 0 -7.84496e-05 6.87977e-05 0 -8.8237e-05 6.38209e-05 0 -9.64332e-05 5.73212e-05 0 -0.000103018 5.00376e-05 0 -0.000108186 4.23943e-05 0 -0.000112161 3.46311e-05 0 -0.000115133 2.6863e-05 0 -0.000117247 1.91359e-05 0 -0.000118604 1.14574e-05 0 -0.000119267 3.81476e-06 0 -0.000119267 -3.81476e-06 0 -0.000118604 -1.14574e-05 0 -0.000117247 -1.91359e-05 0 -0.000115133 -2.6863e-05 0 -0.000112161 -3.46311e-05 0 -0.000108186 -4.23943e-05 0 -0.000103018 -5.00376e-05 0 -9.64332e-05 -5.73212e-05 0 -8.8237e-05 -6.38209e-05 0 -7.84496e-05 -6.87977e-05 0 -6.77141e-05 -7.14433e-05 0 -5.70488e-05 -7.14941e-05 0 -4.75256e-05 -6.94801e-05 0 -3.94898e-05 -6.62564e-05 0 -3.28555e-05 -6.24555e-05 0 -2.7403e-05 -5.84557e-05 0 -2.28943e-05 6.33478e-05 0 -2.82892e-05 6.85073e-05 0 -3.51234e-05 7.37918e-05 0 -4.38873e-05 7.8853e-05 0 -5.51372e-05 8.28443e-05 0 -6.88869e-05 8.41174e-05 0 -8.32252e-05 8.05978e-05 0 -9.52151e-05 7.36173e-05 0 -0.000104448 6.50393e-05 0 -0.000111417 5.60015e-05 0 -0.000116657 4.69478e-05 0 -0.00012057 3.80478e-05 0 -0.000123437 2.93432e-05 0 -0.000125448 2.08187e-05 0 -0.000126728 1.24332e-05 0 -0.00012735 4.13451e-06 0 -0.00012735 -4.13451e-06 0 -0.000126728 -1.24332e-05 0 -0.000125448 -2.08187e-05 0 -0.000123437 -2.93432e-05 0 -0.00012057 -3.80478e-05 0 -0.000116657 -4.69478e-05 0 -0.000111417 -5.60015e-05 0 -0.000104448 -6.50393e-05 0 -9.52151e-05 -7.36173e-05 0 -8.32252e-05 -8.05978e-05 0 -6.88869e-05 -8.41174e-05 0 -5.51372e-05 -8.28443e-05 0 -4.38873e-05 -7.8853e-05 0 -3.51234e-05 -7.37918e-05 0 -2.82892e-05 -6.85073e-05 0 -2.28943e-05 -6.33478e-05 0 -1.72759e-05 6.79608e-05 0 -2.22462e-05 7.43991e-05 0 -2.87642e-05 8.1472e-05 0 -3.75935e-05 8.91165e-05 0 -5.01441e-05 9.68698e-05 0 -6.95451e-05 0.000101838 0 -9.23405e-05 9.6073e-05 0 -0.000106573 8.47788e-05 0 -0.000116168 7.31269e-05 0 -0.000122943 6.19331e-05 0 -0.000127839 5.13254e-05 0 -0.000131404 4.12585e-05 0 -0.000133972 3.16384e-05 0 -0.000135755 2.23603e-05 0 -0.00013688 1.33217e-05 0 -0.000137426 4.4248e-06 0 -0.000137426 -4.4248e-06 0 -0.00013688 -1.33217e-05 0 -0.000135755 -2.23603e-05 0 -0.000133972 -3.16384e-05 0 -0.000131404 -4.12585e-05 0 -0.000127839 -5.13254e-05 0 -0.000122943 -6.19331e-05 0 -0.000116168 -7.31269e-05 0 -0.000106573 -8.47788e-05 0 -9.23405e-05 -9.6073e-05 0 -6.95451e-05 -0.000101838 0 -5.01441e-05 -9.68698e-05 0 -3.75935e-05 -8.91165e-05 0 -2.87642e-05 -8.1472e-05 0 -2.22462e-05 -7.43991e-05 0 -1.72759e-05 -6.79608e-05 0 -1.06635e-05 7.19756e-05 0 -1.48048e-05 7.96431e-05 0 -2.03349e-05 8.85325e-05 0 -2.80247e-05 9.9067e-05 0 -3.9384e-05 0.000112023 0 -5.77397e-05 0.000130051 0 -7.9312e-05 0.0001141 0 -9.23968e-05 9.59149e-05 0 -0.000100827 8.06783e-05 0 -0.000106585 6.72565e-05 0 -0.000110651 5.51559e-05 0 -0.000113567 4.40219e-05 0 -0.000115648 3.35927e-05 0 -0.000117083 2.36642e-05 0 -0.000117987 1.40703e-05 0 -0.000118424 4.66894e-06 0 -0.000118424 -4.66894e-06 0 -0.000117987 -1.40703e-05 0 -0.000117083 -2.36642e-05 0 -0.000115648 -3.35927e-05 0 -0.000113567 -4.40219e-05 0 -0.000110651 -5.51559e-05 0 -0.000106585 -6.72565e-05 0 -0.000100827 -8.06783e-05 0 -9.23968e-05 -9.59149e-05 0 -7.9312e-05 -0.0001141 0 -5.77397e-05 -0.000130051 0 -3.9384e-05 -0.000112023 0 -2.80247e-05 -9.9067e-05 0 -2.03349e-05 -8.85325e-05 0 -1.48048e-05 -7.96431e-05 0 -1.06635e-05 -7.19756e-05 0 -3.05751e-06 7.50623e-05 0 -5.93952e-06 8.36893e-05 0 -9.72442e-06 9.39951e-05 0 -1.48461e-05 0.000106757 0 -2.19555e-05 0.000123327 0 -3.12649e-05 0.000146128 0 -4.08277e-05 0.000126953 0 -4.85752e-05 0.000104421 0 -5.39958e-05 8.64497e-05 0 -5.778e-05 7.12891e-05 0 -6.04769e-05 5.80368e-05 0 -6.24245e-05 4.60919e-05 0 -6.38239e-05 3.50544e-05 0 -6.47952e-05 2.46392e-05 0 -6.54098e-05 1.46302e-05 0 -6.57079e-05 4.85159e-06 0 -6.57079e-05 -4.85159e-06 0 -6.54098e-05 -1.46302e-05 0 -6.47952e-05 -2.46392e-05 0 -6.38239e-05 -3.50544e-05 0 -6.24245e-05 -4.60919e-05 0 -6.04769e-05 -5.80368e-05 0 -5.778e-05 -7.12891e-05 0 -5.39958e-05 -8.64497e-05 0 -4.85752e-05 -0.000104421 0 -4.08277e-05 -0.000126953 0 -3.12649e-05 -0.000146128 0 -2.19555e-05 -0.000123327 0 -1.48461e-05 -0.000106757 0 -9.72442e-06 -9.39951e-05 0 -5.93952e-06 -8.36893e-05 0 -3.05751e-06 -7.50623e-05 0 5.16216e-06 7.69681e-05 0 3.76689e-06 8.61012e-05 0 2.12809e-06 9.70809e-05 0 2.32037e-07 0.000110799 0 -1.95426e-06 0.000128621 0 -4.39735e-06 0.000152312 0 -6.81725e-06 0.000132534 0 -8.89042e-06 0.000108608 0 -1.05374e-05 8.9457e-05 0 -1.18289e-05 7.34683e-05 0 -1.28446e-05 5.96398e-05 0 -1.36392e-05 4.72726e-05 0 -1.42467e-05 3.59051e-05 0 -1.46881e-05 2.52155e-05 0 -1.49763e-05 1.49646e-05 0 -1.51187e-05 4.96124e-06 0 -1.51187e-05 -4.96124e-06 0 -1.49763e-05 -1.49646e-05 0 -1.46881e-05 -2.52155e-05 0 -1.42467e-05 -3.59051e-05 0 -1.36392e-05 -4.72726e-05 0 -1.28446e-05 -5.96398e-05 0 -1.18289e-05 -7.34683e-05 0 -1.05374e-05 -8.9457e-05 0 -8.89042e-06 -0.000108608 0 -6.81725e-06 -0.000132534 0 -4.39735e-06 -0.000152312 0 -1.95426e-06 -0.000128621 0 2.32037e-07 -0.000110799 0 2.12809e-06 -9.70809e-05 0 3.76689e-06 -8.61012e-05 0 5.16216e-06 -7.69681e-05 0 1.36267e-05 7.76096e-05 0 1.37093e-05 8.67232e-05 0 1.42301e-05 9.75101e-05 0 1.56039e-05 0.000110815 0 1.83303e-05 0.00012803 0 2.25609e-05 0.000151229 0 2.71949e-05 0.000131581 0 3.07403e-05 0.000108111 0 3.2956e-05 8.93308e-05 0 3.42387e-05 7.3554e-05 0 3.49573e-05 5.98205e-05 0 3.53483e-05 4.74776e-05 0 3.55528e-05 3.60931e-05 0 3.56536e-05 2.53625e-05 0 3.5699e-05 1.50573e-05 0 3.57158e-05 4.99284e-06 0 3.57158e-05 -4.99284e-06 0 3.5699e-05 -1.50573e-05 0 3.56536e-05 -2.53625e-05 0 3.55528e-05 -3.60931e-05 0 3.53483e-05 -4.74776e-05 0 3.49573e-05 -5.98205e-05 0 3.42387e-05 -7.3554e-05 0 3.2956e-05 -8.93308e-05 0 3.07403e-05 -0.000108111 0 2.71949e-05 -0.000131581 0 2.25609e-05 -0.000151229 0 1.83303e-05 -0.00012803 0 1.56039e-05 -0.000110815 0 1.42301e-05 -9.75101e-05 0 1.37093e-05 -8.67232e-05 0 1.36267e-05 -7.76096e-05 0 2.19624e-05 7.71066e-05 0 2.32394e-05 8.57284e-05 0 2.55051e-05 9.55087e-05 0 2.95991e-05 0.000107046 0 3.68546e-05 0.000121514 0 4.89636e-05 0.000142081 0 6.26189e-05 0.00012377 0 7.17626e-05 0.000103086 0 7.73478e-05 8.62438e-05 0 8.08328e-05 7.16592e-05 0 8.3058e-05 5.86458e-05 0 8.45007e-05 4.67456e-05 0 8.54382e-05 3.56405e-05 0 8.60352e-05 2.50929e-05 0 8.63888e-05 1.49147e-05 0 8.65533e-05 4.94835e-06 0 8.65533e-05 -4.94835e-06 0 8.63888e-05 -1.49147e-05 0 8.60352e-05 -2.50929e-05 0 8.54382e-05 -3.56405e-05 0 8.45007e-05 -4.67456e-05 0 8.3058e-05 -5.86458e-05 0 8.08328e-05 -7.16592e-05 0 7.73478e-05 -8.62438e-05 0 7.17626e-05 -0.000103086 0 6.26189e-05 -0.00012377 0 4.89636e-05 -0.000142081 0 3.68546e-05 -0.000121514 0 2.95991e-05 -0.000107046 0 2.55051e-05 -9.55087e-05 0 2.32394e-05 -8.57284e-05 0 2.19624e-05 -7.71066e-05 0 2.9887e-05 7.57851e-05 0 3.18273e-05 8.36199e-05 0 3.50313e-05 9.18265e-05 0 4.05698e-05 0.000100566 0 5.024e-05 0.000109933 0 6.89394e-05 0.000118625 0 9.3311e-05 0.000109072 0 0.000105694 9.46193e-05 0 0.000113226 8.09535e-05 0 0.000118121 6.82355e-05 0 0.000121402 5.63796e-05 0 0.000123632 4.52323e-05 0 0.000125145 3.46396e-05 0 0.000126145 2.44598e-05 0 0.000126755 1.45646e-05 0 0.000127043 4.83634e-06 0 0.000127043 -4.83634e-06 0 0.000126755 -1.45646e-05 0 0.000126145 -2.44598e-05 0 0.000125145 -3.46396e-05 0 0.000123632 -4.52323e-05 0 0.000121402 -5.63796e-05 0 0.000118121 -6.82355e-05 0 0.000113226 -8.09535e-05 0 0.000105694 -9.46193e-05 0 9.3311e-05 -0.000109072 0 6.89394e-05 -0.000118625 0 5.024e-05 -0.000109933 0 4.05698e-05 -0.000100566 0 3.50313e-05 -9.18265e-05 0 3.18273e-05 -8.36199e-05 0 2.9887e-05 -7.57851e-05 0 3.73284e-05 7.41512e-05 0 3.92018e-05 8.11655e-05 0 4.23196e-05 8.76077e-05 0 4.77156e-05 9.33762e-05 0 5.64393e-05 9.79336e-05 0 6.90705e-05 9.92156e-05 0 8.28351e-05 9.43686e-05 0 9.36208e-05 8.52121e-05 0 0.000101251 7.46737e-05 0 0.000106622 6.39443e-05 0 0.000110426 5.34052e-05 0 0.000113126 4.31669e-05 0 0.00011502 3.3229e-05 0 0.000116305 2.3545e-05 0 0.000117102 1.40498e-05 0 0.000117484 4.67017e-06 0 0.000117484 -4.67017e-06 0 0.000117102 -1.40498e-05 0 0.000116305 -2.3545e-05 0 0.00011502 -3.3229e-05 0 0.000113126 -4.31669e-05 0 0.000110426 -5.34052e-05 0 0.000106622 -6.39443e-05 0 0.000101251 -7.46737e-05 0 9.36208e-05 -8.52121e-05 0 8.28351e-05 -9.43686e-05 0 6.90705e-05 -9.92156e-05 0 5.64393e-05 -9.79336e-05 0 4.77156e-05 -9.33762e-05 0 4.23196e-05 -8.76077e-05 0 3.92018e-05 -8.11655e-05 0 3.73284e-05 -7.41512e-05 0 4.45172e-05 7.28972e-05 0 4.53389e-05 7.93217e-05 0 4.73254e-05 8.40023e-05 0 5.15246e-05 8.71664e-05 0 5.82298e-05 8.86866e-05 0 6.69951e-05 8.77522e-05 0 7.63903e-05 8.36562e-05 0 8.47875e-05 7.68628e-05 0 9.1525e-05 6.84896e-05 0 9.66883e-05 5.94219e-05 0 0.000100569 5.01136e-05 0 0.000103444 4.07946e-05 0 0.00010553 3.15617e-05 0 0.00010698 2.24408e-05 0 0.000107895 1.34197e-05 0 0.000108338 4.46537e-06 0 0.000108338 -4.46537e-06 0 0.000107895 -1.34197e-05 0 0.00010698 -2.24408e-05 0 0.00010553 -3.15617e-05 0 0.000103444 -4.07946e-05 0 0.000100569 -5.01136e-05 0 9.66883e-05 -5.94219e-05 0 9.1525e-05 -6.84896e-05 0 8.47875e-05 -7.68628e-05 0 7.63903e-05 -8.36562e-05 0 6.69951e-05 -8.77522e-05 0 5.82298e-05 -8.86866e-05 0 5.15246e-05 -8.71664e-05 0 4.73254e-05 -8.40023e-05 0 4.53389e-05 -7.93217e-05 0 4.45172e-05 -7.28972e-05 0 5.22155e-05 7.31414e-05 0 5.0181e-05 7.93624e-05 0 4.99901e-05 8.18259e-05 0 5.27292e-05 8.24619e-05 0 5.77608e-05 8.18679e-05 0 6.42265e-05 7.97378e-05 0 7.11735e-05 7.57498e-05 0 7.77314e-05 7.00071e-05 0 8.33949e-05 6.29506e-05 0 8.80305e-05 5.50999e-05 0 9.17036e-05 4.68114e-05 0 9.45414e-05 3.83247e-05 0 9.66677e-05 2.97763e-05 0 9.81817e-05 2.12339e-05 0 9.91542e-05 1.27216e-05 0 9.96297e-05 4.23694e-06 0 9.96297e-05 -4.23694e-06 0 9.91542e-05 -1.27216e-05 0 9.81817e-05 -2.12339e-05 0 9.66677e-05 -2.97763e-05 0 9.45414e-05 -3.83247e-05 0 9.17036e-05 -4.68114e-05 0 8.80305e-05 -5.50999e-05 0 8.33949e-05 -6.29506e-05 0 7.77314e-05 -7.00071e-05 0 7.11735e-05 -7.57498e-05 0 6.42265e-05 -7.97378e-05 0 5.77608e-05 -8.18679e-05 0 5.27292e-05 -8.24619e-05 0 4.99901e-05 -8.18259e-05 0 5.0181e-05 -7.93624e-05 0 5.22155e-05 -7.31414e-05 0 6.29965e-05 7.80274e-05 0 5.22583e-05 8.34052e-05 0 4.95379e-05 8.11356e-05 0 5.16409e-05 7.88489e-05 0 5.58332e-05 7.65869e-05 0 6.09856e-05 7.36735e-05 0 6.64182e-05 6.96642e-05 0 7.16352e-05 6.44549e-05 0 7.63228e-05 5.81975e-05 0 8.03421e-05 5.11909e-05 0 8.36713e-05 4.369e-05 0 8.63447e-05 3.59049e-05 0 8.84122e-05 2.79774e-05 0 8.99206e-05 1.99925e-05 0 9.09062e-05 1.19938e-05 0 9.1393e-05 3.99714e-06 0 9.1393e-05 -3.99714e-06 0 9.09062e-05 -1.19938e-05 0 8.99206e-05 -1.99925e-05 0 8.84122e-05 -2.79774e-05 0 8.63447e-05 -3.59049e-05 0 8.36713e-05 -4.369e-05 0 8.03421e-05 -5.11909e-05 0 7.63228e-05 -5.81975e-05 0 7.16352e-05 -6.44549e-05 0 6.64182e-05 -6.96642e-05 0 6.09856e-05 -7.36735e-05 0 5.58332e-05 -7.65869e-05 0 5.16409e-05 -7.88489e-05 0 4.95379e-05 -8.11356e-05 0 5.22583e-05 -8.34052e-05 0 6.29965e-05 -7.80274e-05 0 0.000154914 0.000219504 0 4.33686e-05 9.00078e-05 0 4.49721e-05 7.97766e-05 0 4.86751e-05 7.51868e-05 0 5.29985e-05 7.20029e-05 0 5.74891e-05 6.87676e-05 0 6.19103e-05 6.48266e-05 0 6.60991e-05 5.99587e-05 0 6.99384e-05 5.42033e-05 0 7.33519e-05 4.77638e-05 0 7.62967e-05 4.08406e-05 0 7.87526e-05 3.36174e-05 0 8.07134e-05 2.62285e-05 0 8.21796e-05 1.87602e-05 0 8.31544e-05 1.12613e-05 0 8.36408e-05 3.75415e-06 0 8.36408e-05 -3.75415e-06 0 8.31544e-05 -1.12613e-05 0 8.21796e-05 -1.87602e-05 0 8.07134e-05 -2.62285e-05 0 7.87526e-05 -3.36174e-05 0 7.62967e-05 -4.08406e-05 0 7.33519e-05 -4.77638e-05 0 6.99384e-05 -5.42033e-05 0 6.60991e-05 -5.99587e-05 0 6.19103e-05 -6.48266e-05 0 5.74891e-05 -6.87676e-05 0 5.29985e-05 -7.20029e-05 0 4.86751e-05 -7.51868e-05 0 4.49721e-05 -7.97766e-05 0 4.33686e-05 -9.00078e-05 0 0.000154914 -0.000219504 0 </DataArray> 
</PointData> 
<Points> 
<DataArray type="Float32" NumberOfComponents="3"> 