<?xml version="1.0"?> 
<VTKFile type="StructuredGrid" version="0.1"> 
<StructuredGrid WholeExtent="0 31 0 31 0 0"> 
<Piece Extent="0 31 0 31 0 0"> 
<PointData>
<DataArray type="Float32" Name="B" format="ascii" NumberOfComponents="3"> 
0.000274547 0.000219504 0 0.000130071 9.00078e-05 0 0.000134913 7.97766e-05 0 0.000146026 7.51868e-05 0 0.000158999 7.20029e-05 0 0.000172472 6.87676e-05 0 0.000185736 6.48266e-05 0 0.000198303 5.99587e-05 0 0.000209822 5.42033e-05 0 0.000220063 4.77638e-05 0 0.000228897 4.08406e-05 0 0.000236265 3.36174e-05 0 0.000242148 2.62285e-05 0 0.000246546 1.87602e-05 0 0.000249471 1.12613e-05 0 0.00025093 3.75415e-06 0 0.00025093 -3.75415e-06 0 0.000249471 -1.12613e-05 0 0.000246546 -1.87602e-05 0 0.000242148 -2.62285e-05 0 0.000236265 -3.36174e-05 0 0.000228897 -4.08406e-05 0 0.000220063 -4.77638e-05 0 0.000209822 -5.42033e-05 0 0.000198303 -5.99587e-05 0 0.000185736 -6.48266e-05 0 0.000172472 -6.87676e-05 0 0.000158999 -7.20029e-05 0 0.000146026 -7.51868e-05 0 0.000134913 -7.97766e-05 0 0.000130071 -9.00078e-05 0 0.000274547 -0.000219504 0 0.000119748 0.000191158 0 0.000127457 9.03302e-05 0 0.000134041 7.6569e-05 0 0.000145554 7.10327e-05 0 0.000158611 6.75465e-05 0 0.000172039 6.42939e-05 0 0.000185205 6.0517e-05 0 0.000197663 5.59463e-05 0 0.000209087 5.05818e-05 0 0.000219257 4.45897e-05 0 0.000228046 3.81444e-05 0 0.000235386 3.1412e-05 0 0.000241255 2.45169e-05 0 0.000245647 1.7541e-05 0 0.000248569 1.05314e-05 0 0.000250028 3.51113e-06 0 0.000250028 -3.51113e-06 0 0.000248569 -1.05314e-05 0 0.000245647 -1.7541e-05 0 0.000241255 -2.45169e-05 0 0.000235386 -3.1412e-05 0 0.000228046 -3.81444e-05 0 0.000219257 -4.45897e-05 0 0.000209087 -5.05818e-05 0 0.000197663 -5.59463e-05 0 0.000185205 -6.0517e-05 0 0.000172039 -6.42939e-05 0 0.000158611 -6.75465e-05 0 0.000145554 -7.10327e-05 0 0.000134041 -7.6569e-05 0 0.000127457 -9.03302e-05 0 0.000119748 -0.000191158 0 0.000103965 0.000156649 0 0.000124149 8.91015e-05 0 0.000132994 7.30873e-05 0 0.000145023 6.68038e-05 0 0.000158209 6.30836e-05 0 0.000171619 5.98435e-05 0 0.000184704 5.62414e-05 0 0.000197066 5.19669e-05 0 0.000208404 4.69868e-05 0 0.00021851 4.14342e-05 0 0.000227254 3.54599e-05 0 0.000234568 2.92132e-05 0 0.000240423 2.28086e-05 0 0.000244808 1.63229e-05 0 0.000247728 9.80179e-06 0 0.000249186 3.26817e-06 0 0.000249186 -3.26817e-06 0 0.000247728 -9.80179e-06 0 0.000244808 -1.63229e-05 0 0.000240423 -2.28086e-05 0 0.000234568 -2.92132e-05 0 0.000227254 -3.54599e-05 0 0.00021851 -4.14342e-05 0 0.000208404 -4.69868e-05 0 0.000197066 -5.19669e-05 0 0.000184704 -5.62414e-05 0 0.000171619 -5.98435e-05 0 0.000158209 -6.30836e-05 0 0.000145023 -6.68038e-05 0 0.000132994 -7.30873e-05 0 0.000124149 -8.91015e-05 0 0.000103965 -0.000156649 0 9.59517e-05 0.000135367 0 0.000120614 8.61846e-05 0 0.000131823 6.92768e-05 0 0.000144448 6.24808e-05 0 0.000157799 5.86045e-05 0 0.000171212 5.54098e-05 0 0.000184233 5.19946e-05 0 0.000196511 4.80169e-05 0 0.000207773 4.3416e-05 0 0.000217819 3.8296e-05 0 0.000226522 3.27865e-05 0 0.000233811 2.70208e-05 0 0.000239651 2.11035e-05 0 0.00024403 1.51063e-05 0 0.000246947 9.07267e-06 0 0.000248405 3.02531e-06 0 0.000248405 -3.02531e-06 0 0.000246947 -9.07267e-06 0 0.00024403 -1.51063e-05 0 0.000239651 -2.11035e-05 0 0.000233811 -2.70208e-05 0 0.000226522 -3.27865e-05 0 0.000217819 -3.8296e-05 0 0.000207773 -4.3416e-05 0 0.000196511 -4.80169e-05 0 0.000184233 -5.19946e-05 0 0.000171212 -5.54098e-05 0 0.000157799 -5.86045e-05 0 0.000144448 -6.24808e-05 0 0.000131823 -6.92768e-05 0 0.000120614 -8.61846e-05 0 9.59517e-05 -0.000135367 0 9.08451e-05 0.000118976 0 0.000117208 8.18095e-05 0 0.000130583 6.5111e-05 0 0.000143845 5.80498e-05 0 0.000157387 5.41013e-05 0 0.000170821 5.09871e-05 0 0.000183793 4.77721e-05 0 0.000195999 4.4093e-05 0 0.000207192 3.98671e-05 0 0.000217183 3.51739e-05 0 0.000225848 3.01236e-05 0 0.000233114 2.48344e-05 0 0.00023894 1.94015e-05 0 0.000243313 1.38911e-05 0 0.000246227 8.34407e-06 0 0.000247684 2.78256e-06 0 0.000247684 -2.78256e-06 0 0.000246227 -8.34407e-06 0 0.000243313 -1.38911e-05 0 0.00023894 -1.94015e-05 0 0.000233114 -2.48344e-05 0 0.000225848 -3.01236e-05 0 0.000217183 -3.51739e-05 0 0.000207192 -3.98671e-05 0 0.000195999 -4.4093e-05 0 0.000183793 -4.77721e-05 0 0.000170821 -5.09871e-05 0 0.000157387 -5.41013e-05 0 0.000143845 -5.80498e-05 0 0.000130583 -6.5111e-05 0 0.000117208 -8.18095e-05 0 9.08451e-05 -0.000118976 0 8.72472e-05 0.000105092 0 0.000114127 7.63364e-05 0 0.000129327 6.05903e-05 0 0.000143229 5.35023e-05 0 0.000156981 4.95678e-05 0 0.00017045 4.65703e-05 0 0.000183385 4.35698e-05 0 0.00019553 4.01919e-05 0 0.000206661 3.63381e-05 0 0.000216603 3.20666e-05 0 0.000225233 2.74704e-05 0 0.000232476 2.2654e-05 0 0.00023829 1.77027e-05 0 0.000242656 1.26773e-05 0 0.000245567 7.61602e-06 0 0.000247023 2.53994e-06 0 0.000247023 -2.53994e-06 0 0.000245567 -7.61602e-06 0 0.000242656 -1.26773e-05 0 0.00023829 -1.77027e-05 0 0.000232476 -2.2654e-05 0 0.000225233 -2.74704e-05 0 0.000216603 -3.20666e-05 0 0.000206661 -3.63381e-05 0 0.00019553 -4.01919e-05 0 0.000183385 -4.35698e-05 0 0.00017045 -4.65703e-05 0 0.000156981 -4.95678e-05 0 0.000143229 -5.35023e-05 0 0.000129327 -6.05903e-05 0 0.000114127 -7.63364e-05 0 8.72472e-05 -0.000105092 0 8.45647e-05 9.2713e-05 0 0.000111441 7.00998e-05 0 0.0001281 5.57355e-05 0 0.000142617 4.88349e-05 0 0.000156585 4.49997e-05 0 0.000170101 4.21555e-05 0 0.000183009 3.93841e-05 0 0.000195102 3.63108e-05 0 0.00020618 3.28267e-05 0 0.000216077 2.89727e-05 0 0.000224675 2.48263e-05 0 0.000231897 2.0479e-05 0 0.000237699 1.60068e-05 0 0.000242059 1.1465e-05 0 0.000244968 6.88853e-06 0 0.000246422 2.29747e-06 0 0.000246422 -2.29747e-06 0 0.000244968 -6.88853e-06 0 0.000242059 -1.1465e-05 0 0.000237699 -1.60068e-05 0 0.000231897 -2.0479e-05 0 0.000224675 -2.48263e-05 0 0.000216077 -2.89727e-05 0 0.00020618 -3.28267e-05 0 0.000195102 -3.63108e-05 0 0.000183009 -3.93841e-05 0 0.000170101 -4.21555e-05 0 0.000156585 -4.49997e-05 0 0.000142617 -4.88349e-05 0 0.0001281 -5.57355e-05 0 0.000111441 -7.00998e-05 0 8.45647e-05 -9.2713e-05 0 8.2499e-05 8.13274e-05 0 0.000109151 6.33556e-05 0 0.00012694 5.05804e-05 0 0.000142024 4.40494e-05 0 0.000156208 4.03944e-05 0 0.000169777 3.77393e-05 0 0.000182668 3.52118e-05 0 0.000194717 3.2447e-05 0 0.000205747 2.93311e-05 0 0.000215605 2.58908e-05 0 0.000224174 2.21905e-05 0 0.000231378 1.8309e-05 0 0.000237169 1.43138e-05 0 0.000241523 1.0254e-05 0 0.000244428 6.16162e-06 0 0.000245882 2.05514e-06 0 0.000245882 -2.05514e-06 0 0.000244428 -6.16162e-06 0 0.000241523 -1.0254e-05 0 0.000237169 -1.43138e-05 0 0.000231378 -1.8309e-05 0 0.000224174 -2.21905e-05 0 0.000215605 -2.58908e-05 0 0.000205747 -2.93311e-05 0 0.000194717 -3.2447e-05 0 0.000182668 -3.52118e-05 0 0.000169777 -3.77393e-05 0 0.000156208 -4.03944e-05 0 0.000142024 -4.40494e-05 0 0.00012694 -5.05804e-05 0 0.000109151 -6.33556e-05 0 8.2499e-05 -8.13274e-05 0 8.0883e-05 7.0636e-05 0 0.000107232 5.62828e-05 0 0.000125876 4.51653e-05 0 0.000141465 3.91516e-05 0 0.000155855 3.57513e-05 0 0.000169482 3.33196e-05 0 0.000182361 3.10502e-05 0 0.000194374 2.85979e-05 0 0.000205364 2.58492e-05 0 0.000215187 2.28198e-05 0 0.000223731 1.95621e-05 0 0.000230917 1.61437e-05 0 0.000236698 1.26233e-05 0 0.000241047 9.04429e-06 0 0.00024395 5.43524e-06 0 0.000245402 1.81296e-06 0 0.000245402 -1.81296e-06 0 0.00024395 -5.43524e-06 0 0.000241047 -9.04429e-06 0 0.000236698 -1.26233e-05 0 0.000230917 -1.61437e-05 0 0.000223731 -1.95621e-05 0 0.000215187 -2.28198e-05 0 0.000205364 -2.58492e-05 0 0.000194374 -2.85979e-05 0 0.000182361 -3.10502e-05 0 0.000169482 -3.33196e-05 0 0.000155855 -3.57513e-05 0 0.000141465 -3.91516e-05 0 0.000125876 -4.51653e-05 0 0.000107232 -5.62828e-05 0 8.0883e-05 -7.0636e-05 0 7.96008e-05 6.04484e-05 0 0.000105638 4.90009e-05 0 0.000124922 3.95318e-05 0 0.000140951 3.41502e-05 0 0.000155532 3.10712e-05 0 0.000169216 2.88946e-05 0 0.00018209 2.6897e-05 0 0.000194073 2.47614e-05 0 0.000205028 2.23793e-05 0 0.000214821 1.97582e-05 0 0.000223343 1.69404e-05 0 0.000230514 1.39826e-05 0 0.000236286 1.09352e-05 0 0.00024063 7.83579e-06 0 0.00024353 4.70939e-06 0 0.000244982 1.57091e-06 0 0.000244982 -1.57091e-06 0 0.00024353 -4.70939e-06 0 0.00024063 -7.83579e-06 0 0.000236286 -1.09352e-05 0 0.000230514 -1.39826e-05 0 0.000223343 -1.69404e-05 0 0.000214821 -1.97582e-05 0 0.000205028 -2.23793e-05 0 0.000194073 -2.47614e-05 0 0.00018209 -2.6897e-05 0 0.000169216 -2.88946e-05 0 0.000155532 -3.10712e-05 0 0.000140951 -3.41502e-05 0 0.000124922 -3.95318e-05 0 0.000105638 -4.90009e-05 0 7.96008e-05 -6.04484e-05 0 7.85883e-05 5.06343e-05 0 0.000104338 4.15879e-05 0 0.000124094 3.37198e-05 0 0.000140493 2.90565e-05 0 0.000155246 2.63563e-05 0 0.000168983 2.44636e-05 0 0.000181856 2.27503e-05 0 0.000193815 2.09354e-05 0 0.000204741 1.89196e-05 0 0.000214509 1.67048e-05 0 0.000223011 1.43243e-05 0 0.000230169 1.18251e-05 0 0.000235933 9.24917e-06 0 0.000240272 6.62837e-06 0 0.000243171 3.98401e-06 0 0.000244622 1.329e-06 0 0.000244622 -1.329e-06 0 0.000243171 -3.98401e-06 0 0.000240272 -6.62837e-06 0 0.000235933 -9.24917e-06 0 0.000230169 -1.18251e-05 0 0.000223011 -1.43243e-05 0 0.000214509 -1.67048e-05 0 0.000204741 -1.89196e-05 0 0.000193815 -2.09354e-05 0 0.000181856 -2.27503e-05 0 0.000168983 -2.44636e-05 0 0.000155246 -2.63563e-05 0 0.000140493 -2.90565e-05 0 0.000124094 -3.37198e-05 0 0.000104338 -4.15879e-05 0 7.85883e-05 -5.06343e-05 0 7.77979e-05 4.10995e-05 0 0.0001033 3.40941e-05 0 0.000123398 2.77655e-05 0 0.000140099 2.38834e-05 0 0.000154999 2.16102e-05 0 0.000168786 2.00263e-05 0 0.000181659 1.86084e-05 0 0.000193599 1.71179e-05 0 0.000204502 1.54683e-05 0 0.000214248 1.36582e-05 0 0.000222734 1.17132e-05 0 0.000229882 9.67076e-06 0 0.000235639 7.56497e-06 0 0.000239975 5.42188e-06 0 0.000242872 3.25904e-06 0 0.000244322 1.08719e-06 0 0.000244322 -1.08719e-06 0 0.000242872 -3.25904e-06 0 0.000239975 -5.42188e-06 0 0.000235639 -7.56497e-06 0 0.000229882 -9.67076e-06 0 0.000222734 -1.17132e-05 0 0.000214248 -1.36582e-05 0 0.000204502 -1.54683e-05 0 0.000193599 -1.71179e-05 0 0.000181659 -1.86084e-05 0 0.000168786 -2.00263e-05 0 0.000154999 -2.16102e-05 0 0.000140099 -2.38834e-05 0 0.000123398 -2.77655e-05 0 0.0001033 -3.40941e-05 0 7.77979e-05 -4.10995e-05 0 7.71971e-05 3.17719e-05 0 0.000102498 2.65516e-05 0 0.000122839 2.17014e-05 0 0.000139777 1.86446e-05 0 0.000154797 1.68371e-05 0 0.000168625 1.5583e-05 0 0.000181501 1.447e-05 0 0.000193426 1.33071e-05 0 0.000204311 1.20239e-05 0 0.00021404 1.06173e-05 0 0.000222514 9.1061e-06 0 0.000229652 7.51899e-06 0 0.000235404 5.88227e-06 0 0.000239737 4.21618e-06 0 0.000242632 2.53443e-06 0 0.000244082 8.4549e-07 0 0.000244082 -8.4549e-07 0 0.000242632 -2.53443e-06 0 0.000239737 -4.21618e-06 0 0.000235404 -5.88227e-06 0 0.000229652 -7.51899e-06 0 0.000222514 -9.1061e-06 0 0.00021404 -1.06173e-05 0 0.000204311 -1.20239e-05 0 0.000193426 -1.33071e-05 0 0.000181501 -1.447e-05 0 0.000168625 -1.5583e-05 0 0.000154797 -1.68371e-05 0 0.000139777 -1.86446e-05 0 0.000122839 -2.17014e-05 0 0.000102498 -2.65516e-05 0 7.71971e-05 -3.17719e-05 0 7.67633e-05 2.25939e-05 0 0.000101913 1.89805e-05 0 0.000122419 1.55562e-05 0 0.00013953 1.33543e-05 0 0.000154642 1.20425e-05 0 0.000168504 1.11347e-05 0 0.000181381 1.03341e-05 0 0.000193296 9.50151e-06 0 0.000204167 8.5848e-06 0 0.000213884 7.58068e-06 0 0.000222348 6.50211e-06 0 0.00022948 5.36925e-06 0 0.000235228 4.20077e-06 0 0.000239558 3.0111e-06 0 0.000242452 1.8101e-06 0 0.000243901 6.03863e-07 0 0.000243901 -6.03863e-07 0 0.000242452 -1.8101e-06 0 0.000239558 -3.0111e-06 0 0.000235228 -4.20077e-06 0 0.00022948 -5.36925e-06 0 0.000222348 -6.50211e-06 0 0.000213884 -7.58068e-06 0 0.000204167 -8.5848e-06 0 0.000193296 -9.50151e-06 0 0.000181381 -1.03341e-05 0 0.000168504 -1.11347e-05 0 0.000154642 -1.20425e-05 0 0.00013953 -1.33543e-05 0 0.000122419 -1.55562e-05 0 0.000101913 -1.89805e-05 0 7.67633e-05 -2.25939e-05 0 7.64815e-05 1.35173e-05 0 0.00010153 1.13935e-05 0 0.000122138 9.3553e-06 0 0.000139364 8.02734e-06 0 0.000154538 7.23195e-06 0 0.000168422 6.68244e-06 0 0.000181301 6.19985e-06 0 0.00019321 5.69949e-06 0 0.000204071 5.1494e-06 0 0.00021378 4.54717e-06 0 0.000222237 3.90037e-06 0 0.000229365 3.22097e-06 0 0.00023511 2.52011e-06 0 0.000239439 1.80648e-06 0 0.000242332 1.08598e-06 0 0.000243781 3.62295e-07 0 0.000243781 -3.62295e-07 0 0.000242332 -1.08598e-06 0 0.000239439 -1.80648e-06 0 0.00023511 -2.52011e-06 0 0.000229365 -3.22097e-06 0 0.000222237 -3.90037e-06 0 0.00021378 -4.54717e-06 0 0.000204071 -5.1494e-06 0 0.00019321 -5.69949e-06 0 0.000181301 -6.19985e-06 0 0.000168422 -6.68244e-06 0 0.000154538 -7.23195e-06 0 0.000139364 -8.02734e-06 0 0.000122138 -9.3553e-06 0 0.00010153 -1.13935e-05 0 7.64815e-05 -1.35173e-05 0 7.63423e-05 4.49936e-06 0 0.00010134 3.79863e-06 0 0.000121997 3.12198e-06 0 0.000139279 2.67823e-06 0 0.000154485 2.41173e-06 0 0.00016838 2.22776e-06 0 0.000181261 2.06652e-06 0 0.000193166 1.8996e-06 0 0.000204023 1.71622e-06 0 0.000213728 1.51552e-06 0 0.000222182 1.29997e-06 0 0.000229308 1.07356e-06 0 0.000235051 8.39981e-07 0 0.000239379 6.02128e-07 0 0.000242272 3.61978e-07 0 0.000243721 1.20761e-07 0 0.000243721 -1.20761e-07 0 0.000242272 -3.61978e-07 0 0.000239379 -6.02128e-07 0 0.000235051 -8.39981e-07 0 0.000229308 -1.07356e-06 0 0.000222182 -1.29997e-06 0 0.000213728 -1.51552e-06 0 0.000204023 -1.71622e-06 0 0.000193166 -1.8996e-06 0 0.000181261 -2.06652e-06 0 0.00016838 -2.22776e-06 0 0.000154485 -2.41173e-06 0 0.000139279 -2.67823e-06 0 0.000121997 -3.12198e-06 0 0.00010134 -3.79863e-06 0 7.63423e-05 -4.49936e-06 0 7.63423e-05 -4.49936e-06 0 0.00010134 -3.79863e-06 0 0.000121997 -3.12198e-06 0 0.000139279 -2.67823e-06 0 0.000154485 -2.41173e-06 0 0.00016838 -2.22776e-06 0 0.000181261 -2.06652e-06 0 0.000193166 -1.8996e-06 0 0.000204023 -1.71622e-06 0 0.000213728 -1.51552e-06 0 0.000222182 -1.29997e-06 0 0.000229308 -1.07356e-06 0 0.000235051 -8.39981e-07 0 0.000239379 -6.02128e-07 0 0.000242272 -3.61978e-07 0 0.000243721 -1.20761e-07 0 0.000243721 1.20761e-07 0 0.000242272 3.61978e-07 0 0.000239379 6.02128e-07 0 0.000235051 8.39981e-07 0 0.000229308 1.07356e-06 0 0.000222182 1.29997e-06 0 0.000213728 1.51552e-06 0 0.000204023 1.71622e-06 0 0.000193166 1.8996e-06 0 0.000181261 2.06652e-06 0 0.00016838 2.22776e-06 0 0.000154485 2.41173e-06 0 0.000139279 2.67823e-06 0 0.000121997 3.12198e-06 0 0.00010134 3.79863e-06 0 7.63423e-05 4.49936e-06 0 7.64815e-05 -1.35173e-05 0 0.00010153 -1.13935e-05 0 0.000122138 -9.3553e-06 0 0.000139364 -8.02734e-06 0 0.000154538 -7.23195e-06 0 0.000168422 -6.68244e-06 0 0.000181301 -6.19985e-06 0 0.00019321 -5.69949e-06 0 0.000204071 -5.1494e-06 0 0.00021378 -4.54717e-06 0 0.000222237 -3.90037e-06 0 0.000229365 -3.22097e-06 0 0.00023511 -2.52011e-06 0 0.000239439 -1.80648e-06 0 0.000242332 -1.08598e-06 0 0.000243781 -3.62295e-07 0 0.000243781 3.62295e-07 0 0.000242332 1.08598e-06 0 0.000239439 1.80648e-06 0 0.00023511 2.52011e-06 0 0.000229365 3.22097e-06 0 0.000222237 3.90037e-06 0 0.00021378 4.54717e-06 0 0.000204071 5.1494e-06 0 0.00019321 5.69949e-06 0 0.000181301 6.19985e-06 0 0.000168422 6.68244e-06 0 0.000154538 7.23195e-06 0 0.000139364 8.02734e-06 0 0.000122138 9.3553e-06 0 0.00010153 1.13935e-05 0 7.64815e-05 1.35173e-05 0 7.67633e-05 -2.25939e-05 0 0.000101913 -1.89805e-05 0 0.000122419 -1.55562e-05 0 0.00013953 -1.33543e-05 0 0.000154642 -1.20425e-05 0 0.000168504 -1.11347e-05 0 0.000181381 -1.03341e-05 0 0.000193296 -9.50151e-06 0 0.000204167 -8.5848e-06 0 0.000213884 -7.58068e-06 0 0.000222348 -6.50211e-06 0 0.00022948 -5.36925e-06 0 0.000235228 -4.20077e-06 0 0.000239558 -3.0111e-06 0 0.000242452 -1.8101e-06 0 0.000243901 -6.03863e-07 0 0.000243901 6.03863e-07 0 0.000242452 1.8101e-06 0 0.000239558 3.0111e-06 0 0.000235228 4.20077e-06 0 0.00022948 5.36925e-06 0 0.000222348 6.50211e-06 0 0.000213884 7.58068e-06 0 0.000204167 8.5848e-06 0 0.000193296 9.50151e-06 0 0.000181381 1.03341e-05 0 0.000168504 1.11347e-05 0 0.000154642 1.20425e-05 0 0.00013953 1.33543e-05 0 0.000122419 1.55562e-05 0 0.000101913 1.89805e-05 0 7.67633e-05 2.25939e-05 0 7.71971e-05 -3.17719e-05 0 0.000102498 -2.65516e-05 0 0.000122839 -2.17014e-05 0 0.000139777 -1.86446e-05 0 0.000154797 -1.68371e-05 0 0.000168625 -1.5583e-05 0 0.000181501 -1.447e-05 0 0.000193426 -1.33071e-05 0 0.000204311 -1.20239e-05 0 0.00021404 -1.06173e-05 0 0.000222514 -9.1061e-06 0 0.000229652 -7.51899e-06 0 0.000235404 -5.88227e-06 0 0.000239737 -4.21618e-06 0 0.000242632 -2.53443e-06 0 0.000244082 -8.4549e-07 0 0.000244082 8.4549e-07 0 0.000242632 2.53443e-06 0 0.000239737 4.21618e-06 0 0.000235404 5.88227e-06 0 0.000229652 7.51899e-06 0 0.000222514 9.1061e-06 0 0.00021404 1.06173e-05 0 0.000204311 1.20239e-05 0 0.000193426 1.33071e-05 0 0.000181501 1.447e-05 0 0.000168625 1.5583e-05 0 0.000154797 1.68371e-05 0 0.000139777 1.86446e-05 0 0.000122839 2.17014e-05 0 0.000102498 2.65516e-05 0 7.71971e-05 3.17719e-05 0 7.77979e-05 -4.10995e-05 0 0.0001033 -3.40941e-05 0 0.000123398 -2.77655e-05 0 0.000140099 -2.38834e-05 0 0.000154999 -2.16102e-05 0 0.000168786 -2.00263e-05 0 0.000181659 -1.86084e-05 0 0.000193599 -1.71179e-05 0 0.000204502 -1.54683e-05 0 0.000214248 -1.36582e-05 0 0.000222734 -1.17132e-05 0 0.000229882 -9.67076e-06 0 0.000235639 -7.56497e-06 0 0.000239975 -5.42188e-06 0 0.000242872 -3.25904e-06 0 0.000244322 -1.08719e-06 0 0.000244322 1.08719e-06 0 0.000242872 3.25904e-06 0 0.000239975 5.42188e-06 0 0.000235639 7.56497e-06 0 0.000229882 9.67076e-06 0 0.000222734 1.17132e-05 0 0.000214248 1.36582e-05 0 0.000204502 1.54683e-05 0 0.000193599 1.71179e-05 0 0.000181659 1.86084e-05 0 0.000168786 2.00263e-05 0 0.000154999 2.16102e-05 0 0.000140099 2.38834e-05 0 0.000123398 2.77655e-05 0 0.0001033 3.40941e-05 0 7.77979e-05 4.10995e-05 0 7.85883e-05 -5.06343e-05 0 0.000104338 -4.15879e-05 0 0.000124094 -3.37198e-05 0 0.000140493 -2.90565e-05 0 0.000155246 -2.63563e-05 0 0.000168983 -2.44636e-05 0 0.000181856 -2.27503e-05 0 0.000193815 -2.09354e-05 0 0.000204741 -1.89196e-05 0 0.000214509 -1.67048e-05 0 0.000223011 -1.43243e-05 0 0.000230169 -1.18251e-05 0 0.000235933 -9.24917e-06 0 0.000240272 -6.62837e-06 0 0.000243171 -3.98401e-06 0 0.000244622 -1.329e-06 0 0.000244622 1.329e-06 0 0.000243171 3.98401e-06 0 0.000240272 6.62837e-06 0 0.000235933 9.24917e-06 0 0.000230169 1.18251e-05 0 0.000223011 1.43243e-05 0 0.000214509 1.67048e-05 0 0.000204741 1.89196e-05 0 0.000193815 2.09354e-05 0 0.000181856 2.27503e-05 0 0.000168983 2.44636e-05 0 0.000155246 2.63563e-05 0 0.000140493 2.90565e-05 0 0.000124094 3.37198e-05 0 0.000104338 4.15879e-05 0 7.85883e-05 5.06343e-05 0 7.96008e-05 -6.04484e-05 0 0.000105638 -4.90009e-05 0 0.000124922 -3.95318e-05 0 0.000140951 -3.41502e-05 0 0.000155532 -3.10712e-05 0 0.000169216 -2.88946e-05 0 0.00018209 -2.6897e-05 0 0.000194073 -2.47614e-05 0 0.000205028 -2.23793e-05 0 0.000214821 -1.97582e-05 0 0.000223343 -1.69404e-05 0 0.000230514 -1.39826e-05 0 0.000236286 -1.09352e-05 0 0.00024063 -7.83579e-06 0 0.00024353 -4.70939e-06 0 0.000244982 -1.57091e-06 0 0.000244982 1.57091e-06 0 0.00024353 4.70939e-06 0 0.00024063 7.83579e-06 0 0.000236286 1.09352e-05 0 0.000230514 1.39826e-05 0 0.000223343 1.69404e-05 0 0.000214821 1.97582e-05 0 0.000205028 2.23793e-05 0 0.000194073 2.47614e-05 0 0.00018209 2.6897e-05 0 0.000169216 2.88946e-05 0 0.000155532 3.10712e-05 0 0.000140951 3.41502e-05 0 0.000124922 3.95318e-05 0 0.000105638 4.90009e-05 0 7.96008e-05 6.04484e-05 0 8.0883e-05 -7.0636e-05 0 0.000107232 -5.62828e-05 0 0.000125876 -4.51653e-05 0 0.000141465 -3.91516e-05 0 0.000155855 -3.57513e-05 0 0.000169482 -3.33196e-05 0 0.000182361 -3.10502e-05 0 0.000194374 -2.85979e-05 0 0.000205364 -2.58492e-05 0 0.000215187 -2.28198e-05 0 0.000223731 -1.95621e-05 0 0.000230917 -1.61437e-05 0 0.000236698 -1.26233e-05 0 0.000241047 -9.04429e-06 0 0.00024395 -5.43524e-06 0 0.000245402 -1.81296e-06 0 0.000245402 1.81296e-06 0 0.00024395 5.43524e-06 0 0.000241047 9.04429e-06 0 0.000236698 1.26233e-05 0 0.000230917 1.61437e-05 0 0.000223731 1.95621e-05 0 0.000215187 2.28198e-05 0 0.000205364 2.58492e-05 0 0.000194374 2.85979e-05 0 0.000182361 3.10502e-05 0 0.000169482 3.33196e-05 0 0.000155855 3.57513e-05 0 0.000141465 3.91516e-05 0 0.000125876 4.51653e-05 0 0.000107232 5.62828e-05 0 8.0883e-05 7.0636e-05 0 8.2499e-05 -8.13274e-05 0 0.000109151 -6.33556e-05 0 0.00012694 -5.05804e-05 0 0.000142024 -4.40494e-05 0 0.000156208 -4.03944e-05 0 0.000169777 -3.77393e-05 0 0.000182668 -3.52118e-05 0 0.000194717 -3.2447e-05 0 0.000205747 -2.93311e-05 0 0.000215605 -2.58908e-05 0 0.000224174 -2.21905e-05 0 0.000231378 -1.8309e-05 0 0.000237169 -1.43138e-05 0 0.000241523 -1.0254e-05 0 0.000244428 -6.16162e-06 0 0.000245882 -2.05514e-06 0 0.000245882 2.05514e-06 0 0.000244428 6.16162e-06 0 0.000241523 1.0254e-05 0 0.000237169 1.43138e-05 0 0.000231378 1.8309e-05 0 0.000224174 2.21905e-05 0 0.000215605 2.58908e-05 0 0.000205747 2.93311e-05 0 0.000194717 3.2447e-05 0 0.000182668 3.52118e-05 0 0.000169777 3.77393e-05 0 0.000156208 4.03944e-05 0 0.000142024 4.40494e-05 0 0.00012694 5.05804e-05 0 0.000109151 6.33556e-05 0 8.2499e-05 8.13274e-05 0 8.45647e-05 -9.2713e-05 0 0.000111441 -7.00998e-05 0 0.0001281 -5.57355e-05 0 0.000142617 -4.88349e-05 0 0.000156585 -4.49997e-05 0 0.000170101 -4.21555e-05 0 0.000183009 -3.93841e-05 0 0.000195102 -3.63108e-05 0 0.00020618 -3.28267e-05 0 0.000216077 -2.89727e-05 0 0.000224675 -2.48263e-05 0 0.000231897 -2.0479e-05 0 0.000237699 -1.60068e-05 0 0.000242059 -1.1465e-05 0 0.000244968 -6.88853e-06 0 0.000246422 -2.29747e-06 0 0.000246422 2.29747e-06 0 0.000244968 6.88853e-06 0 0.000242059 1.1465e-05 0 0.000237699 1.60068e-05 0 0.000231897 2.0479e-05 0 0.000224675 2.48263e-05 0 0.000216077 2.89727e-05 0 0.00020618 3.28267e-05 0 0.000195102 3.63108e-05 0 0.000183009 3.93841e-05 0 0.000170101 4.21555e-05 0 0.000156585 4.49997e-05 0 0.000142617 4.88349e-05 0 0.0001281 5.57355e-05 0 0.000111441 7.00998e-05 0 8.45647e-05 9.2713e-05 0 8.72472e-05 -0.000105092 0 0.000114127 -7.63364e-05 0 0.000129327 -6.05903e-05 0 0.000143229 -5.35023e-05 0 0.000156981 -4.95678e-05 0 0.00017045 -4.65703e-05 0 0.000183385 -4.35698e-05 0 0.00019553 -4.01919e-05 0 0.000206661 -3.63381e-05 0 0.000216603 -3.20666e-05 0 0.000225233 -2.74704e-05 0 0.000232476 -2.2654e-05 0 0.00023829 -1.77027e-05 0 0.000242656 -1.26773e-05 0 0.000245567 -7.61602e-06 0 0.000247023 -2.53994e-06 0 0.000247023 2.53994e-06 0 0.000245567 7.61602e-06 0 0.000242656 1.26773e-05 0 0.00023829 1.77027e-05 0 0.000232476 2.2654e-05 0 0.000225233 2.74704e-05 0 0.000216603 3.20666e-05 0 0.000206661 3.63381e-05 0 0.00019553 4.01919e-05 0 0.000183385 4.35698e-05 0 0.00017045 4.65703e-05 0 0.000156981 4.95678e-05 0 0.000143229 5.35023e-05 0 0.000129327 6.05903e-05 0 0.000114127 7.63364e-05 0 8.72472e-05 0.000105092 0 9.08451e-05 -0.000118976 0 0.000117208 -8.18095e-05 0 0.000130583 -6.5111e-05 0 0.000143845 -5.80498e-05 0 0.000157387 -5.41013e-05 0 0.000170821 -5.09871e-05 0 0.000183793 -4.77721e-05 0 0.000195999 -4.4093e-05 0 0.000207192 -3.98671e-05 0 0.000217183 -3.51739e-05 0 0.000225848 -3.01236e-05 0 0.000233114 -2.48344e-05 0 0.00023894 -1.94015e-05 0 0.000243313 -1.38911e-05 0 0.000246227 -8.34407e-06 0 0.000247684 -2.78256e-06 0 0.000247684 2.78256e-06 0 0.000246227 8.34407e-06 0 0.000243313 1.38911e-05 0 0.00023894 1.94015e-05 0 0.000233114 2.48344e-05 0 0.000225848 3.01236e-05 0 0.000217183 3.51739e-05 0 0.000207192 3.98671e-05 0 0.000195999 4.4093e-05 0 0.000183793 4.77721e-05 0 0.000170821 5.09871e-05 0 0.000157387 5.41013e-05 0 0.000143845 5.80498e-05 0 0.000130583 6.5111e-05 0 0.000117208 8.18095e-05 0 9.08451e-05 0.000118976 0 9.59517e-05 -0.000135367 0 0.000120614 -8.61846e-05 0 0.000131823 -6.92768e-05 0 0.000144448 -6.24808e-05 0 0.000157799 -5.86045e-05 0 0.000171212 -5.54098e-05 0 0.000184233 -5.19946e-05 0 0.000196511 -4.80169e-05 0 0.000207773 -4.3416e-05 0 0.000217819 -3.8296e-05 0 0.000226522 -3.27865e-05 0 0.000233811 -2.70208e-05 0 0.000239651 -2.11035e-05 0 0.00024403 -1.51063e-05 0 0.000246947 -9.07267e-06 0 0.000248405 -3.02531e-06 0 0.000248405 3.02531e-06 0 0.000246947 9.07267e-06 0 0.00024403 1.51063e-05 0 0.000239651 2.11035e-05 0 0.000233811 2.70208e-05 0 0.000226522 3.27865e-05 0 0.000217819 3.8296e-05 0 0.000207773 4.3416e-05 0 0.000196511 4.80169e-05 0 0.000184233 5.19946e-05 0 0.000171212 5.54098e-05 0 0.000157799 5.86045e-05 0 0.000144448 6.24808e-05 0 0.000131823 6.92768e-05 0 0.000120614 8.61846e-05 0 9.59517e-05 0.000135367 0 0.000103965 -0.000156649 0 0.000124149 -8.91015e-05 0 0.000132994 -7.30873e-05 0 0.000145023 -6.68038e-05 0 0.000158209 -6.30836e-05 0 0.000171619 -5.98435e-05 0 0.000184704 -5.62414e-05 0 0.000197066 -5.19669e-05 0 0.000208404 -4.69868e-05 0 0.00021851 -4.14342e-05 0 0.000227254 -3.54599e-05 0 0.000234568 -2.92132e-05 0 0.000240423 -2.28086e-05 0 0.000244808 -1.63229e-05 0 0.000247728 -9.80179e-06 0 0.000249186 -3.26817e-06 0 0.000249186 3.26817e-06 0 0.000247728 9.80179e-06 0 0.000244808 1.63229e-05 0 0.000240423 2.28086e-05 0 0.000234568 2.92132e-05 0 0.000227254 3.54599e-05 0 0.00021851 4.14342e-05 0 0.000208404 4.69868e-05 0 0.000197066 5.19669e-05 0 0.000184704 5.62414e-05 0 0.000171619 5.98435e-05 0 0.000158209 6.30836e-05 0 0.000145023 6.68038e-05 0 0.000132994 7.30873e-05 0 0.000124149 8.91015e-05 0 0.000103965 0.000156649 0 0.000119748 -0.000191158 0 0.000127457 -9.03302e-05 0 0.000134041 -7.6569e-05 0 0.000145554 -7.10327e-05 0 0.000158611 -6.75465e-05 0 0.000172039 -6.42939e-05 0 0.000185205 -6.0517e-05 0 0.000197663 -5.59463e-05 0 0.000209087 -5.05818e-05 0 0.000219257 -4.45897e-05 0 0.000228046 -3.81444e-05 0 0.000235386 -3.1412e-05 0 0.000241255 -2.45169e-05 0 0.000245647 -1.7541e-05 0 0.000248569 -1.05314e-05 0 0.000250028 -3.51113e-06 0 0.000250028 3.51113e-06 0 0.000248569 1.05314e-05 0 0.000245647 1.7541e-05 0 0.000241255 2.45169e-05 0 0.000235386 3.1412e-05 0 0.000228046 3.81444e-05 0 0.000219257 4.45897e-05 0 0.000209087 5.05818e-05 0 0.000197663 5.59463e-05 0 0.000185205 6.0517e-05 0 0.000172039 6.42939e-05 0 0.000158611 6.75465e-05 0 0.000145554 7.10327e-05 0 0.000134041 7.6569e-05 0 0.000127457 9.03302e-05 0 0.000119748 0.000191158 0 0.000274547 -0.000219504 0 0.000130071 -9.00078e-05 0 0.000134913 -7.97766e-05 0 0.000146026 -7.51868e-05 0 0.000158999 -7.20029e-05 0 0.000172472 -6.87676e-05 0 0.000185736 -6.48266e-05 0 0.000198303 -5.99587e-05 0 0.000209822 -5.42033e-05 0 0.000220063 -4.77638e-05 0 0.000228897 -4.08406e-05 0 0.000236265 -3.36174e-05 0 0.000242148 -2.62285e-05 0 0.000246546 -1.87602e-05 0 0.000249471 -1.12613e-05 0 0.00025093 -3.75415e-06 0 0.00025093 3.75415e-06 0 0.000249471 1.12613e-05 0 0.000246546 1.87602e-05 0 0.000242148 2.62285e-05 0 0.000236265 3.36174e-05 0 0.000228897 4.08406e-05 0 0.000220063 4.77638e-05 0 0.000209822 5.42033e-05 0 0.000198303 5.99587e-05 0 0.000185736 6.48266e-05 0 0.000172472 6.87676e-05 0 0.000158999 7.20029e-05 0 0.000146026 7.51868e-05 0 0.000134913 7.97766e-05 0 0.000130071 9.00078e-05 0 0.000274547 0.000219504 0 </DataArray> 
</PointData> 
<Points> 
<DataArray type="Float32" NumberOfComponents="3"> 