<?xml version="1.0"?> 
<VTKFile type="StructuredGrid" version="0.1"> 
<StructuredGrid WholeExtent="0 31 0 31 0 0"> 
<Piece Extent="0 31 0 31 0 0"> 
<PointData>
<DataArray type="Float32" Name="B" format="ascii" NumberOfComponents="3"> 
0 -0 0 -7.06614e-07 -0 0 -1.41769e-06 -0 0 -2.13758e-06 -0 0 -2.87084e-06 -0 0 -3.62189e-06 -0 0 -4.39521e-06 -0 0 -5.1954e-06 -0 0 -6.02693e-06 -0 0 -6.89442e-06 -0 0 -7.80247e-06 -0 0 -8.75559e-06 -0 0 -9.75839e-06 -0 0 -1.08153e-05 -0 0 -1.19308e-05 -0 0 -1.3109e-05 -0 0 -1.43539e-05 -0 0 -1.56694e-05 -0 0 -1.70586e-05 -0 0 -1.85245e-05 -0 0 -2.00693e-05 -0 0 -2.16945e-05 -0 0 -2.34007e-05 -0 0 -2.51873e-05 -0 0 -2.70528e-05 -0 0 -2.8994e-05 -0 0 -3.10063e-05 -0 0 -3.30832e-05 -0 0 -3.52166e-05 -0 0 -3.73962e-05 -0 0 -3.96097e-05 -0 0 -4.18429e-05 -0 0 0 7.04764e-07 0 -7.04125e-07 7.07252e-07 0 -1.41271e-06 7.13841e-07 0 -2.1301e-06 7.24844e-07 0 -2.86084e-06 7.40558e-07 0 -3.60937e-06 7.60422e-07 0 -4.38014e-06 7.85078e-07 0 -5.17777e-06 8.1422e-07 0 -6.00673e-06 8.47611e-07 0 -6.87164e-06 8.86127e-07 0 -7.77712e-06 9.28886e-07 0 -8.72767e-06 9.76212e-07 0 -9.72796e-06 1.02829e-06 0 -1.07824e-05 1.08449e-06 0 -1.18955e-05 1.14531e-06 0 -1.30714e-05 1.21019e-06 0 -1.43143e-05 1.27873e-06 0 -1.56278e-05 1.35123e-06 0 -1.70155e-05 1.42662e-06 0 -1.84801e-05 1.50461e-06 0 -2.00241e-05 1.5846e-06 0 -2.16489e-05 1.66562e-06 0 -2.33553e-05 1.74678e-06 0 -2.51428e-05 1.82691e-06 0 -2.701e-05 1.90478e-06 0 -2.89539e-05 1.9788e-06 0 -3.09697e-05 2.04734e-06 0 -3.30513e-05 2.10862e-06 0 -3.51904e-05 2.16068e-06 0 -3.73768e-05 2.20151e-06 0 -3.95984e-05 2.22911e-06 0 -4.18407e-05 2.24146e-06 0 0 1.40507e-06 0 -6.97542e-07 1.41004e-06 0 -1.39953e-06 1.42321e-06 0 -2.1103e-06 1.4452e-06 0 -2.8344e-06 1.4766e-06 0 -3.57623e-06 1.5163e-06 0 -4.34027e-06 1.56558e-06 0 -5.13112e-06 1.62384e-06 0 -5.95327e-06 1.69061e-06 0 -6.81136e-06 1.76763e-06 0 -7.71001e-06 1.85317e-06 0 -8.65378e-06 1.94786e-06 0 -9.64736e-06 2.0521e-06 0 -1.06953e-05 2.16462e-06 0 -1.1802e-05 2.28643e-06 0 -1.29719e-05 2.41644e-06 0 -1.42092e-05 2.55385e-06 0 -1.55177e-05 2.69929e-06 0 -1.6901e-05 2.85061e-06 0 -1.83622e-05 3.00727e-06 0 -1.99038e-05 3.16808e-06 0 -2.15276e-05 3.33108e-06 0 -2.32346e-05 3.49454e-06 0 -2.50245e-05 3.65613e-06 0 -2.68962e-05 3.81338e-06 0 -2.88468e-05 3.96307e-06 0 -3.0872e-05 4.10199e-06 0 -3.29658e-05 4.2265e-06 0 -3.512e-05 4.33264e-06 0 -3.73247e-05 4.41638e-06 0 -3.95675e-05 4.47359e-06 0 -4.1834e-05 4.50021e-06 0 0 2.09658e-06 0 -6.86576e-07 2.10403e-06 0 -1.37757e-06 2.12375e-06 0 -2.07732e-06 2.15668e-06 0 -2.79033e-06 2.20372e-06 0 -3.521e-06 2.2632e-06 0 -4.27381e-06 2.33705e-06 0 -5.05335e-06 2.42437e-06 0 -5.86413e-06 2.52447e-06 0 -6.7108e-06 2.63999e-06 0 -7.59804e-06 2.76832e-06 0 -8.53044e-06 2.91045e-06 0 -9.51278e-06 3.06699e-06 0 -1.05497e-05 3.23606e-06 0 -1.16457e-05 3.41921e-06 0 -1.28055e-05 3.61484e-06 0 -1.40332e-05 3.82175e-06 0 -1.53332e-05 4.04098e-06 0 -1.67091e-05 4.26929e-06 0 -1.81643e-05 4.50592e-06 0 -1.97018e-05 4.74916e-06 0 -2.13236e-05 4.99606e-06 0 -2.30312e-05 5.24409e-06 0 -2.48248e-05 5.48975e-06 0 -2.67036e-05 5.72933e-06 0 -2.86653e-05 5.95803e-06 0 -3.0706e-05 6.17096e-06 0 -3.28199e-05 6.36259e-06 0 -3.49993e-05 6.52688e-06 0 -3.72343e-05 6.65766e-06 0 -3.95127e-05 6.74858e-06 0 -4.18198e-05 6.79334e-06 0 0 2.77481e-06 0 -6.70973e-07 2.78472e-06 0 -1.34634e-06 2.81095e-06 0 -2.03039e-06 2.85476e-06 0 -2.72761e-06 2.91736e-06 0 -3.44239e-06 2.99652e-06 0 -4.17918e-06 3.09484e-06 0 -4.94258e-06 3.21113e-06 0 -5.73711e-06 3.34448e-06 0 -6.56745e-06 3.49846e-06 0 -7.43833e-06 3.6696e-06 0 -8.35441e-06 3.85926e-06 0 -9.32058e-06 4.0683e-06 0 -1.03416e-05 4.29423e-06 0 -1.14222e-05 4.53922e-06 0 -1.25672e-05 4.80115e-06 0 -1.37811e-05 5.07848e-06 0 -1.50683e-05 5.37274e-06 0 -1.64332e-05 5.67959e-06 0 -1.78795e-05 5.99816e-06 0 -1.94105e-05 6.32622e-06 0 -2.10289e-05 6.65987e-06 0 -2.27367e-05 6.99589e-06 0 -2.45349e-05 7.32957e-06 0 -2.64232e-05 7.65599e-06 0 -2.84001e-05 7.96874e-06 0 -3.04622e-05 8.26123e-06 0 -3.26045e-05 8.52596e-06 0 -3.48195e-05 8.75471e-06 0 -3.70977e-05 8.93897e-06 0 -3.9427e-05 9.06997e-06 0 -4.17926e-05 9.13893e-06 0 0 3.43543e-06 0 -6.51338e-07 3.44777e-06 0 -1.30702e-06 3.48046e-06 0 -1.97131e-06 3.53507e-06 0 -2.64864e-06 3.6131e-06 0 -3.34338e-06 3.71181e-06 0 -4.05996e-06 3.83444e-06 0 -4.80299e-06 3.97956e-06 0 -5.57697e-06 4.14603e-06 0 -6.38663e-06 4.3384e-06 0 -7.23675e-06 4.55232e-06 0 -8.13209e-06 4.78959e-06 0 -9.07764e-06 5.05134e-06 0 -1.00783e-05 5.3345e-06 0 -1.11391e-05 5.64191e-06 0 -1.2265e-05 5.97101e-06 0 -1.34609e-05 6.31991e-06 0 -1.47317e-05 6.69078e-06 0 -1.60821e-05 7.07817e-06 0 -1.75162e-05 7.48117e-06 0 -1.90382e-05 7.8972e-06 0 -2.06514e-05 8.32133e-06 0 -2.23585e-05 8.74982e-06 0 -2.41614e-05 9.17676e-06 0 -2.60608e-05 9.59601e-06 0 -2.80558e-05 9.99962e-06 0 -3.01441e-05 1.03792e-05 0 -3.23213e-05 1.07252e-05 0 -3.45809e-05 1.1027e-05 0 -3.69136e-05 1.12736e-05 0 -3.93075e-05 1.14535e-05 0 -4.17476e-05 1.15552e-05 0 0 4.07412e-06 0 -6.27124e-07 4.08887e-06 0 -1.25853e-06 4.12794e-06 0 -1.89843e-06 4.19322e-06 0 -2.5512e-06 4.28652e-06 0 -3.22118e-06 4.40459e-06 0 -3.91275e-06 4.55133e-06 0 -4.63051e-06 4.72505e-06 0 -5.37898e-06 4.92447e-06 0 -6.16291e-06 5.15507e-06 0 -6.98714e-06 5.4117e-06 0 -7.85652e-06 5.6966e-06 0 -8.77619e-06 6.01126e-06 0 -9.75125e-06 6.35202e-06 0 -1.07869e-05 6.72252e-06 0 -1.18885e-05 7.11973e-06 0 -1.30613e-05 7.54154e-06 0 -1.43107e-05 7.99086e-06 0 -1.56418e-05 8.46115e-06 0 -1.70596e-05 8.95161e-06 0 -1.85689e-05 9.45938e-06 0 -2.0174e-05 9.97853e-06 0 -2.18785e-05 1.0505e-05 0 -2.36853e-05 1.10318e-05 0 -2.55964e-05 1.15513e-05 0 -2.7612e-05 1.20544e-05 0 -2.97311e-05 1.25306e-05 0 -3.19503e-05 1.29683e-05 0 -3.42641e-05 1.33543e-05 0 -3.6664e-05 1.36749e-05 0 -3.91383e-05 1.39154e-05 0 -4.1672e-05 1.40609e-05 0 0 4.68654e-06 0 -5.98709e-07 4.70366e-06 0 -1.20163e-06 4.74901e-06 0 -1.81288e-06 4.8248e-06 0 -2.43679e-06 4.93315e-06 0 -3.07763e-06 5.0703e-06 0 -3.73974e-06 5.24086e-06 0 -4.42769e-06 5.44289e-06 0 -5.146e-06 5.67495e-06 0 -5.89943e-06 5.94354e-06 0 -6.6929e-06 6.24271e-06 0 -7.53134e-06 6.5752e-06 0 -8.42004e-06 6.94288e-06 0 -9.36429e-06 7.34158e-06 0 -1.03696e-05 7.77579e-06 0 -1.14416e-05 8.24212e-06 0 -1.25861e-05 8.73825e-06 0 -1.38088e-05 9.26807e-06 0 -1.51157e-05 9.82391e-06 0 -1.65125e-05 1.04052e-05 0 -1.80049e-05 1.10091e-05 0 -1.95981e-05 1.16286e-05 0 -2.12971e-05 1.22597e-05 0 -2.31061e-05 1.28939e-05 0 -2.50282e-05 1.35229e-05 0 -2.70656e-05 1.41357e-05 0 -2.92186e-05 1.47204e-05 0 -3.14853e-05 1.52628e-05 0 -3.38616e-05 1.57471e-05 0 -3.634e-05 1.61564e-05 0 -3.89096e-05 1.64725e-05 0 -4.15554e-05 1.66767e-05 0 0 5.26854e-06 0 -5.66403e-07 5.28798e-06 0 -1.13692e-06 5.33948e-06 0 -1.71558e-06 5.42557e-06 0 -2.30662e-06 5.54869e-06 0 -2.91424e-06 5.70459e-06 0 -3.54271e-06 5.89858e-06 0 -4.19658e-06 6.1285e-06 0 -4.88032e-06 6.39279e-06 0 -5.59873e-06 6.69899e-06 0 -6.35676e-06 7.0404e-06 0 -7.15943e-06 7.42028e-06 0 -8.01218e-06 7.84098e-06 0 -8.92053e-06 8.29783e-06 0 -9.8902e-06 8.79631e-06 0 -1.09273e-05 9.33272e-06 0 -1.2038e-05 9.90459e-06 0 -1.32287e-05 1.0517e-05 0 -1.45061e-05 1.11612e-05 0 -1.58766e-05 1.18371e-05 0 -1.7347e-05 1.25419e-05 0 -1.89239e-05 1.32677e-05 0 -2.06135e-05 1.40106e-05 0 -2.24215e-05 1.47613e-05 0 -2.4353e-05 1.55101e-05 0 -2.64118e-05 1.6245e-05 0 -2.86002e-05 1.69521e-05 0 -3.09185e-05 1.7615e-05 0 -3.33642e-05 1.82148e-05 0 -3.59314e-05 1.87311e-05 0 -3.86102e-05 1.91416e-05 0 -4.13859e-05 1.9423e-05 0 0 5.81596e-06 0 -5.29536e-07 5.83766e-06 0 -1.06306e-06 5.89516e-06 0 -1.60449e-06 5.99127e-06 0 -2.15794e-06 6.12879e-06 0 -2.72751e-06 6.303e-06 0 -3.31739e-06 6.51991e-06 0 -3.93205e-06 6.77718e-06 0 -4.57593e-06 7.07313e-06 0 -5.25382e-06 7.4164e-06 0 -5.97068e-06 7.79956e-06 0 -6.73162e-06 8.22645e-06 0 -7.54222e-06 8.69997e-06 0 -8.40819e-06 9.215e-06 0 -9.33554e-06 9.77812e-06 0 -1.03308e-05 1.03854e-05 0 -1.14005e-05 1.10343e-05 0 -1.25518e-05 1.17314e-05 0 -1.37921e-05 1.24668e-05 0 -1.51289e-05 1.32412e-05 0 -1.65701e-05 1.40519e-05 0 -1.81236e-05 1.48903e-05 0 -1.97972e-05 1.57533e-05 0 -2.15987e-05 1.66302e-05 0 -2.35351e-05 1.75107e-05 0 -2.56126e-05 1.83819e-05 0 -2.78361e-05 1.92278e-05 0 -3.02085e-05 2.00297e-05 0 -3.27298e-05 2.07657e-05 0 -3.53967e-05 2.14114e-05 0 -3.8201e-05 2.19399e-05 0 -4.1129e-05 2.23222e-05 0 0 6.32478e-06 0 -4.89013e-07 6.34866e-06 0 -9.81862e-07 6.41194e-06 0 -1.48233e-06 6.51776e-06 0 -1.99438e-06 6.66923e-06 0 -2.52199e-06 6.86119e-06 0 -3.06924e-06 7.10036e-06 0 -3.64049e-06 7.38426e-06 0 -4.24014e-06 7.71112e-06 0 -4.87292e-06 8.0907e-06 0 -5.54381e-06 8.51488e-06 0 -6.25797e-06 8.98816e-06 0 -7.02108e-06 9.51403e-06 0 -7.83904e-06 1.0087e-05 0 -8.71814e-06 1.07149e-05 0 -9.66527e-06 1.13935e-05 0 -1.06875e-05 1.21206e-05 0 -1.17926e-05 1.29042e-05 0 -1.29888e-05 1.37335e-05 0 -1.42846e-05 1.461e-05 0 -1.56891e-05 1.55319e-05 0 -1.72119e-05 1.64895e-05 0 -1.88624e-05 1.74812e-05 0 -2.06506e-05 1.84951e-05 0 -2.25859e-05 1.95204e-05 0 -2.46775e-05 2.05435e-05 0 -2.69332e-05 2.15469e-05 0 -2.93594e-05 2.25096e-05 0 -3.19595e-05 2.34066e-05 0 -3.47334e-05 2.4209e-05 0 -3.76756e-05 2.48845e-05 0 -4.07745e-05 2.53975e-05 0 0 6.79117e-06 0 -4.44685e-07 6.81714e-06 0 -8.93027e-07 6.88597e-06 0 -1.34863e-06 7.00109e-06 0 -1.81529e-06 7.16594e-06 0 -2.29683e-06 7.37498e-06 0 -2.79717e-06 7.6356e-06 0 -3.32057e-06 7.94522e-06 0 -3.8713e-06 8.30201e-06 0 -4.45402e-06 8.71689e-06 0 -5.0737e-06 9.18109e-06 0 -5.73551e-06 9.69982e-06 0 -6.44521e-06 1.02772e-05 0 -7.20884e-06 1.09075e-05 0 -8.03294e-06 1.15999e-05 0 -8.92474e-06 1.23501e-05 0 -9.89182e-06 1.31559e-05 0 -1.09426e-05 1.40275e-05 0 -1.2086e-05 1.4953e-05 0 -1.33317e-05 1.59352e-05 0 -1.46902e-05 1.69733e-05 0 -1.61725e-05 1.80567e-05 0 -1.77901e-05 1.91857e-05 0 -1.95554e-05 2.03479e-05 0 -2.14806e-05 2.1532e-05 0 -2.35782e-05 2.27244e-05 0 -2.58599e-05 2.39063e-05 0 -2.83361e-05 2.50546e-05 0 -3.1015e-05 2.61413e-05 0 -3.39009e-05 2.7133e-05 0 -3.69928e-05 2.79912e-05 0 -4.02822e-05 2.86726e-05 0 0 7.21135e-06 0 -3.96551e-07 7.2393e-06 0 -7.96542e-07 7.31338e-06 0 -1.20337e-06 7.43733e-06 0 -1.62062e-06 7.61489e-06 0 -2.05191e-06 7.84016e-06 0 -2.501e-06 8.12123e-06 0 -2.97195e-06 8.45544e-06 0 -3.46891e-06 8.84092e-06 0 -3.99643e-06 9.28978e-06 0 -4.55938e-06 9.79266e-06 0 -5.1629e-06 1.03555e-05 0 -5.8128e-06 1.09833e-05 0 -6.5152e-06 1.16698e-05 0 -7.27683e-06 1.24258e-05 0 -8.10524e-06 1.32472e-05 0 -9.00841e-06 1.41318e-05 0 -9.99536e-06 1.50923e-05 0 -1.10759e-05 1.61158e-05 0 -1.22606e-05 1.72066e-05 0 -1.35614e-05 1.83653e-05 0 -1.4991e-05 1.95807e-05 0 -1.65629e-05 2.08558e-05 0 -1.82922e-05 2.21775e-05 0 -2.01943e-05 2.35348e-05 0 -2.22854e-05 2.49151e-05 0 -2.45818e-05 2.62983e-05 0 -2.70993e-05 2.76602e-05 0 -2.9852e-05 2.89699e-05 0 -3.28507e-05 3.01898e-05 0 -3.61008e-05 3.12746e-05 0 -3.95994e-05 3.21717e-05 0 0 7.58184e-06 0 -3.45259e-07 7.61164e-06 0 -6.93707e-07 7.69064e-06 0 -1.0485e-06 7.82284e-06 0 -1.41297e-06 8.0123e-06 0 -1.79051e-06 8.25281e-06 0 -2.18466e-06 8.55313e-06 0 -2.59926e-06 8.91053e-06 0 -3.03829e-06 9.32319e-06 0 -3.50612e-06 9.80437e-06 0 -4.0075e-06 1.03442e-05 0 -4.54749e-06 1.09494e-05 0 -5.13186e-06 1.16257e-05 0 -5.76678e-06 1.23669e-05 0 -6.45909e-06 1.31852e-05 0 -7.21659e-06 1.40766e-05 0 -8.04761e-06 1.50395e-05 0 -8.9617e-06 1.60889e-05 0 -9.96944e-06 1.72113e-05 0 -1.10823e-05 1.84128e-05 0 -1.23137e-05 1.96958e-05 0 -1.36777e-05 2.10486e-05 0 -1.51903e-05 2.24777e-05 0 -1.68692e-05 2.39698e-05 0 -1.87331e-05 2.55148e-05 0 -2.08026e-05 2.71018e-05 0 -2.30991e-05 2.87107e-05 0 -2.56447e-05 3.03167e-05 0 -2.8461e-05 3.18872e-05 0 -3.15671e-05 3.33805e-05 0 -3.49777e-05 3.47448e-05 0 -3.86986e-05 3.59171e-05 0 0 7.89939e-06 0 -2.90596e-07 7.93089e-06 0 -5.84087e-07 8.01439e-06 0 -8.83341e-07 8.15417e-06 0 -1.19141e-06 8.35461e-06 0 -1.51141e-06 8.60917e-06 0 -1.84659e-06 8.92731e-06 0 -2.20055e-06 9.30627e-06 0 -2.57701e-06 9.74426e-06 0 -2.98013e-06 1.02557e-05 0 -3.41446e-06 1.08303e-05 0 -3.8849e-06 1.14756e-05 0 -4.39711e-06 1.21982e-05 0 -4.95721e-06 1.29917e-05 0 -5.57207e-06 1.38701e-05 0 -6.2496e-06 1.48297e-05 0 -6.9984e-06 1.58692e-05 0 -7.82843e-06 1.70067e-05 0 -8.75088e-06 1.82278e-05 0 -9.77811e-06 1.9541e-05 0 -1.09246e-05 2.09506e-05 0 -1.22062e-05 2.2445e-05 0 -1.36408e-05 2.40348e-05 0 -1.5249e-05 2.57071e-05 0 -1.70528e-05 2.74534e-05 0 -1.90776e-05 2.92656e-05 0 -2.13505e-05 3.11249e-05 0 -2.39009e-05 3.30073e-05 0 -2.67596e-05 3.48799e-05 0 -2.9957e-05 3.66985e-05 0 -3.35206e-05 3.84055e-05 0 -3.74706e-05 3.99272e-05 0 0 8.16093e-06 0 -2.33119e-07 8.19395e-06 0 -4.688e-07 8.28149e-06 0 -7.09585e-07 8.4281e-06 0 -9.58198e-07 8.63841e-06 0 -1.21742e-06 8.90567e-06 0 -1.49019e-06 9.23995e-06 0 -1.77979e-06 9.63851e-06 0 -2.08965e-06 1.00996e-05 0 -2.42364e-06 1.06389e-05 0 -2.78603e-06 1.12456e-05 0 -3.1815e-06 1.19281e-05 0 -3.61549e-06 1.2694e-05 0 -4.09399e-06 1.35368e-05 0 -4.62378e-06 1.44723e-05 0 -5.21277e-06 1.54972e-05 0 -5.86968e-06 1.66107e-05 0 -6.60472e-06 1.78341e-05 0 -7.42954e-06 1.91523e-05 0 -8.35718e-06 2.05765e-05 0 -9.40312e-06 2.21135e-05 0 -1.05846e-05 2.37517e-05 0 -1.19214e-05 2.5507e-05 0 -1.34367e-05 2.73672e-05 0 -1.51559e-05 2.93265e-05 0 -1.71089e-05 3.13809e-05 0 -1.93291e-05 3.35144e-05 0 -2.18538e-05 3.57056e-05 0 -2.47244e-05 3.79239e-05 0 -2.7985e-05 4.01253e-05 0 -3.16807e-05 4.22488e-05 0 -3.58524e-05 4.42115e-05 0 0 8.3638e-06 0 -1.73252e-07 8.39815e-06 0 -3.48694e-07 8.48922e-06 0 -5.28504e-07 8.64177e-06 0 -7.15028e-07 8.86072e-06 0 -9.10677e-07 9.13912e-06 0 -1.11804e-06 9.48762e-06 0 -1.34001e-06 9.90352e-06 0 -1.57967e-06 1.03852e-05 0 -1.84053e-06 1.09494e-05 0 -2.12653e-06 1.1585e-05 0 -2.44203e-06 1.23013e-05 0 -2.79217e-06 1.31069e-05 0 -3.18268e-06 1.39951e-05 0 -3.62013e-06 1.49837e-05 0 -4.1123e-06 1.60698e-05 0 -4.66786e-06 1.72535e-05 0 -5.29711e-06 1.85592e-05 0 -6.01192e-06 1.99713e-05 0 -6.8258e-06 2.1504e-05 0 -7.75498e-06 2.3167e-05 0 -8.81778e-06 2.49489e-05 0 -1.00356e-05 2.68719e-05 0 -1.14338e-05 2.8925e-05 0 -1.30409e-05 3.11058e-05 0 -1.48912e-05 3.34163e-05 0 -1.70238e-05 3.58447e-05 0 -1.94843e-05 3.8375e-05 0 -2.23255e-05 4.09822e-05 0 -2.56074e-05 4.36266e-05 0 -2.93966e-05 4.6249e-05 0 -3.37624e-05 4.87623e-05 0 0 8.50565e-06 0 -1.10976e-07 8.54109e-06 0 -2.23722e-07 8.63511e-06 0 -3.40006e-07 8.79263e-06 0 -4.61746e-07 9.01882e-06 0 -5.90934e-07 9.30659e-06 0 -7.29737e-07 9.66713e-06 0 -8.80611e-07 1.00978e-05 0 -1.04621e-06 1.05971e-05 0 -1.22961e-06 1.11828e-05 0 -1.43431e-06 1.18436e-05 0 -1.66425e-06 1.25897e-05 0 -1.92414e-06 1.34304e-05 0 -2.21932e-06 1.43593e-05 0 -2.55598e-06 1.5396e-05 0 -2.94156e-06 1.65382e-05 0 -3.38447e-06 1.77866e-05 0 -3.89482e-06 1.91692e-05 0 -4.48444e-06 2.06702e-05 0 -5.16693e-06 2.23067e-05 0 -5.95886e-06 2.40915e-05 0 -6.87918e-06 2.60143e-05 0 -7.9503e-06 2.81036e-05 0 -9.19925e-06 3.03506e-05 0 -1.06569e-05 3.27571e-05 0 -1.23609e-05 3.53326e-05 0 -1.43553e-05 3.80713e-05 0 -1.66931e-05 4.09655e-05 0 -1.9438e-05 4.39999e-05 0 -2.26665e-05 4.71451e-05 0 -2.64699e-05 5.03522e-05 0 -3.09551e-05 5.35404e-05 0 0 8.5845e-06 0 -4.70906e-08 8.62081e-06 0 -9.5494e-08 8.71711e-06 0 -1.46529e-07 8.87852e-06 0 -2.01645e-07 9.11041e-06 0 -2.62371e-07 9.40559e-06 0 -3.30402e-07 9.77572e-06 0 -4.07702e-07 1.02183e-05 0 -4.96437e-07 1.07319e-05 0 -5.99175e-07 1.13353e-05 0 -7.189e-07 1.2017e-05 0 -8.5903e-07 1.27879e-05 0 -1.02374e-06 1.36585e-05 0 -1.21782e-06 1.46224e-05 0 -1.44697e-06 1.57011e-05 0 -1.71809e-06 1.68928e-05 0 -2.03911e-06 1.81991e-05 0 -2.41973e-06 1.96515e-05 0 -2.8714e-06 2.1234e-05 0 -3.40749e-06 2.2967e-05 0 -4.04452e-06 2.48669e-05 0 -4.80156e-06 2.6924e-05 0 -5.70148e-06 2.91743e-05 0 -6.77218e-06 3.16113e-05 0 -8.04597e-06 3.42419e-05 0 -9.56266e-06 3.70843e-05 0 -1.137e-05 4.01405e-05 0 -1.35263e-05 4.34138e-05 0 -1.61039e-05 4.69028e-05 0 -1.91937e-05 5.05958e-05 0 -2.29109e-05 5.44656e-05 0 -2.7403e-05 5.84556e-05 0 0 8.59887e-06 0 1.8102e-08 8.63577e-06 0 3.53877e-08 8.73366e-06 0 5.10257e-08 8.89777e-06 0 6.40804e-08 9.13366e-06 0 7.35304e-08 9.4341e-06 0 7.82024e-08 9.81114e-06 0 7.66847e-08 1.02624e-05 0 6.73627e-08 1.07866e-05 0 4.82563e-08 1.14033e-05 0 1.699e-08 1.2101e-05 0 -2.92331e-08 1.28915e-05 0 -9.39178e-08 1.37859e-05 0 -1.81184e-07 1.47782e-05 0 -2.96016e-07 1.58916e-05 0 -4.44599e-07 1.71248e-05 0 -6.34142e-07 1.84806e-05 0 -8.736e-07 1.99937e-05 0 -1.17374e-06 2.16483e-05 0 -1.54727e-06 2.34678e-05 0 -2.01011e-06 2.54726e-05 0 -2.58091e-06 2.76537e-05 0 -3.28222e-06 3.00551e-05 0 -4.14188e-06 3.26726e-05 0 -5.1924e-06 3.55191e-05 0 -6.47425e-06 3.86219e-05 0 -8.03634e-06 4.19923e-05 0 -9.93932e-06 4.56463e-05 0 -1.22597e-05 4.96002e-05 0 -1.50964e-05 5.38665e-05 0 -1.85811e-05 5.8452e-05 0 -2.28943e-05 6.33477e-05 0 0 8.54768e-06 0 8.41338e-08 8.58488e-06 0 1.67985e-07 8.6836e-06 0 2.51247e-07 8.84914e-06 0 3.33538e-07 9.08719e-06 0 4.1439e-07 9.39056e-06 0 4.932e-07 9.77156e-06 0 5.69168e-07 1.02279e-05 0 6.41296e-07 1.07587e-05 0 7.08269e-07 1.1384e-05 0 7.68414e-07 1.20923e-05 0 8.19662e-07 1.28962e-05 0 8.59313e-07 1.38075e-05 0 8.84077e-07 1.48206e-05 0 8.89855e-07 1.59601e-05 0 8.71428e-07 1.72256e-05 0 8.22568e-07 1.86208e-05 0 7.35383e-07 2.01835e-05 0 6.00207e-07 2.18981e-05 0 4.05432e-07 2.37914e-05 0 1.36302e-07 2.58873e-05 0 -2.247e-07 2.81781e-05 0 -6.99008e-07 3.07154e-05 0 -1.31333e-06 3.3498e-05 0 -2.09907e-06 3.65442e-05 0 -3.0954e-06 3.98913e-05 0 -4.34973e-06 4.35596e-05 0 -5.92072e-06 4.75784e-05 0 -7.88242e-06 5.19832e-05 0 -1.03314e-05 5.6814e-05 0 -1.33995e-05 6.21203e-05 0 -1.72759e-05 6.79608e-05 0 0 8.43041e-06 0 1.50426e-07 8.46761e-06 0 3.01132e-07 8.56634e-06 0 4.52365e-07 8.73195e-06 0 6.04329e-07 8.97021e-06 0 7.57145e-07 9.27399e-06 0 9.10821e-07 9.65582e-06 0 1.06521e-06 1.01136e-05 0 1.21999e-06 1.06465e-05 0 1.37458e-06 1.12751e-05 0 1.52808e-06 1.19882e-05 0 1.67924e-06 1.27987e-05 0 1.82629e-06 1.37193e-05 0 1.96689e-06 1.47446e-05 0 2.09801e-06 1.59007e-05 0 2.21558e-06 1.71879e-05 0 2.31461e-06 1.86106e-05 0 2.38856e-06 2.02098e-05 0 2.42923e-06 2.19701e-05 0 2.42654e-06 2.39215e-05 0 2.36742e-06 2.60912e-05 0 2.2361e-06 2.84732e-05 0 2.01298e-06 3.11261e-05 0 1.67341e-06 3.40519e-05 0 1.18823e-06 3.72744e-05 0 5.21059e-07 4.08398e-05 0 -3.71669e-07 4.47768e-05 0 -1.54293e-06 4.91266e-05 0 -3.05794e-06 5.39416e-05 0 -4.99977e-06 5.92873e-05 0 -7.48056e-06 6.52551e-05 0 -1.06635e-05 7.19756e-05 0 0 8.24705e-06 0 2.16415e-07 8.28394e-06 0 4.33698e-07 8.38182e-06 0 6.52679e-07 8.54607e-06 0 8.7418e-07 8.78247e-06 0 1.09894e-06 9.08403e-06 0 1.32762e-06 9.46334e-06 0 1.56079e-06 9.91848e-06 0 1.79883e-06 1.04488e-05 0 2.04196e-06 1.10752e-05 0 2.29016e-06 1.17867e-05 0 2.54309e-06 1.25965e-05 0 2.80001e-06 1.35181e-05 0 3.05971e-06 1.45463e-05 0 3.32038e-06 1.57084e-05 0 3.57937e-06 1.70052e-05 0 3.83316e-06 1.84422e-05 0 4.07693e-06 2.00628e-05 0 4.30435e-06 2.18521e-05 0 4.50736e-06 2.3843e-05 0 4.6752e-06 2.60659e-05 0 4.79453e-06 2.85163e-05 0 4.84843e-06 3.12597e-05 0 4.81523e-06 3.43009e-05 0 4.66902e-06 3.76688e-05 0 4.37752e-06 4.14176e-05 0 3.90267e-06 4.55826e-05 0 3.2e-06 5.02136e-05 0 2.21859e-06 5.5374e-05 0 8.99868e-07 6.11452e-05 0 -8.26976e-07 6.76467e-05 0 -3.05751e-06 7.50623e-05 0 0 7.99821e-06 0 2.81541e-07 8.03444e-06 0 5.64557e-07 8.1306e-06 0 8.50477e-07 8.292e-06 0 1.14076e-06 8.52437e-06 0 1.4368e-06 8.82096e-06 0 1.73992e-06 9.19428e-06 0 2.05144e-06 9.64257e-06 0 2.3725e-06 1.01654e-05 0 2.70418e-06 1.07836e-05 0 3.04737e-06 1.14867e-05 0 3.40273e-06 1.22882e-05 0 3.77067e-06 1.32018e-05 0 4.15121e-06 1.42227e-05 0 4.54392e-06 1.53792e-05 0 4.94774e-06 1.66726e-05 0 5.36089e-06 1.81091e-05 0 5.78054e-06 1.97342e-05 0 6.20261e-06 2.15337e-05 0 6.62151e-06 2.35427e-05 0 7.02934e-06 2.57948e-05 0 7.41582e-06 2.82868e-05 0 7.76742e-06 3.10905e-05 0 8.06619e-06 3.42135e-05 0 8.29016e-06 3.76895e-05 0 8.41154e-06 4.15794e-05 0 8.39789e-06 4.59234e-05 0 8.21322e-06 5.07753e-05 0 7.82152e-06 5.62008e-05 0 7.19229e-06 6.22816e-05 0 6.30688e-06 6.9139e-05 0 5.16216e-06 7.69681e-05 0 0 7.68502e-06 0 3.45245e-07 7.72025e-06 0 6.92582e-07 7.81378e-06 0 1.04405e-06 7.9708e-06 0 1.40176e-06 8.19696e-06 0 1.76777e-06 8.48574e-06 0 2.14409e-06 8.84947e-06 0 2.5328e-06 9.28657e-06 0 2.93586e-06 9.79673e-06 0 3.35522e-06 1.04008e-05 0 3.79274e-06 1.10884e-05 0 4.25015e-06 1.18734e-05 0 4.72907e-06 1.27695e-05 0 5.23086e-06 1.37725e-05 0 5.7566e-06 1.4911e-05 0 6.30699e-06 1.61869e-05 0 6.88218e-06 1.7607e-05 0 7.48162e-06 1.92182e-05 0 8.10381e-06 2.1007e-05 0 8.74605e-06 2.30105e-05 0 9.40384e-06 2.52646e-05 0 1.00706e-05 2.77678e-05 0 1.07369e-05 3.05972e-05 0 1.13893e-05 3.37633e-05 0 1.20102e-05 3.73045e-05 0 1.25763e-05 4.12879e-05 0 1.30593e-05 4.57575e-05 0 1.34285e-05 5.07679e-05 0 1.36572e-05 5.63784e-05 0 1.37365e-05 6.26526e-05 0 1.36955e-05 6.96795e-05 0 1.36267e-05 7.76096e-05 0 0 7.30928e-06 0 4.06841e-07 7.34317e-06 0 8.16393e-07 7.43315e-06 0 1.23131e-06 7.58424e-06 0 1.65436e-06 7.80195e-06 0 2.08824e-06 8.08005e-06 0 2.53571e-06 8.43055e-06 0 2.99961e-06 8.85205e-06 0 3.4827e-06 9.34436e-06 0 3.98784e-06 9.92789e-06 0 4.51793e-06 1.05929e-05 0 5.07577e-06 1.13529e-05 0 5.66428e-06 1.22218e-05 0 6.28623e-06 1.31958e-05 0 6.94431e-06 1.43033e-05 0 7.64111e-06 1.55469e-05 0 8.37891e-06 1.69338e-05 0 9.15966e-06 1.85113e-05 0 9.98475e-06 2.0267e-05 0 1.08548e-05 2.22391e-05 0 1.17693e-05 2.44653e-05 0 1.2726e-05 2.69459e-05 0 1.37205e-05 2.97619e-05 0 1.47447e-05 3.29274e-05 0 1.57862e-05 3.64854e-05 0 1.68261e-05 4.05101e-05 0 1.78384e-05 4.50505e-05 0 1.8791e-05 5.01626e-05 0 1.96533e-05 5.58956e-05 0 2.04164e-05 6.22796e-05 0 2.11314e-05 6.93356e-05 0 2.19624e-05 7.71066e-05 0 0 6.87336e-06 0 4.65748e-07 6.90557e-06 0 9.34818e-07 6.99109e-06 0 1.41047e-06 7.13472e-06 0 1.89612e-06 7.34175e-06 0 2.39513e-06 7.60631e-06 0 2.91096e-06 7.93993e-06 0 3.44722e-06 8.34139e-06 0 4.0075e-06 8.81062e-06 0 4.59557e-06 9.36735e-06 0 5.21535e-06 1.00024e-05 0 5.87078e-06 1.0729e-05 0 6.56607e-06 1.15608e-05 0 7.30546e-06 1.24944e-05 0 8.09331e-06 1.35577e-05 0 8.9342e-06 1.47536e-05 0 9.83264e-06 1.60898e-05 0 1.07933e-05 1.76131e-05 0 1.18206e-05 1.9312e-05 0 1.29189e-05 2.12252e-05 0 1.40921e-05 2.33915e-05 0 1.53431e-05 2.58125e-05 0 1.66734e-05 2.85721e-05 0 1.80817e-05 3.1688e-05 0 1.95624e-05 3.52082e-05 0 2.11024e-05 3.92159e-05 0 2.2677e-05 4.37698e-05 0 2.42467e-05 4.8935e-05 0 2.5758e-05 5.4759e-05 0 2.71633e-05 6.12365e-05 0 2.84792e-05 6.82901e-05 0 2.9887e-05 7.57851e-05 0 0 6.38025e-06 0 5.21363e-07 6.41044e-06 0 1.04664e-06 6.49061e-06 0 1.57968e-06 6.62528e-06 0 2.12454e-06 6.81944e-06 0 2.68522e-06 7.06765e-06 0 3.26586e-06 7.38081e-06 0 3.87084e-06 7.75786e-06 0 4.50455e-06 8.19885e-06 0 5.17168e-06 8.72253e-06 0 5.87716e-06 9.32037e-06 0 6.62603e-06 1.00051e-05 0 7.42384e-06 1.07899e-05 0 8.27627e-06 1.16717e-05 0 9.18939e-06 1.26775e-05 0 1.01698e-05 1.38105e-05 0 1.12243e-05 1.50781e-05 0 1.23602e-05 1.65262e-05 0 1.35855e-05 1.81441e-05 0 1.49081e-05 1.997e-05 0 1.63369e-05 2.20426e-05 0 1.78806e-05 2.43649e-05 0 1.95477e-05 2.70214e-05 0 2.13454e-05 3.0033e-05 0 2.32778e-05 3.3453e-05 0 2.53414e-05 3.73747e-05 0 2.75179e-05 4.18742e-05 0 2.97606e-05 4.70423e-05 0 3.19775e-05 5.29548e-05 0 3.40267e-05 5.96047e-05 0 3.57808e-05 6.68075e-05 0 3.73284e-05 7.41512e-05 0 0 5.83355e-06 0 5.73083e-07 5.8614e-06 0 1.15065e-06 5.93535e-06 0 1.73711e-06 6.0596e-06 0 2.33711e-06 6.23879e-06 0 2.95529e-06 6.46793e-06 0 3.59644e-06 6.75717e-06 0 4.26567e-06 7.1056e-06 0 4.96815e-06 7.51334e-06 0 5.70944e-06 7.99792e-06 0 6.49546e-06 8.55153e-06 0 7.33234e-06 9.18614e-06 0 8.2269e-06 9.91428e-06 0 9.18627e-06 1.07332e-05 0 1.02182e-05 1.16685e-05 0 1.13312e-05 1.27233e-05 0 1.25344e-05 1.39049e-05 0 1.38378e-05 1.5257e-05 0 1.52527e-05 1.67697e-05 0 1.6791e-05 1.84797e-05 0 1.84666e-05 2.04245e-05 0 2.02943e-05 2.26076e-05 0 2.22905e-05 2.51114e-05 0 2.44731e-05 2.79589e-05 0 2.68592e-05 3.12066e-05 0 2.94628e-05 3.49568e-05 0 3.22846e-05 3.93073e-05 0 3.52904e-05 4.43951e-05 0 3.83631e-05 5.03826e-05 0 4.12191e-05 5.73734e-05 0 4.33745e-05 6.51693e-05 0 4.45172e-05 7.28971e-05 0 0 5.23742e-06 0 6.2036e-07 5.26262e-06 0 1.24573e-06 5.32955e-06 0 1.88105e-06 5.44201e-06 0 2.53153e-06 5.60423e-06 0 3.20239e-06 5.81174e-06 0 3.89904e-06 6.07377e-06 0 4.62727e-06 6.38958e-06 0 5.39299e-06 6.75932e-06 0 6.20259e-06 7.19904e-06 0 7.06291e-06 7.70172e-06 0 7.98113e-06 8.2784e-06 0 8.96526e-06 8.94064e-06 0 1.00238e-05 9.68611e-06 0 1.11661e-05 1.05383e-05 0 1.24025e-05 1.15004e-05 0 1.37443e-05 1.25793e-05 0 1.52043e-05 1.38152e-05 0 1.67966e-05 1.51994e-05 0 1.85371e-05 1.67658e-05 0 2.04445e-05 1.85493e-05 0 2.25396e-05 2.05532e-05 0 2.48472e-05 2.28543e-05 0 2.73965e-05 2.54749e-05 0 3.02213e-05 2.84703e-05 0 3.33607e-05 3.19434e-05 0 3.68544e-05 3.6007e-05 0 4.07259e-05 4.08465e-05 0 4.49219e-05 4.67641e-05 0 4.91137e-05 5.42072e-05 0 5.21851e-05 6.34897e-05 0 5.22155e-05 7.31411e-05 0 0 4.59656e-06 0 6.6267e-07 4.61883e-06 0 1.33083e-06 4.67797e-06 0 2.00991e-06 4.77738e-06 0 2.70563e-06 4.9208e-06 0 3.42373e-06 5.10429e-06 0 4.17019e-06 5.33609e-06 0 4.95145e-06 5.61556e-06 0 5.77406e-06 5.94291e-06 0 6.6452e-06 6.33243e-06 0 7.57255e-06 6.77797e-06 0 8.56424e-06 7.28942e-06 0 9.62941e-06 7.87719e-06 0 1.07778e-05 8.53928e-06 0 1.20202e-05 9.29681e-06 0 1.33687e-05 1.01526e-05 0 1.48366e-05 1.11131e-05 0 1.64388e-05 1.22142e-05 0 1.81927e-05 1.34481e-05 0 2.01171e-05 1.48452e-05 0 2.22352e-05 1.64362e-05 0 2.45734e-05 1.82237e-05 0 2.71634e-05 2.02749e-05 0 3.00455e-05 2.26079e-05 0 3.32695e-05 2.52697e-05 0 3.6903e-05 2.83492e-05 0 4.10372e-05 3.1948e-05 0 4.58006e-05 3.62517e-05 0 5.13647e-05 4.16345e-05 0 5.78648e-05 4.89721e-05 0 6.4457e-05 6.05945e-05 0 6.29965e-05 7.80246e-05 0 0 3.91617e-06 0 6.99539e-07 3.93525e-06 0 1.405e-06 3.98595e-06 0 2.12222e-06 4.07115e-06 0 2.8574e-06 4.19411e-06 0 3.61674e-06 4.35146e-06 0 4.40672e-06 4.55028e-06 0 5.23434e-06 4.79008e-06 0 6.10675e-06 5.07105e-06 0 7.03181e-06 5.40556e-06 0 8.01796e-06 5.78834e-06 0 9.07417e-06 6.22799e-06 0 1.02106e-05 6.73353e-06 0 1.1438e-05 7.3033e-06 0 1.27686e-05 7.95562e-06 0 1.42159e-05 8.693e-06 0 1.57949e-05 9.52091e-06 0 1.75226e-05 1.04705e-05 0 1.94185e-05 1.15349e-05 0 2.15046e-05 1.27399e-05 0 2.38071e-05 1.41112e-05 0 2.63566e-05 1.56499e-05 0 2.919e-05 1.74108e-05 0 3.23552e-05 1.94048e-05 0 3.59131e-05 2.16638e-05 0 3.99511e-05 2.42466e-05 0 4.46002e-05 2.72092e-05 0 5.00802e-05 3.06491e-05 0 5.68109e-05 3.47576e-05 0 6.57765e-05 4.00095e-05 0 8.03844e-05 4.82123e-05 0 0.000154914 0.000126957 0 </DataArray> 
</PointData> 
<Points> 
<DataArray type="Float32" NumberOfComponents="3"> 