<?xml version="1.0"?> 
<VTKFile type="StructuredGrid" version="0.1"> 
<StructuredGrid WholeExtent="0 31 0 31 0 0"> 
<Piece Extent="0 31 0 31 0 0"> 
<PointData>
<DataArray type="Float32" Name="B" format="ascii" NumberOfComponents="3"> 
-5.08988e-05 -0 0 -4.82926e-05 -0 0 -4.57593e-05 -0 0 -4.3302e-05 -0 0 -4.0923e-05 -0 0 -3.86233e-05 -0 0 -3.64036e-05 -0 0 -3.42634e-05 -0 0 -3.22018e-05 -0 0 -3.02174e-05 -0 0 -2.83081e-05 -0 0 -2.64716e-05 -0 0 -2.47053e-05 -0 0 -2.30064e-05 -0 0 -2.13716e-05 -0 0 -1.97977e-05 -0 0 -1.82813e-05 -0 0 -1.6819e-05 -0 0 -1.54072e-05 -0 0 -1.40423e-05 -0 0 -1.27206e-05 -0 0 -1.14386e-05 -0 0 -1.01926e-05 -0 0 -8.97893e-06 -0 0 -7.79397e-06 -0 0 -6.63409e-06 -0 0 -5.49568e-06 -0 0 -4.37514e-06 -0 0 -3.26887e-06 -0 0 -2.17331e-06 -0 0 -1.08487e-06 -0 0 0 -0 0 -5.08377e-05 -3.52355e-06 0 -4.82277e-05 -3.42861e-06 0 -4.56916e-05 -3.32871e-06 0 -4.32323e-05 -3.22528e-06 0 -4.08522e-05 -3.11962e-06 0 -3.85522e-05 -3.01292e-06 0 -3.63328e-05 -2.90621e-06 0 -3.41934e-05 -2.80041e-06 0 -3.21332e-05 -2.69628e-06 0 -3.01505e-05 -2.5945e-06 0 -2.82433e-05 -2.49562e-06 0 -2.64092e-05 -2.40009e-06 0 -2.46455e-05 -2.3083e-06 0 -2.29493e-05 -2.22054e-06 0 -2.13174e-05 -2.13705e-06 0 -1.97465e-05 -2.05803e-06 0 -1.82333e-05 -1.9836e-06 0 -1.67741e-05 -1.91388e-06 0 -1.53655e-05 -1.84893e-06 0 -1.40038e-05 -1.7888e-06 0 -1.26854e-05 -1.73352e-06 0 -1.14066e-05 -1.6831e-06 0 -1.01639e-05 -1.63755e-06 0 -8.95341e-06 -1.59685e-06 0 -7.77167e-06 -1.56099e-06 0 -6.615e-06 -1.52997e-06 0 -5.4798e-06 -1.50375e-06 0 -4.36245e-06 -1.48232e-06 0 -3.25936e-06 -1.46568e-06 0 -2.16697e-06 -1.4538e-06 0 -1.08171e-06 -1.44667e-06 0 0 -1.4443e-06 0 -5.06524e-05 -7.05868e-06 0 -4.80311e-05 -6.86602e-06 0 -4.54865e-05 -6.66366e-06 0 -4.30217e-05 -6.45445e-06 0 -4.06385e-05 -6.24104e-06 0 -3.83376e-05 -6.02579e-06 0 -3.61192e-05 -5.81077e-06 0 -3.39826e-05 -5.59778e-06 0 -3.19265e-05 -5.38836e-06 0 -2.99492e-05 -5.18381e-06 0 -2.80483e-05 -4.98523e-06 0 -2.62214e-05 -4.79351e-06 0 -2.44656e-05 -4.60939e-06 0 -2.27778e-05 -4.43346e-06 0 -2.11547e-05 -4.26616e-06 0 -1.95929e-05 -4.10787e-06 0 -1.8089e-05 -3.95883e-06 0 -1.66394e-05 -3.81926e-06 0 -1.52404e-05 -3.68928e-06 0 -1.38884e-05 -3.56898e-06 0 -1.25797e-05 -3.4584e-06 0 -1.13107e-05 -3.35756e-06 0 -1.00776e-05 -3.26646e-06 0 -8.87687e-06 -3.18509e-06 0 -7.70481e-06 -3.11341e-06 0 -6.55778e-06 -3.05138e-06 0 -5.43217e-06 -2.99897e-06 0 -4.32439e-06 -2.95615e-06 0 -3.23085e-06 -2.92288e-06 0 -2.14798e-06 -2.89914e-06 0 -1.07221e-06 -2.8849e-06 0 0 -2.88016e-06 0 -5.03372e-05 -1.06167e-05 0 -4.76974e-05 -1.03207e-05 0 -4.51394e-05 -1.00106e-05 0 -4.26658e-05 -9.69097e-06 0 -4.02779e-05 -9.36563e-06 0 -3.79762e-05 -9.03815e-06 0 -3.576e-05 -8.71162e-06 0 -3.36285e-05 -8.38871e-06 0 -3.15798e-05 -8.07168e-06 0 -2.96118e-05 -7.76244e-06 0 -2.77219e-05 -7.46257e-06 0 -2.59073e-05 -7.17337e-06 0 -2.41648e-05 -6.89589e-06 0 -2.24911e-05 -6.63096e-06 0 -2.08829e-05 -6.37924e-06 0 -1.93365e-05 -6.1412e-06 0 -1.78483e-05 -5.91723e-06 0 -1.64146e-05 -5.70757e-06 0 -1.50317e-05 -5.51241e-06 0 -1.36959e-05 -5.33185e-06 0 -1.24035e-05 -5.16594e-06 0 -1.11507e-05 -5.0147e-06 0 -9.93392e-06 -4.87809e-06 0 -8.74937e-06 -4.7561e-06 0 -7.59344e-06 -4.64865e-06 0 -6.46247e-06 -4.55569e-06 0 -5.35287e-06 -4.47716e-06 0 -4.26103e-06 -4.413e-06 0 -3.18338e-06 -4.36316e-06 0 -2.11635e-06 -4.32759e-06 0 -1.05641e-06 -4.30626e-06 0 0 -4.29915e-06 0 -4.98823e-05 -1.42081e-05 0 -4.72175e-05 -1.38002e-05 0 -4.46418e-05 -1.33746e-05 0 -4.21571e-05 -1.29374e-05 0 -3.9764e-05 -1.24938e-05 0 -3.74621e-05 -1.20486e-05 0 -3.52503e-05 -1.16059e-05 0 -3.31268e-05 -1.1169e-05 0 -3.10894e-05 -1.0741e-05 0 -2.91353e-05 -1.03243e-05 0 -2.72615e-05 -9.92084e-06 0 -2.54647e-05 -9.53231e-06 0 -2.37415e-05 -9.16e-06 0 -2.20882e-05 -8.80494e-06 0 -2.05012e-05 -8.46791e-06 0 -1.89766e-05 -8.1495e-06 0 -1.75106e-05 -7.85013e-06 0 -1.60995e-05 -7.57009e-06 0 -1.47393e-05 -7.30957e-06 0 -1.34264e-05 -7.06866e-06 0 -1.21568e-05 -6.84741e-06 0 -1.09269e-05 -6.64579e-06 0 -9.73287e-06 -6.46376e-06 0 -8.57102e-06 -6.30123e-06 0 -7.43767e-06 -6.15813e-06 0 -6.3292e-06 -6.03435e-06 0 -5.24199e-06 -5.9298e-06 0 -4.17245e-06 -5.8444e-06 0 -3.11702e-06 -5.77806e-06 0 -2.07215e-06 -5.73073e-06 0 -1.03432e-06 -5.70234e-06 0 0 -5.69289e-06 0 -4.92736e-05 -1.78425e-05 0 -4.65784e-05 -1.73108e-05 0 -4.39821e-05 -1.67591e-05 0 -4.14853e-05 -1.61948e-05 0 -3.90876e-05 -1.56247e-05 0 -3.67876e-05 -1.50546e-05 0 -3.45833e-05 -1.44894e-05 0 -3.2472e-05 -1.39334e-05 0 -3.04507e-05 -1.33901e-05 0 -2.8516e-05 -1.28623e-05 0 -2.66641e-05 -1.23524e-05 0 -2.48914e-05 -1.18623e-05 0 -2.31939e-05 -1.13934e-05 0 -2.15675e-05 -1.09468e-05 0 -2.00084e-05 -1.05234e-05 0 -1.85123e-05 -1.01239e-05 0 -1.70755e-05 -9.74861e-06 0 -1.56937e-05 -9.39787e-06 0 -1.43631e-05 -9.07182e-06 0 -1.30797e-05 -8.77052e-06 0 -1.18397e-05 -8.49395e-06 0 -1.06393e-05 -8.24206e-06 0 -9.47461e-06 -8.01473e-06 0 -8.34198e-06 -7.81184e-06 0 -7.23771e-06 -7.63325e-06 0 -6.15815e-06 -7.47883e-06 0 -5.0997e-06 -7.34842e-06 0 -4.05879e-06 -7.24191e-06 0 -3.03188e-06 -7.15919e-06 0 -2.01544e-06 -7.10017e-06 0 -1.00598e-06 -7.06479e-06 0 0 -7.053e-06 0 -4.84921e-05 -2.15276e-05 0 -4.57631e-05 -2.0857e-05 0 -4.3145e-05 -2.01655e-05 0 -4.0637e-05 -1.94622e-05 0 -3.82371e-05 -1.87552e-05 0 -3.59428e-05 -1.80514e-05 0 -3.37507e-05 -1.73564e-05 0 -3.16572e-05 -1.66751e-05 0 -2.96581e-05 -1.60114e-05 0 -2.77491e-05 -1.53684e-05 0 -2.59261e-05 -1.47488e-05 0 -2.41844e-05 -1.41544e-05 0 -2.25196e-05 -1.35869e-05 0 -2.09274e-05 -1.30473e-05 0 -1.94033e-05 -1.25365e-05 0 -1.7943e-05 -1.20551e-05 0 -1.65423e-05 -1.16034e-05 0 -1.5197e-05 -1.11817e-05 0 -1.39028e-05 -1.079e-05 0 -1.2656e-05 -1.04284e-05 0 -1.14523e-05 -1.00966e-05 0 -1.02881e-05 -9.79464e-06 0 -9.15942e-06 -9.52225e-06 0 -8.06256e-06 -9.27925e-06 0 -6.99383e-06 -9.06543e-06 0 -5.94959e-06 -8.8806e-06 0 -4.92625e-06 -8.72456e-06 0 -3.92027e-06 -8.59714e-06 0 -2.92812e-06 -8.4982e-06 0 -1.94634e-06 -8.42761e-06 0 -9.71449e-07 -8.3853e-06 0 0 -8.3712e-06 0 -4.7514e-05 -2.52683e-05 0 -4.47503e-05 -2.444e-05 0 -4.21118e-05 -2.35922e-05 0 -3.95959e-05 -2.27357e-05 0 -3.71988e-05 -2.18797e-05 0 -3.49161e-05 -2.10319e-05 0 -3.2743e-05 -2.01987e-05 0 -3.06743e-05 -1.93852e-05 0 -2.8705e-05 -1.85955e-05 0 -2.68297e-05 -1.78329e-05 0 -2.50433e-05 -1.71e-05 0 -2.33405e-05 -1.63987e-05 0 -2.17165e-05 -1.57305e-05 0 -2.01662e-05 -1.50965e-05 0 -1.86849e-05 -1.44973e-05 0 -1.72679e-05 -1.39333e-05 0 -1.59108e-05 -1.34049e-05 0 -1.46091e-05 -1.29121e-05 0 -1.33587e-05 -1.24549e-05 0 -1.21553e-05 -1.2033e-05 0 -1.0995e-05 -1.16464e-05 0 -9.87369e-06 -1.12946e-05 0 -8.78768e-06 -1.09775e-05 0 -7.73315e-06 -1.06948e-05 0 -6.70642e-06 -1.04461e-05 0 -5.70388e-06 -1.02312e-05 0 -4.72196e-06 -1.00498e-05 0 -3.75714e-06 -9.90176e-06 0 -2.80597e-06 -9.78681e-06 0 -1.86499e-06 -9.70481e-06 0 -9.30801e-07 -9.65566e-06 0 0 -9.63928e-06 0 -4.63099e-05 -2.90656e-05 0 -4.35141e-05 -2.80571e-05 0 -4.08604e-05 -2.70337e-05 0 -3.83433e-05 -2.60077e-05 0 -3.59568e-05 -2.49891e-05 0 -3.36944e-05 -2.39862e-05 0 -3.15493e-05 -2.30056e-05 0 -2.9515e-05 -2.20525e-05 0 -2.75848e-05 -2.1131e-05 0 -2.57524e-05 -2.02443e-05 0 -2.40117e-05 -1.93947e-05 0 -2.23569e-05 -1.8584e-05 0 -2.07822e-05 -1.78134e-05 0 -1.92823e-05 -1.70836e-05 0 -1.78521e-05 -1.63952e-05 0 -1.64864e-05 -1.57483e-05 0 -1.51807e-05 -1.51431e-05 0 -1.39303e-05 -1.45793e-05 0 -1.27309e-05 -1.40568e-05 0 -1.15782e-05 -1.35751e-05 0 -1.04681e-05 -1.3134e-05 0 -9.39666e-06 -1.2733e-05 0 -8.35999e-06 -1.23717e-05 0 -7.35434e-06 -1.20497e-05 0 -6.37605e-06 -1.17667e-05 0 -5.42153e-06 -1.15222e-05 0 -4.48726e-06 -1.13159e-05 0 -3.56979e-06 -1.11475e-05 0 -2.66569e-06 -1.10168e-05 0 -1.77158e-06 -1.09236e-05 0 -8.84132e-07 -1.08678e-05 0 0 -1.08492e-05 0 -4.4845e-05 -3.29146e-05 0 -4.20248e-05 -3.16998e-05 0 -3.93656e-05 -3.04792e-05 0 -3.68585e-05 -2.92657e-05 0 -3.44944e-05 -2.807e-05 0 -3.22641e-05 -2.69003e-05 0 -3.01589e-05 -2.57631e-05 0 -2.81705e-05 -2.46632e-05 0 -2.62907e-05 -2.36045e-05 0 -2.45122e-05 -2.25895e-05 0 -2.28278e-05 -2.16202e-05 0 -2.12308e-05 -2.06979e-05 0 -1.97151e-05 -1.98234e-05 0 -1.82748e-05 -1.89971e-05 0 -1.69044e-05 -1.82191e-05 0 -1.55985e-05 -1.74894e-05 0 -1.43523e-05 -1.68075e-05 0 -1.3161e-05 -1.61732e-05 0 -1.20202e-05 -1.55859e-05 0 -1.09254e-05 -1.50451e-05 0 -9.87264e-06 -1.45503e-05 0 -8.85784e-06 -1.41008e-05 0 -7.87718e-06 -1.3696e-05 0 -6.92693e-06 -1.33356e-05 0 -6.00344e-06 -1.30188e-05 0 -5.1032e-06 -1.27453e-05 0 -4.22274e-06 -1.25146e-05 0 -3.35867e-06 -1.23263e-05 0 -2.50764e-06 -1.21803e-05 0 -1.66636e-06 -1.20761e-05 0 -8.31564e-07 -1.20137e-05 0 0 -1.19929e-05 0 -4.30785e-05 -3.68019e-05 0 -4.0249e-05 -3.5352e-05 0 -3.76004e-05 -3.39108e-05 0 -3.51196e-05 -3.24913e-05 0 -3.27939e-05 -3.11039e-05 0 -3.06116e-05 -2.97561e-05 0 -2.85613e-05 -2.84536e-05 0 -2.66329e-05 -2.72005e-05 0 -2.4817e-05 -2.59997e-05 0 -2.31048e-05 -2.48531e-05 0 -2.14884e-05 -2.37619e-05 0 -1.99605e-05 -2.27267e-05 0 -1.85142e-05 -2.17476e-05 0 -1.71433e-05 -2.08246e-05 0 -1.5842e-05 -1.99573e-05 0 -1.46047e-05 -1.91451e-05 0 -1.34264e-05 -1.83874e-05 0 -1.23022e-05 -1.76834e-05 0 -1.12275e-05 -1.70324e-05 0 -1.01981e-05 -1.64335e-05 0 -9.20969e-06 -1.58859e-05 0 -8.25839e-06 -1.53889e-05 0 -7.34037e-06 -1.49417e-05 0 -6.45195e-06 -1.45436e-05 0 -5.58956e-06 -1.4194e-05 0 -4.74974e-06 -1.38922e-05 0 -3.92911e-06 -1.36378e-05 0 -3.12438e-06 -1.34302e-05 0 -2.33228e-06 -1.32692e-05 0 -1.54963e-06 -1.31544e-05 0 -7.73248e-07 -1.30856e-05 0 0 -1.30627e-05 0 -4.09671e-05 -4.07029e-05 0 -3.81515e-05 -3.89875e-05 0 -3.5537e-05 -3.73023e-05 0 -3.31051e-05 -3.5659e-05 0 -3.08392e-05 -3.40664e-05 0 -2.87245e-05 -3.25306e-05 0 -2.67473e-05 -3.10558e-05 0 -2.48958e-05 -2.96445e-05 0 -2.3159e-05 -2.82984e-05 0 -2.15273e-05 -2.70181e-05 0 -1.9992e-05 -2.58039e-05 0 -1.85451e-05 -2.46555e-05 0 -1.71794e-05 -2.35721e-05 0 -1.58883e-05 -2.25531e-05 0 -1.46658e-05 -2.15974e-05 0 -1.35062e-05 -2.0704e-05 0 -1.24043e-05 -1.98717e-05 0 -1.13553e-05 -1.90995e-05 0 -1.03546e-05 -1.83861e-05 0 -9.39781e-06 -1.77306e-05 0 -8.48085e-06 -1.71317e-05 0 -7.59983e-06 -1.65886e-05 0 -6.75098e-06 -1.61002e-05 0 -5.93072e-06 -1.56656e-05 0 -5.13558e-06 -1.52842e-05 0 -4.36218e-06 -1.49551e-05 0 -3.60726e-06 -1.46777e-05 0 -2.86763e-06 -1.44515e-05 0 -2.14015e-06 -1.4276e-05 0 -1.42175e-06 -1.41509e-05 0 -7.09369e-07 -1.4076e-05 0 0 -1.4051e-05 0 -3.84631e-05 -4.45776e-05 0 -3.56978e-05 -4.25681e-05 0 -3.31497e-05 -4.06178e-05 0 -3.07962e-05 -3.87355e-05 0 -2.86166e-05 -3.69272e-05 0 -2.65932e-05 -3.51963e-05 0 -2.47106e-05 -3.35445e-05 0 -2.2955e-05 -3.19723e-05 0 -2.13146e-05 -3.04796e-05 0 -1.9779e-05 -2.90655e-05 0 -1.83387e-05 -2.77289e-05 0 -1.69856e-05 -2.64683e-05 0 -1.57122e-05 -2.52822e-05 0 -1.45116e-05 -2.41689e-05 0 -1.33779e-05 -2.31268e-05 0 -1.23052e-05 -2.21542e-05 0 -1.12885e-05 -2.12494e-05 0 -1.03228e-05 -2.04109e-05 0 -9.40364e-06 -1.96372e-05 0 -8.52679e-06 -1.89269e-05 0 -7.68822e-06 -1.82785e-05 0 -6.88411e-06 -1.76909e-05 0 -6.11083e-06 -1.71629e-05 0 -5.3649e-06 -1.66933e-05 0 -4.64297e-06 -1.62813e-05 0 -3.94181e-06 -1.5926e-05 0 -3.25827e-06 -1.56266e-05 0 -2.5893e-06 -1.53826e-05 0 -1.93191e-06 -1.51933e-05 0 -1.28316e-06 -1.50584e-05 0 -6.40148e-07 -1.49775e-05 0 0 -1.49506e-05 0 -3.55286e-05 -4.83698e-05 0 -3.28582e-05 -4.6042e-05 0 -3.0418e-05 -4.38108e-05 0 -2.81789e-05 -4.16797e-05 0 -2.61172e-05 -3.96498e-05 0 -2.42128e-05 -3.77208e-05 0 -2.24486e-05 -3.58912e-05 0 -2.081e-05 -3.41587e-05 0 -1.92846e-05 -3.25209e-05 0 -1.78614e-05 -3.09752e-05 0 -1.65309e-05 -2.95187e-05 0 -1.52848e-05 -2.81488e-05 0 -1.41156e-05 -2.68629e-05 0 -1.30165e-05 -2.56583e-05 0 -1.19815e-05 -2.45327e-05 0 -1.1005e-05 -2.34837e-05 0 -1.00819e-05 -2.25092e-05 0 -9.20759e-06 -2.16072e-05 0 -8.3776e-06 -2.07757e-05 0 -7.58782e-06 -2.0013e-05 0 -6.8344e-06 -1.93174e-05 0 -6.11366e-06 -1.86874e-05 0 -5.42212e-06 -1.81216e-05 0 -4.75646e-06 -1.76187e-05 0 -4.11349e-06 -1.71777e-05 0 -3.49013e-06 -1.67975e-05 0 -2.88339e-06 -1.64773e-05 0 -2.2904e-06 -1.62163e-05 0 -1.70832e-06 -1.60139e-05 0 -1.13438e-06 -1.58697e-05 0 -5.65843e-07 -1.57833e-05 0 0 -1.57545e-05 0 -3.21249e-05 -5.20015e-05 0 -2.96127e-05 -4.93429e-05 0 -2.73305e-05 -4.68248e-05 0 -2.52479e-05 -4.44431e-05 0 -2.33395e-05 -4.21927e-05 0 -2.1584e-05 -4.00685e-05 0 -1.9964e-05 -3.80649e-05 0 -1.84646e-05 -3.61766e-05 0 -1.70733e-05 -3.43986e-05 0 -1.57794e-05 -3.27261e-05 0 -1.45736e-05 -3.11546e-05 0 -1.34477e-05 -2.96801e-05 0 -1.23945e-05 -2.82988e-05 0 -1.14076e-05 -2.70073e-05 0 -1.04812e-05 -2.58023e-05 0 -9.60989e-06 -2.46808e-05 0 -8.7889e-06 -2.36403e-05 0 -8.01371e-06 -2.26781e-05 0 -7.28015e-06 -2.1792e-05 0 -6.58432e-06 -2.09798e-05 0 -5.92254e-06 -2.02397e-05 0 -5.29135e-06 -1.95697e-05 0 -4.68746e-06 -1.89684e-05 0 -4.10774e-06 -1.84343e-05 0 -3.54919e-06 -1.7966e-05 0 -3.00891e-06 -1.75625e-05 0 -2.48413e-06 -1.72227e-05 0 -1.97213e-06 -1.69459e-05 0 -1.47028e-06 -1.67312e-05 0 -9.76006e-07 -1.65783e-05 0 -4.86751e-07 -1.64867e-05 0 0 -1.64562e-05 0 -2.82512e-05 -5.53779e-05 0 -2.59603e-05 -5.23939e-05 0 -2.38904e-05 -4.95961e-05 0 -2.20092e-05 -4.69726e-05 0 -2.02912e-05 -4.45114e-05 0 -1.87157e-05 -4.22018e-05 0 -1.72659e-05 -4.00338e-05 0 -1.59277e-05 -3.79987e-05 0 -1.46895e-05 -3.60889e-05 0 -1.35413e-05 -3.42975e-05 0 -1.24745e-05 -3.26183e-05 0 -1.14816e-05 -3.10459e-05 0 -1.05559e-05 -2.95754e-05 0 -9.69152e-06 -2.82026e-05 0 -8.88303e-06 -2.69234e-05 0 -8.12556e-06 -2.57343e-05 0 -7.41458e-06 -2.46321e-05 0 -6.74594e-06 -2.36139e-05 0 -6.11574e-06 -2.26769e-05 0 -5.52036e-06 -2.18187e-05 0 -4.95638e-06 -2.10372e-05 0 -4.42057e-06 -2.03302e-05 0 -3.9099e-06 -1.96959e-05 0 -3.42144e-06 -1.91328e-05 0 -2.95243e-06 -1.86393e-05 0 -2.50019e-06 -1.82142e-05 0 -2.06215e-06 -1.78564e-05 0 -1.63583e-06 -1.75649e-05 0 -1.21881e-06 -1.73389e-05 0 -8.08713e-07 -1.7178e-05 0 -4.03211e-07 -1.70816e-05 0 0 -1.70495e-05 0 -2.39159e-05 -5.84017e-05 0 -2.19188e-05 -5.51127e-05 0 -2.01175e-05 -5.20579e-05 0 -1.84825e-05 -4.9214e-05 0 -1.69911e-05 -4.65613e-05 0 -1.56252e-05 -4.40835e-05 0 -1.43701e-05 -4.17666e-05 0 -1.32139e-05 -3.95986e-05 0 -1.21463e-05 -3.75691e-05 0 -1.1159e-05 -3.56696e-05 0 -1.02445e-05 -3.38923e-05 0 -9.39627e-06 -3.22306e-05 0 -8.60859e-06 -3.06787e-05 0 -7.87621e-06 -2.92315e-05 0 -7.19437e-06 -2.78844e-05 0 -6.55869e-06 -2.66334e-05 0 -5.96513e-06 -2.54748e-05 0 -5.40991e-06 -2.44053e-05 0 -4.88952e-06 -2.34218e-05 0 -4.40065e-06 -2.25216e-05 0 -3.94018e-06 -2.17022e-05 0 -3.50519e-06 -2.09614e-05 0 -3.09289e-06 -2.02971e-05 0 -2.70063e-06 -1.97076e-05 0 -2.32588e-06 -1.91911e-05 0 -1.96624e-06 -1.87464e-05 0 -1.61937e-06 -1.83722e-05 0 -1.28304e-06 -1.80674e-05 0 -9.55042e-07 -1.78312e-05 0 -6.33262e-07 -1.76629e-05 0 -3.15604e-07 -1.75622e-05 0 0 -1.75286e-05 0 -1.91694e-05 -6.09599e-05 0 -1.75334e-05 -5.74175e-05 0 -1.60515e-05 -5.41464e-05 0 -1.47025e-05 -5.11163e-05 0 -1.34694e-05 -4.83013e-05 0 -1.23388e-05 -4.56802e-05 0 -1.12996e-05 -4.32355e-05 0 -1.03428e-05 -4.09525e-05 0 -9.46102e-06 -3.8819e-05 0 -8.6476e-06 -3.68248e-05 0 -7.89683e-06 -3.4961e-05 0 -7.20358e-06 -3.32203e-05 0 -6.56315e-06 -3.1596e-05 0 -5.97121e-06 -3.00826e-05 0 -5.42377e-06 -2.86749e-05 0 -4.91708e-06 -2.73685e-05 0 -4.44761e-06 -2.61593e-05 0 -4.01207e-06 -2.50438e-05 0 -3.60735e-06 -2.40186e-05 0 -3.23051e-06 -2.30808e-05 0 -2.87877e-06 -2.22276e-05 0 -2.54953e-06 -2.14566e-05 0 -2.2403e-06 -2.07655e-05 0 -1.94871e-06 -2.01524e-05 0 -1.67254e-06 -1.96156e-05 0 -1.40962e-06 -1.91534e-05 0 -1.15791e-06 -1.87646e-05 0 -9.15423e-07 -1.8448e-05 0 -6.80241e-07 -1.82027e-05 0 -4.50494e-07 -1.8028e-05 0 -2.24349e-07 -1.79234e-05 0 0 -1.78885e-05 0 -1.41054e-05 -6.29719e-05 0 -1.28756e-05 -5.92411e-05 0 -1.17509e-05 -5.5809e-05 0 -1.07178e-05 -5.26381e-05 0 -9.7668e-06 -4.96981e-05 0 -8.89051e-06 -4.69646e-05 0 -8.08293e-06 -4.44178e-05 0 -7.33905e-06 -4.20414e-05 0 -6.65443e-06 -3.9822e-05 0 -6.02505e-06 -3.77485e-05 0 -5.44714e-06 -3.58116e-05 0 -4.91713e-06 -3.40033e-05 0 -4.4316e-06 -3.23167e-05 0 -3.98723e-06 -3.07459e-05 0 -3.58084e-06 -2.92855e-05 0 -3.20936e-06 -2.79308e-05 0 -2.86986e-06 -2.66775e-05 0 -2.55952e-06 -2.55219e-05 0 -2.27568e-06 -2.44603e-05 0 -2.01579e-06 -2.34897e-05 0 -1.77744e-06 -2.2607e-05 0 -1.55835e-06 -2.18097e-05 0 -1.35637e-06 -2.10954e-05 0 -1.16945e-06 -2.04619e-05 0 -9.95645e-07 -1.99073e-05 0 -8.33107e-07 -1.94301e-05 0 -6.80072e-07 -1.90287e-05 0 -5.34845e-07 -1.87019e-05 0 -3.95794e-07 -1.84488e-05 0 -2.61332e-07 -1.82685e-05 0 -1.29909e-07 -1.81606e-05 0 0 -1.81247e-05 0 -8.82417e-06 -6.43727e-05 0 -8.03425e-06 -6.05375e-05 0 -7.2888e-06 -5.70101e-05 0 -6.58803e-06 -5.37516e-05 0 -5.93193e-06 -5.07296e-05 0 -5.32043e-06 -4.79187e-05 0 -4.75334e-06 -4.52983e-05 0 -4.23008e-06 -4.2852e-05 0 -3.74976e-06 -4.05662e-05 0 -3.31106e-06 -3.843e-05 0 -2.91235e-06 -3.64339e-05 0 -2.55168e-06 -3.45702e-05 0 -2.22692e-06 -3.28319e-05 0 -1.93578e-06 -3.12131e-05 0 -1.67589e-06 -2.97083e-05 0 -1.44485e-06 -2.83129e-05 0 -1.24031e-06 -2.70224e-05 0 -1.05993e-06 -2.58328e-05 0 -9.0148e-07 -2.47405e-05 0 -7.62819e-07 -2.37422e-05 0 -6.41907e-07 -2.28347e-05 0 -5.36817e-07 -2.20154e-05 0 -4.45724e-07 -2.12816e-05 0 -3.66912e-07 -2.06311e-05 0 -2.98758e-07 -2.00618e-05 0 -2.39731e-07 -1.9572e-05 0 -1.88377e-07 -1.91602e-05 0 -1.4331e-07 -1.8825e-05 0 -1.03203e-07 -1.85654e-05 0 -6.67759e-08 -1.83806e-05 0 -3.27825e-08 -1.82699e-05 0 0 -1.82331e-05 0 -3.46472e-06 -6.51412e-05 0 -3.11306e-06 -6.12883e-05 0 -2.74725e-06 -5.7737e-05 0 -2.37887e-06 -5.44471e-05 0 -2.01764e-06 -5.1388e-05 0 -1.67131e-06 -4.85355e-05 0 -1.34562e-06 -4.58706e-05 0 -1.04464e-06 -4.3378e-05 0 -7.70939e-07 -4.10454e-05 0 -5.2588e-07 -3.88628e-05 0 -3.09815e-07 -3.68215e-05 0 -1.2233e-07 -3.49144e-05 0 3.75597e-08 -3.3135e-05 0 1.7124e-07 -3.14776e-05 0 2.80358e-07 -2.99371e-05 0 3.66715e-07 -2.85086e-05 0 4.32177e-07 -2.7188e-05 0 4.78612e-07 -2.59709e-05 0 5.07853e-07 -2.48539e-05 0 5.21659e-07 -2.38333e-05 0 5.21704e-07 -2.2906e-05 0 5.09564e-07 -2.20691e-05 0 4.86717e-07 -2.13198e-05 0 4.5454e-07 -2.06559e-05 0 4.1432e-07 -2.00751e-05 0 3.67257e-07 -1.95755e-05 0 3.14473e-07 -1.91556e-05 0 2.57025e-07 -1.88139e-05 0 1.95915e-07 -1.85493e-05 0 1.32097e-07 -1.83609e-05 0 6.6492e-08 -1.82481e-05 0 0 -1.82106e-05 0 1.84688e-06 -6.52863e-05 0 1.78304e-06 -6.15092e-05 0 1.79049e-06 -5.80022e-05 0 1.84397e-06 -5.47349e-05 0 1.92389e-06 -5.16811e-05 0 2.01524e-06 -4.88205e-05 0 2.10663e-06 -4.61377e-05 0 2.18984e-06 -4.36204e-05 0 2.25921e-06 -4.12588e-05 0 2.31117e-06 -3.90446e-05 0 2.34376e-06 -3.6971e-05 0 2.35625e-06 -3.50318e-05 0 2.34874e-06 -3.32214e-05 0 2.32198e-06 -3.15346e-05 0 2.2771e-06 -2.99667e-05 0 2.21543e-06 -2.8513e-05 0 2.13847e-06 -2.71693e-05 0 2.04769e-06 -2.59315e-05 0 1.94459e-06 -2.47958e-05 0 1.83056e-06 -2.37587e-05 0 1.70693e-06 -2.28167e-05 0 1.57494e-06 -2.1967e-05 0 1.4357e-06 -2.12066e-05 0 1.29026e-06 -2.0533e-05 0 1.13953e-06 -1.9944e-05 0 9.84387e-07 -1.94376e-05 0 8.2559e-07 -1.9012e-05 0 6.63854e-07 -1.86658e-05 0 4.99833e-07 -1.83977e-05 0 3.34135e-07 -1.82069e-05 0 1.6734e-07 -1.80927e-05 0 0 -1.80547e-05 0 6.97725e-06 -6.48835e-05 0 6.55609e-06 -6.12476e-05 0 6.24883e-06 -5.78449e-05 0 6.02149e-06 -5.46457e-05 0 5.8467e-06 -5.16323e-05 0 5.703e-06 -4.87909e-05 0 5.57452e-06 -4.61117e-05 0 5.44976e-06 -4.35869e-05 0 5.32097e-06 -4.12104e-05 0 5.18315e-06 -3.8977e-05 0 5.03346e-06 -3.68819e-05 0 4.8706e-06 -3.49204e-05 0 4.69431e-06 -3.30881e-05 0 4.50505e-06 -3.13805e-05 0 4.3037e-06 -2.97932e-05 0 4.09138e-06 -2.83219e-05 0 3.86929e-06 -2.69624e-05 0 3.63867e-06 -2.57106e-05 0 3.4007e-06 -2.45627e-05 0 3.15648e-06 -2.35148e-05 0 2.907e-06 -2.25637e-05 0 2.65315e-06 -2.17061e-05 0 2.3957e-06 -2.0939e-05 0 2.13532e-06 -2.02599e-05 0 1.87258e-06 -1.96662e-05 0 1.60798e-06 -1.9156e-05 0 1.34191e-06 -1.87274e-05 0 1.07473e-06 -1.83787e-05 0 8.06716e-07 -1.81089e-05 0 5.38118e-07 -1.79169e-05 0 2.69149e-07 -1.78019e-05 0 0 -1.77637e-05 0 1.18363e-05 -6.40032e-05 0 1.11288e-05 -6.05841e-05 0 1.05676e-05 -5.73269e-05 0 1.01084e-05 -5.42285e-05 0 9.71637e-06 -5.12789e-05 0 9.36566e-06 -4.84741e-05 0 9.03723e-06 -4.58115e-05 0 8.71807e-06 -4.32899e-05 0 8.39963e-06 -4.09078e-05 0 8.07685e-06 -3.86637e-05 0 7.74701e-06 -3.65551e-05 0 7.4091e-06 -3.45794e-05 0 7.06312e-06 -3.27331e-05 0 6.70972e-06 -3.10125e-05 0 6.34986e-06 -2.94136e-05 0 5.98467e-06 -2.79322e-05 0 5.61526e-06 -2.65642e-05 0 5.24268e-06 -2.53053e-05 0 4.8679e-06 -2.41516e-05 0 4.49171e-06 -2.30992e-05 0 4.1148e-06 -2.21446e-05 0 3.73771e-06 -2.12843e-05 0 3.36086e-06 -2.05153e-05 0 2.98453e-06 -1.98348e-05 0 2.60892e-06 -1.92403e-05 0 2.23414e-06 -1.87295e-05 0 1.8602e-06 -1.83006e-05 0 1.48706e-06 -1.79518e-05 0 1.11462e-06 -1.76819e-05 0 7.42754e-07 -1.74899e-05 0 3.71276e-07 -1.7375e-05 0 0 -1.73367e-05 0 1.63399e-05 -6.28152e-05 0 1.54465e-05 -5.9616e-05 0 1.47097e-05 -5.65325e-05 0 1.4079e-05 -5.35473e-05 0 1.35157e-05 -5.06691e-05 0 1.2991e-05 -4.79045e-05 0 1.24854e-05 -4.5261e-05 0 1.19864e-05 -4.27447e-05 0 1.1487e-05 -4.03599e-05 0 1.09837e-05 -3.81089e-05 0 1.04754e-05 -3.5992e-05 0 9.9622e-06 -3.4008e-05 0 9.44527e-06 -3.21545e-05 0 8.92591e-06 -3.04281e-05 0 8.40552e-06 -2.88251e-05 0 7.88543e-06 -2.73411e-05 0 7.3668e-06 -2.59719e-05 0 6.85058e-06 -2.47131e-05 0 6.33752e-06 -2.35604e-05 0 5.82817e-06 -2.25099e-05 0 5.32288e-06 -2.15578e-05 0 4.82182e-06 -2.07004e-05 0 4.32503e-06 -1.99345e-05 0 3.83242e-06 -1.92571e-05 0 3.34377e-06 -1.86656e-05 0 2.85877e-06 -1.81577e-05 0 2.37704e-06 -1.77313e-05 0 1.89812e-06 -1.73848e-05 0 1.42152e-06 -1.71167e-05 0 9.46682e-07 -1.6926e-05 0 4.7304e-07 -1.68118e-05 0 0 -1.67738e-05 0 2.04609e-05 -6.13945e-05 0 1.94905e-05 -5.84818e-05 0 1.86671e-05 -5.55578e-05 0 1.79345e-05 -5.26779e-05 0 1.72501e-05 -4.98571e-05 0 1.65854e-05 -4.71193e-05 0 1.59239e-05 -4.44835e-05 0 1.52571e-05 -4.19648e-05 0 1.45824e-05 -3.95734e-05 0 1.39001e-05 -3.7315e-05 0 1.32125e-05 -3.51921e-05 0 1.25221e-05 -3.32044e-05 0 1.18318e-05 -3.13496e-05 0 1.11439e-05 -2.96245e-05 0 1.04606e-05 -2.80248e-05 0 9.78352e-06 -2.6546e-05 0 9.11396e-06 -2.51833e-05 0 8.45278e-06 -2.39321e-05 0 7.80049e-06 -2.27878e-05 0 7.15735e-06 -2.1746e-05 0 6.52335e-06 -2.08026e-05 0 5.89828e-06 -1.99539e-05 0 5.28175e-06 -1.91963e-05 0 4.67324e-06 -1.85268e-05 0 4.07209e-06 -1.79425e-05 0 3.47757e-06 -1.74411e-05 0 2.88885e-06 -1.70203e-05 0 2.30506e-06 -1.66784e-05 0 1.72526e-06 -1.6414e-05 0 1.14848e-06 -1.6226e-05 0 5.73729e-07 -1.61135e-05 0 0 -1.6076e-05 0 2.42023e-05 -6.00635e-05 0 2.32774e-05 -5.72971e-05 0 2.24697e-05 -5.45204e-05 0 2.17102e-05 -5.17005e-05 0 2.0954e-05 -4.88971e-05 0 2.01778e-05 -4.61505e-05 0 1.93738e-05 -4.34958e-05 0 1.85431e-05 -4.09569e-05 0 1.76916e-05 -3.85488e-05 0 1.68264e-05 -3.62793e-05 0 1.59545e-05 -3.41512e-05 0 1.50819e-05 -3.21638e-05 0 1.42137e-05 -3.0314e-05 0 1.33535e-05 -2.85976e-05 0 1.25044e-05 -2.70095e-05 0 1.16681e-05 -2.55443e-05 0 1.08461e-05 -2.41967e-05 0 1.0039e-05 -2.29613e-05 0 9.2471e-06 -2.18331e-05 0 8.4702e-06 -2.08072e-05 0 7.70788e-06 -1.98794e-05 0 6.95949e-06 -1.90455e-05 0 6.22417e-06 -1.83018e-05 0 5.50092e-06 -1.76451e-05 0 4.7886e-06 -1.70724e-05 0 4.08603e-06 -1.65811e-05 0 3.3919e-06 -1.61691e-05 0 2.70489e-06 -1.58345e-05 0 2.02361e-06 -1.55758e-05 0 1.34666e-06 -1.53918e-05 0 6.72604e-07 -1.52818e-05 0 0 -1.52451e-05 0 2.75798e-05 -5.87124e-05 0 2.68656e-05 -5.6281e-05 0 2.61968e-05 -5.35355e-05 0 2.54886e-05 -5.06974e-05 0 2.47e-05 -4.78308e-05 0 2.38234e-05 -4.50145e-05 0 2.28726e-05 -4.22984e-05 0 2.18667e-05 -3.97135e-05 0 2.08251e-05 -3.72756e-05 0 1.97643e-05 -3.49909e-05 0 1.86972e-05 -3.28595e-05 0 1.76337e-05 -3.08779e-05 0 1.65807e-05 -2.90411e-05 0 1.55434e-05 -2.73425e-05 0 1.45248e-05 -2.57756e-05 0 1.35272e-05 -2.43338e-05 0 1.25516e-05 -2.30106e-05 0 1.15982e-05 -2.18001e-05 0 1.06669e-05 -2.06964e-05 0 9.75701e-06 -1.96944e-05 0 8.86759e-06 -1.87893e-05 0 7.99742e-06 -1.79768e-05 0 7.1451e-06 -1.72529e-05 0 6.3091e-06 -1.66141e-05 0 5.48779e-06 -1.60575e-05 0 4.67944e-06 -1.55804e-05 0 3.88228e-06 -1.51804e-05 0 3.09451e-06 -1.48557e-05 0 2.31426e-06 -1.46048e-05 0 1.53969e-06 -1.44264e-05 0 7.68897e-07 -1.43197e-05 0 0 -1.42842e-05 0 3.06757e-05 -5.82013e-05 0 3.03828e-05 -5.55664e-05 0 3.00131e-05 -5.27672e-05 0 2.94274e-05 -4.97276e-05 0 2.86079e-05 -4.66675e-05 0 2.76039e-05 -4.36914e-05 0 2.64687e-05 -4.08619e-05 0 2.52524e-05 -3.82048e-05 0 2.39913e-05 -3.57277e-05 0 2.27119e-05 -3.34285e-05 0 2.14326e-05 -3.13004e-05 0 2.01657e-05 -2.93347e-05 0 1.89195e-05 -2.7522e-05 0 1.76992e-05 -2.58533e-05 0 1.65078e-05 -2.43195e-05 0 1.5347e-05 -2.29125e-05 0 1.42171e-05 -2.16246e-05 0 1.31179e-05 -2.0449e-05 0 1.20485e-05 -1.93792e-05 0 1.10074e-05 -1.84095e-05 0 9.99301e-06 -1.75349e-05 0 9.00355e-06 -1.67506e-05 0 8.03698e-06 -1.60527e-05 0 7.09116e-06 -1.54374e-05 0 6.16389e-06 -1.49016e-05 0 5.25293e-06 -1.44426e-05 0 4.35598e-06 -1.40581e-05 0 3.47073e-06 -1.37461e-05 0 2.59484e-06 -1.3505e-05 0 1.72598e-06 -1.33336e-05 0 8.61819e-07 -1.32312e-05 0 0 -1.31971e-05 0 3.34214e-05 -5.79263e-05 0 3.41094e-05 -5.56948e-05 0 3.42712e-05 -5.23222e-05 0 3.37929e-05 -4.87829e-05 0 3.28524e-05 -4.53282e-05 0 3.16105e-05 -4.20954e-05 0 3.02055e-05 -3.91116e-05 0 2.87131e-05 -3.63725e-05 0 2.71869e-05 -3.3862e-05 0 2.56571e-05 -3.15611e-05 0 2.41442e-05 -2.94524e-05 0 2.26598e-05 -2.75193e-05 0 2.12114e-05 -2.57475e-05 0 1.98028e-05 -2.41242e-05 0 1.84361e-05 -2.26383e-05 0 1.71114e-05 -2.12796e-05 0 1.5828e-05 -2.00394e-05 0 1.45847e-05 -1.89099e-05 0 1.33795e-05 -1.78841e-05 0 1.22101e-05 -1.6956e-05 0 1.10741e-05 -1.612e-05 0 9.96897e-06 -1.53713e-05 0 8.89193e-06 -1.47057e-05 0 7.84021e-06 -1.41194e-05 0 6.81101e-06 -1.36094e-05 0 5.80151e-06 -1.31727e-05 0 4.80888e-06 -1.2807e-05 0 3.83029e-06 -1.25104e-05 0 2.86291e-06 -1.22814e-05 0 1.90394e-06 -1.21186e-05 0 9.50573e-07 -1.20213e-05 0 0 -1.19889e-05 0 3.62732e-05 -6.09315e-05 0 3.90239e-05 -5.70985e-05 0 3.97297e-05 -5.21833e-05 0 3.90117e-05 -4.75833e-05 0 3.75834e-05 -4.35671e-05 0 3.59003e-05 -4.00432e-05 0 3.40792e-05 -3.69226e-05 0 3.22295e-05 -3.41335e-05 0 3.03827e-05 -3.16234e-05 0 2.85702e-05 -2.93533e-05 0 2.68026e-05 -2.72927e-05 0 2.50887e-05 -2.54179e-05 0 2.34313e-05 -2.37095e-05 0 2.18317e-05 -2.21518e-05 0 2.02891e-05 -2.07312e-05 0 1.88019e-05 -1.94365e-05 0 1.73677e-05 -1.82578e-05 0 1.59836e-05 -1.71867e-05 0 1.46466e-05 -1.62159e-05 0 1.33533e-05 -1.53389e-05 0 1.21004e-05 -1.455e-05 0 1.08844e-05 -1.38444e-05 0 9.70183e-06 -1.32177e-05 0 8.54921e-06 -1.26663e-05 0 7.42311e-06 -1.21868e-05 0 6.3201e-06 -1.17766e-05 0 5.23682e-06 -1.14333e-05 0 4.16991e-06 -1.11549e-05 0 3.11605e-06 -1.094e-05 0 2.07195e-06 -1.07873e-05 0 1.03435e-06 -1.0696e-05 0 0 -1.06657e-05 0 3.40496e-05 -8.55594e-05 0 4.90936e-05 -5.86472e-05 0 4.77404e-05 -5.10145e-05 0 4.5078e-05 -4.52797e-05 0 4.28489e-05 -4.09388e-05 0 4.03372e-05 -3.72829e-05 0 3.80298e-05 -3.41513e-05 0 3.57158e-05 -3.14042e-05 0 3.3524e-05 -2.89617e-05 0 3.13973e-05 -2.67758e-05 0 2.93668e-05 -2.48043e-05 0 2.74158e-05 -2.3022e-05 0 2.55489e-05 -2.14048e-05 0 2.3759e-05 -1.99362e-05 0 2.20439e-05 -1.8601e-05 0 2.03983e-05 -1.73876e-05 0 1.88182e-05 -1.62853e-05 0 1.72989e-05 -1.52858e-05 0 1.5836e-05 -1.43812e-05 0 1.44249e-05 -1.35653e-05 0 1.30612e-05 -1.28323e-05 0 1.17405e-05 -1.21774e-05 0 1.04586e-05 -1.15963e-05 0 9.21116e-06 -1.10854e-05 0 7.99422e-06 -1.06414e-05 0 6.80371e-06 -1.02618e-05 0 5.63571e-06 -9.94418e-06 0 4.48636e-06 -9.6868e-06 0 3.35185e-06 -9.48812e-06 0 2.22843e-06 -9.34701e-06 0 1.11237e-06 -9.26266e-06 0 0 -9.2346e-06 0 </DataArray> 
</PointData> 
<Points> 
<DataArray type="Float32" NumberOfComponents="3"> 